G5.5cooh-PAMAM in water
130403
    1aaa     C1    1   9.939   5.772   3.657  0.2289 -0.0492 -0.0768
    1aaa     H1    2   9.899   5.777   3.760 -1.9144 -4.0492 -0.5187
    1aaa     H2    3  10.002   5.860   3.638 -1.2390  0.5531 -2.7679
    1aaa     C2    4   9.829   5.793   3.556 -0.3267 -0.1870 -0.0335
    1aaa     H3    5   9.871   5.817   3.458  0.2930  0.8014  0.4518
    1aaa     H4    6   9.788   5.692   3.555  0.3628 -0.5115  1.4689
    1aaa     N1    7   9.727   5.894   3.593  0.3503 -0.2413 -0.0948
    1aaa     N2    8  10.004   5.635   3.642  0.0593 -0.3596  0.7900
    1aaa     C3    9  10.062   5.617   3.504 -0.2731  0.2205  0.3280
    1aaa     H5   10  10.106   5.711   3.469  0.7575 -0.2256  0.4087
    1aaa     H6   11   9.988   5.584   3.430  0.5489 -1.8533  0.3781
    1aaa     C4   12   9.932   5.523   3.695 -0.3654  0.7340  0.3452
    1aaa     H7   13   9.826   5.529   3.668 -0.2062  1.9021 -0.0655
    1aaa     H8   14   9.976   5.433   3.651 -0.9451 -0.6543  2.4400
    1aaa     C5   15   9.583   5.858   3.589 -0.1779  0.7982  0.3027
    1aaa     H9   16   9.518   5.944   3.610 -0.5933  0.7230 -0.6266
    1aaa    H10   17   9.561   5.823   3.488 -0.5797  3.2157 -0.5305
    1aaa     C6   18   9.758   6.039   3.570 -0.2099 -0.2442 -0.2330
    1aaa    H11   19   9.865   6.046   3.590  0.2802  0.1058 -2.6609
    1aaa    H12   20   9.705   6.104   3.641  2.2736  0.7282  0.8484
    1aaa     C7   21   9.564   5.747   3.692 -0.1053  0.1322  0.1355
    1aaa    H13   22   9.622   5.661   3.656 -0.5409 -0.0887 -0.0363
    1aaa    H14   23   9.601   5.775   3.791 -1.3434 -0.7011  0.8525
    1aaa     C8   24   9.731   6.078   3.421  0.4403 -0.5259 -0.2163
    1aaa    H15   25   9.807   6.028   3.359 -0.4991 -2.9208  0.4677
    1aaa    H16   26   9.630   6.057   3.384 -0.6964 -0.1491  2.4928
    1aaa     C9   27   9.926   5.506   3.838 -0.2417  0.2688  0.7646
    1aaa    H17   28  10.022   5.528   3.886 -0.8618  0.7357  1.8201
    1aaa    H18   29   9.841   5.560   3.883 -1.9728 -0.3396 -1.5706
    1aaa    C10   30  10.179   5.512   3.500  1.0479 -0.4838 -0.7107
    1aaa    H19   31  10.258   5.562   3.557  0.4530 -1.2962  0.8793
    1aaa    H20   32  10.154   5.417   3.550  0.0094  0.0761 -0.1257
    1aaa    C11   33   9.923   5.357   3.869  0.7801 -0.3767 -0.6747
    1aaa    C12   34  10.222   5.484   3.360 -0.4669  0.1990  0.1167
    1aaa    C13   35   9.421   5.714   3.713 -0.1015  0.4105  0.1079
    1aaa    C14   36   9.752   6.229   3.410  0.4926 -0.6513 -0.0389
    1aaa     O1   37  10.019   5.290   3.904 -0.5741 -0.6694 -0.8387
    1aaa     O2   38   9.330   5.722   3.631 -0.1698  0.2450 -0.0044
    1aaa     O3   39   9.659   6.301   3.388 -0.8535 -0.7520 -0.5409
    1aaa     O4   40  10.225   5.571   3.281 -0.0063  0.9232  0.0862
    2bbb     C1   41   9.704   5.074   3.738  0.1218 -0.5238 -1.2217
    2bbb     H1   42   9.719   5.115   3.638  4.4897 -0.2100 -0.6515
    2bbb     H2   43   9.609   5.106   3.784  0.8230  0.6167 -0.5073
    2bbb     C2   44   9.818   5.128   3.830  0.1816 -0.6393  0.5037
    2bbb     H3   45   9.809   5.081   3.929  1.7053 -1.9089  0.0852
    2bbb     H4   46   9.911   5.112   3.775  0.1627  0.0220  0.2679
    2bbb     N1   47   9.710   4.925   3.725 -0.2430  0.7785  0.2257
    2bbb     C3   48   9.641   4.879   3.602 -0.0503 -0.0713 -0.4094
    2bbb     H5   49   9.575   4.962   3.575 -0.7642 -0.6939 -0.6298
    2bbb     H6   50   9.587   4.783   3.612  0.7942 -0.5043  0.0578
    2bbb     C4   51   9.660   4.859   3.840  0.0806  0.3309 -0.9748
    2bbb     H7   52   9.697   4.913   3.928  0.2679  0.8239 -1.3470
    2bbb     H8   53   9.550   4.865   3.840  0.1020  1.0657 -1.9209
    2bbb     C5   54   9.713   4.717   3.846 -0.8114  0.3514  0.2456
    2bbb     H9   55   9.674   4.657   3.764  0.8148 -0.0651 -0.2711
    2bbb    H10   56   9.821   4.733   3.830 -0.7796  0.3997  0.5077
    2bbb     C6   57   9.752   4.849   3.504 -0.8412 -0.0511  0.1058
    2bbb    H11   58   9.796   4.945   3.472  1.2056 -1.0866 -0.3444
    2bbb    H12   59   9.827   4.774   3.534 -0.0426  0.2090 -1.1363
    2bbb     C7   60   9.691   4.651   3.977  0.5003 -0.1856  0.0488
    2bbb     C8   61   9.683   4.800   3.383 -0.1166  0.9433  0.3611
    2bbb     O1   62   9.634   4.699   4.067 -0.1096 -0.5070 -1.0094
    2bbb     O2   63   9.697   4.854   3.274  0.5219 -0.2574 -0.4652
    2bbb     N4   64   9.809   5.283   3.834 -0.3126 -0.0631 -0.1573
    2bbb    H21   65   9.733   5.323   3.781 -0.6489 -2.1110 -1.3218
    3bbb     C1   66  10.243   5.139   3.203  0.0006 -0.0227  0.3555
    3bbb     H1   67  10.144   5.100   3.232 -0.4453  0.8720  0.1108
    3bbb     H2   68  10.305   5.118   3.290 -0.6794  0.4572  0.9766
    3bbb     C2   69  10.229   5.298   3.203 -0.2173  0.1009 -0.2567
    3bbb     H3   70  10.294   5.352   3.132 -0.7714 -0.1517 -0.9682
    3bbb     H4   71  10.131   5.320   3.159 -1.1394 -1.5925  0.8614
    3bbb     N1   72  10.293   5.079   3.079 -0.9402  0.1160  0.5388
    3bbb     C3   73  10.294   4.930   3.086 -0.0134 -0.1482 -0.7590
    3bbb     H5   74  10.231   4.905   3.172  0.3228 -1.1328 -0.7849
    3bbb     H6   75  10.396   4.890   3.095 -0.2708 -0.4937  0.8579
    3bbb     C4   76  10.435   5.126   3.057 -0.4064 -0.3023 -0.3814
    3bbb     H7   77  10.434   5.236   3.056 -0.4868 -0.2555  1.4611
    3bbb     H8   78  10.499   5.098   3.142  2.4405  2.7195 -1.3152
    3bbb     C5   79  10.496   5.082   2.925 -0.0992 -0.0078  0.8211
    3bbb     H9   80  10.505   4.973   2.928 -1.5356 -0.2115 -0.8556
    3bbb    H10   81  10.429   5.104   2.842 -1.0725  1.7094  1.9922
    3bbb     C6   82  10.214   4.875   2.961 -0.7328  0.3138 -0.1066
    3bbb    H11   83  10.112   4.914   2.958 -0.3103  1.3957 -1.0021
    3bbb    H12   84  10.269   4.892   2.868  1.4310 -2.9139  0.3996
    3bbb     C7   85  10.632   5.133   2.890 -0.6937 -0.6821  0.1819
    3bbb     C8   86  10.214   4.723   2.965 -0.2465 -0.2872  0.5211
    3bbb     O1   87  10.644   5.235   2.827  0.2306 -0.5254  0.2506
    3bbb     O2   88  10.164   4.648   3.046 -0.0356 -0.7210 -0.1952
    3bbb     N4   89  10.255   5.355   3.332  0.3500 -0.1274 -0.3302
    3bbb    H21   90  10.258   5.285   3.406  0.3176 -1.1068 -1.2282
    4bbb     C1   91   9.194   5.524   3.806 -0.3110 -0.2511 -0.1545
    4bbb     H1   92   9.221   5.427   3.850 -0.1457 -0.3993 -0.5867
    4bbb     H2   93   9.250   5.523   3.712  0.4188 -1.6852  0.2736
    4bbb     C2   94   9.262   5.642   3.886 -0.0979  0.3609  0.0709
    4bbb     H3   95   9.199   5.730   3.871 -1.9750 -0.8643  0.4272
    4bbb     H4   96   9.252   5.623   3.993 -1.9762  1.6770  0.1571
    4bbb     N1   97   9.048   5.554   3.792  0.4355 -0.0758  0.0514
    4bbb     C3   98   8.981   5.536   3.918 -0.2286  0.3499  0.3898
    4bbb     H5   99   9.019   5.601   3.998  0.9367  1.0880 -0.7149
    4bbb     H6  100   8.991   5.434   3.957 -0.2564 -0.2177 -1.0126
    4bbb     C4  101   8.992   5.461   3.690 -0.1183  0.1796 -0.3451
    4bbb     H7  102   9.030   5.360   3.709  0.6279  0.3024 -1.1464
    4bbb     H8  103   8.882   5.464   3.689 -0.1909 -0.1976  1.6432
    4bbb     C5  104   9.056   5.501   3.559  0.1162 -0.0138  0.2742
    4bbb     H9  105   9.065   5.610   3.552  0.1140 -0.0803 -1.2445
    4bbb    H10  106   9.155   5.455   3.547  1.5934  2.5148  1.8921
    4bbb     C6  107   8.829   5.573   3.916 -0.0925  0.1789  0.7461
    4bbb    H11  108   8.827   5.667   3.859  0.4769 -0.9079 -1.1815
    4bbb    H12  109   8.776   5.493   3.863  3.5843 -0.8663 -1.7754
    4bbb     C7  110   8.977   5.446   3.439 -0.7386  0.4255 -0.5842
    4bbb     C8  111   8.783   5.610   4.051 -0.0583 -0.3633 -0.7707
    4bbb     O1  112   8.918   5.342   3.446  0.4321 -0.0726 -0.5858
    4bbb     O2  113   8.777   5.728   4.086  0.1538  0.1248 -0.2435
    4bbb     N4  114   9.393   5.660   3.839  0.1593 -1.1467  0.5405
    4bbb    H21  115   9.469   5.652   3.905  0.9136  2.9397  0.4348
    5bbb     C1  116   9.860   6.386   3.671 -0.2704  0.0449  0.7982
    5bbb     H1  117   9.896   6.287   3.700  2.7474  1.0015  0.5875
    5bbb     H2  118   9.751   6.381   3.683 -0.2623 -0.4234  0.6975
    5bbb     C2  119   9.890   6.407   3.520  0.8178 -0.6107 -0.1536
    5bbb     H3  120   9.825   6.489   3.487  0.0473 -0.6090  1.2958
    5bbb     H4  121   9.993   6.442   3.504  0.4947  0.6156  0.3500
    5bbb     N1  122   9.928   6.483   3.756 -0.1384  0.1300  0.0580
    5bbb     C3  123   9.956   6.430   3.893  0.4707  0.3411  0.5306
    5bbb     H5  124   9.881   6.351   3.909 -0.4905  0.6577 -1.8623
    5bbb     H6  125   9.959   6.515   3.962  1.0900  0.4994  0.3136
    5bbb     C4  126   9.845   6.605   3.761 -0.0553  0.1492  1.0872
    5bbb     H7  127   9.787   6.614   3.668  1.0204 -1.1573  0.2496
    5bbb     H8  128   9.789   6.605   3.855  0.2469  1.0521  1.2779
    5bbb     C5  129   9.952   6.715   3.775 -0.0216  0.8379  0.9299
    5bbb     H9  130   9.893   6.807   3.763 -1.7634 -0.3195  0.2069
    5bbb    H10  131  10.003   6.721   3.871  0.7893  0.4253  0.5357
    5bbb     C6  132  10.098   6.392   3.889 -0.4965  0.5669  0.2397
    5bbb    H11  133  10.116   6.301   3.830 -0.2902  0.6333  0.2009
    5bbb    H12  134  10.169   6.472   3.864  0.0844  0.4203  1.3772
    5bbb     C7  135  10.048   6.710   3.660  0.2195 -0.0122 -0.2976
    5bbb     C8  136  10.139   6.350   4.023 -0.5238 -0.1574 -0.2140
    5bbb     O1  137  10.021   6.707   3.542  0.7763  0.2278 -0.6143
    5bbb     O2  138  10.229   6.420   4.071 -0.0975 -0.6611  0.2867
    5bbb     N4  139   9.879   6.285   3.434  0.0431  0.2558 -0.5287
    5bbb    H21  140   9.952   6.216   3.442  1.1121  1.0340 -2.7926
    6bbb     C1  141   9.852   4.321   4.089  0.2908 -0.7876  0.3253
    6bbb     H1  142   9.878   4.298   3.985 -3.4908 -0.9078 -0.7307
    6bbb     H2  143   9.757   4.267   4.095 -0.0142 -0.3758 -0.5498
    6bbb     C2  144   9.803   4.463   4.111  0.3146  0.0391 -0.3072
    6bbb     H3  145   9.730   4.462   4.192  0.5097  1.0270 -0.1077
    6bbb     H4  146   9.890   4.522   4.142  0.1458 -0.8137  1.9447
    6bbb     N1  147   9.947   4.278   4.193 -0.4289 -0.6290 -0.1521
    6bbb     C3  148  10.080   4.327   4.164 -0.3966 -0.2965  0.3490
    6bbb     H5  149  10.064   4.425   4.116 -2.7626 -1.1240 -0.6859
    6bbb     H6  150  10.124   4.252   4.098  0.1904  0.6677 -0.3878
    6bbb     C4  151   9.955   4.137   4.214 -0.3895  0.2652  0.7317
    6bbb     H7  152   9.993   4.080   4.129  0.3180 -0.9103  1.8050
    6bbb     H8  153  10.025   4.129   4.298 -3.8050 -0.5182  3.7443
    6bbb     C5  154   9.818   4.087   4.278  0.0917  0.5295  1.0296
    6bbb     H9  155   9.806   4.131   4.379  1.5383 -1.2304  2.0201
    6bbb    H10  156   9.733   4.106   4.211  0.7740 -1.3214 -0.4199
    6bbb     C6  157  10.151   4.338   4.300  0.4628  0.9358  1.0430
    6bbb    H11  158  10.085   4.344   4.387  1.7150 -1.4008  2.2345
    6bbb    H12  159  10.223   4.257   4.310  2.6962  2.2182 -2.7464
    6bbb     C7  160   9.824   3.937   4.287  0.5020  0.1927  0.2206
    6bbb     C8  161  10.249   4.459   4.279  0.4500  0.2257 -0.8628
    6bbb     O1  162   9.928   3.880   4.273 -0.2134  0.5031 -0.4226
    6bbb     O2  163  10.343   4.452   4.203  0.5460  0.1283 -0.3443
    6bbb     N4  164   9.761   4.537   3.986  0.5358 -0.0284 -0.1767
    6bbb    H21  165   9.808   4.516   3.899  1.0770  0.5819 -0.0419
    7bbb     C1  166   9.394   4.681   3.295 -0.0368  0.7806  0.0629
    7bbb     H1  167   9.394   4.790   3.310 -1.2443  0.6266  1.4597
    7bbb     H2  168   9.337   4.634   3.376  1.5505 -0.5695  0.4471
    7bbb     C2  169   9.535   4.620   3.297  0.6822 -0.5925 -0.3083
    7bbb     H3  170   9.533   4.511   3.308  0.9720 -0.6632 -0.9591
    7bbb     H4  171   9.592   4.638   3.205 -0.1585  2.5792 -0.3372
    7bbb     N1  172   9.323   4.643   3.168 -0.2070 -0.1564  0.7409
    7bbb     C3  173   9.298   4.499   3.164  0.4454 -0.1234 -0.3263
    7bbb     H5  174   9.302   4.452   3.263 -3.4183 -0.9669 -0.4165
    7bbb     H6  175   9.378   4.448   3.109 -0.8337 -0.3424 -2.0531
    7bbb     C4  176   9.377   4.691   3.034 -0.2125 -0.4856  0.0551
    7bbb     H7  177   9.484   4.674   3.018 -0.0219  1.4248 -1.0677
    7bbb     H8  178   9.320   4.655   2.947  1.0135  0.6826 -1.3022
    7bbb     C5  179   9.358   4.842   3.029  0.4246  0.0033 -0.0593
    7bbb     H9  180   9.252   4.870   3.044  0.7873  0.1567  2.8437
    7bbb    H10  181   9.425   4.888   3.103 -0.0551 -1.5334  1.3921
    7bbb     C6  182   9.165   4.452   3.113 -0.2001 -0.1697 -0.1939
    7bbb    H11  183   9.082   4.501   3.166  0.1518 -0.7056  0.8921
    7bbb    H12  184   9.151   4.474   3.007 -0.0971 -0.2291 -0.2197
    7bbb     C7  185   9.400   4.893   2.896  1.1886  0.9201  0.0624
    7bbb     C8  186   9.151   4.302   3.135 -0.0814  1.0498  0.5533
    7bbb     O1  187   9.476   4.832   2.823 -0.2741  0.3485 -0.7610
    7bbb     O2  188   9.220   4.225   3.071 -0.3400 -0.1204 -0.2287
    7bbb     N4  189   9.621   4.680   3.399  0.7010  0.2380 -0.0416
    7bbb    H21  190   9.622   4.640   3.492 -1.0335 -1.1165 -0.5418
    8bbb     C1  191  10.957   5.140   2.834  0.1709  0.2413  0.1090
    8bbb     H1  192  10.908   5.213   2.769 -0.6283 -0.6065 -0.2567
    8bbb     H2  193  10.955   5.046   2.777 -1.5985  0.7053 -0.6521
    8bbb     C2  194  10.879   5.113   2.955 -0.5530  0.2442 -0.9866
    8bbb     H3  195  10.944   5.045   3.011  0.8275  1.4431 -1.0750
    8bbb     H4  196  10.873   5.202   3.019  7.7229  1.5941 -1.0361
    8bbb     N1  197  11.095   5.174   2.870  0.5671  0.4549 -0.7017
    8bbb     C3  198  11.111   5.312   2.933 -0.5351  0.8564 -0.3336
    8bbb     H5  199  11.033   5.326   3.009 -1.0065  0.2429 -0.6948
    8bbb     H6  200  11.099   5.388   2.855  1.5971  1.0154 -0.5535
    8bbb     C4  201  11.176   5.148   2.754 -0.3401  0.1875  0.4659
    8bbb     H7  202  11.119   5.102   2.673  0.5998 -0.8849  0.3893
    8bbb     H8  203  11.212   5.242   2.710  0.2931 -0.3923 -0.2691
    8bbb     C5  204  11.297   5.062   2.798  0.3411  0.2452 -0.2927
    8bbb     H9  205  11.360   5.124   2.864 -0.5250  0.9332 -0.0930
    8bbb    H10  206  11.243   4.985   2.853 -1.2708  0.9039 -0.8906
    8bbb     C6  207  11.249   5.329   2.998 -0.1696 -0.4628 -0.2653
    8bbb    H11  208  11.269   5.238   3.056  0.0537  0.3766  1.0201
    8bbb    H12  209  11.328   5.340   2.923 -0.7701 -2.6485 -1.3024
    8bbb     C7  210  11.367   5.009   2.683  0.2526 -0.0083 -0.0398
    8bbb     C8  211  11.252   5.450   3.095 -0.1895 -0.2440  0.0371
    8bbb     O1  212  11.323   4.908   2.634  0.3630  0.1423 -0.4857
    8bbb     O2  213  11.262   5.567   3.064  0.3868  0.3171 -0.0126
    8bbb     N4  214  10.741   5.053   2.925 -0.0589  0.0313 -0.4512
    8bbb    H21  215  10.718   4.970   2.980  2.7775 -1.1495 -0.8886
    9bbb     C1  216  10.355   4.490   2.687 -0.4068 -0.3633  0.1215
    9bbb     H1  217  10.324   4.395   2.641 -1.4784  0.2734 -0.5107
    9bbb     H2  218  10.464   4.484   2.694 -0.2943 -3.6475 -2.0314
    9bbb     C2  219  10.282   4.521   2.821 -0.2173  0.9440  0.2338
    9bbb     H3  220  10.180   4.483   2.814 -0.0284  0.2036  1.2661
    9bbb     H4  221  10.335   4.472   2.904 -2.1582  1.0187  1.5860
    9bbb     N1  222  10.310   4.593   2.587 -0.4467 -0.2640  0.0182
    9bbb     C3  223  10.399   4.627   2.483 -0.2627  0.3340 -0.1609
    9bbb     H5  224  10.491   4.672   2.522 -0.5633  3.3036 -2.5408
    9bbb     H6  225  10.351   4.712   2.433  0.2146  0.3507 -0.5990
    9bbb     C4  226  10.167   4.587   2.543 -0.2290 -0.0346 -0.2027
    9bbb     H7  227  10.167   4.569   2.435 -0.3910 -0.0970 -0.1927
    9bbb     H8  228  10.108   4.509   2.592  0.6550 -0.5756  0.0264
    9bbb     C5  229  10.092   4.719   2.577  0.4144 -0.3827  0.3071
    9bbb     H9  230  10.062   4.732   2.682 -0.1835 -1.1828  0.2485
    9bbb    H10  231  10.151   4.807   2.549 -2.4409  1.4431 -0.5068
    9bbb     C6  232  10.430   4.513   2.386  0.2021  0.1114  0.3830
    9bbb    H11  233  10.501   4.440   2.426  0.1414  0.7210  1.6642
    9bbb    H12  234  10.336   4.469   2.352 -0.1448  1.6706 -0.7930
    9bbb     C7  235   9.968   4.729   2.495 -0.1520  0.0202  0.1719
    9bbb     C8  236  10.506   4.571   2.270  0.2359  0.3389  0.1974
    9bbb     O1  237   9.931   4.640   2.425 -0.0776  0.0164 -0.9391
    9bbb     O2  238  10.591   4.654   2.281  0.7003  0.4794 -0.3865
    9bbb     N4  239  10.277   4.666   2.853  0.2550  0.0720 -0.9565
    9bbb    H21  240  10.331   4.719   2.785  0.6641  0.2358 -0.5098
   10bbb     C1  241   8.774   5.605   3.214  0.4514 -1.2361 -0.1587
   10bbb     H1  242   8.808   5.708   3.227  1.6235 -1.6222 -0.0777
   10bbb     H2  243   8.717   5.581   3.305  1.4501 -1.4064  0.4427
   10bbb     C2  244   8.876   5.498   3.213 -0.9884  0.2756  0.7515
   10bbb     H3  245   8.834   5.397   3.220 -0.5490  0.0168 -0.1519
   10bbb     H4  246   8.927   5.491   3.116  0.0333  0.7279  1.2404
   10bbb     N1  247   8.691   5.593   3.095 -0.0351  0.1085  0.0717
   10bbb     C3  248   8.738   5.672   2.984 -0.0546  0.0744 -0.4374
   10bbb     H5  249   8.847   5.674   2.982  0.0004  3.1707  0.1714
   10bbb     H6  250   8.700   5.775   2.980 -0.0680  0.1109  0.4695
   10bbb     C4  251   8.544   5.618   3.127  0.0869 -0.2284  0.3105
   10bbb     H7  252   8.537   5.697   3.203 -0.2325 -1.4568  1.5960
   10bbb     H8  253   8.483   5.645   3.040 -0.9328  2.1129  1.6297
   10bbb     C5  254   8.490   5.489   3.183  0.7822  0.0002 -0.5902
   10bbb     H9  255   8.493   5.405   3.113 -1.2922 -1.9340  1.4590
   10bbb    H10  256   8.542   5.456   3.274  0.1001  0.7340  0.0811
   10bbb     C6  257   8.697   5.611   2.859  0.1493  0.4060  0.6141
   10bbb    H11  258   8.735   5.508   2.864  1.7415  0.8970 -0.5167
   10bbb    H12  259   8.591   5.596   2.834  1.1019 -1.9011 -2.9099
   10bbb     C7  260   8.346   5.509   3.223 -0.8226 -0.0850 -1.1298
   10bbb     C8  261   8.770   5.674   2.749 -0.0010  0.2576  0.6762
   10bbb     O1  262   8.316   5.564   3.329  0.2569 -0.4777  0.1327
   10bbb     O2  263   8.741   5.789   2.719  0.1292 -0.3789 -0.0002
   10bbb     N4  264   8.976   5.516   3.324  0.1557 -0.5910 -0.3140
   10bbb    H21  265   9.043   5.592   3.331 -2.4028  1.8240 -0.0327
   11bbb     C1  266   8.744   5.434   4.381 -0.0165  0.1577 -0.5970
   11bbb     H1  267   8.693   5.457   4.476 -0.3744 -0.4243 -0.6423
   11bbb     H2  268   8.851   5.423   4.404 -0.2629 -3.1405 -0.4747
   11bbb     C2  269   8.715   5.554   4.284 -0.3818  0.6974  0.2505
   11bbb     H3  270   8.611   5.586   4.298 -0.9675 -1.0019 -0.0035
   11bbb     H4  271   8.790   5.627   4.318 -0.5566  0.8163  0.3815
   11bbb     N1  272   8.698   5.311   4.327  0.6383  0.3672  0.0875
   11bbb     C3  273   8.558   5.282   4.366 -0.3786 -0.1791 -0.5344
   11bbb     H5  274   8.496   5.369   4.341 -1.8715 -0.5110  1.7771
   11bbb     H6  275   8.552   5.271   4.475 -0.0062 -2.4918 -0.6967
   11bbb     C4  276   8.791   5.205   4.362 -0.1076 -0.7837  0.2207
   11bbb     H7  277   8.827   5.200   4.465 -0.2267  1.4298  0.4254
   11bbb     H8  278   8.732   5.116   4.336 -2.1920  1.0184 -1.6362
   11bbb     C5  279   8.913   5.216   4.265 -0.2869  0.0540 -0.6433
   11bbb     H9  280   8.880   5.200   4.162 -1.6364 -3.1033  0.1514
   11bbb    H10  281   8.957   5.316   4.274 -3.3990  1.4835  0.1720
   11bbb     C6  282   8.503   5.154   4.309 -0.8769 -0.0042 -0.0470
   11bbb    H11  283   8.539   5.143   4.206 -0.6739 -1.1664  0.1329
   11bbb    H12  284   8.535   5.065   4.365 -1.3274  0.7113  1.3935
   11bbb     C7  285   9.010   5.108   4.299  0.3214  0.3488  0.1691
   11bbb     C8  286   8.360   5.157   4.341  0.7437  0.1228 -0.2877
   11bbb     O1  287   8.984   4.993   4.274 -0.5833  0.3630  0.1048
   11bbb     O2  288   8.306   5.133   4.447  0.1212 -0.0034 -0.1642
   11bbb     N4  289   8.750   5.519   4.140  0.6625 -0.3548 -0.1388
   11bbb    H21  290   8.745   5.422   4.114  1.3795 -0.4906  0.2114
   12bbb     C1  291  10.319   6.837   3.521  0.1559 -0.5121 -0.3461
   12bbb     H1  292  10.360   6.917   3.583 -1.7101 -1.4521  2.2692
   12bbb     H2  293  10.220   6.872   3.488  1.2916  2.5208 -0.8740
   12bbb     C2  294  10.291   6.716   3.610  0.0289  0.1623  0.6017
   12bbb     H3  295  10.283   6.628   3.545 -0.2569  0.2524  0.5111
   12bbb     H4  296  10.383   6.693   3.664 -0.5920 -2.2898  0.7288
   12bbb     N1  297  10.409   6.804   3.411 -0.7496 -0.4859 -0.3127
   12bbb     C3  298  10.395   6.896   3.299 -0.5392 -0.1409  0.6578
   12bbb     H5  299  10.483   6.896   3.233 -1.1376 -0.7755 -0.1592
   12bbb     H6  300  10.381   6.995   3.344 -0.1061 -0.6430  1.9612
   12bbb     C4  301  10.549   6.783   3.461  0.3615 -0.2328  0.0723
   12bbb     H7  302  10.590   6.865   3.522  1.3479 -1.6559  1.3945
   12bbb     H8  303  10.540   6.697   3.529  1.1273 -0.2498  0.1647
   12bbb     C5  304  10.648   6.739   3.360 -0.7327 -0.1924 -1.1214
   12bbb     H9  305  10.610   6.661   3.292  1.0482 -0.7046 -1.5725
   12bbb    H10  306  10.678   6.830   3.307 -0.3714  0.9629  0.9583
   12bbb     C6  307  10.286   6.849   3.210 -0.3288 -0.3035 -0.7711
   12bbb    H11  308  10.299   6.740   3.199  3.6382 -0.2805  1.6610
   12bbb    H12  309  10.193   6.876   3.260  0.7543  0.7264  0.7651
   12bbb     C7  310  10.776   6.691   3.413  0.6357  0.0864  0.6926
   12bbb     C8  311  10.285   6.901   3.070  0.0240 -0.0629 -1.0082
   12bbb     O1  312  10.801   6.717   3.529  0.0846 -0.1783  0.1843
   12bbb     O2  313  10.342   6.836   2.982  0.8530 -0.3499 -0.3927
   12bbb     N4  314  10.177   6.727   3.698 -0.7113  0.4290 -0.1589
   12bbb    H21  315  10.203   6.724   3.796 -2.3784  1.6637  0.3703
   13bbb     C1  316  10.232   6.122   4.237 -0.2256 -0.7777 -0.1979
   13bbb     H1  317  10.317   6.165   4.182  1.0682 -2.3443  0.4664
   13bbb     H2  318  10.217   6.026   4.186 -0.7288 -0.4238 -0.7289
   13bbb     C2  319  10.104   6.203   4.221  0.3986 -0.6105  0.3281
   13bbb     H3  320  10.024   6.134   4.252  0.8410 -0.7613  1.1852
   13bbb     H4  321  10.099   6.297   4.278 -2.9098  1.4440 -2.9227
   13bbb     N1  322  10.274   6.097   4.372  0.2599  0.2010  0.2499
   13bbb     C3  323  10.314   6.206   4.460  0.4825 -0.6624 -0.5554
   13bbb     H5  324  10.332   6.169   4.562 -0.2938  2.4339  0.8390
   13bbb     H6  325  10.238   6.286   4.468  1.5073  0.7105 -3.3696
   13bbb     C4  326  10.368   5.987   4.371 -0.5064  0.1149  0.0004
   13bbb     H7  327  10.359   5.926   4.281 -1.2634  1.3883 -0.8261
   13bbb     H8  328  10.470   6.027   4.374 -0.2547 -0.5665  2.1450
   13bbb     C5  329  10.340   5.911   4.492 -0.3022  0.3282  0.1986
   13bbb     H9  330  10.378   5.955   4.585  1.0643  0.1574 -0.2557
   13bbb    H10  331  10.231   5.896   4.499 -0.0733 -1.2995  0.6151
   13bbb     C6  332  10.436   6.289   4.423  0.4270  0.6291  0.1104
   13bbb    H11  333  10.528   6.230   4.421  0.7234  1.1009 -0.5029
   13bbb    H12  334  10.419   6.331   4.324 -0.3070 -1.6130 -0.7819
   13bbb     C7  335  10.409   5.778   4.479  0.1988 -0.5808 -0.4663
   13bbb     C8  336  10.455   6.390   4.530 -0.1433  0.2915  0.5705
   13bbb     O1  337  10.526   5.772   4.456 -0.8097 -0.4509 -0.0233
   13bbb     O2  338  10.518   6.363   4.629  0.0835 -0.6979 -0.0118
   13bbb     N4  339  10.080   6.242   4.076 -0.2600  0.4980 -0.2062
   13bbb    H21  340   9.998   6.202   4.032  0.3986 -1.2656  0.1065
   14bbb     C1  341   9.609   3.779   4.526 -0.8672 -0.3606  0.3562
   14bbb     H1  342   9.526   3.848   4.509 -2.0273 -1.4156  1.4808
   14bbb     H2  343   9.678   3.824   4.598 -0.8437 -0.7026  0.5463
   14bbb     C2  344   9.691   3.761   4.403 -0.3800  0.1941  0.0675
   14bbb     H3  345   9.791   3.727   4.433 -0.5105 -0.0954  0.1805
   14bbb     H4  346   9.649   3.684   4.338 -1.1500  0.9763 -0.3726
   14bbb     N1  347   9.562   3.655   4.575  0.4030 -0.4602 -0.1108
   14bbb     C3  348   9.445   3.625   4.494  0.4109 -0.8721 -0.0834
   14bbb     H5  349   9.460   3.638   4.387 -2.3033 -1.8573 -0.6640
   14bbb     H6  350   9.356   3.687   4.513  1.4303  1.1598 -1.5349
   14bbb     C4  351   9.520   3.664   4.717  0.0440 -0.1551  0.5855
   14bbb     H7  352   9.502   3.767   4.750 -1.9069  0.1681 -1.2413
   14bbb     H8  353   9.425   3.614   4.740  1.2609 -1.5254  2.9738
   14bbb     C5  354   9.629   3.590   4.793  0.2023 -0.4577 -0.1535
   14bbb     H9  355   9.654   3.495   4.745  0.4051  0.0960 -1.1808
   14bbb    H10  356   9.717   3.655   4.781  0.4194 -0.6100  0.5740
   14bbb     C6  357   9.404   3.483   4.510  0.0411 -0.0367  0.0183
   14bbb    H11  358   9.396   3.445   4.613  1.3117  0.1714  0.2020
   14bbb    H12  359   9.305   3.461   4.467 -0.3949  2.0055 -0.1417
   14bbb     C7  360   9.594   3.580   4.940 -0.5180 -0.4633 -0.0476
   14bbb     C8  361   9.494   3.386   4.439  1.0797 -0.1691 -0.2498
   14bbb     O1  362   9.564   3.475   4.993 -0.0026 -0.2172  0.2310
   14bbb     O2  363   9.612   3.405   4.405 -0.5244  0.4510 -0.2917
   14bbb     N4  364   9.700   3.881   4.317 -0.1965  0.3091  0.0619
   14bbb    H21  365   9.623   3.945   4.325 -0.4168  0.3982 -2.2116
   15bbb     C1  366  10.293   4.734   4.537 -0.1983 -0.0549 -0.2247
   15bbb     H1  367  10.187   4.730   4.563 -0.9734  2.6116 -2.4303
   15bbb     H2  368  10.332   4.836   4.527 -2.1385  1.0673  2.3980
   15bbb     C2  369  10.310   4.683   4.394 -0.4102  0.3234  0.6370
   15bbb     H3  370  10.295   4.772   4.331  1.7696  0.1639 -0.1991
   15bbb     H4  371  10.415   4.655   4.384 -0.7792 -0.7014 -0.7297
   15bbb     N1  372  10.380   4.663   4.638 -0.3967 -0.2768  0.6861
   15bbb     C3  373  10.320   4.541   4.679  0.6775  0.1044  0.2451
   15bbb     H5  374  10.271   4.497   4.591  0.7885  2.1059 -0.8824
   15bbb     H6  375  10.244   4.562   4.755 -0.1566 -0.1024 -0.5150
   15bbb     C4  376  10.415   4.752   4.751  0.3434 -0.0235 -0.3416
   15bbb     H7  377  10.333   4.814   4.789  0.7813 -0.8739  2.1630
   15bbb     H8  378  10.442   4.689   4.837 -0.5855  0.2926  0.1917
   15bbb     C5  379  10.533   4.841   4.719 -0.9506  0.0177 -0.3556
   15bbb     H9  380  10.621   4.778   4.700 -1.3784 -0.1396 -2.0532
   15bbb    H10  381  10.515   4.901   4.628  2.0871  0.4019 -0.7918
   15bbb     C6  382  10.422   4.443   4.724  0.6946  0.3314  0.3682
   15bbb    H11  383  10.512   4.450   4.663  0.4492 -0.9830 -0.1867
   15bbb    H12  384  10.461   4.461   4.825  1.1352  0.2203  0.2180
   15bbb     C7  385  10.571   4.941   4.826 -0.1910  0.1243  0.7388
   15bbb     C8  386  10.356   4.313   4.711  0.0053 -0.1241  0.0273
   15bbb     O1  387  10.524   4.935   4.934  0.2912 -0.3926 -0.3535
   15bbb     O2  388  10.247   4.286   4.750  0.2945 -0.4813 -0.3840
   15bbb     N4  389  10.222   4.567   4.361  0.5302  0.3686  0.6272
   15bbb    H21  390  10.137   4.553   4.414 -2.2457  0.5283 -3.3415
   16bbb     C1  391   9.179   5.001   2.653 -1.2168 -0.3560 -0.2867
   16bbb     H1  392   9.131   4.943   2.733  0.0125  0.8078  1.3754
   16bbb     H2  393   9.197   4.945   2.561  0.0162 -2.2442  1.0209
   16bbb     C2  394   9.310   5.048   2.711 -0.4413  0.4758  0.1487
   16bbb     H3  395   9.389   5.000   2.651 -0.7155  0.6199 -0.3322
   16bbb     H4  396   9.332   5.155   2.697  3.3963 -0.1161  0.5187
   16bbb     N1  397   9.098   5.125   2.635 -0.4244  0.5027 -0.1374
   16bbb     C3  398   9.077   5.208   2.752 -0.1656 -0.2212  0.2848
   16bbb     H5  399   9.128   5.172   2.842  0.0843 -0.4395  0.0577
   16bbb     H6  400   8.970   5.228   2.761 -0.6989 -0.5966 -3.5958
   16bbb     C4  401   8.979   5.103   2.559 -0.2733 -0.2526  0.2393
   16bbb     H7  402   8.910   5.025   2.594 -1.3867  0.4358 -0.3527
   16bbb     H8  403   8.913   5.188   2.580  0.3695 -0.3691  3.0110
   16bbb     C5  404   9.007   5.087   2.403 -0.3915 -0.1208 -0.3477
   16bbb     H9  405   9.046   5.179   2.357 -0.4069 -0.6068 -1.3712
   16bbb    H10  406   9.081   5.010   2.376 -1.2231 -1.7872  1.8176
   16bbb     C6  407   9.125   5.351   2.729 -0.2905 -0.4339  0.8689
   16bbb    H11  408   9.226   5.358   2.686 -0.9345  0.6307 -0.5829
   16bbb    H12  409   9.066   5.402   2.652 -2.4335  0.2039  2.8285
   16bbb     C7  410   8.874   5.063   2.331 -0.1668 -0.0012 -0.2814
   16bbb     C8  411   9.112   5.424   2.859  0.7417 -0.0325  0.5092
   16bbb     O1  412   8.770   5.111   2.370  0.2676 -0.6270  0.1112
   16bbb     O2  413   9.000   5.442   2.909  0.9280 -0.3670  0.3123
   16bbb     N4  414   9.326   5.001   2.852 -0.2165  0.3774 -0.2702
   16bbb    H21  415   9.274   5.052   2.923 -1.1166  0.7948 -1.1890
   17bbb     C1  416   8.890   4.087   3.297  0.2763  0.5479  0.3339
   17bbb     H1  417   8.835   4.083   3.202 -0.0109  2.3384  0.3865
   17bbb     H2  418   8.841   4.165   3.356 -0.9108  1.1894 -1.4132
   17bbb     C2  419   9.037   4.121   3.262  0.3749 -0.4203  0.0765
   17bbb     H3  420   9.111   4.104   3.341 -0.2580 -0.1352  0.7447
   17bbb     H4  421   9.080   4.059   3.182 -1.9093 -0.3433 -1.3304
   17bbb     N1  422   8.883   3.959   3.374  0.2574 -0.3396  0.3112
   17bbb     C3  423   8.771   3.883   3.341  0.3099  1.0249 -1.1196
   17bbb     H5  424   8.684   3.949   3.327 -1.5037 -0.7131  1.0518
   17bbb     H6  425   8.742   3.803   3.411 -0.3556 -0.8388 -3.3771
   17bbb     C4  426   8.883   3.984   3.517 -0.7119  0.2412  0.3519
   17bbb     H7  427   8.957   4.065   3.523  0.4862 -0.7512 -0.7196
   17bbb     H8  428   8.792   4.022   3.565  1.1981  1.5552  3.2557
   17bbb     C5  429   8.938   3.857   3.594  0.4954  0.4394 -0.0092
   17bbb     H9  430   8.870   3.771   3.585 -1.2738  1.9531 -2.0941
   17bbb    H10  431   9.037   3.822   3.563  0.2363 -1.1438  0.8166
   17bbb     C6  432   8.801   3.818   3.210  0.6151  0.2478 -0.5321
   17bbb    H11  433   8.813   3.895   3.132  0.0390  0.7222 -0.1633
   17bbb    H12  434   8.891   3.758   3.228 -0.7027 -1.2940  1.2873
   17bbb     C7  435   8.917   3.878   3.743 -0.5165 -0.1486 -0.0541
   17bbb     C8  436   8.700   3.725   3.173  0.2048  0.1716 -0.2755
   17bbb     O1  437   8.814   3.918   3.791 -0.0433 -0.1524  0.3105
   17bbb     O2  438   8.613   3.681   3.248 -0.6147 -0.5019 -0.4339
   17bbb     N4  439   9.051   4.254   3.214 -0.1238 -0.8911  0.5758
   17bbb    H21  440   9.005   4.332   3.259 -0.5808 -0.9810  0.2732
   18bbb     C1  441  11.692   5.121   2.524 -0.0037 -0.7012 -0.2905
   18bbb     H1  442  11.748   5.108   2.618  0.9201  0.3512 -0.6599
   18bbb     H2  443  11.670   5.229   2.523 -0.4412 -0.7906 -0.3233
   18bbb     C2  444  11.559   5.045   2.525  0.1219  0.3831  0.2172
   18bbb     H3  445  11.501   5.047   2.432 -0.2014 -0.2235  0.4015
   18bbb     H4  446  11.589   4.941   2.544 -1.3398  0.5674  4.5656
   18bbb     N1  447  11.787   5.100   2.415 -0.4279 -0.5103  0.1818
   18bbb     C3  448  11.839   4.965   2.415  0.7036  0.1783 -0.0665
   18bbb     H5  449  11.821   4.915   2.511 -0.2305 -0.0184 -0.3295
   18bbb     H6  450  11.948   4.963   2.401  0.8798 -1.0419  1.2939
   18bbb     C4  451  11.899   5.195   2.414  0.1973  0.4940  0.2186
   18bbb     H7  452  11.915   5.236   2.515 -0.6745  2.4267 -0.3646
   18bbb     H8  453  11.991   5.155   2.369  0.0897  1.2051 -0.6602
   18bbb     C5  454  11.860   5.321   2.340  0.2575  0.1761  0.4016
   18bbb     H9  455  11.834   5.297   2.236  0.1243 -0.7563  0.6395
   18bbb    H10  456  11.769   5.364   2.384 -1.1412 -1.7730 -0.4820
   18bbb     C6  457  11.771   4.885   2.306 -0.0977  1.1421  0.1513
   18bbb    H11  458  11.785   4.779   2.330  1.0408  0.9766 -1.1453
   18bbb    H12  459  11.665   4.913   2.308  0.4598  3.4796  0.1834
   18bbb     C7  460  11.979   5.414   2.355 -0.4165 -0.0284 -0.2237
   18bbb     C8  461  11.827   4.920   2.172  0.4476 -0.5738  0.6119
   18bbb     O1  462  12.072   5.415   2.278  0.0026  0.0666 -0.0714
   18bbb     O2  463  11.922   4.865   2.117  0.3042 -0.3602  0.3736
   18bbb     N4  464  11.472   5.086   2.634 -0.7439  0.1289  0.3534
   18bbb    H21  465  11.501   5.159   2.697 -1.2197  2.1610 -1.6697
   19bbb     C1  466  11.298   5.446   3.473  0.7535  0.0387 -0.6110
   19bbb     H1  467  11.223   5.369   3.495  1.2357  0.1969  1.9782
   19bbb     H2  468  11.274   5.519   3.552 -3.0224 -0.6180 -0.9727
   19bbb     C2  469  11.282   5.511   3.334  1.4451  0.2024  0.0908
   19bbb     H3  470  11.200   5.582   3.349  1.1035  0.0121 -0.8087
   19bbb     H4  471  11.368   5.577   3.316  1.0021  0.9394  0.6290
   19bbb     N1  472  11.428   5.391   3.511 -0.8411  0.0337 -0.3246
   19bbb     C3  473  11.519   5.499   3.533 -0.1039 -0.1101 -0.2103
   19bbb     H5  474  11.495   5.556   3.624  1.7155  0.5965 -0.1149
   19bbb     H6  475  11.520   5.566   3.446 -0.7600  1.2676  0.8052
   19bbb     C4  476  11.421   5.304   3.627 -0.1258  0.1492  0.0498
   19bbb     H7  477  11.523   5.271   3.652 -0.6263 -3.3329 -1.7987
   19bbb     H8  478  11.376   5.347   3.717  1.5493 -0.1756  1.0952
   19bbb     C5  479  11.357   5.164   3.592 -0.1693 -0.4281 -0.1711
   19bbb     H9  480  11.250   5.166   3.570 -0.5446  0.2932  1.4996
   19bbb    H10  481  11.401   5.136   3.496 -0.1441 -0.3751 -0.1751
   19bbb     C6  482  11.664   5.461   3.551 -0.1852  0.1748  0.1675
   19bbb    H11  483  11.691   5.447   3.657 -0.1006  2.0172  0.4353
   19bbb    H12  484  11.690   5.370   3.497 -0.5535 -0.2784  0.7438
   19bbb     C7  485  11.394   5.059   3.693  0.0136  0.1635  0.2863
   19bbb     C8  486  11.740   5.585   3.502  0.8350  0.3163 -0.7628
   19bbb     O1  487  11.490   4.989   3.678 -0.2562  0.8473 -0.5204
   19bbb     O2  488  11.752   5.685   3.569  0.2004  0.0569  0.1362
   19bbb     N4  489  11.245   5.414   3.226 -0.1695  0.1422 -0.2703
   19bbb    H21  490  11.207   5.322   3.247  1.3970 -0.1528  1.5219
   20bbb     C1  491   9.685   4.972   2.488 -0.6308 -0.4782  0.3027
   20bbb     H1  492   9.625   4.915   2.560 -0.5698 -0.8573  0.0569
   20bbb     H2  493   9.613   5.000   2.410 -0.0764  0.6481  0.1773
   20bbb     C2  494   9.781   4.879   2.418  0.3240 -0.4703  0.4718
   20bbb     H3  495   9.733   4.783   2.394  1.2813 -0.5940 -1.1267
   20bbb     H4  496   9.811   4.924   2.322 -0.8514  0.9411  0.7194
   20bbb     N1  497   9.745   5.089   2.557  0.4884  0.1819 -0.1916
   20bbb     C3  498   9.802   5.188   2.461 -0.2125 -0.4170  0.2674
   20bbb     H5  499   9.885   5.136   2.412 -0.0113  0.3178 -0.1904
   20bbb     H6  500   9.845   5.274   2.514 -0.9811 -0.0799  0.3626
   20bbb     C4  501   9.654   5.146   2.653  0.1983 -0.1165  0.5126
   20bbb     H7  502   9.562   5.177   2.601 -0.9190 -3.8177 -0.0893
   20bbb     H8  503   9.622   5.066   2.722  2.2703 -1.2061  0.2793
   20bbb     C5  504   9.719   5.253   2.744 -0.2318 -0.2953  0.3628
   20bbb     H9  505   9.790   5.207   2.815 -1.4005 -1.8610  0.5697
   20bbb    H10  506   9.761   5.342   2.696 -0.7158  0.1387  0.7345
   20bbb     C6  507   9.706   5.239   2.352  0.5923  0.0190 -0.1694
   20bbb    H11  508   9.700   5.177   2.261 -2.4591  0.9967 -0.7548
   20bbb    H12  509   9.603   5.266   2.378  0.4186  1.3899 -2.0991
   20bbb     C7  510   9.596   5.292   2.821  0.0308  0.4205 -0.7772
   20bbb     C8  511   9.761   5.364   2.290  0.3528  0.3684 -0.1521
   20bbb     O1  512   9.502   5.344   2.773  0.1517  0.0076 -0.1728
   20bbb     O2  513   9.852   5.357   2.210  0.6906 -0.6160  0.4597
   20bbb     N4  514   9.907   4.850   2.491 -0.3653  0.2627  0.0034
   20bbb    H21  515   9.948   4.915   2.557 -2.4471  1.1950  0.4798
   21bbb     C1  516  10.450   4.505   1.897  0.4857 -0.0881 -0.0015
   21bbb     H1  517  10.454   4.560   1.802 -1.8723 -2.5249 -1.6300
   21bbb     H2  518  10.347   4.533   1.919  1.4223  1.6287  2.7926
   21bbb     C2  519  10.524   4.568   2.017  0.7473 -0.5520  0.9822
   21bbb     H3  520  10.633   4.557   2.008  1.2092  1.1011  3.5547
   21bbb     H4  521  10.517   4.677   2.016 -2.2514 -0.6715  1.3922
   21bbb     N1  522  10.471   4.364   1.870  1.0151  0.5072  0.0603
   21bbb     C3  523  10.408   4.316   1.749 -0.6648 -0.6736  0.1063
   21bbb     H5  524  10.413   4.207   1.754  2.6422 -0.5759  2.3158
   21bbb     H6  525  10.469   4.347   1.663 -1.5001 -2.0212 -1.0239
   21bbb     C4  526  10.609   4.319   1.878  0.1406  0.9188  0.0990
   21bbb     H7  527  10.656   4.347   1.972 -0.8662  0.3915  0.7837
   21bbb     H8  528  10.627   4.212   1.858 -0.7702  1.1367 -2.2588
   21bbb     C5  529  10.690   4.372   1.758 -0.4962 -0.4124 -0.0929
   21bbb     H9  530  10.656   4.328   1.664 -0.3247 -0.2614 -0.2273
   21bbb    H10  531  10.673   4.480   1.746 -2.1435 -0.6676 -0.2952
   21bbb     C6  532  10.265   4.363   1.735 -0.4088 -0.1514 -0.3641
   21bbb    H11  533  10.208   4.317   1.817  0.4803  1.4373  1.2185
   21bbb    H12  534  10.252   4.470   1.755  1.1734 -0.1067  0.5764
   21bbb     C7  535  10.842   4.344   1.770 -0.0718  0.2456  0.3945
   21bbb     C8  536  10.198   4.323   1.603 -0.3906  0.1358 -0.3665
   21bbb     O1  537  10.886   4.227   1.775 -0.1943 -0.5749 -0.2134
   21bbb     O2  538  10.203   4.206   1.571 -0.0510 -0.5205 -0.3829
   21bbb     N4  539  10.477   4.516   2.147 -0.2085 -0.1710 -0.2408
   21bbb    H21  540  10.405   4.445   2.144 -0.2022 -0.1560 -1.7670
   22bbb     C1  541   8.043   5.373   3.045  0.4762 -0.1901 -0.1795
   22bbb     H1  542   8.071   5.271   3.074 -0.7549 -0.3003  0.6908
   22bbb     H2  543   8.072   5.397   2.942  0.2082 -1.5089 -0.5774
   22bbb     C2  544   8.116   5.474   3.141  0.3449  0.2629 -0.2784
   22bbb     H3  545   8.079   5.573   3.111  3.6826  2.6761  2.6476
   22bbb     H4  546   8.094   5.463   3.248  1.5327 -1.8793 -0.1908
   22bbb     N1  547   7.902   5.377   3.050  0.3006 -0.5204  0.0012
   22bbb     C3  548   7.850   5.339   3.185  0.6773 -0.1674  0.1537
   22bbb     H5  549   7.898   5.392   3.267  0.9333 -0.7185  0.3673
   22bbb     H6  550   7.866   5.232   3.207 -1.5018 -0.5175  0.2739
   22bbb     C4  551   7.843   5.301   2.941 -0.2395 -0.2393  0.3310
   22bbb     H7  552   7.919   5.231   2.904 -0.0395  0.4304 -0.5562
   22bbb     H8  553   7.745   5.254   2.961  0.7805 -1.3419  3.3735
   22bbb     C5  554   7.829   5.384   2.821 -0.0195 -0.3891 -0.1330
   22bbb     H9  555   7.770   5.470   2.857  0.7698 -1.3788  3.9368
   22bbb    H10  556   7.926   5.422   2.786 -0.3400  0.5913  0.0072
   22bbb     C6  557   7.698   5.373   3.193  0.0095 -0.7910  0.0672
   22bbb    H11  558   7.699   5.482   3.183  1.4202 -0.6450  1.4262
   22bbb    H12  559   7.638   5.315   3.122  1.3366  1.1143 -2.8567
   22bbb     C7  560   7.768   5.311   2.708 -0.5258 -0.5164 -0.4916
   22bbb     C8  561   7.651   5.330   3.328 -0.4216  0.1912  0.5656
   22bbb     O1  562   7.838   5.252   2.632 -0.6284  0.5600  0.4040
   22bbb     O2  563   7.696   5.230   3.379 -0.0835 -0.1873 -0.2092
   22bbb     N4  564   8.262   5.466   3.126 -0.3807 -0.1912 -0.2406
   22bbb    H21  565   8.305   5.444   3.037  1.5812  2.1865  0.0153
   23bbb     C1  566   8.876   5.550   2.430 -0.1971 -0.2742 -0.2417
   23bbb     H1  567   8.771   5.578   2.414 -0.7763 -1.0971  1.7808
   23bbb     H2  568   8.881   5.440   2.436 -0.9758 -0.4459 -2.0749
   23bbb     C2  569   8.926   5.632   2.556  0.0032 -0.3956 -0.6091
   23bbb     H3  570   9.032   5.607   2.570  0.7033  2.2567 -0.6415
   23bbb     H4  571   8.912   5.739   2.538 -1.0310 -0.2074  1.0903
   23bbb     N1  572   8.957   5.597   2.316  0.2011  0.5414 -0.2908
   23bbb     C3  573   8.870   5.643   2.208 -0.3616 -0.1972  0.2900
   23bbb     H5  574   8.800   5.568   2.170 -0.2587  0.3031 -0.9383
   23bbb     H6  575   8.930   5.668   2.120 -0.0605 -0.9641  0.2698
   23bbb     C4  576   9.044   5.496   2.262 -0.1818  0.1457  0.3459
   23bbb     H7  577   8.994   5.399   2.253  1.3051 -0.5346 -1.1293
   23bbb     H8  578   9.083   5.538   2.169 -0.5116 -0.4045 -0.0493
   23bbb     C5  579   9.168   5.478   2.353  0.8223 -0.7704  0.1314
   23bbb     H9  580   9.212   5.578   2.369  0.6446 -0.8035  0.8395
   23bbb    H10  581   9.147   5.429   2.448 -3.0122 -3.5789 -1.8862
   23bbb     C6  582   8.785   5.767   2.235  0.2103 -0.0079 -0.0314
   23bbb    H11  583   8.680   5.739   2.252  0.5524 -0.5015  1.4251
   23bbb    H12  584   8.823   5.816   2.326 -0.0346  2.8060 -1.3600
   23bbb     C7  585   9.271   5.387   2.279 -0.0337 -0.5110 -0.2613
   23bbb     C8  586   8.802   5.868   2.128  0.4019 -0.3663 -0.7285
   23bbb     O1  587   9.295   5.267   2.297 -0.2527  0.5187  0.1875
   23bbb     O2  588   8.908   5.918   2.105 -0.5983  0.2448 -0.2682
   23bbb     N4  589   8.856   5.595   2.681  0.6222 -0.3332  0.7481
   23bbb    H21  590   8.863   5.500   2.716  1.3346 -0.5982 -0.0663
   24bbb     C1  591   9.224   4.951   4.483 -0.4246 -0.7655  0.6495
   24bbb     H1  592   9.119   4.919   4.486 -0.6914  0.0617  3.8011
   24bbb     H2  593   9.233   4.988   4.586 -3.8614  0.0725  0.7514
   24bbb     C2  594   9.238   5.067   4.385  0.2524  0.0947  0.0886
   24bbb     H3  595   9.330   5.122   4.406  0.0535  0.2747  0.4880
   24bbb     H4  596   9.257   5.029   4.284  0.4816  0.7196 -0.1124
   24bbb     N1  597   9.305   4.834   4.459  0.4055  0.3819  0.0214
   24bbb     C3  598   9.451   4.858   4.476  0.4243 -0.1315 -0.0256
   24bbb     H5  599   9.481   4.869   4.581 -2.7011  0.0949  0.9482
   24bbb     H6  600   9.481   4.952   4.427  0.2149 -1.4668 -2.9029
   24bbb     C4  601   9.257   4.716   4.536  0.3298 -0.3654  0.6905
   24bbb     H7  602   9.153   4.701   4.506 -0.2049 -0.0111  2.2942
   24bbb     H8  603   9.314   4.633   4.492  1.6146  1.0203 -0.3797
   24bbb     C5  604   9.258   4.726   4.687 -0.1917  0.3875 -0.0333
   24bbb     H9  605   9.354   4.754   4.731 -0.2022 -0.2969  0.4342
   24bbb    H10  606   9.186   4.802   4.721 -1.6126 -0.7778 -0.3303
   24bbb     C6  607   9.540   4.751   4.415  0.2181 -0.8406 -0.2136
   24bbb    H11  608   9.508   4.653   4.451  1.7935 -0.8398  1.2659
   24bbb    H12  609   9.526   4.762   4.306  0.0294 -1.2116 -0.2280
   24bbb     C7  610   9.222   4.590   4.745 -0.7451  0.6831 -0.4934
   24bbb     C8  611   9.684   4.779   4.443 -0.6860 -0.2687 -1.1787
   24bbb     O1  612   9.257   4.481   4.705  0.0461 -0.1408 -0.4817
   24bbb     O2  613   9.726   4.825   4.549 -0.1333 -0.0453  0.1675
   24bbb     N4  614   9.122   5.150   4.368 -0.1118 -0.1234 -0.1633
   24bbb    H21  615   9.113   5.241   4.410 -0.6383  0.2151 -0.9825
   25bbb     C1  616   8.061   5.056   4.197  0.5520  0.5137 -0.0804
   25bbb     H1  617   7.955   5.079   4.185  0.8632  1.6871 -0.6812
   25bbb     H2  618   8.071   4.985   4.281 -0.4740  0.5437  0.0748
   25bbb     C2  619   8.139   5.185   4.233  0.2736  0.1147  0.4039
   25bbb     H3  620   8.110   5.264   4.162  1.7535  2.1354  1.9317
   25bbb     H4  621   8.115   5.226   4.332 -0.0838  0.8941  0.0086
   25bbb     N1  622   8.116   4.987   4.082 -0.2248  0.2866  0.0370
   25bbb     C3  623   8.243   4.910   4.096  0.4411 -0.4266  0.2422
   25bbb     H5  624   8.326   4.977   4.118  0.5336 -0.7143  0.7733
   25bbb     H6  625   8.280   4.856   4.008 -0.6827  0.3972 -0.7686
   25bbb     C4  626   8.107   5.078   3.968  0.3719  0.4106 -0.0696
   25bbb     H7  627   8.008   5.125   3.966 -0.2495 -0.8511 -0.1515
   25bbb     H8  628   8.184   5.153   3.989  2.3885 -2.3578  3.6758
   25bbb     C5  629   8.140   5.014   3.832 -0.2422  0.3375  0.1043
   25bbb     H9  630   8.247   4.993   3.822 -0.3413 -2.1415  2.7994
   25bbb    H10  631   8.083   4.920   3.822  0.3963 -0.2022  1.3199
   25bbb     C6  632   8.227   4.806   4.198  0.3273  0.7274 -0.1684
   25bbb    H11  633   8.314   4.739   4.209  0.0467  0.6680  2.0502
   25bbb    H12  634   8.223   4.844   4.301  0.1185  0.2482  0.0035
   25bbb     C7  635   8.084   5.100   3.728  0.7500  0.3300  0.0089
   25bbb     C8  636   8.119   4.709   4.152 -0.0413  0.3839  0.2937
   25bbb     O1  637   7.974   5.151   3.733 -0.1049 -0.1421  0.3641
   25bbb     O2  638   8.146   4.642   4.052  0.3592  0.7757 -0.8529
   25bbb     N4  639   8.286   5.194   4.235 -0.0731 -0.1684  0.4456
   25bbb    H21  640   8.337   5.226   4.154 -2.1932  1.8395 -0.2180
   26bbb     C1  641  11.088   6.644   3.307 -0.6006  0.4544  0.6097
   26bbb     H1  642  11.085   6.747   3.344  0.5957  1.2433 -1.3273
   26bbb     H2  643  11.065   6.632   3.200 -0.3810  1.3149  0.4589
   26bbb     C2  644  10.988   6.563   3.383 -0.1240  0.2566 -0.2298
   26bbb     H3  645  11.008   6.456   3.372 -0.5451  0.2108 -0.5717
   26bbb     H4  646  11.004   6.587   3.489 -2.7161 -1.7323  0.7330
   26bbb     N1  647  11.225   6.604   3.332  0.8121  0.3481  0.7502
   26bbb     C3  648  11.255   6.630   3.471 -0.4907 -0.8138  0.5140
   26bbb     H5  649  11.186   6.592   3.547  0.8118 -1.2980  1.4924
   26bbb     H6  650  11.260   6.738   3.490 -1.2715 -1.0743  2.3776
   26bbb     C4  651  11.311   6.678   3.242 -0.0886 -1.1970 -0.2310
   26bbb     H7  652  11.283   6.783   3.255 -0.9394 -1.7491  3.9926
   26bbb     H8  653  11.417   6.664   3.267  0.4053  0.3692 -1.3477
   26bbb     C5  654  11.293   6.621   3.102  0.7752 -0.0843  0.0384
   26bbb     H9  655  11.250   6.520   3.109 -1.9807  0.9664 -0.3086
   26bbb    H10  656  11.211   6.680   3.059 -0.3497 -1.4907  0.1450
   26bbb     C6  657  11.385   6.571   3.506  0.0935 -0.0837  0.1639
   26bbb    H11  658  11.354   6.466   3.521 -1.5494 -0.1959 -3.0674
   26bbb    H12  659  11.465   6.570   3.431  1.3272 -2.4161  1.3662
   26bbb     C7  660  11.405   6.634   3.005  0.0612  0.4797 -0.1219
   26bbb     C8  661  11.428   6.642   3.638  0.3762  0.3720 -0.0914
   26bbb     O1  662  11.522   6.641   3.041 -0.0882 -0.0433  0.4268
   26bbb     O2  663  11.448   6.761   3.642 -0.0840  0.5180 -0.3577
   26bbb     N4  664  10.854   6.608   3.340 -0.3460  0.1640 -0.2986
   26bbb    H21  665  10.810   6.561   3.261  0.9346 -1.1869 -0.2551
   27bbb     C1  666  10.165   7.113   2.823 -0.0382  0.1965 -0.4014
   27bbb     H1  667  10.184   7.203   2.762 -0.8880  2.1050  1.9815
   27bbb     H2  668  10.063   7.118   2.863  0.5706 -0.8320  1.3635
   27bbb     C2  669  10.275   7.108   2.933  0.6385 -0.0071  0.8901
   27bbb     H3  670  10.367   7.065   2.893  0.8046  0.4979  0.7224
   27bbb     H4  671  10.300   7.210   2.963  1.4919  0.2301 -0.5106
   27bbb     N1  672  10.180   6.988   2.737 -0.7113 -0.2693 -0.2840
   27bbb     C3  673  10.257   7.011   2.613  0.3931  0.0901  0.0737
   27bbb     H5  674  10.217   7.090   2.548 -0.0736 -0.1024  0.1247
   27bbb     H6  675  10.251   6.920   2.551 -0.4430 -0.7854  1.3826
   27bbb     C4  676  10.049   6.939   2.705 -0.2734  0.5196  0.0692
   27bbb     H7  677   9.982   7.016   2.667 -2.0049 -0.5196  0.8742
   27bbb     H8  678  10.064   6.864   2.626  1.1271  0.2654  0.5598
   27bbb     C5  679   9.982   6.864   2.819 -0.4216  0.2466  0.9993
   27bbb     H9  680  10.033   6.769   2.842 -1.3129 -0.3220  0.6699
   27bbb    H10  681   9.988   6.939   2.899 -1.0942  1.5706 -0.1711
   27bbb     C6  682  10.405   7.025   2.650  0.1823 -0.2694  0.4773
   27bbb    H11  683  10.431   7.125   2.686 -0.1820  0.4142 -1.0805
   27bbb    H12  684  10.438   6.942   2.715  0.0913 -3.1914 -2.9045
   27bbb     C7  685   9.841   6.842   2.780 -0.7938 -0.6924 -0.0528
   27bbb     C8  686  10.493   7.015   2.523 -0.3980 -0.1092  0.2280
   27bbb     O1  687   9.752   6.923   2.791  0.0977 -0.2711 -0.0285
   27bbb     O2  688  10.494   7.100   2.440  0.0588 -0.2649 -0.0532
   27bbb     N4  689  10.247   7.029   3.046  0.5990  0.2977 -0.7053
   27bbb    H21  690  10.200   7.071   3.126  0.2919  0.2516 -0.8575
   28bbb     C1  691  10.362   5.439   4.600 -0.7672 -0.4729  0.5261
   28bbb     H1  692  10.264   5.437   4.650 -1.8452  1.0360 -1.3356
   28bbb     H2  693  10.439   5.473   4.669 -0.8256 -1.7012  1.2197
   28bbb     C2  694  10.359   5.522   4.473 -0.5313 -1.1341 -0.2914
   28bbb     H3  695  10.463   5.513   4.438 -0.2025  0.2750  0.2289
   28bbb     H4  696  10.295   5.478   4.396  0.6527  0.4105 -2.2592
   28bbb     N1  697  10.378   5.294   4.569  0.6125 -0.1106  0.5211
   28bbb     C3  698  10.492   5.251   4.485  0.4103 -0.3575 -0.5988
   28bbb     H5  699  10.500   5.321   4.402 -0.8570  1.3686  0.6498
   28bbb     H6  700  10.482   5.148   4.450  1.4277 -1.4265  2.0028
   28bbb     C4  701  10.249   5.227   4.536 -0.3990 -0.7493 -0.2186
   28bbb     H7  702  10.196   5.286   4.459  0.3272 -0.9663 -0.8993
   28bbb     H8  703  10.267   5.124   4.504 -0.5278 -0.8576  0.0579
   28bbb     C5  704  10.143   5.230   4.647  0.1846 -0.2589  0.2616
   28bbb     H9  705  10.177   5.192   4.744 -3.0865  1.6244  2.2886
   28bbb    H10  706  10.097   5.328   4.655 -1.8452 -1.2208  0.9814
   28bbb     C6  707  10.622   5.265   4.567 -0.8649  0.1746 -0.0816
   28bbb    H11  708  10.637   5.372   4.586 -2.5715  0.8456 -2.1283
   28bbb    H12  709  10.611   5.218   4.666  1.1023 -1.3303 -0.5359
   28bbb     C7  710  10.043   5.142   4.595  0.5653 -0.2867 -0.1338
   28bbb     C8  711  10.741   5.216   4.491 -0.5845 -0.8479 -0.0953
   28bbb     O1  712  10.056   5.021   4.591  0.3392  0.1533  0.3697
   28bbb     O2  713  10.770   5.099   4.492  0.0957 -0.2236 -0.3994
   28bbb     N4  714  10.330   5.673   4.502 -0.1346 -0.0231 -0.2154
   28bbb    H21  715  10.236   5.702   4.526  0.5452  1.4307  0.8272
   29bbb     C1  716  10.305   6.742   4.554 -0.4135 -0.5459 -0.6541
   29bbb     H1  717  10.296   6.817   4.634 -1.2293 -0.3536 -0.9188
   29bbb     H2  718  10.204   6.713   4.524 -0.2109 -1.4156 -0.5123
   29bbb     C2  719  10.375   6.618   4.613 -0.0991  0.5454 -0.2054
   29bbb     H3  720  10.470   6.643   4.662 -0.3852  0.5964  0.3375
   29bbb     H4  721  10.314   6.575   4.694  1.1740 -2.4831 -0.6973
   29bbb     N1  722  10.378   6.800   4.442 -0.4848  0.2602  0.1647
   29bbb     C3  723  10.518   6.840   4.476  0.6489 -0.5337  0.6331
   29bbb     H5  724  10.540   6.838   4.583 -1.7808 -1.6240  1.1749
   29bbb     H6  725  10.534   6.944   4.445  0.2435 -0.6852 -0.1057
   29bbb     C4  726  10.294   6.903   4.375  0.8020 -0.6171 -0.1090
   29bbb     H7  727  10.190   6.868   4.374  0.6952 -0.7092 -4.2155
   29bbb     H8  728  10.297   6.995   4.435  1.5091  0.0457 -1.1151
   29bbb     C5  729  10.343   6.931   4.231  0.7331 -0.3680  0.3636
   29bbb     H9  730  10.443   6.975   4.233  0.1958  0.9265 -0.0435
   29bbb    H10  731  10.338   6.842   4.167 -1.7322  0.3109 -0.4893
   29bbb     C6  732  10.614   6.755   4.396  0.2731  0.4424 -0.3408
   29bbb    H11  733  10.592   6.648   4.388 -2.2306  0.8844  0.0752
   29bbb    H12  734  10.617   6.788   4.291  2.4801  0.2570 -0.3969
   29bbb     C7  735  10.249   7.030   4.155 -0.2668  0.4253  0.0024
   29bbb     C8  736  10.762   6.782   4.439  0.6241 -0.2388 -0.6430
   29bbb     O1  737  10.201   7.129   4.209  0.4222  0.3197 -0.0819
   29bbb     O2  738  10.800   6.898   4.453 -0.0608  0.4439 -0.4321
   29bbb     N4  739  10.397   6.513   4.509 -0.5178 -0.0837  0.0593
   29bbb    H21  740  10.329   6.513   4.434  0.4122  0.3701 -0.7982
   30bbb     C1  741   9.682   3.712   5.266  0.4197  0.2946  0.5146
   30bbb     H1  742   9.749   3.627   5.251 -3.1006 -2.3830 -1.3782
   30bbb     H2  743   9.632   3.700   5.363 -1.4431 -1.5381 -0.6182
   30bbb     C2  744   9.577   3.714   5.153 -0.2640  0.4181 -0.4082
   30bbb     H3  745   9.508   3.639   5.195  0.9510  0.4163  1.7246
   30bbb     H4  746   9.521   3.808   5.159 -2.6933 -1.0501  2.2820
   30bbb     N1  747   9.750   3.839   5.261  0.1138  0.4932  0.0011
   30bbb     C3  748   9.892   3.833   5.279 -0.2275  0.5310 -0.2560
   30bbb     H5  749   9.909   3.782   5.375 -0.8997  0.0780 -0.3748
   30bbb     H6  750   9.927   3.937   5.276 -0.1181  0.4882 -0.5216
   30bbb     C4  751   9.678   3.933   5.347 -0.4711  0.5922  0.3125
   30bbb     H7  752   9.570   3.918   5.338 -0.2687 -0.3171 -1.0730
   30bbb     H8  753   9.694   3.928   5.455 -1.2402  1.8796  0.5036
   30bbb     C5  754   9.704   4.074   5.304 -0.6640 -0.4180 -0.2474
   30bbb     H9  755   9.779   4.130   5.360 -1.9426 -0.0403  1.1401
   30bbb    H10  756   9.736   4.068   5.199  0.8177  1.0634  0.0740
   30bbb     C6  757   9.954   3.768   5.161 -0.2399  0.0010  0.0533
   30bbb    H11  758   9.921   3.664   5.151 -1.9204  0.4835  0.3707
   30bbb    H12  759   9.925   3.829   5.074 -1.5077  1.5952  1.5248
   30bbb     C7  760   9.579   4.155   5.301  0.2201 -0.4050 -0.0207
   30bbb     C8  761  10.102   3.771   5.182  0.6482  0.7917  0.5131
   30bbb     O1  762   9.503   4.165   5.204  0.1299 -0.2377  0.4353
   30bbb     O2  763  10.161   3.712   5.266  0.2411 -0.0016  0.4829
   30bbb     N4  764   9.615   3.693   5.013  0.2976  0.2795 -0.1488
   30bbb    H21  765   9.647   3.775   4.964 -1.7892  0.3756 -1.4574
   31bbb     C1  766   9.408   3.037   4.276 -0.6233 -0.5170 -0.7741
   31bbb     H1  767   9.408   2.953   4.346  1.3940 -1.9591 -2.3925
   31bbb     H2  768   9.448   2.987   4.187 -0.7836 -0.6442 -0.7738
   31bbb     C2  769   9.508   3.155   4.330  0.2171  0.2711 -0.5521
   31bbb     H3  770   9.599   3.112   4.374  0.1175 -2.0486 -2.3892
   31bbb     H4  771   9.551   3.206   4.243  0.7629 -0.7067 -0.8740
   31bbb     N1  772   9.274   3.088   4.255 -0.2906  0.2636 -0.6490
   31bbb     C3  773   9.158   2.997   4.258  0.5593  0.4750  0.7110
   31bbb     H5  774   9.152   2.934   4.169  1.0374 -0.9836  1.6684
   31bbb     H6  775   9.068   3.058   4.250  2.1598  2.6474 -2.7719
   31bbb     C4  776   9.258   3.179   4.138 -0.9322 -0.5098 -0.1374
   31bbb     H7  777   9.356   3.223   4.114 -0.4031 -3.0723 -3.4162
   31bbb     H8  778   9.236   3.135   4.040  1.6487  1.2332 -1.6347
   31bbb     C5  779   9.156   3.284   4.172  0.0160  0.5404  0.3739
   31bbb     H9  780   9.056   3.239   4.180 -0.0531  0.6667  0.2265
   31bbb    H10  781   9.193   3.333   4.263  1.2049  0.8590 -0.2609
   31bbb     C6  782   9.144   2.906   4.387  0.6055 -0.2443  0.3993
   31bbb    H11  783   9.234   2.848   4.410  2.5160  1.4784 -2.1844
   31bbb    H12  784   9.134   2.976   4.471 -1.4222 -0.0582  0.0449
   31bbb     C7  785   9.158   3.394   4.067  0.2077 -0.0537  0.4260
   31bbb     C8  786   9.018   2.822   4.374 -0.0783  0.4648 -0.6691
   31bbb     O1  787   9.252   3.462   4.046  0.4692 -0.2433 -0.1231
   31bbb     O2  788   9.016   2.711   4.324  0.8455 -0.1474  0.0348
   31bbb     N4  789   9.442   3.260   4.422 -0.1655 -0.1454 -0.0059
   31bbb    H21  790   9.346   3.248   4.451 -0.1169  1.9551  1.2184
   32bbb     C1  791  10.892   5.162   4.811 -0.6074 -0.0735  0.5450
   32bbb     H1  792  10.863   5.205   4.714 -0.9480 -0.7979  0.3167
   32bbb     H2  793  10.975   5.093   4.791 -2.4266 -2.4502  0.7605
   32bbb     C2  794  10.770   5.097   4.880  0.4927 -0.2920  0.1976
   32bbb     H3  795  10.789   5.034   4.969 -0.9909 -4.1397 -1.9497
   32bbb     H4  796  10.704   5.177   4.916 -0.6537 -0.4943 -1.3422
   32bbb     N1  797  10.938   5.265   4.896  0.2513 -0.1924 -0.0900
   32bbb     C3  798  11.003   5.378   4.835  0.3592  0.3004  0.9363
   32bbb     H5  799  11.079   5.344   4.764  0.2233 -0.2640  1.0617
   32bbb     H6  800  11.064   5.428   4.911  1.1290 -0.0047  0.5330
   32bbb     C4  801  11.008   5.220   5.015  0.0091  0.0934 -0.0577
   32bbb     H7  802  10.989   5.114   5.036 -1.2750  0.5347  1.2685
   32bbb     H8  803  11.114   5.241   4.999 -0.1748  1.5335  0.4898
   32bbb     C5  804  10.969   5.288   5.135 -0.7318 -0.8585 -0.4200
   32bbb     H9  805  11.001   5.393   5.130  0.0997 -0.9571  1.8345
   32bbb    H10  806  10.860   5.281   5.150 -0.5960  0.6956  1.6994
   32bbb     C6  807  10.911   5.485   4.772  0.3515 -0.0225 -0.4704
   32bbb    H11  808  10.828   5.441   4.715 -1.0744  1.4952  0.3479
   32bbb    H12  809  10.865   5.549   4.848  0.2736 -0.6419  0.0219
   32bbb     C7  810  11.036   5.215   5.255 -0.0262 -0.9789 -0.0565
   32bbb     C8  811  10.990   5.585   4.694 -0.1403  0.5260 -0.0452
   32bbb     O1  812  10.964   5.174   5.345 -0.3633  0.6332 -0.0293
   32bbb     O2  813  11.114   5.596   4.700  1.2090 -0.4528  0.7437
   32bbb     N4  814  10.681   5.019   4.790 -0.0721  0.2139  0.3176
   32bbb    H21  815  10.708   5.018   4.692  0.4144 -1.7079  0.4371
   33bbb     C1  816  10.495   3.967   4.608  0.3411  0.6464 -0.0563
   33bbb     H1  817  10.536   4.004   4.513 -1.4589 -0.2339 -1.2357
   33bbb     H2  818  10.447   3.872   4.581 -0.5966  1.3852 -1.0737
   33bbb     C2  819  10.385   4.068   4.653  0.0203  0.3649 -0.1972
   33bbb     H3  820  10.310   4.076   4.573  0.9956  3.0606 -0.9497
   33bbb     H4  821  10.345   4.043   4.752 -0.7556  2.6309  0.1209
   33bbb     N1  822  10.599   3.966   4.710  0.3124  0.4788  0.3251
   33bbb     C3  823  10.729   3.997   4.643 -0.3712  0.8360  0.2002
   33bbb     H5  824  10.713   4.086   4.581  0.3697  0.7025 -0.1885
   33bbb     H6  825  10.766   3.915   4.581  1.9068 -0.1511  2.6382
   33bbb     C4  826  10.596   3.862   4.805  0.3357  0.4999 -0.0670
   33bbb     H7  827  10.644   3.888   4.900  1.2522  0.2365 -0.4500
   33bbb     H8  828  10.491   3.853   4.836 -0.2705 -1.2928 -2.3273
   33bbb     C5  829  10.639   3.732   4.752 -0.6668 -0.3880 -0.1956
   33bbb     H9  830  10.549   3.681   4.714 -1.3772  0.4725  0.2791
   33bbb    H10  831  10.721   3.732   4.680  0.7769  1.8838  1.3392
   33bbb     C6  832  10.835   4.042   4.739  0.1442  0.2496 -0.0892
   33bbb    H11  833  10.794   4.130   4.789  1.1012  1.4912 -1.4174
   33bbb    H12  834  10.859   3.958   4.806  1.2429  0.0979 -0.6607
   33bbb     C7  835  10.691   3.644   4.869  0.1101  0.0958  0.9101
   33bbb     C8  836  10.964   4.076   4.668  0.1098  0.1937  0.5948
   33bbb     O1  837  10.615   3.596   4.950  0.3956  0.0142 -0.1180
   33bbb     O2  838  11.058   3.995   4.655 -0.1192 -0.3095  0.0707
   33bbb     N4  839  10.433   4.212   4.657  0.7983  1.2514  0.6321
   33bbb    H21  840  10.530   4.234   4.636  0.8290  0.6979  0.1783
   34bbb     C1  841   8.809   4.829   2.032 -0.2525  0.2566  0.1352
   34bbb     H1  842   8.896   4.776   2.075  0.6950  2.0459  0.4949
   34bbb     H2  843   8.854   4.888   1.952  1.5748  1.2413  1.8160
   34bbb     C2  844   8.764   4.925   2.144 -0.4545 -0.0222 -0.3886
   34bbb     H3  845   8.700   4.993   2.087 -1.4362  0.6778  1.4424
   34bbb     H4  846   8.701   4.875   2.219  0.2106 -0.5898 -0.1945
   34bbb     N1  847   8.694   4.744   1.988  0.7526  0.4682 -0.4624
   34bbb     C3  848   8.674   4.638   2.087 -0.0435  0.0794  0.2799
   34bbb     H5  849   8.689   4.687   2.184  1.5807  0.2026 -0.0095
   34bbb     H6  850   8.748   4.557   2.084  0.2575  0.3594  0.1029
   34bbb     C4  851   8.735   4.692   1.856  0.7859 -0.1168  0.0305
   34bbb     H7  852   8.844   4.680   1.852  0.8662  0.9203 -1.8621
   34bbb     H8  853   8.692   4.593   1.836 -0.6454  0.7389 -1.2566
   34bbb     C5  854   8.700   4.795   1.752  0.4161 -0.3565  0.2070
   34bbb     H9  855   8.590   4.800   1.756  0.4324 -0.4811  1.0815
   34bbb    H10  856   8.741   4.894   1.772 -0.9113  0.0490  1.1230
   34bbb     C6  857   8.538   4.581   2.090  0.0331  0.4153  0.4996
   34bbb    H11  858   8.461   4.659   2.097 -1.2365 -0.5810 -1.2927
   34bbb    H12  859   8.519   4.530   1.994 -0.7213  1.0346  0.3048
   34bbb     C7  860   8.742   4.746   1.616 -0.8284 -0.6857 -0.0217
   34bbb     C8  861   8.514   4.477   2.196 -0.4080 -0.1631 -0.5453
   34bbb     O1  862   8.798   4.642   1.592  0.1357  0.9284 -0.6069
   34bbb     O2  863   8.592   4.465   2.290  0.1227  0.2579 -0.2405
   34bbb     N4  864   8.885   4.983   2.219  1.0345 -0.4353  0.3891
   34bbb    H21  865   8.980   4.979   2.182  0.2301 -1.7818 -1.6933
   35bbb     C1  866   9.177   5.702   3.043 -0.3905  0.4620  0.0714
   35bbb     H1  867   9.185   5.751   3.141 -1.2132 -2.2099  1.5908
   35bbb     H2  868   9.068   5.690   3.035 -0.6299  0.5667  2.4206
   35bbb     C2  869   9.223   5.557   3.044 -0.4322  0.3850  0.4801
   35bbb     H3  870   9.327   5.556   3.078 -0.2308 -1.7879 -0.0197
   35bbb     H4  871   9.164   5.501   3.118 -0.5587  2.0010  1.6419
   35bbb     N1  872   9.232   5.789   2.937  0.0232  0.1972  0.1068
   35bbb     C3  873   9.378   5.803   2.942 -0.7892  0.2236  0.2603
   35bbb     H5  874   9.438   5.728   2.995  0.5421 -1.1968 -2.9950
   35bbb     H6  875   9.408   5.901   2.983 -0.2913 -0.7842  2.4402
   35bbb     C4  876   9.167   5.922   2.928 -0.3351  0.1620  0.2012
   35bbb     H7  877   9.193   5.972   3.021  0.7494 -0.2270  0.1126
   35bbb     H8  878   9.201   5.982   2.843 -1.6382 -0.7755 -1.0461
   35bbb     C5  879   9.019   5.907   2.920 -0.4019 -0.8343  0.0263
   35bbb     H9  880   8.990   5.842   2.836 -0.6462 -1.8002  0.8386
   35bbb    H10  881   8.976   5.877   3.016  0.7349  0.3327  0.9308
   35bbb     C6  882   9.420   5.802   2.793 -0.3573  0.6636 -0.5518
   35bbb    H11  883   9.362   5.721   2.747 -2.5333  1.7912  0.0427
   35bbb    H12  884   9.388   5.894   2.742  0.2795  0.5375 -1.1895
   35bbb     C7  885   8.950   6.038   2.906 -0.3374 -0.2695 -0.0957
   35bbb     C8  886   9.572   5.789   2.774 -0.0254 -0.3370  1.1766
   35bbb     O1  887   9.003   6.146   2.930  0.4871  0.0746 -0.3875
   35bbb     O2  888   9.626   5.680   2.771 -0.2612  0.2029  0.3980
   35bbb     N4  889   9.219   5.491   2.906  0.0395  0.5804  0.6274
   35bbb    H21  890   9.302   5.482   2.848 -0.8713  0.8506 -0.7642
   36bbb     C1  891   9.177   3.843   4.026  0.2688  0.2424  0.1372
   36bbb     H1  892   9.255   3.917   4.006  0.7236  0.1146  1.3588
   36bbb     H2  893   9.213   3.744   3.993  0.4305  1.0331 -2.2504
   36bbb     C2  894   9.038   3.874   3.962  0.1036  0.2608 -0.5083
   36bbb     H3  895   8.956   3.820   4.011  0.8410  0.2728  0.7952
   36bbb     H4  896   9.024   3.981   3.981 -1.0583 -0.2789  2.1118
   36bbb     N1  897   9.164   3.835   4.172  0.0675 -0.0248 -0.0796
   36bbb     C3  898   9.298   3.867   4.237  0.5006 -0.2272  0.1112
   36bbb     H5  899   9.379   3.821   4.179 -0.1571  2.5204 -3.3025
   36bbb     H6  900   9.301   3.821   4.336  2.6206  0.8134  0.5854
   36bbb     C4  901   9.127   3.699   4.210 -0.9173 -0.3141  0.2301
   36bbb     H7  902   9.048   3.668   4.141  0.2913 -0.9299 -0.9081
   36bbb     H8  903   9.211   3.632   4.192 -0.5208  0.1163  0.4671
   36bbb     C5  904   9.075   3.685   4.349 -0.9875 -0.1972  0.1826
   36bbb     H9  905   9.159   3.685   4.421  0.1973 -0.4594 -1.1565
   36bbb    H10  906   9.003   3.765   4.367  0.6082  1.7648 -1.6043
   36bbb     C6  907   9.311   4.019   4.231  0.3170 -0.8637 -0.2521
   36bbb    H11  908   9.369   4.043   4.141 -2.7628 -0.1807 -2.1722
   36bbb    H12  909   9.216   4.073   4.227 -0.1293 -1.2558  2.9069
   36bbb     C7  910   9.004   3.555   4.377 -1.1705  0.6028  0.0542
   36bbb     C8  911   9.390   4.063   4.353 -0.7029 -0.0579  0.2004
   36bbb     O1  912   9.042   3.486   4.465 -0.2262 -0.4476  0.0540
   36bbb     O2  913   9.507   4.087   4.349  0.2288 -0.2907 -0.1999
   36bbb     N4  914   9.033   3.853   3.817 -0.3293  0.2958 -0.1958
   36bbb    H21  915   9.111   3.810   3.769 -0.4362  0.7361 -0.7728
   37bbb     C1  916   8.572   3.623   2.836  0.1111 -0.4170  0.4016
   37bbb     H1  917   8.608   3.550   2.763  0.2087  0.2992 -0.2855
   37bbb     H2  918   8.622   3.718   2.812  3.2737 -2.3626 -1.3360
   37bbb     C2  919   8.602   3.594   2.978  0.8852  0.5607  0.0459
   37bbb     H3  920   8.506   3.606   3.030  1.4789  2.7184  0.7440
   37bbb     H4  921   8.645   3.493   2.981  0.4998  0.3889 -0.1524
   37bbb     N1  922   8.430   3.627   2.812  0.2823 -0.0367  0.0224
   37bbb     C3  923   8.390   3.488   2.805 -0.1657 -0.3702  0.4991
   37bbb     H5  924   8.440   3.427   2.881  2.0111  0.1030 -0.4941
   37bbb     H6  925   8.415   3.446   2.708  1.7982  0.5837  0.5579
   37bbb     C4  926   8.384   3.696   2.690  0.0586 -0.1447 -0.6165
   37bbb     H7  927   8.436   3.655   2.603 -1.1515 -0.1566 -1.3548
   37bbb     H8  928   8.275   3.705   2.685 -0.0577 -0.0566  1.4066
   37bbb     C5  929   8.417   3.845   2.711  0.4689 -0.7568  1.0058
   37bbb     H9  930   8.369   3.900   2.793  0.6490 -1.3948  1.5461
   37bbb    H10  931   8.526   3.860   2.711  0.3059  0.5803  0.9574
   37bbb     C6  932   8.246   3.481   2.834  0.6706 -0.2567 -0.3331
   37bbb    H11  933   8.215   3.516   2.933 -0.3776 -0.8341 -0.4412
   37bbb    H12  934   8.186   3.538   2.762  1.0703 -0.9214 -1.2074
   37bbb     C7  935   8.369   3.914   2.583  0.0049  0.2750 -0.1600
   37bbb     C8  936   8.194   3.340   2.815 -0.6604  0.4732  0.2157
   37bbb     O1  937   8.257   3.960   2.564  0.9148 -0.2477 -0.2484
   37bbb     O2  938   8.213   3.257   2.903  0.0035  0.5448  0.7789
   37bbb     N4  939   8.702   3.694   3.038 -0.2318  0.6640 -0.2061
   37bbb    H21  940   8.775   3.731   2.978 -1.4035 -0.2604 -2.3226
   38bbb     C1  941  12.025   5.684   2.626 -0.0720 -0.2752 -0.1741
   38bbb     H1  942  12.100   5.765   2.633 -1.0791  0.6704 -0.0706
   38bbb     H2  943  12.046   5.631   2.720 -0.5445 -0.6338 -0.2714
   38bbb     C2  944  12.072   5.598   2.503  0.7664  0.4520 -0.1254
   38bbb     H3  945  12.085   5.674   2.424  2.6986  0.1534 -0.1417
   38bbb     H4  946  12.175   5.563   2.519  0.4946 -1.5447 -2.1760
   38bbb     N1  947  11.889   5.745   2.617 -0.2168 -0.2025  0.0628
   38bbb     C3  948  11.775   5.674   2.669  0.2511 -0.5930 -0.2479
   38bbb     H5  949  11.737   5.603   2.595 -0.5758  0.8744 -1.2764
   38bbb     H6  950  11.687   5.740   2.672  0.2351 -0.6311  1.1203
   38bbb     C4  951  11.861   5.810   2.488  0.0819 -0.2114  0.0482
   38bbb     H7  952  11.881   5.737   2.409  1.0634  1.9734 -1.8276
   38bbb     H8  953  11.753   5.833   2.484  0.1410  0.1144  0.2338
   38bbb     C5  954  11.946   5.931   2.468 -0.6307 -0.2447  0.4443
   38bbb     H9  955  11.914   6.006   2.541 -0.5510  0.1199  0.1029
   38bbb    H10  956  12.050   5.901   2.485 -0.7482  0.5910  2.9982
   38bbb     C6  957  11.792   5.609   2.802 -0.3165 -0.0340  0.1175
   38bbb    H11  958  11.843   5.672   2.876 -0.6697 -0.0637  0.3909
   38bbb    H12  959  11.695   5.596   2.852 -0.1849  2.5948  1.2443
   38bbb     C7  960  11.934   5.993   2.330  0.3044  0.2417 -0.0681
   38bbb     C8  961  11.865   5.482   2.792  0.4554 -0.3436  0.2495
   38bbb     O1  962  11.828   6.035   2.278 -0.2139  0.2477 -0.0421
   38bbb     O2  963  11.849   5.397   2.704 -0.1278  0.2189  0.2601
   38bbb     N4  964  11.968   5.498   2.460  0.6437  0.7619 -0.8835
   38bbb    H21  965  11.887   5.469   2.513 -0.9049  0.5741 -3.1989
   39bbb     C1  966  11.776   5.236   1.964  0.2367  0.3090 -0.3079
   39bbb     H1  967  11.835   5.270   1.878  0.5702 -1.6262 -0.9094
   39bbb     H2  968  11.782   5.321   2.032 -0.3122  0.9132 -0.9896
   39bbb     C2  969  11.848   5.117   2.021 -0.5964  0.1672  0.7241
   39bbb     H3  970  11.871   5.063   1.929 -0.8109  0.9409  0.2066
   39bbb     H4  971  11.944   5.156   2.058  0.0533 -0.1893 -0.5151
   39bbb     N1  972  11.636   5.205   1.909 -0.0304 -0.4499 -0.8061
   39bbb     C3  973  11.667   5.151   1.781 -0.2274  0.9827 -0.5537
   39bbb     H5  974  11.740   5.069   1.786 -0.8538  0.5053  2.1179
   39bbb     H6  975  11.686   5.238   1.716 -2.3085  1.3022 -0.8041
   39bbb     C4  976  11.555   5.325   1.900 -0.1563  0.1696 -0.4330
   39bbb     H7  977  11.617   5.413   1.879  0.1015  0.0315 -0.2539
   39bbb     H8  978  11.477   5.312   1.824  1.0768 -2.8376 -1.3667
   39bbb     C5  979  11.488   5.330   2.031 -0.0349  0.2630  0.2204
   39bbb     H9  980  11.419   5.249   2.057 -1.3465  1.5769  1.0120
   39bbb    H10  981  11.557   5.333   2.116  0.6471 -0.6613 -0.2810
   39bbb     C6  982  11.542   5.091   1.728  0.1191 -0.4002  0.8771
   39bbb    H11  983  11.476   5.051   1.806  1.1593 -0.2169  1.8784
   39bbb    H12  984  11.492   5.168   1.667  0.1943 -1.0073  0.0263
   39bbb     C7  985  11.407   5.459   2.047  0.0474  0.4326 -0.2395
   39bbb     C8  986  11.588   4.984   1.632  0.3092  0.1121  0.5432
   39bbb     O1  987  11.402   5.541   1.961 -0.0406 -0.0250  0.0704
   39bbb     O2  988  11.593   4.864   1.660  0.1996 -0.4085  0.1081
   39bbb     N4  989  11.777   5.039   2.121  0.3117  0.2443 -0.3683
   39bbb    H21  990  11.706   5.083   2.178  0.6324  1.5588 -0.9663
   40bbb     C1  991  11.281   4.834   3.887  0.1256  0.3356 -0.9593
   40bbb     H1  992  11.322   4.796   3.793  1.0695 -3.4787  0.8039
   40bbb     H2  993  11.174   4.850   3.866  0.3597  0.3576 -2.2190
   40bbb     C2  994  11.345   4.971   3.915  0.1151 -0.0244  0.2249
   40bbb     H3  995  11.306   5.006   4.012  0.8683 -0.5572  0.7323
   40bbb     H4  996  11.452   4.955   3.932  0.8789  3.9353  0.1168
   40bbb     N1  997  11.291   4.739   4.001 -0.0566 -0.3675  0.4635
   40bbb     C3  998  11.328   4.610   3.949 -0.4396 -0.0903 -0.5514
   40bbb     H5  999  11.253   4.570   3.880  0.0817  1.3964 -2.0350
   40bbb     H6 1000  11.343   4.536   4.029 -0.4826 -0.3170 -0.7513
   40bbb     C4 1001  11.164   4.729   4.075 -0.3340  0.4488 -0.1121
   40bbb     H7 1002  11.076   4.707   4.013 -0.7164 -1.0151  0.8771
   40bbb     H8 1003  11.166   4.641   4.141  1.3843  0.0645 -0.6123
   40bbb     C5 1004  11.143   4.849   4.168  0.3490 -0.0355  0.1531
   40bbb     H9 1005  11.240   4.870   4.214  0.7217  0.2355 -0.7458
   40bbb    H10 1006  11.109   4.928   4.100  0.0397 -2.2608 -2.4420
   40bbb     C6 1007  11.466   4.619   3.893  0.2917 -0.5232  0.4797
   40bbb    H11 1008  11.476   4.681   3.803  0.6643 -1.8332 -0.3991
   40bbb    H12 1009  11.521   4.659   3.979  1.6432  0.0030 -0.5950
   40bbb     C7 1010  11.032   4.834   4.274 -0.5563  0.7468  0.5052
   40bbb     C8 1011  11.522   4.487   3.847  0.2952 -0.7248 -0.6650
   40bbb     O1 1012  10.933   4.766   4.243 -0.3312 -0.1589 -0.6313
   40bbb     O2 1013  11.579   4.416   3.931  0.4248  0.5437 -0.5452
   40bbb     N4 1014  11.316   5.061   3.800  0.8972  0.4193 -0.0385
   40bbb    H21 1015  11.228   5.110   3.795  0.7595  0.0098 -3.4033
   41bbb     C1 1016  11.917   5.601   3.174  0.3592  0.1299 -0.4720
   41bbb     H1 1017  11.827   5.575   3.116  0.0629 -3.3466  1.2681
   41bbb     H2 1018  11.968   5.504   3.184  0.6065 -0.1076 -3.1408
   41bbb     C2 1019  11.883   5.655   3.309 -0.1026 -0.0900 -0.7275
   41bbb     H3 1020  11.968   5.659   3.378 -1.1918 -0.3420  0.6706
   41bbb     H4 1021  11.840   5.755   3.294 -0.6801 -0.0336  1.0536
   41bbb     N1 1022  11.996   5.690   3.090  0.4365  0.6666  0.2500
   41bbb     C3 1023  12.145   5.693   3.115 -0.5966  1.1246  0.0713
   41bbb     H5 1024  12.163   5.754   3.204 -0.6358  0.9917  0.1702
   41bbb     H6 1025  12.190   5.742   3.028  2.6194 -1.2901  0.2215
   41bbb     C4 1026  11.930   5.830   3.084  0.0816  0.6423 -0.3076
   41bbb     H7 1027  11.827   5.812   3.051 -0.1773  1.6689 -0.0976
   41bbb     H8 1028  11.933   5.883   3.180 -0.2913  2.2120 -1.1359
   41bbb     C5 1029  11.998   5.911   2.974  0.1263 -0.1826 -0.3002
   41bbb     H9 1030  12.084   5.967   3.012 -0.6407  1.7875 -1.3454
   41bbb    H10 1031  12.041   5.857   2.889  1.0204 -0.6938  0.4624
   41bbb     C6 1032  12.209   5.556   3.146  0.6388 -0.1558  0.1975
   41bbb    H11 1033  12.174   5.516   3.242 -0.7369 -0.6629 -0.4897
   41bbb    H12 1034  12.196   5.488   3.061  1.1889 -0.7398  0.5661
   41bbb     C7 1035  11.904   6.021   2.935  0.3415 -0.3453 -0.3446
   41bbb     C8 1036  12.365   5.577   3.152  0.5697  0.0479 -1.0560
   41bbb     O1 1037  11.870   6.115   3.007  0.1102 -0.2577 -0.0142
   41bbb     O2 1038  12.434   5.507   3.085  0.3122  0.2522  0.4760
   41bbb     N4 1039  11.780   5.577   3.371 -0.3933 -0.3205 -0.5347
   41bbb    H21 1040  11.733   5.507   3.315 -1.4665  1.4206 -1.9070
   42bbb     C1 1041   9.524   5.240   3.200  0.0120  0.2852 -0.0544
   42bbb     H1 1042   9.606   5.289   3.254 -0.8297 -0.7068  2.2236
   42bbb     H2 1043   9.560   5.137   3.190  0.4838  0.3716  0.7111
   42bbb     C2 1044   9.500   5.317   3.066 -0.3104 -0.2464  0.1020
   42bbb     H3 1045   9.402   5.288   3.025 -0.0981  0.6258 -1.0931
   42bbb     H4 1046   9.503   5.423   3.094 -0.0068  0.2100 -1.5402
   42bbb     N1 1047   9.405   5.242   3.287  0.6146 -0.0797 -0.3910
   42bbb     C3 1048   9.448   5.215   3.424 -0.3410  0.3343 -0.4214
   42bbb     H5 1049   9.537   5.152   3.434 -1.5181 -1.3679 -0.1566
   42bbb     H6 1050   9.371   5.159   3.478  0.0953 -0.1608 -0.3032
   42bbb     C4 1051   9.319   5.130   3.238  0.0616  0.0183 -0.4935
   42bbb     H7 1052   9.338   5.117   3.131  1.0460 -0.0683 -0.3165
   42bbb     H8 1053   9.331   5.037   3.295 -0.8583  0.5353  0.5773
   42bbb     C5 1054   9.172   5.185   3.240  0.1692  0.5754  0.0175
   42bbb     H9 1055   9.145   5.226   3.338 -0.1785  2.9225 -1.0186
   42bbb    H10 1056   9.164   5.265   3.166  0.3359  1.7851  1.2715
   42bbb     C6 1057   9.466   5.340   3.498  0.2147  0.7238 -0.4616
   42bbb    H11 1058   9.385   5.410   3.476 -0.4982 -1.0329 -4.2976
   42bbb    H12 1059   9.461   5.319   3.605 -2.6213  0.3297 -0.6109
   42bbb     C7 1060   9.087   5.068   3.194  0.3585 -0.2117  0.0662
   42bbb     C8 1061   9.597   5.404   3.477 -0.9504 -0.9393 -1.2118
   42bbb     O1 1062   9.055   5.057   3.076 -0.0811 -0.3493 -0.1855
   42bbb     O2 1063   9.700   5.350   3.507  0.0020 -0.2054 -0.3023
   42bbb     N4 1064   9.608   5.282   2.960 -0.5251 -0.0015 -0.1608
   42bbb    H21 1065   9.692   5.229   2.981  0.4875  0.8834 -1.7084
   43bbb     C1 1066   9.734   5.691   2.202  0.2250  0.3960 -0.8885
   43bbb     H1 1067   9.627   5.710   2.214 -0.3467 -3.3653  1.3199
   43bbb     H2 1068   9.745   5.635   2.108  0.5951  0.6664 -1.0098
   43bbb     C2 1069   9.778   5.610   2.326  0.1670  0.5466 -0.1744
   43bbb     H3 1070   9.885   5.597   2.342 -0.1144 -2.3877 -0.0990
   43bbb     H4 1071   9.747   5.670   2.413  0.4810 -1.0360  1.0753
   43bbb     N1 1072   9.807   5.816   2.187 -0.4796  0.3615 -0.0907
   43bbb     C3 1073   9.755   5.904   2.090  0.4181  0.0998 -0.1297
   43bbb     H5 1074   9.645   5.906   2.098  0.1852  1.7910 -2.5775
   43bbb     H6 1075   9.780   5.861   1.992  2.3660  0.0321  0.3683
   43bbb     C4 1076   9.958   5.804   2.188  0.6801  0.2977 -0.3253
   43bbb     H7 1077  10.006   5.903   2.183  1.0235  0.2004  0.7962
   43bbb     H8 1078   9.990   5.757   2.282  2.5817  1.4388 -0.3345
   43bbb     C5 1079  10.008   5.712   2.079  0.8098  0.1181  0.0181
   43bbb     H9 1080   9.972   5.610   2.098 -0.9478  0.9162  1.3038
   43bbb    H10 1081   9.971   5.751   1.984 -0.3007 -0.0171  0.3762
   43bbb     C6 1082   9.803   6.048   2.107  0.3738 -0.0080 -0.6686
   43bbb    H11 1083   9.801   6.068   2.214 -2.6684  1.3343 -0.8682
   43bbb    H12 1084   9.901   6.069   2.063 -0.5105  2.1153 -1.8309
   43bbb     C7 1085  10.163   5.712   2.078  0.2671  0.3087  0.1429
   43bbb     C8 1086   9.717   6.146   2.034 -0.3906 -0.4847  0.9807
   43bbb     O1 1087  10.230   5.792   2.142  0.4502 -0.2325 -0.3014
   43bbb     O2 1088   9.691   6.125   1.917  0.3686 -0.0691  0.2506
   43bbb     N4 1089   9.704   5.481   2.340  0.6172 -0.3652  0.2965
   43bbb    H21 1090   9.636   5.463   2.413  2.6552 -1.4997  2.0286
   44bbb     C1 1091  11.140   4.565   1.827 -0.1753 -0.7796 -0.3440
   44bbb     H1 1092  11.067   4.630   1.877  1.5818  1.0448 -0.0133
   44bbb     H2 1093  11.157   4.607   1.727 -0.4539  0.7100  0.1934
   44bbb     C2 1094  11.059   4.435   1.814 -0.5593  0.5293  0.0858
   44bbb     H3 1095  11.115   4.361   1.754 -1.1465  0.6226 -0.5860
   44bbb     H4 1096  11.049   4.392   1.914 -2.6345  1.0170  0.1210
   44bbb     N1 1097  11.262   4.543   1.908 -0.0988 -0.2580 -0.9688
   44bbb     C3 1098  11.279   4.650   2.009 -0.3420 -0.3757  0.7483
   44bbb     H5 1099  11.280   4.751   1.966 -0.6745 -1.0188 -0.8506
   44bbb     H6 1100  11.380   4.642   2.051 -0.3662 -1.6767  0.6116
   44bbb     C4 1101  11.383   4.531   1.829  0.0692 -0.2904 -0.0885
   44bbb     H7 1102  11.346   4.496   1.732 -0.1077 -2.4981  0.6968
   44bbb     H8 1103  11.428   4.629   1.813  0.4813  0.0000  2.3946
   44bbb     C5 1104  11.479   4.430   1.885 -0.6515  0.1820  0.3518
   44bbb     H9 1105  11.577   4.436   1.835 -0.3613 -2.1245  0.5006
   44bbb    H10 1106  11.494   4.450   1.992  3.0452  1.1429 -0.1834
   44bbb     C6 1107  11.163   4.641   2.111 -0.1130 -0.3502  0.1479
   44bbb    H11 1108  11.073   4.685   2.066 -0.2205 -1.4842 -0.7882
   44bbb    H12 1109  11.134   4.538   2.134 -1.6555 -0.3350 -1.5429
   44bbb     C7 1110  11.432   4.285   1.869 -0.6635 -0.4983  0.2349
   44bbb     C8 1111  11.200   4.714   2.240  0.5242 -0.3687  0.2146
   44bbb     O1 1112  11.481   4.204   1.793 -0.9341  0.5000 -0.0831
   44bbb     O2 1113  11.303   4.777   2.254  0.2453 -0.1507  0.3449
   44bbb     N4 1114  10.920   4.454   1.757 -0.3757  0.1082 -0.1375
   44bbb    H21 1115  10.873   4.544   1.760 -0.8808 -0.0765 -1.5853
   45bbb     C1 1116  10.023   4.501   1.317  0.4102  0.3872  0.0032
   45bbb     H1 1117   9.939   4.540   1.376  0.0441 -2.2359  1.4033
   45bbb     H2 1118   9.976   4.462   1.226 -2.5613 -1.0043  1.9483
   45bbb     C2 1119  10.077   4.377   1.393 -1.6840  0.8719  0.7906
   45bbb     H3 1120   9.988   4.316   1.416  0.0542 -1.3116  2.1576
   45bbb     H4 1121  10.150   4.326   1.330 -1.9166  0.8022  0.5772
   45bbb     N1 1122  10.122   4.603   1.286 -0.1987  0.8791  0.3801
   45bbb     C3 1123  10.205   4.556   1.172 -0.1677  0.2233  0.3537
   45bbb     H5 1124  10.150   4.572   1.078  1.4580  2.5393 -0.2998
   45bbb     H6 1125  10.223   4.450   1.190  0.3780 -0.0216 -1.4683
   45bbb     C4 1126  10.062   4.731   1.254  0.7238  0.5208  0.8185
   45bbb     H7 1127  10.130   4.809   1.218 -0.7584  1.6122  0.2826
   45bbb     H8 1128   9.996   4.710   1.169  1.2949  0.0365  0.4961
   45bbb     C5 1129   9.999   4.802   1.373 -0.0392 -0.7858 -0.9168
   45bbb     H9 1130   9.904   4.764   1.411 -0.6056  0.6790 -0.8274
   45bbb    H10 1131  10.075   4.821   1.450 -0.0626 -0.2543 -1.0240
   45bbb     C6 1132  10.331   4.645   1.168  0.4774  0.3322 -0.2874
   45bbb    H11 1133  10.301   4.748   1.144 -0.1727  0.3837  0.7002
   45bbb    H12 1134  10.379   4.634   1.266  0.4661 -1.8641 -0.4939
   45bbb     C7 1135   9.965   4.939   1.327  0.6344 -0.6417 -0.0628
   45bbb     C8 1136  10.430   4.603   1.064  1.1027  0.3993 -0.7699
   45bbb     O1 1137  10.032   5.041   1.349 -0.1760 -0.2593  0.0391
   45bbb     O2 1138  10.402   4.602   0.945 -0.1138 -0.2114  0.6078
   45bbb     N4 1139  10.153   4.417   1.516  0.3610  0.1674  0.2593
   45bbb    H21 1140  10.168   4.516   1.535 -0.8691  0.8370 -1.9821
   46bbb     C1 1141   7.409   5.330   2.616  0.1275 -0.2779 -0.3909
   46bbb     H1 1142   7.404   5.433   2.654 -0.3277 -0.2030 -0.6414
   46bbb     H2 1143   7.385   5.257   2.694  1.3249 -1.2338 -0.8839
   46bbb     C2 1144   7.556   5.306   2.584 -0.1361 -0.1718 -0.2254
   46bbb     H3 1145   7.572   5.200   2.561  1.4882 -0.0224  0.0943
   46bbb     H4 1146   7.596   5.365   2.501 -0.3469  1.2399  0.6224
   46bbb     N1 1147   7.320   5.317   2.502 -0.0646 -0.3863  0.5703
   46bbb     C3 1148   7.334   5.431   2.419  0.0232 -1.0666 -0.9606
   46bbb     H5 1149   7.436   5.471   2.410  0.3080 -1.6585 -0.3918
   46bbb     H6 1150   7.275   5.517   2.454  1.4520  0.2086 -1.5644
   46bbb     C4 1151   7.185   5.290   2.546  0.2606 -0.0239  0.2111
   46bbb     H7 1152   7.162   5.311   2.651  0.2962 -1.6528  0.5567
   46bbb     H8 1153   7.117   5.355   2.489  0.1930 -0.8510 -0.6848
   46bbb     C5 1154   7.156   5.142   2.518  0.0540 -0.3502 -0.1869
   46bbb     H9 1155   7.168   5.113   2.413 -1.3840  2.2395 -1.1470
   46bbb    H10 1156   7.223   5.089   2.587  0.2437  1.0014  0.7047
   46bbb     C6 1157   7.289   5.394   2.282 -0.0044 -0.6035 -0.1463
   46bbb    H11 1158   7.357   5.316   2.245  0.2359 -0.4214 -0.0877
   46bbb    H12 1159   7.186   5.358   2.292  0.0012 -0.2702  1.3511
   46bbb     C7 1160   7.015   5.099   2.557  0.3056 -0.1586  0.1204
   46bbb     C8 1161   7.295   5.520   2.207 -0.6452  0.6556  0.9408
   46bbb     O1 1162   6.926   5.184   2.578  0.7026 -0.2082 -0.0191
   46bbb     O2 1163   7.219   5.616   2.231 -0.2034  0.3255 -0.1149
   46bbb     N4 1164   7.636   5.330   2.702  0.0132 -0.1552  0.1903
   46bbb    H21 1165   7.590   5.378   2.779 -2.5554 -1.3612 -0.4791
   47bbb     C1 1166   7.591   5.477   3.627 -0.4546 -0.2007  0.3368
   47bbb     H1 1167   7.592   5.585   3.609  0.3051 -0.3093 -0.3388
   47bbb     H2 1168   7.694   5.440   3.619 -0.2281  0.6526 -0.9520
   47bbb     C2 1169   7.509   5.399   3.525  0.2261 -0.0367 -0.2454
   47bbb     H3 1170   7.497   5.293   3.550 -1.5322 -0.0116 -0.8748
   47bbb     H4 1171   7.410   5.446   3.522  1.5942  3.0578 -1.4724
   47bbb     N1 1172   7.554   5.454   3.767 -0.3001 -0.0749 -0.3387
   47bbb     C3 1173   7.423   5.495   3.804  0.7626 -0.3959  0.1570
   47bbb     H5 1174   7.361   5.466   3.718  2.7589  0.0018 -1.5060
   47bbb     H6 1175   7.405   5.602   3.820 -0.4804 -0.4089 -0.9296
   47bbb     C4 1176   7.654   5.502   3.857  0.3577  0.8205  0.8740
   47bbb     H7 1177   7.701   5.586   3.804 -1.3399  0.6443 -1.0655
   47bbb     H8 1178   7.621   5.526   3.958  1.4119  0.7922  1.2375
   47bbb     C5 1179   7.771   5.401   3.873  0.7984 -0.0525  0.5904
   47bbb     H9 1180   7.812   5.356   3.781  0.8860  0.8196  0.1929
   47bbb    H10 1181   7.853   5.446   3.931  1.7650 -2.9283  1.6179
   47bbb     C6 1182   7.377   5.413   3.926 -0.3022 -0.1039 -0.5972
   47bbb    H11 1183   7.404   5.307   3.917  0.8707  0.2931 -2.2941
   47bbb    H12 1184   7.411   5.444   4.025 -0.1211 -2.6828  0.2160
   47bbb     C7 1185   7.729   5.285   3.962  0.4048  0.2183  0.0032
   47bbb     C8 1186   7.226   5.422   3.934 -0.8207 -0.5920  0.5321
   47bbb     O1 1187   7.729   5.300   4.083  0.6823 -0.2556 -0.0702
   47bbb     O2 1188   7.176   5.512   3.993  0.1458 -0.2016  0.2276
   47bbb     N4 1189   7.572   5.421   3.393  0.1081 -0.1504  0.1183
   47bbb    H21 1190   7.549   5.506   3.342  1.2256 -1.3394 -2.5501
   48bbb     C1 1191   9.472   5.493   1.969 -0.1665 -0.0375 -0.5073
   48bbb     H1 1192   9.520   5.586   2.002 -1.9886  0.5421  0.6509
   48bbb     H2 1193   9.380   5.520   1.916 -0.6037 -1.7639 -0.6792
   48bbb     C2 1194   9.436   5.401   2.093  0.1220 -0.0542  0.0003
   48bbb     H3 1195   9.400   5.306   2.052  0.5357 -0.7726  1.2346
   48bbb     H4 1196   9.533   5.379   2.140  0.2467  1.0953  0.2908
   48bbb     N1 1197   9.566   5.424   1.875  0.3310  0.0594 -0.4586
   48bbb     C3 1198   9.701   5.443   1.915 -1.1339 -0.2073  0.0234
   48bbb     H5 1199   9.707   5.402   2.017 -1.1010  0.1203  0.1547
   48bbb     H6 1200   9.742   5.545   1.911 -0.4154 -0.5062 -3.7167
   48bbb     C4 1201   9.552   5.495   1.744  0.5579  0.2133 -0.2828
   48bbb     H7 1202   9.543   5.602   1.767  2.7526  0.4304 -0.2473
   48bbb     H8 1203   9.641   5.491   1.680  0.7607  0.2267 -0.0044
   48bbb     C5 1204   9.427   5.448   1.675  0.4632  0.1686  0.1996
   48bbb     H9 1205   9.436   5.343   1.642 -3.3654 -0.4725  0.7207
   48bbb    H10 1206   9.337   5.457   1.738  0.4705 -1.1027  0.4232
   48bbb     C6 1207   9.790   5.351   1.828  0.4566 -0.6249  0.0922
   48bbb    H11 1208   9.754   5.251   1.855 -3.5635  0.4392 -0.6728
   48bbb    H12 1209   9.789   5.364   1.719 -2.8118  0.8370  0.1732
   48bbb     C7 1210   9.393   5.547   1.571 -1.0913 -0.1111  0.1784
   48bbb     C8 1211   9.932   5.357   1.870 -0.9016 -0.0368 -0.3426
   48bbb     O1 1212   9.325   5.645   1.605  0.2707  0.3405  0.1756
   48bbb     O2 1213   9.981   5.466   1.863 -0.4365  0.2016  0.3440
   48bbb     N4 1214   9.343   5.457   2.188 -0.6253 -0.3467  0.2015
   48bbb    H21 1215   9.336   5.558   2.186  3.2040  0.0266 -0.6787
   49bbb     C1 1216   8.681   6.145   1.961  0.1153  0.1771  0.2811
   49bbb     H1 1217   8.766   6.174   2.025 -2.1318  1.9872  2.6965
   49bbb     H2 1218   8.593   6.171   2.021 -0.4187  0.4972 -0.6223
   49bbb     C2 1219   8.691   5.994   1.942  0.1511 -0.1608  0.1518
   49bbb     H3 1220   8.623   5.961   1.862  1.1457 -1.0617 -0.3385
   49bbb     H4 1221   8.791   5.982   1.900 -0.7041 -1.4103 -1.6467
   49bbb     N1 1222   8.678   6.215   1.835 -0.2075 -0.9035  0.1970
   49bbb     C3 1223   8.805   6.197   1.767 -0.9198  0.7346  0.0506
   49bbb     H5 1224   8.811   6.097   1.722 -2.2239  0.5566  0.2104
   49bbb     H6 1225   8.884   6.202   1.843  0.1936 -3.6780 -0.5421
   49bbb     C4 1226   8.556   6.203   1.757 -0.4380  0.0519 -0.6051
   49bbb     H7 1227   8.573   6.220   1.650  2.3507  1.2940 -0.0526
   49bbb     H8 1228   8.512   6.102   1.768 -2.8265  1.1527  0.7793
   49bbb     C5 1229   8.451   6.304   1.805  0.1462 -0.3414  0.6206
   49bbb     H9 1230   8.447   6.319   1.913  0.6004  1.2374  0.4515
   49bbb    H10 1231   8.465   6.400   1.754 -1.5283 -0.8604 -0.8957
   49bbb     C6 1232   8.817   6.296   1.648  0.5044  0.3288 -0.7589
   49bbb    H11 1233   8.854   6.254   1.553 -1.2698  1.8793 -2.2147
   49bbb    H12 1234   8.728   6.359   1.638 -0.3805 -0.2781  2.2580
   49bbb     C7 1235   8.321   6.246   1.750 -0.3260  0.1341 -0.1461
   49bbb     C8 1236   8.909   6.398   1.696  0.3384 -0.0533 -0.0596
   49bbb     O1 1237   8.306   6.218   1.631 -0.2004  0.5806  0.0329
   49bbb     O2 1238   8.873   6.494   1.767 -0.1160  0.8859 -0.3755
   49bbb     N4 1239   8.683   5.910   2.064  0.3511 -0.2988 -0.5130
   49bbb    H21 1240   8.595   5.883   2.106 -0.6392  1.2808 -1.4649
   50bbb     C1 1241   9.094   4.527   5.092 -0.4054  0.1357 -0.3687
   50bbb     H1 1242   9.195   4.526   5.136 -0.7043 -2.1799  0.4101
   50bbb     H2 1243   9.047   4.450   5.156 -1.9129  0.8546 -0.5673
   50bbb     C2 1244   9.105   4.486   4.947 -0.9722 -0.1346 -0.3135
   50bbb     H3 1245   9.182   4.407   4.949  1.9721  2.5512 -0.2287
   50bbb     H4 1246   9.013   4.440   4.908  0.2008 -2.0380 -0.9640
   50bbb     N1 1247   9.024   4.651   5.110  0.4849 -0.6265 -0.3716
   50bbb     C3 1248   8.886   4.652   5.063  0.6592 -0.8167  0.7069
   50bbb     H5 1249   8.883   4.664   4.954 -2.6138  1.6221  0.9247
   50bbb     H6 1250   8.836   4.740   5.104 -0.0988 -1.3798  1.0180
   50bbb     C4 1251   9.035   4.706   5.251  0.1909  0.6228 -0.1207
   50bbb     H7 1252   8.962   4.646   5.307 -1.2016  0.2084 -2.2640
   50bbb     H8 1253   9.135   4.698   5.295  0.3551 -0.4317 -0.6622
   50bbb     C5 1254   9.004   4.856   5.261  0.0134 -0.2214 -0.8975
   50bbb     H9 1255   9.069   4.913   5.193  0.7981  1.9507  1.5412
   50bbb    H10 1256   8.900   4.883   5.237  0.3340  1.2573 -0.6729
   50bbb     C6 1257   8.797   4.540   5.101  0.2505  0.0365 -0.3730
   50bbb    H11 1258   8.837   4.440   5.079 -1.1878 -0.2543 -1.9473
   50bbb    H12 1259   8.792   4.537   5.210 -1.6344  1.9241 -0.3421
   50bbb     C7 1260   9.020   4.902   5.404  0.5925  0.3213 -0.5957
   50bbb     C8 1261   8.663   4.553   5.029 -0.6776 -0.4805 -0.3957
   50bbb     O1 1262   8.936   4.886   5.490 -0.2083  0.5862  0.2898
   50bbb     O2 1263   8.638   4.655   4.961 -0.3844 -0.2080 -0.0598
   50bbb     N4 1264   9.156   4.600   4.867  0.6262 -0.3667 -0.1824
   50bbb    H21 1265   9.121   4.695   4.878  3.4507  0.8263 -0.6233
   51bbb     C1 1266   9.920   4.894   4.214 -0.0619  0.5002  0.0250
   51bbb     H1 1267   9.908   4.987   4.271  0.6871  0.6158  0.0154
   51bbb     H2 1268   9.837   4.886   4.143  0.5306  1.8436 -0.8434
   51bbb     C2 1269   9.908   4.777   4.313 -0.0483 -0.0480  0.4046
   51bbb     H3 1270   9.961   4.688   4.277  0.6513  0.2406  0.6982
   51bbb     H4 1271   9.962   4.818   4.400  2.3963 -0.4659 -0.8158
   51bbb     N1 1272  10.053   4.883   4.139  0.3838 -0.2872 -0.7480
   51bbb     C3 1273  10.104   5.017   4.109 -0.3861  0.2266 -0.1795
   51bbb     H5 1274  10.021   5.075   4.068 -0.2030  0.9292  0.4323
   51bbb     H6 1275  10.192   5.004   4.045 -0.9955 -0.5932 -0.8823
   51bbb     C4 1276  10.040   4.788   4.027 -0.9044 -0.0372 -0.2487
   51bbb     H7 1277   9.989   4.698   4.063  1.9836 -2.1976 -1.1014
   51bbb     H8 1278   9.981   4.844   3.954 -0.3747  0.8343 -0.0342
   51bbb     C5 1279  10.184   4.747   3.990  0.2777 -0.0221  0.1961
   51bbb     H9 1280  10.223   4.822   3.921 -1.8536  0.1060 -0.9750
   51bbb    H10 1281  10.251   4.739   4.076  1.8918 -1.8929 -1.1459
   51bbb     C6 1282  10.156   5.082   4.235 -0.4803  0.1117 -0.2548
   51bbb    H11 1283  10.072   5.119   4.296 -0.8473  0.2362 -0.8298
   51bbb    H12 1284  10.218   5.013   4.295 -0.8773  0.5244  0.6584
   51bbb     C7 1285  10.179   4.617   3.912 -0.6139  0.6552  0.6988
   51bbb     C8 1286  10.242   5.197   4.196 -1.0799 -0.5888 -0.0289
   51bbb     O1 1287  10.075   4.577   3.856 -0.2828 -0.2974  0.3760
   51bbb     O2 1288  10.200   5.308   4.183 -0.2613 -0.3897 -0.4640
   51bbb     N4 1289   9.761   4.750   4.336  0.1659  0.0743  0.0968
   51bbb    H21 1290   9.707   4.713   4.259  1.5280 -0.2618 -0.7215
   52bbb     C1 1291   8.143   5.150   3.349  0.4702  0.1495  0.2254
   52bbb     H1 1292   8.248   5.158   3.318  0.4995 -0.1703  0.2358
   52bbb     H2 1293   8.088   5.214   3.279  1.5406  0.8833  0.0376
   52bbb     C2 1294   8.126   5.197   3.496  0.4022 -0.3210 -0.5394
   52bbb     H3 1295   8.181   5.292   3.503  1.6887 -1.0907  0.2572
   52bbb     H4 1296   8.021   5.225   3.508  0.5728  0.6395 -1.1906
   52bbb     N1 1297   8.106   5.013   3.323  0.1589 -0.0989  0.7579
   52bbb     C3 1298   8.129   4.982   3.181  0.6953 -0.1538  0.5562
   52bbb     H5 1299   8.093   5.063   3.117 -1.1001 -1.1773  0.2057
   52bbb     H6 1300   8.062   4.900   3.153 -1.3430  1.3755  0.7480
   52bbb     C4 1301   7.963   4.985   3.366  0.2782 -0.4295 -0.4255
   52bbb     H7 1302   7.931   5.057   3.443  1.3439  0.1189 -0.4800
   52bbb     H8 1303   7.904   4.979   3.274  1.8104 -1.4110 -1.3771
   52bbb     C5 1304   7.952   4.847   3.434  0.4245  0.6165  0.1982
   52bbb     H9 1305   8.031   4.785   3.389  0.1113 -0.9129  1.6550
   52bbb    H10 1306   7.944   4.857   3.543  0.0399  0.9785  0.1398
   52bbb     C6 1307   8.281   4.943   3.156 -0.5063  0.2944 -0.0300
   52bbb    H11 1308   8.350   5.028   3.155  1.4600 -1.2409 -1.1541
   52bbb    H12 1309   8.317   4.863   3.222  1.8755  1.5843  0.3471
   52bbb     C7 1310   7.826   4.791   3.401  0.7298  0.4602  0.0623
   52bbb     C8 1311   8.293   4.885   3.017  0.0001 -0.4018 -0.2443
   52bbb     O1 1312   7.814   4.704   3.319  0.3690 -0.1602  0.2581
   52bbb     O2 1313   8.199   4.848   2.947 -0.5895  0.1033  0.2148
   52bbb     N4 1314   8.162   5.113   3.615 -0.2950 -0.6286  0.5936
   52bbb    H21 1315   8.245   5.056   3.612  0.0437 -0.1036 -0.9033
   53bbb     C1 1316   7.822   4.569   4.335  0.8391  0.6943 -0.0917
   53bbb     H1 1317   7.784   4.658   4.388  1.2662 -0.8900  3.1038
   53bbb     H2 1318   7.890   4.522   4.407 -0.7652 -0.3402  0.7908
   53bbb     C2 1319   7.896   4.604   4.204 -0.5097 -0.2715  0.0392
   53bbb     H3 1320   7.956   4.517   4.174 -0.8294 -0.3778 -0.2922
   53bbb     H4 1321   7.845   4.632   4.112  1.4028  0.6635 -0.7905
   53bbb     N1 1322   7.704   4.485   4.310  0.3594  0.1688 -0.0702
   53bbb     C3 1323   7.748   4.355   4.260  0.0613 -0.0712 -0.6759
   53bbb     H5 1324   7.768   4.280   4.338  2.4312 -0.5164 -1.5980
   53bbb     H6 1325   7.845   4.357   4.207  1.0930 -2.1237  0.9663
   53bbb     C4 1326   7.610   4.458   4.422  0.2358  0.1846  0.0641
   53bbb     H7 1327   7.526   4.398   4.386 -1.0878  0.2106  2.8096
   53bbb     H8 1328   7.662   4.411   4.506  1.4168  1.9698  0.3871
   53bbb     C5 1329   7.547   4.585   4.470 -0.3196 -0.5934 -0.2349
   53bbb     H9 1330   7.619   4.654   4.516 -0.6076  1.8564 -3.1766
   53bbb    H10 1331   7.501   4.642   4.389  0.5891  1.1688  0.4305
   53bbb     C6 1332   7.642   4.302   4.166  1.0693  0.6232 -0.3925
   53bbb    H11 1333   7.559   4.253   4.217  1.8295 -0.2882 -0.0012
   53bbb    H12 1334   7.597   4.381   4.105 -0.9945  1.3095  1.8594
   53bbb     C7 1335   7.439   4.549   4.559 -0.0090  0.1445 -0.5088
   53bbb     C8 1336   7.701   4.187   4.083  0.6947 -0.2541  0.0407
   53bbb     O1 1337   7.326   4.540   4.521 -0.9481  0.6058 -0.1240
   53bbb     O2 1338   7.748   4.087   4.131 -0.0942  0.2233 -0.3486
   53bbb     N4 1339   8.010   4.693   4.231  0.5513 -0.1607  0.6594
   53bbb    H21 1340   8.009   4.753   4.313  1.2652  1.0900 -0.2166
   54bbb     C1 1341  11.399   6.577   2.623  0.1791 -0.7943 -0.1025
   54bbb     H1 1342  11.317   6.505   2.636  1.3057 -2.1235 -0.1737
   54bbb     H2 1343  11.481   6.531   2.567 -0.1922  0.0730 -1.4236
   54bbb     C2 1344  11.456   6.607   2.761 -0.2438 -0.3097 -0.1764
   54bbb     H3 1345  11.517   6.517   2.775 -0.0824 -0.3159 -0.8844
   54bbb     H4 1346  11.524   6.692   2.748 -1.4183  0.6287 -0.4330
   54bbb     N1 1347  11.351   6.703   2.558  0.1872  0.5054  0.2809
   54bbb     C3 1348  11.210   6.721   2.560 -0.6959  0.2600 -0.2507
   54bbb     H5 1349  11.165   6.622   2.576 -0.4796  0.6698  4.2797
   54bbb     H6 1350  11.171   6.753   2.462  0.1791 -0.0531 -0.7140
   54bbb     C4 1351  11.412   6.726   2.432  0.1088 -1.1737  0.4492
   54bbb     H7 1352  11.400   6.646   2.358 -1.1815 -1.7675  1.2712
   54bbb     H8 1353  11.369   6.817   2.388 -0.5637 -0.0390  3.2233
   54bbb     C5 1354  11.558   6.756   2.449  1.1750  0.3736  0.1353
   54bbb     H9 1355  11.573   6.820   2.538  2.1701 -0.1427  0.3507
   54bbb    H10 1356  11.609   6.661   2.469 -0.1381  0.3765  4.6465
   54bbb     C6 1357  11.157   6.798   2.680 -0.9469  0.0019 -0.2042
   54bbb    H11 1358  11.151   6.749   2.778  0.9232  2.8749  1.5015
   54bbb    H12 1359  11.211   6.893   2.688 -0.1813 -0.4755  0.4203
   54bbb     C7 1360  11.630   6.815   2.325  0.1470 -0.2179 -0.2367
   54bbb     C8 1361  11.017   6.831   2.650 -0.5649  0.2621 -0.0368
   54bbb     O1 1362  11.570   6.867   2.232  0.0739  0.1586  0.3522
   54bbb     O2 1363  10.933   6.742   2.656 -0.2252  0.2289  0.0605
   54bbb     N4 1364  11.364   6.631   2.878 -0.4044  0.1594  1.0406
   54bbb    H21 1365  11.266   6.612   2.859 -0.5232  0.3272  1.4832
   55bbb     C1 1366  11.655   6.599   3.871 -0.2082  0.2747  0.2751
   55bbb     H1 1367  11.692   6.655   3.784  2.4824  0.0133  1.1510
   55bbb     H2 1368  11.675   6.493   3.849 -1.2121  0.4770 -1.8229
   55bbb     C2 1369  11.501   6.604   3.876  0.4566 -0.4685  0.5262
   55bbb     H3 1370  11.462   6.550   3.963  0.9749 -0.0865  1.0058
   55bbb     H4 1371  11.480   6.709   3.898  0.8430  0.0342 -1.3458
   55bbb     N1 1372  11.730   6.632   3.995 -0.1803  0.5532  0.1492
   55bbb     C3 1373  11.699   6.761   4.039 -0.0760  0.0705 -0.6707
   55bbb     H5 1374  11.639   6.816   3.965 -3.1960 -1.3798  0.5829
   55bbb     H6 1375  11.788   6.821   4.060 -0.7020  0.0727  2.5591
   55bbb     C4 1376  11.869   6.615   3.969 -0.0761  0.2185 -0.1642
   55bbb     H7 1377  11.882   6.520   3.915 -2.7013  0.0751 -0.6558
   55bbb     H8 1378  11.912   6.698   3.911  0.1298 -0.3300 -0.8194
   55bbb     C5 1379  11.940   6.603   4.108 -0.0348  0.1468 -0.3232
   55bbb     H9 1380  11.913   6.693   4.166 -0.4154 -0.0720 -0.1581
   55bbb    H10 1381  11.900   6.518   4.165 -2.1396  1.8743  0.9631
   55bbb     C6 1382  11.622   6.751   4.170 -0.2371 -0.4029 -0.0111
   55bbb    H11 1383  11.515   6.732   4.158  0.0742 -1.3075 -1.5652
   55bbb    H12 1384  11.669   6.665   4.219  0.2369 -0.0899  0.0948
   55bbb     C7 1385  12.093   6.597   4.087  0.1655 -0.4028 -0.2494
   55bbb     C8 1386  11.650   6.867   4.254 -0.5912  0.1331 -0.1517
   55bbb     O1 1387  12.153   6.634   3.985  0.2633  0.8245 -0.5290
   55bbb     O2 1388  11.762   6.877   4.299 -0.0395 -0.6765 -0.6508
   55bbb     N4 1389  11.454   6.560   3.745  0.2443 -0.0744  0.2925
   55bbb    H21 1390  11.468   6.465   3.714  1.6208  0.6684 -1.5025
   56bbb     C1 1391   9.714   6.570   2.882 -0.3822  0.0931 -0.2174
   56bbb     H1 1392   9.751   6.645   2.954  1.3009 -0.5564 -0.3502
   56bbb     H2 1393   9.797   6.499   2.880  0.4008  0.9481  0.5515
   56bbb     C2 1394   9.704   6.646   2.746 -0.5126 -0.4905  0.3716
   56bbb     H3 1395   9.699   6.573   2.665  0.1146  1.4002 -1.4511
   56bbb     H4 1396   9.611   6.704   2.744 -2.2120 -2.9674  1.7857
   56bbb     N1 1397   9.589   6.508   2.924 -0.0333  0.4024 -0.0216
   56bbb     C3 1398   9.581   6.486   3.071 -0.1578 -0.0362 -0.2553
   56bbb     H5 1399   9.676   6.448   3.111  0.2625 -1.6491 -2.6419
   56bbb     H6 1400   9.505   6.412   3.099  0.0595 -0.8016 -1.5945
   56bbb     C4 1401   9.564   6.385   2.848 -0.6798 -0.0080 -0.1389
   56bbb     H7 1402   9.600   6.382   2.744 -0.2202 -0.5435  0.0308
   56bbb     H8 1403   9.614   6.300   2.897  0.8694  0.1204 -1.4142
   56bbb     C5 1404   9.414   6.359   2.841 -0.6944  0.2023  0.2903
   56bbb     H9 1405   9.361   6.359   2.937 -3.4881  1.9365 -1.1159
   56bbb    H10 1406   9.375   6.444   2.783  0.3092  0.2084 -0.3921
   56bbb     C6 1407   9.561   6.616   3.148  0.2125 -0.6118  0.6994
   56bbb    H11 1408   9.539   6.588   3.252  1.2550  1.0251  1.3921
   56bbb    H12 1409   9.655   6.672   3.157  1.1416 -1.6305 -1.7584
   56bbb     C7 1410   9.385   6.228   2.786 -0.7722  0.3861  0.1714
   56bbb     C8 1411   9.455   6.699   3.085 -0.0259  0.7931  0.2954
   56bbb     O1 1412   9.419   6.128   2.844 -0.3321  0.5680 -0.5072
   56bbb     O2 1413   9.340   6.677   3.118  0.2789 -0.2744  0.5668
   56bbb     N4 1414   9.826   6.725   2.723  0.1715  0.0188  0.5777
   56bbb    H21 1415   9.908   6.666   2.721  1.7211  2.0709  0.5636
   57bbb     C1 1416  10.760   6.775   2.398  0.7370  0.2554 -0.1900
   57bbb     H1 1417  10.718   6.680   2.433 -1.9661  1.3948 -0.0843
   57bbb     H2 1418  10.828   6.820   2.471  1.5808  0.2678 -0.9566
   57bbb     C2 1419  10.641   6.869   2.377  0.4002 -0.4867  0.5089
   57bbb     H3 1420  10.684   6.966   2.348 -0.7710  0.8487  2.8882
   57bbb     H4 1421  10.579   6.837   2.292 -0.6906  0.4809  0.8936
   57bbb     N1 1422  10.848   6.760   2.275  0.8387 -0.2324  0.2944
   57bbb     C3 1423  10.898   6.626   2.287  0.1817  0.4391  0.4577
   57bbb     H5 1424  10.909   6.608   2.394  0.6590 -1.1296  0.1736
   57bbb     H6 1425  11.002   6.624   2.250 -0.6260 -0.3497 -1.9582
   57bbb     C4 1426  10.947   6.869   2.262 -0.1627  0.2180 -0.4199
   57bbb     H7 1427  10.888   6.961   2.267 -0.3732  0.0462  0.6905
   57bbb     H8 1428  11.012   6.887   2.348 -1.5230 -0.6619  0.8480
   57bbb     C5 1429  11.024   6.854   2.133 -0.1525  0.6137  0.7765
   57bbb     H9 1430  11.091   6.768   2.139 -0.8044  0.1240  1.1002
   57bbb    H10 1431  10.959   6.851   2.046 -0.0119 -1.1246  0.7121
   57bbb     C6 1432  10.810   6.512   2.224 -0.3140 -0.6581 -0.0766
   57bbb    H11 1433  10.851   6.412   2.240 -0.6547 -0.9888 -1.1880
   57bbb    H12 1434  10.710   6.514   2.268  0.5459  1.8781  2.0444
   57bbb     C7 1435  11.112   6.974   2.111  0.0514 -0.2958  0.6307
   57bbb     C8 1436  10.808   6.531   2.075 -0.0534  0.1572  0.1562
   57bbb     O1 1437  11.122   7.063   2.188 -0.0398  0.0838 -0.2498
   57bbb     O2 1438  10.909   6.517   2.010 -0.3700 -0.2373 -0.0020
   57bbb     N4 1439  10.573   6.901   2.503  1.0331 -0.4010  0.0264
   57bbb    H21 1440  10.573   6.834   2.578  0.8621  0.3380  0.6953
   58bbb     C1 1441   9.679   5.192   4.478  0.3800 -0.2456  0.1048
   58bbb     H1 1442   9.653   5.282   4.536 -0.3296 -0.7184  0.5263
   58bbb     H2 1443   9.598   5.120   4.493 -1.4557  1.0058 -2.8718
   58bbb     C2 1444   9.805   5.126   4.537  0.5325  0.0567  0.1064
   58bbb     H3 1445   9.770   5.083   4.631 -0.2129  0.7913  0.1755
   58bbb     H4 1446   9.831   5.045   4.468 -0.3693  0.5714 -0.8759
   58bbb     N1 1447   9.711   5.222   4.340 -0.2800 -0.2655 -0.1392
   58bbb     C3 1448   9.770   5.358   4.327 -0.5806  0.5033  0.0738
   58bbb     H5 1449   9.837   5.377   4.411 -1.4861 -1.7161  1.3746
   58bbb     H6 1450   9.691   5.434   4.325 -0.7950  0.4367  2.6457
   58bbb     C4 1451   9.589   5.213   4.256  0.1070 -0.0530 -0.3184
   58bbb     H7 1452   9.507   5.197   4.326  0.5332 -0.8131  0.0161
   58bbb     H8 1453   9.580   5.296   4.185 -0.1154  0.4163  0.2498
   58bbb     C5 1454   9.593   5.083   4.181  0.3750 -0.3042 -0.3160
   58bbb     H9 1455   9.661   5.086   4.095  0.3143 -1.4580 -0.4237
   58bbb    H10 1456   9.624   5.004   4.251 -1.5709  0.7745  1.9052
   58bbb     C6 1457   9.849   5.364   4.193 -0.0022 -0.7479 -0.2510
   58bbb    H11 1458   9.937   5.299   4.192  0.9473  0.1853  3.6629
   58bbb    H12 1459   9.789   5.329   4.108  1.9816 -1.7016 -1.3350
   58bbb     C7 1460   9.458   5.051   4.121  0.3388 -0.7709 -0.0969
   58bbb     C8 1461   9.896   5.502   4.170 -0.0973 -0.8590  0.5851
   58bbb     O1 1462   9.368   5.132   4.095 -0.4545 -0.0639 -0.5037
   58bbb     O2 1463   9.815   5.597   4.177 -0.3117 -0.5676 -0.7477
   58bbb     N4 1464   9.927   5.200   4.558  0.0994  0.2662  0.3208
   58bbb    H21 1465   9.916   5.301   4.556  0.8668  0.4161  1.9288
   59bbb     C1 1466  11.033   5.420   4.339 -0.3956  0.1751 -0.4856
   59bbb     H1 1467  11.027   5.481   4.431 -3.1852 -1.7550  0.7519
   59bbb     H2 1468  10.962   5.466   4.270  0.0583 -0.3849 -1.3362
   59bbb     C2 1469  10.960   5.293   4.368  0.9461  0.2940  0.3471
   59bbb     H3 1470  10.942   5.234   4.277  2.2740  0.8268 -0.2770
   59bbb     H4 1471  11.013   5.225   4.435 -0.1902 -1.4784 -0.4746
   59bbb     N1 1472  11.166   5.412   4.276  0.1977 -0.3824 -0.3635
   59bbb     C3 1473  11.150   5.366   4.138 -0.4830  0.0412 -0.0764
   59bbb     H5 1474  11.087   5.436   4.081 -0.0834  0.6851  0.2620
   59bbb     H6 1475  11.105   5.266   4.135 -0.3443 -0.0079 -2.5207
   59bbb     C4 1476  11.251   5.530   4.294  0.2179 -0.0702 -0.2146
   59bbb     H7 1477  11.253   5.553   4.402 -1.2845 -0.2421 -0.1395
   59bbb     H8 1478  11.353   5.518   4.255  0.2599 -0.3885 -0.0094
   59bbb     C5 1479  11.182   5.647   4.227  0.1467  0.1832 -0.0716
   59bbb     H9 1480  11.175   5.621   4.120  1.7623  2.0261 -0.6940
   59bbb    H10 1481  11.080   5.663   4.262 -0.3541  0.0438 -1.4040
   59bbb     C6 1482  11.281   5.349   4.072  0.8731 -0.0390  0.4330
   59bbb    H11 1483  11.271   5.308   3.971 -1.5308  0.3460  0.4567
   59bbb    H12 1484  11.324   5.449   4.069 -1.2947  0.9397  0.2246
   59bbb     C7 1485  11.262   5.771   4.243  0.0650 -0.4302  0.1857
   59bbb     C8 1486  11.389   5.263   4.137 -0.1644 -0.2490  0.1832
   59bbb     O1 1487  11.261   5.830   4.351  0.2442 -0.1129 -0.4080
   59bbb     O2 1488  11.383   5.205   4.246  0.0784  0.2800 -0.0928
   59bbb     N4 1489  10.818   5.310   4.427  0.3447 -0.0596 -0.2045
   59bbb    H21 1490  10.767   5.397   4.423 -0.7687 -0.7372 -2.2569
   60bbb     C1 1491  10.189   7.084   3.791 -0.0463 -0.2396  0.2975
   60bbb     H1 1492  10.157   6.981   3.775 -1.1419 -0.0537  1.2107
   60bbb     H2 1493  10.296   7.101   3.773 -0.2196  0.3654 -0.1994
   60bbb     C2 1494  10.156   7.109   3.936 -0.6165  0.1412  0.3595
   60bbb     H3 1495  10.182   7.213   3.961 -1.7207  0.4626  0.2374
   60bbb     H4 1496  10.051   7.086   3.959 -0.2719 -0.2715  1.6162
   60bbb     N1 1497  10.109   7.176   3.707  0.3785  0.5110 -0.2141
   60bbb     C3 1498  10.139   7.131   3.573  0.0871 -0.0937  0.7484
   60bbb     H5 1499  10.130   7.022   3.567 -0.7210  0.0059 -0.3574
   60bbb     H6 1500  10.240   7.159   3.541 -0.8074  1.0791 -1.2076
   60bbb     C4 1501  10.153   7.316   3.732 -0.1144  0.7815  0.2486
   60bbb     H7 1502  10.249   7.310   3.784  0.6581  1.5062 -1.0484
   60bbb     H8 1503  10.173   7.366   3.637  0.2767  0.3237  0.0899
   60bbb     C5 1504  10.048   7.386   3.811  0.2631  0.0332  0.4199
   60bbb     H9 1505   9.962   7.402   3.744  2.0692 -1.8864 -2.6059
   60bbb    H10 1506  10.013   7.336   3.902 -3.5258 -1.0223 -1.3872
   60bbb     C6 1507  10.025   7.199   3.486 -0.5060  0.5501  0.4207
   60bbb    H11 1508   9.924   7.178   3.525 -0.3594  1.8036  1.5526
   60bbb    H12 1509  10.033   7.309   3.486 -0.9677  0.5869  0.4756
   60bbb     C7 1510  10.089   7.530   3.838  0.3719  0.7613  0.0529
   60bbb     C8 1511  10.025   7.161   3.340  0.3908  0.0554 -0.1467
   60bbb     O1 1512  10.125   7.605   3.752 -0.1878  0.4117 -0.0272
   60bbb     O2 1513  10.124   7.125   3.283 -0.7410  0.3430  0.2710
   60bbb     N4 1514  10.235   7.010   4.019  0.1922 -0.2815  0.2543
   60bbb    H21 1515  10.289   6.934   3.980 -0.2273 -0.7035  0.4835
   61bbb     C1 1516  11.060   6.572   4.569 -0.4102  1.0137 -0.6746
   61bbb     H1 1517  11.155   6.596   4.618 -0.7949 -0.7144  1.0308
   61bbb     H2 1518  11.087   6.512   4.481 -1.7007 -0.2187 -0.2586
   61bbb     C2 1519  10.990   6.696   4.513  0.5268  0.3269 -0.4422
   61bbb     H3 1520  10.987   6.772   4.592  0.7338  0.3186 -0.4263
   61bbb     H4 1521  11.046   6.732   4.425  1.6512 -0.7593 -0.2039
   61bbb     N1 1522  10.971   6.488   4.655 -0.3681  0.6392  0.4740
   61bbb     C3 1523  10.925   6.556   4.776 -0.6921 -0.0974 -0.2981
   61bbb     H5 1524  10.871   6.647   4.746  0.4083  0.1636 -1.5922
   61bbb     H6 1525  11.011   6.592   4.834 -0.1161 -1.1067 -0.5037
   61bbb     C4 1526  11.024   6.349   4.659 -0.6415 -0.3680  0.1292
   61bbb     H7 1527  10.959   6.279   4.713 -1.5005  0.8133  0.6883
   61bbb     H8 1528  11.039   6.314   4.556 -0.7778 -2.8607  0.8961
   61bbb     C5 1529  11.155   6.345   4.730  0.0327 -0.2212  0.4108
   61bbb     H9 1530  11.237   6.394   4.676  0.9447 -1.7772  0.3252
   61bbb    H10 1531  11.150   6.401   4.825 -0.8180 -3.2783  2.2975
   61bbb     C6 1532  10.822   6.478   4.854 -0.0767 -0.2597 -0.2791
   61bbb    H11 1533  10.738   6.460   4.785 -0.4133 -2.1509  0.5520
   61bbb    H12 1534  10.865   6.383   4.889 -0.1086 -0.3413 -0.4586
   61bbb     C7 1535  11.187   6.200   4.755 -0.2372 -0.0092  0.2782
   61bbb     C8 1536  10.785   6.571   4.969 -0.2939 -0.0976  0.1866
   61bbb     O1 1537  11.220   6.118   4.672  0.4192 -0.2649 -0.5083
   61bbb     O2 1538  10.690   6.645   4.957 -1.1027  0.5057 -0.5339
   61bbb     N4 1539  10.845   6.676   4.475  0.3357 -0.2485  0.2417
   61bbb    H21 1540  10.802   6.584   4.470  0.3350 -0.2442  0.1717
   62bbb     C1 1541   9.318   4.212   5.511  0.2851  0.2474  0.8443
   62bbb     H1 1542   9.337   4.170   5.610 -0.5942 -2.4561 -0.0466
   62bbb     H2 1543   9.310   4.123   5.447 -0.5876 -0.1692  1.5167
   62bbb     C2 1544   9.431   4.291   5.452 -0.3457  0.3366 -0.3162
   62bbb     H3 1545   9.395   4.328   5.355 -0.3971  1.3010  0.0635
   62bbb     H4 1546   9.451   4.371   5.524 -0.5769 -1.5695  2.0162
   62bbb     N1 1547   9.193   4.284   5.493  1.1405  0.6838 -0.1600
   62bbb     C3 1548   9.073   4.193   5.484  0.2446  0.2329 -0.0329
   62bbb     H5 1549   9.036   4.154   5.580 -0.0415 -3.3493 -1.4638
   62bbb     H6 1550   9.104   4.109   5.421 -1.3887 -0.1806 -0.3363
   62bbb     C4 1551   9.175   4.389   5.592 -0.0844 -0.0498 -0.0885
   62bbb     H7 1552   9.103   4.350   5.665  0.8704 -2.6978 -0.4613
   62bbb     H8 1553   9.267   4.392   5.651 -0.1459  1.5793 -0.0268
   62bbb     C5 1554   9.155   4.528   5.537 -0.0736 -0.6195 -0.1277
   62bbb     H9 1555   9.236   4.549   5.467  0.9652  0.3463  1.3136
   62bbb    H10 1556   9.058   4.548   5.489  0.4628 -0.6284 -1.2281
   62bbb     C6 1557   8.960   4.267   5.414  0.1909 -0.1327 -0.1830
   62bbb    H11 1558   8.946   4.364   5.464 -0.3577 -0.4462  0.2846
   62bbb    H12 1559   8.981   4.291   5.309  1.3179  0.0338  0.0684
   62bbb     C7 1560   9.175   4.618   5.659  0.3986 -0.2739 -0.2924
   62bbb     C8 1561   8.841   4.174   5.411 -0.5262  0.0428 -0.0404
   62bbb     O1 1562   9.281   4.660   5.692  0.1076 -0.1845  0.2255
   62bbb     O2 1563   8.828   4.089   5.324 -0.4908  0.1229 -0.0936
   62bbb     N4 1564   9.553   4.207   5.430 -0.0239 -0.1936  0.4618
   62bbb    H21 1565   9.609   4.171   5.506  1.0881  0.4062 -0.0647
   63bbb     C1 1566  10.370   3.953   5.185 -0.4297 -0.1442  0.1890
   63bbb     H1 1567  10.476   3.954   5.157 -0.6293  0.5703 -0.5797
   63bbb     H2 1568  10.348   3.905   5.281 -2.9807 -1.3764 -0.9274
   63bbb     C2 1569  10.305   3.873   5.069  0.5596 -0.7585  0.3917
   63bbb     H3 1570  10.324   3.920   4.971 -1.4250  0.8075  0.6893
   63bbb     H4 1571  10.351   3.774   5.060 -2.3405 -2.1491 -0.3600
   63bbb     N1 1572  10.331   4.093   5.180  0.0748  0.1341 -0.3346
   63bbb     C3 1573  10.448   4.180   5.198  0.3955  1.2542  0.7214
   63bbb     H5 1574  10.501   4.154   5.290  1.8597  1.2398 -0.0855
   63bbb     H6 1575  10.406   4.281   5.208 -1.5486  0.4916  0.5459
   63bbb     C4 1576  10.225   4.119   5.278 -0.6793 -0.7924  0.7106
   63bbb     H7 1577  10.164   4.028   5.289 -1.7020 -0.1585  0.4156
   63bbb     H8 1578  10.265   4.142   5.377 -1.9195  2.2285  0.6403
   63bbb     C5 1579  10.149   4.243   5.232  0.5834 -0.2449  0.2143
   63bbb     H9 1580  10.210   4.332   5.213  1.3674 -0.7030  0.5271
   63bbb    H10 1581  10.098   4.234   5.135  2.6271  0.5607 -0.9923
   63bbb     C6 1582  10.539   4.187   5.075  0.3434 -0.3866 -0.3365
   63bbb    H11 1583  10.585   4.089   5.057 -0.7341 -1.1825  1.0702
   63bbb    H12 1584  10.481   4.210   4.985  1.3777  1.1272 -0.6623
   63bbb     C7 1585  10.053   4.281   5.337 -0.0916 -0.3034 -0.1098
   63bbb     C8 1586  10.650   4.291   5.078 -0.7669 -0.6839 -0.7240
   63bbb     O1 1587  10.038   4.235   5.449  0.5347 -0.2230  0.5312
   63bbb     O2 1588  10.769   4.262   5.084 -0.4581  0.5093 -0.0729
   63bbb     N4 1589  10.157   3.858   5.085 -0.0564  0.3951 -0.0177
   63bbb    H21 1590  10.091   3.884   5.013 -0.8322 -0.8660  0.2100
   64bbb     C1 1591   8.858   3.435   3.856  0.0769 -0.0299  0.5284
   64bbb     H1 1592   8.784   3.466   3.931 -1.8807  0.6376 -1.5610
   64bbb     H2 1593   8.851   3.327   3.839  0.4569  0.1886 -1.2239
   64bbb     C2 1594   8.997   3.470   3.894 -0.1928  0.2967 -0.0884
   64bbb     H3 1595   9.065   3.452   3.810  1.3379  0.2178  1.1262
   64bbb     H4 1596   9.012   3.575   3.922  2.0335 -0.2221  0.8876
   64bbb     N1 1597   8.825   3.504   3.730 -0.4619 -0.0582 -0.6076
   64bbb     C3 1598   8.682   3.531   3.726  0.1841 -0.3938 -0.0502
   64bbb     H5 1599   8.656   3.579   3.821 -0.1040 -0.2087 -0.2216
   64bbb     H6 1600   8.626   3.437   3.722 -1.8744  0.8286 -2.1115
   64bbb     C4 1601   8.878   3.432   3.621 -0.1155 -0.1761  0.4674
   64bbb     H7 1602   8.943   3.353   3.660 -1.7156 -0.7849  2.0830
   64bbb     H8 1603   8.798   3.385   3.563  1.6221  0.3709 -2.5996
   64bbb     C5 1604   8.952   3.520   3.522 -0.3825 -0.8230 -0.7689
   64bbb     H9 1605   8.880   3.570   3.456  1.8598  0.4479 -2.4338
   64bbb    H10 1606   9.012   3.595   3.575 -1.5928  1.8177 -2.8792
   64bbb     C6 1607   8.636   3.620   3.606  0.6487  0.1461  0.1662
   64bbb    H11 1608   8.676   3.720   3.628  0.8190  0.0913  0.1128
   64bbb    H12 1609   8.679   3.589   3.510  2.5989  1.9251  0.3728
   64bbb     C7 1610   9.046   3.434   3.450  0.7451  0.2976  0.5545
   64bbb     C8 1611   8.492   3.637   3.593  0.3037  0.5005  0.4566
   64bbb     O1 1612   9.065   3.314   3.460  0.6103  0.0557  0.0668
   64bbb     O2 1613   8.424   3.615   3.692 -0.2116  0.3101 -0.1315
   64bbb     N4 1614   9.035   3.396   4.008 -0.1600 -0.1475  0.5096
   64bbb    H21 1615   8.967   3.325   4.034  0.1785 -0.5534  0.3028
   65bbb     C1 1616   8.678   2.817   4.398  0.2147  0.3270 -0.5971
   65bbb     H1 1617   8.605   2.753   4.449  2.5098  0.2703  3.0139
   65bbb     H2 1618   8.704   2.773   4.301  0.0923  1.2344 -1.0523
   65bbb     C2 1619   8.794   2.809   4.493 -0.1290 -0.3303 -0.3569
   65bbb     H3 1620   8.763   2.835   4.595  0.7410 -1.3833  0.2096
   65bbb     H4 1621   8.824   2.703   4.500  0.3002 -0.1101  1.7728
   65bbb     N1 1622   8.621   2.949   4.358 -0.2956 -0.0336 -0.2427
   65bbb     C3 1623   8.488   2.944   4.305  0.8081  0.6421  0.5738
   65bbb     H5 1624   8.484   2.868   4.227  1.9958  0.0930  1.0203
   65bbb     H6 1625   8.453   3.036   4.258 -2.9310 -1.2979 -0.7904
   65bbb     C4 1626   8.708   3.028   4.269  0.5934  0.1154 -0.1562
   65bbb     H7 1627   8.660   3.127   4.271 -1.6476 -0.9145  0.8228
   65bbb     H8 1628   8.805   3.049   4.315 -0.6015  2.8810  1.3887
   65bbb     C5 1629   8.729   2.983   4.126  0.2807 -0.2243 -0.2350
   65bbb     H9 1630   8.761   2.879   4.115  0.4465 -0.1774 -0.2043
   65bbb    H10 1631   8.628   2.986   4.083 -0.9394 -1.3503  2.3773
   65bbb     C6 1632   8.377   2.914   4.406 -0.0110 -0.1568  0.8285
   65bbb    H11 1633   8.384   2.809   4.436  0.9765 -0.6488 -1.0166
   65bbb    H12 1634   8.381   2.979   4.495 -0.2256  0.5669  0.3217
   65bbb     C7 1635   8.833   3.068   4.057  0.6543  0.4118 -0.2161
   65bbb     C8 1636   8.246   2.931   4.346  0.0013 -0.1999 -0.3722
   65bbb     O1 1637   8.839   3.186   4.062 -0.2044 -0.0523  0.5831
   65bbb     O2 1638   8.236   2.915   4.225 -0.0157 -0.0514 -0.2914
   65bbb     N4 1639   8.918   2.882   4.441  0.2084  0.4878 -0.3728
   65bbb    H21 1640   8.930   2.978   4.470 -1.3154  1.1454 -1.7762
   66bbb     C1 1641  11.401   5.142   5.348  0.1036 -0.1561  0.0412
   66bbb     H1 1642  11.455   5.060   5.396  1.4911 -0.2882 -1.6395
   66bbb     H2 1643  11.431   5.224   5.415 -0.0664  0.3904 -0.5360
   66bbb     C2 1644  11.247   5.123   5.351 -0.0315 -0.3484  0.5369
   66bbb     H3 1645  11.224   5.027   5.305  1.5970 -0.8573  0.6971
   66bbb     H4 1646  11.211   5.115   5.454 -0.3353 -0.2764  0.4375
   66bbb     N1 1647  11.456   5.164   5.211  0.2674  0.4991 -0.3159
   66bbb     C3 1648  11.603   5.202   5.209  0.7948 -0.8643 -1.0960
   66bbb     H5 1649  11.639   5.222   5.107  0.5124 -0.8328 -1.1902
   66bbb     H6 1650  11.650   5.120   5.265 -1.5731 -2.9557 -1.9807
   66bbb     C4 1651  11.442   5.042   5.139 -0.5747 -0.0401  0.2154
   66bbb     H7 1652  11.509   4.967   5.182  1.6831  2.3142  1.0624
   66bbb     H8 1653  11.341   5.000   5.150 -0.6176 -0.8930 -2.6127
   66bbb     C5 1654  11.469   5.058   4.991 -0.9045 -0.9371  0.0636
   66bbb     H9 1655  11.402   5.138   4.957 -0.1566  0.4414  1.6440
   66bbb    H10 1656  11.575   5.081   4.972 -1.1689  0.4287  0.1627
   66bbb     C6 1657  11.628   5.336   5.277 -0.0567 -0.0599  0.0311
   66bbb    H11 1658  11.561   5.419   5.251 -0.1081  0.1994  0.9382
   66bbb    H12 1659  11.638   5.324   5.386 -0.1752 -0.4203  0.0021
   66bbb     C7 1660  11.424   4.939   4.914 -0.4755 -0.5215 -0.5452
   66bbb     C8 1661  11.772   5.375   5.250 -0.1306  0.3541 -0.4570
   66bbb     O1 1662  11.330   4.873   4.953 -0.0813  0.3613 -0.0621
   66bbb     O2 1663  11.864   5.304   5.283 -0.8825  0.5425  0.8664
   66bbb     N4 1664  11.174   5.216   5.262  0.0820 -0.1969 -0.4112
   66bbb    H21 1665  11.223   5.250   5.180  1.7952 -1.2699  0.1163
   67bbb     C1 1666  10.945   5.918   4.597  0.7486 -0.3309  0.2607
   67bbb     H1 1667  11.012   5.999   4.567  0.6725  0.0219  1.0059
   67bbb     H2 1668  10.962   5.912   4.705  0.9814  0.0095  0.2441
   67bbb     C2 1669  10.975   5.781   4.533  0.0670 -0.7773  0.7598
   67bbb     H3 1670  10.932   5.772   4.432 -1.9670  0.2309  1.4809
   67bbb     H4 1671  11.084   5.767   4.532  0.1541 -0.1517  0.9410
   67bbb     N1 1672  10.809   5.961   4.556  0.1919 -0.6783  0.2620
   67bbb     C3 1673  10.802   6.060   4.442 -0.6654 -0.2836 -0.5218
   67bbb     H5 1674  10.854   6.151   4.474  0.1443 -0.9968  0.2519
   67bbb     H6 1675  10.695   6.078   4.427 -0.8804 -1.9047 -1.0708
   67bbb     C4 1676  10.739   6.015   4.670  0.9507  0.0281  0.3113
   67bbb     H7 1677  10.796   6.093   4.723 -1.4492  2.3870 -0.3783
   67bbb     H8 1678  10.642   6.054   4.637  0.6120 -1.5104 -0.5564
   67bbb     C5 1679  10.698   5.903   4.772  0.3680 -0.2413 -0.0475
   67bbb     H9 1680  10.672   5.823   4.702  2.3451  0.2715 -1.4510
   67bbb    H10 1681  10.785   5.885   4.837  2.8400  3.4915 -1.9601
   67bbb     C6 1682  10.855   6.010   4.315 -0.0810  0.1523 -0.0320
   67bbb    H11 1683  10.947   5.950   4.327 -1.7438 -2.7358 -0.8344
   67bbb    H12 1684  10.773   5.939   4.298 -1.8118  1.0278  3.6928
   67bbb     C7 1685  10.584   5.948   4.851  0.5284  0.1363 -0.4385
   67bbb     C8 1686  10.860   6.114   4.212 -0.0366 -0.0432  0.5996
   67bbb     O1 1687  10.547   6.059   4.882  0.3849 -0.6023  0.0697
   67bbb     O2 1688  10.768   6.163   4.150 -0.3162 -0.2577  0.1397
   67bbb     N4 1689  10.918   5.669   4.615 -0.0338 -0.0127 -0.3435
   67bbb    H21 1690  10.818   5.664   4.629 -0.1475  0.0031 -1.1236
   68bbb     C1 1691  11.017   3.627   5.028  0.2629  0.3316 -0.1487
   68bbb     H1 1692  11.098   3.629   4.954  1.2601 -1.3174  0.8594
   68bbb     H2 1693  11.056   3.579   5.118 -0.8735  2.0819  1.3608
   68bbb     C2 1694  10.900   3.547   4.965  0.9620 -0.0265  0.7825
   68bbb     H3 1695  10.947   3.457   4.923  2.0586  1.2538 -0.9015
   68bbb     H4 1696  10.836   3.529   5.052  0.0879  1.4800  0.4825
   68bbb     N1 1697  10.965   3.764   5.065 -0.5704  0.4281 -0.3287
   68bbb     C3 1698  11.080   3.856   5.089 -0.7062  0.2569 -0.0605
   68bbb     H5 1699  11.167   3.797   5.121 -0.8149  0.2343  0.1916
   68bbb     H6 1700  11.063   3.930   5.168  2.7818  2.3442 -1.0255
   68bbb     C4 1701  10.875   3.767   5.176 -0.3932  0.3742 -0.2497
   68bbb     H7 1702  10.814   3.676   5.184  0.1734  0.0039 -0.0851
   68bbb     H8 1703  10.915   3.773   5.277 -2.3734  1.1996  0.5486
   68bbb     C5 1704  10.776   3.886   5.162  0.0905 -0.2753 -0.1056
   68bbb     H9 1705  10.818   3.963   5.096  0.2239 -0.9878 -0.8759
   68bbb    H10 1706  10.683   3.848   5.118 -0.9913  0.6722  1.2978
   68bbb     C6 1707  11.112   3.931   4.967  0.1793  0.2305  0.2884
   68bbb    H11 1708  11.120   3.871   4.876 -0.8896 -1.5754  1.3417
   68bbb    H12 1709  11.033   4.006   4.957 -0.0050  0.3087  2.0081
   68bbb     C7 1710  10.733   3.940   5.299 -1.0720  0.0367 -0.1050
   68bbb     C8 1711  11.234   4.019   4.971  0.0251 -0.2375  0.1970
   68bbb     O1 1712  10.685   3.869   5.383  0.1008  0.1602  0.1057
   68bbb     O2 1713  11.286   4.072   5.068 -0.2776  0.7298  0.2293
   68bbb     N4 1714  10.827   3.610   4.853  0.3551 -0.5239 -0.0711
   68bbb    H21 1715  10.878   3.662   4.782 -0.0474  0.4082  0.3083
   69bbb     C1 1716  11.052   4.298   4.388 -0.0294  0.5996 -0.8326
   69bbb     H1 1717  10.964   4.363   4.396 -0.3231  0.0840  0.3147
   69bbb     H2 1718  11.022   4.205   4.336 -1.1808  0.0732  0.6928
   69bbb     C2 1719  11.094   4.252   4.534 -0.1389 -0.7328  0.4088
   69bbb     H3 1720  11.174   4.179   4.515 -1.6855 -2.4616  0.1845
   69bbb     H4 1721  11.133   4.340   4.586 -2.1426 -0.6550  1.8960
   69bbb     N1 1722  11.162   4.364   4.314 -0.3568  0.5067  0.0474
   69bbb     C3 1723  11.158   4.337   4.171  0.0557 -0.5952  0.2726
   69bbb     H5 1724  11.207   4.417   4.114 -2.1675  0.6310 -0.0352
   69bbb     H6 1725  11.060   4.341   4.122  0.2531 -1.6063 -0.2298
   69bbb     C4 1726  11.200   4.495   4.370  0.7695  0.0612  0.5051
   69bbb     H7 1727  11.150   4.573   4.312  0.5529  0.0650  0.6975
   69bbb     H8 1728  11.164   4.511   4.473  0.2354 -0.6349  0.4327
   69bbb     C5 1729  11.350   4.500   4.353 -0.0816  0.2211 -0.2005
   69bbb     H9 1730  11.409   4.431   4.415  1.9334  1.0018 -1.1700
   69bbb    H10 1731  11.381   4.482   4.249 -0.6865  3.7618 -1.1381
   69bbb     C6 1732  11.231   4.209   4.135  0.4737  0.4733 -0.6743
   69bbb    H11 1733  11.319   4.195   4.198  0.1450  1.4796  0.0349
   69bbb    H12 1734  11.160   4.127   4.154  1.2738  0.3222  2.0614
   69bbb     C7 1735  11.391   4.641   4.375  0.6330 -0.1481 -0.2896
   69bbb     C8 1736  11.269   4.207   3.990 -0.7783 -0.7252  0.6602
   69bbb     O1 1737  11.321   4.720   4.431 -0.0270 -0.4417  0.5864
   69bbb     O2 1738  11.259   4.303   3.914 -0.2998  1.0160  0.2525
   69bbb     N4 1739  10.982   4.205   4.618  0.0197 -0.5445  0.2005
   69bbb    H21 1740  10.912   4.273   4.645 -0.0074  0.6348 -2.5490
   70bbb     C1 1741   8.627   4.732   1.290  0.2503 -1.0112  0.4486
   70bbb     H1 1742   8.635   4.625   1.314  0.8593 -1.1098 -0.1671
   70bbb     H2 1743   8.650   4.738   1.183  1.8593 -1.8796  0.7118
   70bbb     C2 1744   8.733   4.805   1.376 -0.6176  0.4247  0.3024
   70bbb     H3 1745   8.827   4.750   1.361 -0.0565  1.3919  0.1634
   70bbb     H4 1746   8.748   4.904   1.331  0.7889  0.6158  1.1319
   70bbb     N1 1747   8.495   4.773   1.326 -0.2880 -0.4737  0.5849
   70bbb     C3 1748   8.404   4.667   1.296 -0.6886  0.1772 -0.2649
   70bbb     H5 1749   8.453   4.592   1.233 -1.1984 -2.1948  1.9951
   70bbb     H6 1750   8.311   4.709   1.256 -1.3219  0.0560  1.0522
   70bbb     C4 1751   8.466   4.900   1.254 -0.2005 -0.1831  0.9113
   70bbb     H7 1752   8.553   4.967   1.252 -1.3780  1.4488  1.8163
   70bbb     H8 1753   8.441   4.875   1.150 -1.3337 -0.1251  1.1559
   70bbb     C5 1754   8.346   4.982   1.312 -0.1611  0.3147  0.0739
   70bbb     H9 1755   8.326   5.068   1.246  0.4179  1.8361  1.7949
   70bbb    H10 1756   8.255   4.920   1.311  0.2971 -0.3590 -0.8893
   70bbb     C6 1757   8.377   4.598   1.427 -0.0556 -0.1619 -0.0671
   70bbb    H11 1758   8.467   4.541   1.453  0.2129 -1.6605 -3.6146
   70bbb    H12 1759   8.358   4.675   1.503 -1.7933  2.0988 -2.5914
   70bbb     C7 1760   8.384   5.038   1.445  0.1533  0.2298  0.3513
   70bbb     C8 1761   8.257   4.504   1.406 -0.1422 -0.2546 -0.4746
   70bbb     O1 1762   8.497   5.057   1.484  0.2615  0.2495  0.0620
   70bbb     O2 1763   8.273   4.388   1.381 -0.1651  0.1090  0.2685
   70bbb     N4 1764   8.696   4.822   1.514 -0.0051  0.4539  0.4356
   70bbb    H21 1765   8.636   4.899   1.537 -2.2155 -0.0263 -3.0278
   71bbb     C1 1766   8.273   4.376   2.426  0.3292 -0.0483  0.1432
   71bbb     H1 1767   8.300   4.482   2.438  0.3033  0.1099 -1.1023
   71bbb     H2 1768   8.292   4.312   2.513 -1.4532  0.4972  0.9818
   71bbb     C2 1769   8.355   4.316   2.308 -0.3414 -0.0115  0.8069
   71bbb     H3 1770   8.439   4.264   2.356  0.0526 -0.8413 -0.7247
   71bbb     H4 1771   8.298   4.233   2.264 -1.4746  1.7291 -1.1717
   71bbb     N1 1772   8.133   4.380   2.396  0.5923  0.5175 -0.7528
   71bbb     C3 1773   8.093   4.464   2.283 -0.1400  0.6655  0.3936
   71bbb     H5 1774   8.095   4.406   2.189 -1.3643  1.9620 -0.4779
   71bbb     H6 1775   8.170   4.540   2.263 -0.2706 -0.0393 -3.6139
   71bbb     C4 1776   8.066   4.253   2.407  0.3315 -0.0111  0.4596
   71bbb     H7 1777   7.983   4.257   2.335  1.4266 -3.0048 -1.1740
   71bbb     H8 1778   8.122   4.163   2.378  0.1251 -0.5876  1.7947
   71bbb     C5 1779   8.014   4.237   2.549 -0.3999  0.2945  0.3073
   71bbb     H9 1780   8.099   4.212   2.615  0.0206  0.5340 -0.1409
   71bbb    H10 1781   7.976   4.332   2.587 -1.2210  0.1241 -0.0811
   71bbb     C6 1782   7.954   4.518   2.304 -0.2405 -0.1959 -0.3966
   71bbb    H11 1783   7.874   4.445   2.323  0.1007 -0.8375 -1.3813
   71bbb    H12 1784   7.956   4.582   2.393  0.6570  0.2916 -0.7571
   71bbb     C7 1785   7.913   4.128   2.552  0.5919 -0.2257 -0.6399
   71bbb     C8 1786   7.922   4.598   2.184  0.2961 -0.0251 -0.0566
   71bbb     O1 1787   7.794   4.147   2.542 -0.2645 -0.2149 -0.1617
   71bbb     O2 1788   7.995   4.609   2.090  0.0146 -0.4596 -0.3890
   71bbb     N4 1789   8.393   4.409   2.197 -0.0418  0.2756 -0.4557
   71bbb    H21 1790   8.335   4.426   2.116 -0.6641  1.0498  0.1442
   72bbb     C1 1791   8.655   6.196   2.981 -0.1359  0.2286  0.3439
   72bbb     H1 1792   8.587   6.268   2.934  0.0444  0.9335  1.1388
   72bbb     H2 1793   8.727   6.251   3.042 -1.5344  2.4008  0.1161
   72bbb     C2 1794   8.726   6.139   2.859  0.3789 -0.6894  0.7230
   72bbb     H3 1795   8.648   6.121   2.784  1.7641  0.5255 -1.1277
   72bbb     H4 1796   8.789   6.212   2.806  1.7086 -2.3480 -0.0824
   72bbb     N1 1797   8.577   6.104   3.065  0.0780  0.8340  0.3020
   72bbb     C3 1798   8.651   6.008   3.144  0.2575 -0.1043  0.2623
   72bbb     H5 1799   8.756   6.040   3.144 -0.1654  1.3127  0.6639
   72bbb     H6 1800   8.631   5.906   3.107  0.7047  0.3070 -1.1550
   72bbb     C4 1801   8.460   6.039   3.001  0.0198 -0.0362  0.1169
   72bbb     H7 1802   8.503   5.977   2.921 -0.8714  1.0625 -1.2493
   72bbb     H8 1803   8.392   5.983   3.067  0.2521 -0.6504 -0.1604
   72bbb     C5 1804   8.360   6.126   2.927 -0.3294 -0.2555 -0.1975
   72bbb     H9 1805   8.348   6.213   2.993  0.3875 -1.1184  1.1013
   72bbb    H10 1806   8.395   6.165   2.830  0.1651 -1.2383 -0.4213
   72bbb     C6 1807   8.605   6.015   3.289  0.3485 -0.1993 -0.5503
   72bbb    H11 1808   8.624   6.115   3.330 -0.4974  0.3946 -1.5605
   72bbb    H12 1809   8.497   5.998   3.298  0.7078 -2.5927 -0.2690
   72bbb     C7 1810   8.233   6.045   2.904  0.5630 -0.1693 -0.1250
   72bbb     C8 1811   8.670   5.923   3.387 -0.5102 -0.2516 -0.1434
   72bbb     O1 1812   8.234   5.930   2.864  0.2468 -0.2584  0.4397
   72bbb     O2 1813   8.785   5.884   3.389  0.0049  0.8828 -0.3000
   72bbb     N4 1814   8.818   6.024   2.872 -0.1132 -0.3233  0.3820
   72bbb    H21 1815   8.784   5.930   2.852 -2.4792  0.4501  0.4428
   73bbb     C1 1816   9.875   5.974   2.702  0.2387  0.1905 -0.1646
   73bbb     H1 1817   9.932   5.905   2.765 -2.2126 -1.8892 -0.0724
   73bbb     H2 1818   9.854   6.055   2.773 -2.5048  0.2537 -0.9222
   73bbb     C2 1819   9.739   5.928   2.650  0.3613  0.1896  0.9126
   73bbb     H3 1820   9.701   6.005   2.581 -0.4806 -2.3770 -1.7177
   73bbb     H4 1821   9.762   5.837   2.593 -0.3931  0.3531  0.3238
   73bbb     N1 1822   9.969   6.025   2.600 -0.4845  0.4678  0.0327
   73bbb     C3 1823   9.912   6.120   2.504  0.1955  0.0410  0.1494
   73bbb     H5 1824   9.839   6.068   2.441  0.5482 -0.0930 -0.1516
   73bbb     H6 1825   9.991   6.162   2.441 -0.5117  0.7697 -0.2691
   73bbb     C4 1826  10.053   5.921   2.528  0.1601  0.1445  0.3419
   73bbb     H7 1827   9.987   5.856   2.469  0.4144  1.9478 -2.0981
   73bbb     H8 1828  10.109   5.976   2.452  1.0842  1.0478  1.6275
   73bbb     C5 1829  10.138   5.833   2.620 -0.5300 -0.3292  0.0658
   73bbb     H9 1830  10.202   5.901   2.678 -0.6299 -0.4922  0.3656
   73bbb    H10 1831  10.077   5.784   2.696  0.0141 -1.5645 -0.2798
   73bbb     C6 1832   9.841   6.235   2.579 -0.7211  0.8854 -0.1257
   73bbb    H11 1833   9.750   6.201   2.630 -0.5234 -0.3541 -0.5628
   73bbb    H12 1834   9.908   6.268   2.659 -1.8175 -0.6197  1.4832
   73bbb     C7 1835  10.215   5.729   2.548  0.3528 -0.1547  0.3260
   73bbb     C8 1836   9.807   6.340   2.483  0.3373 -1.0136 -0.2338
   73bbb     O1 1837  10.333   5.722   2.549  0.0475 -0.1854  0.0986
   73bbb     O2 1838   9.735   6.317   2.389  0.3912  0.6280  0.4379
   73bbb     N4 1839   9.636   5.907   2.752  0.7308 -0.7125 -0.0476
   73bbb    H21 1840   9.585   5.985   2.790  1.8761 -1.2030  2.7227
   74bbb     C1 1841   8.652   3.485   4.254  0.0687  0.7224  0.0093
   74bbb     H1 1842   8.695   3.490   4.153 -1.2294  1.0641 -0.5564
   74bbb     H2 1843   8.624   3.588   4.280 -0.7997 -0.0587  2.4450
   74bbb     C2 1844   8.778   3.438   4.327  0.0991  0.1921 -0.3355
   74bbb     H3 1845   8.759   3.436   4.435  1.4576 -3.3025 -0.0507
   74bbb     H4 1846   8.786   3.334   4.295 -2.3385 -0.2311  0.2171
   74bbb     N1 1847   8.540   3.390   4.268 -0.1329 -0.0151  0.1164
   74bbb     C3 1848   8.441   3.390   4.154 -0.7083  0.3093 -0.6244
   74bbb     H5 1849   8.395   3.488   4.132 -1.2298  0.2057  0.0045
   74bbb     H6 1850   8.357   3.322   4.167  0.0905 -0.5026  0.4100
   74bbb     C4 1851   8.488   3.405   4.403 -0.0902 -0.3296  0.6614
   74bbb     H7 1852   8.564   3.426   4.479  0.3779  1.2440 -0.1961
   74bbb     H8 1853   8.423   3.493   4.396 -1.7464 -1.4522  1.3994
   74bbb     C5 1854   8.409   3.274   4.434 -0.2894 -0.2210  0.6598
   74bbb     H9 1855   8.328   3.262   4.361 -0.4847 -0.0446  0.8474
   74bbb    H10 1856   8.475   3.188   4.415  0.5514  0.6323 -0.5379
   74bbb     C6 1857   8.526   3.344   4.034  0.2012  0.0588 -0.5204
   74bbb    H11 1858   8.593   3.422   3.995 -2.2638  1.0536 -3.1874
   74bbb    H12 1859   8.588   3.260   4.066  0.2603  0.4455  0.4081
   74bbb     C7 1860   8.354   3.284   4.575  0.8183 -0.1336  0.7710
   74bbb     C8 1861   8.436   3.287   3.931  0.1916  0.0777 -0.7358
   74bbb     O1 1862   8.236   3.296   4.601  0.1460 -0.1348  0.4414
   74bbb     O2 1863   8.401   3.174   3.925 -0.1151 -0.7534  0.4062
   74bbb     N4 1864   8.897   3.527   4.300 -0.0744  0.6936 -0.3439
   74bbb    H21 1865   8.875   3.595   4.228  1.1141  0.1679 -1.2441
   75bbb     C1 1866   9.264   4.141   4.712  0.6722  0.4375  0.2672
   75bbb     H1 1867   9.238   4.239   4.670 -0.3813 -0.9719 -2.7190
   75bbb     H2 1868   9.302   4.153   4.814 -0.4072 -1.4949  0.9434
   75bbb     C2 1869   9.371   4.093   4.610  0.8758  0.2580 -0.6798
   75bbb     H3 1870   9.455   4.163   4.599  0.4475  1.0507  0.7734
   75bbb     H4 1871   9.411   4.002   4.656 -1.9204 -0.0506  1.3852
   75bbb     N1 1872   9.152   4.047   4.706  0.3583 -0.2421 -0.3253
   75bbb     C3 1873   9.176   3.942   4.798  0.2419  0.4577  0.0560
   75bbb     H5 1874   9.155   3.974   4.901  1.3622 -1.2714  0.8756
   75bbb     H6 1875   9.273   3.890   4.797  0.0841 -0.0044 -3.0593
   75bbb     C4 1876   9.028   4.114   4.728  0.3048  0.3239  0.2691
   75bbb     H7 1877   8.963   4.043   4.780 -1.2955  0.5001 -1.3870
   75bbb     H8 1878   9.039   4.208   4.783  1.9058  1.6958 -2.1956
   75bbb     C5 1879   8.952   4.155   4.597  0.3914  0.3486  0.5187
   75bbb     H9 1880   9.009   4.235   4.547 -1.2326  0.5429 -1.1373
   75bbb    H10 1881   8.946   4.069   4.529  2.1596 -1.3344  2.3878
   75bbb     C6 1882   9.078   3.829   4.752  0.6449  0.8305  0.1958
   75bbb    H11 1883   8.970   3.843   4.757  0.5216 -0.1680  0.4608
   75bbb    H12 1884   9.101   3.799   4.649  1.2293  1.6787  0.0684
   75bbb     C7 1885   8.822   4.215   4.631  0.1134  0.3560  0.1862
   75bbb     C8 1886   9.102   3.712   4.848 -0.2718 -0.1098  0.5864
   75bbb     O1 1887   8.757   4.170   4.723 -0.3264 -0.0315  0.2549
   75bbb     O2 1888   9.182   3.624   4.817 -0.2856 -0.0044  0.0061
   75bbb     N4 1889   9.316   4.055   4.467 -0.2158 -0.3947  0.0692
   75bbb    H21 1890   9.216   4.043   4.470 -0.6005  2.1342 -0.2745
   76bbb     C1 1891   8.485   3.855   2.224  0.8380  0.1834 -0.1008
   76bbb     H1 1892   8.500   3.748   2.243 -0.8518 -0.2734 -1.1409
   76bbb     H2 1893   8.589   3.889   2.221  1.5511 -1.7577 -3.6232
   76bbb     C2 1894   8.406   3.920   2.331  0.3848 -0.5368 -0.3465
   76bbb     H3 1895   8.398   4.028   2.315 -0.4634 -0.7296 -1.3145
   76bbb     H4 1896   8.302   3.887   2.323 -1.2675  4.1690 -1.7422
   76bbb     N1 1897   8.429   3.877   2.089  0.0345  0.2130  0.4495
   76bbb     C3 1898   8.506   3.788   1.993  0.2166 -0.5521 -0.3046
   76bbb     H5 1899   8.611   3.774   2.021 -0.4680  1.0762  3.6807
   76bbb     H6 1900   8.502   3.819   1.888 -1.1023 -1.7159 -0.6224
   76bbb     C4 1901   8.429   4.012   2.035 -0.3719 -0.1790 -0.6586
   76bbb     H7 1902   8.438   4.086   2.115 -1.1222 -0.5955 -0.1796
   76bbb     H8 1903   8.516   4.026   1.969 -0.9372 -0.4891 -1.4751
   76bbb     C5 1904   8.295   4.027   1.966  0.0496 -0.6890  0.4213
   76bbb     H9 1905   8.302   3.965   1.876  1.2377  1.3539 -0.9565
   76bbb    H10 1906   8.205   3.992   2.019  0.8411 -2.1807  0.8612
   76bbb     C6 1907   8.429   3.658   2.005 -0.0677  0.2097 -0.0544
   76bbb    H11 1908   8.432   3.622   2.109  2.0880  0.8276  0.1611
   76bbb    H12 1909   8.324   3.667   1.977  0.4801  2.4262 -1.6671
   76bbb     C7 1910   8.284   4.162   1.910  0.3033 -0.2452  0.2901
   76bbb     C8 1911   8.494   3.561   1.916  0.0989  0.4624  0.5491
   76bbb     O1 1912   8.247   4.255   1.977 -0.3159  0.3170  0.3092
   76bbb     O2 1913   8.533   3.584   1.805 -0.0110  0.1149 -0.2177
   76bbb     N4 1914   8.456   3.905   2.472 -0.1346 -0.2596  0.2026
   76bbb    H21 1915   8.531   3.840   2.492  0.1648 -0.1965 -0.6845
   77bbb     C1 1916   8.232   3.155   2.522  0.4794  0.7994  0.4334
   77bbb     H1 1917   8.212   3.223   2.438 -1.0549 -0.8433 -0.5729
   77bbb     H2 1918   8.209   3.058   2.477  2.2445 -0.0185  1.1908
   77bbb     C2 1919   8.123   3.182   2.632 -0.5625 -0.2205  0.1064
   77bbb     H3 1920   8.028   3.171   2.579 -1.0350 -1.6472  1.1576
   77bbb     H4 1921   8.120   3.104   2.710  3.0088 -1.4837 -0.8187
   77bbb     N1 1922   8.369   3.165   2.575  0.3245  0.2141 -0.3773
   77bbb     C3 1923   8.472   3.181   2.465 -0.0459  0.3482 -0.4716
   77bbb     H5 1924   8.444   3.125   2.375 -0.9773  1.5344 -0.9604
   77bbb     H6 1925   8.573   3.142   2.480  0.6733  0.8142 -3.3416
   77bbb     C4 1926   8.397   3.046   2.662 -0.7687 -0.0008 -0.8060
   77bbb     H7 1927   8.305   3.016   2.715 -0.6576  1.3162  0.1969
   77bbb     H8 1928   8.439   2.961   2.608 -0.0162 -0.3428  0.2811
   77bbb     C5 1929   8.505   3.094   2.759 -0.1711  0.0307  0.7543
   77bbb     H9 1930   8.606   3.096   2.715  0.1536 -0.5587  1.4452
   77bbb    H10 1931   8.473   3.192   2.796  1.2457  0.2963  1.3237
   77bbb     C6 1932   8.481   3.330   2.422  0.0448  0.2118  0.0338
   77bbb    H11 1933   8.385   3.365   2.383 -0.0231  1.2632  1.0607
   77bbb    H12 1934   8.525   3.389   2.504  2.1112 -0.6303 -0.4102
   77bbb     C7 1935   8.505   3.006   2.881 -0.4071 -0.0096 -0.6033
   77bbb     C8 1936   8.579   3.337   2.308  0.1811 -0.7405 -0.3929
   77bbb     O1 1937   8.459   2.894   2.884 -0.1878 -0.2616  0.0222
   77bbb     O2 1938   8.605   3.247   2.225 -0.0959  0.7570  0.3238
   77bbb     N4 1939   8.139   3.312   2.694  0.5653  0.1670 -0.7307
   77bbb    H21 1940   8.140   3.393   2.633 -1.5881 -1.0852 -2.6142
   78bbb     C1 1941  12.086   5.892   2.022 -0.4840  0.4357 -0.3018
   78bbb     H1 1942  12.121   5.939   1.929  0.6273  1.0112  0.3827
   78bbb     H2 1943  11.993   5.844   1.988  0.3856 -1.8349  0.3738
   78bbb     C2 1944  12.070   6.019   2.113 -0.2542  0.1006 -0.4835
   78bbb     H3 1945  12.162   6.078   2.099 -0.5441  0.5627 -0.4714
   78bbb     H4 1946  11.983   6.072   2.074 -0.5721 -0.6320 -0.7829
   78bbb     N1 1947  12.177   5.786   2.065 -0.7518  0.1400 -0.1960
   78bbb     C3 1948  12.315   5.837   2.096 -0.2764  0.1769 -0.4461
   78bbb     H5 1949  12.314   5.943   2.123 -2.4095 -0.1977  1.1970
   78bbb     H6 1950  12.390   5.826   2.016  1.2933  0.4978  0.9316
   78bbb     C4 1951  12.179   5.671   1.973 -0.0621 -0.2894 -0.0512
   78bbb     H7 1952  12.178   5.693   1.866 -2.6751  0.7958  0.1312
   78bbb     H8 1953  12.262   5.607   2.006  0.9637  1.4010  0.8010
   78bbb     C5 1954  12.060   5.580   2.013 -0.0063  0.2793  0.0584
   78bbb     H9 1955  12.034   5.576   2.119 -1.6697  0.3597 -0.3156
   78bbb    H10 1956  11.968   5.625   1.973 -0.4647 -0.7419 -0.0758
   78bbb     C6 1957  12.360   5.756   2.220  0.4707  0.0509 -0.3005
   78bbb    H11 1958  12.294   5.764   2.307  1.3240  0.2647  0.3381
   78bbb    H12 1959  12.380   5.654   2.186  0.5943  0.7033 -2.3168
   78bbb     C7 1960  12.082   5.449   1.944  0.5771  0.7642 -0.2144
   78bbb     C8 1961  12.489   5.815   2.273  0.2975  0.1165  0.3990
   78bbb     O1 1962  12.066   5.422   1.827 -1.0069  0.6831 -0.2568
   78bbb     O2 1963  12.535   5.924   2.239 -0.2017  0.4892  0.3673
   78bbb     N4 1964  12.054   5.999   2.260 -0.0391  0.2617 -0.2708
   78bbb    H21 1965  12.136   5.976   2.314  0.0277  1.9141  0.3975
   79bbb     C1 1966  12.183   5.365   2.790 -0.8938  0.3932 -0.4930
   79bbb     H1 1967  12.247   5.415   2.863 -1.4681 -1.4567  1.3734
   79bbb     H2 1968  12.170   5.440   2.711  2.0569  0.1584 -1.3252
   79bbb     C2 1969  12.055   5.336   2.868 -0.2218  0.2556  0.6920
   79bbb     H3 1970  12.014   5.256   2.805  2.0733  0.4949 -1.2617
   79bbb     H4 1971  12.084   5.305   2.969  0.0286  2.8227  1.4692
   79bbb     N1 1972  12.240   5.233   2.741 -0.2071 -0.7470  0.7475
   79bbb     C3 1973  12.286   5.236   2.599 -0.5334  0.1909  0.1100
   79bbb     H5 1974  12.384   5.284   2.596 -0.1353 -0.4999  1.4502
   79bbb     H6 1975  12.227   5.302   2.534 -2.0243 -0.6881  0.5251
   79bbb     C4 1976  12.309   5.156   2.840  0.4101  0.1723 -0.6062
   79bbb     H7 1977  12.264   5.175   2.939  0.3663  0.8561 -0.7479
   79bbb     H8 1978  12.315   5.048   2.827 -0.8223  0.0309 -0.1167
   79bbb     C5 1979  12.453   5.207   2.862  0.5133 -0.9990  1.5963
   79bbb     H9 1980  12.518   5.174   2.780  1.1393 -0.1570  1.7407
   79bbb    H10 1981  12.456   5.315   2.846  1.2777 -1.5186 -2.8870
   79bbb     C6 1982  12.292   5.100   2.539  0.3609  0.5573 -0.0890
   79bbb    H11 1983  12.340   5.040   2.618 -0.4661 -2.0147 -1.4228
   79bbb    H12 1984  12.190   5.061   2.531 -0.2472  1.7702  1.3820
   79bbb     C7 1985  12.510   5.161   2.987  0.3558  0.0881 -0.2538
   79bbb     C8 1986  12.357   5.097   2.410 -0.4694 -0.3886  0.4840
   79bbb     O1 1987  12.542   5.045   2.996  0.0620  0.4009  0.0997
   79bbb     O2 1988  12.411   5.191   2.354 -0.7181  0.0714  0.3081
   79bbb     N4 1989  11.967   5.459   2.881  0.4962  0.7820 -0.2352
   79bbb    H21 1990  11.988   5.521   2.958 -0.1995  1.4967 -0.6005
   80bbb     C1 1991  11.110   5.554   2.245 -0.2040 -0.6147  0.1519
   80bbb     H1 1992  11.105   5.602   2.344  0.7822  1.5298 -0.7591
   80bbb     H2 1993  11.099   5.447   2.266  2.2193 -1.0789 -0.6681
   80bbb     C2 1994  11.253   5.586   2.197  0.1095 -0.7137 -0.2772
   80bbb     H3 1995  11.240   5.668   2.125 -2.2137  0.8578  1.7342
   80bbb     H4 1996  11.298   5.633   2.286 -0.8460 -0.3589  0.0280
   80bbb     N1 1997  11.007   5.606   2.152 -0.3293 -0.4559  0.8351
   80bbb     C3 1998  10.877   5.625   2.219  0.2931 -0.7569 -0.5645
   80bbb     H5 1999  10.881   5.558   2.305  1.3376 -1.4887 -1.1592
   80bbb     H6 2000  10.800   5.597   2.147  1.0016 -1.3538 -1.1119
   80bbb     C4 2001  11.002   5.523   2.030  0.8087  0.3435 -0.1087
   80bbb     H7 2002  11.098   5.479   2.003  0.5053 -1.7219  1.8883
   80bbb     H8 2003  10.923   5.450   2.050 -2.6077  3.5464 -0.7355
   80bbb     C5 2004  10.948   5.606   1.918  0.5988 -0.1485  0.3350
   80bbb     H9 2005  10.848   5.649   1.932  1.2774  2.2541 -1.4584
   80bbb    H10 2006  11.007   5.695   1.895 -3.7132  2.8203 -0.5331
   80bbb     C6 2007  10.863   5.770   2.270  0.0798 -0.7767  0.4685
   80bbb    H11 2008  10.918   5.786   2.363 -1.6566  1.4757  1.1880
   80bbb    H12 2009  10.903   5.840   2.196  2.4416 -0.4349  1.9771
   80bbb     C7 2010  10.939   5.518   1.798  0.0519 -0.1156  0.3071
   80bbb     C8 2011  10.721   5.781   2.306  0.7670 -0.0684 -1.1072
   80bbb     O1 2012  11.016   5.527   1.701  0.0164 -0.0337 -0.2072
   80bbb     O2 2013  10.674   5.727   2.404  0.1693  0.5938 -0.1910
   80bbb     N4 2014  11.334   5.471   2.166  0.1711  0.1340  0.4541
   80bbb    H21 2015  11.338   5.392   2.229  0.1005 -1.3554 -1.3165
   81bbb     C1 2016  11.843   4.873   1.466 -0.0062 -0.2399  0.0326
   81bbb     H1 2017  11.905   4.837   1.383 -0.4688 -0.9889  0.0024
   81bbb     H2 2018  11.813   4.789   1.531  0.7090  0.1635  0.9085
   81bbb     C2 2019  11.712   4.934   1.419 -0.1510 -0.8125 -0.3823
   81bbb     H3 2020  11.726   4.990   1.326 -2.1763 -0.2832 -0.4202
   81bbb     H4 2021  11.650   4.851   1.385  1.9804 -3.1456  1.0776
   81bbb     N1 2022  11.927   4.967   1.545 -0.0219  0.0815 -0.7280
   81bbb     C3 2023  11.961   5.085   1.468 -0.0372 -0.4451 -0.0030
   81bbb     H5 2024  11.875   5.134   1.421  0.1916  0.7752  0.8206
   81bbb     H6 2025  12.023   5.053   1.383  1.5920  1.0304  0.5650
   81bbb     C4 2026  12.047   4.898   1.595 -0.2196  0.1673  0.1932
   81bbb     H7 2027  12.040   4.792   1.567 -1.3344  1.0583 -3.4861
   81bbb     H8 2028  12.136   4.930   1.538 -0.2488 -0.2890 -0.1152
   81bbb     C5 2029  12.063   4.922   1.747  0.3275 -0.4394  0.1157
   81bbb     H9 2030  12.087   5.026   1.772 -1.6867  0.1514 -0.2304
   81bbb    H10 2031  11.965   4.905   1.795  0.1812 -0.2226 -0.1041
   81bbb     C6 2032  12.031   5.187   1.552  0.6037  0.9237  0.0527
   81bbb    H11 2033  11.970   5.206   1.641 -0.8527  0.6595 -0.8603
   81bbb    H12 2034  12.128   5.146   1.584  0.9709 -0.3936 -2.5051
   81bbb     C7 2035  12.173   4.842   1.802  0.0105 -0.2014 -0.0076
   81bbb     C8 2036  12.053   5.313   1.475  0.2308  0.1095 -0.6923
   81bbb     O1 2037  12.271   4.888   1.857 -0.4624 -0.1698 -0.4505
   81bbb     O2 2038  12.063   5.317   1.354 -0.1038  0.0575 -0.8986
   81bbb     N4 2039  11.639   5.032   1.511  0.1330  0.9446 -0.4083
   81bbb    H21 2040  11.632   5.131   1.490  0.0246  0.8933 -0.6158
   82bbb     C1 2041  11.029   4.745   4.597  0.6671 -0.3800 -0.1034
   82bbb     H1 2042  11.128   4.772   4.637  0.6540  0.1111 -0.3925
   82bbb     H2 2043  11.055   4.664   4.527  0.6748 -0.0798 -0.4496
   82bbb     C2 2044  10.967   4.862   4.517 -0.4910  0.1955 -0.3920
   82bbb     H3 2045  10.874   4.832   4.467  0.1222  2.0722 -2.8664
   82bbb     H4 2046  10.954   4.949   4.582  2.1534  1.4981 -1.4220
   82bbb     N1 2047  10.943   4.700   4.703  0.5217 -0.2884  0.3279
   82bbb     C3 2048  11.013   4.688   4.830 -0.2961  0.1057 -0.6278
   82bbb     H5 2049  11.115   4.649   4.819 -0.5678 -0.6157 -0.6676
   82bbb     H6 2050  10.955   4.619   4.893  0.3362 -0.0985 -0.2519
   82bbb     C4 2051  10.883   4.561   4.668 -0.1772 -0.2094 -0.4913
   82bbb     H7 2052  10.955   4.480   4.656 -2.1809 -2.1472  0.0070
   82bbb     H8 2053  10.814   4.541   4.751  0.7646  0.9359  0.5942
   82bbb     C5 2054  10.801   4.557   4.543 -0.0778 -0.1315 -0.5133
   82bbb     H9 2055  10.727   4.637   4.555 -0.2765 -0.5173  1.0619
   82bbb    H10 2056  10.863   4.586   4.458 -1.2666  0.4986 -1.2025
   82bbb     C6 2057  11.020   4.828   4.902  0.6286 -0.1594 -0.0251
   82bbb    H11 2058  11.107   4.887   4.871 -0.3485  1.9080  1.0000
   82bbb    H12 2059  10.932   4.885   4.873  0.3496  1.3755  3.3676
   82bbb     C7 2060  10.738   4.422   4.515  0.1866  0.5896  0.1604
   82bbb     C8 2061  11.013   4.808   5.049  0.0780 -0.8716 -0.7753
   82bbb     O1 2062  10.723   4.337   4.602  0.2827  0.1466  0.3967
   82bbb     O2 2063  10.917   4.820   5.112 -0.0432  0.5994  0.6830
   82bbb     N4 2064  11.054   4.894   4.399  0.3671  1.3110 -0.8923
   82bbb    H21 2065  11.145   4.934   4.415  1.5242 -1.7009  1.0865
   83bbb     C1 2066  11.550   4.371   3.488  0.3375  0.6722  0.2276
   83bbb     H1 2067  11.579   4.281   3.433  0.1404  1.0516 -0.5268
   83bbb     H2 2068  11.632   4.441   3.468  0.3252  1.2690  2.0839
   83bbb     C2 2069  11.563   4.347   3.641 -0.2854  0.0443  0.5192
   83bbb     H3 2070  11.517   4.256   3.682  0.5687  0.3558  2.2584
   83bbb     H4 2071  11.667   4.346   3.675  0.1548 -1.9515 -0.7233
   83bbb     N1 2072  11.412   4.423   3.452  0.2530  0.0630  0.1037
   83bbb     C3 2073  11.297   4.337   3.477 -0.1029  0.5457 -0.1760
   83bbb     H5 2074  11.203   4.378   3.438  1.1058  2.9586 -0.7630
   83bbb     H6 2075  11.273   4.332   3.584 -0.8408  0.7410 -0.3241
   83bbb     C4 2076  11.407   4.476   3.318  0.4558  0.2873 -0.0977
   83bbb     H7 2077  11.445   4.402   3.247  2.6219 -0.3304  1.5792
   83bbb     H8 2078  11.306   4.508   3.292  0.7176  0.8372 -0.4616
   83bbb     C5 2079  11.500   4.592   3.318  1.0295 -0.3153  0.0019
   83bbb     H9 2080  11.479   4.662   3.400 -3.5178  1.2618 -2.1561
   83bbb    H10 2081  11.603   4.556   3.313  1.6070  0.7117  2.6551
   83bbb     C6 2082  11.319   4.194   3.431  0.3107 -0.0235 -0.1911
   83bbb    H11 2083  11.357   4.192   3.328  0.4806 -1.7114 -0.1221
   83bbb    H12 2084  11.392   4.140   3.493 -0.2895 -1.0634 -0.3640
   83bbb     C7 2085  11.469   4.687   3.204  0.0693 -0.2278  0.5821
   83bbb     C8 2086  11.197   4.118   3.449  0.1370  0.2692  0.0698
   83bbb     O1 2087  11.365   4.755   3.197  0.6952  0.0624 -0.1806
   83bbb     O2 2088  11.162   4.085   3.559  0.2022 -0.3814 -0.2587
   83bbb     N4 2089  11.503   4.460   3.713  0.2114  0.0782  0.9684
   83bbb    H21 2090  11.467   4.526   3.644  0.4402 -1.5690 -0.8290
   84bbb     C1 2091  11.649   6.091   2.681  0.5874 -0.0090  0.6022
   84bbb     H1 2092  11.595   6.015   2.738  2.4451 -1.9388 -0.0709
   84bbb     H2 2093  11.669   6.038   2.587 -1.5779 -4.3705  2.2934
   84bbb     C2 2094  11.780   6.128   2.746 -0.1498  0.5502  0.0512
   84bbb     H3 2095  11.841   6.178   2.669  1.9292 -0.1797  1.1328
   84bbb     H4 2096  11.756   6.202   2.823  0.9197  0.5324  0.4168
   84bbb     N1 2097  11.566   6.211   2.661 -0.2043 -0.2212  0.5182
   84bbb     C3 2098  11.452   6.217   2.755  0.6148  0.8658  0.4030
   84bbb     H5 2099  11.399   6.123   2.736  2.8499 -0.0865 -1.7391
   84bbb     H6 2100  11.383   6.295   2.722  0.7573 -0.1868 -2.8426
   84bbb     C4 2101  11.524   6.227   2.524  0.6963 -0.0198 -0.1920
   84bbb     H7 2102  11.494   6.128   2.489 -0.5487 -0.2835  1.5020
   84bbb     H8 2103  11.431   6.283   2.509  0.4356 -0.6913 -1.1320
   84bbb     C5 2104  11.633   6.284   2.443 -0.6618  0.1007 -0.1075
   84bbb     H9 2105  11.669   6.383   2.473 -0.8717  0.8347 -2.1769
   84bbb    H10 2106  11.718   6.214   2.435  1.8867  3.1423 -1.8959
   84bbb     C6 2107  11.486   6.227   2.902 -0.2803  0.0555 -0.4120
   84bbb    H11 2108  11.557   6.147   2.926  0.7014  0.6767 -1.1238
   84bbb    H12 2109  11.546   6.318   2.920 -0.7418 -0.0611  1.9459
   84bbb     C7 2110  11.579   6.294   2.302  0.0872 -0.4155 -0.0130
   84bbb     C8 2111  11.365   6.236   2.987  0.1645  0.5332 -0.2085
   84bbb     O1 2112  11.498   6.380   2.276 -0.0914  0.3736  0.0924
   84bbb     O2 2113  11.254   6.224   2.941  0.9524  0.4065 -0.2022
   84bbb     N4 2114  11.852   6.013   2.808  0.0562 -0.2443 -0.5272
   84bbb    H21 2115  11.862   5.928   2.754 -0.9492 -1.3838  1.0041
   85bbb     C1 2116  12.560   5.871   3.262  0.3701 -0.0527  0.5236
   85bbb     H1 2117  12.550   5.887   3.154 -2.5792  0.2451  0.7658
   85bbb     H2 2118  12.659   5.891   3.305  1.1777 -0.6640 -1.0027
   85bbb     C2 2119  12.542   5.713   3.267 -0.0778  0.3711  0.1011
   85bbb     H3 2120  12.602   5.677   3.183  0.3449  1.7833 -0.2248
   85bbb     H4 2121  12.584   5.673   3.361 -0.4871  0.9408  0.5350
   85bbb     N1 2122  12.465   5.938   3.346  0.2302  0.0855  0.0748
   85bbb     C3 2123  12.455   6.079   3.312  0.0609 -0.6822  0.5575
   85bbb     H5 2124  12.551   6.131   3.322  0.6906 -1.1781 -2.0255
   85bbb     H6 2125  12.381   6.133   3.371  0.5640  0.0662  0.5243
   85bbb     C4 2126  12.504   5.918   3.485 -0.4037 -0.1105  0.7278
   85bbb     H7 2127  12.535   5.814   3.502 -1.8041 -0.6694 -0.0280
   85bbb     H8 2128  12.583   5.990   3.513  0.1896 -1.0241  1.4619
   85bbb     C5 2129  12.381   5.931   3.584  0.7056 -0.0282  1.0382
   85bbb     H9 2130  12.344   6.033   3.567  1.3178  0.5070  2.6572
   85bbb    H10 2131  12.309   5.852   3.558  1.0519  0.1767 -0.6592
   85bbb     C6 2132  12.403   6.103   3.171 -0.1291 -0.0897  0.2159
   85bbb    H11 2133  12.488   6.090   3.103 -0.0416  0.1592  0.2737
   85bbb    H12 2134  12.319   6.036   3.150  0.4933 -0.8270  0.0579
   85bbb     C7 2135  12.428   5.928   3.726  0.2998 -0.1097  0.5686
   85bbb     C8 2136  12.357   6.250   3.165  0.5383  0.3239 -0.0145
   85bbb     O1 2137  12.540   5.936   3.766 -0.5882  0.1188 -0.2192
   85bbb     O2 2138  12.240   6.285   3.166 -0.5591  0.1939 -0.3459
   85bbb     N4 2139  12.407   5.662   3.254  0.3551 -0.4770 -0.2348
   85bbb    H21 2140  12.333   5.694   3.315  0.2942 -0.2705 -0.4138
   86bbb     C1 2141   9.008   4.753   3.408 -0.0960  0.0939 -0.4270
   86bbb     H1 2142   8.952   4.815   3.480  1.3229 -0.8847  1.6223
   86bbb     H2 2143   9.107   4.724   3.446 -0.2957 -2.3905 -1.6087
   86bbb     C2 2144   9.025   4.830   3.275 -0.0155  0.1419  0.2756
   86bbb     H3 2145   9.092   4.787   3.199  1.4298  0.6905  1.1947
   86bbb     H4 2146   8.928   4.828   3.224  1.4054 -0.8311 -2.5871
   86bbb     N1 2147   8.937   4.621   3.388 -0.1848 -0.0665 -0.6507
   86bbb     C3 2148   8.967   4.531   3.499  0.0853 -0.0314  0.0729
   86bbb     H5 2149   8.891   4.453   3.488 -1.5546  1.3462  1.2085
   86bbb     H6 2150   8.944   4.576   3.597 -0.6653 -0.1435 -0.0476
   86bbb     C4 2151   8.795   4.640   3.369 -0.5270  0.1094  0.2267
   86bbb     H7 2152   8.737   4.675   3.456 -0.1216  3.6497 -0.7676
   86bbb     H8 2153   8.791   4.729   3.305  2.2263  0.2147  0.0802
   86bbb     C5 2154   8.735   4.530   3.289 -0.0322  0.5962  1.3658
   86bbb     H9 2155   8.805   4.485   3.217  0.2690 -0.9857  2.5869
   86bbb    H10 2156   8.709   4.446   3.355 -0.2675  0.8725  1.6222
   86bbb     C6 2157   9.106   4.453   3.502 -0.1069  0.4602  0.4104
   86bbb    H11 2158   9.141   4.426   3.401  0.9263 -0.0885  0.8941
   86bbb    H12 2159   9.177   4.529   3.537  0.9635  0.0745 -0.8194
   86bbb     C7 2160   8.614   4.585   3.218  0.1430  0.3505 -0.3435
   86bbb     C8 2161   9.101   4.327   3.590 -0.2740 -1.4476 -0.3835
   86bbb     O1 2162   8.610   4.689   3.153 -0.1950  0.7481 -0.4974
   86bbb     O2 2163   9.021   4.319   3.681  0.5425 -0.0625 -0.1162
   86bbb     N4 2164   9.059   4.975   3.295  0.1271 -0.0229 -0.0715
   86bbb    H21 2165   9.083   5.006   3.389 -1.5633  0.2143  0.3055
   87bbb     C1 2166   9.672   5.687   3.238 -0.9957 -0.3055 -0.1049
   87bbb     H1 2167   9.641   5.773   3.298 -0.4585  1.0518 -1.6711
   87bbb     H2 2168   9.585   5.665   3.175 -1.6856  0.0570  0.7038
   87bbb     C2 2169   9.703   5.562   3.319 -0.0577 -0.3708 -0.1777
   87bbb     H3 2170   9.723   5.468   3.265 -0.6830 -0.1623 -0.7794
   87bbb     H4 2171   9.793   5.581   3.378 -0.1020 -1.7657  0.3637
   87bbb     N1 2172   9.790   5.731   3.164  0.3065  0.1909  0.2848
   87bbb     C3 2173   9.759   5.861   3.110 -0.6919  0.1711 -0.3364
   87bbb     H5 2174   9.709   5.922   3.186  0.5825  1.0968 -0.1999
   87bbb     H6 2175   9.684   5.852   3.031 -1.0547 -2.1033  0.2216
   87bbb     C4 2176   9.832   5.640   3.057 -0.5212 -0.0261  0.1418
   87bbb     H7 2177   9.763   5.556   3.042 -0.8606  0.5132 -1.5678
   87bbb     H8 2178   9.831   5.688   2.959 -0.1453 -0.2433  0.0293
   87bbb     C5 2179   9.967   5.595   3.099  0.8262 -0.1778 -0.3498
   87bbb     H9 2180  10.011   5.675   3.159 -0.0093  0.5350 -0.6609
   87bbb    H10 2181   9.944   5.509   3.164 -0.0628  0.0120 -0.4086
   87bbb     C6 2182   9.890   5.925   3.079 -0.4538  0.6728 -0.3959
   87bbb    H11 2183   9.958   5.931   3.165  0.5996  1.5988 -1.2684
   87bbb    H12 2184   9.940   5.871   2.998  0.4372  1.3504 -0.3197
   87bbb     C7 2185  10.042   5.533   2.985  0.1565  0.0371  0.0548
   87bbb     C8 2186   9.876   6.068   3.034 -0.6657  0.1673  0.0736
   87bbb     O1 2187   9.991   5.478   2.892  0.3593 -0.2091  0.4020
   87bbb     O2 2188   9.767   6.125   3.022 -0.2879 -0.0483  0.0797
   87bbb     N4 2189   9.585   5.523   3.405 -0.2037 -0.4221  0.1169
   87bbb    H21 2190   9.496   5.530   3.358  0.6309  1.3759 -1.3363
   88bbb     C1 2191  10.354   5.712   1.813  0.7518 -0.7482 -0.1188
   88bbb     H1 2192  10.320   5.812   1.843  0.9531 -1.5182  3.0855
   88bbb     H2 2193  10.285   5.688   1.731  1.5096  1.4220 -1.4656
   88bbb     C2 2194  10.331   5.615   1.929  0.6791  0.1961  0.6596
   88bbb     H3 2195  10.349   5.512   1.896  1.1408  0.1628  1.0079
   88bbb     H4 2196  10.414   5.633   1.999  1.2627 -2.5899  0.8010
   88bbb     N1 2197  10.484   5.703   1.752 -0.3860  0.1670 -0.0847
   88bbb     C3 2198  10.520   5.581   1.688 -0.1615  0.2893 -0.8195
   88bbb     H5 2199  10.477   5.496   1.743 -1.4499  1.9346  0.8271
   88bbb     H6 2200  10.630   5.576   1.687 -0.0757  1.6743 -2.4638
   88bbb     C4 2201  10.592   5.761   1.831 -0.8468 -0.0948  0.3621
   88bbb     H7 2202  10.597   5.706   1.926  1.9358  0.5440  0.6792
   88bbb     H8 2203  10.692   5.758   1.785 -0.2383  1.1037  1.5398
   88bbb     C5 2204  10.568   5.909   1.839  0.3156  0.1582  0.3521
   88bbb     H9 2205  10.539   5.943   1.739  1.4702 -0.9922 -0.4064
   88bbb    H10 2206  10.492   5.937   1.913 -0.7844  1.3930 -1.1704
   88bbb     C6 2207  10.479   5.602   1.545  0.2423 -0.1873 -0.8019
   88bbb    H11 2208  10.379   5.645   1.533 -0.1256 -0.9011 -0.3809
   88bbb    H12 2209  10.557   5.660   1.495  0.8219 -1.2290 -1.1325
   88bbb     C7 2210  10.687   5.992   1.887  0.2389 -0.6500  0.5319
   88bbb     C8 2211  10.490   5.470   1.465 -0.6287 -0.3184  0.0858
   88bbb     O1 2212  10.754   5.964   1.979 -0.0775  0.4385 -0.6998
   88bbb     O2 2213  10.581   5.439   1.390 -0.4313 -0.0129  0.2208
   88bbb     N4 2214  10.198   5.625   1.989  0.1504 -0.3750  0.1079
   88bbb    H21 2215  10.119   5.576   1.948  1.0325 -1.1733 -0.6914
   89bbb     C1 2216   9.592   6.503   2.132  0.3442  0.5054 -0.2763
   89bbb     H1 2217   9.677   6.567   2.159 -0.7305  2.5183 -1.5081
   89bbb     H2 2218   9.549   6.460   2.224  0.9433 -2.6290 -1.3132
   89bbb     C2 2219   9.626   6.386   2.035 -0.2574  0.1641 -0.8401
   89bbb     H3 2220   9.538   6.333   1.996  1.0895 -2.5227 -0.4903
   89bbb     H4 2221   9.688   6.425   1.953 -1.0075  1.2914 -0.8860
   89bbb     N1 2222   9.492   6.593   2.071  0.1266  0.8296 -0.3747
   89bbb     C3 2223   9.523   6.635   1.935  0.2482  0.1313  0.2134
   89bbb     H5 2224   9.426   6.665   1.893  0.5007 -0.1475 -0.5689
   89bbb     H6 2225   9.556   6.551   1.874 -0.4793 -0.1297  0.1739
   89bbb     C4 2226   9.460   6.700   2.166  0.2412 -0.1466  0.6493
   89bbb     H7 2227   9.447   6.658   2.266 -2.5176  0.5295  0.6599
   89bbb     H8 2228   9.543   6.772   2.159  0.4327 -0.0503  3.2035
   89bbb     C5 2229   9.325   6.764   2.110  0.1651  0.3695  0.8855
   89bbb     H9 2230   9.334   6.824   2.019 -0.9029  1.4131  1.4314
   89bbb    H10 2231   9.256   6.680   2.091  1.6520 -0.6107 -0.4194
   89bbb     C6 2232   9.613   6.752   1.925  0.3936  0.0100  0.8047
   89bbb    H11 2233   9.559   6.838   1.965  1.0362  0.6505  0.3296
   89bbb    H12 2234   9.710   6.741   1.974  0.7943 -0.0499  0.0256
   89bbb     C7 2235   9.258   6.845   2.213 -0.1813 -0.4867 -0.0526
   89bbb     C8 2236   9.632   6.777   1.771  0.1371  0.1186 -0.2067
   89bbb     O1 2237   9.296   6.864   2.326 -0.0846 -0.8322 -0.3936
   89bbb     O2 2238   9.550   6.815   1.690 -0.1367 -0.2212 -0.0281
   89bbb     N4 2239   9.696   6.268   2.103 -0.7654 -0.0681  0.0980
   89bbb    H21 2240   9.743   6.264   2.192 -0.7800 -2.9238  0.0658
   90bbb     C1 2241  11.143   4.102   2.046  0.0102 -0.4286 -0.7241
   90bbb     H1 2242  11.127   3.999   2.079  0.5515 -0.5005 -0.6884
   90bbb     H2 2243  11.067   4.123   1.969 -1.1305  0.1479  0.5170
   90bbb     C2 2244  11.277   4.102   1.971 -0.2197 -0.3263  0.5966
   90bbb     H3 2245  11.352   4.044   2.027 -0.2483  1.1536  2.2740
   90bbb     H4 2246  11.253   4.043   1.882 -0.2081 -0.8302  0.9253
   90bbb     N1 2247  11.130   4.196   2.156  0.3254  0.0389  0.7184
   90bbb     C3 2248  11.223   4.183   2.271  0.3896  0.4879  0.4651
   90bbb     H5 2249  11.320   4.146   2.237  0.0136  1.3287 -1.6536
   90bbb     H6 2250  11.188   4.105   2.340  1.6167  0.4671  1.0924
   90bbb     C4 2251  10.993   4.195   2.212 -0.0845 -0.4102 -1.1755
   90bbb     H7 2252  10.963   4.101   2.259 -2.2028  1.2942  1.1693
   90bbb     H8 2253  10.993   4.272   2.290  0.6655 -1.7517  0.1938
   90bbb     C5 2254  10.876   4.221   2.115  0.0707  0.2664  0.2495
   90bbb     H9 2255  10.883   4.319   2.067  1.7367 -0.0735 -0.2585
   90bbb    H10 2256  10.879   4.153   2.030 -0.7848  0.0935  0.3455
   90bbb     C6 2257  11.253   4.321   2.328  0.7287 -0.1525  0.2639
   90bbb    H11 2258  11.297   4.392   2.257  1.7283 -0.7220  0.2897
   90bbb    H12 2259  11.168   4.370   2.376  1.1632 -0.0207  0.9161
   90bbb     C7 2260  10.741   4.201   2.177  0.1308 -0.3080 -0.3577
   90bbb     C8 2261  11.365   4.303   2.424  0.4132 -0.4412 -0.2587
   90bbb     O1 2262  10.694   4.283   2.256 -1.0043 -0.3035  0.3117
   90bbb     O2 2263  11.483   4.299   2.398 -0.0449  0.0652 -0.2878
   90bbb     N4 2264  11.330   4.239   1.947 -0.3217 -0.3716  0.0516
   90bbb    H21 2265  11.297   4.314   2.006 -1.2724 -1.9215  1.5787
   91bbb     C1 2266  10.979   4.770   2.549 -0.5300 -0.0654 -1.4784
   91bbb     H1 2267  10.935   4.863   2.511 -0.2908  0.3470 -0.7703
   91bbb     H2 2268  11.013   4.787   2.652  1.5721  0.7154 -2.2477
   91bbb     C2 2269  11.115   4.739   2.481  0.2094  0.5549  0.2177
   91bbb     H3 2270  11.161   4.839   2.484  1.5907  0.1177 -2.8531
   91bbb     H4 2271  11.177   4.675   2.545  0.2191 -0.5790 -0.9081
   91bbb     N1 2272  10.884   4.661   2.539 -0.3847 -0.8303  0.5304
   91bbb     C3 2273  10.942   4.530   2.563  0.2697 -0.3018  0.3646
   91bbb     H5 2274  10.991   4.528   2.661 -0.0187  2.2355  0.6310
   91bbb     H6 2275  11.018   4.513   2.485 -0.4705 -0.4607 -0.3301
   91bbb     C4 2276  10.752   4.688   2.607 -0.0638  0.7180 -0.2207
   91bbb     H7 2277  10.705   4.779   2.567 -1.1498  1.5611  2.6716
   91bbb     H8 2278  10.679   4.609   2.588 -0.5585  0.6148  1.8365
   91bbb     C5 2279  10.784   4.698   2.754  0.5877 -0.5349  0.1409
   91bbb     H9 2280  10.815   4.599   2.790  2.1340 -0.8366 -1.8513
   91bbb    H10 2281  10.866   4.767   2.776 -0.6964  1.7852 -1.8150
   91bbb     C6 2282  10.851   4.418   2.533  0.1622 -0.8906 -0.7360
   91bbb    H11 2283  10.765   4.424   2.601  0.4004  0.2375 -0.5253
   91bbb    H12 2284  10.818   4.432   2.429  0.9251  1.7972 -0.6703
   91bbb     C7 2285  10.670   4.733   2.842  0.3080 -0.4383 -0.0590
   91bbb     C8 2286  10.917   4.292   2.565 -0.0875 -0.6238 -0.0474
   91bbb     O1 2287  10.563   4.777   2.801  0.5643  0.4909 -0.7269
   91bbb     O2 2288  11.023   4.282   2.623  0.1129  0.3893 -0.1729
   91bbb     N4 2289  11.103   4.696   2.338 -0.0559  0.1129  0.8258
   91bbb    H21 2290  11.019   4.651   2.304 -0.1565  1.5909 -0.9970
   92bbb     C1 2291   9.704   5.162   1.355 -0.0879  0.0507  0.2647
   92bbb     H1 2292   9.782   5.173   1.432  2.1078 -1.7402 -1.5272
   92bbb     H2 2293   9.625   5.098   1.395 -1.5651  2.6487  1.7668
   92bbb     C2 2294   9.777   5.089   1.239 -0.0225 -0.4128 -0.3629
   92bbb     H3 2295   9.703   5.062   1.163 -0.1527  0.6615 -0.6350
   92bbb     H4 2296   9.850   5.154   1.189  0.3278 -1.5658 -1.4045
   92bbb     N1 2297   9.656   5.291   1.315 -0.4008  0.0918 -0.9745
   92bbb     C3 2298   9.749   5.394   1.281  0.2393 -0.0920 -0.2742
   92bbb     H5 2299   9.691   5.487   1.274 -0.9241 -0.6057  1.6960
   92bbb     H6 2300   9.782   5.364   1.180  1.8406 -0.8135  0.4323
   92bbb     C4 2301   9.545   5.290   1.219  0.2363  0.4247  0.3266
   92bbb     H7 2302   9.498   5.389   1.226 -0.4781  0.3394 -2.2400
   92bbb     H8 2303   9.581   5.272   1.117 -1.0410  0.6695 -0.1809
   92bbb     C5 2304   9.439   5.198   1.256  0.0330  0.8970 -0.2176
   92bbb     H9 2305   9.469   5.093   1.244  1.5689  1.2945 -0.0520
   92bbb    H10 2306   9.413   5.227   1.358  0.5856  0.7468 -0.0329
   92bbb     C6 2307   9.860   5.427   1.381 -0.0842 -0.1000 -0.0538
   92bbb    H11 2308   9.826   5.446   1.483  2.5284 -0.4951  0.9749
   92bbb    H12 2309   9.928   5.341   1.384  1.8811  1.3821 -0.4459
   92bbb     C7 2310   9.315   5.239   1.179  0.1793 -0.4509 -0.1441
   92bbb     C8 2311   9.924   5.548   1.322  0.1038 -0.3570  0.1192
   92bbb     O1 2312   9.304   5.342   1.119 -0.2542 -0.1726  0.1028
   92bbb     O2 2313   9.880   5.661   1.347 -0.0535  0.2614  0.0842
   92bbb     N4 2314   9.840   4.961   1.278 -0.1505  0.6175 -0.3391
   92bbb    H21 2315   9.799   4.874   1.244  0.0688  0.0221  0.8361
   93bbb     C1 2316  10.749   4.401   1.093 -0.1194 -0.3065 -0.0796
   93bbb     H1 2317  10.828   4.358   1.030 -0.4545 -2.0199  0.6325
   93bbb     H2 2318  10.688   4.315   1.123  1.1877 -0.9907  0.7095
   93bbb     C2 2319  10.655   4.496   1.025 -0.0422  0.3527 -0.4331
   93bbb     H3 2320  10.701   4.587   0.986  0.7736 -0.0400 -0.4230
   93bbb     H4 2321  10.608   4.441   0.942 -0.0991  1.9500 -1.5037
   93bbb     N1 2322  10.823   4.439   1.217 -0.1944  0.2854 -0.0676
   93bbb     C3 2323  10.912   4.552   1.191 -0.1201  0.4857  0.5416
   93bbb     H5 2324  10.936   4.566   1.085 -0.2676 -1.4332  0.2168
   93bbb     H6 2325  11.011   4.537   1.236  0.4087 -1.4641 -1.1035
   93bbb     C4 2326  10.895   4.326   1.276  0.7370  0.1263  0.2872
   93bbb     H7 2327  10.838   4.234   1.258 -2.0422  1.4966  1.4076
   93bbb     H8 2328  10.990   4.317   1.222  2.1712  0.1605  2.6599
   93bbb     C5 2329  10.921   4.345   1.426 -0.4207 -0.2115  0.2451
   93bbb     H9 2330  10.954   4.443   1.462  0.3231 -0.6268  0.7030
   93bbb    H10 2331  10.829   4.319   1.480  0.0796  0.7366  1.6172
   93bbb     C6 2332  10.856   4.675   1.254 -0.2999 -0.7833 -0.5019
   93bbb    H11 2333  10.753   4.695   1.221 -0.1885  1.7306  0.4562
   93bbb    H12 2334  10.847   4.666   1.363 -1.1176 -1.4907 -0.6118
   93bbb     C7 2335  11.026   4.236   1.455  0.4856 -0.1946  0.1011
   93bbb     C8 2336  10.943   4.795   1.220  0.0178  0.4741 -0.4669
   93bbb     O1 2337  11.009   4.120   1.442 -0.4639 -0.1859 -0.1233
   93bbb     O2 2338  10.908   4.885   1.148  0.4027 -0.1226  0.1150
   93bbb     N4 2339  10.551   4.555   1.115  0.2944  0.9932  0.1500
   93bbb    H21 2340  10.559   4.559   1.216 -0.5246  2.5722  0.1796
   94bbb     C1 2341   6.825   4.763   2.590 -0.9113 -0.5098  0.1669
   94bbb     H1 2342   6.717   4.745   2.594 -1.3473  1.8608  0.7516
   94bbb     H2 2343   6.873   4.738   2.685  4.3730  0.2520 -1.9418
   94bbb     C2 2344   6.850   4.911   2.578 -0.0297 -0.0006  0.4410
   94bbb     H3 2345   6.772   4.939   2.505 -0.5582  0.1738  1.0599
   94bbb     H4 2346   6.809   4.957   2.669  1.5713  0.9477  0.7235
   94bbb     N1 2347   6.882   4.687   2.474  0.7616 -0.2265  0.5142
   94bbb     C3 2348   6.821   4.727   2.338 -0.4892 -0.3383  0.1374
   94bbb     H5 2349   6.864   4.670   2.255  0.6949 -0.8016  1.0357
   94bbb     H6 2350   6.841   4.833   2.320  0.6832  0.0299  3.0386
   94bbb     C4 2351   6.875   4.542   2.489  0.3300  0.5467 -0.7678
   94bbb     H7 2352   6.784   4.517   2.545  1.5187 -1.0790  0.5173
   94bbb     H8 2353   6.866   4.484   2.397  0.3798  0.1271 -0.5106
   94bbb     C5 2354   6.986   4.491   2.582 -0.2147  0.5789 -0.0347
   94bbb     H9 2355   6.970   4.514   2.688  1.4122 -1.7777  0.8039
   94bbb    H10 2356   6.993   4.381   2.579  0.7595  0.6428 -0.3617
   94bbb     C6 2357   6.677   4.687   2.318 -0.2220  0.1613 -0.3351
   94bbb    H11 2358   6.670   4.580   2.293  0.8002 -0.1504  0.6475
   94bbb    H12 2359   6.614   4.712   2.404  3.6059  2.5828  2.0823
   94bbb     C7 2360   7.119   4.537   2.540  0.3255 -0.0739  0.5465
   94bbb     C8 2361   6.642   4.771   2.200  0.8416  0.0052 -0.1858
   94bbb     O1 2362   7.150   4.543   2.423 -0.1459  0.9497  0.7435
   94bbb     O2 2363   6.600   4.884   2.224  0.1358  0.6833  0.4481
   94bbb     N4 2364   6.986   4.966   2.540 -0.0773  0.0816 -0.1337
   94bbb    H21 2365   7.054   4.905   2.496 -0.3840  0.9691 -1.9386
   95bbb     C1 2366   7.472   5.584   1.866 -0.2786 -0.2730  0.2142
   95bbb     H1 2367   7.564   5.630   1.904 -0.9488  0.2684  1.2542
   95bbb     H2 2368   7.430   5.634   1.778  0.0653 -0.4763 -0.0659
   95bbb     C2 2369   7.365   5.604   1.981  0.0840  0.6465  0.0870
   95bbb     H3 2370   7.381   5.707   2.016 -0.7844  0.3932  1.2985
   95bbb     H4 2371   7.264   5.595   1.938 -0.7813  0.1078  2.0976
   95bbb     N1 2372   7.499   5.440   1.856  0.3487  0.1460  0.5438
   95bbb     C3 2373   7.622   5.425   1.772 -0.3390 -0.1940 -0.4343
   95bbb     H5 2374   7.625   5.503   1.695  0.3439  0.3571  0.1506
   95bbb     H6 2375   7.632   5.325   1.727 -2.3932  0.1061 -1.6841
   95bbb     C4 2376   7.388   5.365   1.790  0.2300  0.7146  0.4328
   95bbb     H7 2377   7.297   5.421   1.767 -0.6560 -0.5585  0.7908
   95bbb     H8 2378   7.425   5.320   1.697 -1.0357  1.4890 -0.4654
   95bbb     C5 2379   7.359   5.251   1.883  0.6763 -0.3762  0.4694
   95bbb     H9 2380   7.446   5.198   1.924  0.0906 -0.8665  1.0861
   95bbb    H10 2381   7.309   5.291   1.972 -0.1936  1.1068 -0.6387
   95bbb     C6 2382   7.745   5.438   1.864  0.4273 -0.7093  0.1086
   95bbb    H11 2383   7.743   5.527   1.928  1.7470  0.3045 -1.1810
   95bbb    H12 2384   7.765   5.349   1.925  2.9210  0.1166  0.6286
   95bbb     C7 2385   7.285   5.142   1.821 -0.2149 -0.5429 -0.0092
   95bbb     C8 2386   7.873   5.449   1.787 -0.0576  0.0941 -0.2347
   95bbb     O1 2387   7.174   5.114   1.860 -0.6428  0.1625  0.7079
   95bbb     O2 2388   7.888   5.419   1.671  0.5759 -0.3481 -1.1095
   95bbb     N4 2389   7.381   5.513   2.098  0.0580 -0.1520 -0.0550
   95bbb    H21 2390   7.441   5.432   2.091  0.3368  0.1602 -1.6582
   96bbb     C1 2391   7.640   4.925   3.864  0.3473 -0.0182  0.4250
   96bbb     H1 2392   7.734   4.924   3.808  0.1956 -2.6958  0.0620
   96bbb     H2 2393   7.552   4.921   3.798 -0.6490 -2.6250  1.7552
   96bbb     C2 2394   7.641   5.045   3.961 -0.0622 -0.3584  0.2074
   96bbb     H3 2395   7.540   5.070   3.996 -0.7962 -0.6334 -1.5517
   96bbb     H4 2396   7.704   5.004   4.040  1.8534 -0.8785 -1.4942
   96bbb     N1 2397   7.635   4.792   3.930 -0.5129  0.2282 -0.5998
   96bbb     C3 2398   7.681   4.682   3.846  0.3144 -0.2741  0.0729
   96bbb     H5 2399   7.628   4.684   3.750 -1.6634  0.3674  1.1055
   96bbb     H6 2400   7.664   4.587   3.899  0.4209 -0.3517 -0.0332
   96bbb     C4 2401   7.503   4.770   3.968 -0.1105 -0.4915  0.2661
   96bbb     H7 2402   7.463   4.860   4.017 -0.7168 -1.4031  1.5128
   96bbb     H8 2403   7.435   4.740   3.887  1.3840  0.2250 -1.3140
   96bbb     C5 2404   7.496   4.684   4.091  0.1455  0.2316 -0.0265
   96bbb     H9 2405   7.532   4.583   4.070  1.1350  0.2056  1.6468
   96bbb    H10 2406   7.554   4.723   4.175  0.3912 -1.3886  0.5809
   96bbb     C6 2407   7.831   4.691   3.821  0.6125 -0.1010  0.7240
   96bbb    H11 2408   7.835   4.767   3.742 -3.0797 -0.9105 -0.4270
   96bbb    H12 2409   7.877   4.732   3.912 -0.0329  0.1261  0.9548
   96bbb     C7 2410   7.352   4.664   4.133 -0.0119 -0.4010  0.3065
   96bbb     C8 2411   7.890   4.564   3.777 -0.2124  0.4682  0.1734
   96bbb     O1 2412   7.291   4.560   4.115  0.2276 -0.0506 -0.0721
   96bbb     O2 2413   7.849   4.501   3.686 -0.5342  0.6395  0.0572
   96bbb     N4 2414   7.697   5.167   3.898  0.4653 -0.7493 -0.6918
   96bbb    H21 2415   7.691   5.173   3.797 -2.4968 -1.2325 -0.6418
   97bbb     C1 2416   6.938   5.215   3.809  0.4317 -0.6294  0.3125
   97bbb     H1 2417   6.831   5.231   3.824  0.2164 -2.1190  0.4496
   97bbb     H2 2418   6.954   5.133   3.880 -0.1523  0.7358  2.1102
   97bbb     C2 2419   7.014   5.341   3.853  0.3781  0.2389 -0.0663
   97bbb     H3 2420   6.986   5.421   3.783  1.5873  0.0696 -0.7686
   97bbb     H4 2421   6.965   5.352   3.951  0.1108 -0.6129 -0.0913
   97bbb     N1 2422   6.962   5.183   3.670  0.0851  0.1767 -0.2514
   97bbb     C3 2423   6.891   5.284   3.587 -0.0536 -0.0459  0.2487
   97bbb     H5 2424   6.845   5.363   3.649 -0.4501 -0.5623  0.6217
   97bbb     H6 2425   6.804   5.243   3.534 -0.0821  2.8923 -2.2584
   97bbb     C4 2426   6.903   5.049   3.650 -0.1422 -0.6490 -1.3000
   97bbb     H7 2427   6.923   4.985   3.736 -1.0306  2.4608  1.4040
   97bbb     H8 2428   6.793   5.055   3.652 -0.1003  0.5517  1.3086
   97bbb     C5 2429   6.948   4.987   3.519  0.0857 -0.4719  0.1375
   97bbb     H9 2430   6.910   5.048   3.437  1.3104  0.6949  0.4005
   97bbb    H10 2431   7.057   4.990   3.515  0.0329  0.7914 -0.8582
   97bbb     C6 2432   6.978   5.344   3.481  0.1982 -0.6479 -0.5931
   97bbb    H11 2433   7.061   5.396   3.530 -0.9071 -1.4233  2.2944
   97bbb    H12 2434   7.019   5.265   3.417  0.8066 -1.2546  0.5327
   97bbb     C7 2435   6.905   4.844   3.508  0.2166  0.6175 -0.0393
   97bbb     C8 2436   6.895   5.432   3.399  0.6894  0.1486  0.3115
   97bbb     O1 2437   6.943   4.749   3.573 -0.1304 -0.4159  0.0697
   97bbb     O2 2438   6.883   5.549   3.409 -0.0424 -0.1250 -0.1549
   97bbb     N4 2439   7.162   5.322   3.873  0.2244  0.2300 -0.0747
   97bbb    H21 2440   7.217   5.257   3.818 -1.7682  1.2257 -3.5478
   98bbb     C1 2441   9.239   5.650   1.306  0.6966 -0.4758  0.4145
   98bbb     H1 2442   9.215   5.729   1.379  1.0845 -0.1422  0.1779
   98bbb     H2 2443   9.183   5.556   1.321  0.3470 -0.4716 -0.7964
   98bbb     C2 2444   9.388   5.612   1.323 -0.3311 -0.4451 -0.5555
   98bbb     H3 2445   9.407   5.545   1.238  0.5727 -2.2255  0.9905
   98bbb     H4 2446   9.449   5.701   1.303 -0.8139  0.5327  2.0175
   98bbb     N1 2447   9.189   5.691   1.178 -0.3738  0.0612 -0.0712
   98bbb     C3 2448   9.041   5.696   1.149 -0.4365 -1.1727 -0.7074
   98bbb     H5 2449   9.008   5.711   1.045  1.4324 -0.3891 -1.2312
   98bbb     H6 2450   8.994   5.775   1.209  1.6751 -1.5244  1.5526
   98bbb     C4 2451   9.253   5.817   1.136 -0.5531  0.9401  0.0487
   98bbb     H7 2452   9.206   5.908   1.177 -2.0249  1.3375 -2.3284
   98bbb     H8 2453   9.362   5.813   1.152 -0.5558 -0.9771 -0.2218
   98bbb     C5 2454   9.247   5.833   0.984 -0.3732 -0.0877  0.5751
   98bbb     H9 2455   9.305   5.755   0.933 -0.6965  0.0593 -0.0258
   98bbb    H10 2456   9.142   5.838   0.951 -0.6083  0.3101  1.3537
   98bbb     C6 2457   8.983   5.565   1.189  0.1388 -0.0890 -0.0815
   98bbb    H11 2458   9.049   5.490   1.143 -0.0355 -1.0110  1.1131
   98bbb    H12 2459   8.982   5.540   1.296 -1.3003  1.4792  0.3139
   98bbb     C7 2460   9.311   5.961   0.941  0.7700  0.3951  0.5164
   98bbb     C8 2461   8.845   5.547   1.130  0.1611  0.7223  0.6003
   98bbb     O1 2462   9.422   5.962   0.895 -0.0861  0.2275 -0.2851
   98bbb     O2 2463   8.835   5.535   1.013 -0.3197  0.7020 -0.5128
   98bbb     N4 2464   9.431   5.523   1.442  0.1827 -0.4380  0.0719
   98bbb    H21 2465   9.478   5.434   1.426  1.2230  0.3761 -1.6873
   99bbb     C1 2466  10.257   5.228   1.876 -0.0622 -0.3771  0.0422
   99bbb     H1 2467  10.338   5.293   1.913  0.1789 -0.9081  0.4483
   99bbb     H2 2468  10.230   5.258   1.774  0.4656 -0.0220  0.0014
   99bbb     C2 2469  10.142   5.249   1.972 -0.5831  0.5453  0.4050
   99bbb     H3 2470  10.151   5.160   2.036  0.6225 -0.4997 -1.1475
   99bbb     H4 2471  10.156   5.347   2.020 -0.0030  0.4816  0.3734
   99bbb     N1 2472  10.309   5.090   1.880  0.4350 -0.1864  0.0331
   99bbb     C3 2473  10.444   5.092   1.815 -0.9751  0.3456  0.1376
   99bbb     H5 2474  10.442   5.178   1.747  0.3533 -0.4865 -1.0151
   99bbb     H6 2475  10.460   5.010   1.744 -3.8987  0.8578 -1.2840
   99bbb     C4 2476  10.214   5.000   1.805 -0.7279  0.0326  0.5026
   99bbb     H7 2477  10.109   5.030   1.814 -0.1940  3.7871 -2.6904
   99bbb     H8 2478  10.240   5.012   1.699  0.0503  2.9773  0.9191
   99bbb     C5 2479  10.246   4.861   1.854  0.2493  0.2530  0.3672
   99bbb     H9 2480  10.354   4.841   1.843  0.6322  2.0848  0.5922
   99bbb    H10 2481  10.213   4.861   1.958 -1.3528  1.3917 -0.1038
   99bbb     C6 2482  10.544   5.104   1.926 -0.7856 -0.1847 -0.6516
   99bbb    H11 2483  10.615   5.184   1.905 -1.6669  0.7195 -0.2969
   99bbb    H12 2484  10.495   5.120   2.023 -0.5240 -0.3734 -0.4894
   99bbb     C7 2485  10.163   4.763   1.784 -0.5839  0.1305 -0.4961
   99bbb     C8 2486  10.633   4.990   1.945  0.8165 -0.0139 -0.2732
   99bbb     O1 2487  10.194   4.710   1.686 -0.6912 -0.1592  0.3417
   99bbb     O2 2488  10.620   4.883   1.887 -0.4241  0.3837 -0.1858
   99bbb     N4 2489  10.000   5.244   1.916 -0.1080 -0.0061  0.4245
   99bbb    H21 2490   9.949   5.157   1.921 -0.8496  0.4384  0.7413
  100bbb     C1 2491   8.149   5.974   1.873  0.2185  0.0077 -0.0723
  100bbb     H1 2492   8.235   5.934   1.818  1.1546 -0.3462  1.5815
  100bbb     H2 2493   8.063   5.911   1.845  1.1619 -1.6643  0.6758
  100bbb     C2 2494   8.118   6.116   1.817 -0.0114  0.0525 -0.0545
  100bbb     H3 2495   8.088   6.118   1.711 -0.0162 -0.0170 -0.0539
  100bbb     H4 2496   8.041   6.146   1.889  2.2636  0.3798  2.4003
  100bbb     N1 2497   8.179   5.979   2.018 -0.2858 -0.1730 -0.1239
  100bbb     C3 2498   8.320   5.991   2.041 -0.9068 -0.2688 -0.5622
  100bbb     H5 2499   8.366   6.046   1.958  0.8221  1.4212  1.4107
  100bbb     H6 2500   8.360   5.889   2.046 -1.2304 -0.7099 -4.1787
  100bbb     C4 2501   8.114   5.857   2.075  0.1039  0.4491 -0.2730
  100bbb     H7 2502   8.134   5.768   2.013  0.6569 -0.8945  1.7217
  100bbb     H8 2503   8.157   5.839   2.174 -0.4801  0.2366 -0.0549
  100bbb     C5 2504   7.960   5.885   2.089  0.3163 -0.6836  0.1389
  100bbb     H9 2505   7.949   5.960   2.168 -1.5069  0.3684 -1.0422
  100bbb    H10 2506   7.920   5.940   2.003  0.9035 -0.5103 -0.0316
  100bbb     C6 2507   8.344   6.054   2.180  0.3092  0.2957  0.1148
  100bbb    H11 2508   8.265   6.032   2.253 -0.0997 -1.2038 -0.7317
  100bbb    H12 2509   8.440   6.022   2.220  1.6453  1.9810 -1.5515
  100bbb     C7 2510   7.893   5.758   2.121  0.4671 -0.8135  0.1010
  100bbb     C8 2511   8.343   6.202   2.171  0.5554  0.5221  0.3454
  100bbb     O1 2512   7.937   5.652   2.087  0.1856  0.2013 -0.6891
  100bbb     O2 2513   8.267   6.266   2.109  0.2516 -0.5531  0.5068
  100bbb     N4 2514   8.223   6.219   1.842  0.7786  0.4390  0.1201
  100bbb    H21 2515   8.242   6.245   1.938  1.3947  2.1077 -0.4085
  101bbb     C1 2516   9.295   6.414   1.708  0.6551  0.0842  0.0751
  101bbb     H1 2517   9.324   6.317   1.752  1.6865  1.1415  1.8322
  101bbb     H2 2518   9.362   6.486   1.756  1.4770 -1.4567  1.3749
  101bbb     C2 2519   9.147   6.447   1.754  0.2353  0.4652 -0.6607
  101bbb     H3 2520   9.150   6.429   1.862  1.5421 -0.7266 -0.8682
  101bbb     H4 2521   9.126   6.554   1.756 -1.6877  0.1147  0.7839
  101bbb     N1 2522   9.313   6.432   1.564 -0.0809  0.1997  0.6336
  101bbb     C3 2523   9.262   6.555   1.494  0.6695  0.9458  0.9801
  101bbb     H5 2524   9.154   6.570   1.508  0.0975 -1.0388 -0.8608
  101bbb     H6 2525   9.280   6.544   1.387  1.3416  2.2209  0.9358
  101bbb     C4 2526   9.453   6.412   1.518 -0.5466 -0.0093  0.2815
  101bbb     H7 2527   9.463   6.444   1.413 -2.1850  0.7780  0.3352
  101bbb     H8 2528   9.522   6.480   1.569 -2.6075  0.9375  1.9977
  101bbb     C5 2529   9.489   6.267   1.536 -0.1394 -0.5416  0.1898
  101bbb     H9 2530   9.546   6.257   1.629 -0.4010 -0.7454  0.3272
  101bbb    H10 2531   9.397   6.208   1.536 -0.9465  0.6566  1.0022
  101bbb     C6 2532   9.338   6.682   1.540 -0.4014 -0.2124  0.3241
  101bbb    H11 2533   9.330   6.698   1.648 -1.1193 -0.1562  0.2641
  101bbb    H12 2534   9.446   6.669   1.525 -0.1988  0.7736  0.8684
  101bbb     C7 2535   9.572   6.216   1.423 -0.7579 -0.7200  0.7291
  101bbb     C8 2536   9.293   6.803   1.477  0.2462 -0.6299  0.3350
  101bbb     O1 2537   9.657   6.289   1.371  0.2873  0.2137  0.4891
  101bbb     O2 2538   9.194   6.810   1.404 -0.5777  0.0358 -0.4878
  101bbb     N4 2539   9.045   6.368   1.685 -0.1075  0.2855 -0.1791
  101bbb    H21 2540   9.071   6.285   1.632  0.8442  0.3594  0.1532
  102bbb     C1 2541   9.353   5.047   5.532  0.1207  0.4598  0.3188
  102bbb     H1 2542   9.419   5.036   5.619  0.0838  1.4500  0.4832
  102bbb     H2 2543   9.332   5.155   5.530  0.9254  0.7443  3.0908
  102bbb     C2 2544   9.218   4.981   5.561  0.2528  0.2689  0.0900
  102bbb     H3 2545   9.245   4.886   5.608  0.8257  0.7699  0.7972
  102bbb     H4 2546   9.165   5.042   5.635  0.0523 -1.0695  1.0835
  102bbb     N1 2547   9.420   4.992   5.414 -0.0826 -0.0421  0.1769
  102bbb     C3 2548   9.447   4.848   5.408  0.4485 -1.2175 -0.2010
  102bbb     H5 2549   9.375   4.789   5.467 -0.5252  0.7219  0.6150
  102bbb     H6 2550   9.546   4.816   5.443 -0.6206 -4.5160  0.1592
  102bbb     C4 2551   9.550   5.053   5.391  0.5581 -0.3919 -0.4677
  102bbb     H7 2552   9.619   5.037   5.475  3.3797  1.5705 -2.2198
  102bbb     H8 2553   9.600   4.999   5.310  0.3320 -1.2843 -0.0342
  102bbb     C5 2554   9.540   5.202   5.356  0.4596 -0.0583 -0.4902
  102bbb     H9 2555   9.454   5.228   5.293  0.1731 -1.1569 -0.5777
  102bbb    H10 2556   9.526   5.265   5.445 -1.5908  1.0022 -1.5060
  102bbb     C6 2557   9.433   4.791   5.270  0.1092 -0.3937  0.0675
  102bbb    H11 2558   9.328   4.804   5.240  0.1847  1.1137  0.4101
  102bbb    H12 2559   9.506   4.851   5.214  1.5814 -0.6865  1.6185
  102bbb     C7 2560   9.654   5.243   5.282  0.0168  0.0104 -0.1491
  102bbb     C8 2561   9.481   4.654   5.260 -0.3380  0.2648  0.4536
  102bbb     O1 2562   9.670   5.249   5.160  0.4786 -0.4061  0.0637
  102bbb     O2 2563   9.535   4.591   5.350  0.4413 -0.4931  0.9438
  102bbb     N4 2564   9.138   4.964   5.433 -0.1176  0.6890  0.4005
  102bbb    H21 2565   9.194   4.970   5.348  1.6834 -0.5217  1.4431
  103bbb     C1 2566   8.334   4.360   5.036 -0.4389 -0.8282 -0.0769
  103bbb     H1 2567   8.324   4.391   5.141 -0.5885  0.0796 -0.3512
  103bbb     H2 2568   8.367   4.257   5.052 -0.9136 -0.6979  2.0270
  103bbb     C2 2569   8.441   4.455   4.975 -0.1686 -0.4667 -0.4266
  103bbb     H3 2570   8.448   4.428   4.869  2.5216 -2.5211  0.1475
  103bbb     H4 2571   8.404   4.558   4.970 -3.4979 -1.3881  1.6678
  103bbb     N1 2572   8.212   4.378   4.960  0.2781 -0.1507 -0.1792
  103bbb     C3 2573   8.085   4.338   5.033 -0.5885 -0.2243  0.1406
  103bbb     H5 2574   8.106   4.238   5.073  1.9538  0.4791  0.7875
  103bbb     H6 2575   7.998   4.345   4.967 -1.8623 -0.1589  1.7728
  103bbb     C4 2576   8.220   4.313   4.828  0.0600 -0.3414 -0.1159
  103bbb     H7 2577   8.319   4.303   4.782  0.2754 -0.8195  0.4324
  103bbb     H8 2578   8.182   4.211   4.839  2.4026 -1.2660  0.0236
  103bbb     C5 2579   8.123   4.382   4.734  0.3200 -0.4412  0.1633
  103bbb     H9 2580   8.020   4.346   4.747 -1.7166  4.0930 -1.2543
  103bbb    H10 2581   8.113   4.490   4.746 -1.8999 -0.5761  0.0160
  103bbb     C6 2582   8.061   4.429   5.151  0.0654 -0.0831  0.1385
  103bbb    H11 2583   8.143   4.418   5.224  1.8580 -0.6472 -1.8454
  103bbb    H12 2584   8.072   4.526   5.103 -1.2608  0.7660  1.4838
  103bbb     C7 2585   8.164   4.353   4.599  0.4360  0.5202  0.2905
  103bbb     C8 2586   7.925   4.404   5.204 -0.3326  0.1377  0.2504
  103bbb     O1 2587   8.252   4.417   4.551  0.3013 -0.0859  0.3471
  103bbb     O2 2588   7.877   4.293   5.199 -0.1085 -0.3525  0.2639
  103bbb     N4 2589   8.577   4.450   5.035 -0.0578 -0.1718 -0.7508
  103bbb    H21 2590   8.612   4.358   5.055 -2.0045 -1.3158 -2.2737
  104bbb     C1 2591  10.281   4.317   3.835  0.3346  0.0515  0.1219
  104bbb     H1 2592  10.175   4.308   3.862  0.6611 -0.7499  1.1830
  104bbb     H2 2593  10.343   4.284   3.919  1.3638 -1.6195 -1.2166
  104bbb     C2 2594  10.335   4.458   3.801 -0.1747  0.4783 -0.2762
  104bbb     H3 2595  10.443   4.460   3.782  0.2851 -1.2279  1.7449
  104bbb     H4 2596  10.276   4.492   3.715 -1.8275  0.7593  0.9191
  104bbb     N1 2597  10.307   4.220   3.725  0.6301  0.0756 -0.2655
  104bbb     C3 2598  10.300   4.083   3.765 -0.2312  0.0889  0.9684
  104bbb     H5 2599  10.384   4.071   3.835  0.8806  2.0479  0.0566
  104bbb     H6 2600  10.319   4.022   3.676 -0.9819  0.5510  0.4817
  104bbb     C4 2601  10.229   4.247   3.601  0.1578 -0.2683  0.1655
  104bbb     H7 2602  10.125   4.253   3.635  0.2630 -2.1667  0.9743
  104bbb     H8 2603  10.262   4.344   3.562  1.2790  0.1991  2.1270
  104bbb     C5 2604  10.228   4.149   3.486  0.1781 -0.5768  0.0126
  104bbb     H9 2605  10.329   4.126   3.452  0.0937 -2.0059  0.6646
  104bbb    H10 2606  10.184   4.055   3.520  0.8948 -0.8653  0.1540
  104bbb     C6 2607  10.168   4.048   3.822  0.8857  0.1094 -0.4567
  104bbb    H11 2608  10.183   4.044   3.931 -1.4107  2.0133  0.0085
  104bbb    H12 2609  10.088   4.120   3.803  0.4541 -0.0370  0.7204
  104bbb     C7 2610  10.150   4.194   3.368 -0.2161 -0.9487 -0.0024
  104bbb     C8 2611  10.135   3.902   3.782  0.0963  0.3445  0.5055
  104bbb     O1 2612  10.114   4.307   3.338 -0.0607 -0.4985 -0.0560
  104bbb     O2 2613  10.223   3.817   3.796 -0.6097  0.2908 -0.1889
  104bbb     N4 2614  10.300   4.553   3.907 -0.2942  0.3157  0.6129
  104bbb    H21 2615  10.377   4.598   3.955  0.0280 -1.4807  1.8934
  105bbb     C1 2616  10.606   5.183   4.100  0.4174 -0.0578 -0.7017
  105bbb     H1 2617  10.591   5.088   4.047  2.8553 -0.7069 -0.3610
  105bbb     H2 2618  10.649   5.164   4.199 -0.7230 -0.6809 -0.3164
  105bbb     C2 2619  10.469   5.249   4.104  0.0894 -0.2763  0.7210
  105bbb     H3 2620  10.488   5.342   4.158 -1.2138 -0.9513  2.4313
  105bbb     H4 2621  10.436   5.265   4.001 -2.0102 -0.2933  1.3552
  105bbb     N1 2622  10.712   5.249   4.017  0.3507 -0.5598 -0.2955
  105bbb     C3 2623  10.832   5.169   4.001 -0.1828  0.6040  0.3354
  105bbb     H5 2624  10.861   5.134   4.101 -2.7683  2.4169  1.8300
  105bbb     H6 2625  10.910   5.225   3.947  1.5041 -2.5072 -0.7238
  105bbb     C4 2626  10.733   5.385   4.068 -0.2024 -0.2308  0.0283
  105bbb     H7 2627  10.643   5.448   4.068  0.8220  1.3213 -1.4597
  105bbb     H8 2628  10.766   5.378   4.172  2.7155  3.7321 -0.4022
  105bbb     C5 2629  10.825   5.474   3.984 -0.5215 -0.0489 -0.7832
  105bbb     H9 2630  10.920   5.426   3.956 -1.5285 -2.1465 -0.7660
  105bbb    H10 2631  10.768   5.495   3.892 -1.1302 -1.9681 -0.8846
  105bbb     C6 2632  10.793   5.046   3.922 -0.0978  0.5473 -0.0736
  105bbb    H11 2633  10.761   4.957   3.977 -1.7635  0.6691 -0.7915
  105bbb    H12 2634  10.707   5.066   3.857  0.1335 -0.9270 -0.8909
  105bbb     C7 2635  10.853   5.606   4.047  0.5105 -0.1108  0.2005
  105bbb     C8 2636  10.909   4.998   3.846 -0.0175  0.1312  0.0119
  105bbb     O1 2637  10.797   5.642   4.149 -0.1484 -0.6097  0.2330
  105bbb     O2 2638  11.028   5.028   3.866 -1.0019 -0.0636 -0.3112
  105bbb     N4 2639  10.375   5.170   4.181 -0.8219  0.4376  0.0278
  105bbb    H21 2640  10.402   5.073   4.197  0.6024  0.7274 -0.4359
  106bbb     C1 2641   7.520   4.864   3.343 -0.4252  0.0877 -0.1036
  106bbb     H1 2642   7.563   4.817   3.254  0.3088  2.0536 -0.8494
  106bbb     H2 2643   7.543   4.971   3.330 -1.9783  0.2320 -2.0514
  106bbb     C2 2644   7.578   4.813   3.470 -0.1456  0.1625 -0.7807
  106bbb     H3 2645   7.522   4.847   3.558  1.8487 -1.2912  1.1476
  106bbb     H4 2646   7.561   4.705   3.474  0.2410  0.1233  0.3293
  106bbb     N1 2647   7.378   4.843   3.342 -0.4656  0.4345  0.8932
  106bbb     C3 2648   7.349   4.698   3.311  0.3120  0.2605 -0.2470
  106bbb     H5 2649   7.417   4.621   3.349 -1.3794 -1.7185 -1.0471
  106bbb     H6 2650   7.335   4.699   3.202  2.9331 -1.0916 -0.6675
  106bbb     C4 2651   7.308   4.942   3.259  0.5294  0.3286 -0.0061
  106bbb     H7 2652   7.328   4.943   3.151 -0.5174  0.0442 -0.2125
  106bbb     H8 2653   7.201   4.921   3.270  0.3588 -0.6431 -2.7581
  106bbb     C5 2654   7.327   5.088   3.306 -0.0102  0.3547 -0.1810
  106bbb     H9 2655   7.303   5.094   3.413 -1.7711  2.2939 -0.6190
  106bbb    H10 2656   7.427   5.129   3.290 -0.5671  1.8713  0.0772
  106bbb     C6 2657   7.218   4.665   3.381  0.1264  0.5009 -0.3312
  106bbb    H11 2658   7.227   4.683   3.489 -2.8362  0.2450  0.0403
  106bbb    H12 2659   7.136   4.732   3.351  0.6618  2.2881  1.8862
  106bbb     C7 2660   7.232   5.190   3.244  0.1019  0.1223 -0.3142
  106bbb     C8 2661   7.185   4.522   3.356  0.3148  0.0292 -0.3119
  106bbb     O1 2662   7.144   5.157   3.167  0.4586 -0.1934 -0.4875
  106bbb     O2 2663   7.233   4.451   3.266 -0.8153 -0.0396  0.1680
  106bbb     N4 2664   7.722   4.846   3.481  0.2619 -0.0747 -0.5030
  106bbb    H21 2665   7.736   4.928   3.539 -1.4939 -1.2529  1.7832
  107bbb     C1 2666   8.575   4.861   2.766 -0.4056  0.0594 -0.1765
  107bbb     H1 2667   8.667   4.824   2.814  0.8669  0.8546 -1.9018
  107bbb     H2 2668   8.586   4.970   2.771 -0.9054  0.0707  2.6938
  107bbb     C2 2669   8.443   4.821   2.830 -0.3216 -0.7282 -1.1768
  107bbb     H3 2670   8.352   4.836   2.771  0.8163 -0.2833 -2.9285
  107bbb     H4 2671   8.453   4.712   2.830  2.2418 -0.5738 -0.6840
  107bbb     N1 2672   8.583   4.819   2.624  0.4581 -0.3077 -0.6203
  107bbb     C3 2673   8.499   4.902   2.531 -0.3634  0.2093 -0.4506
  107bbb     H5 2674   8.559   4.982   2.486 -0.4477 -1.1967 -3.2510
  107bbb     H6 2675   8.410   4.937   2.585 -0.6448 -1.5266  0.2889
  107bbb     C4 2676   8.720   4.803   2.575 -0.6112  0.4202 -0.7855
  107bbb     H7 2677   8.730   4.815   2.466  0.2922  0.0087 -0.7553
  107bbb     H8 2678   8.790   4.871   2.624 -1.4876  2.3689 -2.0900
  107bbb     C5 2679   8.758   4.658   2.596  0.3644  0.0748  0.1859
  107bbb     H9 2680   8.802   4.653   2.696  0.8181  0.8403  0.0290
  107bbb    H10 2681   8.676   4.585   2.585  0.2171  0.0127  1.5777
  107bbb     C6 2682   8.430   4.815   2.429 -1.7958  0.1661  0.0964
  107bbb    H11 2683   8.510   4.776   2.365  0.1774 -1.1922  3.1555
  107bbb    H12 2684   8.387   4.732   2.488  1.6019 -0.1884  2.3235
  107bbb     C7 2685   8.870   4.634   2.501  0.1645 -0.1754  1.3961
  107bbb     C8 2686   8.343   4.887   2.333  0.4541 -0.6489  0.0945
  107bbb     O1 2687   8.980   4.676   2.508 -0.3772 -0.0678 -0.3174
  107bbb     O2 2688   8.375   4.942   2.232 -0.3282 -0.0435  0.1940
  107bbb     N4 2689   8.418   4.876   2.965  0.2972 -0.1591 -0.1559
  107bbb    H21 2690   8.491   4.914   3.024 -0.5824  0.0226  0.8331
  108bbb     C1 2691   7.465   4.305   4.833 -0.0878  0.1960  0.0501
  108bbb     H1 2692   7.391   4.253   4.896 -1.3521  0.7505 -0.9254
  108bbb     H2 2693   7.551   4.347   4.887  1.4571  1.0983 -2.8706
  108bbb     C2 2694   7.390   4.431   4.781 -0.3724 -0.0189  0.6447
  108bbb     H3 2695   7.292   4.404   4.740 -0.3774  0.3780  0.3933
  108bbb     H4 2696   7.366   4.480   4.876  0.4511  1.5520  0.0723
  108bbb     N1 2697   7.513   4.223   4.720  0.0566  0.4304 -0.1767
  108bbb     C3 2698   7.402   4.141   4.656  0.2406 -0.5785 -0.2850
  108bbb     H5 2699   7.305   4.191   4.644  0.0229 -0.4814  1.5173
  108bbb     H6 2700   7.394   4.060   4.730 -0.2463  0.2770  0.6192
  108bbb     C4 2701   7.611   4.130   4.766 -1.0020 -0.7100 -0.1209
  108bbb     H7 2702   7.595   4.086   4.865  3.0332 -0.3808  0.8813
  108bbb     H8 2703   7.624   4.044   4.699  0.0027  0.6384 -1.7292
  108bbb     C5 2704   7.745   4.206   4.782  0.1859  0.1376 -0.4073
  108bbb     H9 2705   7.750   4.284   4.705  1.7706  3.3966  2.7266
  108bbb    H10 2706   7.752   4.251   4.881 -0.6364 -0.1123 -0.2264
  108bbb     C6 2707   7.436   4.099   4.517  0.2548 -0.2417  0.2213
  108bbb    H11 2708   7.389   4.164   4.442  1.6879  0.1988 -0.3296
  108bbb    H12 2709   7.539   4.132   4.500 -0.4041  1.8686  0.0731
  108bbb     C7 2710   7.852   4.104   4.756 -0.6884 -0.2919 -0.0937
  108bbb     C8 2711   7.430   3.955   4.486  0.2136 -1.0091 -0.3177
  108bbb     O1 2712   7.915   4.093   4.654 -0.0888 -0.2624  0.1069
  108bbb     O2 2713   7.522   3.874   4.503 -0.1316 -0.7338 -0.2162
  108bbb     N4 2714   7.468   4.523   4.689 -0.2226  0.0365  1.0451
  108bbb    H21 2715   7.569   4.521   4.701 -0.2336 -3.6016  1.7100
  109bbb     C1 2716   7.616   4.023   3.821 -0.2538 -0.2288 -0.3472
  109bbb     H1 2717   7.532   4.091   3.800 -0.1156 -0.1052 -0.5057
  109bbb     H2 2718   7.590   3.970   3.913  0.3966 -0.2082 -0.1469
  109bbb     C2 2719   7.735   4.120   3.844  0.1624  0.1477 -0.3821
  109bbb     H3 2720   7.822   4.072   3.890 -0.3200  0.0710  0.4657
  109bbb     H4 2721   7.763   4.176   3.754  0.0014  1.6277  0.4534
  109bbb     N1 2722   7.637   3.926   3.708 -0.0765  0.1851  0.4048
  109bbb     C3 2723   7.742   3.828   3.728  0.5241  0.7709 -0.2298
  109bbb     H5 2724   7.838   3.876   3.753  2.3578 -3.8526  2.7830
  109bbb     H6 2725   7.755   3.768   3.637  1.4126  0.3524  0.1588
  109bbb     C4 2726   7.655   3.985   3.579  0.6754 -0.2721 -0.3202
  109bbb     H7 2727   7.737   4.057   3.586 -0.0706  0.5203  0.5327
  109bbb     H8 2728   7.665   3.907   3.502 -2.6952 -2.7993  1.5254
  109bbb     C5 2729   7.525   4.056   3.551 -0.1600  0.0878 -0.0578
  109bbb     H9 2730   7.444   4.016   3.613 -0.0490  0.1095  0.1000
  109bbb    H10 2731   7.527   4.164   3.569 -1.0301  0.0739  0.1742
  109bbb     C6 2732   7.701   3.741   3.846  0.1274  0.6353 -0.6018
  109bbb    H11 2733   7.718   3.794   3.941  0.3616 -1.4073  0.5737
  109bbb    H12 2734   7.595   3.713   3.854  0.1743  0.5792 -0.1028
  109bbb     C7 2735   7.482   4.047   3.410  0.2836  0.8213  0.6766
  109bbb     C8 2736   7.784   3.618   3.841 -0.8385 -0.2811 -0.4816
  109bbb     O1 2737   7.394   3.967   3.380  0.2078 -0.1149  0.7573
  109bbb     O2 2738   7.761   3.533   3.759 -0.9040 -0.7485 -0.0497
  109bbb     N4 2739   7.690   4.218   3.949  0.0797 -0.1749  0.2704
  109bbb    H21 2740   7.654   4.309   3.924  1.4678  0.5111  0.7045
  110bbb     C1 2741  11.834   6.626   2.130  0.2912  0.0248 -0.1384
  110bbb     H1 2742  11.854   6.643   2.024  0.6518  0.1217 -0.0583
  110bbb     H2 2743  11.737   6.577   2.140  0.8646 -0.8774  1.6287
  110bbb     C2 2744  11.840   6.774   2.189  0.7386  0.6436  0.3609
  110bbb     H3 2745  11.941   6.814   2.204  0.1433  1.7366  1.7010
  110bbb     H4 2746  11.803   6.839   2.109  1.5097  0.7931  0.1204
  110bbb     N1 2747  11.933   6.538   2.182  0.2426  0.3377 -0.2849
  110bbb     C3 2748  11.944   6.420   2.092 -0.2255  0.6628  0.2389
  110bbb     H5 2749  11.848   6.397   2.045  1.0759  0.1246 -2.3086
  110bbb     H6 2750  11.977   6.332   2.149 -1.7328  0.2944  0.5803
  110bbb     C4 2751  11.932   6.512   2.320  0.6455  0.0292 -0.5590
  110bbb     H7 2752  11.915   6.606   2.375 -0.5575 -1.7115  2.2775
  110bbb     H8 2753  11.846   6.450   2.350  0.9583  0.4478  1.3011
  110bbb     C5 2754  12.062   6.452   2.371 -0.4201  0.1129  0.0869
  110bbb     H9 2755  12.065   6.349   2.334 -0.8307  0.8048 -1.9787
  110bbb    H10 2756  12.151   6.492   2.322  0.2626 -0.9017  0.4747
  110bbb     C6 2757  12.037   6.451   1.981 -0.1883  1.1559  0.2461
  110bbb    H11 2758  12.024   6.542   1.921  0.9913  2.7294  2.2251
  110bbb    H12 2759  12.137   6.455   2.026 -0.0584 -0.8801  0.2219
  110bbb     C7 2760  12.076   6.447   2.519 -0.7132  0.1070  0.7140
  110bbb     C8 2761  12.047   6.334   1.884 -0.1612  0.2599 -0.2111
  110bbb     O1 2762  11.987   6.423   2.595  0.2801 -0.0379  0.2782
  110bbb     O2 2763  12.013   6.221   1.909  0.8362 -0.4901  0.4551
  110bbb     N4 2764  11.763   6.788   2.321 -0.0773  0.0189  1.1214
  110bbb    H21 2765  11.806   6.751   2.405  1.1137 -0.0281  0.5091
  111bbb     C1 2766  10.856   7.167   2.709 -0.3676 -0.4973  0.1141
  111bbb     H1 2767  10.886   7.165   2.815 -2.8062 -0.8488  0.8709
  111bbb     H2 2768  10.755   7.211   2.707 -0.4119 -0.6181 -0.4992
  111bbb     C2 2769  10.848   7.018   2.659 -0.2894  0.4189 -0.1030
  111bbb     H3 2770  10.790   6.960   2.732 -0.0950  3.9365  3.1538
  111bbb     H4 2771  10.802   7.022   2.559 -1.8128 -1.5500  0.4678
  111bbb     N1 2772  10.948   7.241   2.627  0.0353  0.2514 -0.0472
  111bbb     C3 2773  11.020   7.341   2.708 -0.4375 -0.2588 -0.1188
  111bbb     H5 2774  10.951   7.390   2.778  0.4679  3.2586 -1.4776
  111bbb     H6 2775  11.066   7.420   2.648 -1.7483 -1.3998 -2.7758
  111bbb     C4 2776  10.876   7.287   2.506 -0.5745 -0.4792  0.1543
  111bbb     H7 2777  10.811   7.204   2.476 -0.3587 -0.5820 -0.0253
  111bbb     H8 2778  10.816   7.377   2.528  1.5259  0.4592  2.4907
  111bbb     C5 2779  10.980   7.303   2.393  0.0045  0.1859  0.3342
  111bbb     H9 2780  11.060   7.372   2.421  1.1801 -1.2715  0.6578
  111bbb    H10 2781  11.025   7.206   2.370  0.7725  0.8117 -0.8840
  111bbb     C6 2782  11.123   7.266   2.791 -0.4052 -0.3752 -0.5739
  111bbb    H11 2783  11.083   7.228   2.886  1.0601 -2.7654 -0.8332
  111bbb    H12 2784  11.160   7.177   2.740  1.3056 -0.2407  0.3473
  111bbb     C7 2785  10.913   7.354   2.271 -0.0515  0.1607  0.0682
  111bbb     C8 2786  11.245   7.354   2.829 -0.1063  0.0763 -0.4477
  111bbb     O1 2787  10.836   7.450   2.274 -0.9608  0.1110 -0.2248
  111bbb     O2 2788  11.228   7.439   2.910  0.0797 -0.3446 -0.6691
  111bbb     N4 2789  10.983   6.963   2.639 -0.4344 -0.0602  0.3677
  111bbb    H21 2790  11.060   7.029   2.643 -0.4041 -0.0521 -0.2367
  112bbb     C1 2791  12.374   6.418   4.230 -0.2036 -0.0309 -0.1046
  112bbb     H1 2792  12.481   6.435   4.212 -1.0173  2.6245 -3.3428
  112bbb     H2 2793  12.346   6.357   4.144 -0.7739  0.4540 -0.2765
  112bbb     C2 2794  12.313   6.555   4.213  0.1233  0.4530 -0.2278
  112bbb     H3 2795  12.352   6.628   4.285  1.4635 -0.3016 -0.1544
  112bbb     H4 2796  12.354   6.600   4.121  1.8675  0.8191  0.6911
  112bbb     N1 2797  12.337   6.364   4.360 -0.3133  0.2796  0.4313
  112bbb     C3 2798  12.391   6.436   4.473 -0.4033  0.5492 -0.1650
  112bbb     H5 2799  12.395   6.543   4.450  1.9547  0.5736  0.0932
  112bbb     H6 2800  12.488   6.390   4.496 -0.3718  0.6097 -0.1776
  112bbb     C4 2801  12.379   6.219   4.366  0.8543  1.1042  0.4600
  112bbb     H7 2802  12.488   6.210   4.362  0.7263 -0.0162 -1.0874
  112bbb     H8 2803  12.359   6.172   4.463  3.0977  1.7202  1.2744
  112bbb     C5 2804  12.314   6.133   4.253  0.0030 -0.5249  0.2812
  112bbb     H9 2805  12.205   6.123   4.262 -0.0809  1.4140  1.9012
  112bbb    H10 2806  12.327   6.176   4.153 -5.2399  0.0833 -0.4040
  112bbb     C6 2807  12.317   6.415   4.597  0.1530  1.0488  0.2534
  112bbb    H11 2808  12.220   6.464   4.578  0.4377  1.5058 -0.0376
  112bbb    H12 2809  12.306   6.308   4.619  1.2571  0.6387 -1.0641
  112bbb     C7 2810  12.387   6.002   4.258  0.9759  0.1219  0.7029
  112bbb     C8 2811  12.389   6.477   4.709 -0.2111  0.1947 -0.0821
  112bbb     O1 2812  12.487   5.988   4.193  0.3948  0.4576 -1.1891
  112bbb     O2 2813  12.496   6.536   4.695 -0.0797 -0.1832 -0.2291
  112bbb     N4 2814  12.165   6.548   4.194  0.4316 -0.4337  0.3527
  112bbb    H21 2815  12.109   6.500   4.263 -2.9303  1.7630 -0.5567
  113bbb     C1 2816  11.509   7.190   4.171  0.1678  0.2045 -0.5237
  113bbb     H1 2817  11.518   7.292   4.210  0.4458 -0.3719  1.0212
  113bbb     H2 2818  11.401   7.171   4.168  0.3527 -0.8315 -2.6205
  113bbb     C2 2819  11.570   7.102   4.286 -0.3191  0.5254  0.6235
  113bbb     H3 2820  11.676   7.127   4.299  0.0588 -0.7935  0.3178
  113bbb     H4 2821  11.528   7.118   4.386  1.0982 -0.5255  1.4405
  113bbb     N1 2822  11.563   7.159   4.042 -0.4297  0.1974 -0.2416
  113bbb     C3 2823  11.709   7.183   4.035  0.1575 -0.1896 -0.3329
  113bbb     H5 2824  11.754   7.155   3.939  0.5958  1.8601 -0.7576
  113bbb     H6 2825  11.757   7.121   4.113  0.8727  0.4420 -0.2602
  113bbb     C4 2826  11.488   7.202   3.931 -0.0462 -0.0991  0.4340
  113bbb     H7 2827  11.386   7.208   3.971  0.6998 -0.4855  2.5554
  113bbb     H8 2828  11.522   7.297   3.889 -0.6939 -0.4075 -0.8566
  113bbb     C5 2829  11.493   7.096   3.823 -0.5189  0.2155  0.1577
  113bbb     H9 2830  11.592   7.086   3.777 -0.2265 -1.2875  1.0302
  113bbb    H10 2831  11.463   7.007   3.879  0.3751  0.9201  1.8462
  113bbb     C6 2832  11.774   7.326   4.060 -0.1597  0.5800  0.2470
  113bbb    H11 2833  11.735   7.400   3.989  0.5770  2.2554  1.5019
  113bbb    H12 2834  11.746   7.352   4.163  2.1673 -0.5091  1.2293
  113bbb     C7 2835  11.386   7.119   3.718  0.0484 -0.2545 -0.7498
  113bbb     C8 2836  11.918   7.308   4.052  0.7905  0.5739  1.0099
  113bbb     O1 2837  11.324   7.221   3.711  0.3060 -0.5371 -0.4430
  113bbb     O2 2838  11.979   7.260   4.141  0.2022  0.2867 -0.3922
  113bbb     N4 2839  11.550   6.957   4.262  0.2282 -0.8400  0.3011
  113bbb    H21 2840  11.459   6.945   4.219  0.6399 -1.1936 -0.4869
  114bbb     C1 2841   9.115   6.186   2.518 -0.1300 -0.5322 -0.4544
  114bbb     H1 2842   9.161   6.259   2.451 -0.4246 -0.2477 -0.3457
  114bbb     H2 2843   9.040   6.234   2.582  0.1561 -1.3546  0.5310
  114bbb     C2 2844   9.225   6.133   2.605 -0.9673  0.8600  0.0142
  114bbb     H3 2845   9.172   6.085   2.688  1.3377 -0.8473  0.6015
  114bbb     H4 2846   9.287   6.055   2.560 -1.3050 -1.0512  2.6374
  114bbb     N1 2847   9.057   6.075   2.447  0.0784  0.2811 -0.0833
  114bbb     C3 2848   9.150   6.030   2.343  0.0739  0.4295  0.3638
  114bbb     H5 2849   9.253   6.061   2.361  0.0297 -0.1516  1.7049
  114bbb     H6 2850   9.122   6.090   2.255 -2.1184 -0.9552  0.0299
  114bbb     C4 2851   8.920   6.089   2.395 -0.1657 -0.4273  0.3940
  114bbb     H7 2852   8.912   6.196   2.371 -1.8552 -0.3923  0.9763
  114bbb     H8 2853   8.893   6.019   2.316 -0.0316 -2.3531  1.9718
  114bbb     C5 2854   8.838   6.044   2.509 -0.2063  0.0643 -0.2829
  114bbb     H9 2855   8.864   5.941   2.534 -0.4575 -0.6439 -2.7213
  114bbb    H10 2856   8.852   6.103   2.601 -1.4701 -1.9934  1.3369
  114bbb     C6 2857   9.140   5.873   2.322 -0.2470  0.1938 -0.8678
  114bbb    H11 2858   9.179   5.830   2.415  0.4450  0.2898 -1.1037
  114bbb    H12 2859   9.040   5.830   2.318 -0.3719  0.2696  0.6765
  114bbb     C7 2860   8.691   6.044   2.469  0.0322 -0.2303 -0.2173
  114bbb     C8 2861   9.219   5.827   2.200 -0.1615 -0.1261  0.0065
  114bbb     O1 2862   8.646   6.110   2.381 -0.2576 -0.0819  0.2997
  114bbb     O2 2863   9.331   5.795   2.212 -0.2348  0.4538  0.3004
  114bbb     N4 2864   9.304   6.239   2.675  0.2982  0.6434 -0.6034
  114bbb    H21 2865   9.288   6.336   2.649  1.8048  0.7188 -1.4045
  115bbb     C1 2866   9.397   6.853   2.782 -0.3012 -0.3682  0.3567
  115bbb     H1 2867   9.406   6.744   2.775 -0.6244 -0.4527  1.2001
  115bbb     H2 2868   9.484   6.887   2.725  0.2659 -0.6204  1.0599
  115bbb     C2 2869   9.411   6.886   2.930 -0.4575 -0.3950  0.2551
  115bbb     H3 2870   9.463   6.982   2.919 -1.0029 -0.3553 -3.5624
  115bbb     H4 2871   9.313   6.888   2.980  0.0374 -2.0995  1.3376
  115bbb     N1 2872   9.269   6.907   2.734  0.4372  0.1520  0.2002
  115bbb     C3 2873   9.220   6.825   2.618 -0.3232  0.1597 -0.1786
  115bbb     H5 2874   9.310   6.786   2.569 -0.5583 -2.2048  1.1211
  115bbb     H6 2875   9.162   6.888   2.550  0.9839 -0.0506 -1.5407
  115bbb     C4 2876   9.294   7.044   2.685 -0.4411 -0.4893 -0.0841
  115bbb     H7 2877   9.360   7.099   2.752 -0.0011  2.1025 -2.4707
  115bbb     H8 2878   9.349   7.047   2.590  1.4616  0.1852  0.9900
  115bbb     C5 2879   9.174   7.141   2.685 -0.7780  0.3310 -0.0869
  115bbb     H9 2880   9.090   7.090   2.637 -0.6513 -1.1222  1.1356
  115bbb    H10 2881   9.142   7.157   2.789 -0.0729 -0.5390  0.2870
  115bbb     C6 2882   9.140   6.710   2.665  0.2203 -0.3974  0.2947
  115bbb    H11 2883   9.197   6.655   2.741  0.6227  0.8717  0.9395
  115bbb    H12 2884   9.040   6.739   2.697  0.4270 -0.0899  0.6667
  115bbb     C7 2885   9.214   7.269   2.611 -0.2632  0.0095  0.0117
  115bbb     C8 2886   9.129   6.617   2.548  0.1836 -0.8606  0.4916
  115bbb     O1 2887   9.320   7.300   2.558 -0.3830  1.5662  0.7804
  115bbb     O2 2888   9.206   6.530   2.526 -0.5902 -0.1610  0.2826
  115bbb     N4 2889   9.502   6.793   2.997  0.2889 -0.1014 -0.6177
  115bbb    H21 2890   9.599   6.796   2.967 -0.2559 -1.2262 -2.6721
  116bbb     C1 2891  11.252   7.073   1.772 -0.5133  0.8269  0.6001
  116bbb     H1 2892  11.282   7.159   1.711  0.2204 -0.5879 -1.1461
  116bbb     H2 2893  11.178   7.018   1.711  0.4863  1.0082 -0.8102
  116bbb     C2 2894  11.193   7.107   1.907  0.6302  1.0234 -0.7468
  116bbb     H3 2895  11.254   7.176   1.966  1.2797 -0.7111  0.7104
  116bbb     H4 2896  11.104   7.168   1.889  1.4485  2.0266 -1.5093
  116bbb     N1 2897  11.378   6.991   1.784 -0.5071  0.5805  0.2909
  116bbb     C3 2898  11.416   6.933   1.658 -0.2860  0.4032 -0.8745
  116bbb     H5 2899  11.523   6.908   1.662 -0.2741  0.2868 -1.7196
  116bbb     H6 2900  11.399   7.008   1.579  1.0545 -0.0944 -1.6723
  116bbb     C4 2901  11.484   7.074   1.836 -0.1258 -0.5408 -0.0706
  116bbb     H7 2902  11.500   7.151   1.759 -0.4678 -0.3321  0.0660
  116bbb     H8 2903  11.449   7.111   1.934  0.0672  3.7652 -1.4022
  116bbb     C5 2904  11.614   7.002   1.876  0.2580  0.0474 -0.0455
  116bbb     H9 2905  11.578   6.909   1.923 -3.5044 -0.5931 -3.6557
  116bbb    H10 2906  11.670   6.972   1.787 -2.0553 -1.8816 -0.9446
  116bbb     C6 2907  11.337   6.805   1.639 -0.4569 -0.3862  0.1025
  116bbb    H11 2908  11.355   6.748   1.731  0.8880 -2.5376 -1.3960
  116bbb    H12 2909  11.233   6.824   1.613 -0.1426  1.8699  0.3191
  116bbb     C7 2910  11.704   7.087   1.955  0.3795  0.5817  0.3352
  116bbb     C8 2911  11.394   6.723   1.530 -0.1665  0.5629 -0.4351
  116bbb     O1 2912  11.790   7.158   1.910  0.1528 -0.0054 -0.0136
  116bbb     O2 2913  11.430   6.771   1.425  0.5734  0.4159 -0.1354
  116bbb     N4 2914  11.161   6.981   1.983 -0.3882 -0.5694  0.0018
  116bbb    H21 2915  11.151   6.897   1.928  3.0854 -0.3634 -1.1669
  117bbb     C1 2916  10.520   6.669   1.866 -0.2654 -0.1764  0.0173
  117bbb     H1 2917  10.517   6.716   1.767 -0.6804 -0.3463 -0.0536
  117bbb     H2 2918  10.493   6.749   1.937 -0.2205 -0.5231  0.4325
  117bbb     C2 2919  10.666   6.613   1.889 -0.1196 -0.1377 -0.0621
  117bbb     H3 2920  10.686   6.545   1.806 -1.5669 -1.0609  0.3114
  117bbb     H4 2921  10.728   6.702   1.872 -2.0905  1.1342 -1.1325
  117bbb     N1 2922  10.422   6.563   1.881  0.3525 -0.9501 -0.1797
  117bbb     C3 2923  10.427   6.458   1.784  0.1364 -0.2928  0.6502
  117bbb     H5 2924  10.531   6.423   1.782  0.2743 -0.3917  3.8639
  117bbb     H6 2925  10.396   6.490   1.684  0.9453 -4.5896 -1.2203
  117bbb     C4 2926  10.284   6.618   1.906 -1.1054  0.1901 -0.3110
  117bbb     H7 2927  10.213   6.543   1.943 -2.0007  1.0440 -0.2623
  117bbb     H8 2928  10.296   6.691   1.987 -0.1867  0.6112 -0.8069
  117bbb     C5 2929  10.216   6.691   1.795  0.2049  0.1271 -0.3795
  117bbb     H9 2930  10.291   6.754   1.744  0.6830 -1.1077 -1.2401
  117bbb    H10 2931  10.178   6.615   1.727  1.7717 -1.7457  0.7433
  117bbb     C6 2932  10.359   6.333   1.829  0.6123  0.2874  0.1681
  117bbb    H11 2933  10.392   6.292   1.926 -0.5332 -0.1757  0.3805
  117bbb    H12 2934  10.250   6.345   1.839  0.4944  0.7054 -1.4578
  117bbb     C7 2935  10.098   6.758   1.836  0.1093 -0.7911  0.2089
  117bbb     C8 2936  10.374   6.220   1.726 -0.1901 -0.8448  0.0806
  117bbb     O1 2937  10.000   6.699   1.877  0.0283 -0.1434 -0.5696
  117bbb     O2 2938  10.472   6.209   1.657 -0.1841 -0.3721  1.3927
  117bbb     N4 2939  10.685   6.558   2.023 -0.5106 -0.1412  0.1045
  117bbb    H21 2940  10.609   6.573   2.088  0.1742  1.3714  0.5875
  118bbb     C1 2941   9.265   4.766   4.134 -0.1678  0.4745  0.5055
  118bbb     H1 2942   9.220   4.839   4.203  0.4459  0.2934  1.1083
  118bbb     H2 2943   9.339   4.705   4.186 -2.0358 -2.6885 -0.2434
  118bbb     C2 2944   9.335   4.860   4.025 -0.2229  0.3478  0.0355
  118bbb     H3 2945   9.375   4.801   3.941  1.0419  2.4150 -0.8843
  118bbb     H4 2946   9.268   4.937   3.987  0.0283  0.8837  0.6510
  118bbb     N1 2947   9.160   4.683   4.071  0.4420 -0.0756  0.8414
  118bbb     C3 2948   9.058   4.774   4.015 -0.1323  0.7843 -0.4346
  118bbb     H5 2949   9.070   4.882   4.026  0.6129  0.7155 -0.5042
  118bbb     H6 2950   8.957   4.740   4.040  1.0315 -2.8543  0.0458
  118bbb     C4 2951   9.100   4.609   4.181 -0.1532 -0.2978  0.0529
  118bbb     H7 2952   9.171   4.554   4.244 -0.8415 -0.1666  0.9688
  118bbb     H8 2953   9.046   4.680   4.245 -0.5641 -1.0374  0.5401
  118bbb     C5 2954   9.020   4.499   4.121  0.3985  0.0169  0.0013
  118bbb     H9 2955   8.931   4.535   4.068 -2.1651 -2.2909  2.3960
  118bbb    H10 2956   9.081   4.446   4.046  0.1994 -2.6703  1.6031
  118bbb     C6 2957   9.063   4.761   3.868  0.4339 -0.0283  0.9571
  118bbb    H11 2958   9.160   4.792   3.827 -0.2398 -0.0677 -0.7600
  118bbb    H12 2959   9.040   4.658   3.838  2.4966 -0.4443  0.6349
  118bbb     C7 2960   8.972   4.397   4.214  0.0592  0.0711  0.7791
  118bbb     C8 2961   8.969   4.863   3.805 -0.4431  0.4194 -0.0470
  118bbb     O1 2962   8.988   4.397   4.333 -0.5034  0.0680  0.5260
  118bbb     O2 2963   8.997   4.976   3.778 -0.0909  0.0173  0.1431
  118bbb     N4 2964   9.454   4.922   4.089 -0.3423  0.0224 -0.3568
  118bbb    H21 2965   9.540   4.869   4.082  0.6611  1.5199  0.2734
  119bbb     C1 2966  10.253   5.644   4.156  0.3547  0.3510  0.7611
  119bbb     H1 2967  10.283   5.542   4.184  0.0636  0.2055  0.5499
  119bbb     H2 2968  10.294   5.718   4.226  0.1612  0.7077  0.4973
  119bbb     C2 2969  10.100   5.647   4.188  0.4044  0.6862 -0.0771
  119bbb     H3 2970  10.096   5.647   4.297  1.6672 -1.1389  0.0138
  119bbb     H4 2971  10.054   5.729   4.131  0.4081 -0.0250 -1.1487
  119bbb     N1 2972  10.268   5.692   4.010  0.5636 -0.8656 -0.4419
  119bbb     C3 2973  10.390   5.636   3.956 -0.2555  0.0937 -0.1909
  119bbb     H5 2974  10.443   5.572   4.027  0.7271  0.0562 -0.9323
  119bbb     H6 2975  10.463   5.715   3.932 -1.9613  1.4330 -1.2095
  119bbb     C4 2976  10.257   5.841   3.985 -0.2445  0.5404 -1.0411
  119bbb     H7 2977  10.168   5.890   4.026 -0.6487 -0.7613 -0.3022
  119bbb     H8 2978  10.340   5.883   4.043 -1.0945 -0.3342  0.9097
  119bbb     C5 2979  10.262   5.867   3.837 -1.0688 -0.7219 -0.9341
  119bbb     H9 2980  10.360   5.844   3.794 -1.1307 -0.8630 -1.0014
  119bbb    H10 2981  10.178   5.813   3.792 -1.0958 -1.5835  0.0931
  119bbb     C6 2982  10.351   5.545   3.837  0.1609  0.4277 -0.3626
  119bbb    H11 2983  10.280   5.465   3.862  0.2207  0.4449 -0.1345
  119bbb    H12 2984  10.292   5.604   3.766 -0.5836 -0.8820 -0.8627
  119bbb     C7 2985  10.237   6.007   3.799  0.6540  0.3757 -0.2514
  119bbb     C8 2986  10.467   5.496   3.763  0.2122  0.2250 -0.3765
  119bbb     O1 2987  10.142   6.045   3.737  0.1843  0.6521 -0.1326
  119bbb     O2 2988  10.569   5.557   3.743  0.2494 -0.6961  0.7970
  119bbb     N4 2989  10.028   5.520   4.146 -0.0077  0.3578 -0.5470
  119bbb    H21 2990  10.078   5.434   4.161  1.3192  1.4152  1.6124
  120bbb     C1 2991  11.427   6.028   4.064  0.3426 -0.3316 -0.3859
  120bbb     H1 2992  11.351   6.064   4.135  1.0095  0.7278 -0.1846
  120bbb     H2 2993  11.381   6.036   3.965 -0.5653  2.6142  0.1811
  120bbb     C2 2994  11.462   5.881   4.106  0.9201 -0.3083  0.1335
  120bbb     H3 2995  11.513   5.836   4.020  1.5562  1.8334 -0.6707
  120bbb     H4 2996  11.523   5.878   4.197  0.6000 -0.2975  0.3508
  120bbb     N1 2997  11.546   6.124   4.079 -0.0767 -0.5317 -0.1031
  120bbb     C3 2998  11.541   6.202   4.200 -0.2569  0.4243  0.1613
  120bbb     H5 2999  11.457   6.273   4.199 -1.4822 -0.8998  1.9159
  120bbb     H6 3000  11.626   6.271   4.193  0.3498 -0.1534  1.4427
  120bbb     C4 3001  11.541   6.208   3.963 -0.2319  0.1935 -0.2857
  120bbb     H7 3002  11.439   6.247   3.951 -0.9089 -0.5757  2.3171
  120bbb     H8 3003  11.611   6.291   3.972  1.6412 -1.0987 -1.9655
  120bbb     C5 3004  11.592   6.132   3.841 -0.6264  0.0635  0.6806
  120bbb     H9 3005  11.695   6.095   3.841 -1.2376 -2.1046 -2.6699
  120bbb    H10 3006  11.531   6.045   3.814 -0.2467 -0.5794  1.8164
  120bbb     C6 3007  11.543   6.127   4.328 -0.4459  0.4039  0.6298
  120bbb    H11 3008  11.452   6.065   4.332 -0.0801 -0.5993 -3.0796
  120bbb    H12 3009  11.624   6.053   4.337 -0.5037  0.1075 -0.9551
  120bbb     C7 3010  11.573   6.227   3.723  0.7162 -0.5927 -0.4604
  120bbb     C8 3011  11.547   6.221   4.440 -0.1298  0.0716  0.4575
  120bbb     O1 3012  11.463   6.274   3.687 -0.3444  0.4928  0.2401
  120bbb     O2 3013  11.539   6.341   4.429  0.0051  0.1484 -0.2371
  120bbb     N4 3014  11.336   5.805   4.126 -0.1598 -0.6894  0.7988
  120bbb    H21 3015  11.317   5.744   4.048 -1.2433 -0.1226  0.5948
  121bbb     C1 3016  11.735   5.238   4.131 -0.4712  0.4615  0.5003
  121bbb     H1 3017  11.774   5.201   4.227  1.1654 -1.4475 -0.8152
  121bbb     H2 3018  11.702   5.339   4.160 -1.7215  0.4817 -0.9147
  121bbb     C2 3019  11.615   5.153   4.090 -0.1944 -0.1699 -0.0168
  121bbb     H3 3020  11.639   5.089   4.004 -1.9006  0.8259 -1.2946
  121bbb     H4 3021  11.591   5.082   4.170 -0.5606 -1.3897 -1.1589
  121bbb     N1 3022  11.843   5.246   4.029  0.0252  0.0270  0.4449
  121bbb     C3 3023  11.945   5.353   4.064  0.3834  0.9951 -0.1703
  121bbb     H5 3024  11.893   5.439   4.109 -0.9548  0.4077 -0.5162
  121bbb     H6 3025  11.993   5.399   3.977 -1.8092  3.0186 -0.4183
  121bbb     C4 3026  11.800   5.261   3.889 -0.7595  0.3504  0.0800
  121bbb     H7 3027  11.693   5.241   3.885 -0.5269 -2.8743  3.9816
  121bbb     H8 3028  11.816   5.364   3.853 -0.2983 -0.0439 -0.8677
  121bbb     C5 3029  11.883   5.165   3.807 -0.3191 -0.2438 -0.4512
  121bbb     H9 3030  11.991   5.170   3.826 -0.1288  0.3490 -1.5664
  121bbb    H10 3031  11.861   5.061   3.831 -0.3647 -0.0004  0.6213
  121bbb     C6 3032  12.044   5.290   4.158  1.0267  1.6913 -0.5362
  121bbb    H11 3033  12.002   5.305   4.258 -0.2882  1.9798 -1.1064
  121bbb    H12 3034  12.063   5.182   4.157  2.4427  1.8185  2.5738
  121bbb     C7 3035  11.868   5.191   3.661 -0.1648  0.6265 -0.3309
  121bbb     C8 3036  12.171   5.369   4.156 -0.8796 -0.2326  0.6622
  121bbb     O1 3037  11.934   5.275   3.615  0.3527 -0.8186  0.1985
  121bbb     O2 3038  12.178   5.486   4.174 -0.3566 -0.1621  0.8075
  121bbb     N4 3039  11.504   5.243   4.057  0.8350  0.3125  0.1512
  121bbb    H21 3040  11.504   5.299   3.973  0.9783 -1.9621 -1.4530
  122bbb     C1 3041  10.282   7.658   4.096 -0.0805  0.3378 -0.4328
  122bbb     H1 3042  10.255   7.611   4.192 -0.3695 -0.1415 -0.7441
  122bbb     H2 3043  10.333   7.753   4.117  0.9829  0.2573 -2.3976
  122bbb     C2 3044  10.155   7.688   4.015 -0.4396 -0.0575  0.4101
  122bbb     H3 3045  10.093   7.744   4.087  0.6460  1.6270  0.0908
  122bbb     H4 3046  10.159   7.756   3.930 -3.2179 -1.2473 -0.8043
  122bbb     N1 3047  10.378   7.573   4.020 -0.1683 -0.5833 -0.3435
  122bbb     C3 3048  10.474   7.506   4.108  0.3703 -0.4927 -0.0063
  122bbb     H5 3049  10.486   7.556   4.205  0.0517  0.0528 -0.2430
  122bbb     H6 3050  10.572   7.508   4.059  0.2624  2.4184 -0.2700
  122bbb     C4 3051  10.438   7.654   3.912 -0.3503  0.1443 -0.1093
  122bbb     H7 3052  10.363   7.726   3.875  0.2930 -0.1111 -2.0307
  122bbb     H8 3053  10.529   7.696   3.955 -1.4581  1.0974  1.4194
  122bbb     C5 3054  10.470   7.566   3.791  0.1760  0.2306  0.2580
  122bbb     H9 3055  10.542   7.488   3.817  0.3017  0.3019  0.1263
  122bbb    H10 3056  10.378   7.514   3.763 -2.0852  3.5250  0.9355
  122bbb     C6 3057  10.435   7.359   4.125  0.0908  0.2010 -0.6800
  122bbb    H11 3058  10.342   7.352   4.183  0.9903 -2.9290  0.6175
  122bbb    H12 3059  10.423   7.310   4.028 -2.4598  1.5859 -1.1430
  122bbb     C7 3060  10.508   7.645   3.672 -0.0152 -0.1180 -0.5599
  122bbb     C8 3061  10.533   7.294   4.217  0.0632  0.8630 -0.0797
  122bbb     O1 3062  10.455   7.756   3.645  0.1191 -0.1279 -0.2450
  122bbb     O2 3063  10.547   7.316   4.336  0.4263  0.3450  0.2892
  122bbb     N4 3064  10.087   7.572   3.967  0.5263  0.5636  0.0574
  122bbb    H21 3065  10.065   7.495   4.030 -0.5572 -0.9607 -2.0585
  123bbb     C1 3066   9.711   7.072   3.152 -0.5229 -0.0624 -0.4279
  123bbb     H1 3067   9.709   6.983   3.215  1.8209  0.0023 -0.1553
  123bbb     H2 3068   9.680   7.044   3.051 -0.7210 -1.2419 -0.0546
  123bbb     C2 3069   9.857   7.116   3.147 -0.4746  0.1728  0.2284
  123bbb     H3 3070   9.925   7.031   3.127  1.7223  0.9972  3.3630
  123bbb     H4 3071   9.874   7.197   3.075  0.0474 -0.0797  0.0570
  123bbb     N1 3072   9.619   7.177   3.208  0.1471 -0.4578  0.4544
  123bbb     C3 3073   9.626   7.299   3.129  0.0618  0.3051 -0.1108
  123bbb     H5 3074   9.526   7.346   3.122 -0.4299 -0.8818 -2.0274
  123bbb     H6 3075   9.651   7.266   3.027 -0.5453 -0.6020  0.0225
  123bbb     C4 3076   9.487   7.114   3.208  0.9317  0.7903  0.4137
  123bbb     H7 3077   9.409   7.191   3.203 -2.5415 -2.4148  0.9014
  123bbb     H8 3078   9.472   7.039   3.129  0.0703  1.6144 -0.2246
  123bbb     C5 3079   9.463   7.025   3.328  0.5866 -0.1024  0.4804
  123bbb     H9 3080   9.515   6.928   3.321 -2.7532 -2.1565  1.6792
  123bbb    H10 3081   9.486   7.084   3.417 -1.1520 -0.1008  0.9671
  123bbb     C6 3082   9.707   7.407   3.203 -0.1110 -0.6771  0.4707
  123bbb    H11 3083   9.677   7.431   3.306  0.6801  3.2809 -0.0589
  123bbb    H12 3084   9.815   7.390   3.207  0.0004 -0.1420 -0.1226
  123bbb     C7 3085   9.321   6.989   3.336 -0.7153  0.5441 -0.1780
  123bbb     C8 3086   9.684   7.536   3.124 -0.3959 -0.1470  0.1738
  123bbb     O1 3087   9.240   7.021   3.252  0.4685 -0.8278  0.1617
  123bbb     O2 3088   9.573   7.585   3.102 -0.0270 -0.2140 -0.8023
  123bbb     N4 3089   9.895   7.151   3.286  0.4015  0.0779 -0.2233
  123bbb    H21 3090   9.828   7.176   3.357  1.7106  0.1856  1.0266
  124bbb     C1 3091  11.063   5.977   4.996  0.2950  0.6716  0.6476
  124bbb     H1 3092  10.995   5.955   4.913  0.0360 -0.9883  1.2588
  124bbb     H2 3093  11.010   6.063   5.039 -1.8088 -0.1589 -0.1121
  124bbb     C2 3094  11.200   6.032   4.946 -0.1660  0.4360 -0.3248
  124bbb     H3 3095  11.265   6.045   5.033  1.5098  0.9054 -1.5884
  124bbb     H4 3096  11.246   5.960   4.877  1.5201  0.2163  0.9588
  124bbb     N1 3097  11.057   5.872   5.091 -0.3047  0.3676  0.6801
  124bbb     C3 3098  11.090   5.745   5.020 -0.0312 -0.3333  0.3987
  124bbb     H5 3099  11.039   5.751   4.923 -1.5065  0.7577  1.2003
  124bbb     H6 3100  11.036   5.657   5.058 -0.1356 -1.2669 -1.7313
  124bbb     C4 3101  10.922   5.858   5.142 -0.5311  0.2659 -0.7390
  124bbb     H7 3102  10.887   5.959   5.167  0.0336 -0.2701  2.7591
  124bbb     H8 3103  10.861   5.806   5.067  0.0076  0.1705 -1.1188
  124bbb     C5 3104  10.911   5.777   5.263 -0.1952  0.2992  0.8016
  124bbb     H9 3105  10.952   5.677   5.247  0.8801  0.6875  1.0079
  124bbb    H10 3106  10.977   5.819   5.341  4.2980  0.3882 -2.6438
  124bbb     C6 3107  11.241   5.718   5.026 -1.1349  0.2860 -0.2543
  124bbb    H11 3108  11.287   5.750   4.932 -0.3361 -2.6562 -0.9600
  124bbb    H12 3109  11.276   5.787   5.104 -1.7669  1.1407 -0.7167
  124bbb     C7 3110  10.780   5.760   5.321  0.4045 -0.7768  0.4783
  124bbb     C8 3111  11.279   5.573   5.047  0.8060 -0.3584 -0.4716
  124bbb     O1 3112  10.689   5.837   5.300 -0.5835  0.2300 -0.2227
  124bbb     O2 3113  11.268   5.510   5.148 -0.3448  0.6163  0.6778
  124bbb     N4 3114  11.198   6.170   4.890 -0.1093  0.1215  0.2579
  124bbb    H21 3115  11.186   6.250   4.950  1.9482  1.2183 -0.7000
  125bbb     C1 3116  10.988   6.664   5.284  0.7420 -0.1824  0.4329
  125bbb     H1 3117  10.945   6.587   5.349 -2.9516 -0.1145 -1.6197
  125bbb     H2 3118  10.995   6.748   5.354 -1.4930  1.2187 -0.8851
  125bbb     C2 3119  10.873   6.684   5.182  0.0314 -0.6604  0.2596
  125bbb     H3 3120  10.779   6.714   5.229  1.3903 -1.3673  3.7041
  125bbb     H4 3121  10.899   6.773   5.122  1.9379 -0.0149  1.9360
  125bbb     N1 3122  11.117   6.619   5.222 -0.2253  0.0234 -0.1550
  125bbb     C3 3123  11.180   6.733   5.154  0.9512  0.0452 -0.7599
  125bbb     H5 3124  11.233   6.796   5.227  0.8160 -0.0919 -0.5403
  125bbb     H6 3125  11.107   6.789   5.094  0.7817  1.0268  0.3285
  125bbb     C4 3126  11.206   6.564   5.328  0.3810 -0.9299 -0.0722
  125bbb     H7 3127  11.308   6.562   5.286 -0.4640 -1.3580 -2.2025
  125bbb     H8 3128  11.218   6.628   5.417  2.1538  0.5981 -1.3424
  125bbb     C5 3129  11.155   6.427   5.381 -0.5773  0.0364  0.7487
  125bbb     H9 3130  11.057   6.402   5.421 -0.3488 -1.5009  0.4310
  125bbb    H10 3131  11.170   6.354   5.300  0.4532  0.4956  0.5058
  125bbb     C6 3132  11.279   6.684   5.061  0.2463 -0.2624  0.5748
  125bbb    H11 3133  11.364   6.627   5.100 -0.8509 -1.5074  1.1796
  125bbb    H12 3134  11.242   6.619   4.982  2.1342 -0.7658  0.0444
  125bbb     C7 3135  11.257   6.371   5.478 -0.1160  0.3698  0.2928
  125bbb     C8 3136  11.332   6.808   4.996 -0.1023  0.2096  0.4732
  125bbb     O1 3137  11.348   6.436   5.524 -0.1254  0.1215  0.3043
  125bbb     O2 3138  11.283   6.850   4.894 -0.2145  0.4593  0.8753
  125bbb     N4 3139  10.862   6.571   5.084  0.1408 -0.1148  0.3696
  125bbb    H21 3140  10.932   6.499   5.099 -0.2396 -0.2798  1.5040
  126ccc     N1 3141   9.065   4.631   5.740 -0.1032 -0.7847  0.3440
  126ccc     H1 3142   8.981   4.584   5.709 -0.9822  0.5294  0.6241
  126ccc     C1 3143   9.082   4.630   5.885  0.2339 -0.0042  0.5307
  126ccc     H2 3144   9.024   4.543   5.918  1.6084 -1.0934  0.1726
  126ccc     C2 3145   9.045   4.770   5.943  0.7530  0.2065  0.4798
  126ccc     H3 3146   9.188   4.613   5.908  0.4611  1.8431  1.0422
  126ccc     H4 3147   9.057   4.850   5.870 -0.2790  1.5120  1.6784
  126ccc     H5 3148   9.121   4.791   6.019  0.4882 -2.1113  1.4654
  126ccc     N2 3149   8.909   4.785   6.005 -0.6981  0.2429 -0.4375
  126ccc     C3 3150   8.789   4.785   5.913 -0.5531 -0.2602  0.3930
  126ccc     C4 3151   8.878   4.717   6.134  0.2669  0.5203  0.2513
  126ccc     H6 3152   8.769   4.708   6.145  0.0130 -0.7097 -2.4517
  126ccc     C5 3153   8.939   4.790   6.253  0.6533  0.2199  0.0107
  126ccc     H7 3154   8.906   4.611   6.127 -1.5726 -0.0581  1.0523
  126ccc     H8 3155   8.883   4.883   6.268  0.6959 -0.1688  3.5007
  126ccc     H9 3156   9.046   4.813   6.245  1.1065 -1.5378  0.4452
  126ccc     C6 3157   8.898   4.715   6.378 -0.1239  0.1801  0.6188
  126ccc     O1 3158   8.980   4.736   6.481  0.7270 -0.2448 -0.4516
  126ccc     O2 3159   8.827   4.617   6.387 -0.2785  0.0145 -0.5102
  126ccc    H10 3160   8.699   4.814   5.969 -1.7186  0.8112 -1.8922
  126ccc    H11 3161   8.769   4.683   5.881  0.3140 -0.3760  0.1909
  126ccc     C7 3162   8.806   4.878   5.793  0.0704  0.2325 -0.0668
  126ccc    H12 3163   8.877   4.828   5.726  0.4806  0.7721 -0.0404
  126ccc    H13 3164   8.844   4.976   5.827  1.2302 -1.1263  2.9212
  126ccc     C8 3165   8.684   4.922   5.720  0.0461  0.2176 -0.0534
  126ccc     O3 3166   8.573   4.912   5.771  0.4827  0.1869 -0.1228
  126ccc     O4 3167   8.704   4.942   5.585  0.9609 -0.2104 -0.6299
  126ccc    H14 3168   9.029   4.819   6.468  4.1743 -1.9957  0.0204
  126ccc    H15 3169   8.800   4.928   5.570  1.7644  0.5785  2.7716
  127ccc     N1 3170   8.747   4.191   5.504 -0.6710  0.0688  0.4713
  127ccc     H1 3171   8.779   4.247   5.582  1.3575 -1.1084  0.5417
  127ccc     C1 3172   8.607   4.149   5.497  0.0566  0.1307  0.1181
  127ccc     H2 3173   8.555   4.183   5.407  1.2004 -2.5487 -1.6692
  127ccc     C2 3174   8.530   4.189   5.622  0.1069 -0.0031 -0.2616
  127ccc     H3 3175   8.610   4.039   5.494 -0.0246 -0.0009  2.5635
  127ccc     H4 3176   8.571   4.134   5.708 -0.9206 -0.9453 -0.3606
  127ccc     H5 3177   8.425   4.160   5.612 -0.1969 -0.2088  2.7045
  127ccc     N2 3178   8.548   4.344   5.649  0.3133  0.0426  0.3109
  127ccc     C3 3179   8.492   4.374   5.781  0.5336 -0.2619  0.0854
  127ccc     C4 3180   8.519   4.431   5.532 -0.5338  0.1944  0.4184
  127ccc     H6 3181   8.580   4.401   5.446 -0.7178  0.6079  0.1385
  127ccc     C5 3182   8.553   4.576   5.563  0.0640 -0.2467  0.2509
  127ccc     H7 3183   8.419   4.410   5.492 -0.4994  0.9606 -0.0846
  127ccc     H8 3184   8.661   4.586   5.583 -0.3270 -0.0869  2.5571
  127ccc     H9 3185   8.499   4.615   5.650  1.1239  1.0304  0.3677
  127ccc     C6 3186   8.520   4.660   5.437  0.0988  0.6198  0.0919
  127ccc     O1 3187   8.459   4.777   5.463 -0.0251  0.2168  0.1229
  127ccc     O2 3188   8.579   4.636   5.332 -0.1920 -0.2296 -0.0909
  127ccc    H10 3189   8.524   4.470   5.823 -1.3336 -0.0017  1.0286
  127ccc    H11 3190   8.539   4.296   5.843  3.0791  0.4211 -0.8472
  127ccc     C7 3191   8.337   4.365   5.784  0.2287  0.2671  0.2628
  127ccc    H12 3192   8.307   4.300   5.867  2.1259 -1.0965 -0.0385
  127ccc    H13 3193   8.299   4.320   5.691 -0.2853 -1.9975  1.4941
  127ccc     C8 3194   8.274   4.503   5.809  0.0177  1.1494  0.5728
  127ccc     O3 3195   8.222   4.566   5.721 -0.1021 -0.1299  0.2221
  127ccc     O4 3196   8.228   4.521   5.934 -0.9081 -0.0204  0.1389
  127ccc    H14 3197   8.450   4.825   5.378 -0.6747  0.2320  0.1974
  127ccc    H15 3198   8.267   4.446   5.982 -1.3151 -0.3283 -0.0012
  128ccc     N1 3199   9.982   4.392   5.305  0.1857  0.2668  0.9730
  128ccc     H1 3200  10.006   4.426   5.213 -0.3249 -1.7109  0.0382
  128ccc     C1 3201   9.860   4.447   5.374  0.4151 -0.1655  0.0114
  128ccc     H2 3202   9.786   4.467   5.296  1.3040  0.3371 -0.7267
  128ccc     C2 3203   9.888   4.581   5.456 -0.3389  0.0598 -0.5127
  128ccc     H3 3204   9.818   4.366   5.436 -0.5200 -0.4679 -0.9999
  128ccc     H4 3205   9.951   4.555   5.542 -0.5896  1.1388  0.0172
  128ccc     H5 3206   9.786   4.602   5.492 -1.3206 -0.4954 -2.7658
  128ccc     N2 3207   9.938   4.697   5.378 -0.1374 -0.5397 -0.2421
  128ccc     C3 3208  10.001   4.809   5.456  0.0091 -0.4862  0.3244
  128ccc     C4 3209   9.838   4.753   5.289 -0.4733 -0.2712 -0.8108
  128ccc     H6 3210   9.788   4.665   5.247 -0.3909 -2.4204  3.1029
  128ccc     C5 3211   9.905   4.837   5.176  0.1686  0.5596 -0.1316
  128ccc     H7 3212   9.762   4.807   5.346  1.3559  0.1130  1.4150
  128ccc     H8 3213   9.999   4.795   5.139  0.7068  2.1155 -0.5963
  128ccc     H9 3214   9.925   4.937   5.216 -0.9085  1.6531 -2.1993
  128ccc     C6 3215   9.808   4.862   5.058 -0.0039  0.1897 -0.4190
  128ccc     O1 3216   9.848   4.944   4.957  0.2513  0.1060  0.8907
  128ccc     O2 3217   9.692   4.820   5.052  0.1728  0.1326  0.3055
  128ccc    H10 3218  10.043   4.887   5.392  1.6970 -0.6856  1.1371
  128ccc    H11 3219  10.090   4.765   5.503 -0.1549  0.6876  1.8175
  128ccc     C7 3220   9.914   4.866   5.563  0.5228  0.4064  0.8579
  128ccc    H12 3221   9.887   4.789   5.635  0.4269 -0.1053  0.2849
  128ccc    H13 3222   9.824   4.907   5.515 -0.6591 -3.3622 -0.4826
  128ccc     C8 3223   9.989   4.976   5.639 -0.0806  0.2350 -0.2046
  128ccc     O3 3224  10.102   5.024   5.618  0.0370 -0.2592  0.2908
  128ccc     O4 3225   9.897   5.047   5.710  0.4294 -0.8605  0.1745
  128ccc    H14 3226   9.929   4.980   4.998  0.8998 -0.5132  0.1813
  128ccc    H15 3227   9.821   4.989   5.723 -0.0210 -0.2518  0.2954
  129ccc     N1 3228  10.600   4.415   5.074 -0.6455 -0.2944 -0.4026
  129ccc     H1 3229  10.500   4.412   5.057 -0.4668  0.0283 -1.5671
  129ccc     C1 3230  10.678   4.536   5.090  0.7564  0.2589 -0.3689
  129ccc     H2 3231  10.755   4.527   5.168  0.4258  2.1935  0.2347
  129ccc     C2 3232  10.593   4.660   5.113 -0.1330 -0.1316 -0.0341
  129ccc     H3 3233  10.729   4.555   4.994  0.1988 -0.8241 -0.8869
  129ccc     H4 3234  10.554   4.694   5.016 -1.7021  1.4403  1.1075
  129ccc     H5 3235  10.654   4.740   5.156 -1.1886  1.6592 -1.7091
  129ccc     N2 3236  10.472   4.637   5.203 -0.3098  0.8199  0.3149
  129ccc     C3 3237  10.372   4.749   5.198 -0.2753  0.5306 -0.1178
  129ccc     C4 3238  10.500   4.598   5.339  0.2945  0.3907 -0.6420
  129ccc     H6 3239  10.581   4.524   5.345 -0.2426 -0.2312 -0.8985
  129ccc     C5 3240  10.380   4.540   5.411 -0.2811 -0.3717  0.0826
  129ccc     H7 3241  10.532   4.684   5.398  0.2264 -0.4147  0.6214
  129ccc     H8 3242  10.329   4.477   5.337 -0.6776 -0.2829  0.2731
  129ccc     H9 3243  10.309   4.615   5.448  0.5979  0.0244  0.9902
  129ccc     C6 3244  10.427   4.438   5.520 -0.0437 -0.3434  0.2814
  129ccc     O1 3245  10.431   4.485   5.644  0.1932 -0.3342  0.3322
  129ccc     O2 3246  10.479   4.333   5.507 -0.4186  0.7771  0.0678
  129ccc    H10 3247  10.287   4.725   5.264  2.7842 -2.8510  3.0286
  129ccc    H11 3248  10.339   4.768   5.095  1.2255  2.4621 -0.3058
  129ccc     C7 3249  10.432   4.884   5.232  0.3390  0.1595  0.1686
  129ccc    H12 3250  10.525   4.902   5.176 -1.7007 -2.9639 -5.0380
  129ccc    H13 3251  10.451   4.876   5.340  0.0250 -2.8298  0.1000
  129ccc     C8 3252  10.339   4.994   5.213  0.3808  0.6992 -0.4907
  129ccc     O3 3253  10.278   5.048   5.304 -0.2397  0.1840  0.1799
  129ccc     O4 3254  10.345   5.047   5.092 -0.3808  0.7909  0.3144
  129ccc    H14 3255  10.376   4.565   5.641  0.5559 -0.1208 -0.8588
  129ccc    H15 3256  10.415   4.999   5.046  0.8479  0.6756  2.1857
  130ccc     N1 3257   9.130   3.512   3.377  0.2309  0.1238  0.3323
  130ccc     H1 3258   9.107   3.610   3.369 -0.3680 -0.0614 -0.4299
  130ccc     C1 3259   9.253   3.466   3.311  0.2045  0.3853  0.8209
  130ccc     H2 3260   9.248   3.357   3.306 -1.7855  0.4614  0.1057
  130ccc     C2 3261   9.379   3.536   3.370 -0.4636  0.0582  0.1324
  130ccc     H3 3262   9.233   3.488   3.206 -2.5005 -0.8636  0.9878
  130ccc     H4 3263   9.385   3.633   3.320 -1.6339 -0.6244 -1.4334
  130ccc     H5 3264   9.463   3.489   3.317  1.4369  2.4594  0.8366
  130ccc     N2 3265   9.392   3.535   3.524  0.7156  0.9907 -0.1362
  130ccc     C3 3266   9.400   3.395   3.572 -0.1456 -0.2682 -0.4158
  130ccc     C4 3267   9.505   3.625   3.565  0.1217  0.1222  0.3254
  130ccc     H6 3268   9.553   3.598   3.660 -0.1336 -0.2393  0.3571
  130ccc     C5 3269   9.442   3.773   3.569  0.1017 -0.0583  0.5125
  130ccc     H7 3270   9.584   3.625   3.489  0.3634  1.4702  0.5473
  130ccc     H8 3271   9.377   3.787   3.481  0.9655 -0.5809 -0.2279
  130ccc     H9 3272   9.524   3.845   3.578  0.3604 -0.6261  3.8873
  130ccc     C6 3273   9.359   3.790   3.695 -0.4349  0.0554  0.1291
  130ccc     O1 3274   9.257   3.713   3.690 -0.0260 -0.4759  0.5148
  130ccc     O2 3275   9.358   3.882   3.774 -0.0860 -0.5672  0.5390
  130ccc    H10 3276   9.496   3.360   3.533  1.0471  0.8606  1.3357
  130ccc    H11 3277   9.316   3.341   3.527 -1.8265  1.2320  0.7604
  130ccc     C7 3278   9.379   3.386   3.729 -0.1118  0.4135  0.4723
  130ccc    H12 3279   9.298   3.451   3.767 -0.0004  0.0037  1.4339
  130ccc    H13 3280   9.466   3.410   3.791 -1.1522 -0.7794  2.4847
  130ccc     C8 3281   9.345   3.239   3.751  0.6784 -0.8213  0.7372
  130ccc     O3 3282   9.250   3.183   3.704 -0.2317 -0.2638  0.4726
  130ccc     O4 3283   9.454   3.174   3.787  0.0950 -0.2911 -0.3478
  130ccc    H14 3284   9.289   3.658   3.616  0.5242  0.1985  0.2382
  130ccc    H15 3285   9.514   3.247   3.809  0.3023 -1.0524  1.7848
  131ccc     N1 3286   8.443   3.686   3.477  0.2094 -0.4608  0.0436
  131ccc     H1 3287   8.495   3.686   3.390 -1.9765 -1.0673 -1.3524
  131ccc     C1 3288   8.303   3.734   3.482 -0.0406 -0.1245 -0.7287
  131ccc     H2 3289   8.235   3.664   3.532 -1.4232  1.4444 -0.2966
  131ccc     C2 3290   8.240   3.744   3.342 -0.3808  0.5822  0.0558
  131ccc     H3 3291   8.304   3.830   3.536  1.7373  0.3174 -1.4807
  131ccc     H4 3292   8.142   3.792   3.355 -0.4590  0.7010 -0.9498
  131ccc     H5 3293   8.220   3.644   3.302 -0.0676  1.2714 -1.9189
  131ccc     N2 3294   8.316   3.823   3.243 -0.6845 -0.1577 -0.4001
  131ccc     C3 3295   8.330   3.966   3.273  0.0480  0.2620 -0.1304
  131ccc     C4 3296   8.273   3.799   3.102 -0.3827  0.4216  0.0451
  131ccc     H6 3297   8.350   3.844   3.038 -1.1240  1.7022  0.0224
  131ccc     C5 3298   8.132   3.859   3.070 -0.3154 -0.4518 -0.0086
  131ccc     H7 3299   8.279   3.692   3.080  0.1947  0.7138 -1.3030
  131ccc     H8 3300   8.123   3.968   3.083  0.0659 -0.5191  0.8543
  131ccc     H9 3301   8.049   3.822   3.131 -0.8156  0.4684 -0.1044
  131ccc     C6 3302   8.084   3.810   2.936 -0.3238  0.8097  0.4025
  131ccc     O1 3303   8.123   3.880   2.833 -0.2384  0.7347 -0.2084
  131ccc     O2 3304   8.043   3.696   2.930  0.3919 -0.2515  0.0355
  131ccc    H10 3305   8.359   3.979   3.378  0.3941 -0.2238 -0.1609
  131ccc    H11 3306   8.226   4.000   3.266 -1.3652 -2.6569  3.0705
  131ccc     C7 3307   8.443   4.023   3.192  0.2995 -0.3290  0.0291
  131ccc    H12 3308   8.406   4.043   3.091  0.7257  0.0829 -0.0535
  131ccc    H13 3309   8.524   3.950   3.183 -0.2851 -1.0358  0.4313
  131ccc     C8 3310   8.499   4.147   3.242 -0.1888 -0.1770 -0.4789
  131ccc     O3 3311   8.471   4.207   3.341 -0.7797 -0.6640  0.1542
  131ccc     O4 3312   8.604   4.192   3.165 -0.4529  0.2389 -0.6972
  131ccc    H14 3313   8.172   3.953   2.874  1.9979 -1.6549  1.7187
  131ccc    H15 3314   8.611   4.129   3.092  2.6447 -0.6620  0.2527
  132ccc     N1 3315   8.920   2.997   3.982 -0.1283  0.5235  0.1804
  132ccc     H1 3316   8.900   2.898   3.977 -2.2285  0.9749 -1.5048
  132ccc     C1 3317   9.002   3.061   3.872 -0.1716 -0.4599 -0.1670
  132ccc     H2 3318   9.030   3.157   3.916 -1.0863 -0.4141  0.3460
  132ccc     C2 3319   8.912   3.082   3.746  0.0979  0.0276  0.1673
  132ccc     H3 3320   9.093   3.004   3.851  1.9769  3.1442 -1.5936
  132ccc     H4 3321   8.961   3.148   3.673  1.1865 -0.8039  0.1157
  132ccc     H5 3322   8.825   3.142   3.775  0.7963  1.5152 -0.6991
  132ccc     N2 3323   8.863   2.953   3.669  0.3671 -0.4748 -0.3174
  132ccc     C3 3324   8.777   2.991   3.550  0.1084 -0.5514 -0.8474
  132ccc     C4 3325   8.961   2.844   3.638  0.1844  0.0200  0.5464
  132ccc     H6 3326   9.019   2.820   3.727  1.4057  0.0306 -0.2213
  132ccc     C5 3327   9.060   2.884   3.528  0.4364 -0.2736  0.0169
  132ccc     H7 3328   8.903   2.758   3.603  0.2311 -0.5819  1.8872
  132ccc     H8 3329   9.109   2.975   3.562 -3.6449  1.5357  1.7437
  132ccc     H9 3330   9.011   2.911   3.434  1.9830  0.8318 -0.4979
  132ccc     C6 3331   9.166   2.778   3.503  0.3031  0.0114  0.3564
  132ccc     O1 3332   9.272   2.831   3.433 -0.0705 -0.1086  0.0967
  132ccc     O2 3333   9.185   2.668   3.559  0.3117 -0.4028  0.1080
  132ccc    H10 3334   8.762   2.903   3.486  1.9982 -0.7705 -1.0514
  132ccc    H11 3335   8.824   3.067   3.487 -0.7925  0.3072 -0.5023
  132ccc     C7 3336   8.637   3.044   3.593 -0.3777  0.1336 -0.2392
  132ccc    H12 3337   8.640   3.125   3.667 -0.8040  1.0202 -1.1638
  132ccc    H13 3338   8.583   2.957   3.631 -0.8738  0.8115  0.6561
  132ccc     C8 3339   8.564   3.102   3.481 -0.9513  0.0784 -1.1387
  132ccc     O3 3340   8.580   3.213   3.443  0.0602 -0.4377  0.6035
  132ccc     O4 3341   8.473   3.018   3.421 -0.4147 -0.0095 -0.0077
  132ccc    H14 3342   9.245   2.920   3.403  1.1156 -0.2818 -1.6944
  132ccc    H15 3343   8.471   2.942   3.483 -0.4654 -0.5464 -0.6528
  133ccc     N1 3344   8.156   2.963   4.438  0.0864  0.6549  0.7190
  133ccc     H1 3345   8.202   2.978   4.528  1.5695  0.4836  0.0183
  133ccc     C1 3346   8.040   3.041   4.403  0.9358  0.2344 -0.2193
  133ccc     H2 3347   8.010   3.107   4.485 -0.5568 -0.8860  0.1874
  133ccc     C2 3348   7.922   2.942   4.383  0.8989  0.8156 -0.0322
  133ccc     H3 3349   8.057   3.098   4.311  0.8956  0.2006 -0.2481
  133ccc     H4 3350   7.902   2.887   4.476  0.2061  2.5748  0.8913
  133ccc     H5 3351   7.951   2.863   4.312 -0.4490  0.9897 -0.8282
  133ccc     N2 3352   7.784   2.991   4.333 -0.3531  0.8585 -0.1494
  133ccc     C3 3353   7.682   2.880   4.322  0.4178  0.4069  0.3407
  133ccc     C4 3354   7.790   3.070   4.205 -0.4558  0.7272  0.4162
  133ccc     H6 3355   7.696   3.114   4.171  0.8300  1.1788 -2.9154
  133ccc     C5 3356   7.861   2.993   4.087  0.0060 -0.1656  0.2390
  133ccc     H7 3357   7.849   3.160   4.228  0.0581  0.0786  1.7764
  133ccc     H8 3358   7.805   2.899   4.081 -0.9075  0.2241  2.0262
  133ccc     H9 3359   7.967   2.966   4.093  0.1538  0.5527  0.9865
  133ccc     C6 3360   7.843   3.050   3.951 -0.4043 -0.8359 -0.6563
  133ccc     O1 3361   7.952   3.109   3.905 -0.2937 -0.5560  0.1692
  133ccc     O2 3362   7.737   3.069   3.903  0.1090 -0.3581  0.6770
  133ccc    H10 3363   7.711   2.797   4.256 -0.7984  0.8570 -0.7843
  133ccc    H11 3364   7.591   2.920   4.276 -0.1382 -0.7516  0.4001
  133ccc     C7 3365   7.645   2.828   4.470 -0.3200 -0.0991  0.0093
  133ccc    H12 3366   7.595   2.913   4.519  1.0836  2.4834 -2.7459
  133ccc    H13 3367   7.734   2.794   4.526  0.1556  0.6330 -0.2923
  133ccc     C8 3368   7.541   2.718   4.459  0.2848  0.6903  0.3194
  133ccc     O3 3369   7.486   2.681   4.358 -0.0977  0.3664  0.0244
  133ccc     O4 3370   7.513   2.667   4.576 -0.5613 -0.0295 -0.0035
  133ccc    H14 3371   8.025   3.093   3.967 -1.4545 -0.0561  1.7347
  133ccc    H15 3372   7.551   2.733   4.637 -0.1853  1.0835 -1.3917
  134ccc     N1 3373  11.494   4.910   4.800 -0.6911 -0.8957 -0.7009
  134ccc     H1 3374  11.574   4.970   4.781 -0.3888 -0.6669  1.1295
  134ccc     C1 3375  11.444   4.821   4.697 -0.3601 -0.8037 -0.1167
  134ccc     H2 3376  11.343   4.862   4.682  0.1111  1.0068  1.3184
  134ccc     C2 3377  11.444   4.670   4.740 -0.4086 -0.2560  0.4615
  134ccc     H3 3378  11.502   4.835   4.605 -0.0102 -0.8207  0.1030
  134ccc     H4 3379  11.406   4.606   4.659 -0.8355 -1.7139  1.7771
  134ccc     H5 3380  11.379   4.661   4.828  0.9027  1.7843  1.7241
  134ccc     N2 3381  11.582   4.628   4.767  0.0200  0.2721 -0.6447
  134ccc     C3 3382  11.596   4.515   4.868 -0.1302 -0.3188 -0.0834
  134ccc     C4 3383  11.658   4.606   4.637  0.2961 -0.4100 -0.3456
  134ccc     H6 3384  11.637   4.513   4.582  1.7264  0.2783 -2.1788
  134ccc     C5 3385  11.812   4.605   4.683  0.0927  0.3545 -0.0253
  134ccc     H7 3386  11.632   4.682   4.562 -1.2837  2.1158  2.5645
  134ccc     H8 3387  11.838   4.525   4.753  4.0232  2.6185  1.3771
  134ccc     H9 3388  11.823   4.709   4.715 -1.1961  0.7207 -0.7024
  134ccc     C6 3389  11.902   4.583   4.560  0.6365 -0.1455  0.3125
  134ccc     O1 3390  12.032   4.570   4.591  0.2808  0.4001  0.4772
  134ccc     O2 3391  11.870   4.574   4.446 -0.1864 -0.0303 -0.1918
  134ccc    H10 3392  11.690   4.458   4.869 -0.8483 -1.5522 -0.4286
  134ccc    H11 3393  11.519   4.440   4.847 -0.6537 -0.2663  1.5168
  134ccc     C7 3394  11.561   4.575   5.003 -0.1988  0.2630 -0.2445
  134ccc    H12 3395  11.574   4.488   5.068 -0.5976 -0.2379 -0.8398
  134ccc    H13 3396  11.461   4.620   5.008 -0.2751  0.0783 -0.0951
  134ccc     C8 3397  11.652   4.680   5.056 -0.0888 -0.1940 -1.0486
  134ccc     O3 3398  11.696   4.680   5.170  0.0411  0.7581  0.1705
  134ccc     O4 3399  11.682   4.769   4.966 -0.1469 -0.5253 -0.5651
  134ccc    H14 3400  12.031   4.572   4.689 -1.1240 -1.8358  0.5791
  134ccc    H15 3401  11.634   4.736   4.888 -0.2840  0.1785 -0.7903
  135ccc     N1 3402  11.796   5.491   5.201  0.1285  0.2687  0.8371
  135ccc     H1 3403  11.714   5.537   5.163 -0.4096 -0.1085  1.5275
  135ccc     C1 3404  11.921   5.545   5.156 -0.0108  0.3524 -0.3546
  135ccc     H2 3405  11.969   5.474   5.088  1.5460  1.5576 -0.5622
  135ccc     C2 3406  12.011   5.595   5.278 -0.5968 -0.5891  0.1107
  135ccc     H3 3407  11.903   5.634   5.094  0.7321  1.1095  0.4991
  135ccc     H4 3408  12.114   5.597   5.240  0.0103 -1.0113  1.6190
  135ccc     H5 3409  12.006   5.517   5.356  1.2880 -0.5149  0.3454
  135ccc     N2 3410  11.970   5.725   5.341 -0.4774 -0.0360 -0.0785
  135ccc     C3 3411  11.841   5.739   5.411 -0.4032 -0.5850  0.9573
  135ccc     C4 3412  11.985   5.847   5.256  0.1691  0.0619  0.1242
  135ccc     H6 3413  11.902   5.838   5.185  1.3604 -3.6397 -1.0218
  135ccc     C5 3414  12.124   5.863   5.188 -0.1927  0.0676 -0.5364
  135ccc     H7 3415  11.973   5.939   5.315  1.6320  1.7050 -1.9574
  135ccc     H8 3416  12.160   5.771   5.141 -1.8554  0.0460 -1.8525
  135ccc     H9 3417  12.192   5.887   5.270 -0.7316  0.0836 -0.0910
  135ccc     C6 3418  12.126   5.967   5.087 -0.0538 -0.0637  0.3760
  135ccc     O1 3419  12.228   5.951   4.999 -0.0418  0.5550 -0.0699
  135ccc     O2 3420  12.083   6.078   5.104  0.6908 -0.3344 -0.1356
  135ccc    H10 3421  11.757   5.741   5.340  0.2986  0.4256  0.1295
  135ccc    H11 3422  11.837   5.838   5.459 -0.5540  0.2543 -0.7240
  135ccc     C7 3423  11.830   5.634   5.520  0.4669 -0.0540  0.3843
  135ccc    H12 3424  11.916   5.634   5.588  1.9608 -1.0951 -1.4260
  135ccc    H13 3425  11.824   5.537   5.471 -1.0665 -0.0985  0.6111
  135ccc     C8 3426  11.705   5.650   5.604 -0.1476 -0.9160 -0.2013
  135ccc     O3 3427  11.602   5.709   5.573 -0.0552 -0.0227  0.0936
  135ccc     O4 3428  11.705   5.582   5.714  0.0520  0.0403 -0.0953
  135ccc    H14 3429  12.259   5.862   5.024 -1.1215  0.6497  1.7781
  135ccc    H15 3430  11.790   5.535   5.711  0.0709  0.0908 -0.3486
  136ccc     N1 3431  10.512   5.842   4.910  0.0962  0.0560 -0.0137
  136ccc     H1 3432  10.550   5.750   4.891 -1.3684 -0.4473 -0.6470
  136ccc     C1 3433  10.427   5.858   5.027 -0.0038  0.4409 -0.6138
  136ccc     H2 3434  10.421   5.760   5.076 -1.4252  1.4783  1.3875
  136ccc     C2 3435  10.279   5.903   5.004  0.8280 -0.1177  0.4148
  136ccc     H3 3436  10.475   5.934   5.089 -0.2762 -0.1711  0.3642
  136ccc     H4 3437  10.285   5.998   4.950 -1.2433 -1.2350 -1.9747
  136ccc     H5 3438  10.227   5.929   5.096 -2.2668  0.9910 -1.5082
  136ccc     N2 3439  10.193   5.816   4.919  0.4490  0.6829 -0.4854
  136ccc     C3 3440  10.176   5.676   4.965  0.2044  0.2963 -0.1186
  136ccc     C4 3441  10.070   5.883   4.865 -0.2152 -0.2849  0.0902
  136ccc     H6 3442  10.024   5.810   4.797  3.4796 -1.1136 -1.7638
  136ccc     C5 3443  10.107   6.008   4.787 -0.9093  0.0431 -0.3039
  136ccc     H7 3444   9.993   5.905   4.940  1.8530  1.6113  1.8066
  136ccc     H8 3445  10.201   5.993   4.732 -0.1372  0.4667  0.8653
  136ccc     H9 3446  10.117   6.097   4.850 -0.2723  1.7883 -2.7080
  136ccc     C6 3447   9.997   6.045   4.691 -0.3079 -0.5156  0.3208
  136ccc     O1 3448   9.992   6.180   4.674  0.2024  0.1653 -0.0480
  136ccc     O2 3449   9.941   5.967   4.619  0.8730  0.4009 -0.1849
  136ccc    H10 3450  10.132   5.679   5.065 -0.9665  0.9211 -0.6354
  136ccc    H11 3451  10.276   5.632   4.975 -0.4051 -0.9500  0.7148
  136ccc     C7 3452  10.099   5.585   4.880  0.4628 -0.4593  0.5676
  136ccc    H12 3453  10.137   5.583   4.776  1.0410  0.3961  0.7474
  136ccc    H13 3454   9.994   5.615   4.879  0.0785 -1.5340 -2.3609
  136ccc     C8 3455  10.113   5.443   4.938 -0.0754 -0.1947  0.5529
  136ccc     O3 3456  10.180   5.395   5.029 -0.1522 -0.4299  0.0893
  136ccc     O4 3457  10.020   5.361   4.891  0.3814 -0.5399 -0.6930
  136ccc    H14 3458  10.063   6.206   4.735  0.2331  0.4520 -0.2061
  136ccc    H15 3459   9.971   5.424   4.835 -2.0611 -1.6653  0.0411
  137ccc     N1 3460  10.983   6.159   4.193 -0.4172  0.6078 -0.0745
  137ccc     H1 3461  11.039   6.125   4.271 -1.0270  1.9386  0.9857
  137ccc     C1 3462  11.027   6.266   4.104 -0.0154 -0.0796 -0.6094
  137ccc     H2 3463  11.104   6.222   4.040 -0.1309 -1.1558 -0.0272
  137ccc     C2 3464  11.081   6.385   4.186  0.8215  0.1929  0.0818
  137ccc     H3 3465  10.942   6.303   4.046  0.0272 -0.5629 -0.9824
  137ccc     H4 3466  11.141   6.348   4.271 -0.2514  1.9545  1.6814
  137ccc     H5 3467  11.000   6.445   4.228  0.4598  1.0909 -1.8007
  137ccc     N2 3468  11.171   6.479   4.112  0.4909  0.0563  0.3639
  137ccc     C3 3469  11.223   6.583   4.196 -0.6805 -0.7278 -0.2849
  137ccc     C4 3470  11.146   6.520   3.974  0.1335 -0.5272 -0.4450
  137ccc     H6 3471  11.237   6.575   3.946  1.0476 -0.2774  2.6747
  137ccc     C5 3472  11.010   6.591   3.949 -0.9215 -0.8916 -0.8030
  137ccc     H7 3473  11.146   6.426   3.917 -1.2849 -1.3286  0.8249
  137ccc     H8 3474  11.002   6.691   3.994 -2.9220 -1.2844 -0.1991
  137ccc     H9 3475  10.927   6.541   4.000  0.1837 -0.3810  1.6602
  137ccc     C6 3476  10.982   6.599   3.806  0.0956  0.2923  0.3570
  137ccc     O1 3477  10.907   6.706   3.775  0.5544  0.5668 -0.2561
  137ccc     O2 3478  10.982   6.503   3.736 -0.0566  0.1378  0.8768
  137ccc    H10 3479  11.143   6.644   4.239  0.4494 -0.2848  1.2679
  137ccc    H11 3480  11.271   6.661   4.134 -2.6345  1.8239  1.2083
  137ccc     C7 3481  11.321   6.528   4.299 -0.6273  0.1357 -0.0233
  137ccc    H12 3482  11.404   6.488   4.239  0.8139  1.6823  0.8457
  137ccc    H13 3483  11.279   6.451   4.365 -1.5860  1.2198  0.6661
  137ccc     C8 3484  11.377   6.634   4.393  0.6893  0.0555  0.0192
  137ccc     O3 3485  11.322   6.737   4.408 -0.2998 -0.6599  0.0665
  137ccc     O4 3486  11.469   6.587   4.479  0.0364  0.3745  0.0408
  137ccc    H14 3487  10.880   6.689   3.683 -1.1853 -0.7304  0.4308
  137ccc    H15 3488  11.489   6.495   4.453  1.1543  0.2689  1.1837
  138ccc     N1 3489  10.769   4.067   5.324  0.0599  0.4934 -0.2157
  138ccc     H1 3490  10.785   4.121   5.240 -3.2261 -2.7643 -3.2813
  138ccc     C1 3491  10.713   4.144   5.433  0.1669  0.3698 -0.7403
  138ccc     H2 3492  10.690   4.242   5.389  0.3904  0.6758 -0.1863
  138ccc     C2 3493  10.812   4.163   5.554 -0.4066  0.2781 -0.3071
  138ccc     H3 3494  10.619   4.106   5.475  0.6942  1.8822  2.1203
  138ccc     H4 3495  10.843   4.063   5.586 -1.7196  0.4985  1.8962
  138ccc     H5 3496  10.742   4.194   5.633 -0.8261 -0.7701 -0.2566
  138ccc     N2 3497  10.936   4.253   5.542 -0.5622 -0.3625  0.2925
  138ccc     C3 3498  10.911   4.392   5.493  0.3216  0.6987 -0.4539
  138ccc     C4 3499  11.052   4.202   5.465 -0.5567 -0.3734  0.1800
  138ccc     H6 3500  11.031   4.193   5.358  2.4964  0.9008 -0.6289
  138ccc     C5 3501  11.098   4.061   5.512  0.9694  0.1913 -0.0274
  138ccc     H7 3502  11.133   4.273   5.483 -2.4913  1.4512  2.3071
  138ccc     H8 3503  11.033   3.985   5.468  2.5355 -0.6575 -0.9471
  138ccc     H9 3504  11.076   4.042   5.618 -2.2838 -2.6646 -1.0336
  138ccc     C6 3505  11.244   4.048   5.484  0.1049  1.0228  0.1188
  138ccc     O1 3506  11.275   3.929   5.441  0.3675 -0.1782 -0.5736
  138ccc     O2 3507  11.317   4.143   5.481 -0.8237  0.2619  0.3783
  138ccc    H10 3508  10.878   4.398   5.389  2.9119 -0.0542 -1.3985
  138ccc    H11 3509  10.997   4.459   5.506  0.7341  0.2031 -0.6143
  138ccc     C7 3510  10.802   4.464   5.574  0.3199  0.4701  0.2532
  138ccc    H12 3511  10.844   4.475   5.675  2.3370  2.7997 -0.7307
  138ccc    H13 3512  10.708   4.407   5.577 -0.4747  1.7707  1.0669
  138ccc     C8 3513  10.782   4.601   5.523  0.6437 -0.2500 -0.2432
  138ccc     O3 3514  10.821   4.640   5.418  0.1478  0.7214 -0.3162
  138ccc     O4 3515  10.742   4.680   5.625  0.1543 -0.2158 -0.8053
  138ccc    H14 3516  11.195   3.876   5.455  0.7736 -0.3956  1.1387
  138ccc    H15 3517  10.741   4.766   5.579  0.1197 -1.0594 -2.4626
  139ccc     N1 3518  11.284   4.029   4.848 -0.5511 -0.0899  0.3659
  139ccc     H1 3519  11.233   3.985   4.772  0.5164  0.1591 -0.5187
  139ccc     C1 3520  11.416   4.073   4.815 -0.2832  0.0695  0.1320
  139ccc     H2 3521  11.430   4.172   4.860  2.1066  0.0124 -0.3586
  139ccc     C2 3522  11.454   4.071   4.663 -0.2548  0.1477  0.1902
  139ccc     H3 3523  11.483   4.008   4.872 -0.3157  0.3158  0.4531
  139ccc     H4 3524  11.546   4.130   4.645  0.0299 -0.7173 -1.3987
  139ccc     H5 3525  11.374   4.124   4.609  1.2771  0.0244 -2.3913
  139ccc     N2 3526  11.473   3.937   4.597  0.4591 -0.6325  0.2953
  139ccc     C3 3527  11.560   3.848   4.668 -0.3311 -0.1117  0.4755
  139ccc     C4 3528  11.491   3.933   4.453  0.2198 -0.2437 -0.0753
  139ccc     H6 3529  11.565   4.001   4.408 -0.5526  0.4517 -0.3296
  139ccc     C5 3530  11.355   3.974   4.400  0.3622  0.0353  0.7541
  139ccc     H7 3531  11.504   3.829   4.422  0.5643 -0.2395  0.0511
  139ccc     H8 3532  11.351   4.083   4.383 -0.6807 -0.3308 -1.7608
  139ccc     H9 3533  11.267   3.940   4.455 -0.5080  0.2312 -0.4753
  139ccc     C6 3534  11.346   3.900   4.263  0.6459 -0.2787 -0.7257
  139ccc     O1 3535  11.224   3.870   4.222  0.4082  0.0577  0.4975
  139ccc     O2 3536  11.441   3.901   4.188 -0.0140 -0.9539 -0.4838
  139ccc    H10 3537  11.560   3.748   4.621  2.6105  1.0750 -2.5317
  139ccc    H11 3538  11.517   3.830   4.767 -3.5671 -1.5623 -1.0339
  139ccc     C7 3539  11.706   3.902   4.658 -0.2312  0.0848  0.0328
  139ccc    H12 3540  11.717   3.995   4.715  1.3642 -0.5368  0.8011
  139ccc    H13 3541  11.737   3.929   4.556 -1.0355  0.5144 -0.1038
  139ccc     C8 3542  11.812   3.803   4.712 -0.2125 -0.2362 -0.8501
  139ccc     O3 3543  11.784   3.714   4.789  0.2006  0.1717  0.1665
  139ccc     O4 3544  11.925   3.797   4.644  0.7781 -0.1261 -0.0339
  139ccc    H14 3545  11.158   3.878   4.294  1.1415 -1.8607  1.4616
  139ccc    H15 3546  11.971   3.725   4.691  1.7103  0.8893  0.6523
  140ccc     N1 3547  11.509   4.669   4.314  0.0823  0.0674 -0.2205
  140ccc     H1 3548  11.558   4.586   4.283 -2.2834 -1.7337  0.5698
  140ccc     C1 3549  11.551   4.803   4.285 -0.1314 -0.2961 -0.0165
  140ccc     H2 3550  11.487   4.847   4.208 -3.7544 -1.4268  2.1010
  140ccc     C2 3551  11.698   4.797   4.241  0.7063 -0.7274 -0.1717
  140ccc     H3 3552  11.535   4.850   4.383 -0.1830  2.0627 -1.1092
  140ccc     H4 3553  11.678   4.802   4.133  0.9801  4.1720 -0.2261
  140ccc     H5 3554  11.749   4.707   4.278  0.3951 -0.1715  1.7133
  140ccc     N2 3555  11.786   4.908   4.289 -0.2894 -0.0701  0.3900
  140ccc     C3 3556  11.815   4.907   4.437 -0.2207  0.3773  0.0122
  140ccc     C4 3557  11.901   4.933   4.202 -0.0991  0.2792  0.0439
  140ccc     H6 3558  11.861   4.947   4.101 -0.4279  0.6015  0.2170
  140ccc     C5 3559  12.017   4.831   4.235  0.2150 -1.0938  0.0210
  140ccc     H7 3560  11.938   5.031   4.235  2.2726  0.0168 -1.5991
  140ccc     H8 3561  11.970   4.732   4.227  0.2378 -0.9852 -2.0318
  140ccc     H9 3562  12.057   4.831   4.337 -2.3339 -2.0658  1.0955
  140ccc     C6 3563  12.139   4.862   4.145 -0.0209  0.7817  0.3160
  140ccc     O1 3564  12.171   4.767   4.062  0.5367 -0.4306  0.0108
  140ccc     O2 3565  12.189   4.969   4.152  0.3307  0.2070  0.4438
  140ccc    H10 3566  11.896   4.836   4.457 -0.3853 -0.1887 -1.2410
  140ccc    H11 3567  11.726   4.881   4.495  0.0141  1.4524  0.9131
  140ccc     C7 3568  11.833   5.053   4.485 -0.2264 -0.7143 -0.0207
  140ccc    H12 3569  11.754   5.116   4.442  1.3914  0.6799 -1.0951
  140ccc    H13 3570  11.931   5.092   4.454  0.6270 -2.4511  0.4104
  140ccc     C8 3571  11.822   5.071   4.643  0.1659  0.1585  1.2410
  140ccc     O3 3572  11.750   5.011   4.716 -0.5776 -0.3834 -0.4706
  140ccc     O4 3573  11.889   5.178   4.680 -0.6537 -0.1183 -0.6072
  140ccc    H14 3574  12.115   4.693   4.090  2.5566 -1.7811  0.6244
  140ccc    H15 3575  11.954   5.193   4.609 -0.2532 -1.2372 -0.4930
  141ccc     N1 3576  11.313   4.084   3.956 -0.3674 -0.1609  0.5188
  141ccc     H1 3577  11.300   4.014   4.027  0.4369  0.5284  1.3666
  141ccc     C1 3578  11.373   4.049   3.826 -0.1676 -0.0293 -0.0936
  141ccc     H2 3579  11.359   4.130   3.754  1.6332  0.6459  0.2699
  141ccc     C2 3580  11.320   3.921   3.757 -0.4319  0.3255 -0.6382
  141ccc     H3 3581  11.481   4.044   3.841 -0.4879 -0.8371  2.4303
  141ccc     H4 3582  11.373   3.887   3.667 -2.3470 -1.9501 -1.0117
  141ccc     H5 3583  11.219   3.938   3.717 -0.8309 -2.2572 -0.9255
  141ccc     N2 3584  11.326   3.803   3.851 -0.1234  0.4683  0.0277
  141ccc     C3 3585  11.463   3.755   3.888 -0.4438 -0.2581 -0.5219
  141ccc     C4 3586  11.229   3.702   3.826  0.9708  0.3028  0.7830
  141ccc     H6 3587  11.134   3.747   3.793  1.4726  0.1440 -0.9927
  141ccc     C5 3588  11.189   3.616   3.948  0.4750  0.3344 -0.2714
  141ccc     H7 3589  11.257   3.636   3.743 -1.4348  0.9557 -0.6626
  141ccc     H8 3590  11.143   3.673   4.030 -1.6421 -0.6206 -0.7087
  141ccc     H9 3591  11.277   3.567   3.990 -0.1057  0.5167  1.1966
  141ccc     C6 3592  11.087   3.513   3.901  0.3218  0.6709 -0.9838
  141ccc     O1 3593  11.059   3.423   3.996  0.8356 -0.6641  0.0337
  141ccc     O2 3594  11.033   3.504   3.796 -0.2065  0.5522  0.3811
  141ccc    H10 3595  11.452   3.668   3.954 -0.0434 -0.9264 -1.3004
  141ccc    H11 3596  11.516   3.830   3.948 -2.1208  0.4371  0.1415
  141ccc     C7 3597  11.538   3.717   3.754  0.7978 -0.0224 -0.6343
  141ccc    H12 3598  11.559   3.811   3.702 -0.1389  1.2561  1.1615
  141ccc    H13 3599  11.482   3.651   3.688  1.0722 -0.4164 -0.4745
  141ccc     C8 3600  11.673   3.654   3.781 -0.1037  0.0316 -0.7771
  141ccc     O3 3601  11.704   3.605   3.892 -0.2525  0.5772  0.4063
  141ccc     O4 3602  11.743   3.628   3.670 -0.5038  0.4683 -0.1855
  141ccc    H14 3603  11.114   3.449   4.071  0.7558  2.2290 -0.7993
  141ccc    H15 3604  11.701   3.680   3.599  4.0598  1.5459 -2.4695
  142ccc     N1 3605   8.276   5.065   1.521  0.2602 -0.0998 -0.2171
  142ccc     H1 3606   8.185   5.073   1.476 -0.1150 -0.2382  0.4967
  142ccc     C1 3607   8.284   5.077   1.663  0.5866  0.2832 -0.3358
  142ccc     H2 3608   8.352   4.996   1.690 -0.8008 -0.7424  0.1833
  142ccc     C2 3609   8.146   5.064   1.732 -0.4288  0.1808 -0.0826
  142ccc     H3 3610   8.336   5.166   1.700 -1.0468  0.9217  0.5289
  142ccc     H4 3611   8.080   5.146   1.700  0.9366  1.6704  0.8002
  142ccc     H5 3612   8.171   5.093   1.835 -2.9155 -3.0580  1.6334
  142ccc     N2 3613   8.077   4.932   1.742 -0.2544 -0.1697  0.4951
  142ccc     C3 3614   8.165   4.845   1.825  0.1640  0.2792  0.2167
  142ccc     C4 3615   7.949   4.940   1.808  0.8893 -0.4962  0.0355
  142ccc     H6 3616   7.927   4.832   1.810  1.4392 -0.6132 -0.0741
  142ccc     C5 3617   7.854   5.008   1.705 -0.2687  0.0674 -0.2890
  142ccc     H7 3618   7.951   4.983   1.909  0.8272 -2.1123  0.7726
  142ccc     H8 3619   7.859   4.963   1.605  0.1385  0.8042 -0.6090
  142ccc     H9 3620   7.883   5.113   1.695  2.5042 -0.4644  1.0048
  142ccc     C6 3621   7.709   4.997   1.744 -0.5564 -0.3030 -0.0599
  142ccc     O1 3622   7.637   5.094   1.688 -0.2856  0.0279 -0.1371
  142ccc     O2 3623   7.674   4.955   1.851 -0.5719 -0.0868 -0.3423
  142ccc    H10 3624   8.144   4.845   1.933  0.3380  0.6659  0.2532
  142ccc    H11 3625   8.269   4.879   1.820  0.4309  0.3174  3.4263
  142ccc     C7 3626   8.155   4.699   1.784 -0.1056  0.2542  0.7835
  142ccc    H12 3627   8.158   4.685   1.675 -0.4655  2.7933  0.3857
  142ccc    H13 3628   8.064   4.662   1.833  0.1793 -0.0040  1.1291
  142ccc     C8 3629   8.269   4.621   1.840  0.4892  0.1887 -0.0228
  142ccc     O3 3630   8.384   4.619   1.794  0.7416  0.1502 -0.8852
  142ccc     O4 3631   8.250   4.584   1.967  0.0415  0.0220 -0.2557
  142ccc    H14 3632   7.699   5.131   1.623  1.9531 -2.5522  0.3937
  142ccc    H15 3633   8.155   4.602   1.979 -0.0820 -0.2457 -0.7992
  143ccc     N1 3634   8.140   4.561   1.437  0.0492 -0.5359 -0.3075
  143ccc     H1 3635   8.122   4.660   1.455  1.7730 -0.4435  1.1315
  143ccc     C1 3636   8.010   4.490   1.422  0.4247 -0.2966  0.1192
  143ccc     H2 3637   7.932   4.567   1.421  1.5529  0.8699  0.2302
  143ccc     C2 3638   7.980   4.386   1.533  0.4176 -0.6039  0.0709
  143ccc     H3 3639   8.012   4.446   1.321  1.9539 -0.7733  0.3375
  143ccc     H4 3640   8.068   4.323   1.551  0.3060 -0.7314  0.1669
  143ccc     H5 3641   7.900   4.329   1.483  0.4766  1.2135 -2.2985
  143ccc     N2 3642   7.943   4.439   1.672  0.3651  0.0191  0.6483
  143ccc     C3 3643   7.836   4.534   1.683  0.1537 -0.1011 -0.1810
  143ccc     C4 3644   7.947   4.327   1.766  0.2496 -0.1211  0.1851
  143ccc     H6 3645   7.859   4.266   1.742  0.4164 -0.5929  0.7429
  143ccc     C5 3646   7.948   4.364   1.916 -0.3429  0.2284 -0.3168
  143ccc     H7 3647   8.028   4.254   1.755 -0.2120 -0.4914 -0.8259
  143ccc     H8 3648   7.883   4.448   1.944 -0.9144 -0.0246 -0.8458
  143ccc     H9 3649   8.051   4.388   1.944 -0.9325  2.1297  0.3897
  143ccc     C6 3650   7.903   4.261   2.012 -0.3231  0.0571 -0.3198
  143ccc     O1 3651   7.999   4.185   2.060 -0.0948  0.7882 -0.7253
  143ccc     O2 3652   7.787   4.238   2.028  0.2592  0.1426 -0.0793
  143ccc    H10 3653   7.856   4.621   1.619 -0.9446 -0.1783 -0.6499
  143ccc    H11 3654   7.838   4.564   1.788 -1.8180  0.0583 -0.1506
  143ccc     C7 3655   7.693   4.478   1.649 -1.0304  0.0344 -0.2605
  143ccc    H12 3656   7.666   4.404   1.725  0.7760  0.1700  0.5518
  143ccc    H13 3657   7.688   4.427   1.553  2.3151 -2.0414  0.5265
  143ccc     C8 3658   7.592   4.586   1.638 -0.1957 -0.0450 -0.2441
  143ccc     O3 3659   7.623   4.705   1.648 -0.3029 -0.3764 -0.1472
  143ccc     O4 3660   7.471   4.545   1.663 -0.5228  0.7683  0.4013
  143ccc    H14 3661   8.080   4.220   2.019  2.5940 -3.9278 -0.2591
  143ccc    H15 3662   7.484   4.448   1.660  0.6922  0.9304 -1.2005
  144ccc     N1 3663   7.967   4.007   2.572 -0.2146 -0.4010  0.0201
  144ccc     H1 3664   8.066   4.004   2.593  0.1001 -0.8015 -1.3896
  144ccc     C1 3665   7.888   3.899   2.632  0.3206 -0.5155  0.4325
  144ccc     H2 3666   7.881   3.912   2.741 -0.4400 -0.1073  0.3475
  144ccc     C2 3667   7.951   3.764   2.608 -0.2894  0.4426 -0.6033
  144ccc     H3 3668   7.785   3.900   2.593  0.5846  0.9594 -0.3280
  144ccc     H4 3669   7.921   3.687   2.681  2.5444 -0.9020 -0.7094
  144ccc     H5 3670   8.057   3.780   2.631 -0.2106 -1.3826  0.4759
  144ccc     N2 3671   7.938   3.707   2.472  0.2169  0.3288 -0.4237
  144ccc     C3 3672   8.020   3.773   2.366 -0.1103 -0.4547 -0.6801
  144ccc     C4 3673   7.800   3.668   2.425  0.2562  0.3945  0.0497
  144ccc     H6 3674   7.742   3.760   2.412  1.2121  0.8005 -1.7133
  144ccc     C5 3675   7.729   3.574   2.523 -0.0081 -0.2671 -0.5064
  144ccc     H7 3676   7.801   3.616   2.329 -4.6358 -0.2478  0.0988
  144ccc     H8 3677   7.625   3.547   2.501 -0.9620  1.7148  1.1987
  144ccc     H9 3678   7.729   3.621   2.623 -1.6007 -2.2296  0.4992
  144ccc     C6 3679   7.809   3.448   2.542 -0.0037  0.4065  0.3270
  144ccc     O1 3680   7.784   3.383   2.653  0.1946  0.8291 -0.0319
  144ccc     O2 3681   7.889   3.403   2.462 -0.2623  0.4431 -0.0052
  144ccc    H10 3682   8.100   3.837   2.406 -1.2944  1.2118 -0.8346
  144ccc    H11 3683   7.955   3.836   2.304 -2.4846 -3.1555 -1.1071
  144ccc     C7 3684   8.097   3.670   2.283 -0.3106  0.7189  0.3629
  144ccc    H12 3685   8.143   3.714   2.193  1.3269 -0.8523  0.3820
  144ccc    H13 3686   8.025   3.597   2.244  0.8219 -0.2999  0.1269
  144ccc     C8 3687   8.204   3.591   2.352 -0.1754  0.4270 -0.2921
  144ccc     O3 3688   8.317   3.588   2.319  0.2274 -0.1039  0.6922
  144ccc     O4 3689   8.168   3.552   2.472 -0.0547  0.0166  0.3488
  144ccc    H14 3690   7.720   3.442   2.698  1.2824  2.3280 -0.3830
  144ccc    H15 3691   8.072   3.570   2.466 -0.1479 -0.6829 -0.4101
  145ccc     N1 3692   7.797   4.644   2.181 -0.3120  0.2853 -0.0300
  145ccc     H1 3693   7.746   4.627   2.267 -0.6933  3.1470  0.4001
  145ccc     C1 3694   7.744   4.718   2.071  0.2138 -0.1933  0.1561
  145ccc     H2 3695   7.694   4.809   2.107 -2.0515 -1.9059  1.5809
  145ccc     C2 3696   7.638   4.628   1.999  0.2931 -0.1641  0.1990
  145ccc     H3 3697   7.817   4.733   1.991 -0.8613 -1.7897 -1.1724
  145ccc     H4 3698   7.694   4.535   1.979  2.7473  1.1964  0.3137
  145ccc     H5 3699   7.612   4.670   1.901 -1.0372 -3.1066 -0.8168
  145ccc     N2 3700   7.513   4.608   2.082  0.4304 -0.3472  0.4510
  145ccc     C3 3701   7.430   4.729   2.112  0.6747 -0.4853 -0.7568
  145ccc     C4 3702   7.437   4.500   2.021 -0.1130  0.6205 -0.6143
  145ccc     H6 3703   7.328   4.511   2.021 -0.1098  0.7642  0.2949
  145ccc     C5 3704   7.476   4.381   2.103 -0.2179  0.1608  0.0637
  145ccc     H7 3705   7.477   4.479   1.921  1.4797 -0.3430  0.1709
  145ccc     H8 3706   7.422   4.369   2.198 -2.8115 -0.7181 -1.4335
  145ccc     H9 3707   7.585   4.377   2.113 -0.2135 -0.9306 -0.2546
  145ccc     C6 3708   7.434   4.252   2.030  0.3857 -0.4058  0.3297
  145ccc     O1 3709   7.492   4.147   2.085 -0.6655  0.5808  0.5756
  145ccc     O2 3710   7.330   4.234   1.969  0.0753 -0.1889  0.1731
  145ccc    H10 3711   7.374   4.753   2.021  0.1239  0.6130 -0.1414
  145ccc    H11 3712   7.495   4.809   2.148 -0.9899  0.5868 -0.0487
  145ccc     C7 3713   7.326   4.704   2.227 -0.7720 -0.2501  0.2948
  145ccc    H12 3714   7.387   4.672   2.313  1.8098 -1.2843 -1.7554
  145ccc    H13 3715   7.271   4.613   2.199  1.5460 -1.9978  1.0522
  145ccc     C8 3716   7.247   4.825   2.260  0.4739  0.8836 -0.2560
  145ccc     O3 3717   7.264   4.933   2.215  0.3073 -0.8799  0.6082
  145ccc     O4 3718   7.160   4.806   2.358  0.1969  0.1727  0.7055
  145ccc    H14 3719   7.557   4.177   2.151 -0.8987 -1.0506  1.6000
  145ccc    H15 3720   7.163   4.709   2.365 -0.7360  0.1185  0.5458
  146ccc     N1 3721   8.116   6.108   2.925 -0.3686  0.0983 -0.0009
  146ccc     H1 3722   8.108   6.191   2.983 -1.1880  0.0201 -0.0008
  146ccc     C1 3723   8.002   6.075   2.838  0.1824  0.3861 -0.1260
  146ccc     H2 3724   7.932   6.159   2.835 -0.4458  0.2176  3.8268
  146ccc     C2 3725   7.911   5.973   2.911  0.0314  0.3703  0.6310
  146ccc     H3 3726   8.031   6.034   2.741 -1.1274  0.8783 -0.7454
  146ccc     H4 3727   7.963   5.878   2.925  1.5018  1.0740  0.1460
  146ccc     H5 3728   7.832   5.952   2.837  2.1753  1.7702 -2.2860
  146ccc     N2 3729   7.848   6.009   3.041  0.0634 -0.4790  0.0768
  146ccc     C3 3730   7.928   5.999   3.165 -0.4167  0.4678  0.4482
  146ccc     C4 3731   7.748   6.117   3.049  0.0341  0.9545 -0.8292
  146ccc     H6 3732   7.696   6.112   3.145  0.5279  0.9938 -0.5604
  146ccc     C5 3733   7.642   6.105   2.938  0.1453  0.5005  0.0306
  146ccc     H7 3734   7.788   6.218   3.056  0.6752  0.7086 -0.8852
  146ccc     H8 3735   7.609   6.002   2.925 -3.1065  1.3099  1.0406
  146ccc     H9 3736   7.694   6.133   2.845  1.1401  0.4337  0.5524
  146ccc     C6 3737   7.528   6.199   2.955  0.3870  0.2931  0.2397
  146ccc     O1 3738   7.490   6.272   2.850  0.0308 -0.3058  0.6879
  146ccc     O2 3739   7.468   6.199   3.058 -0.0301  0.8124  0.1858
  146ccc    H10 3740   7.977   6.094   3.193 -0.4746  0.6620 -0.0938
  146ccc    H11 3741   8.013   5.933   3.146 -0.5694 -0.2260  2.0220
  146ccc     C7 3742   7.849   5.939   3.283  0.4557  0.4145 -0.3065
  146ccc    H12 3743   7.764   5.998   3.321  2.0613  2.4380  0.3312
  146ccc    H13 3744   7.917   5.929   3.368  0.2385 -0.8116 -0.2568
  146ccc     C8 3745   7.804   5.797   3.267 -0.4470  0.4530 -0.3743
  146ccc     O3 3746   7.845   5.699   3.329  0.2767 -0.3605  0.3903
  146ccc     O4 3747   7.770   5.774   3.145  0.4745  0.1843  0.1741
  146ccc    H14 3748   7.556   6.248   2.782 -0.9385 -0.0855 -0.3555
  146ccc    H15 3749   7.776   5.862   3.106  0.4663 -0.5472 -1.5403
  147ccc     N1 3750   8.581   5.858   3.465 -0.3791 -0.0956  0.0073
  147ccc     H1 3751   8.487   5.894   3.460  0.1703  1.4530  0.1865
  147ccc     C1 3752   8.612   5.733   3.527 -0.5179 -0.1704  0.1681
  147ccc     H2 3753   8.602   5.652   3.454 -0.9154 -0.8498  0.9697
  147ccc     C2 3754   8.514   5.700   3.641  0.0306 -0.1953 -0.6163
  147ccc     H3 3755   8.715   5.737   3.565 -0.6122  1.3580  0.3343
  147ccc     H4 3756   8.411   5.698   3.602  0.1218 -0.7447 -0.8438
  147ccc     H5 3757   8.511   5.787   3.708  1.8636  0.6889 -1.6207
  147ccc     N2 3758   8.530   5.571   3.719  0.2993  0.1273 -0.2631
  147ccc     C3 3759   8.480   5.573   3.861 -0.6056 -0.5111  0.0724
  147ccc     C4 3760   8.497   5.446   3.649 -0.2039 -0.5964 -0.0042
  147ccc     H6 3761   8.468   5.367   3.719 -0.3986  1.5156  2.4067
  147ccc     C5 3762   8.618   5.385   3.578  0.5938  0.0784 -0.0234
  147ccc     H7 3763   8.412   5.463   3.581  0.6435  0.4875 -0.8332
  147ccc     H8 3764   8.687   5.343   3.652 -1.0791 -2.5962  0.1508
  147ccc     H9 3765   8.664   5.463   3.515 -1.3251  0.2758 -1.2512
  147ccc     C6 3766   8.582   5.276   3.482  0.0259  0.0001  0.0415
  147ccc     O1 3767   8.685   5.224   3.407 -0.5032 -0.0589  0.2790
  147ccc     O2 3768   8.462   5.246   3.470 -0.6333 -0.2908  0.1374
  147ccc    H10 3769   8.521   5.651   3.926  0.8042 -1.5205  0.4626
  147ccc    H11 3770   8.512   5.480   3.912  0.6352  0.1468  0.5470
  147ccc     C7 3771   8.333   5.586   3.862  0.8582  0.2021 -0.1458
  147ccc    H12 3772   8.285   5.533   3.778 -1.2772  1.8121 -0.0357
  147ccc    H13 3773   8.310   5.691   3.844  0.6885  0.1912  0.0012
  147ccc     C8 3774   8.286   5.520   3.989  0.4879 -0.6016  0.2543
  147ccc     O3 3775   8.340   5.523   4.095  0.4859  0.1027  0.2349
  147ccc     O4 3776   8.162   5.475   3.978  0.0903  0.0695  0.4259
  147ccc    H14 3777   8.761   5.268   3.449 -0.7968  0.5970  0.1501
  147ccc    H15 3778   8.142   5.471   3.883  1.4099  1.5518  0.0461
  148ccc     N1 3779  10.133   5.642   2.485 -0.1842 -0.2233  0.1251
  148ccc     H1 3780  10.035   5.643   2.509 -0.2815 -0.2686 -0.2526
  148ccc     C1 3781  10.175   5.507   2.465  0.6929  0.7075  0.6587
  148ccc     H2 3782  10.260   5.483   2.530 -0.9912 -2.5339  1.8569
  148ccc     C2 3783  10.236   5.480   2.328  0.0001  0.7489 -0.4725
  148ccc     H3 3784  10.097   5.431   2.480  2.0139 -1.1013 -1.1063
  148ccc     H4 3785  10.297   5.568   2.301 -0.1781  0.8223 -0.6422
  148ccc     H5 3786  10.154   5.480   2.255  0.2714  1.1970 -0.7877
  148ccc     N2 3787  10.310   5.349   2.317 -0.0651 -0.6048 -0.7316
  148ccc     C3 3788  10.229   5.227   2.348  0.1929 -0.6824  0.2955
  148ccc     C4 3789  10.407   5.340   2.216 -0.2601  0.3292  0.6521
  148ccc     H6 3790  10.461   5.246   2.235 -0.7118  0.3091  1.9110
  148ccc     C5 3791  10.524   5.451   2.214  1.1421  0.0734  0.0044
  148ccc     H7 3792  10.348   5.319   2.127 -1.9937 -3.3490  2.4374
  148ccc     H8 3793  10.581   5.446   2.308  2.0825  2.6693 -0.3383
  148ccc     H9 3794  10.480   5.550   2.193  1.0298 -0.2513 -1.3823
  148ccc     C6 3795  10.615   5.416   2.096  0.0698  0.4294 -0.2392
  148ccc     O1 3796  10.702   5.321   2.123  0.6934  0.6214  0.6213
  148ccc     O2 3797  10.611   5.471   1.983 -0.1397 -0.6373 -0.1908
  148ccc    H10 3798  10.242   5.156   2.265  3.1930  0.1950 -0.0839
  148ccc    H11 3799  10.125   5.249   2.375  0.7743  0.6749  1.5303
  148ccc     C7 3800  10.291   5.154   2.466 -0.1436 -0.1419 -0.1791
  148ccc    H12 3801  10.389   5.195   2.494  1.1856 -2.4709 -1.1352
  148ccc    H13 3802  10.303   5.051   2.432 -0.6539 -0.0095 -0.7866
  148ccc     C8 3803  10.201   5.148   2.590  0.0771 -0.3495  0.0066
  148ccc     O3 3804  10.086   5.199   2.596  0.1568  0.0488 -0.1538
  148ccc     O4 3805  10.224   5.038   2.660 -0.3704  0.3123  0.3791
  148ccc    H14 3806  10.680   5.278   2.208 -1.5581  1.8043  0.7045
  148ccc    H15 3807  10.313   5.008   2.638 -0.4351  1.2514 -1.2858
  149ccc     N1 3808   9.868   6.462   2.504  0.8011  0.5062 -0.0468
  149ccc     H1 3809   9.934   6.467   2.580  1.7523 -2.2157 -0.5739
  149ccc     C1 3810   9.893   6.537   2.385 -0.3749  1.0353 -0.6812
  149ccc     H2 3811   9.962   6.472   2.329  2.2510  3.1908 -0.1807
  149ccc     C2 3812   9.965   6.674   2.421  0.4947  0.6770  0.1848
  149ccc     H3 3813   9.801   6.558   2.330 -0.9918  0.0110 -0.0714
  149ccc     H4 3814  10.031   6.661   2.507  2.4603 -0.9087 -1.4619
  149ccc     H5 3815   9.885   6.738   2.460  1.5542  1.7177  0.7238
  149ccc     N2 3816  10.041   6.741   2.309 -0.5278  0.2527 -0.2532
  149ccc     C3 3817  10.171   6.678   2.271 -1.0036 -0.3958  0.2242
  149ccc     C4 3818   9.971   6.777   2.188  0.1779 -0.0114 -0.3765
  149ccc     H6 3819  10.033   6.795   2.100 -2.2751 -3.5051 -3.1099
  149ccc     C5 3820   9.875   6.899   2.211  0.6707 -0.0813  0.2121
  149ccc     H7 3821   9.921   6.687   2.150 -0.6330  0.6022 -0.7859
  149ccc     H8 3822   9.808   6.869   2.292  0.6600  0.2204  0.3172
  149ccc     H9 3823   9.811   6.921   2.125  1.1622 -0.3676 -0.2279
  149ccc     C6 3824   9.938   7.028   2.257 -0.3796 -0.2772 -0.7791
  149ccc     O1 3825  10.002   7.004   2.375 -0.3355  0.0064 -0.5061
  149ccc     O2 3826   9.938   7.138   2.205 -0.5099  0.4017 -0.0587
  149ccc    H10 3827  10.232   6.760   2.230 -0.5700 -1.0552 -0.4997
  149ccc    H11 3828  10.154   6.599   2.197 -1.1207 -1.2368  1.1265
  149ccc     C7 3829  10.259   6.611   2.375 -0.6412  0.9735 -0.1165
  149ccc    H12 3830  10.201   6.535   2.429 -1.0645  1.7277  0.4978
  149ccc    H13 3831  10.295   6.690   2.442 -0.1652  2.0597 -1.6294
  149ccc     C8 3832  10.397   6.560   2.311 -0.5007 -0.1958  0.4442
  149ccc     O3 3833  10.424   6.580   2.195  0.3282  0.0412  0.3203
  149ccc     O4 3834  10.490   6.510   2.393  0.5185 -0.5084  0.3213
  149ccc    H14 3835  10.033   6.916   2.346  0.2680  1.0731 -3.4500
  149ccc    H15 3836  10.456   6.522   2.483 -0.0705  2.7461 -0.1833
  150ccc     N1 3837   8.447   3.262   4.665 -0.0034 -0.2779 -0.3944
  150ccc     H1 3838   8.545   3.250   4.643  0.6418  1.9907  0.9505
  150ccc     C1 3839   8.422   3.266   4.805 -0.6064  0.7018 -0.3652
  150ccc     H2 3840   8.394   3.369   4.832  1.3425  1.2181 -0.2077
  150ccc     C2 3841   8.547   3.244   4.890  0.3134 -0.3808  0.5397
  150ccc     H3 3842   8.359   3.181   4.834  2.2982 -1.2595  0.6822
  150ccc     H4 3843   8.562   3.136   4.883 -2.1481 -0.6779 -2.1562
  150ccc     H5 3844   8.505   3.263   4.990 -3.4168 -1.4396 -0.6507
  150ccc     N2 3845   8.664   3.335   4.862  0.7488 -0.7065 -0.3404
  150ccc     C3 3846   8.777   3.308   4.947 -0.3785 -0.5325 -0.4239
  150ccc     C4 3847   8.629   3.479   4.840  0.4071 -0.1917 -0.0816
  150ccc     H6 3848   8.540   3.501   4.780  0.1905 -0.6182  0.0797
  150ccc     C5 3849   8.737   3.540   4.748  0.1178 -0.2991 -0.5480
  150ccc     H7 3850   8.625   3.538   4.932  1.7688  1.2120 -0.8726
  150ccc     H8 3851   8.752   3.472   4.663 -2.8774  1.5972 -2.8171
  150ccc     H9 3852   8.830   3.573   4.796  0.2924 -0.5335 -0.7248
  150ccc     C6 3853   8.671   3.656   4.674 -0.2460  0.0291  0.8525
  150ccc     O1 3854   8.684   3.779   4.734  0.2024 -0.3779  0.1432
  150ccc     O2 3855   8.615   3.644   4.569 -0.0758  0.2490 -0.2466
  150ccc    H10 3856   8.866   3.367   4.922  0.0447 -0.0804  1.9112
  150ccc    H11 3857   8.812   3.204   4.934 -1.9848 -0.8890 -2.3896
  150ccc     C7 3858   8.745   3.343   5.095 -0.2732 -0.5192 -0.7935
  150ccc    H12 3859   8.667   3.273   5.127  1.3839 -0.9499  2.8728
  150ccc    H13 3860   8.716   3.447   5.113  0.7554 -0.2900 -0.3779
  150ccc     C8 3861   8.868   3.313   5.174 -0.3384 -1.0224 -0.7539
  150ccc     O3 3862   8.978   3.314   5.129 -0.4530  0.2442 -0.3342
  150ccc     O4 3863   8.849   3.346   5.305  0.1491  0.4091  0.1948
  150ccc    H14 3864   8.703   3.756   4.827 -0.3373 -3.2845 -0.3822
  150ccc    H15 3865   8.754   3.340   5.325  0.1897  1.1969  0.7014
  151ccc     N1 3866   8.385   3.388   3.853  0.1058  0.0131  0.0830
  151ccc     H1 3867   8.418   3.484   3.851 -0.2572  0.1368 -0.0988
  151ccc     C1 3868   8.269   3.363   3.766 -0.1130  0.2041 -0.5924
  151ccc     H2 3869   8.207   3.288   3.815  0.3541 -0.3018 -0.7664
  151ccc     C2 3870   8.306   3.310   3.626  0.2935 -0.3277 -0.4633
  151ccc     H3 3871   8.228   3.465   3.761 -0.3186  0.0505 -3.5552
  151ccc     H4 3872   8.370   3.224   3.648  0.6286  0.6057  2.7139
  151ccc     H5 3873   8.369   3.377   3.567 -1.2236 -0.2263 -2.0605
  151ccc     N2 3874   8.192   3.267   3.536  0.3759  0.5587  0.1617
  151ccc     C3 3875   8.090   3.169   3.588  0.5154  0.0563 -0.9843
  151ccc     C4 3876   8.132   3.371   3.454 -0.5107  0.5775  0.2730
  151ccc     H6 3877   8.209   3.449   3.438 -1.0563  1.1804  0.5386
  151ccc     C5 3878   8.016   3.445   3.532  0.2876  0.3398  0.2828
  151ccc     H7 3879   8.109   3.336   3.353  1.2220 -0.6577  0.2663
  151ccc     H8 3880   8.058   3.495   3.621 -0.1427  1.1219  0.0618
  151ccc     H9 3881   7.937   3.378   3.569 -1.4053  1.4396 -1.1844
  151ccc     C6 3882   7.945   3.547   3.447 -0.4200 -0.5741 -0.0354
  151ccc     O1 3883   7.823   3.567   3.496 -0.2750  0.2488 -0.5066
  151ccc     O2 3884   7.979   3.581   3.338 -0.2755 -0.0172  0.2844
  151ccc    H10 3885   8.011   3.156   3.513 -0.4448  0.9602 -0.1592
  151ccc    H11 3886   8.051   3.212   3.681  1.8694 -0.3026 -0.2217
  151ccc     C7 3887   8.166   3.039   3.626  0.0107 -0.8904 -0.2694
  151ccc    H12 3888   8.225   3.058   3.717  0.5652  1.2906 -1.0201
  151ccc    H13 3889   8.231   3.015   3.541  1.1381  2.2731 -0.4491
  151ccc     C8 3890   8.073   2.925   3.650  0.2421  0.4685 -0.2164
  151ccc     O3 3891   7.958   2.914   3.618  0.0438  0.0103  0.2747
  151ccc     O4 3892   8.122   2.848   3.744  0.0374  0.1209 -0.2802
  151ccc    H14 3893   7.830   3.548   3.592  0.3593 -0.3216 -0.6588
  151ccc    H15 3894   8.207   2.888   3.769 -0.1257  0.0177  0.4776
  152ccc     N1 3895   8.788   4.338   4.577 -0.7345 -0.1925 -0.4407
  152ccc     H1 3896   8.843   4.387   4.506  0.0115  1.2226  1.0470
  152ccc     C1 3897   8.670   4.411   4.633  0.1152  0.5654  0.7464
  152ccc     H2 3898   8.595   4.337   4.662  0.5710 -0.6070 -0.9118
  152ccc     C2 3899   8.620   4.515   4.533 -0.3033 -1.0582  0.0119
  152ccc     H3 3900   8.704   4.465   4.722 -0.9818 -0.6135  1.9216
  152ccc     H4 3901   8.538   4.580   4.567 -0.7522 -2.0704  0.9242
  152ccc     H5 3902   8.581   4.455   4.449 -1.5064  1.3685 -1.2797
  152ccc     N2 3903   8.725   4.605   4.477  0.2094  0.0116  0.7263
  152ccc     C3 3904   8.662   4.689   4.374 -0.1775  0.0230  0.0667
  152ccc     C4 3905   8.805   4.680   4.576 -0.7198 -0.3733  0.1643
  152ccc     H6 3906   8.845   4.612   4.653 -0.6567  0.8666  1.2495
  152ccc     C5 3907   8.729   4.793   4.644 -0.4502 -1.2920 -0.1672
  152ccc     H7 3908   8.898   4.709   4.526  0.3502  0.8937  2.6964
  152ccc     H8 3909   8.655   4.749   4.712  0.4970 -2.4500  0.1477
  152ccc     H9 3910   8.673   4.855   4.573  2.0274 -0.4857 -1.5365
  152ccc     C6 3911   8.824   4.878   4.727  0.5031  0.1755  0.4296
  152ccc     O1 3912   8.801   5.010   4.721 -0.2358 -0.3521  0.4008
  152ccc     O2 3913   8.935   4.839   4.766  0.4847  0.1044  0.3834
  152ccc    H10 3914   8.578   4.752   4.403  0.5125  1.4540 -0.9487
  152ccc    H11 3915   8.617   4.614   4.307  0.0314  0.5441 -0.6738
  152ccc     C7 3916   8.755   4.775   4.295 -0.1514  0.5543  0.3893
  152ccc    H12 3917   8.840   4.728   4.243 -2.2219 -1.3736 -1.4777
  152ccc    H13 3918   8.776   4.858   4.364  3.2134 -1.5413  2.1242
  152ccc     C8 3919   8.696   4.846   4.181 -1.3650  0.4754 -0.0772
  152ccc     O3 3920   8.595   4.815   4.128  0.2891 -0.1764  0.3439
  152ccc     O4 3921   8.779   4.940   4.126  0.3053 -0.1224 -0.1183
  152ccc    H14 3922   8.716   5.012   4.675  0.0384 -1.6272 -0.1908
  152ccc    H15 3923   8.866   4.930   4.171 -0.5398 -4.1849  1.0443
  153ccc     N1 3924   9.044   3.720   4.969 -0.1579  0.2208  0.3305
  153ccc     H1 3925   8.964   3.782   4.981  0.5302  0.9542  1.3183
  153ccc     C1 3926   9.059   3.620   5.067 -0.2064 -0.1087 -1.1011
  153ccc     H2 3927   8.978   3.620   5.140  2.0090  1.1568  1.5433
  153ccc     C2 3928   9.188   3.660   5.150  0.5362  0.9434  0.1774
  153ccc     H3 3929   9.073   3.524   5.017  0.8550  0.6988 -2.4454
  153ccc     H4 3930   9.281   3.676   5.094 -0.7491  1.2838 -1.9486
  153ccc     H5 3931   9.209   3.568   5.207  1.7981  0.1300 -1.4846
  153ccc     N2 3932   9.168   3.777   5.245 -0.9123 -0.4820  0.4406
  153ccc     C3 3933   9.250   3.779   5.368 -0.5121  0.3480 -0.1161
  153ccc     C4 3934   9.117   3.911   5.183  0.1928 -0.1835  0.3683
  153ccc     H6 3935   9.052   3.902   5.095 -1.7694 -1.5914  1.8439
  153ccc     C5 3936   9.234   4.009   5.160  0.1981 -1.1199  0.4726
  153ccc     H7 3937   9.048   3.954   5.257 -0.8337 -1.4737  0.2108
  153ccc     H8 3938   9.313   3.959   5.102  0.1720 -0.8364  0.1870
  153ccc     H9 3939   9.277   4.041   5.256 -0.6626  0.3274  0.4121
  153ccc     C6 3940   9.188   4.148   5.101  0.0855  0.7724 -0.5517
  153ccc     O1 3941   9.280   4.239   5.087  0.3230 -0.5678  0.5195
  153ccc     O2 3942   9.071   4.168   5.068 -0.0029  0.6954 -0.3931
  153ccc    H10 3943   9.327   3.857   5.369 -0.5090  0.3673  1.6426
  153ccc    H11 3944   9.310   3.689   5.384  1.0864  1.6730  1.7746
  153ccc     C7 3945   9.153   3.808   5.487 -0.1856 -0.3457 -0.5064
  153ccc    H12 3946   9.088   3.719   5.491 -0.0743 -0.4132  2.9234
  153ccc    H13 3947   9.095   3.898   5.466 -1.7804 -1.3780 -0.7693
  153ccc     C8 3948   9.232   3.811   5.621  0.5907  0.2937  0.7841
  153ccc     O3 3949   9.351   3.804   5.635  0.4100  0.4623  0.0144
  153ccc     O4 3950   9.158   3.877   5.710 -0.3232  0.0945  0.3038
  153ccc    H14 3951   9.361   4.205   5.129  1.7772  0.3473 -1.3840
  153ccc    H15 3952   9.081   3.858   5.654 -0.9009 -0.5646  1.2906
  154ccc     N1 3953   8.315   4.174   1.776  0.0818  0.1673 -0.1487
  154ccc     H1 3954   8.316   4.094   1.714  1.2754 -1.0739  1.4012
  154ccc     C1 3955   8.341   4.304   1.717  0.2889  0.0284  0.0016
  154ccc     H2 3956   8.311   4.294   1.612 -0.9033  0.3906  0.2856
  154ccc     C2 3957   8.496   4.336   1.736 -0.1130 -0.6661 -0.1194
  154ccc     H3 3958   8.271   4.377   1.759 -1.6152 -1.5514 -0.2659
  154ccc     H4 3959   8.517   4.324   1.843  3.2085 -2.3583 -0.8409
  154ccc     H5 3960   8.505   4.442   1.708  1.3109 -0.9757 -0.9268
  154ccc     N2 3961   8.590   4.258   1.659 -0.4151 -0.0987  0.6292
  154ccc     C3 3962   8.576   4.274   1.515 -0.0659  0.0300  0.0355
  154ccc     C4 3963   8.723   4.313   1.693  0.2725  0.3253 -0.5259
  154ccc     H6 3964   8.791   4.280   1.613 -0.1699 -0.8354 -0.4436
  154ccc     C5 3965   8.775   4.246   1.820 -0.1450  0.4479  0.5722
  154ccc     H7 3966   8.722   4.422   1.702  0.6829  0.2227  0.9874
  154ccc     H8 3967   8.698   4.241   1.898 -0.5675  0.4140  0.1568
  154ccc     H9 3968   8.861   4.306   1.853 -0.2567  1.8561 -1.5294
  154ccc     C6 3969   8.817   4.104   1.787 -0.3876  0.4252 -0.1211
  154ccc     O1 3970   8.726   4.028   1.718  0.1202 -0.0579  0.1881
  154ccc     O2 3971   8.907   4.045   1.838 -0.7886 -0.4113  0.1239
  154ccc    H10 3972   8.628   4.362   1.475 -2.0156  0.6027 -1.3817
  154ccc    H11 3973   8.472   4.268   1.483 -0.6201 -0.6306  1.8560
  154ccc     C7 3974   8.649   4.163   1.445 -0.6402 -0.5473 -0.4177
  154ccc    H12 3975   8.604   4.080   1.501  0.4119 -0.9846 -0.1932
  154ccc    H13 3976   8.758   4.163   1.461 -0.9830 -1.4509  2.4899
  154ccc     C8 3977   8.618   4.143   1.298 -0.8777 -0.0869 -0.8648
  154ccc     O3 3978   8.560   4.219   1.225 -0.3130  0.2830 -0.3295
  154ccc     O4 3979   8.676   4.026   1.252  1.2189 -0.4233  0.1436
  154ccc    H14 3980   8.667   4.102   1.696  0.6355  0.6602  1.1537
  154ccc    H15 3981   8.715   3.994   1.335 -1.2023 -0.3081  1.4203
  155ccc     N1 3982   8.500   3.437   1.970  0.5863  0.4357 -0.9751
  155ccc     H1 3983   8.481   3.426   2.069 -0.4143 -0.2871 -1.2401
  155ccc     C1 3984   8.544   3.321   1.901  0.9806  1.0138  0.4442
  155ccc     H2 3985   8.638   3.342   1.850  0.7155  1.6561  0.2053
  155ccc     C2 3986   8.435   3.264   1.814 -0.1218 -0.4601  0.1798
  155ccc     H3 3987   8.558   3.240   1.974 -0.5106 -0.8832 -1.2830
  155ccc     H4 3988   8.471   3.165   1.783  0.9827  0.0053 -0.0538
  155ccc     H5 3989   8.438   3.322   1.721 -2.7198 -0.5347 -0.0347
  155ccc     N2 3990   8.299   3.259   1.876 -1.1803 -0.2951  0.4748
  155ccc     C3 3991   8.275   3.150   1.975  0.1996  0.4829  0.4159
  155ccc     C4 3992   8.190   3.281   1.779  0.7620 -0.4276 -0.2221
  155ccc     H6 3993   8.227   3.219   1.696  0.3887 -1.0371  0.0584
  155ccc     C5 3994   8.188   3.428   1.727 -1.0228  0.5321 -0.0003
  155ccc     H7 3995   8.090   3.248   1.812  0.5374 -0.0639 -0.5483
  155ccc     H8 3996   8.285   3.480   1.724 -0.8150  0.2211  0.8613
  155ccc     H9 3997   8.121   3.481   1.796 -0.5122  0.5488  0.4977
  155ccc     C6 3998   8.130   3.432   1.588 -0.6372 -0.4125  0.6873
  155ccc     O1 3999   8.111   3.557   1.551 -0.0925  0.0745 -0.6986
  155ccc     O2 4000   8.126   3.343   1.499 -0.1402 -0.4191  0.1931
  155ccc    H10 4001   8.362   3.083   1.968  0.0912  0.5015 -2.1357
  155ccc    H11 4002   8.184   3.091   1.956 -1.2100  2.0974  1.7864
  155ccc     C7 4003   8.269   3.201   2.116  0.4634  0.4782  0.0312
  155ccc    H12 4004   8.364   3.252   2.134  0.4336  0.4348  0.3096
  155ccc    H13 4005   8.258   3.118   2.187 -3.0780 -0.4823 -1.3766
  155ccc     C8 4006   8.159   3.302   2.143 -0.1009  0.0248  0.6097
  155ccc     O3 4007   8.082   3.301   2.235 -0.2512 -0.7080 -0.2025
  155ccc     O4 4008   8.172   3.416   2.076 -0.4186 -0.1092  0.3063
  155ccc    H14 4009   8.119   3.603   1.636  1.4416 -0.5718 -0.4548
  155ccc    H15 4010   8.225   3.384   2.001 -0.8160  1.1024 -0.5200
  156ccc     N1 4011   8.587   3.054   2.981 -0.2902  0.2739  0.1829
  156ccc     H1 4012   8.621   3.148   2.961 -1.5880  0.5362 -1.0133
  156ccc     C1 4013   8.573   3.012   3.116  0.4056 -0.2630 -0.4647
  156ccc     H2 4014   8.559   3.107   3.169  1.3780  0.6410 -1.7581
  156ccc     C2 4015   8.696   2.943   3.180  0.7741 -0.4465 -0.3037
  156ccc     H3 4016   8.493   2.938   3.125  0.4086 -0.3960 -1.4355
  156ccc     H4 4017   8.697   2.837   3.155  1.5766 -0.0898 -1.9653
  156ccc     H5 4018   8.677   2.944   3.288 -0.1064  0.7892 -0.4433
  156ccc     N2 4019   8.828   3.009   3.149  0.7907  0.6187  0.1718
  156ccc     C3 4020   8.843   3.141   3.209 -0.4236 -0.4577  0.7364
  156ccc     C4 4021   8.945   2.915   3.164  0.2009  0.3787  0.7234
  156ccc     H6 4022   9.042   2.967   3.159 -0.6012  1.8214 -0.4841
  156ccc     C5 4023   8.939   2.807   3.053  0.5830 -0.5659  0.4403
  156ccc     H7 4024   8.933   2.853   3.254  1.8731 -2.2397 -0.7314
  156ccc     H8 4025   8.847   2.748   3.050 -0.1532  0.5957 -1.0341
  156ccc     H9 4026   9.013   2.727   3.064  1.1664 -0.2607 -1.0188
  156ccc     C6 4027   8.951   2.861   2.911  0.7001 -0.1685  0.0790
  156ccc     O1 4028   8.865   2.960   2.886  0.2695 -0.0504 -0.2965
  156ccc     O2 4029   9.009   2.799   2.823 -0.0652  0.0148  0.2625
  156ccc    H10 4030   8.914   3.138   3.293  0.2572 -1.0989  0.1482
  156ccc    H11 4031   8.750   3.179   3.253  0.7911  0.4852  2.6516
  156ccc     C7 4032   8.903   3.236   3.102 -0.0787  0.7464  0.3659
  156ccc    H12 4033   8.835   3.244   3.016 -0.0017 -1.0981  0.1039
  156ccc    H13 4034   8.995   3.194   3.060 -0.0147  1.0006  0.2469
  156ccc     C8 4035   8.927   3.381   3.139  0.7883 -0.4833 -0.1285
  156ccc     O3 4036   8.834   3.441   3.197 -0.4563 -0.2093 -0.3803
  156ccc     O4 4037   9.032   3.437   3.093  0.1409 -0.2917  0.3667
  156ccc    H14 4038   8.852   3.001   2.973 -1.2290 -1.1616  0.0439
  156ccc    H15 4039   9.078   3.362   3.051 -2.6742 -1.6202 -0.6345
  157ccc     N1 4040   8.629   3.463   2.287  0.3308 -0.1788  0.4084
  157ccc     H1 4041   8.604   3.536   2.352 -1.7701 -1.7397  1.4961
  157ccc     C1 4042   8.736   3.491   2.192 -0.8513 -0.4739 -0.0969
  157ccc     H2 4043   8.709   3.433   2.103  0.9599  0.3764 -1.2743
  157ccc     C2 4044   8.874   3.442   2.248 -0.1478  0.0894 -0.3631
  157ccc     H3 4045   8.740   3.597   2.165  4.6546 -0.1866  0.6403
  157ccc     H4 4046   8.949   3.478   2.176 -0.8468  0.6818 -0.8162
  157ccc     H5 4047   8.866   3.333   2.250  2.3090 -0.1223  1.2363
  157ccc     N2 4048   8.899   3.500   2.387 -0.4904 -0.3636 -0.0876
  157ccc     C3 4049   9.006   3.419   2.442  0.0556 -0.9573  0.4190
  157ccc     C4 4050   8.928   3.639   2.388 -1.0675 -0.0151 -0.0497
  157ccc     H6 4051   9.028   3.649   2.345 -0.7070  0.9819  0.9771
  157ccc     C5 4052   8.910   3.699   2.533 -0.2359 -0.5501 -0.0130
  157ccc     H7 4053   8.869   3.691   2.311 -0.9420 -2.8870 -2.2788
  157ccc     H8 4054   8.984   3.779   2.543 -0.8906 -0.2318  3.0565
  157ccc     H9 4055   8.946   3.633   2.613  2.1424 -1.9523 -2.0837
  157ccc     C6 4056   8.773   3.756   2.563  0.2636  0.1620  0.6021
  157ccc     O1 4057   8.767   3.886   2.559 -0.4524  0.1127 -0.2143
  157ccc     O2 4058   8.675   3.696   2.531 -0.4940  0.0668 -0.2904
  157ccc    H10 4059   9.052   3.465   2.531  1.1562 -0.3514 -0.4512
  157ccc    H11 4060   9.075   3.391   2.362 -0.6410  0.6258 -0.7748
  157ccc     C7 4061   8.950   3.288   2.503 -0.2867  0.5554 -0.6175
  157ccc    H12 4062   9.023   3.223   2.552 -2.7161 -1.3570  0.6645
  157ccc    H13 4063   8.911   3.220   2.427 -0.7869 -0.0537  0.1703
  157ccc     C8 4064   8.842   3.300   2.615  0.6926  0.1398 -0.2085
  157ccc     O3 4065   8.847   3.245   2.724  0.3221  0.6218 -0.3094
  157ccc     O4 4066   8.767   3.405   2.600  0.8152  0.2666 -0.1957
  157ccc    H14 4067   8.858   3.909   2.582 -1.0709  0.9575  1.5025
  157ccc    H15 4068   8.799   3.449   2.520 -2.0480 -1.6752 -2.6093
  158ccc     N1 4069  12.123   5.348   2.023 -0.4292  0.1712 -0.1052
  158ccc     H1 4070  12.129   5.366   2.122  0.1424 -1.8750  0.2770
  158ccc     C1 4071  12.196   5.237   1.961 -0.2261  0.5791  1.2999
  158ccc     H2 4072  12.152   5.144   1.998  1.3221 -0.8336 -0.2363
  158ccc     C2 4073  12.346   5.249   1.993  0.6091 -0.6189  0.0737
  158ccc     H3 4074  12.183   5.221   1.853 -0.1737  1.0849  1.2126
  158ccc     H4 4075  12.401   5.160   1.962 -0.0466 -1.1047  0.2704
  158ccc     H5 4076  12.355   5.259   2.102 -0.4446 -3.0298  0.4362
  158ccc     N2 4077  12.419   5.368   1.929  0.2565  0.0660 -0.0809
  158ccc     C3 4078  12.430   5.361   1.779 -0.4394 -0.1529  0.0849
  158ccc     C4 4079  12.534   5.419   2.005  0.4289  0.6557 -0.3770
  158ccc     H6 4080  12.576   5.517   1.980  0.9572 -0.1287 -2.7380
  158ccc     C5 4081  12.646   5.314   2.019 -0.5510 -0.1662  0.2042
  158ccc     H7 4082  12.494   5.436   2.106  0.1792  1.3909 -0.5927
  158ccc     H8 4083  12.682   5.282   1.921 -2.0798 -2.0443  0.1965
  158ccc     H9 4084  12.606   5.221   2.062 -1.0634 -1.0150 -1.9916
  158ccc     C6 4085  12.764   5.364   2.108  0.0699  1.2268  0.2968
  158ccc     O1 4086  12.885   5.317   2.080 -0.3566  0.3183  0.0085
  158ccc     O2 4087  12.751   5.466   2.165  0.0196 -0.9552  0.6973
  158ccc    H10 4088  12.337   5.315   1.744 -0.5458  0.6649 -0.7425
  158ccc    H11 4089  12.511   5.295   1.746 -0.2697 -0.6972  1.4976
  158ccc     C7 4090  12.454   5.503   1.724 -0.0245  0.2621  0.0776
  158ccc    H12 4091  12.550   5.541   1.763  0.6691 -0.8129 -0.5151
  158ccc    H13 4092  12.379   5.577   1.753 -0.6301  0.7815 -2.5874
  158ccc     C8 4093  12.464   5.483   1.575 -0.4783 -0.0764 -0.5397
  158ccc     O3 4094  12.412   5.388   1.516 -0.1523 -0.4409 -0.2697
  158ccc     O4 4095  12.467   5.600   1.517 -0.0540 -0.0626 -0.4024
  158ccc    H14 4096  12.873   5.229   2.039  0.3482  0.2217 -0.0040
  158ccc    H15 4097  12.489   5.653   1.595 -0.7506  2.1136 -1.5936
  159ccc     N1 4098  12.547   5.728   2.353 -0.1065 -0.0849  0.1066
  159ccc     H1 4099  12.503   5.637   2.364  0.7645 -0.6177 -0.6841
  159ccc     C1 4100  12.636   5.769   2.453  0.2154 -0.1821 -0.4660
  159ccc     H2 4101  12.707   5.843   2.413  0.5205  0.1243  0.5949
  159ccc     C2 4102  12.700   5.640   2.510 -0.2565 -0.0602  0.6194
  159ccc     H3 4103  12.583   5.819   2.535  1.5154 -1.1276  1.0171
  159ccc     H4 4104  12.754   5.662   2.603 -0.8000  0.0129  0.9232
  159ccc     H5 4105  12.776   5.596   2.444  1.6134  1.5564  1.5715
  159ccc     N2 4106  12.602   5.537   2.543  0.3877  0.4081 -0.3893
  159ccc     C3 4107  12.492   5.576   2.633  0.4302  1.0920 -0.1692
  159ccc     C4 4108  12.661   5.402   2.580  0.1129 -0.3773 -0.2046
  159ccc     H6 4109  12.732   5.425   2.660 -0.3897  2.6611 -0.5362
  159ccc     C5 4110  12.719   5.327   2.462  0.0904 -0.0491  0.0022
  159ccc     H7 4111  12.585   5.346   2.636 -0.2865  0.6057  0.2658
  159ccc     H8 4112  12.809   5.378   2.425 -0.3785 -0.4209 -1.7723
  159ccc     H9 4113  12.640   5.323   2.386 -0.2125  2.3588  0.1286
  159ccc     C6 4114  12.769   5.189   2.498  0.0951 -0.5629 -0.3413
  159ccc     O1 4115  12.870   5.147   2.427 -0.0526  0.5347  0.1195
  159ccc     O2 4116  12.721   5.119   2.581  0.2122  0.0290  0.9133
  159ccc    H10 4117  12.419   5.494   2.638  1.0039  0.5683 -0.1967
  159ccc    H11 4118  12.438   5.661   2.588 -0.1556  1.2680  0.8249
  159ccc     C7 4119  12.524   5.619   2.774 -0.4281 -0.6312  0.4470
  159ccc    H12 4120  12.610   5.688   2.772 -1.6353  0.9720  1.3929
  159ccc    H13 4121  12.553   5.533   2.836  0.0617 -0.2929  0.6972
  159ccc     C8 4122  12.413   5.685   2.843 -0.9409  0.0620  0.1224
  159ccc     O3 4123  12.298   5.664   2.837 -0.4488  0.0439 -0.5266
  159ccc     O4 4124  12.455   5.786   2.923 -0.6212 -0.0829 -0.7836
  159ccc    H14 4125  12.876   5.059   2.467  0.6047 -0.3813 -1.9215
  159ccc    H15 4126  12.547   5.800   2.896 -0.0626  2.5835  2.0127
  160ccc     N1 4127  12.532   5.245   3.089 -0.1940  0.8173 -0.5328
  160ccc     H1 4128  12.509   5.340   3.062  0.2162  0.1941 -3.4626
  160ccc     C1 4129  12.649   5.233   3.176 -0.9440 -0.7766  0.1199
  160ccc     H2 4130  12.691   5.132   3.173  0.8227 -0.0968  0.8483
  160ccc     C2 4131  12.621   5.269   3.323  0.4146 -0.2687 -0.0676
  160ccc     H3 4132  12.727   5.299   3.139 -1.6837 -0.3284 -0.6759
  160ccc     H4 4133  12.551   5.353   3.318  0.9593  0.1501 -0.9702
  160ccc     H5 4134  12.713   5.311   3.367 -1.5987  0.7425  3.6111
  160ccc     N2 4135  12.553   5.156   3.406  0.1427 -0.3380  0.6581
  160ccc     C3 4136  12.440   5.085   3.336 -0.8884 -0.6652  0.7575
  160ccc     C4 4137  12.645   5.062   3.464 -0.9496 -0.4254  0.2480
  160ccc     H6 4138  12.589   5.001   3.536  0.3574  0.0774  1.7498
  160ccc     C5 4139  12.754   5.132   3.546  0.2997 -0.7207  0.0692
  160ccc     H7 4140  12.693   4.991   3.396  0.8256 -2.3240  3.2502
  160ccc     H8 4141  12.704   5.207   3.609  1.3841  1.9033 -1.9802
  160ccc     H9 4142  12.834   5.170   3.481  0.0048  0.6681  0.4673
  160ccc     C6 4143  12.826   5.033   3.636  1.1076 -0.8076 -0.1725
  160ccc     O1 4144  12.923   5.092   3.708  0.5839 -0.2182 -0.7202
  160ccc     O2 4145  12.803   4.914   3.649  0.1961 -0.3488  0.2124
  160ccc    H10 4146  12.422   4.988   3.383 -0.9072 -1.7483 -1.3815
  160ccc    H11 4147  12.468   5.058   3.234 -1.2887 -0.4775  0.5984
  160ccc     C7 4148  12.317   5.170   3.333  0.4361  0.0080 -0.6507
  160ccc    H12 4149  12.335   5.265   3.280  1.5106  1.1466  1.5936
  160ccc    H13 4150  12.288   5.195   3.436  1.2646 -0.3617 -0.3280
  160ccc     C8 4151  12.202   5.104   3.263 -0.3623 -0.0598  0.1865
  160ccc     O3 4152  12.212   5.010   3.189 -0.2379 -0.6383  0.0142
  160ccc     O4 4153  12.092   5.181   3.257 -0.3914  0.0475  0.6335
  160ccc    H14 4154  12.930   5.183   3.677  0.5900 -0.5508 -1.7290
  160ccc    H15 4155  12.115   5.248   3.323  0.2442  1.7100 -1.1604
  161ccc     N1 4156  12.334   4.983   2.350  0.3646 -0.2888 -0.0267
  161ccc     H1 4157  12.272   4.927   2.408 -1.3057 -0.7595 -2.1542
  161ccc     C1 4158  12.318   4.973   2.202  0.5379  0.1238  0.5681
  161ccc     H2 4159  12.241   4.896   2.186  0.1061 -0.1913  3.5335
  161ccc     C2 4160  12.454   4.928   2.146 -0.2347 -0.0414 -0.1141
  161ccc     H3 4161  12.278   5.066   2.161  1.6732  0.4512  0.1488
  161ccc     H4 4162  12.527   5.007   2.166  1.2526 -1.4700  0.2546
  161ccc     H5 4163  12.450   4.932   2.036  3.2877 -2.0799 -0.4357
  161ccc     N2 4164  12.513   4.801   2.195  0.4314  0.6099 -0.0186
  161ccc     C3 4165  12.651   4.800   2.179 -0.7704 -0.4707 -0.1993
  161ccc     C4 4166  12.427   4.685   2.155 -0.5737 -0.0252  1.2426
  161ccc     H6 4167  12.324   4.718   2.135  0.6607  2.0876 -2.8433
  161ccc     C5 4168  12.444   4.570   2.253  0.1960  0.2141 -0.2087
  161ccc     H7 4169  12.456   4.650   2.055 -0.1914  2.5124  0.3678
  161ccc     H8 4170  12.470   4.607   2.354 -2.6439  2.5665 -0.1949
  161ccc     H9 4171  12.519   4.502   2.212 -0.6638  0.5008 -2.3658
  161ccc     C6 4172  12.311   4.505   2.273 -0.2644  0.2902 -0.1002
  161ccc     O1 4173  12.260   4.512   2.385 -0.0035  0.8928  0.0646
  161ccc     O2 4174  12.252   4.458   2.180  0.6092  0.8268 -0.5685
  161ccc    H10 4175  12.672   4.831   2.076 -1.0457 -2.9449 -1.0650
  161ccc    H11 4176  12.697   4.701   2.188  1.4453  0.5640  0.5936
  161ccc     C7 4177  12.724   4.887   2.287 -0.6974 -0.5000  1.0426
  161ccc    H12 4178  12.693   4.993   2.288  0.7986 -0.0344  0.8823
  161ccc    H13 4179  12.832   4.888   2.269 -0.5414  3.2352  1.3183
  161ccc     C8 4180  12.704   4.839   2.429 -0.6260 -0.5774  0.5036
  161ccc     O3 4181  12.800   4.837   2.510 -0.1952  0.1727  0.6087
  161ccc     O4 4182  12.580   4.823   2.475 -1.0170 -0.3240  0.0817
  161ccc    H14 4183  12.327   4.562   2.435 -0.3626  1.1295  0.3094
  161ccc    H15 4184  12.528   4.838   2.394 -0.0409  1.6274 -0.2504
  162ccc     N1 4185  10.831   5.431   1.792 -0.5764  0.3269 -0.1897
  162ccc     H1 4186  10.771   5.440   1.873 -1.5626 -1.1583 -0.7258
  162ccc     C1 4187  10.795   5.349   1.672  0.3754 -0.2541 -0.0776
  162ccc     H2 4188  10.687   5.328   1.674 -0.0343  1.6909  1.3678
  162ccc     C2 4189  10.873   5.213   1.664  0.2489 -0.2845  0.1831
  162ccc     H3 4190  10.804   5.422   1.591 -1.0309 -1.1817 -1.1196
  162ccc     H4 4191  10.853   5.159   1.758 -0.6612 -1.6245 -0.7400
  162ccc     H5 4192  10.980   5.236   1.658 -0.2999  2.2249 -0.8312
  162ccc     N2 4193  10.841   5.127   1.543  0.1531 -0.3935 -0.0577
  162ccc     C3 4194  10.852   5.186   1.408  0.0243 -0.4431 -0.1964
  162ccc     C4 4195  10.880   4.988   1.548  0.8472  0.8453  0.4475
  162ccc     H6 4196  10.846   4.939   1.455  0.6727 -0.4164  1.1530
  162ccc     C5 4197  10.822   4.924   1.671 -0.1282 -0.4892  0.6901
  162ccc     H7 4198  10.987   4.976   1.567  0.5198 -2.3882  0.8823
  162ccc     H8 4199  10.715   4.948   1.667  0.1264  0.8365 -3.7650
  162ccc     H9 4200  10.862   4.955   1.769  1.4536 -3.1992  1.0083
  162ccc     C6 4201  10.849   4.773   1.672 -0.2103 -0.2191  0.3227
  162ccc     O1 4202  10.759   4.716   1.753 -0.5634  0.5654  0.9568
  162ccc     O2 4203  10.920   4.715   1.591  0.1347  0.6469 -0.0028
  162ccc    H10 4204  10.790   5.275   1.391  0.8311  0.7291  2.4516
  162ccc    H11 4205  10.813   5.113   1.336  0.0366 -1.0186  0.3725
  162ccc     C7 4206  10.997   5.219   1.371  0.8362 -0.3609  0.4643
  162ccc    H12 4207  11.065   5.144   1.413  1.3056 -0.6407 -0.7577
  162ccc    H13 4208  11.018   5.318   1.413  1.0328 -0.7670  1.3343
  162ccc     C8 4209  11.017   5.225   1.218 -0.1234 -0.0435  0.5839
  162ccc     O3 4210  10.925   5.209   1.142 -0.0551 -0.4018  0.3494
  162ccc     O4 4211  11.148   5.219   1.178  0.0156  0.2638  0.6221
  162ccc    H14 4212  10.715   4.798   1.781  0.2015  1.3326 -0.0152
  162ccc    H15 4213  11.190   5.248   1.261 -1.3420  0.0980  1.3915
  163ccc     N1 4214  10.649   5.852   2.222 -0.3241  0.1094  0.7394
  163ccc     H1 4215  10.694   5.885   2.138 -0.6593  1.4687  1.0585
  163ccc     C1 4216  10.515   5.878   2.234 -0.1392 -0.4017  0.2474
  163ccc     H2 4217  10.482   5.915   2.136  0.4959 -0.4252  0.0205
  163ccc     C2 4218  10.469   5.978   2.336  0.1304  0.0541 -0.0539
  163ccc     H3 4219  10.459   5.784   2.241 -0.8082 -0.0627 -0.3304
  163ccc     H4 4220  10.537   5.958   2.420 -0.4131  0.0128  0.3796
  163ccc     H5 4221  10.369   5.946   2.368  0.4793 -0.0591  0.9355
  163ccc     N2 4222  10.476   6.129   2.303 -0.2630 -0.3259 -0.2011
  163ccc     C3 4223  10.614   6.177   2.277 -0.2644  0.0234 -0.0606
  163ccc     C4 4224  10.382   6.169   2.192 -0.4303 -0.5406  0.2696
  163ccc     H6 4225  10.391   6.279   2.190  3.1141 -0.7256  0.3364
  163ccc     C5 4226  10.239   6.121   2.217 -0.0091  0.2910  0.1062
  163ccc     H7 4227  10.425   6.127   2.100  0.1575 -0.3810  0.4680
  163ccc     H8 4228  10.207   6.158   2.315 -0.2250 -1.2614  0.6346
  163ccc     H9 4229  10.238   6.012   2.218 -0.4953  0.2933  0.1479
  163ccc     C6 4230  10.153   6.168   2.111  0.7047 -0.4611 -0.8543
  163ccc     O1 4231  10.073   6.262   2.164 -0.6767 -0.6772  0.0056
  163ccc     O2 4232  10.173   6.157   1.993  0.0437  0.1244 -0.1649
  163ccc    H10 4233  10.615   6.274   2.226 -2.8275 -1.0511 -2.3759
  163ccc    H11 4234  10.647   6.110   2.197 -1.8347 -0.5396 -0.2663
  163ccc     C7 4235  10.708   6.164   2.407  0.4279  0.0174 -0.0444
  163ccc    H12 4236  10.662   6.095   2.479  1.1790  0.3550  0.7726
  163ccc    H13 4237  10.707   6.262   2.455 -0.1916  0.3008 -0.6250
  163ccc     C8 4238  10.850   6.123   2.370 -0.1476 -0.1912 -0.0511
  163ccc     O3 4239  10.901   6.148   2.259 -0.1256 -0.2763 -0.1260
  163ccc     O4 4240  10.926   6.107   2.483 -0.4903 -0.0813  0.7647
  163ccc    H14 4241  10.063   6.321   2.087  1.4927 -0.8364 -0.4651
  163ccc    H15 4242  10.861   6.072   2.546 -0.6200  0.2016  0.7910
  164ccc     N1 4243  12.144   4.708   1.806 -0.7083  0.2612 -0.3075
  164ccc     H1 4244  12.062   4.684   1.752 -0.5010 -0.7551 -0.1940
  164ccc     C1 4245  12.149   4.636   1.929 -0.0351 -0.4731 -0.2167
  164ccc     H2 4246  12.252   4.602   1.944  0.3685 -0.2190 -2.1864
  164ccc     C2 4247  12.057   4.509   1.912  0.8186 -0.8050 -0.2556
  164ccc     H3 4248  12.110   4.698   2.010  1.3223 -0.5214  0.5069
  164ccc     H4 4249  12.044   4.457   2.007 -0.4286  0.2124  0.1785
  164ccc     H5 4250  12.107   4.433   1.851  0.9691  1.3554 -3.0317
  164ccc     N2 4251  11.928   4.551   1.851 -0.3227 -0.5287  0.2325
  164ccc     C3 4252  11.828   4.591   1.947 -0.1062 -0.1765  0.2160
  164ccc     C4 4253  11.870   4.463   1.744  0.0133  0.2618 -0.8771
  164ccc     H6 4254  11.879   4.364   1.790  2.1733  0.5926 -0.4630
  164ccc     C5 4255  11.952   4.469   1.609 -0.3550 -0.1887 -0.2693
  164ccc     H7 4256  11.765   4.487   1.725  0.5165  1.4368 -2.3534
  164ccc     H8 4257  12.052   4.429   1.626 -1.5585 -3.0953  0.6821
  164ccc     H9 4258  11.938   4.561   1.551  0.7053 -0.2963 -0.7101
  164ccc     C6 4259  11.903   4.357   1.519 -0.1778  0.2271  0.0678
  164ccc     O1 4260  11.975   4.343   1.407 -0.2121 -0.2111 -0.0082
  164ccc     O2 4261  11.808   4.283   1.528 -0.1466  0.0806 -0.5669
  164ccc    H10 4262  11.873   4.625   2.041  0.4646  0.5317 -0.2978
  164ccc    H11 4263  11.765   4.502   1.963 -2.1024  0.7172 -1.9800
  164ccc     C7 4264  11.743   4.708   1.883 -0.2412  0.5449  0.3124
  164ccc    H12 4265  11.698   4.674   1.789  1.6241 -3.8087  0.7589
  164ccc    H13 4266  11.803   4.800   1.871  0.4317 -0.0676 -1.2466
  164ccc     C8 4267  11.630   4.752   1.979  0.1325 -0.1787  0.4665
  164ccc     O3 4268  11.622   4.718   2.093  0.2986 -0.0767  0.1863
  164ccc     O4 4269  11.540   4.829   1.919 -0.1005 -0.2793  0.0610
  164ccc    H14 4270  12.055   4.397   1.416 -0.2206 -0.3978  1.4081
  164ccc    H15 4271  11.574   4.834   1.828  0.1017 -1.1770  0.0782
  165ccc     N1 4272  12.065   5.422   1.552  0.3578  0.0470  0.8522
  165ccc     H1 4273  12.074   5.406   1.652 -1.9446 -3.4549  0.6809
  165ccc     C1 4274  12.122   5.543   1.491 -0.2566 -0.8445 -0.7891
  165ccc     H2 4275  12.180   5.595   1.568  2.1534 -0.9107 -2.4568
  165ccc     C2 4276  12.010   5.635   1.434 -0.4236 -0.1718  0.0181
  165ccc     H3 4277  12.197   5.523   1.414 -0.7330 -0.3195 -1.4098
  165ccc     H4 4278  11.973   5.582   1.345  2.5428 -1.6979 -0.4339
  165ccc     H5 4279  12.074   5.721   1.408 -0.9094  0.6520  1.4654
  165ccc     N2 4280  11.902   5.684   1.534  0.0508 -0.8717 -0.1308
  165ccc     C3 4281  11.790   5.600   1.570  0.4354  0.8948  0.6012
  165ccc     C4 4282  11.938   5.779   1.642 -0.1770 -0.0638  0.0889
  165ccc     H6 4283  11.849   5.804   1.701  0.3175 -2.5395  2.0388
  165ccc     C5 4284  12.007   5.909   1.595  0.4549 -0.0315  0.6641
  165ccc     H7 4285  12.002   5.733   1.718 -1.8575 -1.8739  0.4924
  165ccc     H8 4286  12.108   5.895   1.554  0.9392 -1.9507  2.3843
  165ccc     H9 4287  12.027   5.974   1.681  0.6038  0.5065  0.2317
  165ccc     C6 4288  11.924   5.995   1.493 -0.1857  0.1611  0.1475
  165ccc     O1 4289  11.811   5.935   1.450  0.7516 -0.0170  0.4268
  165ccc     O2 4290  11.945   6.111   1.477 -0.0151  0.6436  0.6431
  165ccc    H10 4291  11.727   5.643   1.648  0.2421  0.2315  0.8185
  165ccc    H11 4292  11.822   5.501   1.607  0.2448  1.5616  2.6769
  165ccc     C7 4293  11.706   5.553   1.449 -0.3193  0.2825  0.4110
  165ccc    H12 4294  11.770   5.503   1.376 -2.0467  1.9184 -2.4172
  165ccc    H13 4295  11.654   5.634   1.396  1.0841  1.8922  1.3660
  165ccc     C8 4296  11.610   5.440   1.486 -0.5895 -0.3212 -0.7709
  165ccc     O3 4297  11.601   5.331   1.436  0.4037 -0.1340 -0.3590
  165ccc     O4 4298  11.536   5.476   1.596  0.0868  0.8634  0.0486
  165ccc    H14 4299  11.818   5.845   1.485 -1.0252  0.6523  2.7229
  165ccc    H15 4300  11.534   5.573   1.593  1.5973  0.9325 -3.1690
  166ccc     N1 4301  10.699   4.408   4.388 -0.3920 -0.5566  0.4024
  166ccc     H1 4302  10.723   4.479   4.319 -0.7157 -1.1377 -0.3238
  166ccc     C1 4303  10.640   4.285   4.346  0.1254  0.1583 -0.3901
  166ccc     H2 4304  10.682   4.206   4.409  2.4740  1.6050 -0.0185
  166ccc     C2 4305  10.661   4.244   4.193 -0.7011 -0.0884 -0.3656
  166ccc     H3 4306  10.532   4.299   4.364  0.2242  0.6244 -0.1539
  166ccc     H4 4307  10.768   4.232   4.173 -0.8329 -2.0069 -0.0469
  166ccc     H5 4308  10.618   4.322   4.128 -2.9218 -0.2389  0.8373
  166ccc     N2 4309  10.597   4.117   4.146  0.8110 -0.5213  0.1043
  166ccc     C3 4310  10.630   4.087   4.007  0.2585  0.0041  0.3601
  166ccc     C4 4311  10.450   4.108   4.174  0.1953  0.1628 -0.4076
  166ccc     H6 4312  10.427   4.138   4.277  2.2575 -0.0138  0.1530
  166ccc     C5 4313  10.396   3.968   4.162  0.0790  0.2232  0.3005
  166ccc     H7 4314  10.397   4.171   4.102  1.0146  1.8258  0.3979
  166ccc     H8 4315  10.469   3.896   4.200 -1.1028 -1.7030 -0.9264
  166ccc     H9 4316  10.379   3.940   4.057  2.1846 -1.7012  0.4172
  166ccc     C6 4317  10.265   3.960   4.237  0.3641  0.5533  0.2662
  166ccc     O1 4318  10.163   3.904   4.162 -0.0085 -0.3973  0.0213
  166ccc     O2 4319  10.248   4.001   4.348 -0.0683  0.1452 -0.7119
  166ccc    H10 4320  10.562   4.148   3.947 -0.6169 -1.3635 -0.0774
  166ccc    H11 4321  10.603   3.984   3.978 -0.9528  1.0038 -2.4157
  166ccc     C7 4322  10.775   4.113   3.967 -0.7119 -0.5873 -0.2514
  166ccc    H12 4323  10.844   4.068   4.039 -0.1018  2.0041  0.9162
  166ccc    H13 4324  10.799   4.220   3.960  1.4762 -1.0968 -1.4352
  166ccc     C8 4325  10.803   4.048   3.837 -0.2637  0.0842 -1.0933
  166ccc     O3 4326  10.799   3.927   3.828 -0.1495 -0.2549 -0.6664
  166ccc     O4 4327  10.852   4.133   3.749 -0.0856 -0.0567 -0.2766
  166ccc    H14 4328  10.090   3.903   4.225  0.1830  0.6660  0.2770
  166ccc    H15 4329  10.846   4.222   3.789  2.9447  0.0840  0.0599
  167ccc     N1 4330  11.129   4.762   5.099  0.2632  0.3709  0.4611
  167ccc     H1 4331  11.203   4.777   5.031 -0.3892 -0.9598 -0.6093
  167ccc     C1 4332  11.173   4.740   5.234 -0.2923  0.2055  0.2461
  167ccc     H2 4333  11.281   4.752   5.246 -0.1505 -1.4157  0.9448
  167ccc     C2 4334  11.148   4.598   5.304  0.0272 -0.4080  0.8176
  167ccc     H3 4335  11.129   4.825   5.288 -0.9665 -1.0489  1.7750
  167ccc     H4 4336  11.043   4.581   5.278  0.3894 -0.0380 -0.9738
  167ccc     H5 4337  11.151   4.605   5.414 -0.4391  1.1602  0.7508
  167ccc     N2 4338  11.239   4.493   5.248  0.4582  0.0911 -0.5049
  167ccc     C3 4339  11.384   4.505   5.286 -0.0364 -0.6173 -0.7505
  167ccc     C4 4340  11.215   4.454   5.106  0.9605  0.1089  0.0619
  167ccc     H6 4341  11.221   4.540   5.038 -0.6987 -1.1315 -1.7744
  167ccc     C5 4342  11.073   4.404   5.077 -0.4169 -1.1007 -0.7122
  167ccc     H7 4343  11.283   4.374   5.075  1.2627  0.6884 -0.8282
  167ccc     H8 4344  11.002   4.487   5.086  0.7704 -0.1894  0.8561
  167ccc     H9 4345  11.046   4.322   5.144 -1.2289  0.2969  0.7440
  167ccc     C6 4346  11.063   4.350   4.934  0.4145 -0.2002 -0.1541
  167ccc     O1 4347  10.936   4.317   4.896 -0.1484 -0.0380  0.0196
  167ccc     O2 4348  11.147   4.358   4.847 -0.0845  0.6357  0.0189
  167ccc    H10 4349  11.426   4.600   5.252  0.2056  0.3679  2.0448
  167ccc    H11 4350  11.445   4.431   5.233  1.1752  1.3704 -2.2459
  167ccc     C7 4351  11.400   4.492   5.437  0.2313  0.2653 -0.8633
  167ccc    H12 4352  11.343   4.406   5.474 -0.3789  1.1252  0.2419
  167ccc    H13 4353  11.364   4.584   5.484  0.2978  0.7543 -1.7474
  167ccc     C8 4354  11.545   4.492   5.492 -0.3299 -0.0409  0.0732
  167ccc     O3 4355  11.634   4.551   5.433 -0.3489  0.4881 -0.0236
  167ccc     O4 4356  11.556   4.436   5.617 -0.4713 -0.3181 -0.4857
  167ccc    H14 4357  10.876   4.334   4.971 -0.8437  1.5285 -0.8465
  167ccc    H15 4358  11.467   4.437   5.655  0.3013 -0.9614  1.5138
  168ccc     N1 4359  11.566   4.694   3.110  0.0925 -0.3276 -0.2614
  168ccc     H1 4360  11.661   4.660   3.120  1.6664  3.3509 -0.8793
  168ccc     C1 4361  11.546   4.749   2.977  0.3006 -0.2963  0.3216
  168ccc     H2 4362  11.621   4.683   2.932  0.1829 -2.7909  3.3961
  168ccc     C2 4363  11.570   4.900   2.955 -0.1188  0.2313 -1.0792
  168ccc     H3 4364  11.448   4.722   2.936 -0.5805  3.0263  0.0180
  168ccc     H4 4365  11.487   4.951   3.004  0.6730  1.1831 -0.6993
  168ccc     H5 4366  11.568   4.922   2.847  0.4564 -2.1302 -1.6443
  168ccc     N2 4367  11.702   4.953   3.009  0.6532  0.4883  0.4001
  168ccc     C3 4368  11.721   5.099   2.997  0.5935  0.5657  0.0372
  168ccc     C4 4369  11.832   4.886   2.974 -0.1436 -0.8220  0.4107
  168ccc     H6 4370  11.912   4.932   3.033  1.0159 -2.8935  0.5362
  168ccc     C5 4371  11.875   4.886   2.824  0.7508  0.5241 -0.0448
  168ccc     H7 4372  11.819   4.785   3.013 -0.3239 -0.2846  1.8037
  168ccc     H8 4373  11.886   4.992   2.796  1.3799  0.7806  1.0827
  168ccc     H9 4374  11.800   4.837   2.761  1.7825 -3.0839  1.2811
  168ccc     C6 4375  12.001   4.825   2.805 -0.4594 -0.2240 -0.6643
  168ccc     O1 4376  12.011   4.743   2.701  0.1503  0.2675 -0.2024
  168ccc     O2 4377  12.102   4.887   2.838  0.3830  0.2323 -0.3582
  168ccc    H10 4378  11.721   5.124   2.890 -0.0299 -4.1013 -1.2739
  168ccc    H11 4379  11.819   5.126   3.040  0.5476  1.0009 -0.1271
  168ccc     C7 4380  11.613   5.170   3.073 -0.0630  0.1723  0.1616
  168ccc    H12 4381  11.577   5.115   3.161  0.6598 -0.6471 -0.0467
  168ccc    H13 4382  11.529   5.173   3.003  1.5176 -1.6567 -1.9544
  168ccc     C8 4383  11.659   5.307   3.124 -0.0119 -0.2823  0.2721
  168ccc     O3 4384  11.731   5.329   3.219 -0.6784  0.0022 -0.2406
  168ccc     O4 4385  11.604   5.408   3.065  0.0253 -0.0643  0.0735
  168ccc    H14 4386  11.924   4.699   2.703 -0.9002  1.9950 -2.5899
  168ccc    H15 4387  11.584   5.361   2.982 -0.8098  0.9383 -0.3135
  169ccc     N1 4388  11.140   4.076   3.344  0.5818 -0.3563  0.0491
  169ccc     H1 4389  11.176   4.122   3.261 -2.2380  0.4719 -0.8103
  169ccc     C1 4390  10.989   4.070   3.343 -0.2432 -0.1818  0.3119
  169ccc     H2 4391  10.951   4.112   3.438 -0.3796  2.7842 -0.9354
  169ccc     C2 4392  10.938   3.938   3.290  0.5042 -0.4040 -1.0155
  169ccc     H3 4393  10.963   4.145   3.267  0.6124  0.9517  1.0936
  169ccc     H4 4394  10.976   3.908   3.191 -0.4729 -0.6749 -1.3216
  169ccc     H5 4395  10.833   3.951   3.262  0.4346  1.3631 -0.0826
  169ccc     N2 4396  10.946   3.818   3.386 -0.0845 -0.4912  0.5109
  169ccc     C3 4397  10.849   3.833   3.498  0.6974 -0.2317 -0.3428
  169ccc     C4 4398  11.089   3.791   3.418 -0.5614  0.4880  0.2441
  169ccc     H6 4399  11.144   3.817   3.327  0.8712 -0.3473  0.8224
  169ccc     C5 4400  11.113   3.646   3.438 -0.1811  0.6525  0.0265
  169ccc     H7 4401  11.121   3.847   3.507 -0.8455  0.1711  0.5502
  169ccc     H8 4402  11.088   3.580   3.354 -0.7620  0.5903  0.2446
  169ccc     H9 4403  11.058   3.611   3.526  1.7450 -0.3188  0.8955
  169ccc     C6 4404  11.260   3.617   3.477  0.1133 -0.4548 -0.5599
  169ccc     O1 4405  11.281   3.504   3.542  0.3480  0.6882 -0.6624
  169ccc     O2 4406  11.338   3.706   3.475 -0.0767  0.3239  0.2698
  169ccc    H10 4407  10.845   3.934   3.542 -0.1030 -0.1503 -0.5935
  169ccc    H11 4408  10.879   3.767   3.580  1.0695  0.7091  0.2999
  169ccc     C7 4409  10.703   3.804   3.458  0.5221  0.4761  0.2751
  169ccc    H12 4410  10.700   3.700   3.421 -2.4480  0.4710  0.3203
  169ccc    H13 4411  10.678   3.868   3.373 -0.6594 -0.8245 -0.4005
  169ccc     C8 4412  10.605   3.826   3.574  0.1977  0.1276  0.0252
  169ccc     O3 4413  10.549   3.932   3.586  0.4002 -0.4402 -0.3264
  169ccc     O4 4414  10.622   3.737   3.671  0.0942 -0.6389  0.0514
  169ccc    H14 4415  11.207   3.441   3.531 -0.1294  0.6390  2.0421
  169ccc    H15 4416  10.672   3.667   3.626 -1.2922 -0.8606 -1.2197
  170ccc     N1 4417  11.633   6.206   2.213  0.0383  0.0789 -0.3879
  170ccc     H1 4418  11.696   6.135   2.250 -0.8313  0.1509  1.3783
  170ccc     C1 4419  11.610   6.218   2.070 -0.3257  0.1012  0.1302
  170ccc     H2 4420  11.601   6.323   2.042 -0.5415 -0.5358 -2.4730
  170ccc     C2 4421  11.486   6.145   2.020  0.0280  0.2627 -0.4697
  170ccc     H3 4422  11.695   6.181   2.012 -0.2363  0.6595 -0.0921
  170ccc     H4 4423  11.490   6.140   1.910  1.4905 -0.8323 -0.3970
  170ccc     H5 4424  11.401   6.211   2.041  1.6736  2.6088 -0.7646
  170ccc     N2 4425  11.465   6.004   2.064  0.4142  0.0268 -0.5338
  170ccc     C3 4426  11.583   5.914   2.038  0.9544  0.0344 -0.1488
  170ccc     C4 4427  11.335   5.943   2.023  0.0335 -0.1266 -0.2269
  170ccc     H6 4428  11.312   5.972   1.919  0.5513 -2.1917 -0.9576
  170ccc     C5 4429  11.224   6.001   2.110 -0.5783  0.2221 -0.5185
  170ccc     H7 4430  11.338   5.834   2.015 -2.0621 -0.1018 -2.4955
  170ccc     H8 4431  11.133   5.958   2.067 -0.1694  1.0510 -2.2934
  170ccc     H9 4432  11.215   6.110   2.098  0.6670  0.1563 -2.4501
  170ccc     C6 4433  11.228   5.973   2.258  0.4305 -0.0602 -0.5525
  170ccc     O1 4434  11.350   5.989   2.306  0.5771 -0.6635  0.3903
  170ccc     O2 4435  11.155   5.894   2.317  0.6341  0.3940  0.4091
  170ccc    H10 4436  11.681   5.962   2.044  1.0901 -0.3893  2.2662
  170ccc    H11 4437  11.569   5.876   1.936  0.6981  1.0260 -0.4901
  170ccc     C7 4438  11.587   5.804   2.148  0.0458  0.0753  0.0370
  170ccc    H12 4439  11.490   5.756   2.160 -0.4717  0.8531 -0.9010
  170ccc    H13 4440  11.620   5.849   2.242 -0.4440 -0.3526  0.4198
  170ccc     C8 4441  11.677   5.695   2.114 -0.3757 -0.6475  0.5821
  170ccc     O3 4442  11.724   5.668   2.001  0.2517 -0.4326  0.4336
  170ccc     O4 4443  11.720   5.620   2.221  0.0395  0.2117  0.3107
  170ccc    H14 4444  11.384   6.030   2.225 -1.0253  0.9630  0.4643
  170ccc    H15 4445  11.653   5.627   2.291 -1.4594 -1.3649 -0.8973
  171ccc     N1 4446  11.399   6.248   3.118 -0.1273  0.9643 -0.4691
  171ccc     H1 4447  11.495   6.232   3.148  0.0345  1.7849 -0.5318
  171ccc     C1 4448  11.304   6.239   3.221 -0.6455  0.9214 -0.1613
  171ccc     H2 4449  11.342   6.298   3.306 -0.1394 -0.0459  0.2959
  171ccc     C2 4450  11.274   6.087   3.254  0.1713  0.1866 -0.1824
  171ccc     H3 4451  11.210   6.285   3.189 -2.4965 -2.2662  0.3473
  171ccc     H4 4452  11.226   6.041   3.167 -0.3783  0.3344  0.0359
  171ccc     H5 4453  11.193   6.094   3.327 -0.1116 -1.9523 -0.2308
  171ccc     N2 4454  11.380   5.994   3.309  0.1683  0.0533 -0.3517
  171ccc     C3 4455  11.477   5.946   3.210 -0.0184  0.6904 -0.0130
  171ccc     C4 4456  11.444   6.048   3.431  0.2611  0.0412 -0.1027
  171ccc     H6 4457  11.527   6.113   3.402  1.7675 -1.2762  1.0479
  171ccc     C5 4458  11.491   5.933   3.528  0.0055 -0.5815 -0.0353
  171ccc     H7 4459  11.379   6.114   3.490  1.3845 -1.9345  3.6451
  171ccc     H8 4460  11.561   5.964   3.607 -0.4391 -1.9510  0.9379
  171ccc     H9 4461  11.544   5.849   3.481  2.0487  0.0976  0.8980
  171ccc     C6 4462  11.369   5.867   3.589 -0.4203 -0.3079 -1.2629
  171ccc     O1 4463  11.282   5.815   3.501  0.5134 -0.1518 -0.2370
  171ccc     O2 4464  11.356   5.848   3.708  0.5088  0.3954 -0.1105
  171ccc    H10 4465  11.561   5.897   3.261 -0.0466  1.1513  0.4923
  171ccc    H11 4466  11.523   6.032   3.160 -0.3424  1.8231  1.5407
  171ccc     C7 4467  11.413   5.834   3.125 -0.6867  0.1458 -0.3987
  171ccc    H12 4468  11.310   5.861   3.097 -1.1615  0.4965  1.5443
  171ccc    H13 4469  11.402   5.748   3.193  0.3268  0.7692  0.5925
  171ccc     C8 4470  11.499   5.807   3.000  0.1123  0.0599 -0.3488
  171ccc     O3 4471  11.597   5.871   2.959  0.5888  0.0967 -0.7149
  171ccc     O4 4472  11.468   5.697   2.930 -0.0235  0.1236 -0.1770
  171ccc    H14 4473  11.306   5.865   3.421  2.3627 -0.8909 -0.1896
  171ccc    H15 4474  11.391   5.654   2.973 -1.2117  1.2015 -1.1561
  172ccc     N1 4475  12.327   5.899   3.811 -0.2457 -0.0143 -0.8070
  172ccc     H1 4476  12.233   5.892   3.774 -0.8830 -0.1437  0.7684
  172ccc     C1 4477  12.344   5.795   3.908 -0.9987  0.5542  0.3882
  172ccc     H2 4478  12.412   5.717   3.870 -2.5896 -0.9524  0.4886
  172ccc     C2 4479  12.208   5.739   3.946 -0.3573  0.4260 -0.3549
  172ccc     H3 4480  12.386   5.835   4.001 -1.1351  2.8247 -0.4822
  172ccc     H4 4481  12.166   5.809   4.020  1.3852 -0.5594  1.6846
  172ccc     H5 4482  12.230   5.647   4.002  0.8714  1.3309  0.7213
  172ccc     N2 4483  12.112   5.697   3.840 -0.7017  0.0251 -0.2964
  172ccc     C3 4484  11.976   5.691   3.887  0.1374  0.2419 -0.7071
  172ccc     C4 4485  12.151   5.585   3.753 -0.1334  0.3329 -0.0424
  172ccc     H6 4486  12.258   5.593   3.729 -0.4286  0.3540 -1.4283
  172ccc     C5 4487  12.069   5.579   3.627  0.2646 -0.0631 -0.2446
  172ccc     H7 4488  12.152   5.486   3.801 -0.9707  1.4437  2.3795
  172ccc     H8 4489  12.036   5.679   3.597  0.1790 -0.2284 -0.7090
  172ccc     H9 4490  11.973   5.529   3.643 -1.1242  2.4993  0.0250
  172ccc     C6 4491  12.149   5.522   3.513  0.3912  0.0279  0.0549
  172ccc     O1 4492  12.093   5.421   3.455 -0.2761 -0.3037  0.0763
  172ccc     O2 4493  12.267   5.555   3.481  0.3728 -0.3254  0.2220
  172ccc    H10 4494  11.959   5.674   3.994  2.1951  1.0377 -0.2108
  172ccc    H11 4495  11.925   5.611   3.832  1.2048 -0.7479 -0.3022
  172ccc     C7 4496  11.919   5.827   3.848  0.5582 -0.2415  0.3413
  172ccc    H12 4497  11.910   5.834   3.738  1.4337 -1.4404  0.1788
  172ccc    H13 4498  11.978   5.906   3.897  2.2303 -2.4985  2.1551
  172ccc     C8 4499  11.774   5.827   3.899 -0.5750  0.8755 -0.0512
  172ccc     O3 4500  11.744   5.863   4.005 -0.7515  0.0810 -0.1575
  172ccc     O4 4501  11.704   5.732   3.838  0.0220 -0.4473 -0.4833
  172ccc    H14 4502  12.028   5.394   3.522  1.5282  0.1350  2.1558
  172ccc    H15 4503  11.736   5.719   3.746 -2.2406 -2.4556 -1.0894
  173ccc     N1 4504  12.457   6.335   3.142 -0.2044  0.2016 -0.2720
  173ccc     H1 4505  12.550   6.297   3.127  0.2239 -0.9838  4.1789
  173ccc     C1 4506  12.449   6.476   3.112  0.0275 -0.7779 -0.4508
  173ccc     H2 4507  12.528   6.502   3.040 -1.0492  2.4386 -0.6104
  173ccc     C2 4508  12.485   6.558   3.239 -0.2362 -0.1947  0.4272
  173ccc     H3 4509  12.352   6.503   3.069 -0.3115 -0.5453  0.4316
  173ccc     H4 4510  12.475   6.660   3.201  1.6244  0.3579  1.3206
  173ccc     H5 4511  12.592   6.543   3.256  0.3644  3.0321  0.0500
  173ccc     N2 4512  12.408   6.549   3.368 -0.4208 -0.5670  0.3918
  173ccc     C3 4513  12.263   6.572   3.362 -0.2620  0.1969 -0.2240
  173ccc     C4 4514  12.460   6.450   3.464  0.0157 -0.4268 -0.1779
  173ccc     H6 4515  12.436   6.490   3.563 -1.0853  1.4715 -1.1446
  173ccc     C5 4516  12.610   6.429   3.462 -0.5717  0.1350  0.2761
  173ccc     H7 4517  12.402   6.358   3.448 -0.1545 -0.0706 -1.7225
  173ccc     H8 4518  12.670   6.519   3.480  1.9148 -1.2788 -0.4955
  173ccc     H9 4519  12.638   6.383   3.366 -0.1688  1.7184 -0.3983
  173ccc     C6 4520  12.642   6.333   3.575 -0.1057 -0.5704  0.3517
  173ccc     O1 4521  12.773   6.330   3.602  0.1079 -0.8955  0.3145
  173ccc     O2 4522  12.570   6.281   3.656  0.2736 -0.0634 -0.0382
  173ccc    H10 4523  12.214   6.575   3.460  0.4147  0.5485  0.1120
  173ccc    H11 4524  12.216   6.485   3.314 -3.8407  0.8643  1.7013
  173ccc     C7 4525  12.226   6.699   3.286 -0.0347 -0.1586 -0.5990
  173ccc    H12 4526  12.247   6.697   3.178  1.3538 -1.6119 -0.3310
  173ccc    H13 4527  12.282   6.783   3.328 -1.4127 -0.0770  1.1705
  173ccc     C8 4528  12.074   6.722   3.316  0.0471  0.3821 -0.1844
  173ccc     O3 4529  11.995   6.633   3.334 -0.5722 -0.2807 -0.2089
  173ccc     O4 4530  12.040   6.850   3.332  0.6146 -0.6277 -0.0753
  173ccc    H14 4531  12.814   6.341   3.515 -1.0665  2.3847  0.0354
  173ccc    H15 4532  12.109   6.898   3.283  0.6320  1.3274  1.7224
  174ccc     N1 4533   8.512   4.503   3.226  0.6001  0.2883  0.1076
  174ccc     H1 4534   8.524   4.413   3.271 -0.5610 -0.2453 -0.6159
  174ccc     C1 4535   8.386   4.528   3.153  0.1339 -0.5973 -0.2540
  174ccc     H2 4536   8.341   4.620   3.193 -4.1815 -1.5534 -2.3049
  174ccc     C2 4537   8.283   4.415   3.181  0.7009 -0.3126 -0.1365
  174ccc     H3 4538   8.412   4.532   3.046  0.6825  0.2118 -0.0997
  174ccc     H4 4539   8.273   4.412   3.290 -0.4465  2.0236 -0.1239
  174ccc     H5 4540   8.328   4.320   3.147  0.5549  0.0505 -1.4008
  174ccc     N2 4541   8.143   4.427   3.123 -0.0700 -0.6149 -0.5729
  174ccc     C3 4542   8.043   4.509   3.203  0.0037  0.7713  0.3177
  174ccc     C4 4543   8.142   4.457   2.978 -0.4278 -0.1402  0.0555
  174ccc     H6 4544   8.043   4.449   2.932  0.2416  0.9077 -1.6704
  174ccc     C5 4545   8.240   4.367   2.895 -0.3009  0.0814 -0.6517
  174ccc     H7 4546   8.159   4.564   2.960 -0.3571 -0.2627 -0.6354
  174ccc     H8 4547   8.344   4.380   2.924  0.1842  0.4092 -2.4319
  174ccc     H9 4548   8.239   4.393   2.788  2.0288 -0.2526 -0.7930
  174ccc     C6 4549   8.196   4.219   2.908  0.2377  0.1089 -0.3656
  174ccc     O1 4550   8.286   4.137   2.852 -0.3489  0.2635  0.2713
  174ccc     O2 4551   8.084   4.176   2.936 -0.1806 -0.8246  0.8248
  174ccc    H10 4552   7.950   4.520   3.146  1.6031  0.6664 -2.5197
  174ccc    H11 4553   8.091   4.606   3.218  0.7101  0.2477  1.5346
  174ccc     C7 4554   8.006   4.439   3.334  0.5256 -0.6063  0.3735
  174ccc    H12 4555   7.944   4.507   3.393  0.4609 -0.3743  0.0449
  174ccc    H13 4556   8.091   4.421   3.400  1.4588  0.2923 -0.5355
  174ccc     C8 4557   7.928   4.312   3.314 -1.0039  0.0170 -0.0850
  174ccc     O3 4558   7.823   4.282   3.364  0.2144  0.1352  0.2351
  174ccc     O4 4559   7.993   4.223   3.244 -0.3119 -0.0639 -0.4348
  174ccc    H14 4560   8.344   4.194   2.799  2.2070 -4.3182 -2.5520
  174ccc    H15 4561   8.058   4.284   3.204  0.7794 -2.0990 -1.9380
  175ccc     N1 4562   9.195   4.239   3.571 -0.1803 -0.1249  0.3784
  175ccc     H1 4563   9.261   4.254   3.495  0.2667  0.9311  0.9576
  175ccc     C1 4564   9.229   4.128   3.659 -0.3846 -0.1417  0.2430
  175ccc     H2 4565   9.133   4.076   3.672 -0.6500  0.2651 -0.0558
  175ccc     C2 4566   9.284   4.168   3.797  0.2438  0.2854 -0.0117
  175ccc     H3 4567   9.306   4.069   3.607 -0.2173 -0.4046  0.7848
  175ccc     H4 4568   9.295   4.078   3.859 -1.8169 -0.9093 -1.2731
  175ccc     H5 4569   9.208   4.226   3.851  2.4435  1.6872  1.8146
  175ccc     N2 4570   9.415   4.249   3.786  0.2849 -0.1806 -0.5044
  175ccc     C3 4571   9.433   4.339   3.904 -0.0747 -0.2235  0.4662
  175ccc     C4 4572   9.525   4.152   3.778 -0.0617  0.0941  0.0914
  175ccc     H6 4573   9.540   4.101   3.874 -0.1083  0.4496  0.2899
  175ccc     C5 4574   9.659   4.222   3.729 -0.2242 -0.0355 -0.3379
  175ccc     H7 4575   9.507   4.084   3.693 -0.1855  1.7463 -1.2556
  175ccc     H8 4576   9.711   4.270   3.814  0.5306 -3.7137  1.4924
  175ccc     H9 4577   9.634   4.292   3.648  0.9390  0.4793 -0.2872
  175ccc     C6 4578   9.766   4.131   3.680 -0.5570  0.2100 -0.6863
  175ccc     O1 4579   9.885   4.187   3.667 -0.3208  0.1778 -0.4905
  175ccc     O2 4580   9.750   4.019   3.650 -0.2105 -0.6735  0.7022
  175ccc    H10 4581   9.539   4.364   3.919 -0.3663  1.7015 -0.4053
  175ccc    H11 4582   9.387   4.291   3.991  1.1744 -1.9201  0.2396
  175ccc     C7 4583   9.367   4.477   3.876 -0.6038 -0.2776 -0.4319
  175ccc    H12 4584   9.376   4.525   3.974 -1.0952 -3.5412  1.3531
  175ccc    H13 4585   9.260   4.465   3.854 -0.2257 -4.0236 -0.8033
  175ccc     C8 4586   9.414   4.552   3.749 -0.2481 -0.1360  0.1521
  175ccc     O3 4587   9.389   4.667   3.741 -0.0392 -0.7060  0.1747
  175ccc     O4 4588   9.427   4.473   3.638 -0.4645 -0.3632 -0.6985
  175ccc    H14 4589   9.877   4.283   3.679  2.1747  0.5108 -0.8576
  175ccc    H15 4590   9.419   4.387   3.682  0.8134 -1.2320 -2.0717
  176ccc     N1 4591  10.170   5.545   3.000 -0.5289  0.1416 -0.0365
  176ccc     H1 4592  10.204   5.595   3.082 -0.2360  1.4958 -0.9452
  176ccc     C1 4593  10.262   5.546   2.886  0.7514 -0.5159 -0.6233
  176ccc     H2 4594  10.233   5.457   2.829 -0.5358 -0.8583  0.5141
  176ccc     C2 4595  10.413   5.545   2.934  0.4505 -0.0065  0.2356
  176ccc     H3 4596  10.231   5.631   2.823 -1.6510 -2.2431 -1.8965
  176ccc     H4 4597  10.472   5.541   2.842  1.0774 -2.0844  0.6859
  176ccc     H5 4598  10.428   5.443   2.970 -0.8268 -0.5916 -0.8059
  176ccc     N2 4599  10.448   5.653   3.030  0.3874 -0.5297 -0.3076
  176ccc     C3 4600  10.578   5.638   3.089 -0.1120 -0.2147 -0.3793
  176ccc     C4 4601  10.397   5.784   2.984  0.0468 -0.3262 -0.2713
  176ccc     H6 4602  10.289   5.787   2.962 -0.3765 -4.0843  0.6351
  176ccc     C5 4603  10.487   5.833   2.865 -0.1338 -0.0464 -0.1451
  176ccc     H7 4604  10.421   5.855   3.064 -2.0973 -2.8473  2.8740
  176ccc     H8 4605  10.474   5.756   2.788 -1.5753 -1.5865  1.5473
  176ccc     H9 4606  10.593   5.835   2.893  0.5302 -2.5309 -2.1016
  176ccc     C6 4607  10.445   5.966   2.809 -0.0881 -0.7948  0.5499
  176ccc     O1 4608  10.518   6.010   2.703 -0.2949  0.1614 -0.3679
  176ccc     O2 4609  10.344   6.020   2.841 -0.0539 -0.4572  1.1162
  176ccc    H10 4610  10.587   5.729   3.151 -0.8191  1.6193 -2.8296
  176ccc    H11 4611  10.657   5.661   3.017  0.8057  1.8136  1.1730
  176ccc     C7 4612  10.604   5.506   3.170 -0.1416 -0.1655 -0.0748
  176ccc    H12 4613  10.599   5.422   3.099  0.6900 -0.2232 -0.0767
  176ccc    H13 4614  10.527   5.496   3.247  0.8940 -2.3099  0.7654
  176ccc     C8 4615  10.736   5.506   3.251 -0.1649 -0.2744 -0.6753
  176ccc     O3 4616  10.746   5.567   3.355 -0.3603  0.2371 -0.0500
  176ccc     O4 4617  10.838   5.459   3.187  0.1992 -0.1361 -0.3236
  176ccc    H14 4618  10.595   5.954   2.683  0.0817  1.1311 -1.8700
  176ccc    H15 4619  10.801   5.437   3.101 -1.6249 -0.1755  0.4258
  177ccc     N1 4620  10.001   6.122   3.016 -0.2926 -0.1521 -0.0069
  177ccc     H1 4621  10.078   6.064   3.048 -0.3873 -0.4577 -0.3182
  177ccc     C1 4622  10.024   6.261   3.009  0.0449 -0.2242  0.1606
  177ccc     H2 4623  10.086   6.296   2.925 -0.6298 -1.3087 -0.8183
  177ccc     C2 4624  10.083   6.327   3.138  0.3689  0.9296 -0.2403
  177ccc     H3 4625   9.929   6.311   2.989 -0.0302 -0.3718  0.1399
  177ccc     H4 4626  10.152   6.252   3.178 -0.8172 -0.1381 -0.1391
  177ccc     H5 4627  10.006   6.343   3.214  0.6831  1.3152  0.0015
  177ccc     N2 4628  10.166   6.458   3.124  0.7684  0.3554 -0.8018
  177ccc     C3 4629  10.078   6.574   3.096  0.0963  0.3236 -0.5240
  177ccc     C4 4630  10.285   6.453   3.032  0.2879 -0.0033 -0.2786
  177ccc     H6 4631  10.246   6.449   2.929 -0.1108 -1.8321 -0.0835
  177ccc     C5 4632  10.381   6.340   3.055  0.2067  0.1028  0.4237
  177ccc     H7 4633  10.338   6.547   3.050 -0.4798  0.4112 -0.1205
  177ccc     H8 4634  10.327   6.246   3.039  0.9294 -0.2195 -0.1971
  177ccc     H9 4635  10.435   6.336   3.150  0.5128  2.1389  0.3778
  177ccc     C6 4636  10.493   6.350   2.955 -0.4314  0.6374 -0.6316
  177ccc     O1 4637  10.560   6.232   2.923 -0.7061  0.2607 -0.8155
  177ccc     O2 4638  10.513   6.447   2.890  0.0743 -0.3077  0.2885
  177ccc    H10 4639  10.016   6.544   3.011 -0.3878 -3.2815  0.9067
  177ccc    H11 4640  10.143   6.653   3.056  1.7261  0.5226  2.2002
  177ccc     C7 4641  10.013   6.612   3.225  0.0745  0.5880  0.3495
  177ccc    H12 4642  10.084   6.643   3.303  0.5399 -1.5254  0.8392
  177ccc    H13 4643   9.958   6.529   3.272  0.2237  1.0485  1.3666
  177ccc     C8 4644   9.909   6.714   3.211 -0.3444 -0.0229  0.1369
  177ccc     O3 4645   9.881   6.772   3.107  0.2199 -0.4580  0.1034
  177ccc     O4 4646   9.870   6.765   3.325 -0.3078  0.1315  0.3240
  177ccc    H14 4647  10.545   6.167   2.994  0.2586  0.4424 -0.4159
  177ccc    H15 4648   9.917   6.713   3.393 -1.8798 -0.9765  0.6190
  178ccc     N1 4649  10.705   6.115   1.826 -0.9485  0.3963 -0.5239
  178ccc     H1 4650  10.628   6.151   1.772 -0.9990  0.8273 -0.1674
  178ccc     C1 4651  10.789   6.220   1.899 -0.0426 -0.3594  0.6065
  178ccc     H2 4652  10.758   6.321   1.869  0.4248  0.0588  1.5039
  178ccc     C2 4653  10.941   6.199   1.872  0.1001 -0.3517 -0.0082
  178ccc     H3 4654  10.773   6.209   2.007  1.3087 -0.3192  0.8277
  178ccc     H4 4655  10.973   6.105   1.919  0.3229 -0.0112  0.5329
  178ccc     H5 4656  10.991   6.271   1.938  0.2690  0.6411 -1.1709
  178ccc     N2 4657  11.003   6.220   1.735  0.5279  0.8390 -0.2217
  178ccc     C3 4658  10.988   6.358   1.682  0.1475 -0.8159  0.1413
  178ccc     C4 4659  10.957   6.122   1.634  0.2368  0.6355  0.4636
  178ccc     H6 4660  10.849   6.120   1.615  0.1820 -1.6855  0.8348
  178ccc     C5 4661  11.008   5.985   1.680  0.0568  0.3147  0.4086
  178ccc     H7 4662  11.012   6.134   1.540  0.8098  0.3675  0.7613
  178ccc     H8 4663  10.966   5.943   1.773 -1.4359 -2.8885 -1.5411
  178ccc     H9 4664  11.117   5.986   1.698  0.7610 -3.1182 -2.3905
  178ccc     C6 4665  10.993   5.886   1.564  0.6645  0.3249  0.7514
  178ccc     O1 4666  11.106   5.808   1.549 -0.4549  0.1842 -0.4891
  178ccc     O2 4667  10.886   5.837   1.537  0.5576 -0.1936  0.2249
  178ccc    H10 4668  10.998   6.434   1.761  1.4590 -0.8071 -0.0124
  178ccc    H11 4669  10.882   6.363   1.656 -0.0594 -0.8129  0.9371
  178ccc     C7 4670  11.065   6.388   1.557  0.1445 -0.2488 -0.2370
  178ccc    H12 4671  11.032   6.321   1.477  0.8858 -1.6770  0.6172
  178ccc    H13 4672  11.171   6.365   1.569  0.8056  2.0210 -1.1127
  178ccc     C8 4673  11.038   6.522   1.506  0.2174 -1.1089 -0.2308
  178ccc     O3 4674  10.981   6.614   1.565  0.2005 -0.1990 -0.1121
  178ccc     O4 4675  11.071   6.537   1.375 -0.4418 -0.4971 -0.3285
  178ccc    H14 4676  11.173   5.864   1.590  0.9410  0.8356 -3.4102
  178ccc    H15 4677  11.092   6.445   1.351  0.5379  0.0977 -1.9165
  179ccc     N1 4678  10.385   5.393   1.487 -0.0388 -0.3072  0.5529
  179ccc     H1 4679  10.316   5.430   1.551  0.7922  1.7865  0.3138
  179ccc     C1 4680  10.338   5.307   1.381 -0.1066 -0.2514  0.4129
  179ccc     H2 4681  10.232   5.289   1.399 -0.6060  1.1433 -0.9330
  179ccc     C2 4682  10.425   5.177   1.408  0.7528  0.5510  0.6201
  179ccc     H3 4683  10.365   5.354   1.285  0.5537 -1.6706 -0.1424
  179ccc     H4 4684  10.398   5.149   1.511  0.7045 -0.9141  0.2238
  179ccc     H5 4685  10.533   5.194   1.402  0.8824 -0.2394  0.5990
  179ccc     N2 4686  10.396   5.062   1.315 -0.2836 -1.2506  0.3687
  179ccc     C3 4687  10.394   5.100   1.169 -0.5095  0.1826  0.2961
  179ccc     C4 4688  10.483   4.951   1.349  0.3997 -0.1636  0.7396
  179ccc     H6 4689  10.505   4.889   1.261  0.6127 -0.5868  1.0832
  179ccc     C5 4690  10.408   4.873   1.457  0.6686  0.2975 -0.3163
  179ccc     H7 4691  10.577   4.987   1.392  1.6578 -0.5737 -1.5038
  179ccc     H8 4692  10.308   4.841   1.427  0.7524 -1.9376  1.4909
  179ccc     H9 4693  10.404   4.922   1.555 -0.3413  0.9178 -0.6595
  179ccc     C6 4694  10.481   4.749   1.491 -0.3053  0.3144 -0.2675
  179ccc     O1 4695  10.418   4.661   1.571 -0.2250  0.2825  0.0995
  179ccc     O2 4696  10.590   4.722   1.442 -0.4404  0.0899 -0.2557
  179ccc    H10 4697  10.320   5.178   1.146  0.5824  0.8806 -0.9428
  179ccc    H11 4698  10.385   5.011   1.105 -1.9489  0.4792  0.0535
  179ccc     C7 4699  10.523   5.168   1.112  0.4666 -0.0792  0.0119
  179ccc    H12 4700  10.613   5.106   1.118  0.5261  0.1293  1.5965
  179ccc    H13 4701  10.544   5.257   1.171 -0.7768 -0.0426  0.4388
  179ccc     C8 4702  10.504   5.212   0.964  0.1208 -0.8930  0.6861
  179ccc     O3 4703  10.508   5.332   0.931 -0.1829 -0.2135 -0.5476
  179ccc     O4 4704  10.509   5.116   0.875 -0.3582 -0.2670  0.1029
  179ccc    H14 4705  10.326   4.690   1.578  0.1953  2.1658 -1.3729
  179ccc    H15 4706  10.545   5.037   0.919  1.6959  1.5888  2.0110
  180ccc     N1 4707   9.147   6.911   2.164 -0.3384  0.1744  0.4826
  180ccc     H1 4708   9.119   6.901   2.067  0.5972 -1.2640  0.3280
  180ccc     C1 4709   9.039   6.956   2.250  0.2459  0.2080 -0.3113
  180ccc     H2 4710   8.942   6.945   2.199 -0.3576 -0.8985  1.0190
  180ccc     C2 4711   9.067   7.088   2.322 -0.1074  1.2638  0.3866
  180ccc     H3 4712   9.024   6.880   2.327  0.4170  0.5242  0.0385
  180ccc     H4 4713   9.164   7.083   2.373  0.3769  0.2263 -0.6121
  180ccc     H5 4714   8.991   7.100   2.401  0.1042  0.0247  0.7984
  180ccc     N2 4715   9.048   7.202   2.225 -0.4013 -0.1243  0.1958
  180ccc     C3 4716   8.920   7.214   2.147  0.6510  0.6749  0.2725
  180ccc     C4 4717   9.162   7.229   2.137 -0.1251 -0.4430  0.1398
  180ccc     H6 4718   9.252   7.189   2.185 -0.6107 -2.7013 -0.7065
  180ccc     C5 4719   9.162   7.377   2.108 -0.2617 -0.2922 -0.6323
  180ccc     H7 4720   9.151   7.174   2.043 -2.2211 -1.0221  0.6572
  180ccc     H8 4721   9.160   7.440   2.198  0.8252 -1.5145  0.2714
  180ccc     H9 4722   9.071   7.395   2.049 -0.8773 -1.2648 -0.0063
  180ccc     C6 4723   9.283   7.403   2.026 -0.2677  0.2020 -0.4665
  180ccc     O1 4724   9.271   7.491   1.921  0.5641 -0.1383 -0.6801
  180ccc     O2 4725   9.393   7.363   2.067  0.3495 -0.1326  0.4784
  180ccc    H10 4726   8.918   7.143   2.063 -1.7604 -1.0379  1.6756
  180ccc    H11 4727   8.899   7.310   2.098 -0.8491  1.3292  2.0913
  180ccc     C7 4728   8.802   7.207   2.235  0.3689 -0.3358 -0.5730
  180ccc    H12 4729   8.821   7.296   2.297 -0.0952  0.7153 -1.8917
  180ccc    H13 4730   8.791   7.115   2.294 -0.4205  0.3943  0.4483
  180ccc     C8 4731   8.667   7.227   2.165  0.0377  0.7285 -0.2091
  180ccc     O3 4732   8.647   7.223   2.042 -1.0142  0.0038 -0.7838
  180ccc     O4 4733   8.564   7.249   2.248  0.7460 -0.0152  0.3160
  180ccc    H14 4734   9.176   7.504   1.906 -0.1145 -0.6957  2.3810
  180ccc    H15 4735   8.591   7.272   2.338 -0.2805  0.0012  0.6248
  181ccc     N1 4736   9.752   6.741   1.729  0.2448  0.5737  0.0984
  181ccc     H1 4737   9.820   6.719   1.801  0.3458  0.7658  0.0626
  181ccc     C1 4738   9.765   6.662   1.608  0.5192 -0.1019  0.1034
  181ccc     H2 4739   9.831   6.579   1.636  0.3903 -0.2416  0.0036
  181ccc     C2 4740   9.819   6.754   1.490  0.3317  0.2993  0.1252
  181ccc     H3 4741   9.665   6.618   1.596  0.6606 -0.9209  1.7114
  181ccc     H4 4742   9.926   6.775   1.504  0.6437 -0.9538 -0.2045
  181ccc     H5 4743   9.754   6.842   1.482 -0.1569 -0.1922 -1.8179
  181ccc     N2 4744   9.817   6.688   1.360 -0.8568  0.4448 -0.2389
  181ccc     C3 4745   9.690   6.671   1.283 -0.1750  0.1430  0.4274
  181ccc     C4 4746   9.910   6.569   1.342 -0.2381 -0.3428  0.2999
  181ccc     H6 4747   9.860   6.483   1.389  1.0237 -0.6402  1.1537
  181ccc     C5 4748  10.053   6.582   1.391 -0.1591  0.3470 -0.0232
  181ccc     H7 4749   9.911   6.546   1.235  1.1559  3.1757 -0.5730
  181ccc     H8 4750  10.047   6.571   1.500  0.4378 -1.6327 -0.1418
  181ccc     H9 4751  10.091   6.681   1.364  0.2730  0.3550  0.6062
  181ccc     C6 4752  10.142   6.469   1.339 -0.3204  0.4543  0.5335
  181ccc     O1 4753  10.260   6.456   1.407 -0.2072 -0.1660 -0.1739
  181ccc     O2 4754  10.093   6.380   1.283 -0.0834  0.5569 -0.2190
  181ccc    H10 4755   9.628   6.600   1.339 -1.3875 -2.1423 -3.4510
  181ccc    H11 4756   9.709   6.638   1.180 -3.7741  0.8771 -0.6173
  181ccc     C7 4757   9.621   6.805   1.258  0.1457  0.2345 -0.2288
  181ccc    H12 4758   9.698   6.866   1.207 -1.5846  2.3372 -0.4738
  181ccc    H13 4759   9.592   6.853   1.352  2.0896  1.6307 -0.2752
  181ccc     C8 4760   9.500   6.792   1.170  0.0160  0.8093 -0.3196
  181ccc     O3 4761   9.427   6.699   1.173  0.5705  0.6327  0.0534
  181ccc     O4 4762   9.474   6.906   1.110  0.0590 -0.0218 -0.1974
  181ccc    H14 4763  10.268   6.539   1.456 -2.1382  2.1953 -3.4266
  181ccc    H15 4764   9.386   6.882   1.077 -0.3152  0.2751  0.5818
  182ccc     N1 4765  10.683   4.076   2.157 -0.5460 -0.1914  0.6660
  182ccc     H1 4766  10.726   4.012   2.091 -2.0023  0.5625 -1.0673
  182ccc     C1 4767  10.587   4.021   2.253  0.3169  0.2263 -0.6536
  182ccc     H2 4768  10.576   3.912   2.250 -2.6174  0.3686  0.9631
  182ccc     C2 4769  10.446   4.087   2.230 -0.0010 -0.0500 -0.3573
  182ccc     H3 4770  10.603   4.047   2.358 -0.9171  0.4852 -0.5123
  182ccc     H4 4771  10.458   4.195   2.238  0.5029 -0.1570  0.4373
  182ccc     H5 4772  10.393   4.055   2.321  1.1813 -1.9912 -0.2872
  182ccc     N2 4773  10.359   4.041   2.113 -0.5583  0.8327 -0.3995
  182ccc     C3 4774  10.271   4.147   2.063 -0.2438 -0.6388  0.2478
  182ccc     C4 4775  10.423   3.966   2.000  0.0319  0.5364 -0.9499
  182ccc     H6 4776  10.379   3.975   1.900  0.4455 -2.2444 -1.4739
  182ccc     C5 4777  10.401   3.820   2.025  0.1393  0.6027 -0.1685
  182ccc     H7 4778  10.529   3.992   1.988 -0.4509  1.5847 -3.6305
  182ccc     H8 4779  10.297   3.799   2.053  0.3681  0.2140  0.4215
  182ccc     H9 4780  10.464   3.783   2.108  0.0526 -0.7818 -0.6977
  182ccc     C6 4781  10.439   3.734   1.908 -0.3126  0.5540 -0.0936
  182ccc     O1 4782  10.345   3.670   1.846  0.4348  0.0041  0.2522
  182ccc     O2 4783  10.554   3.717   1.886  0.6416  0.1933 -0.3410
  182ccc    H10 4784  10.218   4.118   1.972 -0.7298  0.5008  0.1484
  182ccc    H11 4785  10.335   4.233   2.042 -1.5479  0.3139  0.1090
  182ccc     C7 4786  10.169   4.189   2.174 -0.2636  0.1232 -0.6754
  182ccc    H12 4787  10.214   4.184   2.274 -1.0433  2.7347 -0.1395
  182ccc    H13 4788  10.083   4.120   2.173  0.4515 -0.8994  1.5681
  182ccc     C8 4789  10.108   4.328   2.162  0.1843  0.3173  0.0765
  182ccc     O3 4790  10.113   4.405   2.069  0.2685  0.3745  0.3993
  182ccc     O4 4791  10.073   4.368   2.278  0.0095  0.7627 -0.2736
  182ccc    H14 4792  10.266   3.724   1.864 -0.7271 -2.0591  1.8579
  182ccc    H15 4793  10.090   4.282   2.320 -0.7561  1.0365  0.6541
  183ccc     N1 4794  11.321   4.272   2.548 -0.0612  0.1347 -0.0456
  183ccc     H1 4795  11.223   4.291   2.564  0.1248 -0.3815  2.0023
  183ccc     C1 4796  11.409   4.280   2.665  0.6410  0.5991  0.2309
  183ccc     H2 4797  11.507   4.236   2.642  0.6252 -0.0314  1.3303
  183ccc     C2 4798  11.337   4.225   2.791  0.4365  0.0288  0.1263
  183ccc     H3 4799  11.416   4.389   2.677  0.0595  0.8332 -1.2946
  183ccc     H4 4800  11.387   4.133   2.824 -0.2883 -0.4452 -0.0796
  183ccc     H5 4801  11.234   4.193   2.771 -0.1086  0.6624  1.7463
  183ccc     N2 4802  11.333   4.319   2.908  0.6134  0.4459  0.7972
  183ccc     C3 4803  11.463   4.364   2.960 -0.7052  0.2987 -0.2347
  183ccc     C4 4804  11.235   4.430   2.884  0.2635 -0.1584 -0.3518
  183ccc     H6 4805  11.283   4.500   2.814  1.3230 -1.1304 -0.6313
  183ccc     C5 4806  11.185   4.500   3.011 -0.4867  0.0649  0.0510
  183ccc     H7 4807  11.150   4.395   2.824 -0.7635  1.8055 -0.1262
  183ccc     H8 4808  11.270   4.558   3.049 -0.4080  1.0093 -1.5044
  183ccc     H9 4809  11.147   4.426   3.083  1.2837 -0.0625  0.8910
  183ccc     C6 4810  11.081   4.598   2.971 -0.7536  0.0541  0.0804
  183ccc     O1 4811  10.972   4.597   3.051  0.2153 -0.1272 -0.0709
  183ccc     O2 4812  11.095   4.679   2.878  0.1351  0.2855 -0.1469
  183ccc    H10 4813  11.445   4.421   3.052  0.6152  1.5588 -0.7209
  183ccc    H11 4814  11.510   4.439   2.896  0.4721  0.1537  0.4437
  183ccc     C7 4815  11.566   4.249   2.995  0.0606 -0.3552 -0.1400
  183ccc    H12 4816  11.606   4.195   2.908 -0.4832 -1.5153  0.3135
  183ccc    H13 4817  11.519   4.172   3.057 -1.2240 -1.3130 -2.2096
  183ccc     C8 4818  11.677   4.312   3.082 -0.3112  0.6903  0.4193
  183ccc     O3 4819  11.682   4.426   3.126 -0.9149 -0.1866 -0.5822
  183ccc     O4 4820  11.778   4.231   3.097  0.3296  0.1294  0.1328
  183ccc    H14 4821  10.975   4.514   3.102  1.5228 -0.2038 -0.2370
  183ccc    H15 4822  11.768   4.157   3.035 -1.3262  0.0789  0.4108
  184ccc     N1 4823  10.694   4.716   2.978 -0.2211 -0.2957 -0.3769
  184ccc     H1 4824  10.788   4.683   2.991  0.9218  2.3030 -1.3579
  184ccc     C1 4825  10.596   4.650   3.058  0.2904 -0.8050 -0.4752
  184ccc     H2 4826  10.515   4.723   3.065  0.9808 -0.1643  1.6698
  184ccc     C2 4827  10.634   4.628   3.210  0.1590  0.4822  0.4328
  184ccc     H3 4828  10.561   4.555   3.016 -1.5521 -0.9925  1.3243
  184ccc     H4 4829  10.619   4.723   3.264 -0.5704 -0.1730  1.4076
  184ccc     H5 4830  10.741   4.606   3.210 -0.0364 -1.1133 -2.7683
  184ccc     N2 4831  10.547   4.525   3.267  0.0125  0.4527 -0.0155
  184ccc     C3 4832  10.406   4.556   3.277  0.1745 -0.3075 -0.3541
  184ccc     C4 4833  10.576   4.384   3.217  0.5875 -0.3064  0.1052
  184ccc     H6 4834  10.552   4.372   3.110  0.8898 -2.4422  0.2293
  184ccc     C5 4835  10.511   4.281   3.303 -0.9973 -0.1191  0.7984
  184ccc     H7 4836  10.683   4.364   3.223  0.2692 -1.5990  3.0080
  184ccc     H8 4837  10.404   4.272   3.280 -1.1234 -2.5603  2.0429
  184ccc     H9 4838  10.523   4.316   3.407  2.0263  2.6748 -0.3052
  184ccc     C6 4839  10.577   4.147   3.297 -0.4525  0.2476  0.6297
  184ccc     O1 4840  10.551   4.081   3.187  0.2352 -0.0842 -0.0593
  184ccc     O2 4841  10.659   4.112   3.383  0.6476 -0.2448 -0.2942
  184ccc    H10 4842  10.342   4.476   3.317  1.8145 -2.3709 -1.6620
  184ccc    H11 4843  10.365   4.581   3.178  0.7653  0.1619 -0.4846
  184ccc     C7 4844  10.372   4.677   3.359 -0.0147 -0.6839  0.5989
  184ccc    H12 4845  10.263   4.687   3.348  0.3570  2.6061 -1.3708
  184ccc    H13 4846  10.409   4.771   3.317 -2.1572 -0.0860 -0.0858
  184ccc     C8 4847  10.402   4.667   3.509 -0.0057  0.3794 -0.7337
  184ccc     O3 4848  10.332   4.712   3.596  0.2619 -0.2663 -0.0474
  184ccc     O4 4849  10.522   4.621   3.535 -0.3107  0.2160 -0.3086
  184ccc    H14 4850  10.485   4.131   3.136  0.6468 -1.0083 -1.5396
  184ccc    H15 4851  10.546   4.554   3.469  1.3723 -2.2397  2.5331
  185ccc     N1 4852  10.856   4.184   2.514  0.1033 -0.1261 -0.3423
  185ccc     H1 4853  10.764   4.207   2.479  0.3536  0.3848 -0.6820
  185ccc     C1 4854  10.896   4.042   2.529  0.1459 -0.0902  0.2214
  185ccc     H2 4855  10.831   3.983   2.464  0.0048  0.2600  0.0422
  185ccc     C2 4856  10.888   3.990   2.674  0.8271 -0.4017 -0.0894
  185ccc     H3 4857  10.999   4.036   2.490  0.2621 -2.6256  0.7271
  185ccc     H4 4858  10.970   4.027   2.737  0.5444  2.2920 -1.1730
  185ccc     H5 4859  10.898   3.880   2.669  0.0970 -0.4648 -0.2519
  185ccc     N2 4860  10.760   4.024   2.744  0.5268  0.4149 -0.1478
  185ccc     C3 4861  10.776   4.039   2.893  0.2529  0.4782 -0.5949
  185ccc     C4 4862  10.646   3.945   2.682  0.5195  1.0816 -0.7500
  185ccc     H6 4863  10.649   3.936   2.573  1.5142 -1.4843 -0.5702
  185ccc     C5 4864  10.510   4.010   2.713 -1.0268 -0.1055  0.7173
  185ccc     H7 4865  10.654   3.842   2.718 -0.9271  0.5528 -1.8571
  185ccc     H8 4866  10.495   4.027   2.820  0.3490  0.2123  0.8698
  185ccc     H9 4867  10.432   3.942   2.676 -1.9718  1.2603  0.0957
  185ccc     C6 4868  10.492   4.138   2.626  0.9245 -0.0365  0.0446
  185ccc     O1 4869  10.366   4.143   2.577 -1.0287  0.1007 -0.2787
  185ccc     O2 4870  10.577   4.197   2.560  0.2385 -0.3780  0.1887
  185ccc    H10 4871  10.824   3.952   2.939  0.4265  0.7471 -0.2529
  185ccc    H11 4872  10.675   4.043   2.935  0.0012 -0.8440 -1.0419
  185ccc     C7 4873  10.853   4.164   2.941 -0.1572  0.6366 -0.0966
  185ccc    H12 4874  10.944   4.165   2.880  0.4222  1.2149  0.7528
  185ccc    H13 4875  10.873   4.167   3.049  0.2982 -0.9212 -0.1135
  185ccc     C8 4876  10.787   4.299   2.918  0.3764  0.2954  0.1925
  185ccc     O3 4877  10.792   4.391   3.001  0.1973  0.1526  0.5518
  185ccc     O4 4878  10.735   4.307   2.801  0.2214 -0.0851  0.0304
  185ccc    H14 4879  10.313   4.121   2.656 -2.5471  2.4038 -0.5531
  185ccc    H15 4880  10.751   4.217   2.768  1.6670  0.6105 -1.2463
  186ccc     N1 4881   9.218   5.146   1.200  0.8946  0.0524  0.5906
  186ccc     H1 4882   9.241   5.054   1.237  0.8356  0.2510  1.1243
  186ccc     C1 4883   9.080   5.162   1.177  0.0715  0.9065  0.2793
  186ccc     H2 4884   9.056   5.267   1.156  2.2148  0.6445 -4.8621
  186ccc     C2 4885   8.991   5.096   1.281 -0.0753  0.2350 -0.8308
  186ccc     H3 4886   9.059   5.101   1.089 -2.1015  0.1820  1.2076
  186ccc     H4 4887   8.995   4.987   1.296 -1.7052  0.5045  2.8297
  186ccc     H5 4888   8.893   5.105   1.233  0.4016 -0.6412 -2.0211
  186ccc     N2 4889   8.995   5.152   1.423  0.2506 -0.1144  0.5067
  186ccc     C3 4890   8.867   5.159   1.500 -0.2276  0.6247  0.1640
  186ccc     C4 4891   9.119   5.127   1.506 -0.4247 -0.2065 -0.3510
  186ccc     H6 4892   9.201   5.178   1.454 -1.3240  1.7661  0.0713
  186ccc     C5 4893   9.152   4.982   1.530 -0.3532  0.3233  0.1728
  186ccc     H7 4894   9.117   5.166   1.608 -1.7298 -0.2574 -0.3397
  186ccc     H8 4895   9.161   4.928   1.435 -1.4675  0.3288  0.0543
  186ccc     H9 4896   9.074   4.929   1.585 -0.1087 -2.8293 -2.1971
  186ccc     C6 4897   9.285   4.959   1.601  0.2097  0.2876  0.0755
  186ccc     O1 4898   9.315   4.831   1.620 -0.5264  0.5433  0.5877
  186ccc     O2 4899   9.352   5.053   1.645  0.1155 -0.0790  0.0735
  186ccc    H10 4900   8.889   5.202   1.599 -0.6353 -1.0068  0.9934
  186ccc    H11 4901   8.818   5.061   1.501 -0.4404  0.5001 -4.0006
  186ccc     C7 4902   8.767   5.253   1.428  0.3765  0.0670  0.1632
  186ccc    H12 4903   8.698   5.186   1.375  2.9649 -2.4388 -0.2306
  186ccc    H13 4904   8.820   5.311   1.351  1.3371 -1.0036  0.0034
  186ccc     C8 4905   8.686   5.339   1.525  0.3154 -1.0552 -0.4702
  186ccc     O3 4906   8.723   5.452   1.561  0.4980  0.2158 -0.5532
  186ccc     O4 4907   8.600   5.273   1.601 -0.0151  0.3762  0.2108
  186ccc    H14 4908   9.243   4.784   1.574  0.8574 -0.0035 -1.1779
  186ccc    H15 4909   8.577   5.193   1.550 -1.3738  2.2479 -2.3623
  187ccc     N1 4910  10.035   5.531   1.251  0.3741 -0.1824  0.1334
  187ccc     H1 4911  10.059   5.434   1.235 -1.5755 -0.7667  0.3983
  187ccc     C1 4912  10.101   5.637   1.189  0.3550 -0.7654  0.0874
  187ccc     H2 4913  10.040   5.654   1.100  1.8399  1.2356 -0.6321
  187ccc     C2 4914  10.245   5.602   1.145 -0.2010  0.1924  0.3036
  187ccc     H3 4915  10.085   5.730   1.245 -0.3165 -0.9172  0.1593
  187ccc     H4 4916  10.232   5.516   1.079  0.3976  0.7048 -0.5104
  187ccc     H5 4917  10.300   5.577   1.236 -2.0230  0.2481  1.4660
  187ccc     N2 4918  10.318   5.702   1.060 -0.4782 -0.0591  0.4021
  187ccc     C3 4919  10.245   5.762   0.945  0.1829  0.7126 -0.2954
  187ccc     C4 4920  10.450   5.649   1.019 -0.3906 -0.1706  0.3482
  187ccc     H6 4921  10.445   5.563   0.951 -0.7396 -0.6943  1.0355
  187ccc     C5 4922  10.536   5.612   1.143  0.2140 -0.0469 -0.0803
  187ccc     H7 4923  10.503   5.726   0.961 -1.9960 -0.0359 -1.0042
  187ccc     H8 4924  10.484   5.523   1.180 -0.3955 -0.1163 -1.0478
  187ccc     H9 4925  10.526   5.687   1.222 -0.6632 -1.9041  1.6692
  187ccc     C6 4926  10.677   5.577   1.107  0.1787 -0.0616  0.0821
  187ccc     O1 4927  10.734   5.558   1.226  0.0417 -0.4792 -0.9464
  187ccc     O2 4928  10.736   5.620   1.012  0.1524 -0.0812  0.0668
  187ccc    H10 4929  10.142   5.783   0.975 -0.2659 -3.1439  1.5645
  187ccc    H11 4930  10.238   5.693   0.859  2.5001 -1.1709  0.8912
  187ccc     C7 4931  10.315   5.898   0.901  0.2704  0.4519 -0.4689
  187ccc    H12 4932  10.409   5.889   0.846  1.1068  0.2807  0.9472
  187ccc    H13 4933  10.338   5.961   0.988 -1.0193  0.4244 -0.0891
  187ccc     C8 4934  10.216   5.987   0.827 -0.9696 -0.2802  0.1601
  187ccc     O3 4935  10.103   5.957   0.791  0.0271  0.3579  0.0641
  187ccc     O4 4936  10.269   6.092   0.764  0.1918  0.0169 -0.3048
  187ccc    H14 4937  10.667   5.530   1.290  0.8194  0.5264  0.3588
  187ccc    H15 4938  10.364   6.084   0.786 -0.2049 -0.6041  1.3393
  188ccc     N1 4939  11.144   4.282   1.501  0.0023  0.4495  0.3019
  188ccc     H1 4940  11.161   4.381   1.489 -1.7774  0.5292 -2.4895
  188ccc     C1 4941  11.253   4.190   1.531  0.0178 -0.5440 -1.2553
  188ccc     H2 4942  11.316   4.248   1.600  0.0479 -1.9425 -0.0469
  188ccc     C2 4943  11.337   4.148   1.406  0.0117 -0.5010 -0.5243
  188ccc     H3 4944  11.223   4.103   1.591  0.5175  0.6886  0.8772
  188ccc     H4 4945  11.279   4.084   1.338 -1.2929  2.1787 -2.1023
  188ccc     H5 4946  11.417   4.078   1.433  0.4638 -0.3416 -1.4226
  188ccc     N2 4947  11.392   4.267   1.333  0.0744 -0.1388  0.7872
  188ccc     C3 4948  11.505   4.330   1.399  0.5432 -0.3802 -0.0229
  188ccc     C4 4949  11.420   4.242   1.188  0.4556  0.1983 -0.2540
  188ccc     H6 4950  11.472   4.323   1.136  3.0842 -1.1902  0.0643
  188ccc     C5 4951  11.287   4.231   1.121 -0.7965 -0.3500  0.4153
  188ccc     H7 4952  11.479   4.151   1.177  0.3162  0.1230 -0.3678
  188ccc     H8 4953  11.214   4.172   1.178 -1.4064  0.5537  0.5952
  188ccc     H9 4954  11.307   4.177   1.028  0.6587  0.0818  0.4447
  188ccc     C6 4955  11.215   4.364   1.094 -0.7554  0.5870 -0.0173
  188ccc     O1 4956  11.241   4.453   1.194 -0.5208  0.4289 -0.3378
  188ccc     O2 4957  11.190   4.400   0.982  0.6587 -0.0861 -0.3706
  188ccc    H10 4958  11.597   4.276   1.372  1.2351  0.5732  0.3738
  188ccc    H11 4959  11.497   4.321   1.508 -0.9993  0.0674 -0.0854
  188ccc     C7 4960  11.519   4.473   1.358  0.2816  0.0690  0.0730
  188ccc    H12 4961  11.431   4.533   1.383 -0.3014 -0.6930 -0.0904
  188ccc    H13 4962  11.541   4.493   1.253  0.4933  4.7749  0.8013
  188ccc     C8 4963  11.629   4.531   1.443  0.7267 -0.4629 -0.5367
  188ccc     O3 4964  11.604   4.563   1.561  0.1233 -0.0416  0.5115
  188ccc     O4 4965  11.734   4.571   1.376 -0.1971  0.1043 -0.0170
  188ccc    H14 4966  11.292   4.388   1.245 -1.9207 -0.2582  0.2481
  188ccc    H15 4967  11.711   4.522   1.295 -1.4933  1.7698 -0.7201
  189ccc     N1 4968  11.070   4.777   1.269  0.1446  0.6735 -0.0225
  189ccc     H1 4969  11.093   4.684   1.302 -0.3414  0.5542 -0.0084
  189ccc     C1 4970  11.175   4.879   1.287 -0.2448 -0.1402 -0.7897
  189ccc     H2 4971  11.153   4.964   1.221  0.7413  0.0034 -0.9561
  189ccc     C2 4972  11.326   4.826   1.265  0.4253  0.2151  0.5075
  189ccc     H3 4973  11.167   4.920   1.388 -3.7814  0.7905 -1.3029
  189ccc     H4 4974  11.338   4.721   1.295 -1.7249  0.1002  1.1694
  189ccc     H5 4975  11.392   4.890   1.324  0.9222  1.3737 -1.2188
  189ccc     N2 4976  11.372   4.835   1.122 -0.0437  0.2460 -0.3642
  189ccc     C3 4977  11.392   4.969   1.065 -0.3214 -0.4619  0.2284
  189ccc     C4 4978  11.299   4.741   1.026  0.5433 -0.4983 -0.1826
  189ccc     H6 4979  11.269   4.648   1.076  0.3777 -1.0092 -1.2185
  189ccc     C5 4980  11.386   4.689   0.912  0.3835 -0.2718 -0.0250
  189ccc     H7 4981  11.214   4.797   0.986  1.1642  0.9278  0.3807
  189ccc     H8 4982  11.424   4.766   0.844  0.1515 -1.5087 -1.6278
  189ccc     H9 4983  11.331   4.627   0.840  1.5104 -0.8688 -0.4092
  189ccc     C6 4984  11.491   4.598   0.960 -0.5952 -0.1408  0.2729
  189ccc     O1 4985  11.573   4.649   1.049 -0.6211  0.1781  0.3762
  189ccc     O2 4986  11.498   4.481   0.927  0.0002 -0.4481  0.2564
  189ccc    H10 4987  11.311   5.037   1.097  1.2549  0.6618  2.0768
  189ccc    H11 4988  11.391   4.980   0.956  0.8195  1.4549  0.3806
  189ccc     C7 4989  11.523   5.029   1.133 -0.1459 -0.2770 -0.1358
  189ccc    H12 4990  11.602   4.955   1.149  0.1536  0.0933  0.1137
  189ccc    H13 4991  11.506   5.059   1.237 -0.1888 -1.2135  0.1368
  189ccc     C8 4992  11.566   5.159   1.057  0.1756  0.8616 -0.3619
  189ccc     O3 4993  11.519   5.268   1.081  0.2789 -0.0072  0.0842
  189ccc     O4 4994  11.618   5.132   0.934 -0.1473  0.2890  0.0101
  189ccc    H14 4995  11.516   4.722   1.080 -2.1703 -0.5263 -0.6868
  189ccc    H15 4996  11.646   5.040   0.930 -0.3300  0.0721  2.4132
  190ccc     N1 4997   7.194   4.583   2.642 -0.4415  0.2962 -0.2594
  190ccc     H1 4998   7.165   4.559   2.735  1.0329 -2.2759 -0.3775
  190ccc     C1 4999   7.328   4.628   2.622  0.2640 -0.4860  0.0716
  190ccc     H2 5000   7.393   4.551   2.580  3.2033  1.3352  1.0098
  190ccc     C2 5001   7.382   4.686   2.748  0.0658  0.0176 -0.4359
  190ccc     H3 5002   7.313   4.709   2.549  1.1096 -1.5455 -1.3337
  190ccc     H4 5003   7.401   4.610   2.825  1.7827  0.6890 -0.1661
  190ccc     H5 5004   7.300   4.754   2.775 -1.1958 -0.6385 -2.3859
  190ccc     N2 5005   7.516   4.764   2.747  0.8065  0.0272 -0.2711
  190ccc     C3 5006   7.634   4.691   2.695 -0.2117 -0.2037 -0.1758
  190ccc     C4 5007   7.535   4.829   2.873 -0.4320 -1.0805  0.3913
  190ccc     H6 5008   7.476   4.784   2.953 -0.3812 -0.4698  0.7805
  190ccc     C5 5009   7.495   4.974   2.854  0.7053 -0.4210  0.2330
  190ccc     H7 5010   7.642   4.830   2.898 -0.1422  0.5669 -0.7377
  190ccc     H8 5011   7.389   4.992   2.829  1.0065  2.3726  0.6994
  190ccc     H9 5012   7.555   5.021   2.775  1.8944 -0.8791  0.8411
  190ccc     C6 5013   7.531   5.051   2.979 -0.0008  0.4585  0.3806
  190ccc     O1 5014   7.473   5.172   2.983  0.1507 -0.2922 -0.1734
  190ccc     O2 5015   7.635   5.029   3.040 -0.1367 -0.3541  0.3352
  190ccc    H10 5016   7.611   4.603   2.634  0.0204  0.9684 -2.0556
  190ccc    H11 5017   7.698   4.656   2.777  0.7801 -0.0068 -0.8427
  190ccc     C7 5018   7.724   4.781   2.616  0.4815 -0.3189  0.2198
  190ccc    H12 5019   7.797   4.717   2.567  1.2565 -0.2838  1.2852
  190ccc    H13 5020   7.762   4.864   2.678 -1.9429 -0.0525  1.5074
  190ccc     C8 5021   7.659   4.850   2.496 -0.4629  0.2086 -0.8148
  190ccc     O3 5022   7.718   4.855   2.391  0.2068 -0.5010  0.1009
  190ccc     O4 5023   7.552   4.923   2.521 -0.2145  0.1331  0.7358
  190ccc    H14 5024   7.382   5.176   2.950 -0.4276  3.4620  1.3580
  190ccc    H15 5025   7.535   4.892   2.612  0.4425 -0.4148  0.6808
  191ccc     N1 5026   6.648   4.718   2.076  0.6238  0.6550 -0.0046
  191ccc     H1 5027   6.671   4.620   2.067 -0.3735 -0.0780  3.7167
  191ccc     C1 5028   6.604   4.787   1.956 -0.4567  0.1079 -0.2970
  191ccc     H2 5029   6.505   4.750   1.927 -0.7542 -1.0704  1.9986
  191ccc     C2 5030   6.711   4.774   1.847 -0.0255 -0.1569  0.1349
  191ccc     H3 5031   6.593   4.894   1.979 -0.0414 -0.0065  0.4587
  191ccc     H4 5032   6.663   4.813   1.756 -0.1384 -2.4336 -0.8444
  191ccc     H5 5033   6.726   4.667   1.829  0.2629 -0.2251  0.7686
  191ccc     N2 5034   6.843   4.837   1.861 -0.4984 -0.5462 -0.3135
  191ccc     C3 5035   6.935   4.810   1.749 -0.7345  0.1775 -0.5228
  191ccc     C4 5036   6.856   4.974   1.927  0.4078 -0.1563 -0.0492
  191ccc     H6 5037   6.869   5.059   1.858  1.2529 -0.9099 -0.8514
  191ccc     C5 5038   6.964   4.963   2.030  0.3566 -0.0294  0.3351
  191ccc     H7 5039   6.767   5.000   1.986 -0.5011  0.0792 -1.4756
  191ccc     H8 5040   7.064   4.940   1.992  1.0965  2.9126  0.2314
  191ccc     H9 5041   6.937   4.886   2.103  1.1262 -0.6212  0.0059
  191ccc     C6 5042   6.967   5.094   2.112 -0.2459  0.0602 -0.1792
  191ccc     O1 5043   7.068   5.181   2.084  1.0237 -0.9501 -0.2665
  191ccc     O2 5044   6.904   5.111   2.221 -0.4752  0.1217  0.2138
  191ccc    H10 5045   7.017   4.883   1.744 -1.0069  0.6270  1.1834
  191ccc    H11 5046   6.879   4.823   1.655  0.1934  2.4468 -0.8274
  191ccc     C7 5047   6.998   4.667   1.747 -0.2226  0.1933 -0.3299
  191ccc    H12 5048   7.054   4.662   1.652  0.9095  0.5173  0.2987
  191ccc    H13 5049   6.926   4.584   1.753  0.5362 -0.8228 -3.2957
  191ccc     C8 5050   7.100   4.640   1.850  0.1199  0.4608  0.1036
  191ccc     O3 5051   7.196   4.572   1.825  0.1446  0.3314 -0.3321
  191ccc     O4 5052   7.033   4.640   1.962  0.1565 -0.2028 -0.4525
  191ccc    H14 5053   7.119   5.136   2.014 -1.5891 -2.6684 -1.2390
  191ccc    H15 5054   6.966   4.703   1.931  1.8326  1.6008 -0.6467
  192ccc     N1 5055   7.364   5.070   1.749  0.3574 -0.1479 -0.0453
  192ccc     H1 5056   7.461   5.101   1.744 -0.2985  2.0012 -0.2978
  192ccc     C1 5057   7.335   4.938   1.707 -0.5122 -0.5569  0.2129
  192ccc     H2 5058   7.429   4.884   1.692  0.8440  1.5589  0.7039
  192ccc     C2 5059   7.274   4.962   1.568  0.1117  0.0482 -0.3457
  192ccc     H3 5060   7.259   4.887   1.768 -0.3063 -0.7890  0.2768
  192ccc     H4 5061   7.201   5.041   1.592  0.5084 -0.1615  1.8253
  192ccc     H5 5062   7.231   4.871   1.526  1.2657 -0.2161 -0.9831
  192ccc     N2 5063   7.369   5.006   1.466  0.1639  0.1067  0.4215
  192ccc     C3 5064   7.436   4.887   1.412 -0.3830  0.2477  0.0241
  192ccc     C4 5065   7.306   5.084   1.355  0.2634  0.0352  0.5056
  192ccc     H6 5066   7.346   5.069   1.254  0.5784  1.5790  0.3701
  192ccc     C5 5067   7.320   5.230   1.401 -0.4647  0.2826  0.1252
  192ccc     H7 5068   7.198   5.066   1.357  0.1573  0.6088  0.2758
  192ccc     H8 5069   7.425   5.262   1.401 -0.3264 -0.0941  1.3218
  192ccc     H9 5070   7.286   5.231   1.506 -0.1098 -0.2005  0.2529
  192ccc     C6 5071   7.244   5.324   1.316  0.6373  0.5320 -0.2445
  192ccc     O1 5072   7.120   5.354   1.353 -0.1074 -0.1774 -0.0623
  192ccc     O2 5073   7.293   5.363   1.215 -0.3369 -0.2844 -0.2024
  192ccc    H10 5074   7.368   4.841   1.339  2.5155 -1.5080 -1.8312
  192ccc    H11 5075   7.451   4.811   1.490 -1.4280 -0.2670 -0.2555
  192ccc     C7 5076   7.572   4.933   1.354 -0.1078  0.0622  0.1369
  192ccc    H12 5077   7.633   4.969   1.438 -1.3058  0.0097  1.0581
  192ccc    H13 5078   7.566   5.016   1.283 -2.0599  0.2810  0.4906
  192ccc     C8 5079   7.654   4.820   1.296  1.0342 -0.1184  0.4414
  192ccc     O3 5080   7.611   4.705   1.283  0.7792 -0.0219  0.5972
  192ccc     O4 5081   7.756   4.877   1.230  0.1805  1.1677 -0.3209
  192ccc    H14 5082   7.112   5.314   1.441  0.5197 -3.1732 -1.2559
  192ccc    H15 5083   7.795   4.800   1.185 -0.5065  0.5968  0.0361
  193ccc     N1 5084   7.975   5.492   1.862 -0.3796 -0.4050 -0.5296
  193ccc     H1 5085   7.954   5.532   1.953  0.0648 -1.4583  0.0501
  193ccc     C1 5086   8.113   5.476   1.819  0.3738  0.3090  0.9596
  193ccc     H2 5087   8.176   5.485   1.909 -0.5783 -0.8258  1.7659
  193ccc     C2 5088   8.148   5.590   1.712  0.3833 -0.1084 -0.5193
  193ccc     H3 5089   8.128   5.379   1.771  0.4586 -0.3401  2.2448
  193ccc     H4 5090   8.128   5.692   1.749  1.5663 -0.0025 -0.1073
  193ccc     H5 5091   8.084   5.581   1.624 -0.9787  0.4217  0.3875
  193ccc     N2 5092   8.290   5.583   1.667 -0.1280 -0.0317 -0.9022
  193ccc     C3 5093   8.379   5.631   1.778  0.6089  0.3871  0.1005
  193ccc     C4 5094   8.337   5.473   1.596 -0.4863 -0.2769  0.9147
  193ccc     H6 5095   8.443   5.493   1.576 -1.5086  4.0005 -1.3442
  193ccc     C5 5096   8.254   5.449   1.466 -0.1197 -0.0584 -0.6296
  193ccc     H7 5097   8.329   5.379   1.652 -2.1993 -0.6168  0.1432
  193ccc     H8 5098   8.256   5.540   1.405 -0.1168  1.9530  2.1705
  193ccc     H9 5099   8.149   5.424   1.490  0.1827 -0.2907  0.5043
  193ccc     C6 5100   8.302   5.342   1.376 -0.2585  0.7402 -0.1581
  193ccc     O1 5101   8.219   5.340   1.271  0.3064  0.3333 -0.0814
  193ccc     O2 5102   8.424   5.336   1.361  0.1091 -0.3812  0.3604
  193ccc    H10 5103   8.408   5.551   1.848  1.7397 -0.6313 -1.4698
  193ccc    H11 5104   8.321   5.706   1.833 -0.4648  0.7846 -1.5110
  193ccc     C7 5105   8.503   5.706   1.727 -1.0040 -0.3373  0.0273
  193ccc    H12 5106   8.582   5.639   1.692 -1.2881 -0.4397 -0.4316
  193ccc    H13 5107   8.556   5.759   1.808  2.2859 -3.3301  0.0581
  193ccc     C8 5108   8.493   5.808   1.622 -0.4638 -0.0216  0.0081
  193ccc     O3 5109   8.561   5.907   1.613 -0.6285  0.2092  0.6732
  193ccc     O4 5110   8.427   5.766   1.514 -0.5536  0.0884 -0.5324
  193ccc    H14 5111   8.270   5.298   1.200  1.1997 -0.3769  0.9470
  193ccc    H15 5112   8.381   5.689   1.551  1.2338 -0.2588  1.1381
  194ccc     N1 5113   7.299   4.760   4.207  0.4326 -0.4115  0.1012
  194ccc     H1 5114   7.356   4.839   4.234  0.9148 -1.0673  1.0456
  194ccc     C1 5115   7.181   4.749   4.289 -0.6657  0.7058  0.5113
  194ccc     H2 5116   7.162   4.643   4.306 -0.2896  0.3752 -1.0569
  194ccc     C2 5117   7.048   4.803   4.218  0.4499 -0.6838  0.3178
  194ccc     H3 5118   7.194   4.801   4.385 -1.6615  0.4735  0.7767
  194ccc     H4 5119   6.965   4.779   4.285  0.7889 -0.3986  0.8479
  194ccc     H5 5120   7.025   4.741   4.130 -2.3818  0.1451  0.3858
  194ccc     N2 5121   7.049   4.953   4.185  0.0020  0.0550  0.3437
  194ccc     C3 5122   7.069   5.039   4.296  0.1207  0.1124 -1.1359
  194ccc     C4 5123   7.134   4.998   4.070  0.6208  0.0350  0.5258
  194ccc     H6 5124   7.106   5.097   4.033  0.1700 -0.1626  0.3266
  194ccc     C5 5125   7.126   4.905   3.948 -0.8191 -0.1952 -0.5028
  194ccc     H7 5126   7.240   4.997   4.099  1.1495 -2.1299 -1.2248
  194ccc     H8 5127   7.021   4.894   3.921 -1.0066 -1.1331  0.5518
  194ccc     H9 5128   7.150   4.801   3.975  0.1603 -0.2301 -1.4271
  194ccc     C6 5129   7.219   4.943   3.831  0.2976  0.6920  0.9321
  194ccc     O1 5130   7.191   4.863   3.725 -0.0429  0.0346  0.6006
  194ccc     O2 5131   7.277   5.046   3.824 -0.0839  0.7450  0.4073
  194ccc    H10 5132   7.062   5.143   4.261  2.5848  0.5308 -0.5730
  194ccc    H11 5133   7.171   5.028   4.333 -0.6120 -0.1753  0.9539
  194ccc     C7 5134   6.966   5.027   4.402  0.3970 -0.4635 -0.7704
  194ccc    H12 5135   6.953   4.926   4.443  0.7708 -0.5534 -0.8692
  194ccc    H13 5136   6.871   5.053   4.355 -0.5777 -1.8740  0.3464
  194ccc     C8 5137   6.996   5.126   4.527 -0.1258  0.2940  0.2745
  194ccc     O3 5138   7.097   5.192   4.540  0.3760  0.4758  0.5028
  194ccc     O4 5139   6.885   5.136   4.606 -0.9854  0.4792 -0.0825
  194ccc    H14 5140   7.142   4.786   3.760  2.6781 -1.4009  1.6039
  194ccc    H15 5141   6.812   5.084   4.569 -0.2651 -0.1966 -0.6057
  195ccc     N1 5142   7.984   4.520   3.859 -0.5540  0.5509 -0.1711
  195ccc     H1 5143   8.020   4.580   3.932 -1.7143  1.1761 -0.1014
  195ccc     C1 5144   8.044   4.383   3.848  0.4977  0.2112  0.3736
  195ccc     H2 5145   8.068   4.348   3.949  2.5249  0.1207 -0.1012
  195ccc     C2 5146   8.167   4.381   3.753 -0.0769 -0.0131 -0.0615
  195ccc     H3 5147   7.971   4.314   3.805  0.0419 -0.6510  2.4084
  195ccc     H4 5148   8.233   4.465   3.780 -0.8624  0.1347  1.5500
  195ccc     H5 5149   8.129   4.403   3.653  0.5659  0.9538 -0.1123
  195ccc     N2 5150   8.242   4.248   3.732  0.1540  0.0336  0.3460
  195ccc     C3 5151   8.360   4.264   3.641 -1.0122 -0.3501 -0.1122
  195ccc     C4 5152   8.166   4.123   3.710  0.5207 -0.6464  0.1853
  195ccc     H6 5153   8.226   4.031   3.714  1.2614 -0.1475  0.8438
  195ccc     C5 5154   8.092   4.131   3.571 -0.5274 -0.2110  0.1690
  195ccc     H7 5155   8.085   4.099   3.780  1.3760 -0.1713  1.3682
  195ccc     H8 5156   8.171   4.154   3.499  0.3800  0.9656  1.4849
  195ccc     H9 5157   8.020   4.214   3.563  0.7051  0.8328 -0.4512
  195ccc     C6 5158   8.033   3.995   3.523  0.2000 -0.3142  0.3745
  195ccc     O1 5159   7.968   4.003   3.407 -0.0175  0.6170 -0.3057
  195ccc     O2 5160   8.018   3.897   3.586 -0.3187  0.1692 -0.3755
  195ccc    H10 5161   8.341   4.331   3.555 -1.5353 -0.8769 -0.4150
  195ccc    H11 5162   8.382   4.170   3.589  1.0988 -0.6516  1.2221
  195ccc     C7 5163   8.484   4.328   3.706  0.4241 -1.0583  0.4627
  195ccc    H12 5164   8.509   4.279   3.801 -1.8174 -0.6867  1.3079
  195ccc    H13 5165   8.455   4.430   3.735 -0.0780 -1.9241  3.2793
  195ccc     C8 5166   8.601   4.350   3.613 -0.0760  0.5954  0.4121
  195ccc     O3 5167   8.659   4.451   3.586  0.5160  0.0707 -0.0442
  195ccc     O4 5168   8.648   4.233   3.570 -0.6426 -0.0525 -0.5498
  195ccc    H14 5169   8.002   4.089   3.378 -1.1053  0.9798 -0.5312
  195ccc    H15 5170   8.603   4.163   3.621  1.5404  0.1050  1.7576
  196ccc     N1 5171   6.820   4.827   3.404  0.4051 -1.0234  0.2423
  196ccc     H1 5172   6.783   4.913   3.365  1.7666 -1.6371 -2.6221
  196ccc     C1 5173   6.772   4.695   3.377  0.1456  0.2357  0.7779
  196ccc     H2 5174   6.802   4.615   3.445  2.0640 -0.8804 -1.2531
  196ccc     C2 5175   6.832   4.638   3.248 -0.1115  1.1175  0.2641
  196ccc     H3 5176   6.663   4.686   3.373  0.1472  0.5674 -0.6928
  196ccc     H4 5177   6.788   4.538   3.238 -2.6461  2.2008 -0.1293
  196ccc     H5 5178   6.940   4.632   3.264 -0.2461  1.0789  1.1812
  196ccc     N2 5179   6.801   4.699   3.115 -0.1878 -0.5827 -0.0841
  196ccc     C3 5180   6.888   4.810   3.082  0.2851  0.3190 -0.1628
  196ccc     C4 5181   6.655   4.715   3.084  0.3819 -0.1920  0.1464
  196ccc     H6 5182   6.606   4.769   3.165  0.0933  0.1368 -0.2429
  196ccc     C5 5183   6.578   4.588   3.056  0.5188 -0.3055 -0.1082
  196ccc     H7 5184   6.654   4.777   2.993  1.4454  0.9164  0.8642
  196ccc     H8 5185   6.471   4.614   3.063  1.0950  1.9684  1.3238
  196ccc     H9 5186   6.602   4.525   3.142  2.5765  0.4005 -0.1328
  196ccc     C6 5187   6.613   4.524   2.921 -0.2657 -0.4438 -0.2002
  196ccc     O1 5188   6.745   4.482   2.918  0.1147 -0.3274 -0.2715
  196ccc     O2 5189   6.537   4.508   2.830 -0.3334 -0.3978  0.4209
  196ccc    H10 5190   6.989   4.793   3.121  0.1963 -0.8527 -0.4159
  196ccc    H11 5191   6.831   4.897   3.117 -1.1145 -0.4796 -0.3693
  196ccc     C7 5192   6.905   4.822   2.934  0.1929  0.2515 -0.5823
  196ccc    H12 5193   6.809   4.851   2.890  0.5222  1.0493 -0.7904
  196ccc    H13 5194   6.942   4.728   2.892 -1.0191  0.2743 -1.7912
  196ccc     C8 5195   6.995   4.937   2.891  0.3467  0.3059  0.7241
  196ccc     O3 5196   6.958   5.054   2.885 -0.0161 -0.2416 -0.1908
  196ccc     O4 5197   7.119   4.889   2.888 -0.4748 -0.5844  0.2311
  196ccc    H14 5198   6.785   4.507   3.003  0.3194  3.2778 -1.2564
  196ccc    H15 5199   7.112   4.798   2.921  2.0715 -0.4098  1.4664
  197ccc     N1 5200   6.814   5.375   3.308 -0.3849 -0.5951 -0.3164
  197ccc     H1 5201   6.841   5.285   3.270 -0.2783  0.1928 -2.1946
  197ccc     C1 5202   6.683   5.421   3.270  0.0825 -0.6059 -0.6749
  197ccc     H2 5203   6.614   5.401   3.353 -0.4305 -2.2403 -1.4479
  197ccc     C2 5204   6.618   5.357   3.141  0.6409  0.4918  0.3540
  197ccc     H3 5205   6.689   5.530   3.255  1.0971 -0.6780 -0.8126
  197ccc     H4 5206   6.537   5.421   3.105  1.3176  1.0185 -0.2591
  197ccc     H5 5207   6.569   5.266   3.178 -1.3616  1.5930  0.5561
  197ccc     N2 5208   6.712   5.328   3.032 -0.4419  0.1990  0.0976
  197ccc     C3 5209   6.765   5.448   2.969  0.2314  0.2698 -0.6413
  197ccc     C4 5210   6.658   5.235   2.927 -0.0669  0.0747 -0.1445
  197ccc     H6 5211   6.602   5.291   2.851  2.0680  1.1684 -0.9961
  197ccc     C5 5212   6.591   5.114   2.978 -0.5934  0.3609 -0.0226
  197ccc     H7 5213   6.744   5.198   2.870 -1.7666 -1.9501 -1.5541
  197ccc     H8 5214   6.500   5.138   3.035 -1.3919 -0.0815 -1.0671
  197ccc     H9 5215   6.659   5.053   3.039  0.9009  1.0336 -0.9627
  197ccc     C6 5216   6.520   5.040   2.864 -1.0291 -0.2514  0.8338
  197ccc     O1 5217   6.443   4.934   2.905  0.0394 -0.7001 -0.4863
  197ccc     O2 5218   6.565   5.046   2.751 -0.1424  0.6144  0.0983
  197ccc    H10 5219   6.772   5.532   3.039 -2.0800 -0.8061  0.9895
  197ccc    H11 5220   6.695   5.488   2.893  0.6553  0.3489 -0.9921
  197ccc     C7 5221   6.905   5.428   2.908 -0.5153 -0.3317 -0.2172
  197ccc    H12 5222   6.904   5.361   2.821  0.3167 -0.7053  0.0504
  197ccc    H13 5223   6.965   5.381   2.987  1.0983  1.9773  0.0412
  197ccc     C8 5224   6.967   5.560   2.877  0.0479  0.2015 -0.5839
  197ccc     O3 5225   7.017   5.631   2.962  0.0880  0.3251 -0.1732
  197ccc     O4 5226   6.953   5.592   2.750  0.3518 -0.2276 -0.2727
  197ccc    H14 5227   6.448   4.926   3.001 -0.4917  2.4128 -0.0767
  197ccc    H15 5228   6.899   5.518   2.719  0.7309  0.1046 -1.7845
  198ccc     N1 5229   9.225   6.068   0.952 -0.2628  0.1728  0.3583
  198ccc     H1 5230   9.140   6.063   1.006  1.0998 -1.6933  2.5314
  198ccc     C1 5231   9.227   6.167   0.841 -0.4295 -0.4706 -0.3327
  198ccc     H2 5232   9.324   6.182   0.792 -0.9629  0.2840 -1.2018
  198ccc     C2 5233   9.174   6.305   0.898  0.1140 -0.0710 -0.1139
  198ccc     H3 5234   9.161   6.134   0.760  0.2719 -2.1999 -0.2396
  198ccc     H4 5235   9.072   6.279   0.929 -0.1607  0.7648 -0.2966
  198ccc     H5 5236   9.171   6.374   0.813  1.6198  0.0728 -0.0897
  198ccc     N2 5237   9.254   6.352   1.020  0.4232 -0.1823  0.4730
  198ccc     C3 5238   9.186   6.448   1.096 -0.2610 -0.1900  0.4004
  198ccc     C4 5239   9.385   6.398   0.977 -0.3183  0.5849 -0.4153
  198ccc     H6 5240   9.413   6.362   0.877  0.9318 -1.2430  0.5302
  198ccc     C5 5241   9.482   6.347   1.085  0.3024  0.1063 -0.1248
  198ccc     H7 5242   9.398   6.507   0.972  1.8461  0.5835  2.6026
  198ccc     H8 5243   9.452   6.245   1.113 -1.9460  0.2216 -1.8196
  198ccc     H9 5244   9.474   6.423   1.164 -0.8972 -0.6640  0.5211
  198ccc     C6 5245   9.629   6.362   1.038  0.2297  0.5781 -0.3378
  198ccc     O1 5246   9.718   6.368   1.133 -0.0523 -0.3758 -0.3071
  198ccc     O2 5247   9.673   6.356   0.927  0.4492 -0.6447  0.1758
  198ccc    H10 5248   9.130   6.515   1.030  0.2352 -2.9162 -3.0620
  198ccc    H11 5249   9.255   6.495   1.168 -0.2699  0.6119 -0.0971
  198ccc     C7 5250   9.073   6.381   1.184 -0.2299  0.3753 -0.2420
  198ccc    H12 5251   9.009   6.314   1.125  0.8861 -1.6623  0.7621
  198ccc    H13 5252   9.015   6.464   1.227 -2.5990 -1.8261  1.1179
  198ccc     C8 5253   9.121   6.286   1.293 -0.1082  0.1680  0.2855
  198ccc     O3 5254   9.073   6.274   1.405 -0.3573 -0.3054 -0.2021
  198ccc     O4 5255   9.227   6.213   1.256 -0.1735  0.4476  0.5794
  198ccc    H14 5256   9.669   6.343   1.214 -1.5102 -2.5661 -1.7598
  198ccc    H15 5257   9.246   6.244   1.166  1.8929  0.0303  0.8159
  199ccc     N1 5258   8.744   5.556   1.221  0.5026  0.0040 -0.3192
  199ccc     H1 5259   8.780   5.575   1.314  1.2664 -0.9379 -0.4044
  199ccc     C1 5260   8.605   5.579   1.180  0.6091 -0.5526 -0.5701
  199ccc     H2 5261   8.600   5.561   1.072  0.2798 -3.4580 -0.1513
  199ccc     C2 5262   8.553   5.722   1.210  0.1971  0.4292  0.4492
  199ccc     H3 5263   8.544   5.497   1.222 -0.3708  0.3049 -0.2715
  199ccc     H4 5264   8.599   5.760   1.302  1.2540 -0.7209  0.4165
  199ccc     H5 5265   8.450   5.701   1.242  0.0078  1.0611  0.2705
  199ccc     N2 5266   8.552   5.834   1.112 -0.3653  0.0127  0.3200
  199ccc     C3 5267   8.682   5.885   1.093 -0.6259 -0.0808  0.1013
  199ccc     C4 5268   8.472   5.823   0.986 -0.3884  0.9684  0.2565
  199ccc     H6 5269   8.457   5.915   0.928  1.0813  0.9788 -0.1495
  199ccc     C5 5270   8.333   5.775   1.032 -0.5311  0.0707  0.2915
  199ccc     H7 5271   8.514   5.746   0.919 -1.4206 -1.5257  2.3150
  199ccc     H8 5272   8.304   5.837   1.118  0.9285 -1.4611  1.9699
  199ccc     H9 5273   8.323   5.668   1.052 -0.8058  0.6116  3.5915
  199ccc     C6 5274   8.233   5.789   0.911 -0.8679  0.3880  0.4244
  199ccc     O1 5275   8.106   5.785   0.930 -0.0456 -0.3438 -0.3993
  199ccc     O2 5276   8.270   5.749   0.803 -0.3301  0.2306 -0.1378
  199ccc    H10 5277   8.748   5.804   1.059 -0.3885  0.5712 -1.0304
  199ccc    H11 5278   8.728   5.924   1.184 -0.1136 -0.8658  0.1952
  199ccc     C7 5279   8.679   5.998   0.981 -0.2770 -0.0445  0.2003
  199ccc    H12 5280   8.597   6.069   0.997  0.4170  0.9209 -0.3444
  199ccc    H13 5281   8.658   5.958   0.882  0.6914 -1.2528  0.4620
  199ccc     C8 5282   8.817   6.059   0.953  0.0188  0.8569  0.3099
  199ccc     O3 5283   8.915   5.996   0.938  0.0900  0.7155 -0.5125
  199ccc     O4 5284   8.817   6.195   0.951  0.2538 -0.1627 -0.6412
  199ccc    H14 5285   8.097   5.827   1.018 -2.2305 -0.5624 -0.4528
  199ccc    H15 5286   8.726   6.219   0.977  0.2418  1.2524 -1.7996
  200ccc     N1 5287  10.045   4.738   1.842 -0.0752 -0.1273  0.1129
  200ccc     H1 5288  10.039   4.786   1.931  0.4136  3.2418 -1.5096
  200ccc     C1 5289   9.976   4.612   1.844 -0.4469  0.2525 -0.1976
  200ccc     H2 5290  10.020   4.548   1.767 -1.6774 -0.9699  0.0884
  200ccc     C2 5291   9.834   4.617   1.781  0.2235 -0.1358 -0.6127
  200ccc     H3 5292   9.983   4.579   1.948 -0.0087  0.4717 -0.1537
  200ccc     H4 5293   9.792   4.516   1.775 -0.0720 -0.0996  0.5857
  200ccc     H5 5294   9.860   4.633   1.676  0.6772 -1.5603 -0.7500
  200ccc     N2 5295   9.746   4.726   1.852  0.1070  0.3132 -0.7590
  200ccc     C3 5296   9.732   4.714   2.002 -0.8856 -0.1235 -0.0937
  200ccc     C4 5297   9.623   4.755   1.780 -0.5509 -0.3099 -0.0946
  200ccc     H6 5298   9.575   4.663   1.745 -0.1752 -0.5091 -0.0882
  200ccc     C5 5299   9.671   4.818   1.652 -0.1430 -1.0409  0.4266
  200ccc     H7 5300   9.545   4.811   1.833 -0.2285  1.0357 -0.9911
  200ccc     H8 5301   9.575   4.834   1.602  0.5612  2.2126 -0.1438
  200ccc     H9 5302   9.725   4.750   1.585  0.1213 -0.9162  0.5075
  200ccc     C6 5303   9.744   4.954   1.664 -0.2845 -0.0679  0.1573
  200ccc     O1 5304   9.869   4.951   1.721  0.0813  0.4401 -0.2972
  200ccc     O2 5305   9.692   5.066   1.652  0.4263 -0.6834 -0.8366
  200ccc    H10 5306   9.829   4.704   2.053 -0.8077  1.4241  0.1183
  200ccc    H11 5307   9.678   4.622   2.024  0.1370 -0.5395  0.8102
  200ccc     C7 5308   9.678   4.845   2.060  0.1093  0.7188 -0.4970
  200ccc    H12 5309   9.684   4.832   2.169 -2.3687  0.4525 -0.3380
  200ccc    H13 5310   9.569   4.857   2.049 -0.5635 -1.7480  2.1564
  200ccc     C8 5311   9.776   4.959   2.027 -0.7529 -0.1421 -0.5213
  200ccc     O3 5312   9.900   4.938   2.028 -0.8813 -0.0951 -0.0099
  200ccc     O4 5313   9.731   5.082   2.045 -0.1228  0.2360  0.0600
  200ccc    H14 5314   9.865   4.867   1.768 -0.0664  1.3100  1.3104
  200ccc    H15 5315   9.635   5.071   2.052 -0.0895 -0.5131 -0.5377
  201ccc     N1 5316  10.724   5.013   2.039 -0.2975  0.7137 -0.0688
  201ccc     H1 5317  10.712   5.101   2.088 -2.1063  0.8924 -0.7559
  201ccc     C1 5318  10.817   4.912   2.084  0.9537  0.3160 -0.1905
  201ccc     H2 5319  10.753   4.844   2.142  1.3666  0.3202  0.2753
  201ccc     C2 5320  10.927   4.979   2.161  0.2557 -0.3132 -0.6266
  201ccc     H3 5321  10.853   4.854   1.998 -4.3681 -0.9311 -1.9586
  201ccc     H4 5322  10.988   4.903   2.210  1.5305  0.7034 -0.5827
  201ccc     H5 5323  10.879   5.041   2.237 -0.7802 -3.0084  1.0478
  201ccc     N2 5324  11.021   5.066   2.080  0.2460  0.3333 -0.0871
  201ccc     C3 5325  11.088   5.179   2.160  0.2571 -0.2024  0.4002
  201ccc     C4 5326  11.101   4.997   1.978 -0.3758  0.1987  0.1823
  201ccc     H6 5327  11.165   4.924   2.028 -2.2956 -1.5390  0.2483
  201ccc     C5 5328  11.162   5.087   1.870 -0.6090  0.1969 -0.6457
  201ccc     H7 5329  11.041   4.921   1.926  0.1274  0.3466 -0.6383
  201ccc     H8 5330  11.253   5.133   1.910 -1.0330  1.3499 -0.9938
  201ccc     H9 5331  11.098   5.172   1.844 -0.5721  1.1288  2.0304
  201ccc     C6 5332  11.201   5.006   1.744  1.0520 -0.0459 -0.0782
  201ccc     O1 5333  11.223   5.088   1.641  0.0845  0.6122 -0.1564
  201ccc     O2 5334  11.201   4.882   1.746 -0.1979 -0.0670  0.2330
  201ccc    H10 5335  11.015   5.258   2.183  0.0292 -0.8252  1.9486
  201ccc    H11 5336  11.169   5.228   2.105 -0.2173  0.5333  0.3335
  201ccc     C7 5337  11.147   5.126   2.292 -0.3869  0.1166  0.0552
  201ccc    H12 5338  11.185   5.023   2.281 -2.1077 -0.5946  0.4567
  201ccc    H13 5339  11.066   5.119   2.365  2.0326  0.6894  2.9875
  201ccc     C8 5340  11.247   5.211   2.359 -0.1880 -0.5976 -0.3760
  201ccc     O3 5341  11.222   5.300   2.434 -0.3228  0.5078 -0.2818
  201ccc     O4 5342  11.370   5.213   2.300 -0.3225 -0.0238  0.5814
  201ccc    H14 5343  11.212   5.176   1.680  1.1938  0.7777 -0.2019
  201ccc    H15 5344  11.377   5.129   2.252 -1.7891  0.1718 -0.0386
  202ccc     N1 5345   7.785   5.776   2.191  0.3308  0.1207  0.5468
  202ccc     H1 5346   7.756   5.870   2.213 -1.4959  0.2792 -1.9965
  202ccc     C1 5347   7.688   5.674   2.201 -0.4274  0.4739 -0.2075
  202ccc     H2 5348   7.645   5.657   2.102  0.7120  0.8891 -0.7903
  202ccc     C2 5349   7.584   5.700   2.307  0.4417 -0.0117 -0.5911
  202ccc     H3 5350   7.727   5.579   2.238  1.9011  1.1619 -0.7303
  202ccc     H4 5351   7.511   5.618   2.310  1.5034 -0.9641  0.7611
  202ccc     H5 5352   7.530   5.781   2.257  0.9282  1.0369  0.5525
  202ccc     N2 5353   7.627   5.740   2.450  0.1259 -0.3374  0.2161
  202ccc     C3 5354   7.508   5.752   2.536  0.2315  0.5728  0.8195
  202ccc     C4 5355   7.731   5.656   2.511 -0.6377 -0.1663  0.1547
  202ccc     H6 5356   7.674   5.574   2.557  1.2183 -2.7842 -1.9049
  202ccc     C5 5357   7.835   5.721   2.593  0.1118  0.3625 -0.4567
  202ccc     H7 5358   7.783   5.608   2.427 -1.3757  0.6923 -0.8168
  202ccc     H8 5359   7.905   5.651   2.641  0.2301  1.6815  1.4004
  202ccc     H9 5360   7.795   5.780   2.676 -0.7992 -0.8224 -0.0336
  202ccc     C6 5361   7.924   5.804   2.503  0.3931 -0.3852 -0.5064
  202ccc     O1 5362   7.877   5.927   2.479 -0.5715  0.1289 -0.4540
  202ccc     O2 5363   8.036   5.768   2.484  0.5132 -0.1239  0.4406
  202ccc    H10 5364   7.541   5.749   2.640  1.8762  0.6340  0.3308
  202ccc    H11 5365   7.446   5.663   2.517 -2.0749  1.7612  2.3785
  202ccc     C7 5366   7.434   5.884   2.518 -0.1243 -0.7788 -0.3927
  202ccc    H12 5367   7.337   5.887   2.569  1.5696  1.5433  3.1559
  202ccc    H13 5368   7.418   5.899   2.411 -0.1908  1.7836 -0.0919
  202ccc     C8 5369   7.514   6.005   2.572  0.8313  0.1466  0.3928
  202ccc     O3 5370   7.624   5.994   2.623  0.4297  0.2138 -0.5083
  202ccc     O4 5371   7.462   6.126   2.552 -0.2015 -0.5395 -0.0448
  202ccc    H14 5372   7.788   5.922   2.516 -0.6367  0.3459 -0.5818
  202ccc    H15 5373   7.392   6.117   2.484  0.2978 -0.4054 -0.5887
  203ccc     N1 5374   8.449   6.268   2.234 -0.1129 -0.0200  0.6736
  203ccc     H1 5375   8.520   6.215   2.284  1.5829  2.1273  0.7125
  203ccc     C1 5376   8.473   6.409   2.225 -0.7218  0.3403  0.0762
  203ccc     H2 5377   8.578   6.416   2.258 -1.1137  0.5535  1.3506
  203ccc     C2 5378   8.386   6.491   2.318  0.4415 -0.4607  0.2907
  203ccc     H3 5379   8.459   6.448   2.123  1.4355  0.1326 -0.3489
  203ccc     H4 5380   8.281   6.468   2.297  0.3693 -0.1490  0.3176
  203ccc     H5 5381   8.408   6.595   2.291  2.7082 -1.1865 -0.9520
  203ccc     N2 5382   8.406   6.475   2.463 -0.1383  0.1062  0.4232
  203ccc     C3 5383   8.543   6.512   2.514  0.1548 -0.0869 -0.1550
  203ccc     C4 5384   8.289   6.520   2.548 -0.6122 -0.0711 -0.1092
  203ccc     H6 5385   8.319   6.599   2.617  1.5757  2.0238 -3.1985
  203ccc     C5 5386   8.226   6.395   2.614 -0.4660 -0.1786  1.0069
  203ccc     H7 5387   8.215   6.576   2.489 -2.5891 -0.9642  1.3726
  203ccc     H8 5388   8.127   6.428   2.648 -0.1747  0.4797  1.2295
  203ccc     H9 5389   8.285   6.361   2.700  2.4794  4.1412  1.0105
  203ccc     C6 5390   8.193   6.274   2.529  0.0277 -0.2074  0.1251
  203ccc     O1 5391   8.303   6.222   2.484 -0.7913  0.0995  0.3987
  203ccc     O2 5392   8.083   6.256   2.486 -0.1676  0.0021 -0.2276
  203ccc    H10 5393   8.547   6.620   2.530 -0.1049 -0.0182 -0.5376
  203ccc    H11 5394   8.623   6.494   2.442  0.3133 -0.4786  0.1183
  203ccc     C7 5395   8.589   6.432   2.643 -0.1846  0.2153 -0.3143
  203ccc    H12 5396   8.584   6.323   2.630 -0.8153  0.3729 -1.5666
  203ccc    H13 5397   8.531   6.456   2.733 -0.5641  1.0326 -0.7679
  203ccc     C8 5398   8.732   6.467   2.676  0.7508  0.4243 -0.0677
  203ccc     O3 5399   8.819   6.400   2.628 -0.5465 -0.4326 -0.2026
  203ccc     O4 5400   8.758   6.586   2.729  0.2045  0.0909 -1.0504
  203ccc    H14 5401   8.356   6.302   2.500  0.3068 -1.0047  2.6135
  203ccc    H15 5402   8.673   6.634   2.733  0.2617  0.2769 -1.9115
  204ccc     N1 5403   9.550   6.087   1.394  0.8802  0.1075  0.0416
  204ccc     H1 5404   9.484   6.027   1.443  0.6681 -1.2566 -1.8203
  204ccc     C1 5405   9.646   6.014   1.324  0.7508 -0.1291 -0.1428
  204ccc     H2 5406   9.749   6.038   1.354  0.3485  1.1680  0.2900
  204ccc     C2 5407   9.626   6.016   1.169  0.2689  0.2701  0.0400
  204ccc     H3 5408   9.623   5.911   1.354  0.1918  0.2049  0.6075
  204ccc     H4 5409   9.649   6.118   1.136  1.0549  0.1775  0.2650
  204ccc     H5 5410   9.520   5.998   1.153 -0.4270  0.4727  3.5776
  204ccc     N2 5411   9.711   5.926   1.087 -0.2364 -0.0688 -0.8426
  204ccc     C3 5412   9.653   5.786   1.069  0.6717  0.5372 -0.2129
  204ccc     C4 5413   9.849   5.924   1.131 -0.4405  0.3581 -0.1600
  204ccc     H6 5414   9.861   5.877   1.229  0.3722  1.5134  0.3221
  204ccc     C5 5415   9.917   6.061   1.118 -0.4455  0.5356 -0.3890
  204ccc     H7 5416   9.903   5.859   1.061 -1.2673  0.9343 -1.3608
  204ccc     H8 5417   9.875   6.134   1.189  0.3667 -0.0190  0.6970
  204ccc     H9 5418   9.915   6.100   1.016  1.7212 -0.3341 -0.8261
  204ccc     C6 5419  10.065   6.054   1.149  0.5554  0.1535  0.0562
  204ccc     O1 5420  10.135   6.134   1.077  0.5935  0.0561  0.4783
  204ccc     O2 5421  10.105   5.969   1.216  0.1238  0.1420  0.1777
  204ccc    H10 5422   9.550   5.800   1.037  0.4255  1.6895  0.9634
  204ccc    H11 5423   9.643   5.738   1.167 -0.7025 -0.2392 -0.7203
  204ccc     C7 5424   9.735   5.694   0.970  0.1354  0.5355 -0.1371
  204ccc    H12 5425   9.829   5.654   1.011 -0.6328 -3.0701 -1.5617
  204ccc    H13 5426   9.758   5.750   0.878  2.7985  0.4213  0.3617
  204ccc     C8 5427   9.650   5.572   0.936 -0.2982  0.0556  0.5496
  204ccc     O3 5428   9.546   5.538   0.993 -0.8223 -0.0125  0.3621
  204ccc     O4 5429   9.718   5.491   0.855 -0.0909 -0.3355 -0.1463
  204ccc    H14 5430  10.062   6.184   1.038  0.4319 -0.1758  0.4867
  204ccc    H15 5431   9.798   5.543   0.838  0.0517 -0.6223 -0.3791
  205ccc     N1 5432   9.368   6.908   1.514 -1.4377 -0.3242  0.4833
  205ccc     H1 5433   9.451   6.895   1.571 -0.7772  2.3551  0.2911
  205ccc     C1 5434   9.350   7.045   1.457  0.2562  0.1661  0.1410
  205ccc     H2 5435   9.438   7.110   1.462 -1.1799  2.1970  0.6381
  205ccc     C2 5436   9.233   7.118   1.542 -0.7090  0.1303  0.7794
  205ccc     H3 5437   9.335   7.039   1.349 -0.1051  1.9925  0.0519
  205ccc     H4 5438   9.141   7.061   1.524  0.3053 -1.0138 -1.1136
  205ccc     H5 5439   9.220   7.220   1.504 -0.2882 -0.1298 -0.0769
  205ccc     N2 5440   9.264   7.127   1.685 -0.4236 -0.3214  0.1715
  205ccc     C3 5441   9.146   7.176   1.763 -0.5804  0.9899 -0.3989
  205ccc     C4 5442   9.387   7.203   1.713  0.2458  0.4854 -0.1607
  205ccc     H6 5443   9.460   7.224   1.633  1.2219 -1.0448  0.2913
  205ccc     C5 5444   9.465   7.135   1.828  0.2695 -0.0476 -0.1864
  205ccc     H7 5445   9.365   7.304   1.749  1.0633  0.4118  0.5592
  205ccc     H8 5446   9.474   7.028   1.808  0.3060 -0.0371 -0.2272
  205ccc     H9 5447   9.409   7.149   1.921 -0.3381  0.0014 -0.5527
  205ccc     C6 5448   9.605   7.185   1.843  0.3791  0.5528 -0.2284
  205ccc     O1 5449   9.670   7.118   1.933 -0.0415 -0.1923  0.0754
  205ccc     O2 5450   9.645   7.278   1.782 -0.2720  0.0327 -0.6948
  205ccc    H10 5451   9.105   7.263   1.709 -1.7985 -1.2884 -3.4693
  205ccc    H11 5452   9.187   7.201   1.861  0.9191 -0.4286 -0.6339
  205ccc     C7 5453   9.030   7.073   1.770 -0.3723  0.3831 -0.0997
  205ccc    H12 5454   8.990   7.051   1.670 -0.6404 -0.4674  0.1822
  205ccc    H13 5455   8.947   7.104   1.834  1.5422  0.2427  2.6587
  205ccc     C8 5456   9.072   6.934   1.826  0.2238 -0.0316 -0.4300
  205ccc     O3 5457   9.019   6.877   1.917 -0.1808  0.3118  0.1516
  205ccc     O4 5458   9.182   6.879   1.770 -0.4097 -0.5567 -0.1050
  205ccc    H14 5459   9.603   7.071   1.985 -1.4289  1.6239  0.0199
  205ccc    H15 5460   9.213   6.961   1.728 -1.0589 -0.1946  0.1123
  206ccc     N1 5461   9.753   5.281   5.360 -0.0325 -0.2298 -0.5534
  206ccc     H1 5462   9.732   5.283   5.459 -3.4593  2.4328 -1.1319
  206ccc     C1 5463   9.886   5.226   5.336  0.1698 -0.2729  0.4813
  206ccc     H2 5464   9.902   5.173   5.431  0.7524 -0.1334  0.4655
  206ccc     C2 5465   9.999   5.335   5.311 -0.1667 -0.9470 -0.5189
  206ccc     H3 5466   9.885   5.159   5.249  0.6535 -1.5471  1.4343
  206ccc     H4 5467   9.977   5.372   5.210  1.7670 -1.2322 -1.0849
  206ccc     H5 5468  10.093   5.279   5.308  0.2557 -0.3757  1.0232
  206ccc     N2 5469  10.014   5.451   5.404 -0.3388 -0.7043 -0.2206
  206ccc     C3 5470  10.005   5.433   5.550  0.7795 -0.6495  0.5464
  206ccc     C4 5471  10.106   5.555   5.341  0.2096 -0.0363 -0.2319
  206ccc     H6 5472  10.206   5.516   5.322  0.0559  0.3935 -2.1467
  206ccc     C5 5473  10.101   5.685   5.421 -0.7184  0.3321 -0.5549
  206ccc     H7 5474  10.068   5.586   5.242  0.2307  5.2474  1.0986
  206ccc     H8 5475  10.146   5.667   5.520 -2.4415 -1.3894 -0.0294
  206ccc     H9 5476   9.997   5.713   5.439 -1.0014 -0.3676 -1.0646
  206ccc     C6 5477  10.172   5.801   5.357  0.2112  0.4291  0.0433
  206ccc     O1 5478  10.108   5.916   5.372 -0.4378 -0.1924  0.2541
  206ccc     O2 5479  10.274   5.785   5.290 -0.8432  0.2311  0.2335
  206ccc    H10 5480   9.933   5.354   5.574 -0.3576  0.3100  0.3905
  206ccc    H11 5481   9.977   5.526   5.601  1.8211  1.1522 -1.9919
  206ccc     C7 5482  10.128   5.367   5.609  0.2493 -0.4334  0.2334
  206ccc    H12 5483  10.211   5.439   5.606 -0.8820  0.9488  0.6971
  206ccc    H13 5484  10.153   5.272   5.559  0.3419  0.3050 -1.1993
  206ccc     C8 5485  10.110   5.340   5.757  0.6345 -0.0459  0.3673
  206ccc     O3 5486  10.034   5.401   5.834  0.3804 -0.4576 -0.1588
  206ccc     O4 5487  10.191   5.249   5.798  0.2458  0.0984 -0.0220
  206ccc    H14 5488  10.032   5.905   5.432  0.7491 -2.1670  1.5188
  206ccc    H15 5489  10.235   5.218   5.717 -0.9604  2.1961 -1.5964
  207ccc     N1 5490   9.475   4.604   5.139 -1.0450  0.0029  0.4831
  207ccc     H1 5491   9.430   4.662   5.069  2.0158  2.2019  0.1100
  207ccc     C1 5492   9.571   4.511   5.083 -0.5538  0.0946 -0.0304
  207ccc     H2 5493   9.672   4.548   5.102 -0.1945 -1.2639  0.8027
  207ccc     C2 5494   9.554   4.498   4.926  0.6136 -0.3033 -0.2144
  207ccc     H3 5495   9.561   4.413   5.130 -1.2516  0.6301  0.9738
  207ccc     H4 5496   9.568   4.593   4.874 -0.4876 -0.5859 -1.0641
  207ccc     H5 5497   9.447   4.473   4.916  0.3918  0.9391 -1.2494
  207ccc     N2 5498   9.638   4.397   4.862  0.6044  0.2712 -0.0034
  207ccc     C3 5499   9.782   4.401   4.902 -0.1271  0.3912 -0.0787
  207ccc     C4 5500   9.577   4.263   4.873  0.3780  0.5686  0.6261
  207ccc     H6 5501   9.561   4.245   4.980  1.7029 -0.2348  0.7178
  207ccc     C5 5502   9.668   4.146   4.816 -0.0801 -0.2070  0.7524
  207ccc     H7 5503   9.483   4.259   4.817 -0.6236 -0.1407  2.2964
  207ccc     H8 5504   9.768   4.151   4.861  0.2337 -0.2777  0.0638
  207ccc     H9 5505   9.675   4.145   4.707  2.3241 -0.6429  0.8631
  207ccc     C6 5506   9.609   4.009   4.860 -0.2570 -0.5353  0.1539
  207ccc     O1 5507   9.706   3.912   4.858  0.3141 -0.0472  0.4760
  207ccc     O2 5508   9.499   3.997   4.912  0.2892 -0.3027  0.7525
  207ccc    H10 5509   9.844   4.328   4.849 -3.3603 -0.1796 -3.4426
  207ccc    H11 5510   9.795   4.373   5.007 -0.4791  1.3982  0.2484
  207ccc     C7 5511   9.852   4.540   4.872  0.5058  1.1094 -0.0658
  207ccc    H12 5512   9.792   4.623   4.911 -0.0150  1.3082 -1.2727
  207ccc    H13 5513   9.855   4.538   4.763 -0.1322 -3.7169 -0.2349
  207ccc     C8 5514   9.985   4.551   4.941 -0.7679 -0.3735 -0.0087
  207ccc     O3 5515  10.034   4.477   5.021 -0.2901  0.1140 -0.1291
  207ccc     O4 5516  10.051   4.664   4.908 -0.1268  0.5982  0.2928
  207ccc    H14 5517   9.783   3.955   4.816 -1.1761  0.8850 -1.4805
  207ccc    H15 5518  10.002   4.703   4.834 -0.0437 -0.8820 -0.5845
  208ccc     N1 5519   8.098   4.261   4.529  0.3622  0.2901  0.0199
  208ccc     H1 5520   8.017   4.222   4.576  1.8954 -1.5131  1.3159
  208ccc     C1 5521   8.104   4.271   4.384 -0.8380 -0.3321 -1.0331
  208ccc     H2 5522   8.014   4.218   4.349 -0.5924 -1.2564 -0.3074
  208ccc     C2 5523   8.223   4.210   4.310 -0.5497  0.0567 -0.5193
  208ccc     H3 5524   8.096   4.375   4.350 -1.7429  0.1693  0.6060
  208ccc     H4 5525   8.229   4.104   4.336 -0.2291  0.1929 -0.0373
  208ccc     H5 5526   8.312   4.257   4.354 -0.8705  0.5319 -0.3658
  208ccc     N2 5527   8.222   4.226   4.165 -0.1002 -0.0885  0.7396
  208ccc     C3 5528   8.192   4.102   4.092 -0.4756  0.2369  0.3045
  208ccc     C4 5529   8.350   4.277   4.110  0.1137 -0.1916  0.2846
  208ccc     H6 5530   8.431   4.203   4.123  1.4723  1.4179  1.4404
  208ccc     C5 5531   8.399   4.410   4.169  0.9798  0.7253 -0.4731
  208ccc     H7 5532   8.356   4.294   4.002  2.1755 -1.4265  0.1532
  208ccc     H8 5533   8.441   4.396   4.269 -2.8427  2.2888  1.5500
  208ccc     H9 5534   8.312   4.476   4.184  0.6011  0.0282  0.5360
  208ccc     C6 5535   8.491   4.484   4.069  0.2169 -0.0684  0.0583
  208ccc     O1 5536   8.434   4.573   3.989  0.3169  0.2646  0.2842
  208ccc     O2 5537   8.609   4.457   4.052  0.2613 -0.1111 -0.0827
  208ccc    H10 5538   8.261   4.020   4.115  1.8801  1.6540 -1.2174
  208ccc    H11 5539   8.198   4.116   3.983 -0.8084 -0.5749  0.1744
  208ccc     C7 5540   8.053   4.056   4.125  0.1136 -0.3288 -0.4354
  208ccc    H12 5541   7.978   4.133   4.101 -0.2127  0.8773  3.7095
  208ccc    H13 5542   8.049   4.043   4.233  0.0332  1.8898 -0.1105
  208ccc     C8 5543   8.015   3.932   4.051 -0.0764  0.4515 -0.3715
  208ccc     O3 5544   8.085   3.878   3.965  0.0434 -0.3444  0.2421
  208ccc     O4 5545   7.901   3.876   4.090 -0.0474  1.2047  0.2025
  208ccc    H14 5546   8.338   4.568   4.004  0.4214 -2.6373  0.5926
  208ccc    H15 5547   7.851   3.950   4.128 -1.4964 -0.1644  1.0869
  209ccc     N1 5548   7.866   4.518   5.232 -0.0600  0.0828 -0.2808
  209ccc     H1 5549   7.912   4.607   5.246 -0.5100  0.2489  0.1642
  209ccc     C1 5550   7.729   4.520   5.293 -0.3045 -0.4715  0.0871
  209ccc     H2 5551   7.729   4.436   5.363  0.8283 -0.8768 -0.3708
  209ccc     C2 5552   7.607   4.515   5.195  0.7544  0.3066  0.8846
  209ccc     H3 5553   7.720   4.607   5.359 -1.5643 -0.8194  0.3895
  209ccc     H4 5554   7.516   4.496   5.252  0.3270 -4.5338 -1.0085
  209ccc     H5 5555   7.615   4.422   5.138  0.0178  0.1235  1.0727
  209ccc     N2 5556   7.585   4.628   5.093  0.0207  0.7423  0.3299
  209ccc     C3 5557   7.568   4.756   5.158 -0.6605  0.2935  0.0007
  209ccc     C4 5558   7.690   4.635   4.991 -0.7547 -0.5773 -0.4810
  209ccc     H6 5559   7.787   4.653   5.038  1.4338 -0.8488 -4.4800
  209ccc     C5 5560   7.669   4.739   4.880  0.0811 -0.2243  0.4633
  209ccc     H7 5561   7.698   4.535   4.946 -1.8909 -0.2110 -1.5746
  209ccc     H8 5562   7.715   4.831   4.919  1.2227 -0.2444 -0.7888
  209ccc     H9 5563   7.565   4.752   4.849 -0.0411 -1.1020  0.4811
  209ccc     C6 5564   7.756   4.712   4.758 -0.7788  0.0830 -0.2969
  209ccc     O1 5565   7.763   4.810   4.671  0.0626  0.3165  0.0590
  209ccc     O2 5566   7.806   4.605   4.726 -0.8761 -0.0261  0.1672
  209ccc    H10 5567   7.576   4.840   5.087  1.0035 -1.1698 -1.6450
  209ccc    H11 5568   7.647   4.774   5.231 -0.2415 -0.8185 -0.1660
  209ccc     C7 5569   7.438   4.763   5.231  0.4513  0.1312  0.9257
  209ccc    H12 5570   7.422   4.858   5.285 -0.7333  0.1439  0.5826
  209ccc    H13 5571   7.434   4.680   5.302 -0.9250 -1.2694 -0.7207
  209ccc     C8 5572   7.312   4.757   5.147 -0.7798 -0.0101 -0.2723
  209ccc     O3 5573   7.213   4.819   5.169  0.1818 -0.3177  0.4689
  209ccc     O4 5574   7.325   4.673   5.042  0.0912 -0.5262 -0.4744
  209ccc    H14 5575   7.703   4.876   4.710  1.1229  0.8710  0.7817
  209ccc    H15 5576   7.422   4.661   5.051  0.4278  0.9862 -1.6567
  210ccc     N1 5577  10.092   4.094   3.300  0.3170 -0.7343  0.1181
  210ccc     H1 5578  10.119   4.002   3.333  0.4315 -0.0086  2.1597
  210ccc     C1 5579  10.001   4.113   3.193 -0.0638 -0.6117  0.5855
  210ccc     H2 5580  10.042   4.187   3.123  0.0953 -1.3862 -0.1555
  210ccc     C2 5581   9.862   4.153   3.261 -1.1189  0.2310 -0.1154
  210ccc     H3 5582   9.985   4.016   3.144 -1.8413 -0.2679  0.4172
  210ccc     H4 5583   9.877   4.212   3.353 -1.6950  0.7718 -0.3627
  210ccc     H5 5584   9.819   4.062   3.305 -0.6874  0.5409  1.0035
  210ccc     N2 5585   9.764   4.222   3.181  0.1953 -0.3363 -0.5242
  210ccc     C3 5586   9.632   4.232   3.239 -0.1449 -0.0694 -0.0381
  210ccc     C4 5587   9.813   4.352   3.129 -0.2324 -0.5264 -0.1783
  210ccc     H6 5588   9.790   4.429   3.203  1.7521 -0.4361  0.3889
  210ccc     C5 5589   9.753   4.391   2.993  0.2826 -0.3381  0.2976
  210ccc     H7 5590   9.922   4.347   3.124 -0.2822 -0.6556 -1.6474
  210ccc     H8 5591   9.645   4.379   2.981 -0.2339  3.2803  0.2168
  210ccc     H9 5592   9.814   4.342   2.916  0.1639  1.5360 -1.0533
  210ccc     C6 5593   9.779   4.536   2.951 -0.0425  0.3115  0.4651
  210ccc     O1 5594   9.816   4.551   2.824  0.2133 -0.0728 -0.0874
  210ccc     O2 5595   9.786   4.627   3.030  0.6726  0.2163 -0.2198
  210ccc    H10 5596   9.558   4.288   3.180  0.2920 -0.0146 -0.5369
  210ccc    H11 5597   9.648   4.269   3.341 -1.0934 -0.2903  0.1966
  210ccc     C7 5598   9.558   4.095   3.260 -0.2743  0.2193  0.2821
  210ccc    H12 5599   9.610   4.028   3.329 -1.7291 -0.7371  0.4892
  210ccc    H13 5600   9.544   4.048   3.162  0.9295 -1.0072  0.6622
  210ccc     C8 5601   9.425   4.125   3.329  0.0872 -0.1813 -0.7910
  210ccc     O3 5602   9.399   4.221   3.396  0.6782  0.5470  0.1330
  210ccc     O4 5603   9.343   4.022   3.331  0.1504  0.1949 -0.2069
  210ccc    H14 5604   9.812   4.648   2.818  1.7807 -0.0306 -1.0269
  210ccc    H15 5605   9.397   3.953   3.289  1.4143  0.9684  0.0831
  211ccc     N1 5606  10.018   3.870   3.724  0.1276  0.1275 -0.0618
  211ccc     H1 5607   9.951   3.946   3.724 -0.4387 -0.3677 -0.1858
  211ccc     C1 5608  10.008   3.750   3.643  0.2026  0.0391 -0.3242
  211ccc     H2 5609   9.934   3.760   3.562 -1.2802 -0.3135  0.9545
  211ccc     C2 5610   9.974   3.624   3.728 -0.1736 -0.0475 -0.9439
  211ccc     H3 5611  10.108   3.728   3.602  0.7509  1.5636  0.1402
  211ccc     H4 5612  10.037   3.614   3.817 -1.6396 -0.9174  0.0502
  211ccc     H5 5613  10.004   3.542   3.662  0.3666  0.3539 -1.1975
  211ccc     N2 5614   9.823   3.603   3.754 -0.5838  0.9950 -0.6595
  211ccc     C3 5615   9.802   3.486   3.841  0.1381 -0.3235 -0.1270
  211ccc     C4 5616   9.747   3.717   3.808 -0.7766  0.4634  0.1271
  211ccc     H6 5617   9.739   3.805   3.743 -1.7216 -0.2383 -0.7509
  211ccc     C5 5618   9.796   3.764   3.945  0.0795 -0.6669  0.0318
  211ccc     H7 5619   9.642   3.686   3.821 -0.9475  1.4727  1.3810
  211ccc     H8 5620   9.905   3.775   3.939  0.2242 -0.2301  2.4468
  211ccc     H9 5621   9.783   3.684   4.018  0.7872  0.3840  1.3526
  211ccc     C6 5622   9.732   3.896   3.983 -0.5343  0.4672 -0.5285
  211ccc     O1 5623   9.599   3.883   3.999 -0.1542  0.3540  0.2426
  211ccc     O2 5624   9.785   4.002   3.956 -0.3753  0.0188 -1.1513
  211ccc    H10 5625   9.704   3.489   3.890 -0.1686 -2.4811 -0.4937
  211ccc    H11 5626   9.876   3.481   3.923 -0.6805  2.0857  0.8633
  211ccc     C7 5627   9.805   3.355   3.758  0.0383 -0.1742  0.1309
  211ccc    H12 5628   9.891   3.354   3.690 -1.0165 -1.6575 -1.2722
  211ccc    H13 5629   9.710   3.346   3.702 -1.0932 -0.2421  1.9771
  211ccc     C8 5630   9.812   3.232   3.852 -0.7627 -0.0196  0.5770
  211ccc     O3 5631   9.707   3.196   3.900  0.0089 -0.4903  0.4364
  211ccc     O4 5632   9.929   3.157   3.844  0.0263 -0.2478 -0.6434
  211ccc    H14 5633   9.574   3.789   3.991 -2.6380  0.7119  2.3781
  211ccc    H15 5634   9.984   3.204   3.779  1.4759  1.0320  1.3587
  212ccc     N1 5635  10.940   5.682   3.981 -0.2173 -0.9557 -0.2068
  212ccc     H1 5636  10.950   5.645   3.887 -3.0897 -0.5513 -0.7782
  212ccc     C1 5637  10.963   5.823   3.999 -0.1533  0.3791  0.7833
  212ccc     H2 5638  10.957   5.849   4.105  0.2380  0.8508  0.6889
  212ccc     C2 5639  10.874   5.916   3.909  0.0127 -0.1114 -0.5555
  212ccc     H3 5640  11.067   5.836   3.967 -0.3318  0.3406  0.1793
  212ccc     H4 5641  10.871   6.021   3.939  2.0418 -0.3485  0.7372
  212ccc     H5 5642  10.772   5.881   3.928  0.0937  0.0791  0.2743
  212ccc     N2 5643  10.914   5.907   3.767  0.0583  0.0377  0.4067
  212ccc     C3 5644  10.805   5.930   3.667 -0.0052 -0.2345  0.1919
  212ccc     C4 5645  11.033   5.981   3.726 -0.6044  0.0734 -0.5652
  212ccc     H6 5646  11.115   5.951   3.792 -1.7321  0.8668  1.3056
  212ccc     C5 5647  11.019   6.136   3.734  1.0599  0.5694 -0.8824
  212ccc     H7 5648  11.051   5.955   3.621 -0.1725 -0.3042 -0.4014
  212ccc     H8 5649  11.005   6.173   3.836  0.1449 -1.2313 -0.3070
  212ccc     H9 5650  10.932   6.166   3.674 -0.5209 -1.2027  0.3716
  212ccc     C6 5651  11.131   6.203   3.672  0.1887  0.0308 -0.0193
  212ccc     O1 5652  11.214   6.250   3.765  0.0802  0.3950 -0.3684
  212ccc     O2 5653  11.168   6.166   3.562  0.3745  0.6111 -0.8301
  212ccc    H10 5654  10.842   5.948   3.565  3.0438  0.9295  1.3896
  212ccc    H11 5655  10.768   6.029   3.699 -0.9638 -0.5137 -0.0305
  212ccc     C7 5656  10.693   5.827   3.672 -0.2839  0.1149 -0.0517
  212ccc    H12 5657  10.631   5.829   3.762 -1.8168  2.0797 -1.0656
  212ccc    H13 5658  10.752   5.734   3.667  0.3512  0.3918  1.8147
  212ccc     C8 5659  10.609   5.844   3.553  0.3621 -0.3799 -0.3357
  212ccc     O3 5660  10.586   5.948   3.492 -1.1210 -0.6854  0.0432
  212ccc     O4 5661  10.522   5.743   3.551  1.0325  0.4057  0.3901
  212ccc    H14 5662  11.305   6.260   3.730 -0.0328 -0.6520 -0.9893
  212ccc    H15 5663  10.562   5.690   3.622 -1.7404  0.9852  2.5884
  213ccc     N1 5664  10.870   4.904   3.759 -0.4866 -0.2440  0.4839
  213ccc     H1 5665  10.771   4.888   3.746 -0.6263  0.1043  1.0762
  213ccc     C1 5666  10.945   4.789   3.731 -0.1235 -0.1406  0.1112
  213ccc     H2 5667  10.995   4.755   3.823  1.0011  0.3569 -0.2883
  213ccc     C2 5668  11.058   4.805   3.631 -0.3778  0.0139 -0.7057
  213ccc     H3 5669  10.882   4.710   3.689  0.3733 -0.8570  0.6839
  213ccc     H4 5670  11.132   4.726   3.647 -0.4689  0.3358  1.5275
  213ccc     H5 5671  11.109   4.896   3.663 -0.8603  0.0919 -0.1414
  213ccc     N2 5672  11.029   4.805   3.484 -0.1250  0.3218 -0.1690
  213ccc     C3 5673  10.952   4.704   3.419 -0.6312 -0.1264 -0.2417
  213ccc     C4 5674  11.142   4.863   3.413  0.7310  0.0153  0.5590
  213ccc     H6 5675  11.183   4.939   3.481  2.5025  0.4505 -0.9098
  213ccc     C5 5676  11.092   4.936   3.288  0.5572 -0.1615  0.3803
  213ccc     H7 5677  11.224   4.790   3.403  1.5944  1.0007  0.2365
  213ccc     H8 5678  10.997   4.986   3.311 -0.0532 -1.1654  0.0967
  213ccc     H9 5679  11.073   4.867   3.205 -3.6664  0.8153  0.2984
  213ccc     C6 5680  11.185   5.049   3.244  0.0391  0.7945 -0.8610
  213ccc     O1 5681  11.306   5.005   3.203  0.4534 -0.8016 -0.3540
  213ccc     O2 5682  11.187   5.158   3.303 -0.0975 -0.1273  0.3380
  213ccc    H10 5683  10.962   4.729   3.313  2.8932 -1.3829 -0.3090
  213ccc    H11 5684  10.845   4.706   3.446 -0.5245 -0.5269  0.2149
  213ccc     C7 5685  11.003   4.560   3.437  0.2671 -0.6828 -0.6587
  213ccc    H12 5686  11.012   4.536   3.543 -1.8667  2.4542  0.3927
  213ccc    H13 5687  11.106   4.564   3.402  1.1877  0.1381  1.9111
  213ccc     C8 5688  10.916   4.457   3.367 -0.4060  0.2603 -0.1796
  213ccc     O3 5689  10.941   4.413   3.258 -0.2546 -0.4494  0.5976
  213ccc     O4 5690  10.850   4.384   3.453  0.0071 -0.4698  0.3571
  213ccc    H14 5691  11.305   4.908   3.193  0.7613 -0.8112 -0.2994
  213ccc    H15 5692  10.860   4.432   3.537  1.6051  1.0353 -0.6289
  214ccc     N1 5693   7.249   5.316   3.270 -0.3466  0.4173  0.4245
  214ccc     H1 5694   7.315   5.344   3.341 -0.7330 -1.4071  1.5555
  214ccc     C1 5695   7.182   5.423   3.189  0.0495  0.1878  0.5521
  214ccc     H2 5696   7.216   5.428   3.085 -1.5123  3.2597  0.0657
  214ccc     C2 5697   7.193   5.559   3.258 -0.3526  0.1049 -0.7769
  214ccc     H3 5698   7.076   5.397   3.198  0.0350  0.5479  1.6890
  214ccc     H4 5699   7.151   5.540   3.357 -0.1223 -0.0358 -0.7066
  214ccc     H5 5700   7.131   5.630   3.201  0.4068  1.6401  0.2368
  214ccc     N2 5701   7.332   5.605   3.275 -0.4245  0.2863 -0.8367
  214ccc     C3 5702   7.350   5.739   3.343 -0.0012  0.0141 -0.0344
  214ccc     C4 5703   7.413   5.586   3.151  0.6426 -0.5987  0.3180
  214ccc     H6 5704   7.518   5.613   3.172  0.4716 -0.8592  1.6330
  214ccc     C5 5705   7.364   5.680   3.040 -0.0596  0.7019 -0.0915
  214ccc     H7 5706   7.415   5.481   3.121 -0.1996 -1.1085  1.8988
  214ccc     H8 5707   7.393   5.783   3.063 -1.5988  1.0419  0.3916
  214ccc     H9 5708   7.258   5.668   3.019 -0.7894  2.6815  2.0737
  214ccc     C6 5709   7.433   5.643   2.909 -0.4498 -0.3405 -0.1893
  214ccc     O1 5710   7.403   5.736   2.822  0.0174  0.1011  0.3036
  214ccc     O2 5711   7.469   5.531   2.887  0.5612  1.0609  0.3141
  214ccc    H10 5712   7.293   5.820   3.297  0.8203  1.0227  0.6823
  214ccc    H11 5713   7.459   5.755   3.346 -0.2074  1.4013  2.7112
  214ccc     C7 5714   7.299   5.722   3.488  0.4003 -0.2393 -0.2337
  214ccc    H12 5715   7.327   5.623   3.526 -3.6790 -1.3090  0.4108
  214ccc    H13 5716   7.190   5.730   3.494  0.4809  1.2342 -0.2816
  214ccc     C8 5717   7.356   5.835   3.576  0.3485  0.4219  0.5551
  214ccc     O3 5718   7.468   5.879   3.564 -0.1920 -0.7387  0.2708
  214ccc     O4 5719   7.295   5.844   3.695  0.1311 -0.4145  0.2668
  214ccc    H14 5720   7.350   5.800   2.871 -0.1382 -1.6726  2.6012
  214ccc    H15 5721   7.219   5.787   3.674 -0.8877  1.1283 -0.4276
  215ccc     N1 5722   7.091   4.484   3.447 -0.1558  0.3510 -0.1742
  215ccc     H1 5723   7.056   4.551   3.514 -1.4676 -1.4579  1.0536
  215ccc     C1 5724   7.038   4.345   3.456 -0.2248 -0.7216  0.5574
  215ccc     H2 5725   6.935   4.358   3.492 -0.2321 -0.2332  0.3603
  215ccc     C2 5726   7.131   4.256   3.543  0.7266  0.3271 -0.2292
  215ccc     H3 5727   7.036   4.297   3.357 -1.8612  0.9943 -0.3045
  215ccc     H4 5728   7.214   4.220   3.480  1.9026 -1.1347  1.9893
  215ccc     H5 5729   7.061   4.174   3.565 -1.1299  1.7923 -0.4501
  215ccc     N2 5730   7.172   4.327   3.670 -0.6136 -0.1015 -0.1576
  215ccc     C3 5731   7.072   4.308   3.781 -0.6341 -0.1420 -0.8162
  215ccc     C4 5732   7.316   4.307   3.700  0.8521 -0.5122 -0.6685
  215ccc     H6 5733   7.338   4.325   3.806 -0.1461  2.6359 -0.9085
  215ccc     C5 5734   7.389   4.400   3.609 -0.4731  0.2067 -0.6115
  215ccc     H7 5735   7.338   4.202   3.678  2.8006 -0.0253 -1.1646
  215ccc     H8 5736   7.356   4.504   3.620  0.0948  0.3487 -0.2154
  215ccc     H9 5737   7.376   4.373   3.503 -0.0748 -2.6449  0.0023
  215ccc     C6 5738   7.535   4.415   3.655  0.3095  0.1959 -0.1069
  215ccc     O1 5739   7.623   4.440   3.560  0.4103 -0.1957  0.7754
  215ccc     O2 5740   7.581   4.396   3.765  0.4545 -0.3169  0.3768
  215ccc    H10 5741   7.059   4.202   3.806 -1.7480  0.1094 -0.2934
  215ccc    H11 5742   6.972   4.335   3.744 -0.5437 -0.0635 -1.0099
  215ccc     C7 5743   7.096   4.395   3.904  0.0255  0.7846 -0.0980
  215ccc    H12 5744   7.194   4.382   3.951 -0.3109  0.3462  0.5026
  215ccc    H13 5745   7.023   4.366   3.981  0.0218  1.3526  0.1161
  215ccc     C8 5746   7.066   4.544   3.884  0.2911  0.7086 -0.0754
  215ccc     O3 5747   6.964   4.603   3.919  0.5201 -0.4224  0.4801
  215ccc     O4 5748   7.138   4.589   3.782 -0.1550 -0.8179  0.7276
  215ccc    H14 5749   7.706   4.448   3.610 -0.0576 -0.3620  1.6183
  215ccc    H15 5750   7.176   4.507   3.745  1.1964 -1.6293  3.6263
  216ccc     N1 5751   8.837   4.542   2.404  0.3465 -0.0296  0.2331
  216ccc     H1 5752   8.740   4.516   2.395  0.0059  1.7487 -2.3560
  216ccc     C1 5753   8.936   4.444   2.356 -0.0451 -0.1310  0.0238
  216ccc     H2 5754   8.897   4.409   2.260  0.6173  2.4703 -1.3181
  216ccc     C2 5755   8.956   4.325   2.454 -0.1742  0.1050  0.9241
  216ccc     H3 5756   9.031   4.499   2.351  2.2200 -3.4931  2.1416
  216ccc     H4 5757   8.983   4.367   2.552  0.5037  2.5636 -0.2287
  216ccc     H5 5758   9.045   4.274   2.416 -0.5184 -0.4320  0.8327
  216ccc     N2 5759   8.850   4.219   2.464  0.8451 -0.1445  0.6125
  216ccc     C3 5760   8.810   4.151   2.328 -0.2100 -0.2673 -0.9394
  216ccc     C4 5761   8.724   4.236   2.534  0.8496 -0.4702 -0.6543
  216ccc     H6 5762   8.658   4.300   2.474  1.7717  1.8860  0.7074
  216ccc     C5 5763   8.738   4.282   2.677  0.3963  0.8525 -0.3305
  216ccc     H7 5764   8.683   4.135   2.553  2.5241 -0.7494  1.9606
  216ccc     H8 5765   8.792   4.377   2.678  0.9044  0.5763 -0.8827
  216ccc     H9 5766   8.789   4.214   2.746 -3.1545 -0.0026  1.7018
  216ccc     C6 5767   8.594   4.284   2.741 -0.4132  0.6155 -0.0573
  216ccc     O1 5768   8.580   4.383   2.830 -0.6838 -0.5595 -0.0788
  216ccc     O2 5769   8.503   4.216   2.696 -0.4748  1.0754  0.3034
  216ccc    H10 5770   8.784   4.219   2.246 -2.4232 -1.4412 -1.3025
  216ccc    H11 5771   8.716   4.095   2.341 -0.1045  0.1669  2.4306
  216ccc     C7 5772   8.924   4.059   2.281 -0.6701 -0.0159  0.3347
  216ccc    H12 5773   8.968   4.007   2.367 -0.1200  1.1707  0.7986
  216ccc    H13 5774   9.008   4.118   2.242 -2.7277  1.9729 -1.3798
  216ccc     C8 5775   8.879   3.965   2.173  0.0266  0.2122 -0.2353
  216ccc     O3 5776   8.780   3.981   2.102 -0.0789 -0.0154  0.6768
  216ccc     O4 5777   8.958   3.863   2.161  0.2527  0.4909  0.4166
  216ccc    H14 5778   8.672   4.416   2.838 -1.0627  0.2467  1.2931
  216ccc    H15 5779   9.036   3.890   2.213 -2.0065  2.0722  3.2701
  217ccc     N1 5780   8.216   4.879   2.369  0.3910 -0.2403  0.5759
  217ccc     H1 5781   8.189   4.841   2.459  2.3251 -3.7119 -0.1269
  217ccc     C1 5782   8.107   4.927   2.288 -0.4504 -0.4435  0.6962
  217ccc     H2 5783   8.131   4.921   2.181  1.0403  1.1349  0.8959
  217ccc     C2 5784   8.075   5.076   2.327 -0.0521  0.2186 -0.7186
  217ccc     H3 5785   8.014   4.872   2.306 -0.5553 -0.0931  1.2598
  217ccc     H4 5786   8.168   5.115   2.371  0.9028 -1.8003 -0.8306
  217ccc     H5 5787   8.008   5.073   2.413  3.0047 -0.4182  1.8367
  217ccc     N2 5788   8.018   5.162   2.218 -0.7664  0.1069  0.1725
  217ccc     C3 5789   7.884   5.135   2.174 -0.0058 -0.5264 -0.1179
  217ccc     C4 5790   8.116   5.174   2.102  0.0481  0.1972  0.4130
  217ccc     H6 5791   8.133   5.077   2.053 -2.0380 -0.0977  0.1908
  217ccc     C5 5792   8.246   5.242   2.151 -0.0225 -0.4958 -0.1454
  217ccc     H7 5793   8.063   5.236   2.028  0.1451 -0.4019 -0.1665
  217ccc     H8 5794   8.301   5.183   2.225  0.3664  0.9169  0.7295
  217ccc     H9 5795   8.220   5.343   2.186 -0.0244 -0.6804  0.3823
  217ccc     C6 5796   8.340   5.275   2.038 -0.3109 -0.1406  0.2497
  217ccc     O1 5797   8.467   5.315   2.076 -0.2484  0.7814  0.2407
  217ccc     O2 5798   8.299   5.274   1.923 -0.2889  1.1249  0.0177
  217ccc    H10 5799   7.860   5.035   2.136  0.1400 -0.3472 -0.7001
  217ccc    H11 5800   7.872   5.202   2.088 -0.5753  1.0959  1.1780
  217ccc     C7 5801   7.783   5.181   2.288  0.2593 -0.1572 -0.7719
  217ccc    H12 5802   7.830   5.266   2.338 -0.7053 -0.2297  0.3057
  217ccc    H13 5803   7.770   5.102   2.364 -0.9588 -1.6800 -2.4669
  217ccc     C8 5804   7.643   5.211   2.238  0.5594  0.0839  0.1734
  217ccc     O3 5805   7.603   5.319   2.197  0.0235 -0.1267 -0.3475
  217ccc     O4 5806   7.559   5.104   2.247 -0.0557 -0.0629 -0.1038
  217ccc    H14 5807   8.480   5.252   2.148  0.3492 -1.7648 -1.9400
  217ccc    H15 5808   7.606   5.036   2.298  0.4055  0.7337  0.5618
  218ccc     N1 5809   7.891   4.033   4.869  0.3108 -0.4677 -0.5957
  218ccc     H1 5810   7.837   4.043   4.954 -0.5577  2.6722 -1.3732
  218ccc     C1 5811   7.944   3.903   4.837  0.4913  1.5736 -0.0250
  218ccc     H2 5812   7.906   3.827   4.906  0.7378  0.3463 -1.1810
  218ccc     C2 5813   8.101   3.901   4.849  0.6362 -0.3114 -0.1909
  218ccc     H3 5814   7.905   3.867   4.740 -0.4089  0.5787  0.6751
  218ccc     H4 5815   8.124   3.955   4.941  1.2278  1.9854 -1.6102
  218ccc     H5 5816   8.143   3.961   4.768  1.4075 -0.6386 -0.0384
  218ccc     N2 5817   8.165   3.762   4.838 -0.3826 -0.7690  0.6171
  218ccc     C3 5818   8.149   3.711   4.698  0.1359 -1.0329 -0.2341
  218ccc     C4 5819   8.309   3.764   4.884  0.3533 -0.9272 -0.2741
  218ccc     H6 5820   8.379   3.708   4.822  1.3638  0.2427 -0.2357
  218ccc     C5 5821   8.316   3.731   5.028  1.0903 -0.3685 -0.1580
  218ccc     H7 5822   8.352   3.864   4.869  0.4042 -0.7177  1.1147
  218ccc     H8 5823   8.242   3.781   5.091  1.3438 -2.6866  2.1130
  218ccc     H9 5824   8.413   3.764   5.068  0.5969 -0.3669  1.0747
  218ccc     C6 5825   8.303   3.582   5.050 -0.3577  0.3672 -0.2719
  218ccc     O1 5826   8.184   3.528   5.014 -1.0916  0.2398  0.3254
  218ccc     O2 5827   8.397   3.516   5.092  0.8192  0.0668  0.2648
  218ccc    H10 5828   8.239   3.748   4.649 -0.9216  1.2364 -0.6104
  218ccc    H11 5829   8.053   3.739   4.652 -0.1212  0.4353  1.1263
  218ccc     C7 5830   8.152   3.555   4.690 -0.1090 -0.0845  0.1401
  218ccc    H12 5831   8.242   3.526   4.747 -0.5914 -0.3478  0.7718
  218ccc    H13 5832   8.183   3.526   4.588 -0.9888 -0.3788 -0.0469
  218ccc     C8 5833   8.030   3.488   4.737  0.2473 -0.0358  0.4817
  218ccc     O3 5834   7.926   3.541   4.767 -0.2279 -0.5685 -0.1970
  218ccc     O4 5835   8.024   3.358   4.704  0.1057  0.7072  0.5283
  218ccc    H14 5836   8.136   3.599   4.969 -0.6041 -1.6075 -3.5403
  218ccc    H15 5837   8.114   3.332   4.678  0.7429  0.5524  2.6729
  219ccc     N1 5838   7.313   3.928   4.434  0.5020  0.3362  0.2708
  219ccc     H1 5839   7.252   4.009   4.423 -0.4066  0.1723  3.1165
  219ccc     C1 5840   7.258   3.791   4.412  0.3301 -0.2000  0.0730
  219ccc     H2 5841   7.325   3.713   4.449  1.6072  1.6059  1.7956
  219ccc     C2 5842   7.229   3.759   4.266 -0.8765 -0.1848  0.2939
  219ccc     H3 5843   7.163   3.778   4.466  2.4689 -0.3590  4.1519
  219ccc     H4 5844   7.136   3.806   4.232  1.1307  2.1569 -2.4660
  219ccc     H5 5845   7.194   3.655   4.265 -0.8771 -0.2845  2.8650
  219ccc     N2 5846   7.344   3.777   4.170 -0.0925  0.0175 -0.7920
  219ccc     C3 5847   7.450   3.675   4.185 -0.1844  0.0172 -0.0597
  219ccc     C4 5848   7.326   3.828   4.033  0.3851 -0.3903  0.5326
  219ccc     H6 5849   7.423   3.837   3.981  0.5983 -0.4772  0.9083
  219ccc     C5 5850   7.269   3.969   4.027 -0.7181 -0.3088  0.2891
  219ccc     H7 5851   7.267   3.761   3.969  1.4112 -1.9544  1.1649
  219ccc     H8 5852   7.176   3.978   4.086  0.1717  1.7358  1.4838
  219ccc     H9 5853   7.250   3.992   3.922 -2.5717  0.4256  0.7221
  219ccc     C6 5854   7.354   4.078   4.101  0.7307  0.2059  1.0657
  219ccc     O1 5855   7.438   4.026   4.187 -0.2266  0.5659  0.5390
  219ccc     O2 5856   7.353   4.199   4.075 -0.1662  0.0478 -0.4794
  219ccc    H10 5857   7.472   3.662   4.292  0.7836 -0.9612 -0.3564
  219ccc    H11 5858   7.545   3.709   4.143 -0.5446 -0.1344 -1.0312
  219ccc     C7 5859   7.409   3.544   4.124 -0.1822 -0.3602 -0.1393
  219ccc    H12 5860   7.381   3.562   4.020  0.8926 -3.1478 -0.9897
  219ccc    H13 5861   7.318   3.506   4.173 -0.2892 -0.9010 -0.7407
  219ccc     C8 5862   7.522   3.436   4.134  0.2171  0.4266 -0.2053
  219ccc     O3 5863   7.619   3.436   4.057  0.1597 -0.0240 -0.6164
  219ccc     O4 5864   7.512   3.355   4.233 -0.3137 -0.2219 -0.0171
  219ccc    H14 5865   7.414   3.932   4.190  1.0932  0.0870 -1.6004
  219ccc    H15 5866   7.429   3.388   4.271 -0.1923 -0.2601  0.2829
  220ccc     N1 5867   7.552   4.118   3.320 -0.6300  0.1266 -0.3038
  220ccc     H1 5868   7.628   4.175   3.356 -1.3432 -0.0107  1.5020
  220ccc     C1 5869   7.510   4.139   3.179  0.3370  0.2288 -0.0884
  220ccc     H2 5870   7.401   4.148   3.186  0.4551  1.8374 -0.0065
  220ccc     C2 5871   7.550   4.024   3.076 -0.1321 -0.2895  0.4718
  220ccc     H3 5872   7.533   4.244   3.161 -1.4163  0.7821  0.7032
  220ccc     H4 5873   7.486   4.044   2.989 -0.6050 -1.6642  0.4807
  220ccc     H5 5874   7.513   3.926   3.107  0.3217 -0.1383  1.5617
  220ccc     N2 5875   7.697   4.010   3.038  0.6943  0.3447  0.5304
  220ccc     C3 5876   7.787   3.947   3.141  0.1688  0.9035 -0.0959
  220ccc     C4 5877   7.758   4.136   2.987  0.5213  0.0364 -0.5795
  220ccc     H6 5878   7.782   4.203   3.071  2.0529 -0.4148 -0.6229
  220ccc     C5 5879   7.673   4.210   2.884  0.5748 -0.4271 -0.5486
  220ccc     H7 5880   7.848   4.104   2.933  1.2777  0.9882  0.0732
  220ccc     H8 5881   7.575   4.235   2.928  0.2157 -1.3557 -0.7921
  220ccc     H9 5882   7.640   4.150   2.798  1.4193  0.8513 -1.8092
  220ccc     C6 5883   7.716   4.349   2.855  0.2264 -0.8697  0.0827
  220ccc     O1 5884   7.773   4.365   2.733  0.3296 -0.7065 -0.0170
  220ccc     O2 5885   7.725   4.436   2.939 -0.1816  0.2010 -0.0584
  220ccc    H10 5886   7.817   4.016   3.221 -0.3274  1.2666 -0.2183
  220ccc    H11 5887   7.884   3.919   3.099  0.3636 -0.1653  1.0085
  220ccc     C7 5888   7.727   3.820   3.209  0.1713  0.6577  0.3710
  220ccc    H12 5889   7.633   3.836   3.263  1.3488  1.2275  2.3575
  220ccc    H13 5890   7.799   3.789   3.286 -1.9879 -0.8228  1.9157
  220ccc     C8 5891   7.723   3.698   3.117 -0.5097 -0.6837 -0.6137
  220ccc     O3 5892   7.762   3.586   3.135 -0.6241 -0.2725  0.0923
  220ccc     O4 5893   7.650   3.731   3.006  0.8327 -0.3521 -0.0644
  220ccc    H14 5894   7.772   4.275   2.695 -0.0311 -0.6878 -0.0543
  220ccc    H15 5895   7.652   3.828   3.011 -0.6000 -0.3053  0.1014
  221ccc     N1 5896   7.881   3.613   3.945  0.0750  0.9502  0.0158
  221ccc     H1 5897   7.902   3.691   4.006  0.3337  0.6910  0.2593
  221ccc     C1 5898   7.967   3.498   3.950 -0.0664 -0.1920  0.2182
  221ccc     H2 5899   7.945   3.427   3.869  0.3322  0.2421 -0.2724
  221ccc     C2 5900   7.972   3.426   4.090  0.5681 -0.6169  0.1179
  221ccc     H3 5901   8.068   3.528   3.921 -0.9337  1.2369 -1.5087
  221ccc     H4 5902   8.056   3.356   4.080  2.0492  0.9619  1.0204
  221ccc     H5 5903   7.877   3.373   4.104 -1.3121  2.6500  0.7669
  221ccc     N2 5904   7.998   3.510   4.213 -0.1393 -0.2891  0.3588
  221ccc     C3 5905   7.984   3.444   4.348 -0.1866 -0.2220 -0.0146
  221ccc     C4 5906   8.132   3.574   4.194 -0.5347  0.1037 -0.1675
  221ccc     H6 5907   8.211   3.505   4.227  1.7252  1.6517 -1.9990
  221ccc     C5 5908   8.141   3.701   4.281  0.1494  0.4100  0.0128
  221ccc     H7 5909   8.164   3.612   4.096  4.2455  1.1082  1.4644
  221ccc     H8 5910   8.137   3.669   4.385 -2.0989  0.0432 -0.1369
  221ccc     H9 5911   8.049   3.760   4.271 -1.3678 -1.7528  0.3540
  221ccc     C6 5912   8.265   3.779   4.257  0.1718 -0.1366 -0.0157
  221ccc     O1 5913   8.292   3.872   4.351 -0.2674  0.4738 -0.1086
  221ccc     O2 5914   8.347   3.750   4.177  0.3730 -0.1486 -0.6658
  221ccc    H10 5915   8.032   3.497   4.431  0.7006 -2.2062  0.8101
  221ccc    H11 5916   8.037   3.348   4.350 -1.1913 -0.7887  0.1994
  221ccc     C7 5917   7.837   3.420   4.382  0.2054 -0.0421  0.1186
  221ccc    H12 5918   7.822   3.376   4.482  2.1179  1.1416  0.9708
  221ccc    H13 5919   7.785   3.363   4.304 -0.3702 -0.7887  1.0324
  221ccc     C8 5920   7.762   3.549   4.399 -0.0967  0.6422  1.2771
  221ccc     O3 5921   7.664   3.563   4.460 -0.0296  0.2075 -0.3211
  221ccc     O4 5922   7.776   3.630   4.299 -0.4756  0.1463 -0.5760
  221ccc    H14 5923   8.209   3.883   4.399 -0.6501  1.0026 -0.8846
  221ccc    H15 5924   7.861   3.603   4.259 -0.2348  0.3574 -0.2151
  222ccc     N1 5925  12.206   6.460   2.551 -0.9859 -0.1276 -0.0570
  222ccc     H1 5926  12.268   6.492   2.478 -0.2398 -0.4575  0.4262
  222ccc     C1 5927  12.250   6.488   2.688  0.2746 -0.2691 -0.1598
  222ccc     H2 5928  12.344   6.543   2.673 -0.6189  1.0165 -1.1948
  222ccc     C2 5929  12.264   6.358   2.774  0.3422  0.3278 -0.0593
  222ccc     H3 5930  12.171   6.552   2.729 -1.2827 -2.9399  1.3315
  222ccc     H4 5931  12.170   6.304   2.758  1.3586 -0.7726 -2.9987
  222ccc     H5 5932  12.265   6.399   2.876  0.0929  1.3403 -0.4474
  222ccc     N2 5933  12.373   6.258   2.748 -0.4305  0.3325 -0.2698
  222ccc     C3 5934  12.510   6.306   2.772  0.5728  0.0758  0.6496
  222ccc     C4 5935  12.346   6.124   2.806  0.5466  0.5205  0.5025
  222ccc     H6 5936  12.435   6.060   2.812  0.6786  0.7985  1.7749
  222ccc     C5 5937  12.242   6.047   2.721 -0.5671 -0.1836 -0.2596
  222ccc     H7 5938  12.306   6.130   2.908  0.1360 -0.0022  0.3777
  222ccc     H8 5939  12.143   6.094   2.719 -0.4715  0.1781  1.6429
  222ccc     H9 5940  12.232   5.950   2.772  4.0576 -0.4712  0.5074
  222ccc     C6 5941  12.297   6.010   2.584  0.0434  0.3356 -0.3980
  222ccc     O1 5942  12.309   6.123   2.519 -0.0707  0.5281  0.0907
  222ccc     O2 5943  12.314   5.898   2.541 -0.3242 -0.4124 -0.1244
  222ccc    H10 5944  12.532   6.334   2.876  0.8187 -0.0092  0.6207
  222ccc    H11 5945  12.516   6.400   2.716  1.1598 -1.4751 -2.0202
  222ccc     C7 5946  12.622   6.218   2.712 -0.2326 -0.0463  0.2208
  222ccc    H12 5947  12.606   6.211   2.604 -0.4867  0.8329  0.1896
  222ccc    H13 5948  12.631   6.118   2.755 -0.2563  0.2353  0.8899
  222ccc     C8 5949  12.768   6.272   2.729  0.1339 -0.7041 -0.5155
  222ccc     O3 5950  12.812   6.323   2.830 -0.3607 -0.5625  0.4215
  222ccc     O4 5951  12.842   6.248   2.621  0.6513  0.6966  0.0174
  222ccc    H14 5952  12.312   6.182   2.596  1.1643  1.3420 -0.5489
  222ccc    H15 5953  12.800   6.182   2.563  0.4441  0.9266 -0.0971
  223ccc     N1 5954  12.118   6.372   1.783 -0.0269  0.2395  0.5300
  223ccc     H1 5955  12.134   6.471   1.771 -2.8157  1.0725  2.6290
  223ccc     C1 5956  12.208   6.290   1.704  0.2419 -0.4743  0.1757
  223ccc     H2 5957  12.171   6.187   1.700  3.7805 -1.9284  1.4933
  223ccc     C2 5958  12.354   6.306   1.746 -0.3808  0.6548 -0.0783
  223ccc     H3 5959  12.194   6.327   1.602 -2.7968 -0.5672  0.4479
  223ccc     H4 5960  12.369   6.414   1.760 -1.0202  0.5921  1.2612
  223ccc     H5 5961  12.416   6.284   1.658 -0.2333  0.4149  0.0837
  223ccc     N2 5962  12.414   6.241   1.865  0.0497  0.1427 -0.3320
  223ccc     C3 5963  12.368   6.296   1.992 -0.7288  0.1508 -0.9824
  223ccc     C4 5964  12.394   6.095   1.855 -0.4934  0.0622  0.3162
  223ccc     H6 5965  12.430   6.040   1.943 -1.5252  0.3661  0.9380
  223ccc     C5 5966  12.470   6.030   1.734  0.6550  0.7280  0.2708
  223ccc     H7 5967  12.286   6.075   1.852 -0.3831 -1.0979  2.4275
  223ccc     H8 5968  12.576   6.022   1.758  1.0018 -3.4359 -1.6480
  223ccc     H9 5969  12.457   6.079   1.637  0.2457  1.8557  0.8846
  223ccc     C6 5970  12.442   5.885   1.717 -0.0255 -0.2608  0.3997
  223ccc     O1 5971  12.541   5.805   1.678 -0.4495 -0.4254 -0.2329
  223ccc     O2 5972  12.332   5.835   1.732 -0.1049 -0.3562  0.2114
  223ccc    H10 5973  12.260   6.288   2.008 -1.0597 -0.3794 -3.1270
  223ccc    H11 5974  12.381   6.405   1.988 -0.2589  0.0970 -0.9253
  223ccc     C7 5975  12.439   6.244   2.123  0.7910 -0.0043  0.1878
  223ccc    H12 5976  12.445   6.135   2.125  3.9595 -0.1242 -3.7354
  223ccc    H13 5977  12.389   6.277   2.215  1.0078 -0.0432  0.3198
  223ccc     C8 5978  12.586   6.282   2.130  0.4532 -0.2896  0.3603
  223ccc     O3 5979  12.638   6.316   2.237  0.0611  0.3897 -0.4689
  223ccc     O4 5980  12.646   6.273   2.011  0.5028 -0.3368  0.4172
  223ccc    H14 5981  12.609   5.862   1.638  0.6017 -1.1952  0.4139
  223ccc    H15 5982  12.576   6.255   1.945  0.8024 -0.2911  0.0862
  224ccc     N1 5983  10.942   7.288   2.155 -0.5071 -0.0791  0.2159
  224ccc     H1 5984  11.017   7.220   2.162 -2.5893 -2.3106  2.9153
  224ccc     C1 5985  10.885   7.331   2.034 -0.3620  0.6378  0.3245
  224ccc     H2 5986  10.893   7.440   2.024 -0.1197  0.4478 -2.1119
  224ccc     C2 5987  10.738   7.274   2.013 -0.1171 -0.5742  0.5206
  224ccc     H3 5988  10.946   7.289   1.954  1.0710  1.5889  0.8870
  224ccc     H4 5989  10.700   7.319   1.921  1.8510 -0.5684 -0.3354
  224ccc     H5 5990  10.677   7.310   2.096 -0.3573  0.1721  0.0268
  224ccc     N2 5991  10.712   7.125   2.008  0.2007  0.1438 -0.1380
  224ccc     C3 5992  10.794   7.038   1.931 -0.5394  0.2489  1.2246
  224ccc     C4 5993  10.570   7.085   2.002  0.8876  0.6760  0.0837
  224ccc     H6 5994  10.530   7.118   1.905  1.5630 -1.6339 -1.0705
  224ccc     C5 5995  10.479   7.128   2.117 -0.5227 -0.9287 -0.5918
  224ccc     H7 5996  10.557   6.976   2.001 -0.4758  0.8194 -0.8500
  224ccc     H8 5997  10.447   7.232   2.099  0.3285 -0.7442 -1.0566
  224ccc     H9 5998  10.548   7.126   2.202  1.1696  1.2866 -1.8151
  224ccc     C6 5999  10.362   7.033   2.128  0.2269  0.0161  0.0053
  224ccc     O1 6000  10.306   7.021   2.244 -0.6401 -0.1082 -0.2573
  224ccc     O2 6001  10.298   6.993   2.033 -0.0755 -0.3266  0.1558
  224ccc    H10 6002  10.761   6.937   1.955 -2.5926  0.7094  0.5548
  224ccc    H11 6003  10.893   7.055   1.974 -0.0507  0.8077 -0.0539
  224ccc     C7 6004  10.781   7.061   1.776 -0.1357  0.5721 -0.2479
  224ccc    H12 6005  10.790   7.169   1.756  0.2819  0.6106  0.1123
  224ccc    H13 6006  10.682   7.028   1.743  0.4243  0.4598 -1.9002
  224ccc     C8 6007  10.885   6.972   1.707 -0.3406  0.6104 -0.2680
  224ccc     O3 6008  10.905   6.851   1.737 -0.2620  0.2817  0.0007
  224ccc     O4 6009  10.946   7.032   1.605  0.3423 -0.3329  0.4634
  224ccc    H14 6010  10.356   7.084   2.299  0.0490 -0.0652 -0.9284
  224ccc    H15 6011  10.913   7.121   1.628 -0.8908 -1.2755  2.6943
  225ccc     N1 6012  11.368   7.320   2.776 -0.2530 -0.4055  0.2654
  225ccc     H1 6013  11.367   7.233   2.724 -1.1173 -0.8879  1.0555
  225ccc     C1 6014  11.492   7.359   2.846  0.1698 -0.2137 -0.0898
  225ccc     H2 6015  11.575   7.321   2.786  0.1152 -0.0601 -0.2673
  225ccc     C2 6016  11.491   7.307   2.991 -0.7852  0.0662 -0.1580
  225ccc     H3 6017  11.496   7.469   2.854  1.4584 -0.1409 -1.2847
  225ccc     H4 6018  11.397   7.346   3.032 -2.2241 -0.3457 -2.8100
  225ccc     H5 6019  11.585   7.344   3.034  0.4646 -4.1668  1.1615
  225ccc     N2 6020  11.493   7.153   3.013 -0.2165 -0.3360 -0.1552
  225ccc     C3 6021  11.443   7.123   3.153 -0.7333 -0.0722  0.1243
  225ccc     C4 6022  11.614   7.084   2.970  0.3335 -0.0808  0.4489
  225ccc     H6 6023  11.637   7.111   2.867 -0.6078 -1.3159 -0.1226
  225ccc     C5 6024  11.600   6.933   2.959  0.0668  0.4834 -0.2549
  225ccc     H7 6025  11.704   7.117   3.023  0.7092  0.5968 -0.6042
  225ccc     H8 6026  11.523   6.893   2.892  0.4992 -0.4137 -0.2411
  225ccc     H9 6027  11.585   6.888   3.058  0.0004  0.5628 -0.2294
  225ccc     C6 6028  11.730   6.869   2.920 -0.1426 -0.6290  0.5857
  225ccc     O1 6029  11.742   6.739   2.928 -0.0116  0.0611 -0.2702
  225ccc     O2 6030  11.834   6.930   2.890  0.4892 -0.4336  0.6335
  225ccc    H10 6031  11.461   7.199   3.230 -2.4316  1.0324 -0.5112
  225ccc    H11 6032  11.483   7.025   3.181  2.4649  1.0791 -0.0661
  225ccc     C7 6033  11.294   7.116   3.145 -0.5892  0.3016  0.1460
  225ccc    H12 6034  11.248   7.208   3.109 -0.3416  0.8322  1.1450
  225ccc    H13 6035  11.248   7.098   3.243  0.7126 -3.6891  0.2359
  225ccc     C8 6036  11.235   7.014   3.056 -0.2633  0.4791  0.8377
  225ccc     O3 6037  11.137   6.951   3.095  0.5548  0.5535 -0.0109
  225ccc     O4 6038  11.289   7.005   2.935  0.3679  0.6919  0.3072
  225ccc    H14 6039  11.660   6.700   2.962 -0.2826 -0.1375 -1.1079
  225ccc    H15 6040  11.369   7.061   2.943  1.9473 -1.6272  2.1945
  226ccc     N1 6041  12.346   5.921   4.360 -0.0234  0.4335  0.0787
  226ccc     H1 6042  12.262   5.959   4.402 -1.0694 -0.3101 -1.2475
  226ccc     C1 6043  12.368   5.781   4.367 -0.2995  0.0263  0.1223
  226ccc     H2 6044  12.344   5.739   4.269 -0.1268 -1.7400  0.8006
  226ccc     C2 6045  12.286   5.711   4.479 -0.4408 -0.1373  0.2384
  226ccc     H3 6046  12.476   5.769   4.378 -0.2096 -1.2242 -1.6317
  226ccc     H4 6047  12.307   5.604   4.478 -1.0300 -0.2543 -0.5488
  226ccc     H5 6048  12.184   5.733   4.445 -0.6142 -1.0956  0.1324
  226ccc     N2 6049  12.283   5.745   4.628  0.0383 -0.6180 -0.1706
  226ccc     C3 6050  12.180   5.667   4.701 -0.6104  0.2678 -0.0904
  226ccc     C4 6051  12.415   5.748   4.695  0.3391  0.0320 -0.1193
  226ccc     H6 6052  12.390   5.738   4.801 -4.3132 -1.1608 -1.1100
  226ccc     C5 6053  12.497   5.879   4.670  0.1119  0.1523 -0.1559
  226ccc     H7 6054  12.472   5.656   4.678  0.2643 -0.2034  0.8767
  226ccc     H8 6055  12.545   5.882   4.572 -0.4116 -0.8441 -0.4635
  226ccc     H9 6056  12.582   5.874   4.739 -0.6013  1.8572  0.9120
  226ccc     C6 6057  12.436   6.009   4.704  0.0424  0.5355 -0.2333
  226ccc     O1 6058  12.308   6.012   4.694  0.2310  0.1494 -0.2205
  226ccc     O2 6059  12.492   6.116   4.698  0.8561 -0.1004  0.2661
  226ccc    H10 6060  12.188   5.688   4.808  1.2213  2.8935 -0.6247
  226ccc    H11 6061  12.192   5.559   4.687  1.5278  0.5255 -0.5012
  226ccc     C7 6062  12.041   5.712   4.657 -0.8162  0.0908 -0.5110
  226ccc    H12 6063  12.027   5.672   4.556  1.1717 -1.8273 -0.1058
  226ccc    H13 6064  12.038   5.821   4.661  1.7635  0.2472 -1.2693
  226ccc     C8 6065  11.934   5.659   4.750  0.4096  0.1613 -0.4832
  226ccc     O3 6066  11.946   5.593   4.854  0.5021 -0.2778  0.2020
  226ccc     O4 6067  11.809   5.708   4.729  0.6168 -0.1183  0.0148
  226ccc    H14 6068  12.290   5.920   4.668 -2.5907  0.6564 -0.3473
  226ccc    H15 6069  11.813   5.760   4.646 -1.7431  2.3982  1.2796
  227ccc     N1 6070  12.317   6.460   4.819 -0.1598 -0.8334 -0.3971
  227ccc     H1 6071  12.225   6.422   4.799 -0.3616 -0.6056  0.0891
  227ccc     C1 6072  12.356   6.542   4.934  0.1230 -0.4206 -0.4984
  227ccc     H2 6073  12.380   6.643   4.899 -0.7170  0.5557  1.6194
  227ccc     C2 6074  12.471   6.472   5.005  0.2080 -0.0793 -0.2016
  227ccc     H3 6075  12.269   6.559   4.999  0.0018  0.0844 -0.7907
  227ccc     H4 6076  12.511   6.545   5.077  0.4258  0.2195 -0.6156
  227ccc     H5 6077  12.552   6.462   4.931 -2.0098  0.0859 -2.8159
  227ccc     N2 6078  12.443   6.340   5.071 -0.0213 -0.2989  0.0765
  227ccc     C3 6079  12.344   6.336   5.180 -0.2906 -0.2168 -0.6787
  227ccc     C4 6080  12.422   6.214   4.987 -0.2649  0.1022  0.3849
  227ccc     H6 6081  12.320   6.191   4.953 -0.0443  1.4185 -1.2701
  227ccc     C5 6082  12.502   6.099   5.057  0.1251 -0.2114  0.7189
  227ccc     H7 6083  12.464   6.247   4.892 -1.6052  0.3539 -0.1477
  227ccc     H8 6084  12.467   6.005   5.013  1.4984 -1.7591  2.7571
  227ccc     H9 6085  12.476   6.098   5.164  0.3690 -1.6253  0.7818
  227ccc     C6 6086  12.649   6.112   5.038  0.1875  0.2384  0.2328
  227ccc     O1 6087  12.694   6.226   5.088 -0.3382 -0.0980 -0.2578
  227ccc     O2 6088  12.724   6.021   4.994  0.0477 -0.0349  0.0196
  227ccc    H10 6089  12.353   6.251   5.249  0.1022  1.2546  1.1800
  227ccc    H11 6090  12.241   6.328   5.143 -0.0485 -1.1072 -1.2032
  227ccc     C7 6091  12.358   6.451   5.271 -0.2070 -0.1695 -0.8632
  227ccc    H12 6092  12.353   6.549   5.222 -0.6043 -0.4243 -1.3554
  227ccc    H13 6093  12.460   6.449   5.311 -0.4921  0.3284 -0.0887
  227ccc     C8 6094  12.240   6.447   5.367  0.0936  0.0000  0.8188
  227ccc     O3 6095  12.132   6.493   5.343 -0.4256 -0.8771  0.1156
  227ccc     O4 6096  12.266   6.401   5.487  0.1639 -0.2223 -0.0052
  227ccc    H14 6097  12.609   6.274   5.096 -1.7273 -2.6349  2.7194
  227ccc    H15 6098  12.355   6.362   5.481  0.0790 -0.2360 -1.4734
  228ccc     N1 6099  11.365   7.025   3.629  0.1460  0.5415  0.2076
  228ccc     H1 6100  11.415   6.937   3.623  1.0003  1.0535 -0.5221
  228ccc     C1 6101  11.263   7.042   3.526 -0.6935 -0.9297  0.0767
  228ccc     H2 6102  11.245   7.148   3.504  1.6413 -0.4203  0.4007
  228ccc     C2 6103  11.131   6.987   3.578  0.5145  0.2660 -0.2305
  228ccc     H3 6104  11.301   6.999   3.433  1.9914 -0.8065  1.0547
  228ccc     H4 6105  11.124   6.993   3.687  0.5390 -0.7694 -0.1631
  228ccc     H5 6106  11.133   6.883   3.544 -0.7638  0.6070 -1.4616
  228ccc     N2 6107  11.001   7.041   3.510 -0.3440 -0.5184 -0.2569
  228ccc     C3 6108  10.971   6.988   3.377  0.2272 -0.4209 -0.4880
  228ccc     C4 6109  10.885   7.053   3.603 -0.2274  0.6944 -0.3186
  228ccc     H6 6110  10.790   7.043   3.551  0.2688 -1.1639 -0.9550
  228ccc     C5 6111  10.880   7.175   3.690 -0.2517 -0.0993 -0.2776
  228ccc     H7 6112  10.890   6.968   3.673 -1.4247 -0.0175 -1.0594
  228ccc     H8 6113  10.975   7.183   3.744  0.0170 -0.2989 -0.7238
  228ccc     H9 6114  10.808   7.158   3.771  1.4821  0.9994  1.5950
  228ccc     C6 6115  10.868   7.308   3.615 -0.0227  0.2612 -0.4030
  228ccc     O1 6116  10.989   7.349   3.574  0.2963 -0.1766 -0.1009
  228ccc     O2 6117  10.768   7.374   3.607 -0.1133  0.0019 -0.3462
  228ccc    H10 6118  10.902   6.903   3.378 -1.2221  0.7053  0.6268
  228ccc    H11 6119  11.065   6.952   3.334  2.3161  1.3423  2.2161
  228ccc     C7 6120  10.919   7.105   3.288 -0.2157 -0.1164 -0.0456
  228ccc    H12 6121  11.010   7.158   3.257  0.9429 -2.0613 -0.1668
  228ccc    H13 6122  10.850   7.172   3.340 -0.3053 -1.0070  1.0037
  228ccc     C8 6123  10.852   7.056   3.163  0.4350 -0.1485  0.6599
  228ccc     O3 6124  10.835   6.937   3.125 -0.0510 -0.1993 -0.3049
  228ccc     O4 6125  10.802   7.160   3.099  0.3268 -0.4540  0.0680
  228ccc    H14 6126  11.042   7.273   3.605 -0.7636 -0.8623  0.1195
  228ccc    H15 6127  10.826   7.239   3.150 -0.0869 -0.1774 -0.1592
  229ccc     N1 6128  11.971   7.360   3.940 -0.4742  0.3489  0.5855
  229ccc     H1 6129  11.916   7.398   3.865 -1.0864 -1.4482  0.0637
  229ccc     C1 6130  12.115   7.361   3.910  0.4357 -0.8605 -0.4453
  229ccc     H2 6131  12.134   7.451   3.850  2.1455 -0.6965  0.2667
  229ccc     C2 6132  12.174   7.239   3.842 -0.1509  0.4783  0.2026
  229ccc     H3 6133  12.172   7.379   4.002  1.5407  0.2625 -1.3155
  229ccc     H4 6134  12.170   7.157   3.915  2.0187  0.9907  0.9839
  229ccc     H5 6135  12.281   7.242   3.820 -0.6145 -1.6080 -3.0699
  229ccc     N2 6136  12.117   7.206   3.707  0.1224 -0.3448 -0.2321
  229ccc     C3 6137  11.997   7.118   3.703 -0.1097  0.1469  0.1673
  229ccc     C4 6138  12.111   7.316   3.610 -0.1953 -0.1832 -0.1756
  229ccc     H6 6139  12.049   7.290   3.524 -0.4988 -0.9067  0.2554
  229ccc     C5 6140  12.252   7.354   3.566  1.0339 -0.4168 -0.1340
  229ccc     H7 6141  12.048   7.398   3.647  0.9050 -0.0562  1.5561
  229ccc     H8 6142  12.305   7.397   3.652 -0.9200  0.4075  0.7128
  229ccc     H9 6143  12.233   7.436   3.495 -1.6132 -1.1949 -0.4299
  229ccc     C6 6144  12.324   7.246   3.488  0.4687  0.1613 -0.4084
  229ccc     O1 6145  12.284   7.121   3.515 -0.6131  0.3694 -0.2878
  229ccc     O2 6146  12.405   7.277   3.405 -0.3763  0.3532  0.1520
  229ccc    H10 6147  11.938   7.134   3.611 -0.6711  1.7014  0.7659
  229ccc    H11 6148  11.922   7.149   3.776 -1.5232  2.0689 -1.9554
  229ccc     C7 6149  12.029   6.971   3.710  0.2527  0.0005 -0.1904
  229ccc    H12 6150  12.074   6.958   3.810  1.4479  2.6816 -0.2759
  229ccc    H13 6151  12.113   6.959   3.641  0.2015  2.6222 -0.8077
  229ccc     C8 6152  11.915   6.878   3.678 -0.0646 -0.0003 -0.4525
  229ccc     O3 6153  11.798   6.919   3.676 -0.4686 -0.3811  0.0742
  229ccc     O4 6154  11.936   6.753   3.639  0.4260 -1.1244 -0.1962
  229ccc    H14 6155  12.215   7.146   3.579  0.4182 -0.5140  1.2349
  229ccc    H15 6156  12.030   6.734   3.658  1.0997 -0.0285 -2.1076
  230ccc     N1 6157   8.624   5.955   2.545 -0.3519  0.3678 -0.1260
  230ccc     H1 6158   8.684   5.899   2.605  1.2801  0.9154 -1.2013
  230ccc     C1 6159   8.484   5.958   2.574  0.4258  0.0317  0.1293
  230ccc     H2 6160   8.462   6.040   2.644  1.2019  2.1699 -1.9816
  230ccc     C2 6161   8.424   5.817   2.618  0.4605 -0.6330 -0.2073
  230ccc     H3 6162   8.432   5.975   2.479 -1.6674  1.0278  1.3828
  230ccc     H4 6163   8.318   5.841   2.631  0.5283  1.1119 -2.2534
  230ccc     H5 6164   8.467   5.800   2.717 -0.9380  1.5477  0.8397
  230ccc     N2 6165   8.457   5.707   2.524  0.1644 -0.0589  0.0099
  230ccc     C3 6166   8.406   5.713   2.387 -0.3655 -0.1636 -0.0030
  230ccc     C4 6167   8.429   5.572   2.582  0.4007  0.5281  0.4847
  230ccc     H6 6168   8.460   5.491   2.515 -1.7414 -0.0342  0.1133
  230ccc     C5 6169   8.285   5.543   2.616 -0.2525 -0.8870  0.1785
  230ccc     H7 6170   8.477   5.566   2.681 -0.3310 -0.9736  0.7815
  230ccc     H8 6171   8.286   5.435   2.636  1.7781 -1.0717 -0.7180
  230ccc     H9 6172   8.216   5.557   2.533  1.0280  0.1952 -0.7416
  230ccc     C6 6173   8.245   5.594   2.760  0.3578  0.1971  0.4246
  230ccc     O1 6174   8.118   5.648   2.755  0.5729 -0.2020  0.2833
  230ccc     O2 6175   8.295   5.550   2.864 -0.5891 -0.0005 -0.0449
  230ccc    H10 6176   8.436   5.809   2.342  1.9119 -0.3021  1.0819
  230ccc    H11 6177   8.297   5.714   2.388 -0.3874 -1.2074  0.9937
  230ccc     C7 6178   8.457   5.604   2.299 -0.4608  1.0419  0.6641
  230ccc    H12 6179   8.404   5.509   2.317  1.9755 -0.4418  0.5207
  230ccc    H13 6180   8.563   5.586   2.320 -0.2691  0.0784 -0.9072
  230ccc     C8 6181   8.439   5.633   2.149 -0.1949  0.1625 -0.5426
  230ccc     O3 6182   8.537   5.639   2.074  0.2004  0.5736 -0.0131
  230ccc     O4 6183   8.326   5.593   2.103 -0.1196  0.2147 -0.1051
  230ccc    H14 6184   8.126   5.685   2.665 -1.7102 -0.2661 -0.0004
  230ccc    H15 6185   8.283   5.575   2.188  0.6111  0.8225  0.4155
  231ccc     N1 6186   9.150   5.823   2.090  0.4405 -0.2805 -0.2464
  231ccc     H1 6187   9.055   5.854   2.108  1.0640  0.1517  2.9330
  231ccc     C1 6188   9.217   5.806   1.961  0.0830  0.6642 -0.6486
  231ccc     H2 6189   9.302   5.875   1.954 -0.2024  0.9896 -0.9240
  231ccc     C2 6190   9.128   5.821   1.841  0.2606 -0.2952  0.0720
  231ccc     H3 6191   9.264   5.706   1.955  0.2584  0.5702  1.5372
  231ccc     H4 6192   9.187   5.831   1.749 -0.8865  3.5898 -0.4179
  231ccc     H5 6193   9.072   5.915   1.851 -0.4524 -0.7681  0.6456
  231ccc     N2 6194   9.019   5.723   1.819 -0.2133  0.0268 -0.3333
  231ccc     C3 6195   8.910   5.760   1.730 -0.0942  0.3024 -0.1894
  231ccc     C4 6196   9.070   5.582   1.818  0.0742 -0.5962  0.9830
  231ccc     H6 6197   9.125   5.576   1.723 -0.6882  1.1172  0.3868
  231ccc     C5 6198   8.963   5.477   1.840  0.1391 -0.2669  0.6274
  231ccc     H7 6199   9.140   5.565   1.901  1.4028 -1.5443 -0.2966
  231ccc     H8 6200   8.902   5.471   1.749  2.2095  2.2442 -1.0574
  231ccc     H9 6201   8.891   5.509   1.916  0.0295  0.5097  0.2060
  231ccc     C6 6202   9.040   5.351   1.873  0.0805 -0.3634  0.0516
  231ccc     O1 6203   8.970   5.244   1.917  0.4790 -0.5706  0.1404
  231ccc     O2 6204   9.162   5.339   1.877  0.1378  0.0570 -0.1834
  231ccc    H10 6205   8.867   5.855   1.764  1.8588  1.1462  0.0518
  231ccc    H11 6206   8.826   5.689   1.738 -1.4287  1.7244 -1.0484
  231ccc     C7 6207   8.967   5.772   1.589 -0.5058  0.1812  0.0805
  231ccc    H12 6208   8.986   5.672   1.548  2.5064  0.2519  1.0735
  231ccc    H13 6209   9.064   5.820   1.577  0.2387 -1.3667 -0.3662
  231ccc     C8 6210   8.871   5.837   1.503  0.5726  0.0080 -0.0621
  231ccc     O3 6211   8.786   5.778   1.440  0.5940 -0.0474 -0.0271
  231ccc     O4 6212   8.894   5.972   1.488  0.0101 -0.0734 -0.1150
  231ccc    H14 6213   8.875   5.265   1.914  0.7231  0.7694  1.0514
  231ccc    H15 6214   8.984   5.993   1.517  0.3898 -0.5901 -0.9017
  232ccc     N1 6215   9.107   7.340   2.588  1.1013  0.2918 -0.0250
  232ccc     H1 6216   9.025   7.305   2.637  1.0325  0.6454  0.1117
  232ccc     C1 6217   9.111   7.478   2.537  0.1208 -0.3423 -0.3463
  232ccc     H2 6218   9.184   7.534   2.597  1.1331 -1.5438 -0.4122
  232ccc     C2 6219   8.967   7.535   2.545  0.3746  0.9638  0.0684
  232ccc     H3 6220   9.147   7.482   2.434 -0.1011  1.8908 -0.3673
  232ccc     H4 6221   8.917   7.505   2.638 -1.3526  1.0506 -0.7909
  232ccc     H5 6222   8.910   7.480   2.469  1.4203  0.1456 -0.1494
  232ccc     N2 6223   8.962   7.682   2.532  0.0356  0.1699  0.6031
  232ccc     C3 6224   9.032   7.772   2.634  0.6619  0.4343  0.2017
  232ccc     C4 6225   8.978   7.732   2.393 -0.3055  0.4697 -1.0666
  232ccc     H6 6226   8.965   7.841   2.398  1.8101  0.7478 -0.8654
  232ccc     C5 6227   8.879   7.668   2.288  0.3784  0.1688  0.3121
  232ccc     H7 6228   9.079   7.710   2.358  1.0149  0.4425  2.3475
  232ccc     H8 6229   8.773   7.676   2.313  0.2478  1.3364 -0.5414
  232ccc     H9 6230   8.906   7.561   2.287  1.4801  0.4250  0.6960
  232ccc     C6 6231   8.898   7.724   2.150  0.1726 -0.3859  0.6880
  232ccc     O1 6232   8.799   7.794   2.103  1.1050 -0.2465 -0.8732
  232ccc     O2 6233   9.011   7.717   2.100  0.3376  0.5044 -0.2509
  232ccc    H10 6234   8.992   7.872   2.614 -0.0353 -0.1737 -1.7239
  232ccc    H11 6235   9.139   7.774   2.612  0.3674 -1.3593 -1.8321
  232ccc     C7 6236   8.988   7.725   2.771  0.0856  0.0965  0.0003
  232ccc    H12 6237   9.041   7.779   2.850 -2.2094  0.1996  1.5905
  232ccc    H13 6238   9.019   7.620   2.783  1.3145  0.4052 -0.3911
  232ccc     C8 6239   8.846   7.744   2.817 -0.6801 -0.0640  0.1488
  232ccc     O3 6240   8.804   7.802   2.912  0.0431 -0.3452 -0.4862
  232ccc     O4 6241   8.766   7.695   2.721 -1.0966 -0.1493  0.6186
  232ccc    H14 6242   8.730   7.797   2.171  0.0591 -3.1696 -1.6602
  232ccc    H15 6243   8.839   7.686   2.657 -0.2579  2.0957  1.1542
  233ccc     N1 6244   9.019   6.629   2.475  0.2516 -0.5139 -0.1803
  233ccc     H1 6245   8.956   6.705   2.496  0.3522 -0.4695 -0.0443
  233ccc     C1 6246   8.984   6.524   2.382  0.3001 -0.0548 -0.7088
  233ccc     H2 6247   8.984   6.424   2.426 -0.6772  0.3498  0.2515
  233ccc     C2 6248   9.064   6.549   2.251 -0.0275  0.7275 -0.5329
  233ccc     H3 6249   8.878   6.544   2.362 -0.7068 -2.8422  1.3502
  233ccc     H4 6250   9.172   6.546   2.269 -0.3365 -1.3094  1.2775
  233ccc     H5 6251   9.036   6.653   2.228 -1.2412  0.5896  0.2457
  233ccc     N2 6252   9.044   6.459   2.136  0.3508  0.5326  0.2952
  233ccc     C3 6253   8.903   6.444   2.096 -0.2736 -0.2598 -0.0089
  233ccc     C4 6254   9.096   6.325   2.167  0.1719  0.0551  0.4119
  233ccc     H6 6255   9.073   6.293   2.270 -1.4638 -1.6054 -0.4079
  233ccc     C5 6256   9.245   6.329   2.127  0.0828 -0.0582 -0.0873
  233ccc     H7 6257   9.049   6.251   2.101  2.3014  0.0089 -1.1227
  233ccc     H8 6258   9.310   6.363   2.209 -0.0659  0.8864 -0.3580
  233ccc     H9 6259   9.265   6.406   2.052  0.3935 -1.3242 -1.3388
  233ccc     C6 6260   9.286   6.196   2.067 -0.6657  0.0511 -0.1842
  233ccc     O1 6261   9.406   6.152   2.109  0.9095  0.3631 -0.3887
  233ccc     O2 6262   9.233   6.147   1.968  0.2396 -0.3951 -0.4121
  233ccc    H10 6263   8.848   6.394   2.177  1.7580  2.1852  3.1233
  233ccc    H11 6264   8.900   6.382   2.005 -1.1941  0.3019 -0.3754
  233ccc     C7 6265   8.851   6.584   2.057  0.7921  0.0980 -0.3801
  233ccc    H12 6266   8.917   6.617   1.976  2.3797  2.1482  1.6219
  233ccc    H13 6267   8.861   6.665   2.130 -0.3620  0.0429 -0.1447
  233ccc     C8 6268   8.693   6.583   2.026 -0.2157 -0.4830 -0.3109
  233ccc     O3 6269   8.608   6.627   2.105  0.0490 -0.4483  0.3186
  233ccc     O4 6270   8.675   6.568   1.896 -0.3816  0.2268  0.1473
  233ccc    H14 6271   9.424   6.201   2.191 -0.7292 -0.2714  0.4044
  233ccc    H15 6272   8.762   6.543   1.861 -1.0623 -1.9287 -0.1402
  234ccc     N1 6273  11.680   7.084   2.082 -0.6973  0.2982  0.3150
  234ccc     H1 6274  11.621   7.010   2.119  0.9817 -0.7548  1.0182
  234ccc     C1 6275  11.769   7.149   2.178  0.3791  0.6604 -0.1333
  234ccc     H2 6276  11.765   7.089   2.270 -2.5300  4.1395  2.2704
  234ccc     C2 6277  11.721   7.292   2.209 -0.1593  0.0437  0.2170
  234ccc     H3 6278  11.872   7.145   2.143  0.3127  0.7202 -0.3382
  234ccc     H4 6279  11.747   7.356   2.124 -1.4792  2.5623  1.5872
  234ccc     H5 6280  11.774   7.335   2.295  1.3409  0.6778 -0.9868
  234ccc     N2 6281  11.578   7.319   2.242 -0.1958  0.4204 -0.4188
  234ccc     C3 6282  11.556   7.461   2.262 -0.3817  0.0766  0.5647
  234ccc     C4 6283  11.528   7.239   2.362 -1.1452 -0.1390 -0.2607
  234ccc     H6 6284  11.593   7.152   2.373 -1.0355 -0.0014  0.2233
  234ccc     C5 6285  11.385   7.190   2.339 -0.4269  0.4749 -0.3251
  234ccc     H7 6286  11.533   7.299   2.454 -1.7313 -2.1225  1.1229
  234ccc     H8 6287  11.368   7.128   2.250 -2.2635  1.5790 -0.7864
  234ccc     H9 6288  11.324   7.279   2.322  1.1806  1.5015 -0.9004
  234ccc     C6 6289  11.327   7.117   2.458  0.0508 -0.2769 -0.5222
  234ccc     O1 6290  11.207   7.054   2.448 -0.2361 -0.0778  0.3146
  234ccc     O2 6291  11.393   7.119   2.563  0.1704  0.3605 -0.2475
  234ccc    H10 6292  11.627   7.507   2.331  1.7354 -2.5468  0.3260
  234ccc    H11 6293  11.451   7.473   2.291 -0.2591 -0.6863  1.3667
  234ccc     C7 6294  11.574   7.538   2.130 -0.0556  0.5581 -0.4838
  234ccc    H12 6295  11.678   7.535   2.094 -0.5494  0.7208 -2.0016
  234ccc    H13 6296  11.548   7.644   2.139  0.6650  0.5909  1.7840
  234ccc     C8 6297  11.496   7.483   2.006 -0.1868 -0.0910 -0.3696
  234ccc     O3 6298  11.484   7.541   1.901 -0.4397  0.1265 -0.3322
  234ccc     O4 6299  11.415   7.375   2.037 -0.1628 -0.6658 -0.0917
  234ccc    H14 6300  11.194   7.066   2.352  3.6984 -0.6928 -0.4692
  234ccc    H15 6301  11.449   7.356   2.126 -0.0600  2.5190  0.6611
  235ccc     N1 6302  11.394   6.590   1.558 -0.1032  0.2522  0.0584
  235ccc     H1 6303  11.361   6.560   1.649 -0.6289 -1.9248 -0.7864
  235ccc     C1 6304  11.451   6.487   1.479  0.9797  0.3416  0.5264
  235ccc     H2 6305  11.401   6.395   1.512  2.1416  0.3424  2.4457
  235ccc     C2 6306  11.606   6.476   1.489 -0.1726 -0.8115 -0.7513
  235ccc     H3 6307  11.424   6.517   1.377  1.7464  2.0366  0.7935
  235ccc     H4 6308  11.639   6.576   1.457  1.9199 -1.1226  0.2177
  235ccc     H5 6309  11.642   6.416   1.405 -0.4076 -1.6585 -0.2491
  235ccc     N2 6310  11.667   6.432   1.624  0.3755  0.3637 -0.1626
  235ccc     C3 6311  11.658   6.285   1.642  0.0342 -0.2994 -0.5199
  235ccc     C4 6312  11.640   6.501   1.755 -0.3816  0.1708 -0.6783
  235ccc     H6 6313  11.538   6.472   1.783  0.4260 -4.0060 -1.5075
  235ccc     C5 6314  11.680   6.655   1.754 -0.2760  0.3762  0.2175
  235ccc     H7 6315  11.701   6.468   1.840  1.4972  1.6369 -1.3753
  235ccc     H8 6316  11.630   6.695   1.843 -2.2512  0.6572 -0.9533
  235ccc     H9 6317  11.644   6.703   1.662  0.2031 -0.9467 -0.6962
  235ccc     C6 6318  11.828   6.680   1.758 -0.6571 -0.2521  0.1582
  235ccc     O1 6319  11.888   6.618   1.653  0.2122  0.7490  0.3903
  235ccc     O2 6320  11.876   6.776   1.812  0.2861  0.3947  0.4810
  235ccc    H10 6321  11.669   6.228   1.549  2.4907 -0.2147 -0.3511
  235ccc    H11 6322  11.562   6.263   1.690  0.3418  0.1821  0.3380
  235ccc     C7 6323  11.769   6.223   1.729 -0.1267  0.4038  0.0707
  235ccc    H12 6324  11.779   6.275   1.824  1.7872 -0.0342  0.1655
  235ccc    H13 6325  11.868   6.225   1.680 -0.6223  0.5380 -0.9446
  235ccc     C8 6326  11.752   6.077   1.760 -0.2879 -0.7294  0.2902
  235ccc     O3 6327  11.646   6.020   1.747  0.3129 -0.0603 -0.3611
  235ccc     O4 6328  11.853   6.033   1.836 -0.5306  0.3669  0.2172
  235ccc    H14 6329  11.813   6.571   1.612  1.5096  0.9371 -2.4068
  235ccc    H15 6330  11.902   6.115   1.852 -0.3849  0.6384 -1.4100
  236ccc     N1 6331  10.101   6.892   1.816  0.9301 -0.2097  0.4910
  236ccc     H1 6332  10.188   6.931   1.783  0.3301 -0.2753 -1.2623
  236ccc     C1 6333   9.993   6.979   1.846  0.4236  0.1213 -0.2733
  236ccc     H2 6334   9.915   6.929   1.787 -0.2563 -2.0006  2.2333
  236ccc     C2 6335  10.014   7.127   1.809  0.7323 -0.2177 -0.1693
  236ccc     H3 6336   9.956   6.970   1.949  1.0108 -1.6819 -0.1836
  236ccc     H4 6337  10.085   7.158   1.886 -1.3741  0.2800  1.6449
  236ccc     H5 6338   9.925   7.187   1.829  0.8661  0.0872 -0.4905
  236ccc     N2 6339  10.070   7.153   1.677  0.5284 -0.1384 -0.2319
  236ccc     C3 6340   9.970   7.205   1.576 -0.0719 -0.6249 -0.0821
  236ccc     C4 6341  10.183   7.245   1.676 -0.0886 -0.3646  0.4752
  236ccc     H6 6342  10.216   7.267   1.574  0.1357 -2.3838  0.0643
  236ccc     C5 6343  10.311   7.178   1.738 -0.0900 -0.5874  0.0365
  236ccc     H7 6344  10.156   7.333   1.735 -1.1886 -0.8522  0.7296
  236ccc     H8 6345  10.294   7.129   1.835 -0.9276 -1.3075 -0.4597
  236ccc     H9 6346  10.382   7.258   1.759 -1.4903  0.9542 -0.8761
  236ccc     C6 6347  10.377   7.077   1.645 -0.5824  0.0655 -0.5644
  236ccc     O1 6348  10.450   7.138   1.547  0.7400  0.2205  0.4590
  236ccc     O2 6349  10.348   6.961   1.646  0.2756 -0.0227  0.7839
  236ccc    H10 6350  10.018   7.222   1.479 -2.0405 -2.2370 -1.4285
  236ccc    H11 6351   9.925   7.297   1.614 -0.9232 -1.2358  0.4237
  236ccc     C7 6352   9.864   7.098   1.555  0.0773  0.4971  0.4259
  236ccc    H12 6353   9.814   7.065   1.646 -0.7292  2.7661  0.8793
  236ccc    H13 6354   9.916   7.008   1.518 -0.0571 -0.4001  2.3060
  236ccc     C8 6355   9.766   7.154   1.454 -0.4349  0.1698 -0.1339
  236ccc     O3 6356   9.688   7.242   1.483 -0.5074 -0.7048  0.3760
  236ccc     O4 6357   9.775   7.099   1.330  0.2103  0.0126 -0.3816
  236ccc    H14 6358  10.471   7.228   1.577 -0.5742  1.2086 -1.3682
  236ccc    H15 6359   9.842   7.029   1.322 -0.5886 -0.7446 -0.6805
  237ccc     N1 6360  10.266   6.140   1.719 -0.4581  0.8793 -0.7524
  237ccc     H1 6361  10.182   6.161   1.771 -1.5655 -1.8148 -1.2889
  237ccc     C1 6362  10.262   6.017   1.635  0.6054  0.1600 -0.6873
  237ccc     H2 6363  10.278   6.042   1.530  1.0943  0.1276 -0.6237
  237ccc     C2 6364  10.134   5.937   1.643  0.3928  0.1711  0.0202
  237ccc     H3 6365  10.351   5.955   1.655  1.4658  1.8935  1.2535
  237ccc     H4 6366  10.135   5.871   1.730 -0.7901 -0.1821 -0.2157
  237ccc     H5 6367  10.132   5.877   1.551  1.0662 -1.2080  0.8874
  237ccc     N2 6368  10.012   6.021   1.651  0.3325  0.6291  0.1619
  237ccc     C3 6369   9.896   5.946   1.688  0.5352  0.3578  0.0663
  237ccc     C4 6370  10.005   6.104   1.531  0.4283  0.4570  0.3343
  237ccc     H6 6371  10.103   6.146   1.504  0.9014 -0.4310  0.6286
  237ccc     C5 6372   9.906   6.218   1.554 -0.4053 -0.0861 -0.4009
  237ccc     H7 6373   9.970   6.049   1.443  0.2881  2.2576 -0.7817
  237ccc     H8 6374   9.804   6.179   1.560 -1.3799  1.9968 -2.0300
  237ccc     H9 6375   9.899   6.289   1.470  0.1036  1.5378  0.8876
  237ccc     C6 6376   9.954   6.307   1.664 -0.8150  0.3043 -0.0929
  237ccc     O1 6377   9.865   6.314   1.769  0.1049  0.1573  0.2313
  237ccc     O2 6378  10.055   6.373   1.663 -0.2148 -0.4773  0.0898
  237ccc    H10 6379   9.807   6.009   1.691 -0.9801 -1.7275  2.3985
  237ccc    H11 6380   9.912   5.910   1.791  0.0790 -2.2230 -0.6881
  237ccc     C7 6381   9.867   5.827   1.589  0.3337  0.3051 -0.2139
  237ccc    H12 6382   9.935   5.741   1.595  1.0931  0.9126  0.1177
  237ccc    H13 6383   9.881   5.858   1.485  2.6709 -0.3952 -0.1730
  237ccc     C8 6384   9.734   5.763   1.616 -0.7172 -0.3463 -0.8177
  237ccc     O3 6385   9.657   5.802   1.702  0.7530 -0.2360  0.2089
  237ccc     O4 6386   9.680   5.712   1.503  1.0820  0.3460 -0.6169
  237ccc    H14 6387   9.808   6.236   1.778  0.2844 -0.0053  0.0035
  237ccc    H15 6388   9.752   5.679   1.446 -1.5081 -2.3077 -2.6461
  238ccc     N1 6389   8.920   4.294   4.147  0.2166 -0.0407 -0.6137
  238ccc     H1 6390   8.911   4.291   4.046 -0.1888  2.7531 -0.7341
  238ccc     C1 6391   8.884   4.173   4.208 -0.9139 -0.6057 -0.2647
  238ccc     H2 6392   8.898   4.088   4.140 -1.5768  0.2795 -1.5521
  238ccc     C2 6393   8.734   4.175   4.263  0.4307  0.2294  0.9546
  238ccc     H3 6394   8.950   4.156   4.294 -0.6975  0.4677 -0.2047
  238ccc     H4 6395   8.669   4.186   4.175  0.7038  0.6481  0.8007
  238ccc     H5 6396   8.712   4.266   4.321 -1.3460  0.1695  0.4509
  238ccc     N2 6397   8.692   4.055   4.341  0.0240 -0.3338 -0.5684
  238ccc     C3 6398   8.721   3.924   4.288  0.5842 -0.1627  0.2804
  238ccc     C4 6399   8.570   4.075   4.423  0.4674 -0.3294  0.1085
  238ccc     H6 6400   8.564   4.181   4.451 -1.1882 -0.7852  1.6639
  238ccc     C5 6401   8.574   3.986   4.545 -0.9153 -0.5158 -0.1907
  238ccc     H7 6402   8.478   4.045   4.372  1.6192  0.1619 -2.3901
  238ccc     H8 6403   8.675   4.001   4.584 -0.6634 -0.5248 -0.8371
  238ccc     H9 6404   8.553   3.884   4.510 -2.2692 -0.3870  0.1734
  238ccc     C6 6405   8.465   4.031   4.643  0.5579  0.2065 -0.2753
  238ccc     O1 6406   8.507   4.113   4.740 -0.1237 -0.2222  0.5511
  238ccc     O2 6407   8.347   3.994   4.639  0.0015  0.4631  0.8443
  238ccc    H10 6408   8.700   3.838   4.353 -1.4474 -0.0203 -0.1462
  238ccc    H11 6409   8.829   3.917   4.266 -0.0939  0.1905 -4.0347
  238ccc     C7 6410   8.642   3.905   4.153 -0.0602 -0.0313  0.5195
  238ccc    H12 6411   8.669   3.978   4.075  0.0057 -0.9297 -0.3151
  238ccc    H13 6412   8.535   3.906   4.176 -0.4333 -2.1296 -0.7948
  238ccc     C8 6413   8.681   3.767   4.103  0.4951  0.2348  0.3580
  238ccc     O3 6414   8.787   3.720   4.118 -0.4150  0.4177 -0.4768
  238ccc     O4 6415   8.586   3.699   4.042  0.3051  0.2331 -0.3140
  238ccc    H14 6416   8.604   4.122   4.739  0.0429 -1.4933  1.8982
  238ccc    H15 6417   8.517   3.767   4.045 -1.2849 -1.2563 -1.2671
  239ccc     N1 6418   8.851   4.804   3.774 -0.0285 -0.6172 -0.6503
  239ccc     H1 6419   8.843   4.706   3.798  0.2972 -0.6869 -0.8217
  239ccc     C1 6420   8.750   4.865   3.698 -0.2653 -0.3180 -0.1803
  239ccc     H2 6421   8.763   4.973   3.682 -1.0527 -0.5226 -2.5840
  239ccc     C2 6422   8.612   4.818   3.744  0.0152 -0.3263  0.5635
  239ccc     H3 6423   8.766   4.819   3.600  0.5003 -1.1559  0.3257
  239ccc     H4 6424   8.607   4.810   3.853 -2.3851  1.1671  0.6150
  239ccc     H5 6425   8.608   4.713   3.713 -0.0261  0.0327 -0.7120
  239ccc     N2 6426   8.498   4.908   3.688  0.4287 -0.1264  0.1701
  239ccc     C3 6427   8.457   4.889   3.540  0.2532 -0.1352 -0.5540
  239ccc     C4 6428   8.512   5.045   3.731 -0.1869 -0.2087 -0.4132
  239ccc     H6 6429   8.583   5.095   3.664 -0.4224  1.4975  0.5443
  239ccc     C5 6430   8.551   5.062   3.881  0.5251  0.1922  0.2631
  239ccc     H7 6431   8.416   5.097   3.717 -0.2031 -0.3657 -0.8870
  239ccc     H8 6432   8.654   5.032   3.902  0.9003  0.9864 -0.4202
  239ccc     H9 6433   8.494   4.990   3.941  0.8062  0.0857  0.4035
  239ccc     C6 6434   8.530   5.201   3.930 -0.2337 -0.0923 -0.0988
  239ccc     O1 6435   8.639   5.258   3.978  0.2446 -0.4760  0.5937
  239ccc     O2 6436   8.420   5.246   3.961 -0.4923  0.0476  0.5990
  239ccc    H10 6437   8.553   4.907   3.491  0.4365  0.6986  0.0854
  239ccc    H11 6438   8.379   4.954   3.498  2.4819  0.9189 -3.3756
  239ccc     C7 6439   8.416   4.744   3.511  0.2126  0.0335  0.3315
  239ccc    H12 6440   8.489   4.666   3.536 -2.9063 -3.0849  0.5831
  239ccc    H13 6441   8.411   4.738   3.402 -2.1356 -0.7227  0.4347
  239ccc     C8 6442   8.280   4.699   3.556 -0.3002  1.2183  0.3471
  239ccc     O3 6443   8.210   4.621   3.501 -0.3860 -0.4238  0.3044
  239ccc     O4 6444   8.278   4.712   3.682 -0.5381  0.1329 -0.3288
  239ccc    H14 6445   8.708   5.203   3.937 -0.5173 -1.7654  0.9618
  239ccc    H15 6446   8.350   4.775   3.697 -0.1058  0.0645 -1.9931
  240ccc     N1 6447  10.324   6.099   3.837  0.1241 -0.3766  0.2096
  240ccc     H1 6448  10.400   6.063   3.893  0.6281 -0.0445 -0.2528
  240ccc     C1 6449  10.363   6.208   3.753 -0.6391 -0.5408  0.1075
  240ccc     H2 6450  10.397   6.161   3.660  1.0941  1.1505 -0.1659
  240ccc     C2 6451  10.480   6.278   3.830 -0.4565  0.8623 -0.3078
  240ccc     H3 6452  10.283   6.274   3.716 -0.7162 -0.0061  1.2122
  240ccc     H4 6453  10.570   6.217   3.841 -0.2075  1.2988  0.1453
  240ccc     H5 6454  10.441   6.290   3.932 -0.6804 -1.1915 -0.1076
  240ccc     N2 6455  10.528   6.408   3.771  0.1024  0.5544 -0.6423
  240ccc     C3 6456  10.613   6.493   3.859  0.0967 -0.0512 -0.1591
  240ccc     C4 6457  10.564   6.400   3.625 -1.1387 -0.0622 -0.1404
  240ccc     H6 6458  10.473   6.365   3.575  0.1265 -2.8180 -0.6615
  240ccc     C5 6459  10.685   6.302   3.602  0.1733 -0.1596 -0.1054
  240ccc     H7 6460  10.595   6.501   3.592 -3.2840  0.4302 -0.8362
  240ccc     H8 6461  10.662   6.198   3.632  0.4013 -0.0430  0.4999
  240ccc     H9 6462  10.773   6.334   3.658  1.2702 -1.3640 -1.0840
  240ccc     C6 6463  10.735   6.293   3.459  0.1986  0.1726 -0.4469
  240ccc     O1 6464  10.824   6.186   3.449 -0.1661  0.1118 -0.3564
  240ccc     O2 6465  10.693   6.356   3.359 -0.5290  0.4893  0.3667
  240ccc    H10 6466  10.627   6.585   3.801 -0.5166 -0.4279 -0.9309
  240ccc    H11 6467  10.713   6.451   3.875 -0.7620 -2.3870 -0.6001
  240ccc     C7 6468  10.542   6.522   3.988  0.1140 -0.0481  0.2927
  240ccc    H12 6469  10.560   6.447   4.066  0.6688  0.7223  0.9249
  240ccc    H13 6470  10.434   6.530   3.971  0.4050  1.0975 -1.2536
  240ccc     C8 6471  10.581   6.659   4.040  0.3103  0.0509 -0.2279
  240ccc     O3 6472  10.546   6.766   3.995  0.8319 -0.0952  0.5988
  240ccc     O4 6473  10.705   6.648   4.086 -0.0126 -0.2967  0.0745
  240ccc    H14 6474  10.866   6.187   3.361  1.9037 -1.3035  0.5258
  240ccc    H15 6475  10.711   6.557   4.119  0.1683  0.5648  2.5589
  241ccc     N1 6476  10.460   5.373   3.725 -0.5248 -0.8364 -0.1129
  241ccc     H1 6477  10.372   5.326   3.744 -2.1156  1.2277 -1.8880
  241ccc     C1 6478  10.581   5.295   3.705 -0.0806  0.5331 -0.2880
  241ccc     H2 6479  10.660   5.337   3.769  0.6719 -1.4177  0.1242
  241ccc     C2 6480  10.629   5.303   3.561 -0.4008  0.1848 -0.1480
  241ccc     H3 6481  10.553   5.193   3.734 -4.3175  1.5267 -0.1978
  241ccc     H4 6482  10.643   5.410   3.540  1.7854 -0.2153 -0.9983
  241ccc     H5 6483  10.540   5.280   3.500  0.5878 -0.0978 -1.5388
  241ccc     N2 6484  10.751   5.219   3.529  0.3733 -0.2348  0.1318
  241ccc     C3 6485  10.723   5.074   3.509 -0.1996  1.2629 -0.1501
  241ccc     C4 6486  10.877   5.245   3.604 -0.4693 -0.0810  0.0636
  241ccc     H6 6487  10.877   5.220   3.711 -0.2558 -2.9983 -0.5172
  241ccc     C5 6488  10.912   5.397   3.599 -0.0128 -0.4654 -0.2500
  241ccc     H7 6489  10.958   5.189   3.556 -0.7466  0.7648 -1.4517
  241ccc     H8 6490  10.825   5.457   3.627 -0.2824 -0.3913 -1.2148
  241ccc     H9 6491  10.943   5.414   3.495 -0.9537  0.8046 -0.3407
  241ccc     C6 6492  11.030   5.422   3.688  0.3002 -0.2438 -0.2276
  241ccc     O1 6493  11.044   5.546   3.723  0.5280 -0.4083  0.4878
  241ccc     O2 6494  11.097   5.339   3.742 -0.2414 -0.3255 -0.4732
  241ccc    H10 6495  10.681   5.032   3.602 -1.5103  0.7973 -0.9391
  241ccc    H11 6496  10.822   5.026   3.502  0.2226  1.6713  2.0132
  241ccc     C7 6497  10.629   5.024   3.394  0.5364 -0.0034 -0.2640
  241ccc    H12 6498  10.532   5.073   3.405  1.8990  2.3917  2.9634
  241ccc    H13 6499  10.609   4.917   3.409  0.8218 -0.3345 -1.9926
  241ccc     C8 6500  10.695   5.047   3.257 -0.5999 -0.5377  0.0332
  241ccc     O3 6501  10.733   4.958   3.181  0.0650 -0.5976 -0.1174
  241ccc     O4 6502  10.721   5.176   3.229  0.3732  0.0329  0.3268
  241ccc    H14 6503  11.017   5.592   3.641 -0.8616 -1.2109  0.4665
  241ccc    H15 6504  10.717   5.234   3.307 -0.5105 -3.0616  2.7408
  242ccc     N1 6505  11.687   6.244   3.655  0.0694 -0.4118 -0.0329
  242ccc     H1 6506  11.770   6.197   3.687 -0.3458 -2.0159 -1.1558
  242ccc     C1 6507  11.699   6.334   3.548 -0.2792 -0.3315 -0.6836
  242ccc     H2 6508  11.602   6.337   3.496 -1.8361  0.9461  2.0566
  242ccc     C2 6509  11.829   6.300   3.458  1.1342 -0.1716 -0.3519
  242ccc     H3 6510  11.703   6.435   3.590 -0.9258 -0.7600  0.4665
  242ccc     H4 6511  11.838   6.385   3.390  1.1712  0.3262  0.2665
  242ccc     H5 6512  11.796   6.216   3.396 -1.7559 -0.4387  1.3394
  242ccc     N2 6513  11.960   6.273   3.528  0.5071 -0.1961  0.1975
  242ccc     C3 6514  12.066   6.229   3.424  0.7184  0.0998 -0.2337
  242ccc     C4 6515  12.016   6.383   3.610  0.6519 -0.2575  0.0868
  242ccc     H6 6516  12.057   6.461   3.544  0.1213  0.1078  0.1857
  242ccc     C5 6517  12.114   6.326   3.713 -0.1033 -0.3014 -0.0187
  242ccc     H7 6518  11.935   6.429   3.668  0.6757 -0.1883  0.0656
  242ccc     H8 6519  12.139   6.412   3.777 -1.5996  0.6944 -0.7375
  242ccc     H9 6520  12.205   6.291   3.663 -1.6131  0.1496 -3.3184
  242ccc     C6 6521  12.054   6.223   3.809 -0.0843 -0.1563 -0.4297
  242ccc     O1 6522  12.133   6.214   3.919  0.3534  0.6015  0.1503
  242ccc     O2 6523  11.936   6.184   3.814 -0.2568  0.3392  0.0927
  242ccc    H10 6524  12.163   6.215   3.474  1.0761 -0.5475 -1.0877
  242ccc    H11 6525  12.084   6.304   3.346  2.4628  1.6252  1.5268
  242ccc     C7 6526  12.029   6.089   3.366 -0.1809  0.1613 -0.1158
  242ccc    H12 6527  12.097   6.074   3.281 -0.1341 -0.6664  0.0582
  242ccc    H13 6528  11.932   6.082   3.314  0.3366 -0.6847 -1.0060
  242ccc     C8 6529  12.038   5.964   3.454  0.6796 -0.4272  0.4548
  242ccc     O3 6530  12.082   5.861   3.419 -0.2572 -0.4157 -0.5553
  242ccc     O4 6531  11.999   5.991   3.575 -0.2153  0.0338  0.0341
  242ccc    H14 6532  12.224   6.233   3.891  0.3815 -1.5746 -1.5353
  242ccc    H15 6533  12.000   6.088   3.570 -1.7301  0.0145 -1.1934
  243ccc     N1 6534  11.560   6.154   4.556  0.1671 -0.4306  0.1498
  243ccc     H1 6535  11.553   6.053   4.550  0.5412 -0.7187  2.9695
  243ccc     C1 6536  11.542   6.220   4.684 -0.5729  0.1468 -0.7889
  243ccc     H2 6537  11.616   6.301   4.691  1.8121 -2.0088  1.1316
  243ccc     C2 6538  11.559   6.128   4.804 -0.0654  0.1222 -0.5853
  243ccc     H3 6539  11.445   6.270   4.696  0.4098  1.7691  0.8217
  243ccc     H4 6540  11.470   6.066   4.812 -0.5372  0.7882 -0.5696
  243ccc     H5 6541  11.563   6.193   4.893  2.2098  1.6962 -1.7188
  243ccc     N2 6542  11.677   6.036   4.801 -0.4163  0.2319  0.0086
  243ccc     C3 6543  11.802   6.089   4.751  0.2015 -0.7890  0.2974
  243ccc     C4 6544  11.697   5.954   4.923  0.5573 -0.1683 -0.4384
  243ccc     H6 6545  11.793   5.902   4.909  0.7299  0.3740 -1.3524
  243ccc     C5 6546  11.579   5.857   4.928  0.1865 -0.3125  1.0015
  243ccc     H7 6547  11.695   6.020   5.010  0.1828  0.4088 -0.8769
  243ccc     H8 6548  11.565   5.817   4.827  0.4296  0.6089  0.5944
  243ccc     H9 6549  11.486   5.902   4.965 -0.2421 -0.4348  0.0918
  243ccc     C6 6550  11.602   5.744   5.025  0.3821  0.6657 -0.3249
  243ccc     O1 6551  11.694   5.667   4.972 -0.5041 -0.2602 -0.5673
  243ccc     O2 6552  11.600   5.757   5.145  0.1158 -0.4153  0.0014
  243ccc    H10 6553  11.791   6.136   4.652  0.0308 -0.5940  0.4083
  243ccc    H11 6554  11.871   6.005   4.737 -1.8222 -2.5389  0.3320
  243ccc     C7 6555  11.874   6.193   4.848 -0.2723  0.1138 -0.2064
  243ccc    H12 6556  11.886   6.150   4.948 -0.5227  1.1622  0.2920
  243ccc    H13 6557  11.811   6.282   4.859  0.9367  1.2389 -1.8667
  243ccc     C8 6558  12.011   6.237   4.797  0.1362  0.1267 -0.6062
  243ccc     O3 6559  12.043   6.208   4.683 -0.1823 -0.0987 -1.0956
  243ccc     O4 6560  12.068   6.335   4.872 -0.0055 -0.2273 -0.1782
  243ccc    H14 6561  11.709   5.694   4.880 -1.5851  0.5918 -0.5107
  243ccc    H15 6562  12.022   6.338   4.958  2.2014  0.9335  1.0462
  244ccc     N1 6563  11.781   5.110   3.603 -0.5338 -0.3896  0.1325
  244ccc     H1 6564  11.713   5.052   3.650 -1.7940  1.7177  1.0263
  244ccc     C1 6565  11.769   5.101   3.454 -0.4323  0.7906  0.4938
  244ccc     H2 6566  11.690   5.164   3.412 -1.3446 -1.4088 -1.2975
  244ccc     C2 6567  11.728   4.952   3.419 -0.2915 -0.1131 -0.6935
  244ccc     H3 6568  11.867   5.120   3.408 -0.5035  0.8976  0.3859
  244ccc     H4 6569  11.701   4.946   3.313 -0.4250  0.3121 -0.6839
  244ccc     H5 6570  11.636   4.939   3.477 -0.8600  0.1305 -1.5323
  244ccc     N2 6571  11.832   4.845   3.442  0.2696  0.0145  0.1981
  244ccc     C3 6572  11.853   4.805   3.583  0.2392 -0.1298 -0.1419
  244ccc     C4 6573  11.949   4.885   3.364  0.1397 -0.0042  0.7111
  244ccc     H6 6574  11.924   4.934   3.269  2.2819 -0.3037 -0.0548
  244ccc     C5 6575  12.025   4.759   3.332 -0.3270 -0.1840  0.1234
  244ccc     H7 6576  12.016   4.949   3.423  2.0346 -0.6175 -0.6738
  244ccc     H8 6577  12.060   4.698   3.416  4.0847  1.9132  0.0516
  244ccc     H9 6578  12.123   4.790   3.294  1.0196 -2.5898  1.3774
  244ccc     C6 6579  11.961   4.671   3.225  0.1291  0.4616  1.2038
  244ccc     O1 6580  11.837   4.647   3.258 -0.9307 -0.0856  0.0668
  244ccc     O2 6581  12.014   4.640   3.116 -0.2545  0.0580  0.3695
  244ccc    H10 6582  11.880   4.895   3.640 -1.7241 -0.1487  0.8919
  244ccc    H11 6583  11.939   4.738   3.587  0.7948  0.5306 -0.7464
  244ccc     C7 6584  11.748   4.724   3.658 -0.0043 -0.1094  0.6154
  244ccc    H12 6585  11.734   4.636   3.594  1.8717  1.5941 -2.3919
  244ccc    H13 6586  11.663   4.793   3.661  0.1775  0.2753 -1.6274
  244ccc     C8 6587  11.796   4.696   3.802 -0.1320  0.0079 -0.3251
  244ccc     O3 6588  11.802   4.775   3.898 -0.2551 -0.1853 -0.7577
  244ccc     O4 6589  11.874   4.585   3.800  0.6961 -0.1197 -0.3184
  244ccc    H14 6590  11.827   4.718   3.324  2.0138  1.3063 -0.7810
  244ccc    H15 6591  11.859   4.539   3.716  0.3770 -0.2636 -0.1838
  245ccc     N1 6592  12.282   5.303   4.121 -0.1393 -0.1314  0.0335
  245ccc     H1 6593  12.269   5.202   4.121 -2.6520  0.1278  0.4416
  245ccc     C1 6594  12.420   5.358   4.104  0.7983  0.3256 -0.7456
  245ccc     H2 6595  12.425   5.421   4.014 -0.6730  2.0892  0.3383
  245ccc     C2 6596  12.528   5.248   4.082 -0.6030 -0.2957 -0.0410
  245ccc     H3 6597  12.455   5.425   4.183  1.1628  0.4516 -1.0129
  245ccc     H4 6598  12.557   5.209   4.180 -1.5929 -1.9330 -0.3672
  245ccc     H5 6599  12.609   5.295   4.025 -0.4561 -1.1238 -0.5364
  245ccc     N2 6600  12.482   5.133   4.000 -0.1727  0.3241  0.5189
  245ccc     C3 6601  12.447   5.170   3.860  0.0298  0.4664 -0.0935
  245ccc     C4 6602  12.568   5.018   4.002 -0.8120 -0.3491 -0.0861
  245ccc     H6 6603  12.535   4.933   3.942  1.6122 -2.0800  0.8993
  245ccc     C5 6604  12.563   4.964   4.145 -0.5592  0.2159  0.2074
  245ccc     H7 6605  12.671   5.041   3.974 -0.7623  1.1582  1.1830
  245ccc     H8 6606  12.458   4.973   4.175 -0.6728  1.1316 -0.4228
  245ccc     H9 6607  12.625   5.028   4.210 -2.3728  0.3735  1.8721
  245ccc     C6 6608  12.605   4.819   4.148  0.0004 -0.1463 -0.7265
  245ccc     O1 6609  12.581   4.764   4.268 -0.5649 -0.1838  0.3975
  245ccc     O2 6610  12.711   4.790   4.104  0.5279  0.4722  0.3344
  245ccc    H10 6611  12.533   5.167   3.791  0.4932 -1.2231  0.5252
  245ccc    H11 6612  12.418   5.276   3.860 -0.7288  0.3181  2.1837
  245ccc     C7 6613  12.333   5.086   3.811 -0.0800 -0.6749 -0.3869
  245ccc    H12 6614  12.265   5.076   3.897 -1.3725 -0.0858 -1.3109
  245ccc    H13 6615  12.365   4.985   3.782  2.1393 -0.5251  1.3058
  245ccc     C8 6616  12.262   5.158   3.695 -0.4893 -0.2481  0.7101
  245ccc     O3 6617  12.247   5.281   3.685 -0.5301 -0.0221  0.1498
  245ccc     O4 6618  12.191   5.067   3.622  0.2968 -0.8033 -0.2160
  245ccc    H14 6619  12.507   4.801   4.320  0.7874 -0.6755  2.8419
  245ccc    H15 6620  12.210   4.980   3.662 -0.3325 -0.0216  1.9561
  246ccc     N1 6621  10.592   7.582   3.591  0.3563  0.1155  0.2795
  246ccc     H1 6622  10.628   7.493   3.623 -2.6961 -0.4761  2.5996
  246ccc     C1 6623  10.632   7.643   3.462  0.5843  0.4001 -0.9866
  246ccc     H2 6624  10.664   7.746   3.481  1.4319  0.3034 -1.8215
  246ccc     C2 6625  10.513   7.636   3.362 -0.2475 -0.2658  0.7109
  246ccc     H3 6626  10.720   7.585   3.431  1.0098  0.8371 -0.6069
  246ccc     H4 6627  10.538   7.658   3.257 -1.0298 -0.1489  0.5353
  246ccc     H5 6628  10.444   7.713   3.398  0.9919  1.9333 -1.3888
  246ccc     N2 6629  10.443   7.504   3.355  0.3007 -0.1955  0.0845
  246ccc     C3 6630  10.526   7.395   3.297 -0.0879  0.3100 -0.1850
  246ccc     C4 6631  10.306   7.527   3.307  0.4595 -0.3858 -0.3810
  246ccc     H6 6632  10.297   7.589   3.216 -2.3549  0.2180  0.2145
  246ccc     C5 6633  10.214   7.588   3.415  0.1194 -0.6676 -0.2415
  246ccc     H7 6634  10.257   7.431   3.285 -1.2793 -0.5422  3.4711
  246ccc     H8 6635  10.239   7.692   3.440  2.5856 -1.3257  0.2522
  246ccc     H9 6636  10.210   7.528   3.507  1.9890  0.8217  0.8758
  246ccc     C6 6637  10.073   7.599   3.364  0.9887 -0.0139  0.0211
  246ccc     O1 6638   9.979   7.585   3.457 -0.5340 -0.5039  0.0282
  246ccc     O2 6639  10.044   7.619   3.245  0.9406  0.0969 -0.3214
  246ccc    H10 6640  10.628   7.407   3.334 -0.1722 -1.8525  0.9051
  246ccc    H11 6641  10.523   7.407   3.188  2.1890  3.6126 -0.0004
  246ccc     C7 6642  10.483   7.258   3.345  0.2079 -0.2199 -1.2371
  246ccc    H12 6643  10.554   7.184   3.306  2.2249  2.2086 -2.4376
  246ccc    H13 6644  10.382   7.237   3.308  0.0896  1.0359 -1.6507
  246ccc     C8 6645  10.498   7.234   3.498 -0.3693 -0.2232  0.2468
  246ccc     O3 6646  10.531   7.132   3.552 -0.4142  0.3744  0.3153
  246ccc     O4 6647  10.421   7.328   3.551  0.6206  0.1177 -0.1438
  246ccc    H14 6648  10.038   7.616   3.527  0.8894 -0.8714 -0.9532
  246ccc    H15 6649  10.416   7.382   3.471  0.5306  0.6274  0.2035
  247ccc     N1 6650  10.607   7.202   4.152 -0.1860  0.1913  0.7320
  247ccc     H1 6651  10.586   7.188   4.054 -0.3515  1.2580  0.5948
  247ccc     C1 6652  10.709   7.126   4.215 -0.5920  0.3072 -0.0508
  247ccc     H2 6653  10.671   7.100   4.315  0.3456  1.5637  0.6597
  247ccc     C2 6654  10.840   7.210   4.226 -0.3182  0.0768 -0.1020
  247ccc     H3 6655  10.743   7.038   4.159 -0.2181  1.4448 -1.6739
  247ccc     H4 6656  10.898   7.166   4.308 -0.4841  0.0827  0.0191
  247ccc     H5 6657  10.805   7.308   4.261  0.3869  0.2398  0.1788
  247ccc     N2 6658  10.927   7.236   4.108  0.5047  0.2094  0.0779
  247ccc     C3 6659  10.960   7.110   4.047 -0.1142 -0.4702  0.3245
  247ccc     C4 6660  10.872   7.321   4.001  0.8074  0.4058 -0.1937
  247ccc     H6 6661  10.937   7.323   3.912  1.5087  0.9581  0.3172
  247ccc     C5 6662  10.861   7.464   4.053 -0.0133  0.3234  0.1054
  247ccc     H7 6663  10.772   7.288   3.972  1.4625 -1.4389 -0.5298
  247ccc     H8 6664  10.949   7.476   4.118 -0.3263  1.5375  0.3407
  247ccc     H9 6665  10.782   7.480   4.127 -1.6409  1.3576 -1.7625
  247ccc     C6 6666  10.835   7.580   3.955 -0.4319 -0.2684  0.9270
  247ccc     O1 6667  10.877   7.701   4.002  0.4099  0.0534 -0.3337
  247ccc     O2 6668  10.789   7.574   3.842  0.4273 -0.1153 -0.3102
  247ccc    H10 6669  11.028   7.139   3.967 -1.8301  0.2471 -0.9343
  247ccc    H11 6670  10.876   7.052   4.004 -1.8707  1.8403  0.4408
  247ccc     C7 6671  11.046   7.026   4.142 -0.3688 -0.1462 -0.2484
  247ccc    H12 6672  10.992   6.948   4.197  2.9024 -2.4678 -0.0599
  247ccc    H13 6673  11.102   7.098   4.203  2.4522 -0.2575 -2.4679
  247ccc     C8 6674  11.161   6.956   4.068  0.5466 -0.2764 -0.2645
  247ccc     O3 6675  11.149   6.910   3.954 -0.0380  0.1108  0.0770
  247ccc     O4 6676  11.262   6.939   4.153 -0.0741 -0.1224 -0.0086
  247ccc    H14 6677  10.909   7.689   4.093  1.1015 -2.7801 -0.8698
  247ccc    H15 6678  11.231   6.999   4.224  0.2634  0.7288 -0.5639
  248ccc     N1 6679   9.291   6.902   3.438 -0.0896  0.2628 -0.1884
  248ccc     H1 6680   9.371   6.871   3.491 -0.4690  1.9670  1.4989
  248ccc     C1 6681   9.177   6.818   3.444 -1.1307 -0.3900 -0.2291
  248ccc     H2 6682   9.162   6.781   3.342 -0.3585  0.0933 -0.5255
  248ccc     C2 6683   9.049   6.894   3.493  0.6274  0.0042  0.0783
  248ccc     H3 6684   9.214   6.739   3.509  0.1271 -0.7610 -1.3596
  248ccc     H4 6685   8.967   6.822   3.484 -0.1815  0.9440 -0.1439
  248ccc     H5 6686   9.031   6.964   3.412 -1.9091  0.9129  1.3403
  248ccc     N2 6687   9.056   6.981   3.616 -0.1826  0.3583 -0.2380
  248ccc     C3 6688   8.926   7.052   3.654 -0.2309  0.5266 -0.2628
  248ccc     C4 6689   9.133   6.947   3.731 -0.2539  0.4821  0.3277
  248ccc     H6 6690   9.238   6.941   3.698 -1.0273 -2.7255 -2.1209
  248ccc     C5 6691   9.077   6.823   3.800  0.0382  1.0863 -0.0457
  248ccc     H7 6692   9.129   7.027   3.805 -2.1833 -0.1268  0.9406
  248ccc     H8 6693   9.061   6.748   3.722 -1.6206  0.4337  0.8957
  248ccc     H9 6694   8.980   6.839   3.848  0.2350 -0.6217  0.9897
  248ccc     C6 6695   9.176   6.775   3.902  0.0132 -0.1725  0.0593
  248ccc     O1 6696   9.173   6.848   4.018 -0.1115  0.4539  0.4414
  248ccc     O2 6697   9.249   6.676   3.891  0.1837  0.0652  0.0003
  248ccc    H10 6698   8.944   7.122   3.737  0.4184  2.6620 -2.1096
  248ccc    H11 6699   8.847   6.976   3.666  0.5215 -0.2106  0.1009
  248ccc     C7 6700   8.857   7.134   3.535 -0.6323  0.0944 -0.3329
  248ccc    H12 6701   8.759   7.171   3.567 -0.7357 -0.9698  0.6454
  248ccc    H13 6702   8.837   7.064   3.452  0.9353  0.3461 -0.9699
  248ccc     C8 6703   8.930   7.253   3.474  0.1500 -0.6844 -0.5448
  248ccc     O3 6704   8.875   7.335   3.401 -0.0551  0.3507 -0.6087
  248ccc     O4 6705   9.065   7.251   3.494 -0.2948  0.4076  0.1628
  248ccc    H14 6706   9.091   6.900   4.008 -0.0102  0.3976 -0.7286
  248ccc    H15 6707   9.083   7.165   3.538 -0.1900  0.1834 -0.3113
  249ccc     N1 6708   9.797   7.604   3.091 -0.0318 -0.1506 -0.0992
  249ccc     H1 6709   9.885   7.563   3.121 -0.5807 -0.8024  0.6479
  249ccc     C1 6710   9.809   7.741   3.031  0.7490  0.0812 -0.4279
  249ccc     H2 6711   9.735   7.754   2.951  0.5820  2.9973  0.1139
  249ccc     C2 6712   9.942   7.767   2.958  0.3360 -0.5645 -0.2219
  249ccc     H3 6713   9.793   7.814   3.110  1.2651  0.5773 -0.7710
  249ccc     H4 6714  10.008   7.793   3.042  0.7947  0.3137 -0.8415
  249ccc     H5 6715   9.936   7.855   2.892 -0.3496 -1.2229 -1.0597
  249ccc     N2 6716   9.998   7.649   2.874 -0.6239 -0.0658 -0.0386
  249ccc     C3 6717  10.130   7.676   2.818 -0.1967 -0.3048 -0.4781
  249ccc     C4 6718   9.911   7.604   2.764  0.0291  0.2526  0.0832
  249ccc     H6 6719   9.808   7.599   2.799 -0.1596  1.5140 -0.2340
  249ccc     C5 6720   9.940   7.468   2.709 -0.9077  0.0458  0.0872
  249ccc     H7 6721   9.911   7.678   2.683 -1.3082  0.7864  0.5512
  249ccc     H8 6722  10.045   7.464   2.675 -1.2604  0.6429 -1.1349
  249ccc     H9 6723   9.882   7.456   2.616 -2.0835 -1.1777  0.9518
  249ccc     C6 6724   9.904   7.346   2.789 -0.1352  0.1434 -0.3476
  249ccc     O1 6725   9.870   7.241   2.715 -0.5130  0.0562 -0.1725
  249ccc     O2 6726   9.868   7.347   2.905  0.0538  0.1217 -0.2927
  249ccc    H10 6727  10.134   7.781   2.786  0.0023 -0.2310 -0.2144
  249ccc    H11 6728  10.157   7.616   2.730 -0.0619 -0.3219 -0.4253
  249ccc     C7 6729  10.238   7.661   2.930  0.3634  0.5231 -0.4282
  249ccc    H12 6730  10.209   7.715   3.021  0.3167  0.6779 -0.5353
  249ccc    H13 6731  10.341   7.687   2.900  0.3119 -0.1400 -1.2169
  249ccc     C8 6732  10.264   7.517   2.974  0.8381  0.6699  0.2710
  249ccc     O3 6733  10.367   7.476   3.009 -0.3538  0.0682 -0.4776
  249ccc     O4 6734  10.146   7.465   3.006  0.1363 -0.3668  0.1497
  249ccc    H14 6735   9.925   7.261   2.637  1.5511 -0.7405  0.9932
  249ccc    H15 6736  10.091   7.525   2.952  1.1396 -0.5896 -1.1651
  250ccc     N1 6737  10.751   5.642   5.379 -0.7901  0.2478 -0.5725
  250ccc     H1 6738  10.826   5.575   5.388 -2.2203 -1.4992 -1.0735
  250ccc     C1 6739  10.635   5.619   5.464 -0.2315  0.5037 -0.0529
  250ccc     H2 6740  10.658   5.535   5.530  2.1831  0.7155 -0.5293
  250ccc     C2 6741  10.520   5.571   5.369 -0.2467 -0.5954  0.4756
  250ccc     H3 6742  10.595   5.711   5.507 -0.4622  0.5145 -0.2869
  250ccc     H4 6743  10.499   5.647   5.293 -1.9500  1.0617  2.4854
  250ccc     H5 6744  10.429   5.563   5.430  0.6985  2.4126  2.5261
  250ccc     N2 6745  10.545   5.439   5.304 -0.5704  0.9817 -0.5961
  250ccc     C3 6746  10.565   5.313   5.381  0.6531 -0.3029 -0.4296
  250ccc     C4 6747  10.464   5.419   5.175  0.1753 -0.5928 -0.5964
  250ccc     H6 6748  10.388   5.347   5.206  0.1164 -0.2263  0.1117
  250ccc     C5 6749  10.558   5.367   5.063 -0.2507  0.6995 -0.1021
  250ccc     H7 6750  10.412   5.509   5.141 -1.8800 -1.5288 -0.1102
  250ccc     H8 6751  10.503   5.323   4.979  0.4706  1.9405 -1.2496
  250ccc     H9 6752  10.620   5.292   5.113 -0.2283  1.6384  1.3550
  250ccc     C6 6753  10.647   5.470   5.001 -0.3262 -0.2291  1.1523
  250ccc     O1 6754  10.733   5.522   5.086 -0.4535  0.3121 -0.6417
  250ccc     O2 6755  10.599   5.540   4.908 -0.1045  0.0351  0.6231
  250ccc    H10 6756  10.658   5.330   5.437  0.0669  2.4655 -0.1571
  250ccc    H11 6757  10.567   5.224   5.318  1.3065 -0.5281 -0.0894
  250ccc     C7 6758  10.448   5.294   5.482 -0.1972  0.1728 -0.1347
  250ccc    H12 6759  10.349   5.283   5.437 -0.0038 -3.0927 -0.0038
  250ccc    H13 6760  10.445   5.382   5.548 -0.4343  0.0549  0.0084
  250ccc     C8 6761  10.481   5.186   5.574  0.4298  0.0627  0.3365
  250ccc     O3 6762  10.596   5.164   5.613  0.3737  0.0417 -0.5519
  250ccc     O4 6763  10.378   5.133   5.636 -0.3436 -0.4778  0.4767
  250ccc    H14 6764  10.695   5.492   5.170 -0.5779  1.3554 -0.3104
  250ccc    H15 6765  10.413   5.072   5.703 -1.1489 -0.8742  0.5523
  251ccc     N1 6766  11.347   5.528   4.942 -0.2942  0.3894  0.0507
  251ccc     H1 6767  11.340   5.578   4.854 -1.4389  2.5684  1.3040
  251ccc     C1 6768  11.403   5.401   4.935  0.0434 -0.5449  0.3280
  251ccc     H2 6769  11.444   5.370   5.032  0.0647  1.3368  0.9475
  251ccc     C2 6770  11.517   5.382   4.835  0.2269 -0.4591 -0.4621
  251ccc     H3 6771  11.321   5.344   4.889  0.7144  0.7410 -2.7029
  251ccc     H4 6772  11.538   5.274   4.837  2.0915 -0.1300  1.4435
  251ccc     H5 6773  11.610   5.427   4.870  0.3832  0.0187 -1.4865
  251ccc     N2 6774  11.485   5.424   4.694  0.5224  0.0778  0.1151
  251ccc     C3 6775  11.371   5.365   4.623  0.0664 -0.3561  0.3600
  251ccc     C4 6776  11.609   5.431   4.616  0.7118 -0.4760  0.2649
  251ccc     H6 6777  11.690   5.468   4.678  0.2486  2.4847 -0.7389
  251ccc     C5 6778  11.594   5.506   4.486  0.0506  0.0074 -0.0856
  251ccc     H7 6779  11.634   5.326   4.597 -2.1549 -1.1575 -0.2013
  251ccc     H8 6780  11.563   5.610   4.497  0.2106  0.1414 -0.8909
  251ccc     H9 6781  11.534   5.457   4.409 -0.1499  1.7660 -1.0840
  251ccc     C6 6782  11.729   5.528   4.413  0.3032 -0.2158  0.0454
  251ccc     O1 6783  11.700   5.596   4.299 -0.2801 -0.1669 -0.5221
  251ccc     O2 6784  11.836   5.496   4.455  0.2090  0.2652 -0.8359
  251ccc    H10 6785  11.356   5.411   4.525 -3.0275 -1.0153  0.4064
  251ccc    H11 6786  11.277   5.388   4.675  1.2176  1.7968  1.6479
  251ccc     C7 6787  11.389   5.218   4.589 -0.5424 -0.5788  0.0994
  251ccc    H12 6788  11.443   5.160   4.665  2.2089  0.9268 -0.5746
  251ccc    H13 6789  11.459   5.218   4.504  0.8494  0.2139  1.1876
  251ccc     C8 6790  11.266   5.141   4.552  0.0162 -1.0265 -0.0720
  251ccc     O3 6791  11.165   5.135   4.619 -0.7654 -0.1085  0.4222
  251ccc     O4 6792  11.290   5.063   4.448  0.5936  0.7921  0.1717
  251ccc    H14 6793  11.792   5.617   4.275  0.4994 -1.2853  1.2623
  251ccc    H15 6794  11.346   5.112   4.385 -0.3597  1.6331 -0.0457
  252ccc     N1 6795  11.243   6.238   5.515 -0.7021  0.7430  0.6270
  252ccc     H1 6796  11.309   6.212   5.587  0.1436  0.3161 -0.2896
  252ccc     C1 6797  11.151   6.137   5.459 -0.6603 -0.2982 -0.0709
  252ccc     H2 6798  11.114   6.063   5.532  0.0357 -1.9942 -1.3733
  252ccc     C2 6799  11.205   6.050   5.342 -0.2250 -0.7595 -0.0815
  252ccc     H3 6800  11.062   6.192   5.425 -0.4178 -0.8790 -1.7387
  252ccc     H4 6801  11.220   6.116   5.256 -1.6618  0.2124  0.3836
  252ccc     H5 6802  11.126   5.980   5.311  1.4098 -2.4981 -0.5306
  252ccc     N2 6803  11.310   5.956   5.372  0.7175 -0.1888 -0.1243
  252ccc     C3 6804  11.278   5.844   5.468 -0.3818 -0.1777 -0.2149
  252ccc     C4 6805  11.457   5.991   5.375 -0.2834  0.2654 -0.9284
  252ccc     H6 6806  11.484   6.022   5.476 -2.2409 -0.6360 -0.0900
  252ccc     C5 6807  11.501   6.088   5.265  0.3245  0.7900 -0.0837
  252ccc     H7 6808  11.514   5.898   5.360  0.2630  0.6932 -1.5974
  252ccc     H8 6809  11.456   6.186   5.284 -0.8401  0.3156 -0.3281
  252ccc     H9 6810  11.463   6.050   5.169  0.7108 -0.7707  0.3569
  252ccc     C6 6811  11.649   6.092   5.260 -0.9429 -0.3959  0.6914
  252ccc     O1 6812  11.698   6.195   5.186 -0.1486  0.0103  0.1085
  252ccc     O2 6813  11.726   6.004   5.298  0.5734  0.0912 -0.3968
  252ccc    H10 6814  11.176   5.853   5.508  0.6248  0.8192  2.3285
  252ccc    H11 6815  11.343   5.852   5.556  2.8760  2.8878 -2.5843
  252ccc     C7 6816  11.311   5.714   5.395  0.4542  0.1316  0.2908
  252ccc    H12 6817  11.414   5.719   5.356  0.9122 -1.4758  1.2123
  252ccc    H13 6818  11.240   5.696   5.313  2.0689 -1.2994 -0.8704
  252ccc     C8 6819  11.319   5.589   5.476  0.0189 -0.6217  0.3109
  252ccc     O3 6820  11.297   5.591   5.597 -0.2949  0.2670  0.0585
  252ccc     O4 6821  11.309   5.479   5.401 -0.0907  0.1744  0.3276
  252ccc    H14 6822  11.622   6.242   5.149 -0.7072 -1.7197 -1.0416
  252ccc    H15 6823  11.297   5.510   5.309 -1.8700  2.3845  1.1795
  253ccc     N1 6824  11.440   6.870   5.044  0.7202  0.3315 -0.6983
  253ccc     H1 6825  11.469   6.833   5.134  1.1875  2.9475  0.3167
  253ccc     C1 6826  11.533   6.949   4.967  0.8634 -0.4754  0.0223
  253ccc     H2 6827  11.480   6.998   4.884  0.1315 -0.4067  0.5227
  253ccc     C2 6828  11.660   6.877   4.914 -0.3711  0.0207 -0.4348
  253ccc     H3 6829  11.564   7.038   5.024 -1.1415 -0.3616  1.0306
  253ccc     H4 6830  11.705   6.833   5.003  1.0726 -1.0061 -1.6425
  253ccc     H5 6831  11.723   6.956   4.870  0.5123 -0.4990 -0.1073
  253ccc     N2 6832  11.656   6.765   4.811  0.5660  0.7003  0.8496
  253ccc     C3 6833  11.791   6.742   4.756  0.0233 -0.5047  0.0050
  253ccc     C4 6834  11.572   6.645   4.829 -0.1376  0.1265  0.3350
  253ccc     H6 6835  11.476   6.698   4.843  0.5070  1.1156  1.1392
  253ccc     C5 6836  11.609   6.556   4.943 -0.4346 -0.2915  0.0716
  253ccc     H7 6837  11.549   6.581   4.743 -0.2958 -0.3782  0.7438
  253ccc     H8 6838  11.612   6.622   5.030 -0.9776  3.0392 -2.2373
  253ccc     H9 6839  11.705   6.507   4.919 -1.1139 -2.8251  2.0638
  253ccc     C6 6840  11.519   6.448   4.982  0.4877  0.6994 -0.3925
  253ccc     O1 6841  11.539   6.399   5.105 -0.0458 -0.6041 -0.4109
  253ccc     O2 6842  11.426   6.404   4.917  0.3833  0.4485 -0.5508
  253ccc    H10 6843  11.849   6.676   4.821 -1.2050 -1.7602 -0.1345
  253ccc    H11 6844  11.837   6.842   4.748 -2.9042  0.9245 -0.6203
  253ccc     C7 6845  11.771   6.687   4.617  0.6438 -0.3246  0.7071
  253ccc    H12 6846  11.720   6.754   4.547  3.1345  0.0710 -0.8882
  253ccc    H13 6847  11.726   6.587   4.629  2.8388 -1.2844  1.5011
  253ccc     C8 6848  11.908   6.658   4.560 -0.0202  0.3223 -0.1849
  253ccc     O3 6849  11.988   6.580   4.612  0.0993 -0.6155 -0.1719
  253ccc     O4 6850  11.938   6.736   4.454  0.2017  0.8585  0.0198
  253ccc    H14 6851  11.603   6.460   5.145 -0.3658 -1.4851  1.5368
  253ccc    H15 6852  11.859   6.791   4.439  0.0749  0.8485  0.6409
  254SOL     OW 6853   3.037   4.958   1.291 -0.4491 -0.0361 -0.1832
  254SOL    HW1 6854   3.061   4.984   1.202  0.2612  0.3704  0.1125
  254SOL    HW2 6855   3.113   4.908   1.322 -1.2006 -1.2349 -0.2296
  255SOL     OW 6856   7.189   8.764   2.890 -0.2432  0.0758  0.1322
  255SOL    HW1 6857   7.152   8.843   2.851 -1.3871 -0.5758 -0.1354
  255SOL    HW2 6858   7.221   8.793   2.976 -0.3693  0.8890 -0.0846
  256SOL     OW 6859   2.066   9.017   4.346  0.0119  0.2289 -0.7974
  256SOL    HW1 6860   1.977   9.050   4.336 -0.4689 -1.2873 -2.1190
  256SOL    HW2 6861   2.056   8.922   4.344  1.5022 -0.0133  0.8933
  257SOL     OW 6862   0.745   3.267   6.972  0.1656 -0.4671 -0.0111
  257SOL    HW1 6863   0.783   3.181   6.991  1.1997 -0.6774 -2.6608
  257SOL    HW2 6864   0.820   3.327   6.975 -0.4292  0.2657  1.0674
  258SOL     OW 6865   1.861   2.136   9.076 -0.1795 -0.3373 -0.1251
  258SOL    HW1 6866   1.835   2.053   9.116  0.8024 -0.6755 -0.1488
  258SOL    HW2 6867   1.914   2.111   9.001 -1.3126  0.3052 -1.1761
  259SOL     OW 6868   9.775   4.444   6.263 -0.1829 -0.0497 -0.6106
  259SOL    HW1 6869   9.692   4.397   6.267 -0.3385  0.2206 -0.6740
  259SOL    HW2 6870   9.801   4.455   6.355 -0.9493  1.1569 -0.5180
  260SOL     OW 6871   6.162   5.204   8.779 -0.0988  0.4521  0.0150
  260SOL    HW1 6872   6.257   5.204   8.792  0.0771  1.6144 -1.0397
  260SOL    HW2 6873   6.145   5.128   8.723 -0.4967 -2.8072  4.1411
  261SOL     OW 6874   1.486   2.553  10.168  0.4540  0.3854  0.4024
  261SOL    HW1 6875   1.422   2.528  10.102  1.2770 -0.8815  0.0483
  261SOL    HW2 6876   1.473   2.491  10.240  1.1867  0.1790  0.3729
  262SOL     OW 6877   7.452   0.894   5.569  0.1569  0.0497  0.1580
  262SOL    HW1 6878   7.519   0.928   5.629 -0.5824  2.9251 -0.5062
  262SOL    HW2 6879   7.371   0.896   5.620 -0.3132  1.6239 -0.6080
  263SOL     OW 6880   4.819   1.546   1.242  0.9183 -0.3814 -0.6803
  263SOL    HW1 6881   4.752   1.495   1.196  0.5873 -1.2250  0.6923
  263SOL    HW2 6882   4.846   1.491   1.315  1.4722  0.8965  0.1209
  264SOL     OW 6883   6.137   2.130   2.742  0.2720 -0.5043 -0.1458
  264SOL    HW1 6884   6.064   2.104   2.798 -0.0461  0.1369 -0.2610
  264SOL    HW2 6885   6.213   2.086   2.781  0.2943  0.9756  1.6132
  265SOL     OW 6886   9.236   1.275   5.929 -0.0784  0.2989  0.1456
  265SOL    HW1 6887   9.301   1.231   5.874 -0.6281  2.2593 -2.2116
  265SOL    HW2 6888   9.272   1.362   5.945 -1.4739  0.9263  0.0160
  266SOL     OW 6889   0.425   6.962   8.665 -0.0464  0.3687  0.6713
  266SOL    HW1 6890   0.459   6.875   8.644  0.4366  1.1102 -1.8874
  266SOL    HW2 6891   0.461   6.981   8.751  1.0354 -1.3576  0.6507
  267SOL     OW 6892   8.574   7.594   4.550 -0.0566  0.2777  0.1144
  267SOL    HW1 6893   8.662   7.602   4.512  0.4796 -1.2404  0.9606
  267SOL    HW2 6894   8.544   7.507   4.521 -0.5456  0.0447  1.2929
  268SOL     OW 6895   6.618   9.109   3.912 -0.2516 -0.4866 -0.4019
  268SOL    HW1 6896   6.567   9.048   3.964  1.4147 -0.3535  1.5117
  268SOL    HW2 6897   6.565   9.125   3.834 -3.0878 -0.3870  1.4039
  269SOL     OW 6898  10.797   0.409   0.534 -0.9156 -0.0815 -0.0697
  269SOL    HW1 6899  10.773   0.496   0.566 -0.7598  0.4084 -1.2148
  269SOL    HW2 6900  10.780   0.350   0.607  0.5481  1.1266  1.3134
  270SOL     OW 6901   7.450   7.614   1.834 -0.3335 -0.3482  0.0580
  270SOL    HW1 6902   7.423   7.590   1.922  0.9841 -1.2252  0.2531
  270SOL    HW2 6903   7.402   7.555   1.777 -0.8737 -0.0608  0.2127
  271SOL     OW 6904   2.647   5.397   2.596 -0.1193  0.3365  0.0776
  271SOL    HW1 6905   2.559   5.365   2.574  0.0817 -2.2837  2.5299
  271SOL    HW2 6906   2.634   5.449   2.676  0.4540  1.0032 -0.2506
  272SOL     OW 6907   5.157   4.274   7.409 -0.3319 -0.3890  0.3577
  272SOL    HW1 6908   5.088   4.303   7.349 -0.2689  1.9024  1.2973
  272SOL    HW2 6909   5.125   4.190   7.442 -1.7594 -0.2945 -0.6633
  273SOL     OW 6910   3.928   3.123   7.590  0.0184 -0.4966 -1.0450
  273SOL    HW1 6911   3.979   3.095   7.513 -0.7057 -1.7566 -1.0912
  273SOL    HW2 6912   3.961   3.069   7.662 -1.2520 -1.3781 -1.0870
  274SOL     OW 6913   3.787   2.991  10.537  0.0216 -0.2270  0.0490
  274SOL    HW1 6914   3.838   2.931  10.483  2.0145  1.8463 -0.5483
  274SOL    HW2 6915   3.707   2.943  10.558  1.3266 -2.8947 -0.6881
  275SOL     OW 6916   7.750   3.982   4.375 -0.0798  0.4257  0.3416
  275SOL    HW1 6917   7.703   4.019   4.300 -1.6649  1.3083  1.7035
  275SOL    HW2 6918   7.696   3.908   4.403  0.1199  0.5279  1.0203
  276SOL     OW 6919   0.287   6.282   9.525  0.4495 -0.5184  0.3956
  276SOL    HW1 6920   0.309   6.303   9.615  0.7497  0.9975 -0.0145
  276SOL    HW2 6921   0.364   6.236   9.491  0.0325 -1.8083  1.1076
  277SOL     OW 6922   8.909   5.997   9.223  0.0609 -0.1962  0.6604
  277SOL    HW1 6923   8.961   5.940   9.165  0.1355  1.0202 -0.5189
  277SOL    HW2 6924   8.941   5.978   9.311  1.2865 -0.7396  0.1159
  278SOL     OW 6925   8.000   4.744   6.084 -0.0174 -0.0307  0.2085
  278SOL    HW1 6926   8.026   4.664   6.040  1.9357  1.7949 -2.2652
  278SOL    HW2 6927   8.075   4.766   6.140  1.5217  2.2010 -2.4743
  279SOL     OW 6928  10.322   4.798   6.789  0.2791 -0.2895  0.0848
  279SOL    HW1 6929  10.230   4.794   6.763  0.0977  0.8927  0.4571
  279SOL    HW2 6930  10.321   4.787   6.884  0.7934 -2.9366 -0.1461
  280SOL     OW 6931   5.315   0.324   1.860  0.3728  0.5075  0.2141
  280SOL    HW1 6932   5.402   0.288   1.878  0.9354  1.2438 -0.9248
  280SOL    HW2 6933   5.330   0.389   1.792 -1.1519  0.3427 -0.3025
  281SOL     OW 6934   1.952   6.178   9.991  0.2993 -0.7483  0.1291
  281SOL    HW1 6935   1.888   6.221  10.048  1.6789  0.6558  0.6987
  281SOL    HW2 6936   1.977   6.246   9.928  1.0731 -1.3270 -0.2037
  282SOL     OW 6937  10.183  10.626   1.432 -0.2424 -0.4608 -0.0090
  282SOL    HW1 6938  10.129  10.554   1.465  1.5913 -1.9277 -0.0395
  282SOL    HW2 6939  10.262  10.583   1.398  1.0114  1.5862  0.1425
  283SOL     OW 6940   1.000   2.904   5.721  0.0756 -0.0835 -0.5056
  283SOL    HW1 6941   1.034   2.991   5.742  0.6419 -0.1351 -1.1812
  283SOL    HW2 6942   1.019   2.892   5.628  0.7296 -1.2497 -0.2377
  284SOL     OW 6943   3.259   5.860   5.809 -0.3101 -0.0313  0.1788
  284SOL    HW1 6944   3.167   5.846   5.829 -0.8435  1.1487 -1.2746
  284SOL    HW2 6945   3.299   5.882   5.893 -1.4149 -0.2181  0.7658
  285SOL     OW 6946   7.054   2.169   8.024 -0.5197  0.4382  0.4423
  285SOL    HW1 6947   7.025   2.228   8.093  0.5072  0.1665  1.1261
  285SOL    HW2 6948   6.989   2.099   8.022 -0.8844  0.7711  0.7034
  286SOL     OW 6949   9.242   3.842  10.170 -0.0232  0.0091 -0.2968
  286SOL    HW1 6950   9.170   3.838  10.107 -1.2466  0.0035  1.0409
  286SOL    HW2 6951   9.290   3.921  10.147 -0.6953  0.2300 -0.9790
  287SOL     OW 6952  10.357   9.797   5.665 -0.3180 -0.1309 -0.3919
  287SOL    HW1 6953  10.396   9.860   5.604  0.6537 -1.8479 -1.6133
  287SOL    HW2 6954  10.278   9.766   5.621 -0.1456 -0.6397 -0.3538
  288SOL     OW 6955   2.321   0.049   2.857 -0.1167 -0.4162 -0.1034
  288SOL    HW1 6956   2.237   0.092   2.848 -0.5255 -0.7955  1.6654
  288SOL    HW2 6957   2.356   0.047   2.767 -1.8159  0.0341 -0.8173
  289SOL     OW 6958   0.835   9.456   5.476  0.1218 -0.3979 -0.1592
  289SOL    HW1 6959   0.741   9.450   5.489  0.1272 -0.2457 -0.0500
  289SOL    HW2 6960   0.845   9.500   5.391  0.0934 -0.5857 -0.2593
  290SOL     OW 6961   9.622   8.036   4.263  0.7377  0.1008 -0.3556
  290SOL    HW1 6962   9.596   7.999   4.348 -0.1529  2.4665  0.4780
  290SOL    HW2 6963   9.544   8.025   4.208  0.7317  0.0584 -0.3385
  291SOL     OW 6964   0.243   1.771   0.170 -0.1651 -0.1128  0.5256
  291SOL    HW1 6965   0.240   1.833   0.243 -0.2499  0.6315 -0.0992
  291SOL    HW2 6966   0.218   1.822   0.093  0.7499 -0.6749 -0.1723
  292SOL     OW 6967   7.523   5.616   6.313  0.0480  0.9371 -0.6443
  292SOL    HW1 6968   7.540   5.527   6.344  0.9586  0.8100 -1.4704
  292SOL    HW2 6969   7.573   5.672   6.373 -2.3873  1.1376  1.3841
  293SOL     OW 6970   1.074   4.004   6.142  0.4945  0.1165 -0.6041
  293SOL    HW1 6971   1.136   4.061   6.186  1.5701 -1.0353 -0.5931
  293SOL    HW2 6972   1.053   4.051   6.061  1.9142  0.2245 -0.9395
  294SOL     OW 6973   4.511   6.410   0.965  0.9168 -0.5181  0.3062
  294SOL    HW1 6974   4.586   6.358   0.994  1.0093 -1.2266 -1.1063
  294SOL    HW2 6975   4.446   6.345   0.937 -0.1281  0.0898  1.2381
  295SOL     OW 6976   2.356   0.586   5.387 -0.1404 -0.1447  0.4168
  295SOL    HW1 6977   2.264   0.561   5.394 -0.5809  1.6146  1.7957
  295SOL    HW2 6978   2.367   0.614   5.297 -1.3007  0.7739  0.5406
  296SOL     OW 6979   9.477   6.524   6.628  0.5493  0.5258  0.4887
  296SOL    HW1 6980   9.504   6.613   6.650  0.4164  0.7007 -0.0500
  296SOL    HW2 6981   9.496   6.514   6.535  2.0478 -0.5560  0.8636
  297SOL     OW 6982  10.587   8.273   7.933  0.0492 -0.1503  0.0725
  297SOL    HW1 6983  10.501   8.311   7.947  0.9985  2.0810  0.2660
  297SOL    HW2 6984  10.617   8.247   8.020  0.8690  2.1933  0.5732
  298SOL     OW 6985   9.141   5.449   8.550 -0.0424  0.1548  0.8242
  298SOL    HW1 6986   9.115   5.524   8.496  1.1343 -2.4166 -3.8354
  298SOL    HW2 6987   9.230   5.471   8.579  1.0562  0.0006 -2.0817
  299SOL     OW 6988   2.184   2.052  10.465  0.1975  0.0927  0.1572
  299SOL    HW1 6989   2.265   2.035  10.512  0.1886  1.7403  0.8375
  299SOL    HW2 6990   2.188   1.996  10.388  0.5868 -2.0790  1.6810
  300SOL     OW 6991   1.122   8.201   1.111 -0.0061  0.6662 -0.1380
  300SOL    HW1 6992   1.063   8.181   1.184  1.0856 -2.6774 -0.0054
  300SOL    HW2 6993   1.200   8.240   1.153 -0.2903  0.8882  0.1920
  301SOL     OW 6994   7.432   9.354   6.398 -0.2558  0.0634 -0.2149
  301SOL    HW1 6995   7.437   9.395   6.484 -1.7849 -1.2772  0.5684
  301SOL    HW2 6996   7.338   9.351   6.378  0.1065  1.0751 -2.3289
  302SOL     OW 6997   9.251   4.812   2.087 -0.1704 -0.3802 -0.1011
  302SOL    HW1 6998   9.213   4.898   2.070 -0.7962 -1.1176 -3.0130
  302SOL    HW2 6999   9.221   4.789   2.175 -0.9069  1.8869  0.2851
  303SOL     OW 7000   5.347   7.076  10.428  0.4352 -0.0597  0.3185
  303SOL    HW1 7001   5.400   7.022  10.369 -0.2073 -0.3053 -0.0549
  303SOL    HW2 7002   5.362   7.039  10.514  1.1941  0.1436  0.2787
  304SOL     OW 7003   0.275   0.433   8.280 -0.4369  0.3658  0.2895
  304SOL    HW1 7004   0.230   0.361   8.325  1.3591 -2.0468 -1.4719
  304SOL    HW2 7005   0.205   0.487   8.245 -2.0741 -2.4814 -1.2080
  305SOL     OW 7006   7.555   2.213   2.196  0.4166 -0.2243 -0.2304
  305SOL    HW1 7007   7.566   2.305   2.221  1.2278  0.0486 -1.5413
  305SOL    HW2 7008   7.471   2.212   2.150 -0.9902 -0.6949  2.1429
  306SOL     OW 7009   7.784  10.354   7.821  0.1433 -0.3504  0.0495
  306SOL    HW1 7010   7.872  10.390   7.831  0.2793  0.2772 -2.7050
  306SOL    HW2 7011   7.726  10.422   7.855  0.6262  0.2971 -0.4053
  307SOL     OW 7012   1.774   3.159   3.791 -0.2359 -0.0609  0.3113
  307SOL    HW1 7013   1.702   3.141   3.851 -0.3026  1.4238  0.7156
  307SOL    HW2 7014   1.837   3.089   3.807 -1.5801 -1.4128 -0.0814
  308SOL     OW 7015   7.261   3.859   2.929 -0.0875  0.2279  0.1516
  308SOL    HW1 7016   7.220   3.807   2.998 -0.2110  1.3364  0.9454
  308SOL    HW2 7017   7.268   3.800   2.855  1.9623 -1.6760  1.7289
  309SOL     OW 7018   6.275   0.363   7.358  0.1152 -0.8044  0.2334
  309SOL    HW1 7019   6.303   0.303   7.427 -1.7854 -0.2985  1.5093
  309SOL    HW2 7020   6.189   0.394   7.386  1.1168  2.8077 -0.2029
  310SOL     OW 7021   3.104   7.653   7.511  0.1356 -0.1491 -0.3039
  310SOL    HW1 7022   3.112   7.643   7.416 -0.0683 -1.3788 -0.2059
  310SOL    HW2 7023   3.163   7.587   7.547 -0.3565 -0.2056  0.4178
  311SOL     OW 7024   5.793   9.863   4.440 -0.3898  0.4675  0.4756
  311SOL    HW1 7025   5.698   9.874   4.440 -0.4373  0.1064 -0.0715
  311SOL    HW2 7026   5.809   9.800   4.511 -0.4945  0.9807  0.9633
  312SOL     OW 7027   3.979   8.621   3.582  0.3905 -0.4218 -0.0763
  312SOL    HW1 7028   4.028   8.700   3.606  1.1460 -0.6675 -0.7518
  312SOL    HW2 7029   4.046   8.561   3.550 -0.0375 -1.7323  1.3919
  313SOL     OW 7030   6.675   6.871   5.538  0.1440  0.2218 -0.0472
  313SOL    HW1 7031   6.700   6.784   5.505 -1.1222 -0.1495 -0.0799
  313SOL    HW2 7032   6.650   6.920   5.459 -0.5967  0.1129  0.1146
  314SOL     OW 7033   0.132  10.128   0.849 -0.8738 -0.9932  0.1567
  314SOL    HW1 7034   0.125  10.221   0.869 -1.3152 -0.7936 -0.8600
  314SOL    HW2 7035   0.045  10.103   0.819 -0.8609 -1.8322  0.7799
  315SOL     OW 7036   2.009   2.682   6.780 -0.1621 -0.2321  0.1645
  315SOL    HW1 7037   2.055   2.621   6.723 -0.3547  0.6779 -1.0023
  315SOL    HW2 7038   2.079   2.728   6.827  0.4752  3.1068 -3.5955
  316SOL     OW 7039   1.768   8.731   7.189  0.3979  0.1258 -0.1860
  316SOL    HW1 7040   1.673   8.730   7.198  0.3325 -1.3960 -0.7756
  316SOL    HW2 7041   1.796   8.803   7.245 -0.9290 -0.8134  1.8208
  317SOL     OW 7042   5.877  10.695   9.385  0.6944  0.0400  0.0019
  317SOL    HW1 7043   5.900  10.604   9.370 -0.1956 -0.3948  1.1159
  317SOL    HW2 7044   5.854  10.729   9.298 -2.5100 -1.8276 -0.0353
  318SOL     OW 7045   4.669  10.580   4.855  0.5848 -0.2612  0.1365
  318SOL    HW1 7046   4.647  10.667   4.821  0.2694  0.3462  1.8054
  318SOL    HW2 7047   4.762  10.569   4.834  0.5326  0.3067 -0.4337
  319SOL     OW 7048   7.125   0.672   5.853 -0.2221  0.3765  0.4393
  319SOL    HW1 7049   7.141   0.634   5.939  0.7792 -0.5885 -0.1396
  319SOL    HW2 7050   7.178   0.619   5.793  2.1676  3.3248 -0.3087
  320SOL     OW 7051   8.602   2.230   1.550 -0.3217 -0.1658  0.6679
  320SOL    HW1 7052   8.601   2.140   1.517  0.2018 -0.0388  0.2970
  320SOL    HW2 7053   8.664   2.228   1.623  0.2046  0.0365  0.2328
  321SOL     OW 7054   2.740   5.644   7.057 -0.5941 -1.1132 -0.1094
  321SOL    HW1 7055   2.782   5.623   7.141 -0.9221 -0.3166  0.2603
  321SOL    HW2 7056   2.648   5.617   7.069 -1.3227  1.5000  0.7984
  322SOL     OW 7057   3.547   2.353   7.693  0.4242  0.2378 -0.0747
  322SOL    HW1 7058   3.517   2.332   7.605 -0.6111  0.3766  0.2374
  322SOL    HW2 7059   3.626   2.300   7.704 -0.5585 -1.3526 -0.3377
  323SOL     OW 7060   7.196   6.538   4.945 -0.4760 -0.0501 -0.3549
  323SOL    HW1 7061   7.249   6.578   5.015 -0.4591  0.3813 -0.6060
  323SOL    HW2 7062   7.259   6.486   4.895 -0.8217 -1.9219  1.0469
  324SOL     OW 7063  10.703   9.736   2.818 -0.2335 -0.2013 -0.2332
  324SOL    HW1 7064  10.610   9.739   2.837 -0.1429 -0.6195  0.3186
  324SOL    HW2 7065  10.742   9.693   2.894  0.1873 -1.6769 -1.2398
  325SOL     OW 7066   6.958   3.363   8.858 -0.7287  0.3469  0.3157
  325SOL    HW1 7067   6.953   3.356   8.953 -0.8870 -0.4611  0.2573
  325SOL    HW2 7068   6.868   3.379   8.830 -0.5338  1.6433  0.3635
  326SOL     OW 7069   5.073   9.167  10.400 -0.1329 -0.1187 -0.4457
  326SOL    HW1 7070   5.096   9.214  10.480  2.2894 -2.4191  0.3671
  326SOL    HW2 7071   5.157   9.152  10.356 -0.8522 -2.6599 -1.1536
  327SOL     OW 7072   9.784   4.056   1.671  0.3280  0.2435 -0.3645
  327SOL    HW1 7073   9.748   3.976   1.709 -2.6210  0.8180 -1.6046
  327SOL    HW2 7074   9.730   4.072   1.593 -0.2181  4.1048  0.5628
  328SOL     OW 7075   8.050   5.489   8.990  0.3567  0.1446  0.3389
  328SOL    HW1 7076   8.143   5.508   9.000  0.6686 -1.0812 -0.0909
  328SOL    HW2 7077   8.036   5.487   8.896  0.2801 -1.4262  0.3722
  329SOL     OW 7078   4.534   6.892   0.738  0.1961  0.1060 -0.4979
  329SOL    HW1 7079   4.453   6.900   0.787 -0.1680 -0.2245 -1.0389
  329SOL    HW2 7080   4.570   6.807   0.764  0.8431  0.6389  0.4291
  330SOL     OW 7081   6.676   8.539  10.137 -0.1478 -0.3015 -0.3905
  330SOL    HW1 7082   6.661   8.560  10.045  0.7460  1.3885 -0.1976
  330SOL    HW2 7083   6.655   8.620  10.184  0.0796 -0.9211  0.8225
  331SOL     OW 7084   5.746   2.589   1.396 -0.6485  0.5595  1.0408
  331SOL    HW1 7085   5.761   2.660   1.458  1.3899  0.9043  0.2316
  331SOL    HW2 7086   5.736   2.511   1.451 -1.0103  1.1796  1.8733
  332SOL     OW 7087   9.830   2.212   0.952 -0.8408 -0.0484 -0.2774
  332SOL    HW1 7088   9.873   2.287   0.911  0.1674 -0.1573  0.5304
  332SOL    HW2 7089   9.744   2.209   0.911 -0.3505  0.6243 -1.4197
  333SOL     OW 7090   2.290   5.991   3.673  0.9793 -0.0813 -0.1459
  333SOL    HW1 7091   2.320   6.053   3.739  1.2466  0.1739 -0.5010
  333SOL    HW2 7092   2.267   5.912   3.722 -1.1641  0.9145  0.5209
  334SOL     OW 7093   3.642   5.627   8.773  0.1699  0.4336 -0.5032
  334SOL    HW1 7094   3.667   5.712   8.811  2.0115 -0.3943  0.2498
  334SOL    HW2 7095   3.715   5.606   8.714 -0.0962 -0.8031 -0.3995
  335SOL     OW 7096   1.658   4.582   5.831  0.4129  0.5221  0.4180
  335SOL    HW1 7097   1.651   4.598   5.925 -0.0861 -0.0589  0.4856
  335SOL    HW2 7098   1.702   4.497   5.824  0.2650  0.4652  0.1393
  336SOL     OW 7099   8.359   0.589   4.808 -0.1852 -0.0591 -0.6574
  336SOL    HW1 7100   8.416   0.651   4.761 -0.8301  1.3701  0.3594
  336SOL    HW2 7101   8.275   0.634   4.814 -0.6572 -1.0154  0.1844
  337SOL     OW 7102   9.345   8.652   4.457 -0.1742 -0.6989  0.3291
  337SOL    HW1 7103   9.383   8.638   4.543  0.2502 -1.0228  0.0932
  337SOL    HW2 7104   9.419   8.650   4.397 -0.3652  0.3361  0.0374
  338SOL     OW 7105   3.959   1.950   9.769 -0.2514 -0.4451  0.5294
  338SOL    HW1 7106   3.884   2.001   9.737  0.5066  1.2517  1.3424
  338SOL    HW2 7107   3.953   1.956   9.865  1.7307  0.9993  0.6133
  339SOL     OW 7108   5.423   6.672  10.365  0.6371  0.4476 -0.0566
  339SOL    HW1 7109   5.432   6.657  10.271  0.2427  1.7900 -0.3289
  339SOL    HW2 7110   5.330   6.693  10.377  0.2212 -1.6926  0.9562
  340SOL     OW 7111   5.723   7.611   2.186 -0.6518  0.3947 -0.4634
  340SOL    HW1 7112   5.788   7.620   2.116 -1.5296  2.6564 -1.0606
  340SOL    HW2 7113   5.642   7.644   2.147 -1.7351 -0.6250  0.8665
  341SOL     OW 7114   0.586   0.779   5.335  0.2426  0.2587 -0.3498
  341SOL    HW1 7115   0.646   0.852   5.322  0.8170 -0.2089 -0.3898
  341SOL    HW2 7116   0.503   0.819   5.361  0.7406  0.8804  0.2944
  342SOL     OW 7117   1.245   2.917   3.830 -0.5204  0.4247  0.2755
  342SOL    HW1 7118   1.286   2.845   3.877 -1.3404 -0.0089  0.3315
  342SOL    HW2 7119   1.219   2.979   3.899  0.3237  0.8624  0.2168
  343SOL     OW 7120   7.942   9.855   6.592  0.2475 -0.1049  0.1939
  343SOL    HW1 7121   8.001   9.891   6.527 -1.3173  2.5118  0.0752
  343SOL    HW2 7122   7.956   9.910   6.670 -0.2076 -1.0988  0.9980
  344SOL     OW 7123   5.807   0.123   9.083  0.5912  0.1973 -0.2164
  344SOL    HW1 7124   5.853   0.137   9.166  0.4061 -0.3137 -0.0243
  344SOL    HW2 7125   5.856   0.176   9.020 -0.9112  2.9259  0.7060
  345SOL     OW 7126   6.800   5.457   1.103 -0.7425 -0.2944 -0.2222
  345SOL    HW1 7127   6.741   5.454   1.028 -1.0904  0.1469  0.0288
  345SOL    HW2 7128   6.888   5.464   1.065 -0.8057 -1.4561 -0.6048
  346SOL     OW 7129   5.744  10.379   7.265  0.0723 -0.3560 -0.2602
  346SOL    HW1 7130   5.765  10.289   7.289 -0.6594 -0.8589 -1.4205
  346SOL    HW2 7131   5.806  10.400   7.194  0.8986  0.4104  0.6631
  347SOL     OW 7132   3.521   5.602   3.080 -0.1985  0.7671 -0.4228
  347SOL    HW1 7133   3.547   5.537   3.014 -0.5351  0.6915 -0.4820
  347SOL    HW2 7134   3.536   5.687   3.038 -0.8247  0.7143 -0.7564
  348SOL     OW 7135   1.235   8.152   8.995  0.1363 -0.0018 -0.1238
  348SOL    HW1 7136   1.226   8.118   9.084 -0.4024  1.6294  0.4822
  348SOL    HW2 7137   1.256   8.244   9.007 -1.0480  0.5059 -1.6847
  349SOL     OW 7138   8.082   6.713   1.204 -0.6513 -0.7042 -0.1099
  349SOL    HW1 7139   8.143   6.695   1.276  0.8605  0.1253 -1.1249
  349SOL    HW2 7140   8.019   6.775   1.241 -1.6772 -2.4766  1.3166
  350SOL     OW 7141   3.571   3.414   2.314  0.1702  0.1065 -0.1774
  350SOL    HW1 7142   3.496   3.444   2.263 -0.0398 -0.0931  0.0106
  350SOL    HW2 7143   3.627   3.370   2.250  0.8389  1.5160 -0.6002
  351SOL     OW 7144   7.079   5.524   1.093  0.6756  0.2702 -0.7256
  351SOL    HW1 7145   7.070   5.608   1.137 -1.2720  0.1433 -0.8071
  351SOL    HW2 7146   7.143   5.475   1.146  1.5418  1.6260 -0.4739
  352SOL     OW 7147   3.642   8.995  10.669  0.1708 -0.2137 -0.1980
  352SOL    HW1 7148   3.719   8.954  10.629  2.8421  1.7825  2.4455
  352SOL    HW2 7149   3.619   8.935  10.741  0.4990  0.0913  0.1694
  353SOL     OW 7150   7.505   8.991   9.298  0.1947 -0.4953  0.0598
  353SOL    HW1 7151   7.552   8.953   9.224 -3.0104 -1.3606 -1.7570
  353SOL    HW2 7152   7.462   8.917   9.340 -0.6214  0.3499  0.7776
  354SOL     OW 7153   1.380   8.143   3.455  0.1028 -0.2594  0.2594
  354SOL    HW1 7154   1.334   8.130   3.537 -0.7656  0.8558 -0.0193
  354SOL    HW2 7155   1.319   8.113   3.388  0.1174  0.3851 -0.0585
  355SOL     OW 7156   9.960   5.918   5.827  0.2817 -0.2783  0.2425
  355SOL    HW1 7157   9.949   6.007   5.860  0.3141 -0.5143  0.9075
  355SOL    HW2 7158   9.891   5.868   5.870 -1.1056 -0.1733 -1.7478
  356SOL     OW 7159   3.304   1.759   5.303  0.1625  0.0734 -0.9235
  356SOL    HW1 7160   3.264   1.844   5.280 -2.2682 -0.8889 -0.5450
  356SOL    HW2 7161   3.371   1.781   5.367 -1.0444  1.6788 -0.1232
  357SOL     OW 7162   1.501   9.220   2.150  0.2986 -0.0118 -0.3332
  357SOL    HW1 7163   1.437   9.192   2.215 -1.4739  1.2887 -1.4158
  357SOL    HW2 7164   1.579   9.242   2.201 -1.0854  1.1538  1.3975
  358SOL     OW 7165   5.100   3.045   3.913 -0.3042  0.2724 -0.1773
  358SOL    HW1 7166   5.088   3.042   3.818  3.3318  0.4517 -0.7678
  358SOL    HW2 7167   5.092   2.954   3.941 -2.0049  0.2896 -0.5062
  359SOL     OW 7168   3.768   3.610   0.590 -0.1731  0.0388  0.0761
  359SOL    HW1 7169   3.766   3.539   0.526 -1.1277  1.5607 -1.6803
  359SOL    HW2 7170   3.851   3.598   0.636 -0.0644 -1.8823 -0.5215
  360SOL     OW 7171  10.728  10.223  10.718 -0.3784  0.0216  0.4834
  360SOL    HW1 7172  10.809  10.181  10.747 -1.0162  0.1992  2.6859
  360SOL    HW2 7173  10.751  10.266  10.636  1.1708 -1.7737 -0.0958
  361SOL     OW 7174   8.268  10.412  10.752  0.1987  0.0045  0.3903
  361SOL    HW1 7175   8.216  10.403  10.672  0.5005  2.1151 -0.1033
  361SOL    HW2 7176   8.208  10.388  10.823  0.1324 -2.5851 -0.4445
  362SOL     OW 7177   7.027  10.597   9.673  0.2570  0.0264 -0.1606
  362SOL    HW1 7178   6.991  10.640   9.595  0.3932 -0.2562 -0.3823
  362SOL    HW2 7179   7.027  10.665   9.741  0.1498  0.2773 -0.4119
  363SOL     OW 7180   1.942   6.577   1.563 -0.0716  0.0958 -0.3297
  363SOL    HW1 7181   1.863   6.607   1.517  1.5948  1.8308 -2.2798
  363SOL    HW2 7182   1.929   6.604   1.654 -1.4865  0.8804 -0.7299
  364SOL     OW 7183   9.825   1.172   5.402 -0.1380  0.3573 -0.0280
  364SOL    HW1 7184   9.811   1.248   5.346  2.8194  0.4318 -0.7977
  364SOL    HW2 7185   9.791   1.098   5.351 -3.2327  1.0356  0.8134
  365SOL     OW 7186   0.665   8.354   4.019 -0.3515 -0.0019  0.0860
  365SOL    HW1 7187   0.614   8.273   4.029 -1.7279  0.9739  1.2295
  365SOL    HW2 7188   0.732   8.348   4.086 -2.2002  1.0483  2.1280
  366SOL     OW 7189  10.199   9.798  10.131 -0.2594  0.1700 -0.6896
  366SOL    HW1 7190  10.223   9.850  10.055 -0.5193 -0.6153 -1.3231
  366SOL    HW2 7191  10.161   9.718  10.095 -0.1862 -0.3127  0.2607
  367SOL     OW 7192   8.554   4.713   9.752  0.0611  0.6067  0.4367
  367SOL    HW1 7193   8.464   4.702   9.781 -0.4497 -0.2968 -1.3680
  367SOL    HW2 7194   8.577   4.629   9.713  1.3925  1.1067  0.0823
  368SOL     OW 7195   1.524   3.007   7.911 -0.3188  0.0693  0.4070
  368SOL    HW1 7196   1.592   2.952   7.952 -1.2503 -1.2029  0.3128
  368SOL    HW2 7197   1.571   3.086   7.885  0.7070  0.1090  2.1666
  369SOL     OW 7198   6.007   5.697   2.056 -0.0510  0.4246 -0.2587
  369SOL    HW1 7199   5.936   5.659   2.005 -0.1996 -0.6780  0.7168
  369SOL    HW2 7200   5.974   5.782   2.084 -0.4197  0.5333 -0.9953
  370SOL     OW 7201   4.919  10.927   6.319 -0.3010 -0.4005 -0.5968
  370SOL    HW1 7202   4.834  10.961   6.346  0.6604  2.5866 -1.0091
  370SOL    HW2 7203   4.918  10.835   6.347 -3.0192 -0.0436  0.8085
  371SOL     OW 7204   7.745   4.767   6.210 -0.0327 -0.0910  0.2395
  371SOL    HW1 7205   7.744   4.694   6.271 -1.2635  0.7437  1.2883
  371SOL    HW2 7206   7.832   4.766   6.171  0.4256 -1.2745  1.2432
  372SOL     OW 7207   8.503   9.962   4.516 -0.8433  0.3109 -0.2393
  372SOL    HW1 7208   8.408   9.959   4.526 -0.8473 -1.2909 -0.6197
  372SOL    HW2 7209   8.517   9.961   4.422 -0.4542  2.3103 -0.2603
  373SOL     OW 7210   0.599   8.582   2.189  0.1397 -0.1941  0.1024
  373SOL    HW1 7211   0.577   8.489   2.183 -0.5825  0.0308 -1.0309
  373SOL    HW2 7212   0.543   8.615   2.259  0.0663 -0.5196  0.2014
  374SOL     OW 7213   3.779   0.516   5.005 -0.1904  0.2355 -0.5686
  374SOL    HW1 7214   3.684   0.510   5.009 -0.4018 -0.8902 -3.9380
  374SOL    HW2 7215   3.797   0.607   4.982 -0.6055  0.0443 -1.6926
  375SOL     OW 7216   0.007   5.762   1.110  0.3282 -0.0597  0.0360
  375SOL    HW1 7217  -0.050   5.709   1.053  0.0382  1.5873 -1.2784
  375SOL    HW2 7218  -0.052   5.824   1.153  0.5614 -1.1711  2.1079
  376SOL     OW 7219  10.066   9.575   6.335 -0.8240  0.0842 -0.7348
  376SOL    HW1 7220  10.156   9.587   6.305  0.1201 -2.4711  0.7352
  376SOL    HW2 7221  10.017   9.645   6.294  1.2261 -0.3187 -4.2265
  377SOL     OW 7222   3.349   7.143   2.991  0.1807 -0.3021  0.3608
  377SOL    HW1 7223   3.391   7.194   2.922  0.3316 -0.1997  0.5281
  377SOL    HW2 7224   3.389   7.056   2.985  0.4372 -0.1967  0.5394
  378SOL     OW 7225   5.837   5.961   9.890  0.0262  0.0957 -0.2985
  378SOL    HW1 7226   5.882   5.983   9.809 -0.4429 -1.6957 -1.0977
  378SOL    HW2 7227   5.835   5.865   9.891  0.7605  0.0294  2.2641
  379SOL     OW 7228   0.621   0.031   6.221  0.4172  0.2669  0.7250
  379SOL    HW1 7229   0.682   0.104   6.220 -0.2285  0.9625 -2.6454
  379SOL    HW2 7230   0.629  -0.008   6.133 -0.3979 -2.7582  1.8552
  380SOL     OW 7231   1.559   2.496   3.939  0.1541  0.2456  0.9847
  380SOL    HW1 7232   1.562   2.470   4.031 -0.3952  0.8853  1.1970
  380SOL    HW2 7233   1.650   2.513   3.915  0.6008 -2.1193  0.7364
  381SOL     OW 7234   1.370   9.504   3.263  0.8818  0.3708 -0.8686
  381SOL    HW1 7235   1.362   9.454   3.182 -1.1426  0.7612 -0.9613
  381SOL    HW2 7236   1.447   9.467   3.307 -0.2841 -2.6152 -1.0892
  382SOL     OW 7237   7.268   9.512   2.513 -0.1886  0.1079  0.1232
  382SOL    HW1 7238   7.190   9.460   2.529 -0.9387  1.2321  0.2549
  382SOL    HW2 7239   7.338   9.448   2.501 -1.1923 -0.9318 -0.3561
  383SOL     OW 7240   0.289  10.230   7.407  0.4415 -0.1252 -0.1924
  383SOL    HW1 7241   0.355  10.243   7.475 -0.4706  0.3821  0.6184
  383SOL    HW2 7242   0.302  10.302   7.346  0.8262 -0.1988 -0.1974
  384SOL     OW 7243   8.917  10.098   1.061 -0.4676  0.4202 -0.5863
  384SOL    HW1 7244   8.920  10.160   0.989  0.0702 -0.6352 -1.5039
  384SOL    HW2 7245   8.940  10.149   1.138  0.5161  1.2483 -1.4076
  385SOL     OW 7246   4.260   8.755   5.661 -0.5871 -0.3228 -0.4223
  385SOL    HW1 7247   4.188   8.701   5.693 -0.0792 -2.4710 -2.6174
  385SOL    HW2 7248   4.247   8.759   5.567  2.1020 -0.7073 -0.8818
  386SOL     OW 7249   5.557   8.108   0.799  0.3343  0.2392  0.0927
  386SOL    HW1 7250   5.552   8.017   0.828 -2.0259  0.8184  1.7948
  386SOL    HW2 7251   5.570   8.158   0.879  1.9518  1.4227 -0.8548
  387SOL     OW 7252   7.662   8.435   7.610  0.0063  0.0165 -0.1540
  387SOL    HW1 7253   7.651   8.477   7.524  1.7490 -1.1978 -1.0213
  387SOL    HW2 7254   7.675   8.343   7.590 -1.2998 -0.5852  1.5714
  388SOL     OW 7255   2.031   4.089  10.632  0.2548  0.4199 -0.5949
  388SOL    HW1 7256   2.116   4.063  10.595  0.5059 -0.5278  0.6151
  388SOL    HW2 7257   1.983   4.007  10.643  0.0589  0.7100  0.8484
  389SOL     OW 7258   4.020   5.253   8.737  0.5794  0.2094 -0.4793
  389SOL    HW1 7259   3.957   5.195   8.695 -0.8267  2.0544 -1.0136
  389SOL    HW2 7260   4.075   5.194   8.789 -1.0018 -1.5492 -0.6933
  390SOL     OW 7261   9.585   8.867   3.269 -0.1717 -0.5452 -0.0927
  390SOL    HW1 7262   9.600   8.794   3.329 -1.8302 -1.0842 -0.2736
  390SOL    HW2 7263   9.559   8.826   3.187 -0.5481  0.2356 -0.3745
  391SOL     OW 7264   8.251  10.865   2.042 -0.1746 -0.2756 -0.1232
  391SOL    HW1 7265   8.180  10.929   2.032 -1.4261 -1.3562  1.3249
  391SOL    HW2 7266   8.278  10.874   2.134  0.5605 -0.9060 -0.2689
  392SOL     OW 7267   4.207   1.959   4.142 -0.1258 -0.2203  0.0353
  392SOL    HW1 7268   4.176   1.869   4.142 -2.6464  0.5645 -0.6370
  392SOL    HW2 7269   4.235   1.976   4.053 -0.5739 -0.0697 -0.0805
  393SOL     OW 7270   0.475   7.826  10.429 -0.2341  0.0344 -0.3511
  393SOL    HW1 7271   0.470   7.736  10.397  1.0861 -0.0298 -0.4249
  393SOL    HW2 7272   0.492   7.879  10.351  1.5350  0.0415 -0.0009
  394SOL     OW 7273   8.727   4.746   8.330 -0.1873  0.0584 -0.0586
  394SOL    HW1 7274   8.718   4.779   8.419  0.1710  1.0093 -0.3569
  394SOL    HW2 7275   8.820   4.757   8.309 -0.2111 -0.4195 -0.4504
  395SOL     OW 7276   1.398   2.067   6.963  0.0074 -0.8452 -0.8995
  395SOL    HW1 7277   1.366   1.979   6.942 -0.2193 -0.9405 -0.1753
  395SOL    HW2 7278   1.458   2.053   7.037 -0.7103 -0.2902 -0.2004
  396SOL     OW 7279   9.364   7.501   4.462 -0.3346 -0.2805  0.6632
  396SOL    HW1 7280   9.437   7.512   4.523  0.0208  0.7157  0.0860
  396SOL    HW2 7281   9.293   7.554   4.499 -0.5084 -0.6180  0.8170
  397SOL     OW 7282   9.906   6.193   0.735 -0.2014  0.4988 -0.2715
  397SOL    HW1 7283   9.838   6.127   0.746 -1.5325  1.4756 -2.1573
  397SOL    HW2 7284   9.966   6.155   0.671 -0.9386  1.0740 -1.3162
  398SOL     OW 7285   9.403   9.128   5.318 -0.2079 -0.2014 -0.1010
  398SOL    HW1 7286   9.467   9.173   5.374 -0.3123  0.8813 -0.8234
  398SOL    HW2 7287   9.334   9.101   5.378  0.0824  0.1962  0.4232
  399SOL     OW 7288   1.968  10.341  10.538 -0.1785  0.0244 -0.4403
  399SOL    HW1 7289   1.938  10.376  10.621  0.3174 -0.1167 -0.1946
  399SOL    HW2 7290   2.061  10.321  10.553 -0.1956 -0.4074 -0.8907
  400SOL     OW 7291   2.727   6.718   7.132 -0.0381  0.0241 -0.2364
  400SOL    HW1 7292   2.647   6.769   7.117  0.0008  0.5072  1.0150
  400SOL    HW2 7293   2.715   6.638   7.081  0.0139  1.3572 -2.4865
  401SOL     OW 7294   7.481   4.227   0.118 -0.2323  0.1088 -0.0240
  401SOL    HW1 7295   7.446   4.244   0.206  1.7032  1.0708  0.6131
  401SOL    HW2 7296   7.449   4.301   0.066  0.5167  0.7957  0.4647
  402SOL     OW 7297   6.812   3.803   5.302 -0.2441  0.5463 -0.7380
  402SOL    HW1 7298   6.849   3.751   5.374  0.3115  1.4887 -0.3090
  402SOL    HW2 7299   6.724   3.769   5.289 -0.5149  0.6399  0.7045
  403SOL     OW 7300   7.955   7.752   1.508 -0.3611 -0.4113  0.1799
  403SOL    HW1 7301   7.888   7.807   1.468  0.1565  1.2196  1.4161
  403SOL    HW2 7302   7.944   7.666   1.467 -2.6958 -0.0073 -0.1728
  404SOL     OW 7303   9.581  10.479   0.263 -0.0502  0.4962  0.0149
  404SOL    HW1 7304   9.512  10.426   0.221 -0.0145 -0.8127  1.5140
  404SOL    HW2 7305   9.663  10.438   0.234 -0.0328 -0.8557  1.7846
  405SOL     OW 7306   6.909   3.750   5.912 -0.0265 -0.3552 -0.0080
  405SOL    HW1 7307   6.874   3.780   5.828 -1.2118 -3.2349 -0.6551
  405SOL    HW2 7308   6.832   3.742   5.969  0.6723  0.8620  1.1768
  406SOL     OW 7309   8.860   8.952   2.709  0.5861 -0.3071 -0.1085
  406SOL    HW1 7310   8.797   9.011   2.749 -0.9141 -1.3887 -0.7725
  406SOL    HW2 7311   8.945   8.992   2.727 -0.2730  1.2363  0.7550
  407SOL     OW 7312  10.780   9.433   2.518  0.0591 -0.2640  0.1803
  407SOL    HW1 7313  10.842   9.497   2.552 -0.2787 -0.5769  1.4325
  407SOL    HW2 7314  10.702   9.484   2.498  1.3872  0.5750 -3.6981
  408SOL     OW 7315   3.932   9.440   8.946  0.2959  0.3467 -0.1697
  408SOL    HW1 7316   3.899   9.529   8.963 -1.0090 -0.0412 -0.5461
  408SOL    HW2 7317   3.887   9.413   8.866 -0.0126 -0.9909  0.4285
  409SOL     OW 7318   5.514   0.988   8.763  0.3116  0.1203 -0.3492
  409SOL    HW1 7319   5.568   1.019   8.835  1.1859 -2.5221  0.2399
  409SOL    HW2 7320   5.571   0.990   8.687 -0.1776  1.5378 -0.7122
  410SOL     OW 7321   1.831   9.126   4.261 -0.0541 -0.3620  0.1631
  410SOL    HW1 7322   1.792   9.059   4.205  0.0178  0.8535 -1.3938
  410SOL    HW2 7323   1.756   9.168   4.304 -0.3464  0.5345 -1.1704
  411SOL     OW 7324  10.814   2.731   4.493 -0.3120  0.0798  0.2082
  411SOL    HW1 7325  10.733   2.680   4.495 -0.2547  0.0063  0.9568
  411SOL    HW2 7326  10.786   2.822   4.496 -0.3634  0.0549  0.4382
  412SOL     OW 7327   2.968  10.128   2.943 -0.1179 -0.4336 -0.1511
  412SOL    HW1 7328   2.898  10.184   2.977  0.4723  0.5133 -0.4425
  412SOL    HW2 7329   3.048  10.163   2.982  0.3263 -0.7283 -0.7765
  413SOL     OW 7330  10.374   9.140   8.867 -0.9447 -0.0251  0.3455
  413SOL    HW1 7331  10.351   9.223   8.825  0.3314  1.1118  1.7704
  413SOL    HW2 7332  10.380   9.162   8.960  0.7309 -1.4297  0.6074
  414SOL     OW 7333  10.752   4.743   8.303  0.3374 -0.4738 -0.5063
  414SOL    HW1 7334  10.755   4.816   8.365 -1.1713  0.8526 -1.8823
  414SOL    HW2 7335  10.843   4.714   8.294  0.7737  0.2971  1.1369
  415SOL     OW 7336   5.742   4.219   1.370 -0.0963 -0.3959 -0.2976
  415SOL    HW1 7337   5.805   4.148   1.356 -0.3239 -0.5213 -0.6850
  415SOL    HW2 7338   5.710   4.206   1.459 -0.1971 -0.8258 -0.3967
  416SOL     OW 7339   6.866   6.332  10.671 -0.0816 -0.3035  0.0010
  416SOL    HW1 7340   6.892   6.371  10.588  0.1899  1.0326  0.6807
  416SOL    HW2 7341   6.818   6.253  10.647  0.4888 -0.2552 -1.4016
  417SOL     OW 7342   8.185   3.662   8.100 -0.1577  0.6201 -0.3826
  417SOL    HW1 7343   8.180   3.608   8.179  1.5826  0.2848 -0.4612
  417SOL    HW2 7344   8.147   3.746   8.126 -1.4787 -0.1310  0.1933
  418SOL     OW 7345   9.207   7.823   9.551 -0.3209  0.4769 -0.4957
  418SOL    HW1 7346   9.121   7.852   9.582 -0.3560  1.7793 -1.7379
  418SOL    HW2 7347   9.201   7.827   9.456  0.8126 -0.3871 -0.6323
  419SOL     OW 7348   7.268   7.176   4.857  0.2358  0.6456 -0.7207
  419SOL    HW1 7349   7.324   7.159   4.781  0.6496 -0.2040 -0.2306
  419SOL    HW2 7350   7.182   7.141   4.830  0.4885 -0.0530 -0.6402
  420SOL     OW 7351  10.122   9.872   3.180 -0.3807 -0.3370 -0.0897
  420SOL    HW1 7352  10.209   9.910   3.165 -0.4108  0.4801  1.6188
  420SOL    HW2 7353  10.063   9.947   3.182 -1.0487 -0.8341 -0.5821
  421SOL     OW 7354   4.228   8.802   6.649 -0.7638  0.0509 -0.1177
  421SOL    HW1 7355   4.224   8.719   6.601 -1.6553 -0.1884  0.3457
  421SOL    HW2 7356   4.210   8.779   6.740 -0.3471  0.6692  0.1322
  422SOL     OW 7357   1.341   3.032   6.693 -0.4542 -0.4490  0.2596
  422SOL    HW1 7358   1.399   3.099   6.730  0.4304 -1.2382  0.3454
  422SOL    HW2 7359   1.383   3.009   6.609 -1.6513  0.2846 -0.5653
  423SOL     OW 7360   1.666   1.463   5.251 -0.2836  0.2721  0.8224
  423SOL    HW1 7361   1.757   1.482   5.229 -0.4794 -0.5127 -0.8948
  423SOL    HW2 7362   1.668   1.432   5.341  0.9956  1.2294  1.1544
  424SOL     OW 7363   0.122   0.257   3.989  0.1098 -0.0512 -0.4372
  424SOL    HW1 7364   0.111   0.215   3.904 -2.5998 -1.0863  0.3082
  424SOL    HW2 7365   0.034   0.259   4.026  1.2143  0.1454  2.4512
  425SOL     OW 7366   4.804   2.759   4.472  0.2654  0.3966 -0.2119
  425SOL    HW1 7367   4.794   2.676   4.519 -1.3997 -0.3310 -1.7243
  425SOL    HW2 7368   4.758   2.823   4.527  2.3999  0.5926  1.4591
  426SOL     OW 7369   2.324   4.052   3.747  0.3432 -0.5116 -0.3312
  426SOL    HW1 7370   2.377   4.101   3.810 -2.5013  0.1290  1.7838
  426SOL    HW2 7371   2.265   4.117   3.709 -1.7677 -1.7660  0.5961
  427SOL     OW 7372   9.730   9.482   6.776 -0.0977 -0.5693 -0.2986
  427SOL    HW1 7373   9.712   9.575   6.788 -0.2499 -0.8341  1.8288
  427SOL    HW2 7374   9.822   9.471   6.801  0.3103 -0.8129 -1.7895
  428SOL     OW 7375   1.311   8.119   6.645 -0.2006 -0.6980  0.1731
  428SOL    HW1 7376   1.260   8.051   6.601  0.3185 -0.6765 -0.4872
  428SOL    HW2 7377   1.252   8.193   6.652 -0.6557 -1.0966  0.5602
  429SOL     OW 7378   1.030  10.011   4.896 -0.7424  0.0174 -0.2312
  429SOL    HW1 7379   0.984   9.945   4.948 -0.0159  0.8282  1.5221
  429SOL    HW2 7380   1.021  10.092   4.947  2.1645  0.3044 -0.0182
  430SOL     OW 7381   0.757   1.972   1.271  0.2558  0.1982  0.4418
  430SOL    HW1 7382   0.709   1.923   1.338  0.7713  0.3759  0.9528
  430SOL    HW2 7383   0.726   2.062   1.283  0.4409  0.2503  0.5254
  431SOL     OW 7384   5.100   5.875   7.467  0.2186 -0.2119  0.0080
  431SOL    HW1 7385   5.172   5.815   7.448  0.5636  0.1577  0.1371
  431SOL    HW2 7386   5.132   5.961   7.438  0.4097  0.2173  1.4480
  432SOL     OW 7387   3.041   8.268   6.868 -0.3204 -0.0106 -0.5848
  432SOL    HW1 7388   3.109   8.259   6.801 -0.5161 -1.9842 -0.5721
  432SOL    HW2 7389   3.001   8.181   6.873 -0.6713  0.2405  1.7123
  433SOL     OW 7390   7.402   5.144   5.190 -0.1166 -0.7097 -0.2568
  433SOL    HW1 7391   7.368   5.233   5.185 -2.1463 -1.4149  0.1143
  433SOL    HW2 7392   7.481   5.145   5.136 -0.0251  1.3330 -0.1379
  434SOL     OW 7393   6.053   8.394   7.930 -0.3814 -0.2538  0.0381
  434SOL    HW1 7394   5.983   8.342   7.970 -0.2413 -2.0671 -1.9150
  434SOL    HW2 7395   6.018   8.419   7.845  1.1267 -0.7452 -0.7510
  435SOL     OW 7396   0.221   0.416   0.694  0.0518  0.1717 -0.3002
  435SOL    HW1 7397   0.219   0.327   0.730  3.4678  0.2478  0.4638
  435SOL    HW2 7398   0.291   0.414   0.630 -1.3658  1.8134 -1.9928
  436SOL     OW 7399   1.691   3.243   4.585 -0.2487  0.1348  0.0170
  436SOL    HW1 7400   1.724   3.191   4.658 -0.7435 -1.2800 -0.7457
  436SOL    HW2 7401   1.756   3.231   4.515  0.4176  1.7795  0.3010
  437SOL     OW 7402   3.644   3.114   1.464  0.1865 -0.7341 -0.5236
  437SOL    HW1 7403   3.653   3.058   1.387  0.9173 -0.3110 -0.7620
  437SOL    HW2 7404   3.560   3.159   1.452  0.2404 -0.7643 -1.0121
  438SOL     OW 7405   5.707  10.017   2.067 -0.2402  0.8192  0.1008
  438SOL    HW1 7406   5.777   9.962   2.102  0.4061  1.8144  0.4347
  438SOL    HW2 7407   5.722  10.103   2.107 -2.0704  0.8945  0.7255
  439SOL     OW 7408   5.410   5.137  10.357  0.0539  0.6629 -0.0327
  439SOL    HW1 7409   5.443   5.225  10.339 -0.5510  1.0089  0.5260
  439SOL    HW2 7410   5.413   5.092  10.272  1.4153  0.8525 -0.1136
  440SOL     OW 7411   6.398   5.242   3.378  0.0107  0.6961  0.5693
  440SOL    HW1 7412   6.353   5.296   3.313  0.3134 -0.6566 -0.8357
  440SOL    HW2 7413   6.334   5.175   3.402  0.2792  0.5229  0.8093
  441SOL     OW 7414   2.319   7.066   2.406 -0.0800 -0.3115  0.7560
  441SOL    HW1 7415   2.267   7.133   2.450 -0.6971  0.8886 -1.6319
  441SOL    HW2 7416   2.275   6.984   2.427 -1.4877  0.4249  0.8407
  442SOL     OW 7417   2.700   9.834   5.766 -0.2457  0.5452 -0.0821
  442SOL    HW1 7418   2.789   9.807   5.786 -1.2953 -3.2251  0.2402
  442SOL    HW2 7419   2.664   9.860   5.851  0.2517  1.1777 -0.0581
  443SOL     OW 7420   3.317   9.341   7.866 -0.1762  0.3773 -0.0921
  443SOL    HW1 7421   3.242   9.295   7.902  0.1148 -0.7309 -0.8484
  443SOL    HW2 7422   3.360   9.380   7.942 -1.3695  0.8282  0.3679
  444SOL     OW 7423   6.623   6.919   7.412  0.1366  0.8348  0.3126
  444SOL    HW1 7424   6.561   6.932   7.340 -0.4033 -0.0931  0.5901
  444SOL    HW2 7425   6.568   6.919   7.491  0.1763 -2.0065  0.4157
  445SOL     OW 7426   5.053   0.254  10.608  0.2480  0.6023 -0.3847
  445SOL    HW1 7427   5.013   0.226  10.690  1.2634  0.9433  0.2472
  445SOL    HW2 7428   5.031   0.186  10.545  1.0260 -0.6175  0.6278
  446SOL     OW 7429   8.286   3.881   7.147  0.0250  0.2703  0.0873
  446SOL    HW1 7430   8.266   3.852   7.236  0.4473 -1.0395 -0.2245
  446SOL    HW2 7431   8.382   3.876   7.140 -0.1106 -3.1529 -1.5009
  447SOL     OW 7432   8.520  10.229   5.215 -0.2721 -0.2494 -0.1812
  447SOL    HW1 7433   8.444  10.283   5.236  0.7715  1.0610  0.3748
  447SOL    HW2 7434   8.561  10.272   5.140  0.4835 -0.3381  0.1650
  448SOL     OW 7435  10.206   9.181  10.428 -0.2430  0.6758  0.0368
  448SOL    HW1 7436  10.125   9.143  10.394  1.0023 -2.1385 -0.1180
  448SOL    HW2 7437  10.207   9.153  10.520  1.0053 -0.2290 -0.2359
  449SOL     OW 7438   6.903   1.322   9.082  0.0821  0.3624 -0.3145
  449SOL    HW1 7439   6.932   1.318   9.173 -1.6309 -0.1578  0.2468
  449SOL    HW2 7440   6.837   1.253   9.074 -3.1162  3.1660 -0.6530
  450SOL     OW 7441   5.998   6.600   3.507  0.6329 -0.0781  0.6923
  450SOL    HW1 7442   6.055   6.676   3.498 -0.2215  0.6304  1.0538
  450SOL    HW2 7443   5.911   6.632   3.480 -0.1774 -0.3287  2.7931
  451SOL     OW 7444   2.295   5.272   7.636  0.9934  0.4735 -0.2737
  451SOL    HW1 7445   2.297   5.198   7.577 -1.1298  0.0658  0.0740
  451SOL    HW2 7446   2.274   5.347   7.580 -0.0916  0.2420 -0.1974
  452SOL     OW 7447  10.849  10.737   3.176  0.2586 -0.1978 -0.3953
  452SOL    HW1 7448  10.923  10.677   3.171  0.0218 -0.3894 -2.5144
  452SOL    HW2 7449  10.781  10.696   3.122 -1.5738 -0.2205  1.7859
  453SOL     OW 7450   0.551   7.487   5.295 -0.3874 -0.4053  0.1858
  453SOL    HW1 7451   0.498   7.546   5.242  1.1764  0.0723 -0.9383
  453SOL    HW2 7452   0.624   7.541   5.325  0.4925 -1.4812  0.0469
  454SOL     OW 7453   4.595   4.216   1.575 -0.5090  0.3924  0.0409
  454SOL    HW1 7454   4.538   4.171   1.638  2.1672 -2.0213  0.9842
  454SOL    HW2 7455   4.568   4.183   1.490 -1.9481  1.0654  0.2105
  455SOL     OW 7456   3.263   3.890   1.641  0.2451 -0.2680  0.2677
  455SOL    HW1 7457   3.303   3.840   1.712  1.7060 -1.0493 -1.0439
  455SOL    HW2 7458   3.178   3.917   1.675  0.6148 -1.2176  2.0404
  456SOL     OW 7459   8.131   6.538   4.816  0.1695 -0.0780  0.1420
  456SOL    HW1 7460   8.063   6.514   4.753 -0.9821  0.8375  0.9796
  456SOL    HW2 7461   8.176   6.612   4.776  0.7555 -0.7403 -0.4541
  457SOL     OW 7462   8.387   7.973   1.187 -0.4340  0.0921  0.0723
  457SOL    HW1 7463   8.397   8.055   1.234  0.0290 -0.0605  0.2439
  457SOL    HW2 7464   8.334   7.995   1.110 -0.5669  0.4868  0.2769
  458SOL     OW 7465   6.808   3.678   0.909  0.2109 -0.4417  0.0091
  458SOL    HW1 7466   6.859   3.634   0.841 -0.3255 -3.0625  1.1617
  458SOL    HW2 7467   6.717   3.666   0.883  0.0344 -0.6986  0.7085
  459SOL     OW 7468   3.115   3.061   0.962 -0.6985  0.3839  0.1296
  459SOL    HW1 7469   3.153   2.996   1.020  2.3068  2.2323  0.4355
  459SOL    HW2 7470   3.157   3.047   0.878 -2.0171  0.2884 -0.5439
  460SOL     OW 7471   5.844   8.471   5.071 -0.1889  0.2851 -0.1412
  460SOL    HW1 7472   5.914   8.471   5.136  0.2417 -0.5367 -0.5837
  460SOL    HW2 7473   5.850   8.556   5.028  0.3923  0.3073 -0.0175
  461SOL     OW 7474   5.189  10.049   6.600  0.1648  0.4566 -0.9160
  461SOL    HW1 7475   5.148  10.057   6.514  0.6130  0.5870 -1.1259
  461SOL    HW2 7476   5.122  10.012   6.657 -0.2358  0.6698 -1.2486
  462SOL     OW 7477   3.399  10.483   7.415 -0.3632  0.5490  0.0830
  462SOL    HW1 7478   3.475  10.429   7.393  0.1627  0.4133  2.0765
  462SOL    HW2 7479   3.436  10.558   7.461 -1.3662  0.9966  0.1799
  463SOL     OW 7480   5.527   8.990   8.045 -0.4696 -0.2293  0.6735
  463SOL    HW1 7481   5.539   8.902   8.009  3.2767  1.2130 -2.3531
  463SOL    HW2 7482   5.609   9.008   8.091 -1.3430  1.5299  1.6242
  464SOL     OW 7483   4.112  10.627   6.768 -0.2063 -0.0923  0.9780
  464SOL    HW1 7484   4.116  10.679   6.848  2.0443 -0.2480  1.0452
  464SOL    HW2 7485   4.091  10.690   6.699  1.7597  0.8466  1.1638
  465SOL     OW 7486   5.581   0.796   6.498 -0.2443  0.5520 -0.1470
  465SOL    HW1 7487   5.624   0.781   6.414 -0.3320  0.1356 -0.1231
  465SOL    HW2 7488   5.606   0.720   6.551 -0.2261  0.7911  0.1872
  466SOL     OW 7489  10.586   0.991   8.454  0.2950 -0.1693  0.0025
  466SOL    HW1 7490  10.605   1.024   8.542  0.9312 -0.3003 -0.0808
  466SOL    HW2 7491  10.664   1.011   8.403 -0.8802  1.8405 -1.1074
  467SOL     OW 7492   3.045   9.472   7.808  0.2260 -0.0458  0.1058
  467SOL    HW1 7493   3.136   9.449   7.825  0.0197 -0.4851  0.6625
  467SOL    HW2 7494   3.001   9.387   7.797 -0.2674  0.1206  0.7022
  468SOL     OW 7495   5.181   6.228   1.591 -0.3411 -0.3264  1.0095
  468SOL    HW1 7496   5.096   6.272   1.585 -0.4589 -0.4342  1.7662
  468SOL    HW2 7497   5.245   6.298   1.577 -0.5366 -0.5507 -1.4913
  469SOL     OW 7498   3.234   2.463   8.836 -0.3499 -0.4213 -0.3764
  469SOL    HW1 7499   3.174   2.419   8.776 -1.2004 -0.4423  0.4696
  469SOL    HW2 7500   3.183   2.535   8.873 -0.1552 -0.9722  1.0217
  470SOL     OW 7501   6.286   4.511   7.147 -0.4892 -0.0768 -0.5986
  470SOL    HW1 7502   6.372   4.509   7.105 -0.9345  1.1665 -1.6559
  470SOL    HW2 7503   6.305   4.527   7.239  0.4241  0.0814 -0.8038
  471SOL     OW 7504   1.531   0.902   1.285 -0.0867  0.4152  0.1155
  471SOL    HW1 7505   1.476   0.956   1.341 -1.0402 -1.9462  1.6255
  471SOL    HW2 7506   1.493   0.910   1.198 -0.9772  1.1774  0.5621
  472SOL     OW 7507   7.243   3.271   7.736 -0.0874  0.3548  0.0852
  472SOL    HW1 7508   7.299   3.245   7.663  0.6779  0.9929  0.4373
  472SOL    HW2 7509   7.154   3.257   7.704  0.1596  2.3016 -1.6499
  473SOL     OW 7510   6.589  10.559   4.790 -0.6046  0.1100  0.1942
  473SOL    HW1 7511   6.654  10.529   4.726 -0.4451 -0.9192  0.8242
  473SOL    HW2 7512   6.639  10.604   4.857 -0.7999  1.4478 -0.5151
  474SOL     OW 7513   0.426   1.472   9.351  0.1039  0.1865 -0.1181
  474SOL    HW1 7514   0.355   1.463   9.414 -1.1497  1.1921 -1.3258
  474SOL    HW2 7515   0.428   1.389   9.304 -0.5937  0.3150 -0.3816
  475SOL     OW 7516   6.678   8.713  10.511 -0.4437  0.5674  0.3688
  475SOL    HW1 7517   6.662   8.758  10.428 -0.2160  1.2745  0.7097
  475SOL    HW2 7518   6.740   8.643  10.489 -1.3046 -0.0164 -0.2878
  476SOL     OW 7519   3.650   2.776  10.401  0.1650  0.1009 -0.0753
  476SOL    HW1 7520   3.588   2.720  10.448  0.0776  1.1661  1.1423
  476SOL    HW2 7521   3.638   2.752  10.309  0.5475 -2.2566  0.4207
  477SOL     OW 7522   3.432   3.888   1.432  0.0218  0.0207  0.5071
  477SOL    HW1 7523   3.500   3.943   1.471  1.2400 -2.7579  2.7134
  477SOL    HW2 7524   3.360   3.891   1.496 -0.3704 -0.0810  0.0761
  478SOL     OW 7525   3.276   7.604  10.813 -0.3902 -0.4037 -0.1199
  478SOL    HW1 7526   3.365   7.570  10.825 -0.3450 -0.9423 -1.7002
  478SOL    HW2 7527   3.285   7.699  10.823  0.1296 -0.5490  0.9037
  479SOL     OW 7528   7.447   0.686   2.650 -0.3940  0.1668  0.2433
  479SOL    HW1 7529   7.419   0.776   2.667 -0.5632  0.1536  0.0454
  479SOL    HW2 7530   7.514   0.695   2.582 -0.4769  0.1360  0.1577
  480SOL     OW 7531  10.392   8.849   2.439 -0.1956  0.4130 -0.0250
  480SOL    HW1 7532  10.477   8.887   2.460  0.8443 -2.6939  2.3787
  480SOL    HW2 7533  10.353   8.830   2.525 -2.9256  0.8515 -1.0651
  481SOL     OW 7534  10.197   8.668   8.538 -0.2790 -0.0343  0.3381
  481SOL    HW1 7535  10.275   8.619   8.566 -1.5386 -1.9116  0.7605
  481SOL    HW2 7536  10.178   8.726   8.612  0.0584 -0.4035  0.7201
  482SOL     OW 7537   9.125   4.646   9.590  0.2290  0.0315  0.0113
  482SOL    HW1 7538   9.186   4.621   9.521  1.0166 -0.8176  0.9740
  482SOL    HW2 7539   9.178   4.644   9.671 -0.9442 -0.2482  0.7996
  483SOL     OW 7540   3.840   8.177   9.954 -0.1097  0.1172 -0.2278
  483SOL    HW1 7541   3.802   8.185  10.042 -1.3049 -0.3068 -0.6773
  483SOL    HW2 7542   3.886   8.093   9.956  1.3121  0.8735  0.4841
  484SOL     OW 7543  10.132   8.796   1.118 -0.0320 -0.1445 -0.4954
  484SOL    HW1 7544  10.115   8.850   1.041 -0.5907  1.0184  0.4166
  484SOL    HW2 7545  10.046   8.762   1.143  0.1231 -0.3910 -0.2878
  485SOL     OW 7546   7.689   1.592   4.518 -0.1137  0.0904  0.8781
  485SOL    HW1 7547   7.737   1.533   4.460 -0.0554  0.8101  0.1849
  485SOL    HW2 7548   7.714   1.680   4.491 -0.1020  0.4520  1.9881
  486SOL     OW 7549   9.921   4.119   9.324 -0.3579  0.1449  0.5009
  486SOL    HW1 7550   9.955   4.058   9.390 -1.0837  0.2067  0.9487
  486SOL    HW2 7551   9.999   4.160   9.286  0.1587 -1.2885 -0.0392
  487SOL     OW 7552   6.189   6.160   2.126 -0.4682 -0.0303 -0.0461
  487SOL    HW1 7553   6.095   6.171   2.117 -0.8897 -3.2470 -0.9870
  487SOL    HW2 7554   6.210   6.195   2.212 -2.8285 -0.6039  0.8217
  488SOL     OW 7555   5.176   9.108   6.868  0.3724 -0.4530  0.0041
  488SOL    HW1 7556   5.243   9.041   6.881  1.1557  0.1324 -0.9143
  488SOL    HW2 7557   5.119   9.073   6.800  0.7799 -0.1944 -0.4732
  489SOL     OW 7558   8.954   7.378   8.118 -0.2652 -0.4422  0.8954
  489SOL    HW1 7559   8.893   7.317   8.076 -0.1893  0.1596 -0.1305
  489SOL    HW2 7560   8.898   7.442   8.161 -0.4455  0.9451 -1.2543
  490SOL     OW 7561   6.973   2.118   5.147  0.2211 -0.3834  0.5530
  490SOL    HW1 7562   7.066   2.130   5.166  0.2133  0.6335  0.0042
  490SOL    HW2 7563   6.959   2.161   5.062 -0.6914 -0.7417  0.5081
  491SOL     OW 7564   1.527   3.899   7.460 -0.5576 -0.5300  0.1132
  491SOL    HW1 7565   1.493   3.976   7.415  0.2228 -0.9693 -1.3179
  491SOL    HW2 7566   1.559   3.932   7.544 -1.3573  0.4690  0.0444
  492SOL     OW 7567   1.785   4.220   0.038 -0.4711 -0.4407  0.5812
  492SOL    HW1 7568   1.797   4.125   0.049  0.1928 -0.4334  0.0353
  492SOL    HW2 7569   1.718   4.227  -0.030 -0.6542 -0.5173  0.7532
  493SOL     OW 7570   4.717   2.008   0.272 -0.2230  0.4435  0.5174
  493SOL    HW1 7571   4.806   1.997   0.239  0.3397 -0.5200  2.2702
  493SOL    HW2 7572   4.689   2.093   0.237  0.8546  0.1556 -1.1706
  494SOL     OW 7573   8.480   1.294   3.110  0.4344 -0.5151  0.6951
  494SOL    HW1 7574   8.515   1.382   3.101 -2.8708  1.0456  1.6407
  494SOL    HW2 7575   8.447   1.272   3.022 -1.1264  0.3890  1.0142
  495SOL     OW 7576   9.248   1.924   0.185  0.5479 -0.4469  0.4812
  495SOL    HW1 7577   9.256   1.909   0.280  1.5676  0.9631  0.6398
  495SOL    HW2 7578   9.301   2.001   0.168  0.2081 -0.5523 -1.2296
  496SOL     OW 7579  10.009   8.968   0.854  0.0939 -0.0249  0.0926
  496SOL    HW1 7580   9.942   8.931   0.796 -0.4323 -1.3882  1.5040
  496SOL    HW2 7581   9.962   9.034   0.906 -0.3571 -1.3713  1.4743
  497SOL     OW 7582   2.579   0.680   4.217 -0.1680  0.0200 -0.0007
  497SOL    HW1 7583   2.594   0.746   4.150  2.4991  0.2227  0.6894
  497SOL    HW2 7584   2.486   0.657   4.209 -0.2705  1.1319 -2.6990
  498SOL     OW 7585   8.607   4.032   2.940  0.4340  0.2404  0.4375
  498SOL    HW1 7586   8.544   3.978   2.891  0.2260  0.9413 -0.0801
  498SOL    HW2 7587   8.690   3.985   2.932 -0.3442 -1.7369  2.7587
  499SOL     OW 7588   2.360   4.750   1.713 -0.0724 -0.6044  0.7398
  499SOL    HW1 7589   2.372   4.658   1.739  2.7396 -0.0271  1.9015
  499SOL    HW2 7590   2.333   4.745   1.622  0.2936 -2.6199  0.6770
  500SOL     OW 7591   3.040  10.130   0.483  0.1596 -0.3405 -0.5446
  500SOL    HW1 7592   2.976  10.127   0.555  0.4948  1.2241 -0.1433
  500SOL    HW2 7593   3.125  10.132   0.528  0.3515  1.6222 -0.8940
  501SOL     OW 7594   3.227  10.870   2.158 -0.4567  0.4158 -0.1888
  501SOL    HW1 7595   3.264  10.887   2.071  2.4194  1.1432  1.0784
  501SOL    HW2 7596   3.153  10.930   2.164  0.8253  2.1943 -1.2246
  502SOL     OW 7597   2.486   7.784   8.798 -0.4922 -0.1804 -0.5244
  502SOL    HW1 7598   2.411   7.728   8.817 -0.5645  0.2602  0.5857
  502SOL    HW2 7599   2.560   7.739   8.838 -0.4297  0.1566 -0.2597
  503SOL     OW 7600   9.038   3.357   9.550  0.0722  0.0517 -0.6015
  503SOL    HW1 7601   8.958   3.346   9.498  1.2495 -1.3010 -2.2300
  503SOL    HW2 7602   9.085   3.429   9.509  0.1871  0.1426 -0.3142
  504SOL     OW 7603   8.246   7.447   1.478 -0.8284  0.1944  0.4153
  504SOL    HW1 7604   8.211   7.445   1.567 -2.2446  0.0668 -0.1245
  504SOL    HW2 7605   8.207   7.371   1.435 -0.3028  0.3550 -0.3651
  505SOL     OW 7606   4.279   4.315   5.948 -0.0453  0.6352 -0.4365
  505SOL    HW1 7607   4.304   4.294   5.858  1.6956  2.4127 -0.4411
  505SOL    HW2 7608   4.358   4.298   6.000 -0.8162  0.2740  0.6638
  506SOL     OW 7609   7.149   0.099   8.339 -0.4191  0.4830 -0.0430
  506SOL    HW1 7610   7.076   0.041   8.358 -0.0536  0.0588  0.0881
  506SOL    HW2 7611   7.215   0.078   8.405  0.0308  0.4838 -0.4801
  507SOL     OW 7612   0.871   0.529   8.228  0.6992  0.7285 -0.1344
  507SOL    HW1 7613   0.782   0.554   8.252 -0.4879 -2.9155 -0.2063
  507SOL    HW2 7614   0.922   0.540   8.308 -0.1730  1.2797  0.3654
  508SOL     OW 7615   8.756   4.192   5.057 -0.4304  0.0725 -0.4792
  508SOL    HW1 7616   8.809   4.174   5.134  0.4339 -0.1436 -1.1197
  508SOL    HW2 7617   8.809   4.164   4.983 -1.4928 -0.2996 -1.1314
  509SOL     OW 7618   3.216   1.806   9.192 -0.4246  0.1071 -0.3987
  509SOL    HW1 7619   3.128   1.789   9.158 -0.7203 -1.7260  1.1184
  509SOL    HW2 7620   3.202   1.850   9.276  0.0059 -1.2730  0.4377
  510SOL     OW 7621   0.352   9.247   3.855 -0.1773  0.2718 -0.0587
  510SOL    HW1 7622   0.360   9.289   3.770 -2.7876  1.9400  0.3992
  510SOL    HW2 7623   0.336   9.154   3.835 -0.1235  0.5275 -1.3472
  511SOL     OW 7624   5.284   0.899   9.897 -0.3719 -0.6791  0.2479
  511SOL    HW1 7625   5.355   0.844   9.930  0.4499  0.3258  0.2017
  511SOL    HW2 7626   5.213   0.887   9.960 -0.0773 -1.4976  0.4352
  512SOL     OW 7627   2.931   5.543  10.676 -0.2939  0.2865 -0.4420
  512SOL    HW1 7628   2.918   5.477  10.744  0.7160  1.0436  0.5091
  512SOL    HW2 7629   2.880   5.510  10.602 -1.5114 -0.5068  0.6898
  513SOL     OW 7630   7.943   6.394   7.757 -0.3929 -0.3263 -0.3356
  513SOL    HW1 7631   7.990   6.336   7.697 -0.1566 -2.3621  1.6692
  513SOL    HW2 7632   7.855   6.356   7.764 -0.9490  0.8721 -0.6746
  514SOL     OW 7633   7.875  10.736   2.256 -0.7458 -0.5856 -0.4842
  514SOL    HW1 7634   7.818  10.731   2.333  0.8886  0.8604  0.9045
  514SOL    HW2 7635   7.964  10.733   2.292  0.1910  3.9207 -1.8244
  515SOL     OW 7636  10.444   0.155   0.671  0.2835 -0.0674 -0.1791
  515SOL    HW1 7637  10.513   0.192   0.725  2.5996 -0.2860 -2.7674
  515SOL    HW2 7638  10.402   0.230   0.629  1.6771 -0.0254 -1.6140
  516SOL     OW 7639   5.143   3.861   1.177 -0.6763 -0.2399  0.5530
  516SOL    HW1 7640   5.158   3.899   1.090 -3.3707 -0.3152 -0.0435
  516SOL    HW2 7641   5.208   3.903   1.233  0.0620  1.0510 -1.1820
  517SOL     OW 7642   5.274   8.581   8.195  0.0115 -0.4597 -0.2607
  517SOL    HW1 7643   5.266   8.638   8.118  2.3896  0.1280 -0.1409
  517SOL    HW2 7644   5.301   8.640   8.266 -0.9615 -1.1954  0.7738
  518SOL     OW 7645   2.194   2.102   4.092  0.1023  0.1730  0.2040
  518SOL    HW1 7646   2.287   2.090   4.074 -0.3873 -3.3021 -0.8993
  518SOL    HW2 7647   2.175   2.191   4.064  3.0787  1.0307  0.6003
  519SOL     OW 7648   5.886   4.947   5.188  0.2911  0.2080  0.0989
  519SOL    HW1 7649   5.874   4.875   5.125  0.7148 -1.0698  1.4134
  519SOL    HW2 7650   5.852   4.912   5.270 -0.5667  1.9689  0.5339
  520SOL     OW 7651   0.359   5.772   7.093 -0.2013 -0.1381  0.1524
  520SOL    HW1 7652   0.399   5.753   7.178 -1.6277 -1.1533  0.6385
  520SOL    HW2 7653   0.265   5.761   7.107 -0.5048  0.0170 -1.4790
  521SOL     OW 7654   6.944   6.103  10.141 -0.0216 -0.0415  0.3939
  521SOL    HW1 7655   6.854   6.076  10.156 -0.1327  0.1656  0.1217
  521SOL    HW2 7656   6.944   6.197  10.158 -0.0153  0.0853 -0.2870
  522SOL     OW 7657   5.420   5.786   2.839  0.4167 -0.1599  0.6348
  522SOL    HW1 7658   5.347   5.818   2.786  2.3133  2.2431 -0.7785
  522SOL    HW2 7659   5.449   5.706   2.795 -0.2491 -0.1523  0.1708
  523SOL     OW 7660  10.233   9.995   1.122  0.3018  0.3905  0.1897
  523SOL    HW1 7661  10.273   9.913   1.151  0.2357  0.0711 -0.5846
  523SOL    HW2 7662  10.286  10.021   1.046 -1.3047 -0.3426 -1.2240
  524SOL     OW 7663   2.179   8.153   1.211  0.1097  0.1043 -0.4804
  524SOL    HW1 7664   2.180   8.067   1.169  1.6693  0.5006 -1.3400
  524SOL    HW2 7665   2.173   8.134   1.305 -0.8699 -0.8759 -0.7182
  525SOL     OW 7666   5.836   7.412   9.899 -0.0757  0.0180 -0.0369
  525SOL    HW1 7667   5.749   7.375   9.879  0.2702 -0.8161 -0.0412
  525SOL    HW2 7668   5.862   7.456   9.819 -1.6436  2.6626  0.7795
  526SOL     OW 7669   7.925   5.919   1.435  0.2791 -0.4426 -0.1342
  526SOL    HW1 7670   7.920   5.845   1.495 -0.9118 -0.3575 -0.1102
  526SOL    HW2 7671   8.011   5.958   1.453 -0.0801 -0.3669  1.5755
  527SOL     OW 7672   4.195   2.508  10.395 -0.4636  0.1449  0.2549
  527SOL    HW1 7673   4.155   2.520  10.309 -1.6445  1.1050  0.8973
  527SOL    HW2 7674   4.248   2.587  10.408  0.4706 -0.4296  0.0365
  528SOL     OW 7675   8.036   9.783   7.717  0.1573 -0.3079 -0.0853
  528SOL    HW1 7676   8.114   9.837   7.704 -0.0508 -0.1458 -0.7101
  528SOL    HW2 7677   7.977   9.809   7.647 -1.6780  1.7005  2.0597
  529SOL     OW 7678  10.841   9.133  10.693  0.0345  0.3556 -0.1500
  529SOL    HW1 7679  10.864   9.202  10.756 -1.7530 -0.7194  1.7877
  529SOL    HW2 7680  10.922   9.083  10.682  0.4514  0.7074  1.1306
  530SOL     OW 7681   0.045   3.429   0.296 -0.1815  0.2004 -0.2965
  530SOL    HW1 7682  -0.012   3.420   0.372  1.9173 -0.7243  1.2779
  530SOL    HW2 7683   0.053   3.524   0.284 -0.8556  0.3572  0.3975
  531SOL     OW 7684   7.725   7.894   1.360  0.0800  0.0433 -0.1250
  531SOL    HW1 7685   7.752   7.852   1.279 -0.3237 -1.5673  0.5351
  531SOL    HW2 7686   7.639   7.931   1.341  0.4164  0.5457 -0.7008
  532SOL     OW 7687   9.510   0.071  10.705  0.2069 -0.0487  0.0074
  532SOL    HW1 7688   9.479   0.105  10.621  1.1379 -0.5843 -0.5747
  532SOL    HW2 7689   9.583   0.014  10.682  0.5596 -0.1055  1.1982
  533SOL     OW 7690   4.419   1.753  10.168 -0.1313 -0.5012 -0.7834
  533SOL    HW1 7691   4.479   1.770  10.240  0.0510  1.9506 -1.4222
  533SOL    HW2 7692   4.403   1.659  10.172  0.0072 -0.4881  2.3134
  534SOL     OW 7693   8.895   8.106  10.007  0.3578 -1.2872  0.2385
  534SOL    HW1 7694   8.974   8.115  10.061  1.0347 -1.8685 -0.6196
  534SOL    HW2 7695   8.923   8.133   9.920 -1.4213  2.4513  0.6256
  535SOL     OW 7696   8.362   3.797   7.660  0.6914  0.1366 -0.1546
  535SOL    HW1 7697   8.444   3.750   7.675  0.9382  1.0798  1.8574
  535SOL    HW2 7698   8.302   3.760   7.725 -0.5328 -0.5619 -1.6209
  536SOL     OW 7699   3.959   5.387   1.776  0.5954 -0.2456  0.4063
  536SOL    HW1 7700   3.969   5.413   1.868  1.7984  0.4020  0.1211
  536SOL    HW2 7701   3.868   5.406   1.756  1.0662  2.7621  0.5836
  537SOL     OW 7702   1.679   7.218   1.747  0.6460  0.1567  0.2473
  537SOL    HW1 7703   1.693   7.216   1.653  3.1413 -1.1675  0.5696
  537SOL    HW2 7704   1.607   7.157   1.762  0.1891  0.4169 -0.7626
  538SOL     OW 7705   6.865   9.890   7.239 -0.5917  0.0860 -0.0497
  538SOL    HW1 7706   6.892   9.818   7.182 -1.2971 -2.5020  2.6648
  538SOL    HW2 7707   6.787   9.859   7.283  0.4219  1.5014  3.0350
  539SOL     OW 7708   4.330   1.147  10.882 -0.4684  0.2841 -0.3392
  539SOL    HW1 7709   4.293   1.171  10.797 -1.1308 -0.1158 -0.1737
  539SOL    HW2 7710   4.416   1.111  10.861 -0.5013  0.4659 -0.8119
  540SOL     OW 7711   6.028   2.706   7.813  0.4130 -0.8183 -0.5541
  540SOL    HW1 7712   6.007   2.800   7.818 -0.2651 -1.0207  1.8664
  540SOL    HW2 7713   6.123   2.703   7.822  0.6037 -0.3371 -2.0738
  541SOL     OW 7714   7.870   1.029   9.841 -0.2929 -0.2739 -0.5532
  541SOL    HW1 7715   7.847   1.026   9.934  0.6199  0.1695 -0.2939
  541SOL    HW2 7716   7.795   1.070   9.799  0.0486  1.3121  0.2786
  542SOL     OW 7717   3.691   1.589   9.036  0.0239  0.0653 -0.0107
  542SOL    HW1 7718   3.611   1.569   9.086 -0.7867  0.2226 -1.2119
  542SOL    HW2 7719   3.725   1.503   9.011 -0.7996  0.0237 -1.0584
  543SOL     OW 7720   7.048   4.644   6.472 -0.8770  0.0575 -0.0268
  543SOL    HW1 7721   7.091   4.729   6.471 -0.5927 -0.0694  0.5685
  543SOL    HW2 7722   7.101   4.592   6.533  0.4355 -1.3309 -2.2044
  544SOL     OW 7723   5.210  10.884   9.172  0.6885 -0.0827 -0.0166
  544SOL    HW1 7724   5.203  10.975   9.146  1.5254 -0.3873 -1.4131
  544SOL    HW2 7725   5.298  10.857   9.143 -0.0512 -1.7023 -0.9100
  545SOL     OW 7726   3.832   5.987   4.667 -0.9036  0.0007 -0.8219
  545SOL    HW1 7727   3.807   5.940   4.588 -0.4176 -1.1135 -0.3405
  545SOL    HW2 7728   3.905   6.042   4.641 -0.3916 -0.7634 -1.0502
  546SOL     OW 7729   5.868   1.692  10.642 -1.0131 -0.4103  0.4391
  546SOL    HW1 7730   5.807   1.706  10.714 -0.1477  1.8745  0.8114
  546SOL    HW2 7731   5.954   1.715  10.677 -0.4960  0.2745 -1.1597
  547SOL     OW 7732   2.681   9.485   0.474 -0.4554 -0.0307  1.0293
  547SOL    HW1 7733   2.771   9.458   0.488 -0.1673  0.2061 -0.2693
  547SOL    HW2 7734   2.676   9.573   0.511 -0.5646 -0.5875  2.4158
  548SOL     OW 7735   7.517   7.022   1.698  0.3655  0.2439  0.2612
  548SOL    HW1 7736   7.475   7.107   1.717  3.8279  2.2082 -0.0175
  548SOL    HW2 7737   7.469   6.989   1.622 -2.1283  1.1091  1.3523
  549SOL     OW 7738   7.529   8.081   2.441  0.2029  0.3890  0.4789
  549SOL    HW1 7739   7.564   7.992   2.436  1.5327  0.8976  0.3029
  549SOL    HW2 7740   7.482   8.084   2.524 -1.9273 -1.1731 -0.5817
  550SOL     OW 7741   5.272   1.551   5.538  0.4537 -0.5441 -0.3532
  550SOL    HW1 7742   5.325   1.521   5.612  1.1802 -0.6494 -0.9015
  550SOL    HW2 7743   5.290   1.644   5.531 -0.9808 -0.1658  0.6863
  551SOL     OW 7744   6.254   7.672   1.609 -0.3007 -0.0668  0.6433
  551SOL    HW1 7745   6.239   7.628   1.526 -0.6644  1.3006 -0.0433
  551SOL    HW2 7746   6.316   7.741   1.589 -0.4531  0.3312  1.4929
  552SOL     OW 7747   2.305   6.743   2.150 -0.2925 -0.1959 -0.4035
  552SOL    HW1 7748   2.262   6.697   2.222  0.3057  1.5183  1.1287
  552SOL    HW2 7749   2.244   6.735   2.076 -1.0285 -1.8076  0.3367
  553SOL     OW 7750   2.914   3.830  10.163 -0.8197 -0.4323 -0.2753
  553SOL    HW1 7751   2.822   3.855  10.171 -0.9380 -0.4839 -1.2684
  553SOL    HW2 7752   2.911   3.743  10.122 -0.3328 -0.5390 -0.0863
  554SOL     OW 7753   3.597   7.406   3.290 -0.1101  0.5212 -0.2476
  554SOL    HW1 7754   3.635   7.419   3.203 -0.0033  0.8599 -0.1512
  554SOL    HW2 7755   3.620   7.316   3.313 -1.1852 -0.0005 -1.0831
  555SOL     OW 7756  10.679   3.489  10.225  0.2754 -0.1528  0.3893
  555SOL    HW1 7757  10.643   3.457  10.307 -0.0136 -1.5724 -0.2677
  555SOL    HW2 7758  10.610   3.545  10.188  0.2828  0.2256  0.9397
  556SOL     OW 7759   1.548   3.240   8.942 -0.1457 -0.4457 -0.0225
  556SOL    HW1 7760   1.531   3.241   8.848 -0.6075  0.0338  0.0629
  556SOL    HW2 7761   1.577   3.151   8.961 -1.3818 -0.9374 -0.3874
  557SOL     OW 7762   9.118   2.641   5.708  0.3075 -0.5472 -0.0146
  557SOL    HW1 7763   9.093   2.619   5.618  1.7422  0.4881 -0.7055
  557SOL    HW2 7764   9.213   2.651   5.705  0.2646  0.5717  1.3863
  558SOL     OW 7765   7.533   3.546   5.359  0.0310  0.6772 -0.0277
  558SOL    HW1 7766   7.449   3.523   5.399 -1.6214  3.7763 -1.4655
  558SOL    HW2 7767   7.597   3.529   5.429 -2.1846  1.4982  2.3716
  559SOL     OW 7768   5.026   7.715   8.394 -0.2787  0.1394 -0.0640
  559SOL    HW1 7769   4.983   7.750   8.473  0.2456  0.0152  0.2811
  559SOL    HW2 7770   4.974   7.639   8.370 -0.1843 -0.0829  0.4242
  560SOL     OW 7771  10.216   3.518  10.685 -0.2414 -0.0566 -0.2945
  560SOL    HW1 7772  10.280   3.566  10.633 -0.3320  0.0886 -0.2733
  560SOL    HW2 7773  10.265   3.490  10.763 -0.2983  0.3707 -0.1047
  561SOL     OW 7774   3.135   7.886   5.545  0.4411 -0.3553 -0.1562
  561SOL    HW1 7775   3.056   7.933   5.517 -0.5369 -1.5901  0.4003
  561SOL    HW2 7776   3.177   7.944   5.608 -1.0237 -0.4046  0.9231
  562SOL     OW 7777   9.368   3.061   2.965 -0.2415  0.2917  0.3298
  562SOL    HW1 7778   9.401   2.986   3.012 -0.9290 -0.1629  0.1087
  562SOL    HW2 7779   9.437   3.127   2.973 -0.5733  0.4601  2.4821
  563SOL     OW 7780   4.976   4.151   1.388 -0.2436  0.1057  0.0006
  563SOL    HW1 7781   5.060   4.135   1.344 -0.8440 -0.9709 -0.7972
  563SOL    HW2 7782   4.927   4.207   1.328 -0.2844  0.3481  0.2558
  564SOL     OW 7783   7.239   6.162   6.063 -0.4277 -0.1428 -0.0716
  564SOL    HW1 7784   7.247   6.253   6.091 -0.3896 -0.4287  0.8736
  564SOL    HW2 7785   7.169   6.163   5.997 -0.4538  0.5618 -0.0332
  565SOL     OW 7786   4.788   5.149   6.552  0.1486 -0.0045  0.5977
  565SOL    HW1 7787   4.819   5.117   6.468  0.6405 -0.3944  0.9201
  565SOL    HW2 7788   4.694   5.133   6.552  0.3162 -1.0258  0.5667
  566SOL     OW 7789   3.978   8.759  10.253  0.3341 -0.9041 -0.5334
  566SOL    HW1 7790   4.048   8.762  10.188  1.0669  1.5661  0.2443
  566SOL    HW2 7791   4.024   8.752  10.337 -0.3732 -0.1864 -0.0719
  567SOL     OW 7792   1.063   0.597   5.541 -0.3628  0.5699 -0.2012
  567SOL    HW1 7793   1.077   0.507   5.512  1.2204  0.8070 -0.2305
  567SOL    HW2 7794   0.994   0.591   5.607  0.7010 -0.8725  0.8246
  568SOL     OW 7795  10.523   6.593   6.640 -0.2798  0.1207  0.3870
  568SOL    HW1 7796  10.535   6.500   6.659  1.8537 -0.1214 -1.7387
  568SOL    HW2 7797  10.486   6.595   6.552 -1.8220  1.2996  1.0252
  569SOL     OW 7798   9.119  10.038   3.530 -0.5963 -0.8759  0.5009
  569SOL    HW1 7799   9.062  10.070   3.460  0.5352  1.4681  0.5266
  569SOL    HW2 7800   9.092  10.089   3.607 -0.1145 -1.5428  1.1233
  570SOL     OW 7801   5.414   9.009   9.218 -0.1638 -0.2870  0.1433
  570SOL    HW1 7802   5.330   9.050   9.240 -0.7439 -0.9606 -0.7556
  570SOL    HW2 7803   5.428   8.945   9.287  0.0690  0.4383  0.7905
  571SOL     OW 7804   3.392   1.933   9.654 -0.3475  0.0446 -0.3618
  571SOL    HW1 7805   3.352   2.015   9.684 -2.0039 -0.8192 -0.1075
  571SOL    HW2 7806   3.338   1.906   9.580  0.6060 -0.4973 -0.8813
  572SOL     OW 7807   2.225   0.335   4.190  0.5386 -0.1465 -0.1278
  572SOL    HW1 7808   2.210   0.292   4.106 -0.8194  0.1529 -0.0641
  572SOL    HW2 7809   2.318   0.324   4.206  1.0776  0.8153 -2.2450
  573SOL     OW 7810   6.632   5.771   5.561 -0.1281 -0.2137  0.3299
  573SOL    HW1 7811   6.702   5.746   5.620  1.0410 -0.8670 -1.2535
  573SOL    HW2 7812   6.648   5.864   5.542  1.1523 -0.6761 -1.0449
  574SOL     OW 7813   9.654   5.983  10.780  0.0719  0.2686  0.7986
  574SOL    HW1 7814   9.733   5.983  10.727 -0.9081 -1.4542 -0.7391
  574SOL    HW2 7815   9.656   6.068  10.825  3.3654 -0.1770  1.7738
  575SOL     OW 7816   1.466   7.672   4.060 -0.2280  0.3928 -0.7348
  575SOL    HW1 7817   1.439   7.633   4.143  2.3994  2.3286  1.2292
  575SOL    HW2 7818   1.398   7.736   4.040 -0.4662  0.5343  0.4437
  576SOL     OW 7819   8.408   9.974   6.201  0.2609  0.0546  0.7301
  576SOL    HW1 7820   8.402  10.067   6.224 -1.6690 -0.3265  1.9823
  576SOL    HW2 7821   8.347   9.964   6.128 -0.3704 -0.4095  1.3101
  577SOL     OW 7822   4.056   1.316   2.835 -0.1139 -0.0615  0.0307
  577SOL    HW1 7823   4.100   1.232   2.848  0.0206  0.1838  1.2960
  577SOL    HW2 7824   4.102   1.376   2.894 -0.2402  0.8915 -0.8252
  578SOL     OW 7825   5.531   4.715   2.676 -0.2066  0.0788 -0.1731
  578SOL    HW1 7826   5.541   4.630   2.634 -1.6010 -0.6211  0.8174
  578SOL    HW2 7827   5.509   4.694   2.767  0.1595  1.5111  0.2701
  579SOL     OW 7828   3.112   9.730   9.362  0.1442  0.6412  0.2226
  579SOL    HW1 7829   3.034   9.748   9.415 -0.1818  0.3810 -0.1550
  579SOL    HW2 7830   3.077   9.707   9.276  0.6473  0.6511  0.0105
  580SOL     OW 7831   5.871   1.619   9.599 -0.4751 -0.5926  0.2585
  580SOL    HW1 7832   5.857   1.623   9.505 -1.0756 -0.2758  0.3569
  580SOL    HW2 7833   5.966   1.622   9.610 -0.3896 -1.0622 -0.3523
  581SOL     OW 7834   4.842   7.484   8.707 -0.1676 -0.0359  0.6958
  581SOL    HW1 7835   4.847   7.408   8.650  1.1413  0.8061 -0.3663
  581SOL    HW2 7836   4.774   7.539   8.669 -0.4688 -0.2537  0.9226
  582SOL     OW 7837   4.464   2.660  10.469  0.2455  0.2469 -0.6142
  582SOL    HW1 7838   4.517   2.737  10.492  0.1903  0.2704 -0.5628
  582SOL    HW2 7839   4.397   2.694  10.410  1.0729 -0.0233 -1.7390
  583SOL     OW 7840   1.093   7.021   2.363 -0.1047  0.1421 -0.5885
  583SOL    HW1 7841   1.055   7.032   2.450 -0.5241 -2.8474 -0.2778
  583SOL    HW2 7842   1.018   7.007   2.305  0.1980  1.5657 -1.3746
  584SOL     OW 7843  10.427   5.053   8.458 -0.2633 -0.1023  0.2481
  584SOL    HW1 7844  10.501   5.083   8.405  0.0525 -0.1900  0.6348
  584SOL    HW2 7845  10.454   5.070   8.548 -0.8713  0.2097  0.3781
  585SOL     OW 7846   1.835   0.309   2.875 -0.1514  0.4065 -0.2773
  585SOL    HW1 7847   1.908   0.365   2.900 -0.0704  0.5393 -0.7920
  585SOL    HW2 7848   1.867   0.220   2.888  1.1575  0.3381 -3.1353
  586SOL     OW 7849   1.380   4.094   5.838 -0.5328  0.4721 -0.0187
  586SOL    HW1 7850   1.402   4.010   5.797 -0.4447  0.7053 -0.4553
  586SOL    HW2 7851   1.289   4.109   5.814 -0.3529  0.8161 -0.4890
  587SOL     OW 7852   4.923   7.418   8.294  0.2808 -0.1572 -0.0365
  587SOL    HW1 7853   4.845   7.474   8.297  2.0713  2.5201  0.4765
  587SOL    HW2 7854   4.965   7.441   8.212  0.5754 -1.5373 -0.2811
  588SOL     OW 7855   3.036   9.644  10.818 -0.0842 -0.0438  0.3098
  588SOL    HW1 7856   2.973   9.582  10.780  1.5978 -0.9666 -1.1400
  588SOL    HW2 7857   2.990   9.727  10.820 -1.2359 -0.5941 -1.1253
  589SOL     OW 7858   3.069   1.471   1.662 -0.5168 -0.5344  0.0826
  589SOL    HW1 7859   3.033   1.559   1.652  0.2099 -0.4306 -1.9864
  589SOL    HW2 7860   3.163   1.484   1.672 -0.0399 -1.1045 -2.7878
  590SOL     OW 7861   3.173   6.972   5.150 -0.0760 -0.5324  0.4718
  590SOL    HW1 7862   3.247   6.971   5.090  0.4402 -1.6255  1.0980
  590SOL    HW2 7863   3.140   7.062   5.147  0.9260 -0.1821 -0.2373
  591SOL     OW 7864   0.909   9.724   6.871 -0.6527 -0.0430 -0.5241
  591SOL    HW1 7865   0.994   9.725   6.915 -0.7812 -2.0474 -0.1297
  591SOL    HW2 7866   0.866   9.804   6.899  1.4728  1.5791 -1.5512
  592SOL     OW 7867   8.190   1.917   2.824  0.2056 -0.1993 -0.6356
  592SOL    HW1 7868   8.117   1.855   2.825  2.0140 -2.4789  1.0137
  592SOL    HW2 7869   8.185   1.960   2.910  1.3278 -1.1201 -0.0803
  593SOL     OW 7870   0.169   2.232   7.381  0.2487 -0.5446 -0.1314
  593SOL    HW1 7871   0.196   2.162   7.321 -2.5531  0.6588 -3.1217
  593SOL    HW2 7872   0.096   2.194   7.430  0.8460 -0.7000  0.6530
  594SOL     OW 7873   5.191   0.468   8.339  0.0034  0.0159  1.1097
  594SOL    HW1 7874   5.203   0.383   8.297 -0.2642  0.8539 -0.7982
  594SOL    HW2 7875   5.264   0.521   8.307 -1.1399  1.1763  0.3268
  595SOL     OW 7876   3.761   7.413   2.345  0.3299  0.2956 -0.0075
  595SOL    HW1 7877   3.731   7.407   2.255  0.9407 -1.3550 -0.1419
  595SOL    HW2 7878   3.725   7.495   2.378  0.1294  0.9414 -1.7567
  596SOL     OW 7879   2.350   4.642   3.148 -0.0505  0.0542  0.2696
  596SOL    HW1 7880   2.296   4.720   3.146 -0.7933 -0.2579  3.2162
  596SOL    HW2 7881   2.440   4.675   3.144 -0.3686  1.0315  0.8610
  597SOL     OW 7882   8.337   8.689   7.386  0.3745 -0.3197  0.0208
  597SOL    HW1 7883   8.251   8.726   7.367  0.0145 -1.4057 -0.5445
  597SOL    HW2 7884   8.317   8.608   7.434  1.0977 -0.3542  0.2642
  598SOL     OW 7885   7.299   0.207  10.545  0.6843  0.3178 -0.2486
  598SOL    HW1 7886   7.266   0.191  10.634 -0.1311  0.5921 -0.4936
  598SOL    HW2 7887   7.380   0.255  10.558 -0.2885  1.8930  0.3234
  599SOL     OW 7888   6.665   6.500  10.468 -0.0881 -0.9848  0.1621
  599SOL    HW1 7889   6.626   6.491  10.381  1.6553 -1.9937 -0.5437
  599SOL    HW2 7890   6.718   6.580  10.463 -0.6362 -0.5791  0.5884
  600SOL     OW 7891   5.852   2.200   6.262  0.3724  0.1628 -0.2667
  600SOL    HW1 7892   5.907   2.123   6.244 -0.3544 -0.6292  0.8037
  600SOL    HW2 7893   5.776   2.165   6.307 -0.7594  1.3302 -1.2107
  601SOL     OW 7894   8.316   0.287   1.911 -0.2340 -0.0204 -0.2373
  601SOL    HW1 7895   8.321   0.275   2.006  1.2789  0.6011 -0.1978
  601SOL    HW2 7896   8.323   0.199   1.875 -0.2195 -0.2129  0.2300
  602SOL     OW 7897   4.890   9.319  10.689 -0.0896  0.1989 -0.7895
  602SOL    HW1 7898   4.910   9.289  10.778 -1.9779  2.4720  0.5197
  602SOL    HW2 7899   4.824   9.258  10.657 -0.5686  0.2911  0.0074
  603SOL     OW 7900   4.992   1.989   3.688 -0.5246  0.4205 -0.6927
  603SOL    HW1 7901   5.079   2.027   3.695  0.5092 -1.9024  0.2790
  603SOL    HW2 7902   5.009   1.897   3.666 -2.5600 -0.7408  2.0251
  604SOL     OW 7903   6.174  10.870   2.290  0.0432  0.2494  0.3982
  604SOL    HW1 7904   6.241  10.922   2.246  0.2380 -0.3311 -0.0061
  604SOL    HW2 7905   6.222  10.816   2.352  0.1315 -1.1570 -0.8409
  605SOL     OW 7906   5.262   2.840   9.818  0.4637 -0.3598  0.3658
  605SOL    HW1 7907   5.199   2.894   9.866 -0.0638 -0.3207 -0.3416
  605SOL    HW2 7908   5.228   2.839   9.728  0.9996 -1.0618  0.1627
  606SOL     OW 7909   4.134   5.397   1.013  0.5537 -0.6138 -0.5857
  606SOL    HW1 7910   4.110   5.367   0.925  1.3086  0.4516 -1.1788
  606SOL    HW2 7911   4.051   5.423   1.053  0.2218 -0.9484 -1.0416
  607SOL     OW 7912   9.888   3.054   1.745  0.1241 -0.1964  0.1733
  607SOL    HW1 7913   9.827   3.058   1.818 -1.0036 -1.6342 -0.6388
  607SOL    HW2 7914   9.975   3.050   1.787 -0.5258 -1.7696  1.5024
  608SOL     OW 7915   1.532   1.697   5.852 -0.3982 -0.4193 -0.2561
  608SOL    HW1 7916   1.513   1.633   5.920 -0.6827 -0.5264 -0.4336
  608SOL    HW2 7917   1.459   1.759   5.855 -0.6669 -0.7006 -0.7848
  609SOL     OW 7918   6.388   6.736   5.420 -0.6364 -0.1014  0.1036
  609SOL    HW1 7919   6.449   6.795   5.375  0.8890 -0.9268  1.0031
  609SOL    HW2 7920   6.390   6.766   5.511  1.1684 -2.2481  0.8528
  610SOL     OW 7921   5.482   2.072   8.097 -0.1208 -0.1649 -0.2906
  610SOL    HW1 7922   5.419   2.144   8.098 -0.4734 -0.4664 -0.5598
  610SOL    HW2 7923   5.534   2.087   8.019 -0.2149 -0.2185 -0.3638
  611SOL     OW 7924   1.725   9.616   3.926 -0.0279  0.2854  0.5533
  611SOL    HW1 7925   1.734   9.553   3.855  1.4361  0.3322  0.6584
  611SOL    HW2 7926   1.637   9.652   3.915 -0.3717 -0.7639 -0.3385
  612SOL     OW 7927   5.342   7.118   9.364  0.4896  0.2550  0.4331
  612SOL    HW1 7928   5.393   7.171   9.303  0.3592  1.2459  1.1832
  612SOL    HW2 7929   5.407   7.063   9.408  0.6412 -0.0996 -0.2043
  613SOL     OW 7930   8.864   8.348   0.042  0.4509 -0.5286 -0.5111
  613SOL    HW1 7931   8.794   8.354  -0.023 -0.1696 -1.7462  0.0106
  613SOL    HW2 7932   8.818   8.333   0.125  1.1978  1.4746  0.3174
  614SOL     OW 7933   0.951   0.456   6.341  0.5103  0.0889  0.1969
  614SOL    HW1 7934   0.938   0.551   6.339 -1.3258 -0.1390 -0.4150
  614SOL    HW2 7935   1.002   0.441   6.420  1.9301  1.6849 -0.3564
  615SOL     OW 7936  10.023   9.961   1.812  0.5597 -0.4202  0.1282
  615SOL    HW1 7937   9.972   9.913   1.747  0.4143  1.3816 -1.1811
  615SOL    HW2 7938  10.027   9.903   1.888  1.5836 -3.0739 -1.7817
  616SOL     OW 7939   2.663   5.953   5.510  0.3205 -0.2671  0.0061
  616SOL    HW1 7940   2.712   5.892   5.455  0.2536 -0.9306  0.6647
  616SOL    HW2 7941   2.574   5.916   5.515 -0.0458  0.5101 -0.5428
  617SOL     OW 7942   2.477   5.484   5.015  0.4003  0.0549  0.6644
  617SOL    HW1 7943   2.492   5.496   4.921  2.1737 -0.9263  0.7667
  617SOL    HW2 7944   2.398   5.430   5.020  1.7594 -2.1712 -0.4224
  618SOL     OW 7945  10.376   4.938   2.163 -0.1537 -0.1368 -0.1317
  618SOL    HW1 7946  10.283   4.930   2.182 -0.4669  0.5925 -1.2923
  618SOL    HW2 7947  10.380   4.974   2.075  1.2211  0.6639  0.2240
  619SOL     OW 7948   8.822   1.574   1.071  0.2900 -0.2004 -0.0293
  619SOL    HW1 7949   8.863   1.636   1.011 -1.3033  0.6838 -0.2656
  619SOL    HW2 7950   8.744   1.620   1.103  1.9344  0.1457  4.1265
  620SOL     OW 7951   0.235   9.785   2.587  0.1256 -0.4368  0.3130
  620SOL    HW1 7952   0.297   9.816   2.521  2.3907 -0.2166  2.4060
  620SOL    HW2 7953   0.153   9.828   2.565  1.8387  3.0378  0.0613
  621SOL     OW 7954   8.222   8.910   4.596 -0.0596  0.3392 -0.3408
  621SOL    HW1 7955   8.274   8.830   4.590  0.3311  0.5092  0.5749
  621SOL    HW2 7956   8.140   8.890   4.551  0.4736 -0.2027 -1.0963
  622SOL     OW 7957   9.973   6.851   5.197  0.1931 -0.0274 -0.1819
  622SOL    HW1 7958   9.991   6.918   5.130  0.1858 -0.7243 -0.8886
  622SOL    HW2 7959   9.885   6.873   5.229  0.9166  1.4256  0.9493
  623SOL     OW 7960   2.886  10.814   0.502  0.6878  0.2189  0.2042
  623SOL    HW1 7961   2.974  10.782   0.484  0.5868  0.1167 -0.1129
  623SOL    HW2 7962   2.897  10.907   0.522  1.0465 -0.1074  1.6432
  624SOL     OW 7963   7.079  10.912   6.767 -0.5259 -0.2231  0.1583
  624SOL    HW1 7964   7.019  10.920   6.693 -1.5462  2.3787  1.1370
  624SOL    HW2 7965   7.138  10.987   6.758 -0.7840  0.2579  2.0120
  625SOL     OW 7966   3.060   8.084   5.871 -0.0550  0.0170 -0.5977
  625SOL    HW1 7967   2.965   8.083   5.860 -0.3060 -3.5433  0.5130
  625SOL    HW2 7968   3.078   8.166   5.918 -2.5878  0.6860 -0.6483
  626SOL     OW 7969  10.047   5.721   7.739 -0.2702 -0.7484  0.7262
  626SOL    HW1 7970   9.995   5.646   7.769 -2.5735  0.7644  0.8146
  626SOL    HW2 7971  10.081   5.760   7.819 -0.0190 -1.0603  0.7712
  627SOL     OW 7972   1.777   4.840   4.618 -0.0145 -0.4207  0.1343
  627SOL    HW1 7973   1.800   4.750   4.594 -2.2106 -1.1763  0.6086
  627SOL    HW2 7974   1.682   4.836   4.634  0.2802  1.3827  2.7861
  628SOL     OW 7975   7.145  10.394   1.215  0.4374 -0.7209  0.3459
  628SOL    HW1 7976   7.212  10.326   1.213  1.5884  0.3635 -1.1888
  628SOL    HW2 7977   7.081  10.367   1.149 -0.7259 -1.7923  1.8610
  629SOL     OW 7978   6.236   0.151   9.378  0.5371 -0.4020 -0.0957
  629SOL    HW1 7979   6.201   0.094   9.309  0.4597 -0.5419  0.0587
  629SOL    HW2 7980   6.214   0.106   9.460  0.8568 -0.3648  0.0097
  630SOL     OW 7981   6.534   3.434  10.263 -0.0027 -0.1946 -0.1139
  630SOL    HW1 7982   6.520   3.435  10.168  1.4119  0.3548 -0.3404
  630SOL    HW2 7983   6.458   3.388  10.298  0.8882 -3.1510 -1.7490
  631SOL     OW 7984   2.033   3.414   7.748  0.6249 -0.1850  0.1115
  631SOL    HW1 7985   1.997   3.367   7.673  2.6197 -1.7683  0.0494
  631SOL    HW2 7986   2.087   3.483   7.710  1.1131 -0.5755  0.0842
  632SOL     OW 7987   2.338   0.185   2.201  0.0386  0.3676 -0.1567
  632SOL    HW1 7988   2.377   0.199   2.115  0.3481  0.7461  0.0432
  632SOL    HW2 7989   2.259   0.240   2.202  1.1295  1.9871  0.5434
  633SOL     OW 7990   7.965   8.304   4.104 -0.0746 -0.0775  0.2839
  633SOL    HW1 7991   7.991   8.213   4.120 -0.3837 -0.8970 -3.0024
  633SOL    HW2 7992   7.937   8.337   4.189  1.0402 -2.7064  1.7917
  634SOL     OW 7993   2.105   2.979   1.385 -0.5426 -0.5141  0.1600
  634SOL    HW1 7994   2.183   2.955   1.435  1.4722  2.7548 -1.0979
  634SOL    HW2 7995   2.048   3.022   1.449  0.4794  0.5669  0.3691
  635SOL     OW 7996   4.249   6.454   9.306  0.2504  0.0728  0.2803
  635SOL    HW1 7997   4.300   6.516   9.357  2.2992 -0.2945 -1.1861
  635SOL    HW2 7998   4.310   6.419   9.241 -1.0926 -2.6843  0.3283
  636SOL     OW 7999   0.759   5.430   6.959 -0.0685  0.3503 -0.1112
  636SOL    HW1 8000   0.811   5.497   6.914  1.9053  0.0557  1.5755
  636SOL    HW2 8001   0.807   5.349   6.946  0.7406  0.2936  2.6318
  637SOL     OW 8002   3.294   4.417   5.935 -0.6276 -0.6661  0.3377
  637SOL    HW1 8003   3.365   4.361   5.905 -2.3656 -2.1405 -1.2329
  637SOL    HW2 8004   3.337   4.500   5.956  1.6305 -1.6905  0.1166
  638SOL     OW 8005  10.356  10.078   4.371  0.0043  0.6114  0.3352
  638SOL    HW1 8006  10.277  10.098   4.420 -0.7804  0.4476 -0.8335
  638SOL    HW2 8007  10.427  10.110   4.427 -0.9683  2.6633  0.5061
  639SOL     OW 8008   5.194  10.445   7.031 -0.0665 -0.1657  0.2014
  639SOL    HW1 8009   5.104  10.451   6.999  0.3385  0.0277 -0.9415
  639SOL    HW2 8010   5.203  10.355   7.062 -0.2283 -0.6186 -1.0228
  640SOL     OW 8011   4.585   6.166  10.701  0.0723  0.2879 -0.4787
  640SOL    HW1 8012   4.535   6.247  10.690 -1.8379 -0.7628  0.0321
  640SOL    HW2 8013   4.523   6.105  10.740  1.8443 -1.0462  0.3934
  641SOL     OW 8014   7.980   9.981   4.516 -0.3056 -0.6200  0.2733
  641SOL    HW1 8015   7.915  10.049   4.495  0.4628 -0.4125 -1.6014
  641SOL    HW2 8016   7.936   9.899   4.493  0.0625 -0.4794 -0.9998
  642SOL     OW 8017   0.852   3.492   0.717 -0.0360 -0.7939  0.0143
  642SOL    HW1 8018   0.770   3.484   0.765 -0.2424 -1.3212 -0.4135
  642SOL    HW2 8019   0.915   3.526   0.781 -0.0034 -2.5894  1.0004
  643SOL     OW 8020   2.682   0.209   3.404 -0.0514  0.1251 -0.3633
  643SOL    HW1 8021   2.639   0.269   3.342 -1.5647  0.8055  1.2665
  643SOL    HW2 8022   2.618   0.140   3.419 -0.4733  0.9121  1.7562
  644SOL     OW 8023   8.338   4.857  10.811 -0.4802  0.0446 -0.2417
  644SOL    HW1 8024   8.312   4.765  10.812  0.8399 -0.3464 -0.3844
  644SOL    HW2 8025   8.334   4.885  10.902  1.0748 -0.7499  0.1031
  645SOL     OW 8026   7.553   5.652  10.488 -0.1171  0.0415  0.6601
  645SOL    HW1 8027   7.533   5.585  10.554 -0.2687 -0.7261 -0.1439
  645SOL    HW2 8028   7.467   5.683  10.459 -0.1082 -0.7818 -0.3123
  646SOL     OW 8029   5.360   6.273   8.274 -0.4014 -0.2975 -0.3819
  646SOL    HW1 8030   5.426   6.343   8.274  1.8731 -2.3291 -0.7641
  646SOL    HW2 8031   5.360   6.240   8.184 -0.8906 -1.2689 -0.0415
  647SOL     OW 8032   9.126   1.688   0.642 -0.2555  0.1885  0.3286
  647SOL    HW1 8033   9.045   1.662   0.686  0.5144  0.6524  2.0812
  647SOL    HW2 8034   9.177   1.733   0.709  0.9557  0.9869 -1.0627
  648SOL     OW 8035   4.669   1.771   4.387 -0.4183 -0.2720  0.3423
  648SOL    HW1 8036   4.706   1.859   4.392 -2.3233  0.5633  0.4009
  648SOL    HW2 8037   4.598   1.779   4.323  0.5690 -2.2476 -1.1229
  649SOL     OW 8038   4.310   3.430   6.640  0.1095 -0.6290 -0.3979
  649SOL    HW1 8039   4.315   3.356   6.701  0.6653 -1.3031 -1.2282
  649SOL    HW2 8040   4.229   3.475   6.663 -0.5797 -1.8708 -0.2737
  650SOL     OW 8041   2.065   6.525   2.837 -0.3269  0.3686  0.0699
  650SOL    HW1 8042   2.141   6.487   2.880  0.3815  0.5275 -1.0223
  650SOL    HW2 8043   1.998   6.456   2.842  0.2914 -0.2555 -0.0970
  651SOL     OW 8044   7.135   9.486   0.215 -0.5976 -0.1064 -0.1418
  651SOL    HW1 8045   7.201   9.555   0.218  0.7452 -1.2593 -1.6303
  651SOL    HW2 8046   7.052   9.533   0.204 -0.0978  1.3755  1.9489
  652SOL     OW 8047   3.051   2.998   4.366  0.0333 -0.1801  0.4114
  652SOL    HW1 8048   2.958   2.989   4.388  0.4536  0.5040  2.7647
  652SOL    HW2 8049   3.052   3.055   4.289 -1.4727  0.3777  0.7713
  653SOL     OW 8050   5.715   8.884  10.565 -0.0589 -0.2381  0.3920
  653SOL    HW1 8051   5.710   8.832  10.645 -0.8287 -0.3810  0.2628
  653SOL    HW2 8052   5.807   8.909  10.558 -0.1174  0.4849  1.7795
  654SOL     OW 8053   4.760   8.147   1.569  0.1937 -0.1757  0.0765
  654SOL    HW1 8054   4.847   8.185   1.575  0.3125 -0.3758 -0.3240
  654SOL    HW2 8055   4.701   8.215   1.603  0.5434 -0.2121  0.7747
  655SOL     OW 8056   2.376  10.717   3.797  0.5889 -0.1058 -0.2546
  655SOL    HW1 8057   2.368  10.637   3.744  2.0161 -1.1671  1.0420
  655SOL    HW2 8058   2.470  10.733   3.802  0.6244 -0.6656  2.7329
  656SOL     OW 8059   1.204   8.128   2.457  0.2872 -0.3282 -0.4333
  656SOL    HW1 8060   1.280   8.155   2.510 -0.1413 -0.4524  0.2556
  656SOL    HW2 8061   1.138   8.195   2.473  1.1666  1.4126 -3.2678
  657SOL     OW 8062  10.867   8.425  10.028 -0.4357  0.4336  1.0509
  657SOL    HW1 8063  10.883   8.370   9.950  1.7567  3.5681 -0.9484
  657SOL    HW2 8064  10.771   8.427  10.036 -0.7080 -0.5727 -1.1131
  658SOL     OW 8065   5.308   7.707   0.884  0.2439  0.0570 -0.3297
  658SOL    HW1 8066   5.258   7.724   0.804 -0.4547 -1.1421 -0.1626
  658SOL    HW2 8067   5.262   7.756   0.952  1.8703  2.5899 -0.9114
  659SOL     OW 8068   1.063   1.435   8.496  0.4876  0.7202 -0.0626
  659SOL    HW1 8069   1.012   1.514   8.478  0.4013  0.1990 -2.3708
  659SOL    HW2 8070   1.040   1.412   8.587  0.3212  3.1588  0.5949
  660SOL     OW 8071   8.039   0.650   9.665 -0.0207 -0.1019 -0.1234
  660SOL    HW1 8072   8.021   0.558   9.686  0.4423  0.0066  0.8197
  660SOL    HW2 8073   7.953   0.691   9.659 -0.1988 -0.2792  1.0203
  661SOL     OW 8074   4.805   4.919   8.538  0.3437  0.2886 -0.0740
  661SOL    HW1 8075   4.876   4.982   8.534  1.1020 -0.4867  0.7965
  661SOL    HW2 8076   4.763   4.936   8.622 -0.1508  0.3609 -0.3310
  662SOL     OW 8077   5.396   9.857   0.044 -0.5321 -0.3200  0.6240
  662SOL    HW1 8078   5.446   9.793   0.094 -0.4663 -1.0158 -0.2971
  662SOL    HW2 8079   5.406   9.829  -0.047 -0.1762  1.2329  0.1581
  663SOL     OW 8080   5.775   4.768  10.828  0.1999  0.2260  0.1874
  663SOL    HW1 8081   5.727   4.746  10.908 -0.2710  0.9820  0.1241
  663SOL    HW2 8082   5.775   4.864  10.826  2.8028  0.3161  0.8456
  664SOL     OW 8083   7.905   2.043   4.385  0.4826  0.0360 -0.4088
  664SOL    HW1 8084   7.825   2.001   4.353  0.3200 -0.0728  0.1260
  664SOL    HW2 8085   7.976   1.988   4.352  0.2740 -0.6483  0.2486
  665SOL     OW 8086   3.777   9.566   5.575  0.3254  0.1696 -0.4068
  665SOL    HW1 8087   3.776   9.496   5.510  0.0482  0.5382 -0.7971
  665SOL    HW2 8088   3.754   9.645   5.527  0.4741  0.5084  0.0652
  666SOL     OW 8089   4.806   1.935   4.161 -0.6871 -0.2737 -0.2581
  666SOL    HW1 8090   4.729   1.983   4.191 -0.5955 -0.6836  0.6782
  666SOL    HW2 8091   4.828   1.974   4.076 -0.5454  1.3964  0.5169
  667SOL     OW 8092   7.627   0.812   2.404  0.0003  0.1940  0.4993
  667SOL    HW1 8093   7.718   0.813   2.432 -0.9316 -0.2624  4.1315
  667SOL    HW2 8094   7.594   0.899   2.426 -0.2482  0.7575 -1.8571
  668SOL     OW 8095   3.627   5.504   2.049  0.2239  0.1953  0.2665
  668SOL    HW1 8096   3.619   5.410   2.062  1.2179 -0.2635 -2.0340
  668SOL    HW2 8097   3.708   5.527   2.094  0.1572 -0.1115  0.5475
  669SOL     OW 8098   4.979   8.902   8.622  0.3898 -0.3632  1.1199
  669SOL    HW1 8099   5.020   8.965   8.563 -1.1183 -2.1841 -2.1986
  669SOL    HW2 8100   5.032   8.823   8.614  0.2254 -0.6175  2.3437
  670SOL     OW 8101   5.963  10.141   3.573  0.3791 -0.0929  0.2292
  670SOL    HW1 8102   5.879  10.094   3.574 -0.1121  0.6332 -1.5008
  670SOL    HW2 8103   6.026  10.076   3.542  0.2732 -0.3919  0.6346
  671SOL     OW 8104   0.955  10.359   2.146  0.5029  0.1942 -0.6310
  671SOL    HW1 8105   1.031  10.305   2.124 -0.2042  0.0229 -2.9536
  671SOL    HW2 8106   0.896  10.298   2.191  1.9649  0.5254  1.9469
  672SOL     OW 8107   6.703   4.494   4.824  0.0993 -0.3311  0.4115
  672SOL    HW1 8108   6.740   4.423   4.771 -0.8635 -0.3918 -0.2108
  672SOL    HW2 8109   6.766   4.506   4.895  0.7419 -1.1772  0.0111
  673SOL     OW 8110   3.439   1.222   2.785 -0.4648  0.2049 -0.6643
  673SOL    HW1 8111   3.510   1.250   2.843 -0.0796  1.7587 -1.8364
  673SOL    HW2 8112   3.445   1.126   2.785  1.7189  0.2844 -0.8391
  674SOL     OW 8113   9.450   2.951   4.623  0.0623 -0.5956 -0.3733
  674SOL    HW1 8114   9.533   2.997   4.624 -0.4488  0.4106 -1.4385
  674SOL    HW2 8115   9.387   3.013   4.659 -0.5748 -0.5567 -1.4882
  675SOL     OW 8116   6.544   8.559  10.856  0.1599 -0.6080  0.0254
  675SOL    HW1 8117   6.608   8.491  10.835  1.7146  0.6532  0.3702
  675SOL    HW2 8118   6.480   8.516  10.912  1.2917 -1.7027  0.5233
  676SOL     OW 8119   7.405   7.208   2.325  0.3206 -0.4178 -0.1993
  676SOL    HW1 8120   7.310   7.216   2.337  0.3383  2.7334 -1.3533
  676SOL    HW2 8121   7.439   7.295   2.345  3.1561 -1.7333  1.1774
  677SOL     OW 8122   1.672   9.874   7.061  0.2667 -0.4686  0.3020
  677SOL    HW1 8123   1.636   9.878   7.150 -0.4083 -0.8068  0.0495
  677SOL    HW2 8124   1.697   9.964   7.041  1.3172 -0.5449  1.1889
  678SOL     OW 8125   3.104   5.288   7.086 -0.4249  0.2045 -0.6597
  678SOL    HW1 8126   3.155   5.360   7.122  0.5723  1.1486 -3.6191
  678SOL    HW2 8127   3.131   5.211   7.137 -0.6707  1.6786  1.8266
  679SOL     OW 8128   0.870   6.563   6.954 -0.2987  0.5111 -0.1222
  679SOL    HW1 8129   0.846   6.606   6.872  0.4688  1.3271  0.0705
  679SOL    HW2 8130   0.966   6.559   6.953 -0.3342 -1.7241 -0.3874
  680SOL     OW 8131   7.830   5.266   5.925 -0.5308 -0.3152 -0.9326
  680SOL    HW1 8132   7.894   5.195   5.926  0.8606  0.8673 -1.9860
  680SOL    HW2 8133   7.746   5.222   5.917 -0.0913 -2.0122  2.1004
  681SOL     OW 8134   9.095   1.403   6.321  0.0768  0.7125 -0.3096
  681SOL    HW1 8135   9.013   1.450   6.306  0.4009  1.5048  0.3331
  681SOL    HW2 8136   9.115   1.419   6.413  1.3894  1.2616 -0.6693
  682SOL     OW 8137   6.163   4.590   0.275 -0.0470  0.0189 -0.1002
  682SOL    HW1 8138   6.073   4.617   0.293 -0.2766 -0.5463 -0.4048
  682SOL    HW2 8139   6.170   4.502   0.312 -0.0955 -0.5779 -1.4754
  683SOL     OW 8140   9.450   9.568   5.550 -0.0128 -1.0130 -0.0122
  683SOL    HW1 8141   9.541   9.591   5.569  0.1782 -1.4859 -0.3244
  683SOL    HW2 8142   9.421   9.632   5.486 -1.1676  1.6053  2.8875
  684SOL     OW 8143   4.944   1.507   9.953  0.6902 -0.2896 -0.3787
  684SOL    HW1 8144   4.959   1.601   9.953 -0.7179 -0.0508 -0.2180
  684SOL    HW2 8145   4.954   1.480  10.044 -0.1396 -0.0731 -0.2157
  685SOL     OW 8146  10.442   5.448   7.297 -0.0769 -0.1000  0.4656
  685SOL    HW1 8147  10.425   5.536   7.264  0.5689 -0.4026 -0.7165
  685SOL    HW2 8148  10.538   5.442   7.298 -0.1171 -1.3684 -1.0743
  686SOL     OW 8149   1.771   9.359  10.391  0.4962 -0.0361 -0.0391
  686SOL    HW1 8150   1.679   9.330  10.389 -0.0215  1.4746 -2.6892
  686SOL    HW2 8151   1.820   9.281  10.419 -1.4217 -1.4138 -0.3259
  687SOL     OW 8152   0.546   8.362   5.946 -0.7455 -0.3952  0.3782
  687SOL    HW1 8153   0.467   8.308   5.938  0.6146 -2.4607 -0.0410
  687SOL    HW2 8154   0.563   8.367   6.040 -1.7644  0.7162  0.5227
  688SOL     OW 8155  10.724   8.971   0.278 -0.3116 -0.2143 -0.5602
  688SOL    HW1 8156  10.772   8.906   0.226  0.2357  1.2363 -1.9286
  688SOL    HW2 8157  10.693   8.922   0.354 -2.2799 -2.8071 -2.7973
  689SOL     OW 8158   9.054   0.791   8.097  0.1447  0.0320 -0.7764
  689SOL    HW1 8159   9.033   0.866   8.043 -0.9767  0.0925 -0.2826
  689SOL    HW2 8160   9.068   0.719   8.035  2.0689  0.7977 -1.3034
  690SOL     OW 8161   5.054   4.372   1.743 -0.0392  0.7877  0.4308
  690SOL    HW1 8162   4.995   4.308   1.782  0.6417  0.5696  1.1184
  690SOL    HW2 8163   5.010   4.456   1.756 -1.5247  0.3945 -1.5603
  691SOL     OW 8164   7.841   9.475  10.484 -0.4802  0.4072 -0.1029
  691SOL    HW1 8165   7.929   9.487  10.451 -0.7174  1.6724 -0.3246
  691SOL    HW2 8166   7.851   9.472  10.580 -0.0806 -0.6900 -0.1647
  692SOL     OW 8167   8.017   9.384   6.824  0.0842 -0.4422 -0.1032
  692SOL    HW1 8168   7.983   9.473   6.820  0.8689 -0.1691 -1.4631
  692SOL    HW2 8169   7.978   9.347   6.903 -1.9851  0.3794 -0.6736
  693SOL     OW 8170   5.417   9.067   2.357  0.1587 -0.5115 -0.3199
  693SOL    HW1 8171   5.346   9.034   2.303  0.0750 -0.1208 -0.4547
  693SOL    HW2 8172   5.459   9.135   2.303 -0.0436  0.0127  0.1750
  694SOL     OW 8173   8.673   1.101   8.581  0.7738  0.2835 -0.3180
  694SOL    HW1 8174   8.581   1.123   8.571  0.2851 -1.7249 -0.4976
  694SOL    HW2 8175   8.715   1.185   8.603 -1.0820  1.2077 -0.1146
  695SOL     OW 8176   3.655   5.283   7.223 -0.1042 -0.2649 -0.1630
  695SOL    HW1 8177   3.590   5.351   7.235  0.1669 -0.1281  0.5576
  695SOL    HW2 8178   3.700   5.307   7.142 -0.6821 -0.1498 -0.4553
  696SOL     OW 8179   6.555   8.755   5.249  0.5510  0.2534  0.3318
  696SOL    HW1 8180   6.563   8.825   5.315  1.0090 -0.5229  1.1260
  696SOL    HW2 8181   6.644   8.723   5.237  0.5135  0.6024 -0.9276
  697SOL     OW 8182   8.897   9.107   8.361  0.6292  0.2982  0.1171
  697SOL    HW1 8183   8.966   9.153   8.312  1.4259 -0.0685  0.8551
  697SOL    HW2 8184   8.945   9.057   8.427 -0.0633 -2.5865 -1.3950
  698SOL     OW 8185   4.482   7.611   5.341 -0.3842 -0.0020  0.6710
  698SOL    HW1 8186   4.502   7.691   5.292  0.0689 -0.4298  0.1388
  698SOL    HW2 8187   4.563   7.592   5.389 -0.0969 -0.7610 -0.0962
  699SOL     OW 8188   3.840   3.355   9.369 -0.8981 -0.1043  0.0496
  699SOL    HW1 8189   3.859   3.297   9.296 -0.2239  0.3836 -0.1758
  699SOL    HW2 8190   3.771   3.412   9.337 -0.8004 -0.0754 -0.1113
  700SOL     OW 8191   9.257   2.551   4.292  0.4538  0.8305 -0.6187
  700SOL    HW1 8192   9.190   2.617   4.311 -1.2075 -0.5609 -1.3345
  700SOL    HW2 8193   9.333   2.601   4.263 -0.4750  2.4491 -0.3585
  701SOL     OW 8194   9.254   6.006   3.699 -0.5147 -0.1867 -0.0371
  701SOL    HW1 8195   9.248   5.911   3.704  1.4022 -0.3259  0.3845
  701SOL    HW2 8196   9.179   6.037   3.749 -0.6924 -1.4959  0.5535
  702SOL     OW 8197   6.357   5.564   0.020 -0.7872 -0.2846  0.1168
  702SOL    HW1 8198   6.281   5.610  -0.016 -0.5619  0.9488  1.1316
  702SOL    HW2 8199   6.427   5.629   0.020  0.7962 -1.8429 -2.2816
  703SOL     OW 8200   7.365   0.348   5.074  0.6865 -0.0604 -0.3478
  703SOL    HW1 8201   7.372   0.359   5.168 -0.0020  0.1757 -0.3181
  703SOL    HW2 8202   7.271   0.357   5.055  0.6914 -1.0318 -0.9340
  704SOL     OW 8203   2.568   4.139   2.012  0.2550 -0.3143  0.6127
  704SOL    HW1 8204   2.616   4.180   1.940  0.6271 -0.9529  0.4942
  704SOL    HW2 8205   2.481   4.179   2.008  0.0262 -0.8860 -0.6861
  705SOL     OW 8206   1.344   9.970   8.951 -0.4205  0.0456 -0.3302
  705SOL    HW1 8207   1.409   9.906   8.980  0.8560  1.5977  0.4272
  705SOL    HW2 8208   1.356   9.977   8.856 -1.3101 -1.5709 -0.5869
  706SOL     OW 8209  10.034   2.109   7.808  0.0317 -0.7713 -0.0025
  706SOL    HW1 8210   9.973   2.121   7.736  0.8558 -1.8081 -0.9038
  706SOL    HW2 8211  10.037   2.194   7.852 -2.1092 -0.7205  0.1393
  707SOL     OW 8212   4.161   1.007   8.495 -0.0638 -0.6789  0.4266
  707SOL    HW1 8213   4.153   0.932   8.435  1.5957 -0.1806 -0.4640
  707SOL    HW2 8214   4.153   1.084   8.438  2.2362 -0.1914  0.6556
  708SOL     OW 8215   0.665   8.255   7.515 -0.7869 -0.0009  0.0920
  708SOL    HW1 8216   0.605   8.330   7.511 -0.9532 -0.1638 -0.5195
  708SOL    HW2 8217   0.744   8.285   7.471 -1.4810 -0.7508 -1.7406
  709SOL     OW 8218   1.431   6.648   0.678  0.0827 -0.0137  0.2553
  709SOL    HW1 8219   1.341   6.647   0.713  0.6694 -0.9607  1.8654
  709SOL    HW2 8220   1.422   6.618   0.588 -1.3449  1.0563 -0.0112
  710SOL     OW 8221   2.605   7.449   6.646  0.4867 -0.2853 -0.4765
  710SOL    HW1 8222   2.594   7.393   6.723  0.7535 -0.0562 -0.2705
  710SOL    HW2 8223   2.576   7.535   6.675  1.2323 -0.0454 -0.4266
  711SOL     OW 8224   4.653   5.385   2.232  0.1989 -0.1065  0.1952
  711SOL    HW1 8225   4.617   5.451   2.173 -0.8769  0.2976  1.2588
  711SOL    HW2 8226   4.634   5.301   2.190  0.6503  0.2109 -0.6618
  712SOL     OW 8227   1.520   8.099   6.175  0.3771 -0.3247  0.8235
  712SOL    HW1 8228   1.595   8.156   6.188 -0.4545  1.3204 -1.1040
  712SOL    HW2 8229   1.558   8.018   6.139  1.2123  0.8865 -1.2149
  713SOL     OW 8230   6.377   7.454  10.394 -0.4183 -0.9001  0.9127
  713SOL    HW1 8231   6.473   7.457  10.397 -0.3680  1.3692 -0.3879
  713SOL    HW2 8232   6.350   7.522  10.455 -0.9866  1.3391 -1.6175
  714SOL     OW 8233   6.166   2.020  10.727  0.5787  0.0581 -0.2945
  714SOL    HW1 8234   6.218   2.087  10.772 -0.3389  1.7697 -1.6575
  714SOL    HW2 8235   6.180   2.038  10.634 -0.5531 -0.9525 -0.6810
  715SOL     OW 8236   6.164   5.153   6.257 -0.1498  0.2840  0.3043
  715SOL    HW1 8237   6.202   5.233   6.293 -0.5027 -0.0656  1.5088
  715SOL    HW2 8238   6.106   5.184   6.187 -0.9209  1.1698  1.2964
  716SOL     OW 8239   6.954   4.402   6.751 -0.3547  0.3429 -0.2327
  716SOL    HW1 8240   6.917   4.490   6.759 -1.5159 -0.1715  0.2875
  716SOL    HW2 8241   6.941   4.362   6.837  1.4611  0.1242 -0.0178
  717SOL     OW 8242   2.114   5.106   5.019  0.5518 -0.5251  0.4769
  717SOL    HW1 8243   2.071   5.045   4.959 -0.7306  0.7859  0.0224
  717SOL    HW2 8244   2.053   5.116   5.091  1.7514 -1.4831  1.6886
  718SOL     OW 8245   4.443   2.891   4.552  0.2880  0.7483 -0.2214
  718SOL    HW1 8246   4.361   2.873   4.598 -0.2158  0.1368 -1.3270
  718SOL    HW2 8247   4.425   2.967   4.498  0.2046  0.1626 -1.0374
  719SOL     OW 8248   2.575   5.422   7.425 -0.3296 -0.2358 -0.2640
  719SOL    HW1 8249   2.610   5.427   7.514 -0.1868  0.4471 -0.3529
  719SOL    HW2 8250   2.485   5.454   7.432 -1.5742 -3.5329  0.2611
  720SOL     OW 8251   7.495   5.653   7.327  0.0352  0.4531 -0.6189
  720SOL    HW1 8252   7.584   5.690   7.326  0.7806 -1.2023  0.3035
  720SOL    HW2 8253   7.479   5.628   7.236  1.0904 -0.4741 -0.5763
  721SOL     OW 8254   1.232   5.612   1.175 -1.1915 -0.1909 -0.0365
  721SOL    HW1 8255   1.146   5.630   1.137 -1.7599 -1.1824  0.7133
  721SOL    HW2 8256   1.251   5.522   1.150 -0.5616 -0.1194  0.1679
  722SOL     OW 8257  10.920  10.746   5.027 -0.7610 -0.2983  0.2372
  722SOL    HW1 8258  10.824  10.749   5.033 -0.9353  0.9702 -2.0868
  722SOL    HW2 8259  10.938  10.678   4.963 -0.2271  0.5139 -0.5042
  723SOL     OW 8260   2.091   3.212   7.491 -0.0102 -0.0481  0.3687
  723SOL    HW1 8261   2.068   3.119   7.487 -2.9121  0.5891 -2.0630
  723SOL    HW2 8262   2.147   3.226   7.415  0.1648  0.2198  0.5491
  724SOL     OW 8263   0.739  10.606   2.464  0.1242  0.2583  0.1078
  724SOL    HW1 8264   0.750  10.616   2.559 -1.0781  0.7986  0.2037
  724SOL    HW2 8265   0.660  10.554   2.455  0.3593  0.0234 -0.6028
  725SOL     OW 8266   1.115   3.674   1.845  0.0356  0.0830  0.0835
  725SOL    HW1 8267   1.136   3.584   1.821 -0.0953 -0.3249  1.4008
  725SOL    HW2 8268   1.196   3.723   1.828  0.7636 -0.6738  1.2087
  726SOL     OW 8269   6.432   8.698   5.869  0.1162 -0.1977  0.1978
  726SOL    HW1 8270   6.517   8.730   5.838 -0.6044 -0.7441 -2.5279
  726SOL    HW2 8271   6.380   8.778   5.880 -0.0194 -0.0476 -1.3640
  727SOL     OW 8272   7.683   1.089   0.809  0.2501 -0.2297  0.4203
  727SOL    HW1 8273   7.767   1.053   0.834 -0.0070  0.8544  3.1539
  727SOL    HW2 8274   7.673   1.064   0.717  2.5463 -2.2073  0.6006
  728SOL     OW 8275   8.441   0.497  10.408 -0.1338  0.4042  0.6034
  728SOL    HW1 8276   8.530   0.490  10.374 -0.7019  0.0342 -0.8726
  728SOL    HW2 8277   8.385   0.497  10.331 -1.5062 -0.6644  1.5419
  729SOL     OW 8278   8.967   4.595   9.218  0.2987  0.0628  0.3590
  729SOL    HW1 8279   9.058   4.576   9.241  0.6195  0.1565 -0.7608
  729SOL    HW2 8280   8.947   4.675   9.266  0.6824 -0.1629  0.9112
  730SOL     OW 8281   5.777   4.205   7.154  0.1954  0.3207  0.3391
  730SOL    HW1 8282   5.683   4.193   7.163 -0.2899  1.0211 -2.7649
  730SOL    HW2 8283   5.794   4.291   7.192 -0.8239  1.1153 -0.9325
  731SOL     OW 8284   8.233   9.255   4.036  0.0584  0.1785 -0.5255
  731SOL    HW1 8285   8.198   9.340   4.061  0.0811  0.5078 -1.5651
  731SOL    HW2 8286   8.161   9.211   3.991  0.5916  0.3820 -1.6098
  732SOL     OW 8287   8.633  10.774   0.204 -0.1614 -0.2568 -0.0581
  732SOL    HW1 8288   8.675  10.855   0.234 -0.2902  0.1648 -0.9802
  732SOL    HW2 8289   8.540  10.797   0.198 -0.2783 -0.6468  0.2205
  733SOL     OW 8290   3.781   6.181   0.523 -0.0591 -0.2746 -0.3345
  733SOL    HW1 8291   3.744   6.095   0.543 -2.7999  0.7004 -0.7719
  733SOL    HW2 8292   3.711   6.226   0.475  1.0179  2.4381  0.4941
  734SOL     OW 8293   7.160   1.276   3.650 -0.1333 -0.7660 -0.2426
  734SOL    HW1 8294   7.202   1.197   3.615  0.8855 -0.4122  0.1460
  734SOL    HW2 8295   7.232   1.338   3.662 -0.8695  0.1082 -0.2094
  735SOL     OW 8296   2.748   2.572   6.138  0.3685 -0.0395  0.5333
  735SOL    HW1 8297   2.741   2.538   6.049 -0.5606 -1.9590  1.2948
  735SOL    HW2 8298   2.715   2.662   6.131 -1.1980 -0.6622 -0.7813
  736SOL     OW 8299   5.550   4.541   6.176  0.1331  0.5459  0.2885
  736SOL    HW1 8300   5.504   4.618   6.211  0.9084  1.8244 -1.3474
  736SOL    HW2 8301   5.490   4.506   6.111  0.5404  0.9022 -0.2881
  737SOL     OW 8302   1.506  10.803  10.607  0.2296  0.5125  0.8016
  737SOL    HW1 8303   1.475  10.723  10.650 -3.2615  2.1436  1.6402
  737SOL    HW2 8304   1.449  10.872  10.639  1.1891  2.8889 -2.0999
  738SOL     OW 8305   6.988   7.975   2.695 -0.9133  0.0731 -0.0098
  738SOL    HW1 8306   6.986   7.968   2.790 -1.4426 -1.7343 -0.1217
  738SOL    HW2 8307   6.948   8.060   2.676 -3.1624 -0.6244  1.2910
  739SOL     OW 8308   7.664   6.643  10.142  0.6250 -0.5043  0.0964
  739SOL    HW1 8309   7.624   6.572  10.191  1.1391  0.3776  1.8944
  739SOL    HW2 8310   7.654   6.618  10.050 -1.8443 -1.4354  0.5564
  740SOL     OW 8311   0.693   3.932   3.173  0.4333  0.0321  0.2233
  740SOL    HW1 8312   0.623   3.872   3.148  0.7047 -0.9315  1.6750
  740SOL    HW2 8313   0.759   3.921   3.104  0.1287 -0.7394  0.0448
  741SOL     OW 8314   5.450   1.718   9.547 -0.8055  0.0458  0.3886
  741SOL    HW1 8315   5.404   1.749   9.626  0.2236  1.9117  0.3218
  741SOL    HW2 8316   5.498   1.795   9.516  2.5208 -1.7867  0.5427
  742SOL     OW 8317   2.818   0.764   5.009  0.1061  0.3519  0.6695
  742SOL    HW1 8318   2.890   0.825   4.993 -1.0002  1.7877  0.9518
  742SOL    HW2 8319   2.747   0.796   4.952  0.2026 -2.0740 -0.9424
  743SOL     OW 8320   2.520   0.489   4.445 -0.7355  0.6622 -1.0942
  743SOL    HW1 8321   2.569   0.558   4.401  1.3031 -0.9201 -1.4791
  743SOL    HW2 8322   2.512   0.419   4.379  1.0674 -1.1485  0.4456
  744SOL     OW 8323   8.654  10.684   4.576  0.0785 -0.0094 -0.5475
  744SOL    HW1 8324   8.743  10.655   4.552 -0.3504 -1.2237 -0.7267
  744SOL    HW2 8325   8.596  10.620   4.533 -0.8552  0.3387  0.1840
  745SOL     OW 8326   4.228   7.776   2.436  0.0103 -0.1192  0.7398
  745SOL    HW1 8327   4.220   7.783   2.341  0.1874  2.4989  0.8466
  745SOL    HW2 8328   4.322   7.784   2.452 -0.0407 -0.3364  1.1675
  746SOL     OW 8329   8.644   9.102   2.039 -0.2930  0.5280 -0.0325
  746SOL    HW1 8330   8.687   9.174   1.992  0.3780  0.7236  0.8476
  746SOL    HW2 8331   8.556   9.097   2.001  0.1280  0.8738 -1.0818
  747SOL     OW 8332   0.313  10.563   4.357 -0.2116 -0.1560  0.7414
  747SOL    HW1 8333   0.369  10.641   4.354 -0.8296  0.3113  0.9241
  747SOL    HW2 8334   0.368  10.495   4.394  0.7623 -0.1823 -0.7030
  748SOL     OW 8335  10.646   6.389   0.862 -0.5234  0.0114  0.1541
  748SOL    HW1 8336  10.730   6.423   0.892  0.7095 -0.8710 -2.0622
  748SOL    HW2 8337  10.587   6.465   0.864 -0.0979  0.3854  2.8808
  749SOL     OW 8338  10.898   2.345   9.105  0.5559 -0.1813  0.6754
  749SOL    HW1 8339  10.901   2.320   9.197  2.7456 -2.6002  0.0707
  749SOL    HW2 8340  10.989   2.368   9.084  0.0326  0.6075 -0.8286
  750SOL     OW 8341   5.987   9.119   1.570 -0.7418  0.3371  0.4588
  750SOL    HW1 8342   5.978   9.066   1.649 -1.0407  1.6745  1.3681
  750SOL    HW2 8343   6.073   9.094   1.535 -1.3124 -1.4725  0.2507
  751SOL     OW 8344   4.176  10.016   6.524 -0.2884 -0.1110 -0.1826
  751SOL    HW1 8345   4.139  10.096   6.489 -2.6044 -1.2815 -0.6137
  751SOL    HW2 8346   4.139  10.008   6.612 -1.0662 -1.2885 -0.5963
  752SOL     OW 8347   9.766   6.497   0.262 -0.3999  0.1376  0.1567
  752SOL    HW1 8348   9.852   6.458   0.281  0.7958  2.1349 -0.8381
  752SOL    HW2 8349   9.703   6.428   0.284  1.3566 -0.9476  2.1517
  753SOL     OW 8350   7.776   2.758   0.965 -0.0686 -0.6944 -0.3118
  753SOL    HW1 8351   7.779   2.663   0.954 -1.7976 -0.7983 -0.1540
  753SOL    HW2 8352   7.702   2.787   0.911  0.6700  0.6125 -0.6655
  754SOL     OW 8353   2.322   2.327   1.256  0.0082 -0.1631 -0.1306
  754SOL    HW1 8354   2.309   2.234   1.237  0.2817 -0.1032 -0.6361
  754SOL    HW2 8355   2.261   2.345   1.327  1.0308 -1.0795  1.0320
  755SOL     OW 8356   5.418   3.356   1.262 -0.1338 -0.2882  0.2834
  755SOL    HW1 8357   5.384   3.289   1.203 -1.7068  0.8763 -0.1654
  755SOL    HW2 8358   5.349   3.421   1.269  0.7872  0.6066  1.8551
  756SOL     OW 8359   2.060   2.217   2.537  0.6533  0.0557  0.2504
  756SOL    HW1 8360   2.090   2.184   2.621 -1.6898 -0.8851  0.8127
  756SOL    HW2 8361   2.047   2.311   2.551  3.1092  0.5138 -0.0335
  757SOL     OW 8362   2.394   0.733   2.951  0.1526  0.0167 -0.3013
  757SOL    HW1 8363   2.307   0.731   2.910  0.1985  0.4399 -0.4239
  757SOL    HW2 8364   2.377   0.727   3.045  0.0656 -1.3902 -0.3892
  758SOL     OW 8365   0.672   2.971   0.899  0.1513 -0.4489 -0.0932
  758SOL    HW1 8366   0.661   3.065   0.915 -2.8283 -0.9893  1.9658
  758SOL    HW2 8367   0.729   2.941   0.970 -0.4682 -0.4517  0.4154
  759SOL     OW 8368   9.108   5.421   0.537 -0.0069  0.3016  0.3794
  759SOL    HW1 8369   9.033   5.370   0.569  0.3784 -0.0683  0.6964
  759SOL    HW2 8370   9.131   5.378   0.454  1.1788 -0.9294  1.2994
  760SOL     OW 8371   6.015   1.258  10.210 -0.4495 -0.4844 -0.4182
  760SOL    HW1 8372   6.014   1.324  10.140 -0.0711  1.8783  1.6524
  760SOL    HW2 8373   5.935   1.274  10.259 -0.1093 -1.2679  0.4266
  761SOL     OW 8374   4.599   0.507   3.371 -0.3770  0.1602  0.1187
  761SOL    HW1 8375   4.525   0.525   3.429 -0.0017  0.2155  0.5839
  761SOL    HW2 8376   4.675   0.506   3.429 -0.0542 -0.2266 -0.3070
  762SOL     OW 8377   1.979   6.030   2.859 -0.0754  0.8067 -0.3729
  762SOL    HW1 8378   1.982   6.107   2.916  0.7893 -0.1385  0.9314
  762SOL    HW2 8379   2.064   6.028   2.816 -0.2935  0.8618 -0.8140
  763SOL     OW 8380   5.506   7.933   5.861 -0.4798 -0.2987  0.6765
  763SOL    HW1 8381   5.443   7.894   5.801 -1.4432 -0.0390  1.5004
  763SOL    HW2 8382   5.467   7.921   5.947 -0.4039  1.7430  1.0268
  764SOL     OW 8383   6.704   9.816   3.248  0.6736  0.1556 -0.0183
  764SOL    HW1 8384   6.738   9.727   3.261  0.7220  0.0515 -0.8190
  764SOL    HW2 8385   6.611   9.804   3.229  0.4241  0.3638  1.0331
  765SOL     OW 8386   8.704   0.510  10.316 -0.6770 -0.3691 -0.2076
  765SOL    HW1 8387   8.786   0.507  10.366 -0.3754 -1.1914 -0.7246
  765SOL    HW2 8388   8.695   0.601  10.288 -0.0660 -0.2245  0.0645
  766SOL     OW 8389   1.421   4.811   3.023  0.4183  0.3708 -0.3357
  766SOL    HW1 8390   1.492   4.853   3.072  0.1294  0.4632  0.0060
  766SOL    HW2 8391   1.345   4.865   3.041 -0.2580 -1.0158  1.1520
  767SOL     OW 8392   4.016   9.762   6.498 -0.1088 -0.5139  0.0822
  767SOL    HW1 8393   3.964   9.772   6.418  0.8259  0.4348 -0.4386
  767SOL    HW2 8394   4.066   9.844   6.504 -2.3881  0.8188  3.3309
  768SOL     OW 8395   2.673   3.960   6.986 -0.4401  0.1449 -0.1692
  768SOL    HW1 8396   2.598   3.916   6.947  0.5047 -1.4546 -0.2744
  768SOL    HW2 8397   2.731   3.889   7.014  0.9630  1.3227  0.0579
  769SOL     OW 8398   0.575   4.357   8.237  0.2318  0.0728  0.1393
  769SOL    HW1 8399   0.609   4.436   8.195  0.1733  0.7333  1.2831
  769SOL    HW2 8400   0.542   4.387   8.321  1.6676 -1.4120  1.3223
  770SOL     OW 8401   5.351   4.012   9.175  0.0407 -0.0492  0.0589
  770SOL    HW1 8402   5.319   4.029   9.264  0.1463 -0.5291  0.1953
  770SOL    HW2 8403   5.295   3.941   9.143  0.1865 -0.0693 -0.1544
  771SOL     OW 8404   8.534   7.044   0.992 -0.3009 -0.3368 -0.3388
  771SOL    HW1 8405   8.477   6.970   1.013 -0.3428  0.0183  0.9175
  771SOL    HW2 8406   8.623   7.010   1.007 -0.3551  0.1150  1.2449
  772SOL     OW 8407   4.597   7.410   9.852 -0.0713  0.2571 -0.2546
  772SOL    HW1 8408   4.678   7.392   9.899 -0.3947  0.2174  0.2872
  772SOL    HW2 8409   4.607   7.501   9.822  1.0010 -0.3493 -1.8790
  773SOL     OW 8410  10.139   5.612  10.075 -0.1386 -0.0075  0.6195
  773SOL    HW1 8411  10.191   5.562  10.012  0.1703  0.5663  0.4050
  773SOL    HW2 8412  10.136   5.700  10.037 -1.2757 -0.0306  0.6240
  774SOL     OW 8413   3.497   5.692   9.768  0.5429  0.0314  0.3352
  774SOL    HW1 8414   3.437   5.626   9.733  0.6517 -0.1973  0.5744
  774SOL    HW2 8415   3.560   5.706   9.698  1.9429 -1.8942  1.1371
  775SOL     OW 8416   4.597   0.941  10.319  0.0080  0.6113  0.1414
  775SOL    HW1 8417   4.657   0.946  10.244 -0.8414 -1.2994 -0.7344
  775SOL    HW2 8418   4.653   0.914  10.392  0.2684 -1.2463 -0.6834
  776SOL     OW 8419   5.589   5.234   4.476 -0.1840 -0.3049 -0.3238
  776SOL    HW1 8420   5.568   5.328   4.472 -0.3804 -0.3991 -1.8780
  776SOL    HW2 8421   5.677   5.232   4.514 -0.2668  0.4989 -0.0596
  777SOL     OW 8422   2.375   3.299   4.963  0.4169 -0.1518  0.0337
  777SOL    HW1 8423   2.456   3.272   5.006 -0.5542 -0.6472  1.6274
  777SOL    HW2 8424   2.394   3.290   4.870  3.0115  2.1314  0.1889
  778SOL     OW 8425   0.602   3.236   6.179  0.4748 -0.2144  0.0689
  778SOL    HW1 8426   0.569   3.220   6.268  1.2996  1.4183  0.7236
  778SOL    HW2 8427   0.638   3.325   6.183  0.7337 -0.1876 -1.8564
  779SOL     OW 8428   0.829   6.464   2.730  0.1978 -0.0187  0.3190
  779SOL    HW1 8429   0.785   6.380   2.715  0.2279  0.0165  0.0166
  779SOL    HW2 8430   0.917   6.451   2.694 -0.1239  0.4723 -0.6821
  780SOL     OW 8431   9.244  10.559   0.334  0.4834 -0.5323 -0.1185
  780SOL    HW1 8432   9.307  10.630   0.334 -0.6763  0.5197  0.1094
  780SOL    HW2 8433   9.179  10.584   0.268 -0.1855 -1.1434  0.2872
  781SOL     OW 8434  10.546   6.753   5.779 -0.4047  0.2008 -0.0149
  781SOL    HW1 8435  10.560   6.662   5.805 -1.4936  0.1608  0.4649
  781SOL    HW2 8436  10.632   6.782   5.748 -0.2829 -1.3284 -1.2379
  782SOL     OW 8437   7.995   0.037   2.497 -0.3690  0.5769  0.5486
  782SOL    HW1 8438   7.955   0.123   2.485  0.5605  0.8475 -0.8012
  782SOL    HW2 8439   7.924  -0.025   2.481 -1.0593  1.0763  1.5754
  783SOL     OW 8440   1.113   8.379   1.467  0.3875 -0.4642 -0.3497
  783SOL    HW1 8441   1.057   8.407   1.540  0.9781  1.5323 -0.6166
  783SOL    HW2 8442   1.059   8.317   1.418 -0.1443 -1.6110  1.5604
  784SOL     OW 8443   7.541   8.660   9.813  0.3486 -0.1106  0.0788
  784SOL    HW1 8444   7.583   8.718   9.875  0.1737  0.7614 -0.5967
  784SOL    HW2 8445   7.597   8.662   9.736  0.2109 -0.6429 -0.0379
  785SOL     OW 8446   9.197   6.181   8.471 -0.6215  0.3115 -0.1941
  785SOL    HW1 8447   9.126   6.197   8.409  0.7077  0.6778 -1.6719
  785SOL    HW2 8448   9.193   6.255   8.532  0.5404  2.2090 -2.2868
  786SOL     OW 8449  10.147  10.000   4.566  0.1756  0.1233  0.1104
  786SOL    HW1 8450  10.169   9.907   4.562  1.2548  0.3764 -0.3202
  786SOL    HW2 8451  10.204  10.034   4.636  0.1715  0.5515 -0.0918
  787SOL     OW 8452   2.311   8.299   2.292  0.7886  0.6215 -0.2741
  787SOL    HW1 8453   2.381   8.338   2.344  1.3897 -2.1806  1.1774
  787SOL    HW2 8454   2.356   8.238   2.233 -0.3945 -1.9095  1.3010
  788SOL     OW 8455   4.745   6.306   1.038  0.2899  0.1052 -0.4154
  788SOL    HW1 8456   4.828   6.267   1.012  0.9915  0.5323  1.0355
  788SOL    HW2 8457   4.770   6.391   1.075 -0.6157 -0.3011  1.2514
  789SOL     OW 8458   7.035   6.583   2.997 -0.2194 -0.0303  0.3265
  789SOL    HW1 8459   7.097   6.557   3.065 -1.2774 -0.3146  1.2088
  789SOL    HW2 8460   7.006   6.501   2.958 -1.2045 -0.0187  0.9911
  790SOL     OW 8461   2.238   2.129   0.926  0.1304  0.0877  0.0471
  790SOL    HW1 8462   2.277   2.212   0.899 -0.5931 -0.1349 -1.8537
  790SOL    HW2 8463   2.311   2.068   0.930  0.2398 -0.0110 -2.1824
  791SOL     OW 8464   0.261   2.143   8.944  0.1489 -0.3752  0.1638
  791SOL    HW1 8465   0.328   2.074   8.943 -0.2149 -0.7323 -0.5731
  791SOL    HW2 8466   0.222   2.139   8.857  1.0758  1.7365 -0.3946
  792SOL     OW 8467   9.645   7.567   4.604 -0.2685  0.0465 -0.2628
  792SOL    HW1 8468   9.663   7.538   4.514  2.5947 -1.3663  0.6711
  792SOL    HW2 8469   9.664   7.661   4.603  2.6566 -0.4751 -0.5424
  793SOL     OW 8470   2.518   6.066   8.011 -0.2017  0.1154 -0.2902
  793SOL    HW1 8471   2.569   6.065   7.931  0.2416 -1.0652 -0.0127
  793SOL    HW2 8472   2.579   6.038   8.079 -0.9774 -0.4078  0.1999
  794SOL     OW 8473   9.945   6.030   6.424 -0.1639  0.6626 -0.0256
  794SOL    HW1 8474  10.030   5.993   6.448  0.0819  1.0202 -0.3305
  794SOL    HW2 8475   9.905   6.054   6.507 -0.8838 -1.4525  0.2858
  795SOL     OW 8476   2.055  10.892   9.160  0.0148 -0.1229 -0.1267
  795SOL    HW1 8477   2.084  10.951   9.091 -2.1215 -1.5934 -2.4910
  795SOL    HW2 8478   1.960  10.891   9.152 -0.1015 -3.1678  0.3279
  796SOL     OW 8479   7.237   0.045   7.615  0.3168  0.0104 -0.3929
  796SOL    HW1 8480   7.213  -0.041   7.581  1.2934 -0.2681 -0.4163
  796SOL    HW2 8481   7.156   0.081   7.650  0.1736 -1.5034  0.9171
  797SOL     OW 8482   4.200   7.781   8.168  0.4118 -0.3196  0.3270
  797SOL    HW1 8483   4.288   7.756   8.195  0.4335 -0.3322  0.2439
  797SOL    HW2 8484   4.176   7.719   8.099  0.0683 -0.7470  0.8232
  798SOL     OW 8485   4.586   9.780   2.674  0.1692 -0.1126  0.6336
  798SOL    HW1 8486   4.632   9.862   2.695  0.2655 -0.0745  0.2828
  798SOL    HW2 8487   4.630   9.747   2.595  0.8783 -1.0947  1.4153
  799SOL     OW 8488   4.760   5.699   1.370  0.2921 -0.0211  0.7496
  799SOL    HW1 8489   4.689   5.673   1.429 -1.1356  1.5186 -0.1815
  799SOL    HW2 8490   4.725   5.683   1.282  1.6659 -0.5436  0.2742
  800SOL     OW 8491   0.412   1.160   0.412 -0.4326  0.1085 -0.0847
  800SOL    HW1 8492   0.375   1.093   0.355  1.2549 -0.0454 -1.0651
  800SOL    HW2 8493   0.339   1.219   0.431 -1.5161 -0.9988 -0.6715
  801SOL     OW 8494   9.845   8.429   0.196  0.4639 -0.1792  0.8218
  801SOL    HW1 8495   9.909   8.481   0.149 -1.0183  1.8380  0.9206
  801SOL    HW2 8496   9.812   8.487   0.264 -1.7891 -0.9425  0.4732
  802SOL     OW 8497   4.731   9.994   4.215 -0.1868 -1.1791 -0.3860
  802SOL    HW1 8498   4.684   9.946   4.284  0.2149 -1.7491 -0.5048
  802SOL    HW2 8499   4.671   9.993   4.141 -0.0685 -1.7396 -0.4751
  803SOL     OW 8500   5.225   8.339   1.469  0.0125 -0.0761 -0.3697
  803SOL    HW1 8501   5.184   8.297   1.393  1.3537 -2.6791  0.2213
  803SOL    HW2 8502   5.177   8.305   1.544 -0.9956  2.1048  0.0282
  804SOL     OW 8503   1.198  10.131   9.690  0.0524  0.1553 -0.7575
  804SOL    HW1 8504   1.159  10.211   9.725  1.5154  0.7117 -0.2995
  804SOL    HW2 8505   1.158  10.061   9.741  3.1674  1.0032  3.4043
  805SOL     OW 8506   8.920  10.156   0.754 -0.0943  0.1681  0.2251
  805SOL    HW1 8507   8.879  10.093   0.695  1.6494 -0.4652 -0.3659
  805SOL    HW2 8508   8.985  10.105   0.802  0.1619  1.1746  0.9727
  806SOL     OW 8509   9.026   2.257   3.818 -0.7938 -0.7640 -0.1271
  806SOL    HW1 8510   9.014   2.328   3.754 -1.1222 -0.4220  0.3142
  806SOL    HW2 8511   9.107   2.214   3.790 -0.8697 -0.5415 -0.7071
  807SOL     OW 8512   3.077   5.634  10.322 -0.0976  0.3149  0.2699
  807SOL    HW1 8513   3.104   5.722  10.350 -0.0338  0.0098  1.1713
  807SOL    HW2 8514   2.981   5.638  10.320 -0.1713 -0.0355  1.8277
  808SOL     OW 8515   8.129   3.854   7.833 -0.0884  0.1215  0.1642
  808SOL    HW1 8516   8.096   3.765   7.844  0.8041 -0.3048 -0.5498
  808SOL    HW2 8517   8.094   3.883   7.749 -0.6796  0.6004  0.5585
  809SOL     OW 8518   2.656   8.431   2.195  0.1262  0.3669 -0.1955
  809SOL    HW1 8519   2.722   8.418   2.263 -0.4845 -3.0386 -0.0848
  809SOL    HW2 8520   2.585   8.478   2.239 -0.1681 -1.5611  1.5733
  810SOL     OW 8521   9.544   6.500   6.900  0.0768 -0.3569  0.1573
  810SOL    HW1 8522   9.493   6.479   6.822 -0.3287 -1.0901  0.6049
  810SOL    HW2 8523   9.490   6.563   6.948  0.2951  0.0410 -0.1200
  811SOL     OW 8524   2.108   3.152   8.555 -0.2169  0.3460 -0.1337
  811SOL    HW1 8525   2.042   3.220   8.540 -1.1544 -0.5413 -0.1635
  811SOL    HW2 8526   2.166   3.158   8.479  1.0789  2.5965  0.9591
  812SOL     OW 8527   7.719   6.278   0.365  0.6098  0.2296 -0.1127
  812SOL    HW1 8528   7.755   6.290   0.277  0.3001 -0.3052 -0.3123
  812SOL    HW2 8529   7.681   6.191   0.364 -0.4406  0.6757  0.1897
  813SOL     OW 8530   6.501  10.856   5.633 -0.0279  0.5494  0.1710
  813SOL    HW1 8531   6.555  10.837   5.710 -0.9045  1.1678  0.9740
  813SOL    HW2 8532   6.562  10.852   5.559  1.1170  1.2478  1.0397
  814SOL     OW 8533   1.725   9.053   8.053  0.3347  0.2170 -0.3131
  814SOL    HW1 8534   1.687   8.966   8.039  0.6635  0.1742 -0.9739
  814SOL    HW2 8535   1.814   9.036   8.081  0.8551  0.3397 -1.8051
  815SOL     OW 8536   3.359   3.154   9.415  0.2235 -0.7469 -0.0617
  815SOL    HW1 8537   3.361   3.066   9.379  0.3027 -0.8165  0.1161
  815SOL    HW2 8538   3.271   3.163   9.452  0.1984 -0.7324 -0.1231
  816SOL     OW 8539   6.562   3.665   4.494  0.6094  0.3797 -0.4899
  816SOL    HW1 8540   6.658   3.663   4.491  0.6931  2.4236 -0.3503
  816SOL    HW2 8541   6.541   3.753   4.523 -1.3059 -0.9123  2.5169
  817SOL     OW 8542   4.170  10.243   2.572 -0.4131 -0.4702 -0.0328
  817SOL    HW1 8543   4.234  10.269   2.505  0.4572  0.7098  1.1840
  817SOL    HW2 8544   4.085  10.253   2.530 -0.2974  5.0602  0.2918
  818SOL     OW 8545   8.428   1.371   9.984 -0.1467 -0.1910  0.0556
  818SOL    HW1 8546   8.377   1.344  10.060 -0.0764  0.2998  0.2766
  818SOL    HW2 8547   8.374   1.438   9.942  0.0620 -0.0759 -0.0267
  819SOL     OW 8548   4.198   3.880  10.344 -0.3028  0.7797  0.2112
  819SOL    HW1 8549   4.252   3.820  10.394 -0.9483 -1.2237 -1.3654
  819SOL    HW2 8550   4.248   3.895  10.263 -1.5218 -0.1975 -0.7705
  820SOL     OW 8551   9.446   6.200   3.720 -0.7054  0.0853  0.0651
  820SOL    HW1 8552   9.396   6.122   3.697 -1.8302  0.0629  2.3143
  820SOL    HW2 8553   9.406   6.270   3.668 -1.2454 -0.4158 -0.2047
  821SOL     OW 8554   4.459   2.534   8.632  0.2350  0.3352 -0.7650
  821SOL    HW1 8555   4.509   2.455   8.649  0.1640  0.4261 -0.1349
  821SOL    HW2 8556   4.421   2.519   8.545 -1.9186 -1.4667  0.3736
  822SOL     OW 8557   9.962   3.889   2.482  0.3402 -0.7020 -0.2325
  822SOL    HW1 8558  10.029   3.898   2.414  0.3931  0.8463 -0.0104
  822SOL    HW2 8559   9.986   3.954   2.548 -2.2210  1.0627 -0.8695
  823SOL     OW 8560   5.768   8.152   0.203 -0.3629  0.1125 -0.7125
  823SOL    HW1 8561   5.688   8.166   0.152  1.0793  0.8287 -2.9335
  823SOL    HW2 8562   5.765   8.059   0.227 -2.1176  0.2614 -0.1943
  824SOL     OW 8563   4.759   4.121   6.706 -0.2616  0.2613  0.3652
  824SOL    HW1 8564   4.682   4.173   6.729 -0.4531  0.4328 -0.6022
  824SOL    HW2 8565   4.831   4.183   6.704 -0.2322  0.2336  0.5640
  825SOL     OW 8566   0.250   5.883   1.217 -0.0387 -0.1253  0.2271
  825SOL    HW1 8567   0.180   5.949   1.216 -1.3863 -1.3309  3.2355
  825SOL    HW2 8568   0.208   5.802   1.192  1.0719 -0.3285 -1.0939
  826SOL     OW 8569   9.355   8.282   8.925 -0.0509 -0.3619  0.1122
  826SOL    HW1 8570   9.300   8.360   8.922 -0.8820 -0.9490 -0.5971
  826SOL    HW2 8571   9.392   8.275   8.837 -1.2415 -1.6116 -0.3363
  827SOL     OW 8572   5.737   5.984   0.649 -0.1118  0.1209  0.2436
  827SOL    HW1 8573   5.788   5.903   0.648  0.3093  0.3649 -1.7115
  827SOL    HW2 8574   5.652   5.958   0.683  0.4295 -0.8516  0.9248
  828SOL     OW 8575  10.721   9.103  10.407 -0.3133 -0.3958 -0.3314
  828SOL    HW1 8576  10.650   9.084  10.346 -0.5296 -0.9195  0.0779
  828SOL    HW2 8577  10.680   9.100  10.494  0.1146 -0.2491 -0.1193
  829SOL     OW 8578   1.181   6.000   5.541 -0.5243 -0.1946  0.0936
  829SOL    HW1 8579   1.257   5.981   5.486  0.4989  0.3478  1.2512
  829SOL    HW2 8580   1.132   6.067   5.492  0.1971  0.0556 -0.2981
  830SOL     OW 8581   2.803   4.229   2.521 -0.0755  0.5860  0.5112
  830SOL    HW1 8582   2.739   4.224   2.592 -1.3122 -1.9130 -0.6426
  830SOL    HW2 8583   2.754   4.261   2.446 -0.1009 -1.4738 -0.4238
  831SOL     OW 8584   1.569   9.351   4.098 -0.2144 -0.2027  0.2713
  831SOL    HW1 8585   1.502   9.408   4.062 -0.0510 -0.3478 -0.2703
  831SOL    HW2 8586   1.527   9.309   4.174 -0.9422 -0.7503 -0.4139
  832SOL     OW 8587   3.038   3.895   0.558  0.0796  0.3108  0.3281
  832SOL    HW1 8588   3.132   3.882   0.561 -0.0972 -1.1278  0.1648
  832SOL    HW2 8589   3.022   3.970   0.615  1.3438  0.7815  0.0892
  833SOL     OW 8590   6.027   5.680   5.162  0.0612 -0.0382  0.1363
  833SOL    HW1 8591   6.002   5.701   5.252  1.6214 -0.4473  0.7043
  833SOL    HW2 8592   6.036   5.765   5.119  1.3935  0.2963  0.9991
  834SOL     OW 8593   3.623   0.844   1.605 -0.3244  0.1605 -0.3216
  834SOL    HW1 8594   3.626   0.825   1.699  0.2808 -0.7478 -0.5050
  834SOL    HW2 8595   3.696   0.903   1.589 -0.0249 -0.2120 -0.3278
  835SOL     OW 8596   2.038   1.164   6.685 -0.3372  0.2248  0.0455
  835SOL    HW1 8597   2.019   1.160   6.779  0.7583  0.8552  0.3140
  835SOL    HW2 8598   2.114   1.108   6.674 -1.7927 -1.6956 -0.8864
  836SOL     OW 8599   4.335  10.055   4.154  0.0257 -0.7332 -0.7746
  836SOL    HW1 8600   4.307  10.135   4.111 -0.4045 -0.8762 -0.7655
  836SOL    HW2 8601   4.259  10.027   4.205 -0.7495 -2.4944 -2.7184
  837SOL     OW 8602   1.359   9.693   5.915 -0.3383 -0.2493 -0.0668
  837SOL    HW1 8603   1.316   9.727   5.836  1.7166  0.7539 -0.7995
  837SOL    HW2 8604   1.427   9.634   5.882 -0.1381 -0.6509  1.0140
  838SOL     OW 8605  10.836   8.508   5.033  0.3197  0.4272 -0.2012
  838SOL    HW1 8606  10.882   8.566   5.094  0.0616  1.3894 -0.8980
  838SOL    HW2 8607  10.882   8.425   5.040  0.1727  0.4621  1.4426
  839SOL     OW 8608   3.865   1.468   4.008 -0.2955 -0.0088 -0.4041
  839SOL    HW1 8609   3.797   1.403   4.029 -0.3094 -0.0973 -0.7225
  839SOL    HW2 8610   3.933   1.418   3.964  0.2006 -0.0069  0.3385
  840SOL     OW 8611   5.123  10.459   6.112  0.1622  0.2103  0.4638
  840SOL    HW1 8612   5.137  10.380   6.060 -1.3526  0.4500 -0.3523
  840SOL    HW2 8613   5.096  10.427   6.198 -0.2307 -0.1652  0.2027
  841SOL     OW 8614   1.996   6.271   3.377  0.1782  0.2803  0.2418
  841SOL    HW1 8615   1.984   6.308   3.290 -0.1037  0.1197  0.2137
  841SOL    HW2 8616   2.084   6.299   3.403  1.0855 -1.3423 -0.9157
  842SOL     OW 8617   4.246   7.992   5.665  0.0864  0.0190 -0.5168
  842SOL    HW1 8618   4.332   8.029   5.687 -0.0428 -0.6524  1.2333
  842SOL    HW2 8619   4.265   7.929   5.595  1.0247 -0.0744 -0.1949
  843SOL     OW 8620  10.392   9.722   5.183  0.1781  0.1814  0.0963
  843SOL    HW1 8621  10.435   9.782   5.245  0.7407  0.4423 -0.5320
  843SOL    HW2 8622  10.377   9.776   5.105 -3.3957  0.8072  1.0053
  844SOL     OW 8623   3.358   4.292   4.620  0.2425 -0.4513  0.0528
  844SOL    HW1 8624   3.296   4.352   4.579 -1.2825 -1.8824  0.1670
  844SOL    HW2 8625   3.338   4.296   4.713 -1.7979 -3.0614 -0.1492
  845SOL     OW 8626   2.585   1.200   1.129  0.5694 -0.2663  0.6010
  845SOL    HW1 8627   2.539   1.241   1.202  0.2176 -1.1669  0.8966
  845SOL    HW2 8628   2.673   1.237   1.132 -0.0216  1.2212  0.2308
  846SOL     OW 8629   3.543   7.549  10.833 -0.1620  0.1356 -0.4690
  846SOL    HW1 8630   3.583   7.516  10.752  1.4124  1.9935 -0.5288
  846SOL    HW2 8631   3.571   7.641  10.837 -3.3560  1.2046  0.2487
  847SOL     OW 8632   8.478  10.911   9.827  0.0514 -0.4924  0.4774
  847SOL    HW1 8633   8.459  10.833   9.879  0.5692 -0.2865  0.9854
  847SOL    HW2 8634   8.573  10.909   9.813 -0.1083 -0.7235 -0.7597
  848SOL     OW 8635   6.544  10.403   5.830  0.5165 -0.0088  0.4007
  848SOL    HW1 8636   6.479  10.452   5.780  0.2797 -0.9569 -0.2520
  848SOL    HW2 8637   6.569  10.330   5.772  3.1213  1.0246  0.0877
  849SOL     OW 8638   5.090   3.523   9.006 -0.5294 -0.3074  0.4214
  849SOL    HW1 8639   5.021   3.532   9.072 -0.0567  1.3228  0.7257
  849SOL    HW2 8640   5.097   3.429   8.992 -1.8626 -0.5804  1.3964
  850SOL     OW 8641   3.099   5.749   3.789 -0.3433 -0.3329  0.2352
  850SOL    HW1 8642   3.121   5.780   3.701  3.3845 -2.3843  0.2575
  850SOL    HW2 8643   3.036   5.678   3.774 -1.7856  1.0313 -0.4791
  851SOL     OW 8644   4.138   0.757   0.587 -0.2216  0.0289  0.4107
  851SOL    HW1 8645   4.227   0.790   0.574 -0.2426  0.4888  1.3362
  851SOL    HW2 8646   4.136   0.675   0.539 -0.2060  1.3887 -2.1108
  852SOL     OW 8647   7.964   1.044   6.728 -0.6943  0.6292 -0.2234
  852SOL    HW1 8648   8.058   1.026   6.732 -0.9800 -0.9393  0.0520
  852SOL    HW2 8649   7.939   1.023   6.638 -0.5600  2.3977 -0.7124
  853SOL     OW 8650   3.347   8.771  10.527 -0.5866 -0.5653  0.6803
  853SOL    HW1 8651   3.335   8.739  10.617 -0.6010  2.5148  1.9195
  853SOL    HW2 8652   3.356   8.866  10.537 -0.5217 -0.1119 -2.6191
  854SOL     OW 8653   7.780   4.974   5.545  0.7415 -0.0565  0.3335
  854SOL    HW1 8654   7.754   5.054   5.499 -1.6620  0.1831  1.9544
  854SOL    HW2 8655   7.706   4.915   5.533  1.0812 -0.8291  1.8970
  855SOL     OW 8656   9.216  10.205   5.628  0.3930  0.2743 -0.8483
  855SOL    HW1 8657   9.129  10.170   5.609  0.7800 -1.5781  0.5374
  855SOL    HW2 8658   9.200  10.271   5.696  0.2255 -1.5937  1.0122
  856SOL     OW 8659   6.158   2.715   9.492 -0.2951  0.0399  0.0962
  856SOL    HW1 8660   6.112   2.634   9.512 -0.0767 -0.0742  0.1325
  856SOL    HW2 8661   6.165   2.760   9.576  0.1400 -0.1902  0.1819
  857SOL     OW 8662   9.569   3.699   7.418 -0.3618  0.6644 -0.4406
  857SOL    HW1 8663   9.613   3.681   7.335 -0.7605  1.0228 -0.7370
  857SOL    HW2 8664   9.640   3.720   7.479 -0.0189 -0.2800 -0.5083
  858SOL     OW 8665   8.141   8.576   8.752 -0.0077 -0.0279 -0.1989
  858SOL    HW1 8666   8.067   8.515   8.759  1.1880 -1.3144  2.6235
  858SOL    HW2 8667   8.214   8.530   8.794  1.5050  2.5645  0.1918
  859SOL     OW 8668   5.173   2.738  10.244 -0.3457 -0.0566  0.3554
  859SOL    HW1 8669   5.084   2.718  10.274  0.5165 -1.1016  2.4369
  859SOL    HW2 8670   5.198   2.816  10.294  0.4179 -0.6591  0.9476
  860SOL     OW 8671  10.095   1.303  10.798 -0.0512  0.2743 -0.0261
  860SOL    HW1 8672  10.016   1.253  10.819  0.0347  0.8389  1.8120
  860SOL    HW2 8673  10.109   1.359  10.874  2.1119  0.1962 -0.2992
  861SOL     OW 8674   2.716   2.553   1.007  0.0080 -0.6192 -0.4639
  861SOL    HW1 8675   2.677   2.527   0.924 -0.4550 -1.1701 -0.0797
  861SOL    HW2 8676   2.768   2.477   1.033  0.2486 -0.4019 -0.3042
  862SOL     OW 8677   1.641   4.190  10.218 -0.0867 -0.3574 -0.2475
  862SOL    HW1 8678   1.612   4.241  10.294  0.3092 -1.8149  0.9380
  862SOL    HW2 8679   1.728   4.158  10.243  0.3205 -0.3254 -1.5950
  863SOL     OW 8680   6.910   6.384   8.381  0.2014  0.2072  0.0782
  863SOL    HW1 8681   6.986   6.342   8.422  0.6286 -0.0696 -0.9842
  863SOL    HW2 8682   6.907   6.349   8.292  0.6793  2.5107 -0.9126
  864SOL     OW 8683  10.172   3.097   4.373  0.0569 -0.1251  0.3575
  864SOL    HW1 8684  10.208   3.026   4.320 -0.8988  0.1358 -0.6848
  864SOL    HW2 8685  10.161   3.059   4.460 -0.3539 -1.2376 -0.1557
  865SOL     OW 8686   8.792   8.204   7.047 -0.0675 -0.1668  0.2127
  865SOL    HW1 8687   8.725   8.272   7.042 -1.7504 -1.8087 -0.9488
  865SOL    HW2 8688   8.845   8.217   6.968 -0.8499 -0.6523 -0.3989
  866SOL     OW 8689  10.153   2.906   5.531  0.1025  0.6059  0.0891
  866SOL    HW1 8690  10.062   2.886   5.552 -0.5805  1.9692 -1.3729
  866SOL    HW2 8691  10.165   2.996   5.560  0.4954  0.9651 -1.1252
  867SOL     OW 8692   2.371   3.706   8.117  0.1260  0.5002  0.0865
  867SOL    HW1 8693   2.426   3.686   8.042  0.4063 -2.1482  0.9079
  867SOL    HW2 8694   2.283   3.679   8.090  0.1848 -0.2275  0.5772
  868SOL     OW 8695  10.281   9.418  10.328 -0.0431  0.4573  0.2765
  868SOL    HW1 8696  10.247   9.333  10.356  1.8660 -0.3612  0.2866
  868SOL    HW2 8697  10.323   9.400  10.244  0.3677  1.4011  0.2757
  869SOL     OW 8698   7.108   7.870   4.635 -0.5879  0.3108  0.6413
  869SOL    HW1 8699   7.143   7.865   4.723 -1.1504  1.5896  0.9617
  869SOL    HW2 8700   7.038   7.935   4.640 -1.7848 -0.8229 -0.3788
  870SOL     OW 8701   8.248   9.251  10.735  0.4621 -0.0354  0.7681
  870SOL    HW1 8702   8.319   9.249  10.671  0.1629  0.2506  0.4223
  870SOL    HW2 8703   8.200   9.331  10.715  1.6206  1.2053  2.7163
  871SOL     OW 8704   0.573   0.310   8.785 -0.4679 -0.1898 -0.6468
  871SOL    HW1 8705   0.546   0.388   8.736  0.9602 -0.1164 -1.3821
  871SOL    HW2 8706   0.601   0.343   8.870  0.4003  0.1656 -1.0557
  872SOL     OW 8707   3.578   9.606   2.352  0.0258 -0.3237  0.1846
  872SOL    HW1 8708   3.497   9.658   2.353  0.4425  0.3783 -0.6087
  872SOL    HW2 8709   3.555   9.527   2.303 -0.4494 -0.6148  0.8597
  873SOL     OW 8710   3.074   1.770  10.504 -0.2855 -0.0398  0.6714
  873SOL    HW1 8711   3.070   1.675  10.508 -2.4123  0.0097  0.4381
  873SOL    HW2 8712   3.158   1.789  10.462 -0.0749 -1.8079  0.2423
  874SOL     OW 8713   4.634   2.018   7.099 -0.0862 -0.0621  0.3406
  874SOL    HW1 8714   4.593   2.104   7.096  1.4505  0.7483  1.0649
  874SOL    HW2 8715   4.572   1.960   7.055 -0.9321  1.4968 -0.6285
  875SOL     OW 8716   1.768  10.791   1.384 -0.7196  0.5543  0.7182
  875SOL    HW1 8717   1.811  10.706   1.378 -1.9033 -0.1322  1.7320
  875SOL    HW2 8718   1.826  10.850   1.335 -0.5317 -1.0672 -1.1193
  876SOL     OW 8719  10.037   6.746   4.180  0.2239  0.6837  0.3789
  876SOL    HW1 8720  10.003   6.831   4.208 -0.9657  0.8940 -1.4983
  876SOL    HW2 8721   9.968   6.684   4.201 -0.4078  0.7481 -1.3170
  877SOL     OW 8722   1.832  10.891   2.452  0.3804  0.2762  0.9043
  877SOL    HW1 8723   1.916  10.937   2.451  0.0045  1.0597  2.2936
  877SOL    HW2 8724   1.777  10.940   2.391  0.8814 -0.1921  0.0521
  878SOL     OW 8725   9.594   7.378   8.410  0.0777 -0.0081  0.1417
  878SOL    HW1 8726   9.676   7.343   8.375 -0.6410 -2.7604  0.9928
  878SOL    HW2 8727   9.528   7.313   8.387 -1.4649  1.0051  1.4911
  879SOL     OW 8728   2.880   7.474   6.596 -0.7348 -0.1708 -0.7168
  879SOL    HW1 8729   2.935   7.398   6.573  1.1767  0.0977  2.3871
  879SOL    HW2 8730   2.798   7.435   6.625 -0.5105 -0.9120 -1.0305
  880SOL     OW 8731   9.830   8.846   0.689  0.6408 -0.0594 -0.0340
  880SOL    HW1 8732   9.859   8.891   0.609  0.0956  3.3005  1.4703
  880SOL    HW2 8733   9.735   8.851   0.686  0.6156 -0.0080  0.7403
  881SOL     OW 8734  10.250   8.011  10.860  0.2630 -0.2188  0.0360
  881SOL    HW1 8735  10.282   8.022  10.770  0.6086 -1.0819  0.0437
  881SOL    HW2 8736  10.321   7.966  10.905 -0.0175 -0.0228  0.6816
  882SOL     OW 8737  10.457   8.521   6.130 -0.5201  0.1060 -0.3272
  882SOL    HW1 8738  10.426   8.500   6.218 -1.2250  1.9131 -0.1124
  882SOL    HW2 8739  10.383   8.565   6.088  0.5774  1.3790 -1.0042
  883SOL     OW 8740   3.135   6.912   1.081 -0.0647 -0.8792 -0.1342
  883SOL    HW1 8741   3.060   6.871   1.039  0.6226  0.6606 -3.1423
  883SOL    HW2 8742   3.190   6.943   1.008  1.1207  2.2838  1.8737
  884SOL     OW 8743   5.554   9.932   0.770  0.3995 -0.7456  0.2195
  884SOL    HW1 8744   5.581  10.010   0.722  0.8497  0.0526  1.6769
  884SOL    HW2 8745   5.459   9.928   0.758  0.6474 -1.4172 -1.8799
  885SOL     OW 8746   3.472   8.197   7.698 -0.5163 -0.0789 -0.4175
  885SOL    HW1 8747   3.512   8.123   7.651 -0.5212 -1.8992  2.2315
  885SOL    HW2 8748   3.544   8.241   7.741 -0.7950 -0.1237  0.0997
  886SOL     OW 8749   1.981   6.962  10.548 -0.3673  0.3919 -0.0456
  886SOL    HW1 8750   1.923   6.925  10.614  0.0298 -0.3480 -0.0988
  886SOL    HW2 8751   2.038   6.889  10.523 -0.8023  0.5241 -1.5235
  887SOL     OW 8752  10.475   2.579   2.898  0.1783  0.0450  0.3025
  887SOL    HW1 8753  10.507   2.495   2.867  0.4500  0.7790 -1.5571
  887SOL    HW2 8754  10.544   2.641   2.875 -0.8059  1.0404 -0.0632
  888SOL     OW 8755   6.606   5.793   4.734  0.4805 -0.4788 -0.4424
  888SOL    HW1 8756   6.560   5.747   4.804  0.2944 -1.0123 -0.9133
  888SOL    HW2 8757   6.585   5.745   4.654  1.2120 -0.2648 -0.7822
  889SOL     OW 8758   4.263   9.272   0.004  0.0458 -0.5202 -0.6193
  889SOL    HW1 8759   4.260   9.178   0.021  2.2617 -0.5527 -0.0350
  889SOL    HW2 8760   4.294   9.279  -0.087  1.2775 -0.4052 -0.2156
  890SOL     OW 8761   8.692  10.561   6.345 -0.5024  0.1292  0.3472
  890SOL    HW1 8762   8.674  10.498   6.275  1.7032 -0.3086  0.1117
  890SOL    HW2 8763   8.718  10.641   6.299 -2.0730  0.8602  0.6671
  891SOL     OW 8764   2.744   7.075  10.251  0.1911 -0.0417 -0.5864
  891SOL    HW1 8765   2.728   7.061  10.158  0.0125 -0.3760 -0.5064
  891SOL    HW2 8766   2.784   7.162  10.255 -0.5003  0.3038 -0.9098
  892SOL     OW 8767  10.614   2.435   6.070 -0.3234 -0.0933 -0.1223
  892SOL    HW1 8768  10.702   2.410   6.096 -0.2003  1.0139  0.5867
  892SOL    HW2 8769  10.569   2.352   6.052  0.3881 -0.7453  1.0432
  893SOL     OW 8770  10.192   7.790   9.269  0.7390  0.0281  0.0452
  893SOL    HW1 8771  10.168   7.798   9.361  0.8278  0.9662 -0.0013
  893SOL    HW2 8772  10.114   7.819   9.222 -0.4382 -3.2310 -0.2965
  894SOL     OW 8773   0.901   0.467   4.860 -0.4081  0.1834  0.2357
  894SOL    HW1 8774   0.828   0.410   4.837 -0.3556  0.6351 -1.1515
  894SOL    HW2 8775   0.941   0.426   4.936 -2.1968  0.0211  1.1279
  895SOL     OW 8776   9.531  10.073   1.585 -0.4694 -0.4890 -0.4782
  895SOL    HW1 8777   9.502  10.106   1.670 -0.9099  1.1190 -1.2133
  895SOL    HW2 8778   9.610  10.123   1.565  1.0394 -2.5313  0.0092
  896SOL     OW 8779   1.172   9.305   8.471  0.1165 -0.1361  0.5806
  896SOL    HW1 8780   1.101   9.269   8.525  0.4752 -1.2929  0.3143
  896SOL    HW2 8781   1.127   9.350   8.400 -0.3566 -0.1833  0.8471
  897SOL     OW 8782  10.363   1.403   2.478 -0.5166 -0.8265 -0.3284
  897SOL    HW1 8783  10.304   1.375   2.408 -0.4162  0.7635 -1.0852
  897SOL    HW2 8784  10.339   1.494   2.495  1.4343 -0.2599 -0.3799
  898SOL     OW 8785   9.977   9.268   8.322  0.2027 -0.2384 -0.6276
  898SOL    HW1 8786  10.006   9.334   8.258  1.8353 -0.5320 -0.2304
  898SOL    HW2 8787   9.882   9.264   8.310  0.2064  1.3222 -1.4851
  899SOL     OW 8788   4.753   3.271   3.291 -0.4194 -0.2063 -0.3691
  899SOL    HW1 8789   4.776   3.178   3.303 -0.0252 -0.0705 -0.0651
  899SOL    HW2 8790   4.662   3.277   3.320  0.4365  0.0792  2.5450
  900SOL     OW 8791   2.553   1.982   3.017  0.3046 -0.6128  0.1384
  900SOL    HW1 8792   2.486   2.023   3.070  0.0942 -2.4635  1.3832
  900SOL    HW2 8793   2.524   1.891   3.007  2.7107 -1.5606  0.9839
  901SOL     OW 8794   1.607   4.488   6.098 -0.5097  0.2579 -0.0029
  901SOL    HW1 8795   1.546   4.553   6.131 -1.6138  1.5876 -4.0776
  901SOL    HW2 8796   1.552   4.424   6.053  0.8502  0.8063 -2.6987
  902SOL     OW 8797   3.989   9.118   9.543  0.0116 -0.2709 -0.4274
  902SOL    HW1 8798   3.976   9.175   9.619  1.8278  1.7783 -1.5188
  902SOL    HW2 8799   3.939   9.039   9.563  1.3538 -0.3403  3.4105
  903SOL     OW 8800   3.441  10.776   7.307 -0.0633  0.1584 -0.0092
  903SOL    HW1 8801   3.459  10.769   7.401  0.7152  0.9051 -0.0939
  903SOL    HW2 8802   3.506  10.720   7.265 -1.6970 -1.8601 -0.0365
  904SOL     OW 8803  10.181  10.276   7.485  0.0949  0.2679  0.6483
  904SOL    HW1 8804  10.155  10.205   7.543 -0.4036  1.0446  1.4072
  904SOL    HW2 8805  10.265  10.249   7.449 -1.0653 -1.6884 -0.7791
  905SOL     OW 8806   7.192  10.322   5.045 -0.1372  0.5015 -0.0412
  905SOL    HW1 8807   7.269  10.378   5.044 -0.5197  1.1436  1.9146
  905SOL    HW2 8808   7.216  10.248   5.101 -0.9630  0.8134  0.7623
  906SOL     OW 8809   8.765  10.855   7.213  0.0423  0.2996 -0.2209
  906SOL    HW1 8810   8.736  10.946   7.206  0.7296  0.5079 -0.4035
  906SOL    HW2 8811   8.785  10.843   7.306 -1.1048 -0.0042  0.0069
  907SOL     OW 8812   9.226   0.898   2.375 -0.3573 -0.1875 -0.4891
  907SOL    HW1 8813   9.170   0.820   2.377  0.8437 -1.0662 -0.1688
  907SOL    HW2 8814   9.219   0.935   2.463  1.6655 -1.8733  0.4597
  908SOL     OW 8815   7.502   6.351   9.985  0.2777 -0.4070 -0.4108
  908SOL    HW1 8816   7.516   6.378  10.076 -1.7916 -1.3310  0.2298
  908SOL    HW2 8817   7.435   6.411   9.952 -0.2740 -1.1939 -0.7437
  909SOL     OW 8818   7.058   6.642   8.192 -0.2838  0.7587  0.0426
  909SOL    HW1 8819   7.074   6.558   8.150 -0.3064  1.3906 -1.2926
  909SOL    HW2 8820   6.963   6.650   8.195 -0.3069  1.3555 -1.2228
  910SOL     OW 8821   6.089   6.014   8.339 -0.4982  0.1684  0.4153
  910SOL    HW1 8822   6.079   6.035   8.246 -0.4649 -0.3696  0.2851
  910SOL    HW2 8823   6.036   5.935   8.351  0.4191 -0.4334  0.5929
  911SOL     OW 8824   9.770   1.025   7.338  0.0450  0.2065 -0.4901
  911SOL    HW1 8825   9.834   0.993   7.274  0.1238  0.6387 -0.6308
  911SOL    HW2 8826   9.824   1.058   7.410 -0.0504 -0.6714 -0.0028
  912SOL     OW 8827   5.577   9.301   6.586  0.4777 -0.1117 -0.1635
  912SOL    HW1 8828   5.655   9.249   6.605  1.0675  0.0782 -1.9726
  912SOL    HW2 8829   5.599   9.390   6.614 -0.0333 -0.5074  1.6393
  913SOL     OW 8830   9.900   6.345  10.453  0.2757  0.0784  0.0452
  913SOL    HW1 8831   9.995   6.344  10.460  0.2296 -2.0371  1.5061
  913SOL    HW2 8832   9.880   6.282  10.384 -0.0758 -0.2447  0.4382
  914SOL     OW 8833   9.502   8.441   7.773 -0.4090 -0.1542  0.1746
  914SOL    HW1 8834   9.579   8.394   7.804 -0.8155 -0.7386  0.3114
  914SOL    HW2 8835   9.448   8.374   7.731 -0.0609  0.5291 -1.4597
  915SOL     OW 8836   7.466   6.751   7.223  0.4732 -0.6558  0.2749
  915SOL    HW1 8837   7.524   6.679   7.246 -0.7231 -1.7686 -0.0581
  915SOL    HW2 8838   7.396   6.710   7.172  0.3234  0.9166 -0.8504
  916SOL     OW 8839   8.737   7.824   0.888 -0.2819 -0.2072 -0.0483
  916SOL    HW1 8840   8.753   7.871   0.806  1.6043 -1.5108 -0.5008
  916SOL    HW2 8841   8.803   7.754   0.888  0.0217 -0.0241  2.7513
  917SOL     OW 8842   4.479   0.926   6.964 -0.2621 -0.0703 -0.2632
  917SOL    HW1 8843   4.504   0.983   7.037 -0.1209 -0.8702  0.3260
  917SOL    HW2 8844   4.384   0.939   6.955 -0.3582 -0.3327  0.3763
  918SOL     OW 8845   8.812   5.361   0.250  0.0169  0.1426 -0.0747
  918SOL    HW1 8846   8.848   5.444   0.281  0.6692  0.2021 -0.9590
  918SOL    HW2 8847   8.811   5.369   0.155 -1.8986 -0.0470 -0.1165
  919SOL     OW 8848   3.962   9.270   5.906 -0.1301 -0.0842 -0.2030
  919SOL    HW1 8849   3.949   9.210   5.832  0.3698  1.0387 -1.2441
  919SOL    HW2 8850   4.012   9.218   5.970 -1.8803 -1.5589  0.0444
  920SOL     OW 8851   1.023   1.957   6.126  0.0802  0.0282 -0.1784
  920SOL    HW1 8852   1.090   1.957   6.058  0.4941  0.1401  0.2248
  920SOL    HW2 8853   0.969   1.880   6.107  0.6611 -0.3875 -0.1758
  921SOL     OW 8854   9.987  10.062   2.778  0.3388  0.6282 -0.1654
  921SOL    HW1 8855   9.943   9.982   2.808 -1.5952  1.6126 -0.2188
  921SOL    HW2 8856  10.075  10.056   2.815  0.7527 -2.1851 -1.3384
  922SOL     OW 8857  10.729   3.227   6.066 -0.8380  0.2246 -0.2261
  922SOL    HW1 8858  10.816   3.194   6.088 -1.7556 -3.1765 -1.2160
  922SOL    HW2 8859  10.698   3.269   6.146  1.0438  0.0396  0.6379
  923SOL     OW 8860   4.198   4.318   8.113  0.1548  0.5462 -0.1435
  923SOL    HW1 8861   4.139   4.392   8.096 -1.6621 -0.9202 -0.5633
  923SOL    HW2 8862   4.142   4.252   8.153  2.1314  0.0251  1.9300
  924SOL     OW 8863   6.890   0.471   3.078  0.4002 -0.3623 -0.1061
  924SOL    HW1 8864   6.947   0.407   3.036  0.8236 -1.6608  2.2496
  924SOL    HW2 8865   6.809   0.423   3.096  0.2558  0.1173  0.5655
  925SOL     OW 8866   3.586   7.931   2.458  0.1599  0.0114 -0.5004
  925SOL    HW1 8867   3.508   7.984   2.475 -0.4820  0.1711 -3.4335
  925SOL    HW2 8868   3.656   7.995   2.443 -0.4408  0.1411 -3.2549
  926SOL     OW 8869   9.071   3.158   2.076 -0.5441  0.3882 -0.2804
  926SOL    HW1 8870   9.144   3.167   2.137  0.0780  1.5493 -1.1444
  926SOL    HW2 8871   8.997   3.133   2.130  0.1920  0.5241  0.8155
  927SOL     OW 8872   0.974   5.406   5.744 -0.1835  0.0050 -0.3242
  927SOL    HW1 8873   1.005   5.338   5.684  0.4303 -0.2359  0.2435
  927SOL    HW2 8874   0.999   5.374   5.831  1.3631  1.5798 -0.1264
  928SOL     OW 8875   3.941   8.485   2.420 -0.3014 -0.0503 -0.8667
  928SOL    HW1 8876   3.891   8.528   2.351  0.9916  3.6102  0.2657
  928SOL    HW2 8877   3.875   8.449   2.479 -1.4388 -0.6948 -2.4656
  929SOL     OW 8878   2.977   9.408   9.385  0.4717  0.0113 -0.1650
  929SOL    HW1 8879   3.023   9.346   9.327  0.4105  1.2594 -1.6233
  929SOL    HW2 8880   2.937   9.471   9.325  2.1232  2.5885  1.2684
  930SOL     OW 8881   4.157   1.744   0.472 -0.2716  0.2920 -0.7630
  930SOL    HW1 8882   4.200   1.772   0.391 -0.9869  1.0497 -0.8864
  930SOL    HW2 8883   4.226   1.697   0.520  0.5779  1.1001 -1.1525
  931SOL     OW 8884   8.511   7.518   2.642 -0.5129 -0.6975  0.4166
  931SOL    HW1 8885   8.525   7.574   2.565 -2.0651  2.4346  2.2093
  931SOL    HW2 8886   8.583   7.540   2.701 -0.4535 -1.5535  0.6673
  932SOL     OW 8887   8.335   1.423  10.692 -0.3959  0.1724 -0.0072
  932SOL    HW1 8888   8.322   1.415  10.787  1.0229 -1.2463  0.1157
  932SOL    HW2 8889   8.249   1.448  10.658 -0.9860  0.4868  1.6284
  933SOL     OW 8890   0.230   6.687   7.775 -0.5548 -0.3517  0.0553
  933SOL    HW1 8891   0.242   6.654   7.864  0.9932 -1.6539 -0.5849
  933SOL    HW2 8892   0.140   6.717   7.772 -1.3180 -2.3183  1.4489
  934SOL     OW 8893   6.131   2.479   3.381 -0.3344 -0.0294 -0.3940
  934SOL    HW1 8894   6.115   2.385   3.387 -0.9779  0.1469  0.8492
  934SOL    HW2 8895   6.076   2.508   3.309 -1.1682 -0.3967  0.0834
  935SOL     OW 8896   7.500   9.282  10.434  0.8326  0.5204  0.2779
  935SOL    HW1 8897   7.550   9.359  10.406  1.8519 -0.3965 -0.4773
  935SOL    HW2 8898   7.527   9.268  10.525  1.4555  0.4209  0.0794
  936SOL     OW 8899   2.715   2.586   2.127 -0.4170  0.7444  0.0704
  936SOL    HW1 8900   2.789   2.539   2.165 -0.8187  0.1333  0.1096
  936SOL    HW2 8901   2.675   2.524   2.066 -0.3405  1.3889 -0.6581
  937SOL     OW 8902   3.324   4.316   6.838  0.1769 -0.2551 -0.2643
  937SOL    HW1 8903   3.244   4.356   6.806 -0.8297 -0.8890  1.3770
  937SOL    HW2 8904   3.352   4.258   6.767 -1.5090 -0.9774 -0.3635
  938SOL     OW 8905   2.475   4.634   8.210  0.2726  0.2104 -0.3204
  938SOL    HW1 8906   2.460   4.664   8.300  1.1994 -1.2557  0.3667
  938SOL    HW2 8907   2.399   4.579   8.190  0.6868 -0.5461  0.1003
  939SOL     OW 8908   2.818   5.878   0.113  0.0232 -0.3311  0.2291
  939SOL    HW1 8909   2.755   5.838   0.172 -1.4579  0.6234 -0.6432
  939SOL    HW2 8910   2.854   5.805   0.062 -1.4748 -0.7457 -0.2718
  940SOL     OW 8911   4.430   1.839   1.472 -0.0790 -0.1013 -0.0955
  940SOL    HW1 8912   4.451   1.904   1.404 -0.7328  0.2300  0.0064
  940SOL    HW2 8913   4.345   1.868   1.506 -0.0818 -0.6673  0.3787
  941SOL     OW 8914  10.186   9.346   5.257  0.3893  0.1461 -0.0339
  941SOL    HW1 8915  10.184   9.350   5.353  0.8866  0.3335 -0.0311
  941SOL    HW2 8916  10.113   9.288   5.235  0.5351 -0.2443  0.4806
  942SOL     OW 8917   2.681   0.292   0.795 -0.4930 -0.5570 -0.7177
  942SOL    HW1 8918   2.656   0.263   0.707 -0.2971 -2.5491 -0.1821
  942SOL    HW2 8919   2.611   0.260   0.851 -0.5161  0.5262 -0.1181
  943SOL     OW 8920   0.169   9.661   5.897 -0.0273 -0.0326 -0.2060
  943SOL    HW1 8921   0.137   9.679   5.985 -3.7094  0.7873 -1.5472
  943SOL    HW2 8922   0.132   9.576   5.875 -0.9669  0.7028 -1.6488
  944SOL     OW 8923   7.817   8.807   8.340  0.1225 -0.0455 -0.4322
  944SOL    HW1 8924   7.897   8.760   8.314  0.0750  0.5973 -1.8258
  944SOL    HW2 8925   7.846   8.873   8.402  0.1438 -2.0953  1.8740
  945SOL     OW 8926   3.984   2.579  10.624 -0.1658  0.4748  0.9193
  945SOL    HW1 8927   4.037   2.501  10.608  0.4145  1.1000 -0.3576
  945SOL    HW2 8928   4.033   2.629  10.689  0.2865  0.5458  0.5274
  946SOL     OW 8929   0.134   5.409   7.110 -0.1749 -0.0862 -0.3669
  946SOL    HW1 8930   0.185   5.346   7.160 -0.8181 -0.9716 -0.8104
  946SOL    HW2 8931   0.047   5.369   7.100 -1.4589  1.9502  1.5491
  947SOL     OW 8932   3.164   6.277  10.301 -0.2643 -0.0467  0.4833
  947SOL    HW1 8933   3.196   6.221  10.372 -0.3410 -0.6302  0.0713
  947SOL    HW2 8934   3.071   6.288  10.319 -0.3728 -0.5401  0.2569
  948SOL     OW 8935   1.412   8.314   3.127  0.0573  0.6490 -0.0811
  948SOL    HW1 8936   1.318   8.306   3.146  0.3240  1.3855  1.7165
  948SOL    HW2 8937   1.450   8.349   3.207  1.7902  1.0079 -1.0082
  949SOL     OW 8938   2.818   7.608   4.547  0.7619  0.0592 -0.0474
  949SOL    HW1 8939   2.789   7.518   4.563  0.5133 -0.0347 -0.9657
  949SOL    HW2 8940   2.815   7.649   4.633  0.0866 -0.5887  0.2559
  950SOL     OW 8941   7.525  10.098   5.177  0.8885  0.5204  0.3803
  950SOL    HW1 8942   7.595  10.079   5.240  0.4681 -0.4496  0.5741
  950SOL    HW2 8943   7.520  10.019   5.123  0.4322  0.8748 -0.0956
  951SOL     OW 8944   1.921   1.651  10.692  0.4042 -0.2287  0.7506
  951SOL    HW1 8945   1.848   1.600  10.658  1.1258 -0.4680 -0.5255
  951SOL    HW2 8946   1.913   1.736  10.649 -0.0392  0.3104  1.8624
  952SOL     OW 8947   8.610   7.028   7.836  0.1406 -0.5708  0.1113
  952SOL    HW1 8948   8.614   7.116   7.798 -0.4854 -0.1926  0.8920
  952SOL    HW2 8949   8.522   7.021   7.871  0.9008 -0.6145  2.1574
  953SOL     OW 8950   6.278   8.570   7.729 -0.3498 -0.2008  0.4455
  953SOL    HW1 8951   6.296   8.560   7.823  2.2120  1.9805  0.3268
  953SOL    HW2 8952   6.356   8.534   7.686 -0.4176  0.9328 -0.6966
  954SOL     OW 8953   0.262   7.890   5.260  0.1923  0.0290 -0.4353
  954SOL    HW1 8954   0.242   7.982   5.244 -0.9629  0.2131  1.6970
  954SOL    HW2 8955   0.347   7.891   5.303  0.2061  0.0977 -0.4645
  955SOL     OW 8956   8.647   0.333   8.687 -0.1265  0.5976  0.7074
  955SOL    HW1 8957   8.642   0.333   8.592 -1.1781  1.2833  0.7521
  955SOL    HW2 8958   8.569   0.382   8.716 -1.1673 -1.6444  1.9746
  956SOL     OW 8959   2.444   6.171   1.828 -0.6527 -0.1819 -0.1633
  956SOL    HW1 8960   2.365   6.123   1.849 -1.9550  0.5759 -2.8652
  956SOL    HW2 8961   2.494   6.112   1.771  1.2860 -1.0119  2.1947
  957SOL     OW 8962   6.379   9.519   9.173  0.0829  0.3837 -0.6510
  957SOL    HW1 8963   6.384   9.433   9.131 -1.4500 -0.5723  0.9476
  957SOL    HW2 8964   6.287   9.528   9.197  0.5472  1.6818  0.7830
  958SOL     OW 8965   0.875   3.029   7.014  0.5016  0.1504 -0.0548
  958SOL    HW1 8966   0.903   2.972   6.943 -1.2731 -1.1111  0.2026
  958SOL    HW2 8967   0.943   3.021   7.080  0.4794 -1.3716 -0.1969
  959SOL     OW 8968   2.412   4.670  10.811  0.2075 -0.0637 -0.0872
  959SOL    HW1 8969   2.492   4.623  10.789  0.8813  0.3663  1.3188
  959SOL    HW2 8970   2.352   4.602  10.841  1.0616 -0.1344  1.6127
  960SOL     OW 8971   3.855   3.033   0.889  0.0840  0.3581 -0.8790
  960SOL    HW1 8972   3.911   2.955   0.886 -0.6326 -0.3043  1.2188
  960SOL    HW2 8973   3.774   3.002   0.929 -0.7083  1.9298 -1.1989
  961SOL     OW 8974   7.093   1.284   1.782 -0.3652  0.4956  0.0208
  961SOL    HW1 8975   7.150   1.359   1.803  0.0022  0.3212 -0.3356
  961SOL    HW2 8976   7.085   1.236   1.864  1.6735 -0.6016 -0.3741
  962SOL     OW 8977   4.066   6.984   4.049  0.1497 -0.1525 -0.3717
  962SOL    HW1 8978   4.063   7.002   4.143 -0.7067  0.1721 -0.4473
  962SOL    HW2 8979   3.977   7.004   4.018  0.7619  1.0048 -1.4760
  963SOL     OW 8980   8.967  10.887   6.831 -0.6685  0.6352 -0.1377
  963SOL    HW1 8981   9.000  10.969   6.794  1.7656 -0.4075 -0.4938
  963SOL    HW2 8982   9.005  10.819   6.775 -2.3277 -0.7568  0.3653
  964SOL     OW 8983   8.029   1.611   0.103 -0.5508  0.8396  0.4553
  964SOL    HW1 8984   7.995   1.643   0.020 -0.2344 -1.0836 -0.4879
  964SOL    HW2 8985   8.120   1.642   0.105 -0.7006  1.2897  0.2960
  965SOL     OW 8986   0.641   3.076   3.619 -0.3016 -0.1778 -0.3005
  965SOL    HW1 8987   0.632   2.999   3.676 -1.0931  1.3016  1.6997
  965SOL    HW2 8988   0.553   3.114   3.615  0.1627  0.8943 -0.8233
  966SOL     OW 8989   9.970  10.205   4.590 -0.4809  0.7300  0.0570
  966SOL    HW1 8990  10.021  10.258   4.652  0.3002  1.2755 -1.0359
  966SOL    HW2 8991  10.022  10.126   4.577  0.2149  1.3941 -1.2456
  967SOL     OW 8992   3.026   6.805   8.142 -0.3066 -0.2583  0.2945
  967SOL    HW1 8993   3.049   6.826   8.232 -0.7915  2.0501 -0.0401
  967SOL    HW2 8994   2.931   6.811   8.139 -0.4443 -2.1688  0.0057
  968SOL     OW 8995   7.361   1.023  10.213  0.0410  0.3423  0.0081
  968SOL    HW1 8996   7.441   0.975  10.232 -0.4026 -0.4487 -0.0619
  968SOL    HW2 8997   7.350   1.013  10.118  0.8382  2.0316 -0.3104
  969SOL     OW 8998   5.519   8.355   0.061 -1.0320  0.2558  0.1273
  969SOL    HW1 8999   5.450   8.412   0.095 -0.0652  1.1045  0.7460
  969SOL    HW2 9000   5.600   8.406   0.074 -0.4181 -0.1761 -1.7111
  970SOL     OW 9001   1.816   6.460   5.896  0.1161  0.6257  0.2453
  970SOL    HW1 9002   1.861   6.441   5.978 -0.1943  0.0857  0.2958
  970SOL    HW2 9003   1.886   6.480   5.834  0.3296  1.4725  0.7487
  971SOL     OW 9004   6.013   8.602   7.063  1.0056 -0.1478 -0.6429
  971SOL    HW1 9005   6.036   8.587   6.972 -2.4713  1.0953 -1.8961
  971SOL    HW2 9006   6.054   8.686   7.084  0.8981  0.1118 -1.4390
  972SOL     OW 9007   4.664   3.558  10.517 -0.2167 -0.3024  0.2614
  972SOL    HW1 9008   4.729   3.628  10.526  0.0199 -0.5087  0.1886
  972SOL    HW2 9009   4.699   3.486  10.570 -0.6480 -0.2316  0.6452
  973SOL     OW 9010   5.544   9.534   9.153 -0.3429 -0.1311  0.1786
  973SOL    HW1 9011   5.532   9.612   9.208  0.5487 -0.7773  1.3181
  973SOL    HW2 9012   5.622   9.552   9.102  1.5789 -1.3698  2.4989
  974SOL     OW 9013   7.875   3.017   9.215 -0.1862  0.2889 -0.0624
  974SOL    HW1 9014   7.914   3.014   9.128  0.8099 -0.9878  0.3987
  974SOL    HW2 9015   7.899   2.934   9.255  1.3342  1.7463  2.2813
  975SOL     OW 9016   5.749   9.203   9.564 -0.5098  0.1785 -0.3733
  975SOL    HW1 9017   5.758   9.223   9.471 -2.3951  1.6375 -0.2974
  975SOL    HW2 9018   5.777   9.283   9.609  1.5762 -0.9146  0.4374
  976SOL     OW 9019   9.598   4.239   1.867  0.2980  0.3420  0.4903
  976SOL    HW1 9020   9.642   4.163   1.827 -1.6880 -2.0899  2.5657
  976SOL    HW2 9021   9.659   4.268   1.935  0.5822 -0.1510  0.4566
  977SOL     OW 9022   0.869   7.510   6.488  0.3873  0.1833 -0.3905
  977SOL    HW1 9023   0.776   7.534   6.494 -0.4656 -2.5644 -1.3366
  977SOL    HW2 9024   0.883   7.488   6.396  1.3143 -1.7317  0.1510
  978SOL     OW 9025   4.562   9.514   6.432  0.7510  0.0435  0.1503
  978SOL    HW1 9026   4.597   9.441   6.483 -0.7211 -0.4205  0.5186
  978SOL    HW2 9027   4.471   9.522   6.459  0.2951  0.6400 -1.4486
  979SOL     OW 9028   3.295  10.767   6.161  0.1860 -0.1872 -0.3965
  979SOL    HW1 9029   3.280  10.809   6.076 -1.1940 -1.5675 -0.8897
  979SOL    HW2 9030   3.239  10.689   6.159  0.4150 -0.4526  1.6402
  980SOL     OW 9031   1.507   1.346   9.935 -0.1030 -0.2056  0.5439
  980SOL    HW1 9032   1.578   1.407   9.955  0.5742 -0.3985 -1.1054
  980SOL    HW2 9033   1.431   1.380   9.983  1.2733 -0.5148  3.0962
  981SOL     OW 9034  10.523   9.387   1.320 -0.1740 -0.2373  0.3731
  981SOL    HW1 9035  10.563   9.300   1.321  0.1097 -0.1421 -0.8557
  981SOL    HW2 9036  10.514   9.408   1.227 -0.7612  0.8114  0.6519
  982SOL     OW 9037   5.336   0.339   3.647  0.6159 -0.5314  0.2752
  982SOL    HW1 9038   5.418   0.304   3.611  1.3226  2.4346 -1.4324
  982SOL    HW2 9039   5.360   0.370   3.735  0.7907 -1.4666  0.5618
  983SOL     OW 9040   5.584   9.854   7.839  0.1379 -0.1464  0.0908
  983SOL    HW1 9041   5.576   9.936   7.888 -0.5243  0.2803 -0.7148
  983SOL    HW2 9042   5.590   9.787   7.907 -1.1341  0.4002  0.7838
  984SOL     OW 9043   0.816   1.261   9.718 -0.2434  0.3279 -0.3931
  984SOL    HW1 9044   0.792   1.193   9.656  0.1764 -0.9701  0.8201
  984SOL    HW2 9045   0.747   1.258   9.785 -0.2909  1.2028 -0.3868
  985SOL     OW 9046   7.738  10.088   2.618  0.0417 -0.2523 -0.2778
  985SOL    HW1 9047   7.655  10.065   2.577  0.4575 -1.2035 -0.6312
  985SOL    HW2 9048   7.803  10.073   2.549  0.4974  0.6210 -0.0533
  986SOL     OW 9049   1.670   5.893   9.929 -0.0399 -0.2308  0.1509
  986SOL    HW1 9050   1.605   5.823   9.924  0.6024 -0.7667 -3.2131
  986SOL    HW2 9051   1.622   5.968   9.965 -1.6033 -1.5013  0.8410
  987SOL     OW 9052   7.201   3.756   5.519  0.3592 -0.3924 -0.4014
  987SOL    HW1 9053   7.261   3.706   5.574  2.0378  1.6110 -0.3057
  987SOL    HW2 9054   7.196   3.842   5.560 -3.1400 -0.6025 -0.0571
  988SOL     OW 9055   3.286   0.604   0.262  0.0860 -0.0520  0.1745
  988SOL    HW1 9056   3.214   0.542   0.273 -0.6835  1.1024  2.4545
  988SOL    HW2 9057   3.289   0.622   0.168 -1.4538 -1.4328 -0.1854
  989SOL     OW 9058   2.027   1.038   5.618 -0.0149 -0.2669  0.2647
  989SOL    HW1 9059   2.120   1.055   5.626 -0.2142  0.8954  0.3350
  989SOL    HW2 9060   1.989   1.072   5.699 -0.4626 -1.0722  0.4081
  990SOL     OW 9061   7.441   8.303   5.316 -0.4749 -0.1740  0.2937
  990SOL    HW1 9062   7.363   8.252   5.293  0.1923 -0.4808 -1.3710
  990SOL    HW2 9063   7.407   8.390   5.336 -1.1357  0.2025 -2.1235
  991SOL     OW 9064   8.750   4.058   6.205  0.0464 -0.4307 -0.0337
  991SOL    HW1 9065   8.706   4.053   6.120  1.9484  1.8104 -1.2720
  991SOL    HW2 9066   8.752   4.151   6.226  1.2309 -0.7709  1.5932
  992SOL     OW 9067  10.323  10.195   8.200 -0.2407 -0.4010  0.2150
  992SOL    HW1 9068  10.274  10.264   8.155  1.7094  0.6166 -0.4542
  992SOL    HW2 9069  10.392  10.171   8.139 -0.4419 -2.4861  0.7398
  993SOL     OW 9070   4.738   0.184   0.567  0.6290 -0.5500  0.2005
  993SOL    HW1 9071   4.740   0.100   0.521  0.4115  0.2117 -1.2422
  993SOL    HW2 9072   4.829   0.214   0.564  0.2998  0.4064 -1.5214
  994SOL     OW 9073   9.296   7.483   3.973 -0.1627 -0.5236 -0.1221
  994SOL    HW1 9074   9.279   7.554   4.034 -0.9727 -0.9479  0.1661
  994SOL    HW2 9075   9.326   7.410   4.029  0.3949 -0.5016 -0.3825
  995SOL     OW 9076   0.847   9.100   0.088  0.1451  0.6388  0.2346
  995SOL    HW1 9077   0.854   9.042   0.013  0.2276  0.1831  0.5902
  995SOL    HW2 9078   0.882   9.184   0.058 -1.3626  0.9617 -0.7496
  996SOL     OW 9079   0.251   4.549   6.435  0.5662  0.1235 -0.5446
  996SOL    HW1 9080   0.337   4.511   6.420 -0.4922 -1.6155 -2.8375
  996SOL    HW2 9081   0.228   4.590   6.352 -0.4783  1.4078  0.3256
  997SOL     OW 9082   9.810   3.347   4.574  0.1642 -0.7006 -0.1894
  997SOL    HW1 9083   9.732   3.372   4.525  1.2019  2.4558 -0.4314
  997SOL    HW2 9084   9.879   3.404   4.540  2.5160 -3.0437  0.3417
  998SOL     OW 9085   3.635   2.990   2.862  0.7314 -0.3086 -0.1995
  998SOL    HW1 9086   3.646   2.896   2.847 -2.3981 -0.6763 -0.8680
  998SOL    HW2 9087   3.547   2.999   2.899  0.0044  2.4928 -2.2308
  999SOL     OW 9088   7.548   3.026   2.820  0.8935  0.2561  0.1077
  999SOL    HW1 9089   7.559   2.935   2.847  0.7575 -0.3574 -1.7590
  999SOL    HW2 9090   7.638   3.059   2.812  0.9542  0.1691  0.4172
 1000SOL     OW 9091   3.884   7.337   3.236  0.0650 -0.0994 -0.0716
 1000SOL    HW1 9092   3.928   7.305   3.315  3.8055 -0.0280 -1.8974
 1000SOL    HW2 9093   3.883   7.432   3.246 -1.7460 -0.1753  0.8807
 1001SOL     OW 9094  10.237   8.667   6.072  0.4115  0.0724 -0.3474
 1001SOL    HW1 9095  10.211   8.759   6.067  1.5718  0.7346  2.9270
 1001SOL    HW2 9096  10.171   8.627   6.128  0.3537 -0.9443 -1.1137
 1002SOL     OW 9097   8.795   6.960   1.035  0.2315 -0.5340  0.1688
 1002SOL    HW1 9098   8.845   6.882   1.058  0.0083 -0.9127 -0.5705
 1002SOL    HW2 9099   8.835   6.990   0.953 -0.9210 -1.0253 -0.6030
 1003SOL     OW 9100   3.627   5.996   0.989  0.1990 -0.0643 -0.2512
 1003SOL    HW1 9101   3.652   6.020   1.079 -2.0407  3.5523 -0.3828
 1003SOL    HW2 9102   3.706   6.011   0.938  0.5907  1.2342  0.6720
 1004SOL     OW 9103   6.491   7.790   4.698 -0.4780 -0.3650  0.4249
 1004SOL    HW1 9104   6.450   7.704   4.706  1.5011 -1.2857  1.4103
 1004SOL    HW2 9105   6.531   7.806   4.783  1.7331  0.1326 -0.6217
 1005SOL     OW 9106   2.232   4.200   6.611 -0.0421 -0.0628 -0.0818
 1005SOL    HW1 9107   2.279   4.120   6.587  3.7462  2.1169 -0.8643
 1005SOL    HW2 9108   2.237   4.255   6.533 -2.3145  1.0976  0.5080
 1006SOL     OW 9109   4.509   8.912   7.361 -0.1523 -0.5865  1.1215
 1006SOL    HW1 9110   4.517   9.004   7.387 -1.6867 -0.4619  1.2246
 1006SOL    HW2 9111   4.427   8.883   7.400  0.4080 -2.0708  1.2521
 1007SOL     OW 9112   5.976   5.972  10.314  0.1854 -0.2144  0.0546
 1007SOL    HW1 9113   5.965   5.919  10.392 -0.3609  0.8766  0.7457
 1007SOL    HW2 9114   5.929   5.924  10.245 -0.1251 -0.7243  0.6174
 1008SOL     OW 9115   8.429   8.456   9.813  0.1817  0.1377  0.0536
 1008SOL    HW1 9116   8.428   8.452   9.717 -0.9609  2.6866 -0.1076
 1008SOL    HW2 9117   8.339   8.439   9.839 -0.1445  2.1968  0.4442
 1009SOL     OW 9118   0.537   5.709   8.847 -0.5266  0.0324 -0.1725
 1009SOL    HW1 9119   0.450   5.686   8.881 -1.0183  0.5105 -1.0875
 1009SOL    HW2 9120   0.587   5.731   8.925 -1.6715  1.2233  0.2697
 1010SOL     OW 9121   5.961   5.109   6.641  0.2426  0.6120  0.2359
 1010SOL    HW1 9122   5.978   5.123   6.735  0.9180  1.5395 -0.0185
 1010SOL    HW2 9123   6.045   5.082   6.605  0.1567  0.9445 -0.2285
 1011SOL     OW 9124   4.183   7.743   3.084  0.2616 -0.1782 -0.2251
 1011SOL    HW1 9125   4.102   7.727   3.035  0.6288  1.3852 -1.4183
 1011SOL    HW2 9126   4.245   7.680   3.049 -0.0942 -0.5657 -0.1718
 1012SOL     OW 9127   1.178   4.296   7.484 -0.6554 -0.2894 -0.0168
 1012SOL    HW1 9128   1.242   4.319   7.416  0.2727 -1.6701  0.3641
 1012SOL    HW2 9129   1.097   4.339   7.455  0.5968  2.2063 -0.0866
 1013SOL     OW 9130   4.360   8.618   9.290 -0.0221 -0.0633  0.0998
 1013SOL    HW1 9131   4.338   8.540   9.240  0.7273 -0.4733  0.3860
 1013SOL    HW2 9132   4.363   8.688   9.226 -3.2757  0.2941  0.1901
 1014SOL     OW 9133   8.791   8.151   4.326 -0.1814  0.2078 -0.0982
 1014SOL    HW1 9134   8.708   8.112   4.355 -1.6740  3.1835  0.0504
 1014SOL    HW2 9135   8.832   8.181   4.407  1.0125 -1.0580 -0.1946
 1015SOL     OW 9136   8.796   0.171   0.654 -0.0680  0.2449  0.3419
 1015SOL    HW1 9137   8.776   0.252   0.608  0.9600  0.6621  0.5851
 1015SOL    HW2 9138   8.782   0.102   0.590  0.7902  0.7678 -0.4310
 1016SOL     OW 9139   9.577   7.486   5.399  0.3291 -0.2187  0.0883
 1016SOL    HW1 9140   9.546   7.445   5.480  2.8045 -1.1974  0.6309
 1016SOL    HW2 9141   9.578   7.415   5.335  0.5612  0.0211 -0.1749
 1017SOL     OW 9142   5.093   2.510   5.916 -0.2188  0.2097  0.0794
 1017SOL    HW1 9143   5.179   2.506   5.874 -0.0113 -1.0164  0.5807
 1017SOL    HW2 9144   5.077   2.604   5.928  0.8709  0.4726 -0.3783
 1018SOL     OW 9145   1.829   9.484  10.741 -0.3831 -0.0709  0.2488
 1018SOL    HW1 9146   1.772   9.554  10.772 -2.5737 -0.0492 -3.2337
 1018SOL    HW2 9147   1.785   9.404  10.768 -1.1010 -0.0362 -0.7249
 1019SOL     OW 9148   4.525   2.652   6.475 -0.0285  0.3042  0.0243
 1019SOL    HW1 9149   4.491   2.564   6.492  0.1585  0.6719  2.7401
 1019SOL    HW2 9150   4.612   2.638   6.438 -0.1179 -0.6469  0.1516
 1020SOL     OW 9151   5.673   3.517   0.348  0.4407  0.2209  0.2055
 1020SOL    HW1 9152   5.593   3.570   0.354  0.4481  0.1854  0.6800
 1020SOL    HW2 9153   5.673   3.466   0.429  0.1911 -0.8611 -0.4545
 1021SOL     OW 9154   3.850   5.353   1.500 -0.2748 -0.6552 -0.1816
 1021SOL    HW1 9155   3.905   5.361   1.422 -1.1533 -1.2489 -0.8846
 1021SOL    HW2 9156   3.908   5.376   1.573  1.0817 -1.8664 -0.8296
 1022SOL     OW 9157   9.378   2.516   5.279  0.0961 -0.3749  0.1731
 1022SOL    HW1 9158   9.283   2.506   5.268 -0.2211  0.3714  1.8634
 1022SOL    HW2 9159   9.402   2.588   5.222 -1.0129  1.7459  2.2157
 1023SOL     OW 9160   2.474   5.712   7.866 -0.2095 -0.3868  0.0151
 1023SOL    HW1 9161   2.547   5.674   7.916 -0.3910 -1.2779 -0.3815
 1023SOL    HW2 9162   2.476   5.805   7.889  0.7316 -0.4872  0.4074
 1024SOL     OW 9163   8.827   8.957   8.132 -0.2050  0.0589 -0.1211
 1024SOL    HW1 9164   8.850   9.005   8.212  1.2132 -1.3026  0.3454
 1024SOL    HW2 9165   8.781   9.021   8.078 -1.5308  0.9250  1.9138
 1025SOL     OW 9166   8.650   2.207   9.933 -0.1195 -0.5266 -0.2437
 1025SOL    HW1 9167   8.704   2.276   9.972 -1.0669  0.1202 -0.0575
 1025SOL    HW2 9168   8.687   2.195   9.845 -1.6161  2.1812 -1.3515
 1026SOL     OW 9169   4.817   6.614   8.573  0.4969 -0.1426 -0.0181
 1026SOL    HW1 9170   4.872   6.609   8.652 -0.1137  0.0786  0.4278
 1026SOL    HW2 9171   4.792   6.524   8.555 -1.9240  0.0429  1.8922
 1027SOL     OW 9172  10.309   9.647   6.248 -0.1167  0.5101  0.0141
 1027SOL    HW1 9173  10.359   9.669   6.327  1.3753 -0.3072 -0.6445
 1027SOL    HW2 9174  10.374   9.608   6.189 -1.6920 -1.3963 -0.5931
 1028SOL     OW 9175   4.908   3.589   6.153  0.2040  0.2284  0.1697
 1028SOL    HW1 9176   4.935   3.631   6.071  1.1646 -1.1528 -0.2454
 1028SOL    HW2 9177   4.829   3.637   6.179  1.0391  2.0524 -0.4541
 1029SOL     OW 9178   1.366   2.310   0.809 -0.6228  0.4883 -0.2755
 1029SOL    HW1 9179   1.457   2.340   0.806 -0.6654  0.8397  1.3633
 1029SOL    HW2 9180   1.370   2.220   0.775  0.1270  0.8901 -1.3463
 1030SOL     OW 9181   2.498   2.513   7.578  0.0043  0.0158  0.1708
 1030SOL    HW1 9182   2.587   2.541   7.556  0.0148  0.9693  1.3605
 1030SOL    HW2 9183   2.443   2.590   7.559 -0.6449 -0.6965 -0.9479
 1031SOL     OW 9184   5.796   9.152   5.802  0.3658 -0.0522 -0.8115
 1031SOL    HW1 9185   5.819   9.210   5.729 -1.1842 -0.1199 -1.3974
 1031SOL    HW2 9186   5.721   9.195   5.844  0.9070 -0.2815  0.4289
 1032SOL     OW 9187   9.117   5.252   4.656  0.1960  0.4967 -0.4856
 1032SOL    HW1 9188   9.113   5.236   4.750 -0.2806 -1.3379 -0.7859
 1032SOL    HW2 9189   9.206   5.227   4.631 -0.5586 -2.0211 -0.9587
 1033SOL     OW 9190   5.639   6.530   5.689 -0.2148  0.0481  0.1394
 1033SOL    HW1 9191   5.661   6.598   5.752  0.9129  0.8505 -1.0714
 1033SOL    HW2 9192   5.699   6.544   5.616 -2.1869 -0.1557 -1.6179
 1034SOL     OW 9193   0.735   7.289   5.198 -0.4564 -0.0456 -0.2636
 1034SOL    HW1 9194   0.686   7.332   5.128  0.3909 -1.0275 -1.5092
 1034SOL    HW2 9195   0.680   7.300   5.276 -1.0940  1.6957 -0.9041
 1035SOL     OW 9196   2.801   2.264   3.281  0.3534 -0.1857  0.4099
 1035SOL    HW1 9197   2.768   2.241   3.194 -0.6717 -1.2896  1.0519
 1035SOL    HW2 9198   2.894   2.286   3.267  0.5664 -1.6734 -0.7714
 1036SOL     OW 9199   5.470   1.385   7.241 -0.0067  0.3059 -0.0220
 1036SOL    HW1 9200   5.397   1.442   7.267 -0.3692 -0.6795  1.2198
 1036SOL    HW2 9201   5.474   1.394   7.146 -1.5727  0.6040 -0.0921
 1037SOL     OW 9202   5.307   0.193   1.236 -0.6402  0.0012 -0.2816
 1037SOL    HW1 9203   5.386   0.151   1.203 -0.2078 -0.4742  1.2700
 1037SOL    HW2 9204   5.271   0.130   1.299 -1.4858  0.7996  0.0588
 1038SOL     OW 9205   4.093   4.870   5.566 -0.4393  0.1668 -0.2149
 1038SOL    HW1 9206   4.055   4.861   5.478 -2.6335  2.3092  0.3944
 1038SOL    HW2 9207   4.171   4.924   5.553 -0.4451  0.0264 -0.8912
 1039SOL     OW 9208   8.986   4.812  10.284 -0.6208 -0.3669  0.1323
 1039SOL    HW1 9209   8.935   4.827  10.205 -1.6380  0.1705  0.8629
 1039SOL    HW2 9210   8.936   4.746  10.332  0.1512 -0.9231  0.1955
 1040SOL     OW 9211   4.815   6.430   0.136 -0.0690  0.3832 -0.4418
 1040SOL    HW1 9212   4.840   6.344   0.169  1.2954  0.7869 -0.3867
 1040SOL    HW2 9213   4.819   6.488   0.212  2.7805  1.2482 -1.1562
 1041SOL     OW 9214   6.376   2.440   8.467  1.1840  0.6551 -0.0160
 1041SOL    HW1 9215   6.333   2.471   8.387 -0.1297  2.2547  1.2353
 1041SOL    HW2 9216   6.464   2.477   8.462  0.6138  2.1005 -0.0232
 1042SOL     OW 9217   4.006   2.755   7.485 -0.5871  0.2658 -1.0216
 1042SOL    HW1 9218   4.049   2.833   7.451 -1.1362  0.7415 -0.6535
 1042SOL    HW2 9219   3.957   2.720   7.411 -0.7638  0.5839 -1.0607
 1043SOL     OW 9220  10.033   9.082   3.962  0.3761  0.8384 -0.4900
 1043SOL    HW1 9221   9.943   9.063   3.937  0.2788  0.3401  0.2282
 1043SOL    HW2 9222  10.026   9.155   4.024  0.4967  0.9848 -0.6443
 1044SOL     OW 9223   7.313   3.211   0.085  0.1479 -0.5557  0.0609
 1044SOL    HW1 9224   7.265   3.146   0.034 -1.2661  0.2735  0.2958
 1044SOL    HW2 9225   7.378   3.160   0.134 -0.5376 -1.7150 -0.2144
 1045SOL     OW 9226   4.355   5.877  10.321  0.4028 -0.4138 -0.1989
 1045SOL    HW1 9227   4.351   5.960  10.368  0.4650  0.5186 -1.7651
 1045SOL    HW2 9228   4.427   5.829  10.361 -0.9142 -0.6170  2.0925
 1046SOL     OW 9229   4.800   0.743   3.419  0.0328  0.3147  0.3135
 1046SOL    HW1 9230   4.861   0.802   3.462 -0.3214  0.3222  0.8094
 1046SOL    HW2 9231   4.775   0.679   3.486 -0.5262  0.3286  0.1300
 1047SOL     OW 9232   2.211   7.417   4.187  0.2217  0.3762 -0.0245
 1047SOL    HW1 9233   2.157   7.477   4.240  0.2228  1.1562 -0.8635
 1047SOL    HW2 9234   2.299   7.455   4.191  0.1811  0.5631 -0.7270
 1048SOL     OW 9235   7.057   5.376   0.090  0.0303  0.0018  0.3736
 1048SOL    HW1 9236   7.119   5.448   0.090 -1.1086  1.0115 -0.1023
 1048SOL    HW2 9237   7.008   5.386   0.172 -1.1709  0.7242 -0.4054
 1049SOL     OW 9238   8.985   8.518   2.853  0.2236 -0.1547  0.7054
 1049SOL    HW1 9239   8.925   8.531   2.780  1.2829 -1.6206 -0.4775
 1049SOL    HW2 9240   9.002   8.607   2.885 -0.9962  0.4393 -0.1997
 1050SOL     OW 9241   8.526   4.791  10.086  0.2703 -0.4722  0.1458
 1050SOL    HW1 9242   8.435   4.781  10.114 -0.5149 -2.0072 -2.6087
 1050SOL    HW2 9243   8.561   4.702  10.085  1.9528  0.1183  1.3952
 1051SOL     OW 9244   3.265   4.130   8.776  0.0293 -0.1159  0.0546
 1051SOL    HW1 9245   3.298   4.040   8.775  0.6723  0.1065  0.4070
 1051SOL    HW2 9246   3.343   4.184   8.763 -0.4639  0.3711 -1.0032
 1052SOL     OW 9247   2.920   2.990   1.196 -0.2230 -0.2865  0.0325
 1052SOL    HW1 9248   2.904   2.907   1.149  1.2085 -1.2799  1.1952
 1052SOL    HW2 9249   3.013   2.987   1.217  0.0037  1.9815 -0.4987
 1053SOL     OW 9250   5.623   2.683   5.184 -0.2104 -0.5128 -0.3126
 1053SOL    HW1 9251   5.625   2.606   5.127 -2.5908 -1.7544  1.1233
 1053SOL    HW2 9252   5.551   2.736   5.151  0.4120  0.3528 -0.3270
 1054SOL     OW 9253   2.910   9.573   6.069  0.4202  0.0384 -0.4465
 1054SOL    HW1 9254   2.817   9.560   6.085  0.0916  0.5669 -1.7694
 1054SOL    HW2 9255   2.953   9.503   6.119 -0.6886 -0.3337  0.0141
 1055SOL     OW 9256   6.808   9.385   2.687 -0.0741 -0.2344  0.3028
 1055SOL    HW1 9257   6.776   9.301   2.722  0.5523 -0.0933  1.2584
 1055SOL    HW2 9258   6.790   9.448   2.756  0.7180  0.1615  0.1580
 1056SOL     OW 9259   0.630   7.538   9.275 -0.3037 -0.1227 -0.3388
 1056SOL    HW1 9260   0.550   7.558   9.227 -0.7586 -0.5657  0.2154
 1056SOL    HW2 9261   0.677   7.621   9.280 -1.0232  0.2837 -0.1418
 1057SOL     OW 9262   1.942   2.259   7.827 -0.6338  0.2626  0.0468
 1057SOL    HW1 9263   1.858   2.303   7.835 -1.3969 -0.9366 -0.9225
 1057SOL    HW2 9264   1.969   2.275   7.736  0.8729  1.7686  0.7135
 1058SOL     OW 9265   1.927   3.032   8.287 -0.4874 -0.0635  0.8099
 1058SOL    HW1 9266   1.898   2.942   8.303 -1.2227  0.0669  0.2703
 1058SOL    HW2 9267   2.007   3.041   8.339  0.5458 -1.5629 -0.4348
 1059SOL     OW 9268   9.461  10.376   3.358  0.2038  0.1948 -0.5241
 1059SOL    HW1 9269   9.378  10.373   3.406  1.0557 -0.6635  0.9752
 1059SOL    HW2 9270   9.468  10.289   3.318  0.6989  0.0136 -0.0551
 1060SOL     OW 9271   6.236   6.087   4.839  0.0735  0.1357  0.4687
 1060SOL    HW1 9272   6.245   6.181   4.860  1.5779  0.7938 -2.6189
 1060SOL    HW2 9273   6.305   6.045   4.890  0.1743  0.8652  0.9520
 1061SOL     OW 9274   9.435   4.376   0.388 -0.5106  0.5436  0.0846
 1061SOL    HW1 9275   9.341   4.363   0.391 -0.5011 -1.1450 -2.9364
 1061SOL    HW2 9276   9.469   4.297   0.346  2.5442  0.2097  2.7188
 1062SOL     OW 9277   2.768   2.202   7.715 -0.5679 -0.5608 -0.1533
 1062SOL    HW1 9278   2.820   2.282   7.713 -3.1689  1.4255  2.8167
 1062SOL    HW2 9279   2.821   2.140   7.764  1.0350 -0.3953 -1.5877
 1063SOL     OW 9280   6.384   0.874   2.409  0.4004 -0.2327  0.1616
 1063SOL    HW1 9281   6.473   0.862   2.441  0.6069 -2.8428 -1.1142
 1063SOL    HW2 9282   6.359   0.788   2.375 -2.2492  0.6794 -0.4273
 1064SOL     OW 9283   2.355   6.564  10.883  0.3113 -0.0653  0.5459
 1064SOL    HW1 9284   2.445   6.533  10.873  0.5109  0.8091 -0.5742
 1064SOL    HW2 9285   2.354   6.607  10.969  1.3358  1.0733  0.0194
 1065SOL     OW 9286  10.185   6.370   7.154  0.0325  0.1764  0.0770
 1065SOL    HW1 9287  10.123   6.307   7.118  0.4949 -0.0395 -0.3650
 1065SOL    HW2 9288  10.257   6.372   7.090  0.6595  0.1307  0.7634
 1066SOL     OW 9289   9.811   0.047   5.354  0.0838  0.4142 -0.2895
 1066SOL    HW1 9290   9.829   0.042   5.261  2.1749  0.1453  0.0783
 1066SOL    HW2 9291   9.761  -0.033   5.374  0.0072  0.2598 -1.0959
 1067SOL     OW 9292   4.275   1.239   7.151  0.0791 -0.3652  0.0142
 1067SOL    HW1 9293   4.353   1.183   7.155  1.0405  0.9450  0.2701
 1067SOL    HW2 9294   4.254   1.244   7.058  0.9331  0.0772 -0.1704
 1068SOL     OW 9295   7.570   8.657   4.602  0.3327 -0.6869  0.1619
 1068SOL    HW1 9296   7.623   8.723   4.557  0.0416 -0.8020 -0.3557
 1068SOL    HW2 9297   7.480   8.685   4.587  0.2416  0.1343  1.9714
 1069SOL     OW 9298   1.390   2.917  10.774 -0.2372  0.2333 -0.7930
 1069SOL    HW1 9299   1.357   3.003  10.797 -1.2308 -0.5835  1.0227
 1069SOL    HW2 9300   1.465   2.903  10.831 -0.3996 -0.3086 -0.7028
 1070SOL     OW 9301   3.417   3.603   0.479 -0.5302 -0.5183  0.1100
 1070SOL    HW1 9302   3.459   3.539   0.421  0.5681  0.4954 -0.2351
 1070SOL    HW2 9303   3.395   3.553   0.557 -1.0440 -1.6608 -0.7362
 1071SOL     OW 9304  10.602   7.600   6.839 -0.0195  0.0562  0.2667
 1071SOL    HW1 9305  10.581   7.666   6.773 -1.3041 -1.2355 -0.6863
 1071SOL    HW2 9306  10.676   7.637   6.886 -0.5168  2.0556 -0.3834
 1072SOL     OW 9307   9.208   9.250  10.462  0.1265  0.4640  0.0785
 1072SOL    HW1 9308   9.297   9.225  10.487  0.5832  0.7033 -1.2570
 1072SOL    HW2 9309   9.153   9.178  10.494  1.1686 -1.3326 -1.9451
 1073SOL     OW 9310  10.863   8.008   0.965 -0.0777 -0.2724  0.1298
 1073SOL    HW1 9311  10.904   8.091   0.992  0.4784 -0.0401 -1.2868
 1073SOL    HW2 9312  10.881   8.003   0.871  0.7893 -2.5035  0.3622
 1074SOL     OW 9313   4.192   0.624   4.174 -0.2566  0.0317  0.3221
 1074SOL    HW1 9314   4.251   0.620   4.098 -1.6161  2.9875 -1.0597
 1074SOL    HW2 9315   4.143   0.541   4.171  1.0480 -0.7305 -0.8758
 1075SOL     OW 9316   3.400   2.382   1.357 -0.1270  0.1177  0.1885
 1075SOL    HW1 9317   3.473   2.377   1.295 -1.6924  2.8584 -2.1285
 1075SOL    HW2 9318   3.349   2.302   1.342  0.8287 -0.4125 -0.2711
 1076SOL     OW 9319   4.449   4.153   4.208 -0.1622  0.1562  0.3906
 1076SOL    HW1 9320   4.369   4.205   4.192 -0.1234 -0.1067 -0.7429
 1076SOL    HW2 9321   4.510   4.183   4.141  0.5513  0.0533  0.9928
 1077SOL     OW 9322   8.729   4.617  10.811  0.3977  0.9270  0.0578
 1077SOL    HW1 9323   8.791   4.621  10.738  0.2442  1.5303 -0.0502
 1077SOL    HW2 9324   8.695   4.528  10.810  2.2251  0.1619  0.9325
 1078SOL     OW 9325   0.267   3.457   2.037  0.9324  0.0088 -0.6974
 1078SOL    HW1 9326   0.331   3.393   2.006 -0.3312 -2.1049  0.7839
 1078SOL    HW2 9327   0.311   3.502   2.109  1.4206 -0.0307 -0.9646
 1079SOL     OW 9328   3.276   0.144   3.548  0.1717  0.1076 -0.1983
 1079SOL    HW1 9329   3.365   0.111   3.561  0.6458  1.5202  0.3612
 1079SOL    HW2 9330   3.260   0.133   3.455  0.4025 -1.3798 -0.0940
 1080SOL     OW 9331   4.593   4.713   2.215 -0.3270  0.4245 -0.0564
 1080SOL    HW1 9332   4.643   4.642   2.174 -0.9905  0.1554 -0.4174
 1080SOL    HW2 9333   4.588   4.688   2.308 -0.1838  0.2291 -0.0997
 1081SOL     OW 9334   6.369   1.357   3.924 -0.3844 -0.4099 -0.0747
 1081SOL    HW1 9335   6.347   1.304   3.848  1.1234  0.4488 -1.1573
 1081SOL    HW2 9336   6.429   1.423   3.891 -1.0906  1.1089  1.5135
 1082SOL     OW 9337   4.541   2.036   5.628  0.0391 -0.0558  0.0817
 1082SOL    HW1 9338   4.591   1.955   5.615 -0.1306  0.1107 -1.9765
 1082SOL    HW2 9339   4.453   2.014   5.599 -0.6435  0.1923  1.8881
 1083SOL     OW 9340   8.934   9.167   5.945  0.1315 -0.6048 -0.2017
 1083SOL    HW1 9341   8.856   9.220   5.961 -0.1206 -0.7966 -0.7668
 1083SOL    HW2 9342   8.984   9.174   6.026  0.5848  1.2951 -0.5949
 1084SOL     OW 9343   1.100  10.572   8.809 -0.5438 -0.7351  0.1704
 1084SOL    HW1 9344   1.126  10.664   8.805  0.0451 -0.9409 -1.3438
 1084SOL    HW2 9345   1.113  10.548   8.900  0.5560  0.3334  0.3235
 1085SOL     OW 9346   0.487   4.823   9.937 -0.7004 -0.2153  0.8430
 1085SOL    HW1 9347   0.507   4.746   9.989  0.3561 -0.3296  0.2726
 1085SOL    HW2 9348   0.532   4.810   9.854  1.4784  2.0114  1.5251
 1086SOL     OW 9349   5.262   3.702   9.795 -0.1667  0.3183  0.0282
 1086SOL    HW1 9350   5.260   3.608   9.780 -0.6940 -0.0973  2.3384
 1086SOL    HW2 9351   5.224   3.714   9.883 -0.4489  2.7127 -0.3366
 1087SOL     OW 9352  10.116   9.822   2.332  0.5083  0.3322 -0.5455
 1087SOL    HW1 9353  10.025   9.836   2.359  0.9337  1.2896  0.4658
 1087SOL    HW2 9354  10.164   9.811   2.414  1.8137  3.1008 -0.8267
 1088SOL     OW 9355  10.107   2.478   2.630 -0.6417  0.5427  0.3170
 1088SOL    HW1 9356  10.089   2.549   2.568  1.1180  1.2129  0.5173
 1088SOL    HW2 9357  10.141   2.522   2.708  2.4029 -0.5664 -0.2581
 1089SOL     OW 9358   7.453   1.281  10.856 -0.4624  0.2154 -0.1593
 1089SOL    HW1 9359   7.413   1.270  10.943 -0.2598 -2.6351 -0.3211
 1089SOL    HW2 9360   7.547   1.287  10.874 -0.5244  1.3666 -0.1235
 1090SOL     OW 9361   2.973   4.738   7.216  0.2588  0.3576 -0.1689
 1090SOL    HW1 9362   2.916   4.691   7.154 -0.5920  0.3784  0.5802
 1090SOL    HW2 9363   2.945   4.829   7.209  0.1768  0.3637  0.2167
 1091SOL     OW 9364   6.660   7.253   7.220 -0.0939 -0.2193  0.8383
 1091SOL    HW1 9365   6.565   7.266   7.221 -0.0644 -0.0029  1.1256
 1091SOL    HW2 9366   6.696   7.341   7.234  0.1406 -0.3600  1.1339
 1092SOL     OW 9367   1.392   3.594   6.851  0.3488 -0.1299  0.5867
 1092SOL    HW1 9368   1.352   3.655   6.914 -0.3004 -0.0470  0.1050
 1092SOL    HW2 9369   1.484   3.618   6.850  0.0411  1.1009  0.1208
 1093SOL     OW 9370   4.427   3.601   6.185 -0.0817 -0.4361 -0.5237
 1093SOL    HW1 9371   4.397   3.563   6.268 -1.4478  2.7579  0.5650
 1093SOL    HW2 9372   4.456   3.525   6.134 -2.4903 -2.9091  1.4812
 1094SOL     OW 9373   2.897   5.154   8.092 -0.0029 -0.2411  0.2138
 1094SOL    HW1 9374   2.936   5.067   8.085 -0.7625 -0.4830 -1.2795
 1094SOL    HW2 9375   2.807   5.144   8.061 -1.0810  0.4779  2.8245
 1095SOL     OW 9376   0.843   1.614   8.133 -0.1291  0.3287 -0.3466
 1095SOL    HW1 9377   0.804   1.657   8.209 -1.2927 -1.3974  0.1076
 1095SOL    HW2 9378   0.804   1.658   8.057  1.2238  2.2256 -0.0041
 1096SOL     OW 9379   3.560   0.137   3.917 -0.2583 -0.4582  0.0870
 1096SOL    HW1 9380   3.634   0.198   3.917  0.5892 -1.4107 -1.6160
 1096SOL    HW2 9381   3.497   0.177   3.977  0.5755  1.7018 -0.3538
 1097SOL     OW 9382   9.809   4.936   6.729 -0.6232 -0.0762  0.0137
 1097SOL    HW1 9383   9.842   4.961   6.815 -2.9310  2.4681  0.2740
 1097SOL    HW2 9384   9.770   4.849   6.743  0.3654 -0.3689  1.1335
 1098SOL     OW 9385   5.159   4.382   4.633  0.4271 -0.2277  0.0112
 1098SOL    HW1 9386   5.179   4.380   4.726  1.6965  0.1690 -0.2380
 1098SOL    HW2 9387   5.106   4.462   4.622  0.4484 -0.1638  0.3559
 1099SOL     OW 9388   7.735  10.014  10.673 -0.3192 -0.0793  0.3076
 1099SOL    HW1 9389   7.647  10.006  10.639 -0.2460  0.1670  0.0578
 1099SOL    HW2 9390   7.785  10.054  10.602 -0.0182 -0.1783  0.4629
 1100SOL     OW 9391  10.592   0.355   3.521  0.1424 -0.0055 -0.3759
 1100SOL    HW1 9392  10.645   0.410   3.578 -0.2472  0.7620 -0.7401
 1100SOL    HW2 9393  10.533   0.416   3.476 -0.9131 -0.8016 -0.1366
 1101SOL     OW 9394   0.506   9.144   1.268  0.0579 -0.0791  0.0474
 1101SOL    HW1 9395   0.475   9.126   1.357 -0.4151  1.1222  0.1495
 1101SOL    HW2 9396   0.482   9.066   1.218 -0.0524 -0.5914  0.8809
 1102SOL     OW 9397   7.265   5.851   4.838 -0.5348  0.2283 -0.1497
 1102SOL    HW1 9398   7.322   5.807   4.775 -1.1323 -0.0603 -0.5007
 1102SOL    HW2 9399   7.223   5.921   4.788 -0.5575  0.3854  0.0847
 1103SOL     OW 9400   5.511   4.958   0.786  0.5021 -0.3157 -0.2357
 1103SOL    HW1 9401   5.564   4.881   0.808  0.1316 -0.3499  0.5987
 1103SOL    HW2 9402   5.421   4.926   0.790  0.2710  0.3991  1.2770
 1104SOL     OW 9403  10.532   2.707   2.318 -0.0852 -0.0273  0.1801
 1104SOL    HW1 9404  10.500   2.724   2.229 -0.7792 -1.2093  0.1784
 1104SOL    HW2 9405  10.517   2.614   2.332  3.1541 -0.6469  0.3189
 1105SOL     OW 9406   8.082   5.903   3.921 -0.5666 -0.3131  0.3228
 1105SOL    HW1 9407   8.036   5.849   3.857 -2.9228  1.1948  0.6233
 1105SOL    HW2 9408   8.065   5.993   3.894  1.7543  0.3681  0.8486
 1106SOL     OW 9409   2.359   7.693   1.525 -0.0197 -0.1487  0.5122
 1106SOL    HW1 9410   2.339   7.600   1.530  3.9666 -1.3037 -0.6977
 1106SOL    HW2 9411   2.412   7.710   1.603  1.4554  0.3466 -0.5501
 1107SOL     OW 9412   2.421   9.465   8.302  0.2602 -0.0324 -0.3082
 1107SOL    HW1 9413   2.383   9.504   8.223 -1.8045  0.1896  0.7264
 1107SOL    HW2 9414   2.377   9.381   8.311  1.3573 -0.5835 -0.0398
 1108SOL     OW 9415   4.872   6.066   4.345 -0.2672  0.0139  0.0095
 1108SOL    HW1 9416   4.907   6.147   4.308 -0.4420 -0.2231 -0.6740
 1108SOL    HW2 9417   4.910   6.062   4.433  1.9139 -0.5301 -0.9046
 1109SOL     OW 9418   8.750   9.948   4.684  0.0478  1.1152 -0.1553
 1109SOL    HW1 9419   8.674   9.997   4.655 -1.3359 -1.9281 -2.2415
 1109SOL    HW2 9420   8.729   9.920   4.773 -1.2404  0.4996 -0.6314
 1110SOL     OW 9421   5.391   6.121   0.507 -0.1972 -0.0162  0.0091
 1110SOL    HW1 9422   5.470   6.175   0.509 -0.3960  0.2748  0.0432
 1110SOL    HW2 9423   5.320   6.183   0.493 -0.4066 -0.2930 -0.1592
 1111SOL     OW 9424   0.980  10.765   3.493  1.1775 -0.1764  0.3301
 1111SOL    HW1 9425   0.976  10.751   3.398  1.2973  3.0107 -0.2301
 1111SOL    HW2 9426   1.026  10.688   3.526 -0.0528 -2.0379 -1.9857
 1112SOL     OW 9427   8.212   7.747   6.950  0.0550  0.2070  0.0957
 1112SOL    HW1 9428   8.279   7.733   7.017 -0.3842 -0.6416  0.3722
 1112SOL    HW2 9429   8.143   7.795   6.996  0.0543  0.2345  0.0655
 1113SOL     OW 9430   2.858   3.164   6.832  0.3155 -0.2742  0.1266
 1113SOL    HW1 9431   2.764   3.171   6.850  0.2971 -1.0220  0.3615
 1113SOL    HW2 9432   2.872   3.070   6.817  1.0977 -0.2212  0.5032
 1114SOL     OW 9433   9.562   5.932   9.881  0.0285 -0.0869  0.3739
 1114SOL    HW1 9434   9.523   5.931   9.794 -0.3612 -0.8732  0.5459
 1114SOL    HW2 9435   9.487   5.937   9.941  0.2659 -0.0471  0.6714
 1115SOL     OW 9436   2.339   4.017   9.482  0.0429  0.0859  0.4292
 1115SOL    HW1 9437   2.407   4.041   9.545 -0.6509 -2.2143  2.1952
 1115SOL    HW2 9438   2.288   3.949   9.526 -0.4866 -1.6739 -2.6388
 1116SOL     OW 9439   2.529   3.853   4.138  0.2527 -0.2829  0.2874
 1116SOL    HW1 9440   2.520   3.947   4.153  0.0773 -0.0027 -1.3274
 1116SOL    HW2 9441   2.622   3.835   4.153  0.5354  0.3975 -0.5730
 1117SOL     OW 9442   7.790   9.175  10.051  0.2460 -0.2873 -0.8789
 1117SOL    HW1 9443   7.879   9.209  10.049 -0.4308  1.6618 -0.1488
 1117SOL    HW2 9444   7.793   9.095   9.999  1.7600  1.3688 -3.5163
 1118SOL     OW 9445  10.580   2.330   4.878  0.3216  0.0624  0.6866
 1118SOL    HW1 9446  10.620   2.414   4.857 -0.2631 -0.2914 -2.3304
 1118SOL    HW2 9447  10.652   2.277   4.911  1.3837  0.8128 -0.3481
 1119SOL     OW 9448   3.115   3.120   5.565  0.1184  0.4219  0.0974
 1119SOL    HW1 9449   3.071   3.149   5.645  0.7170  1.4499  0.0699
 1119SOL    HW2 9450   3.203   3.096   5.593 -0.4496 -1.7849  0.1804
 1120SOL     OW 9451   1.988   2.371   6.946 -0.4465 -0.6696 -0.4689
 1120SOL    HW1 9452   2.014   2.405   6.861  1.3167  0.4580  0.4657
 1120SOL    HW2 9453   2.002   2.444   7.006  1.4520 -2.3596  1.2901
 1121SOL     OW 9454   3.720   4.469   3.349  1.0292 -0.3379 -0.4504
 1121SOL    HW1 9455   3.684   4.496   3.264  1.9604  0.6156 -0.5583
 1121SOL    HW2 9456   3.711   4.374   3.349 -0.4197 -0.2203 -0.9524
 1122SOL     OW 9457   8.683   5.815   6.023  0.3974 -0.1588 -0.2023
 1122SOL    HW1 9458   8.679   5.836   5.930  0.0238 -2.6323 -0.7953
 1122SOL    HW2 9459   8.728   5.731   6.027 -0.7266 -0.7245  1.7545
 1123SOL     OW 9460   1.006   5.205   1.118 -0.2427  0.4528 -0.0968
 1123SOL    HW1 9461   1.058   5.275   1.158  0.8804  1.8534 -3.6327
 1123SOL    HW2 9462   0.918   5.242   1.110 -0.1931  0.5913 -0.0097
 1124SOL     OW 9463   4.436   0.154   2.824 -0.3167 -0.7665 -0.2212
 1124SOL    HW1 9464   4.367   0.157   2.757  0.2608 -0.7793 -0.8207
 1124SOL    HW2 9465   4.410   0.221   2.886 -0.1607  0.1842 -1.1533
 1125SOL     OW 9466   0.969   2.773   3.742  0.1080 -0.2662  0.5160
 1125SOL    HW1 9467   1.056   2.813   3.730 -0.7882  1.6290 -0.0677
 1125SOL    HW2 9468   0.925   2.830   3.805 -0.4526 -1.6892  1.4501
 1126SOL     OW 9469   6.656   1.058   8.918  0.4566 -0.1798  0.8439
 1126SOL    HW1 9470   6.600   1.127   8.882 -1.1354 -0.4207  2.7270
 1126SOL    HW2 9471   6.683   1.008   8.841 -2.9174 -0.7832 -0.1171
 1127SOL     OW 9472   2.747   4.640   7.906  0.0829  0.2747  0.3802
 1127SOL    HW1 9473   2.712   4.671   7.990 -1.3533  1.9522 -0.7533
 1127SOL    HW2 9474   2.691   4.682   7.841  2.4745  0.7728 -1.4917
 1128SOL     OW 9475   9.913   2.611   4.286 -0.1945 -0.1037  0.7381
 1128SOL    HW1 9476   9.927   2.562   4.205  1.0442 -0.5555  1.2070
 1128SOL    HW2 9477   9.985   2.675   4.288 -0.9219  0.7301  0.8849
 1129SOL     OW 9478   3.444   3.388   5.215 -0.1816 -0.0555  0.0077
 1129SOL    HW1 9479   3.508   3.459   5.212  3.3667 -2.7543  2.8535
 1129SOL    HW2 9480   3.434   3.360   5.124  2.8267  0.5308 -0.6072
 1130SOL     OW 9481   5.480   7.296   4.679  0.1482 -0.1985 -0.0914
 1130SOL    HW1 9482   5.531   7.377   4.673  0.2654 -0.3172 -0.8149
 1130SOL    HW2 9483   5.453   7.291   4.771 -0.1465  0.8275 -0.1133
 1131SOL     OW 9484   6.057   6.292   6.826 -0.0020 -0.8291 -0.1400
 1131SOL    HW1 9485   6.035   6.379   6.794  1.0705 -0.3044  0.4999
 1131SOL    HW2 9486   6.131   6.264   6.772 -0.1852 -1.2405 -0.1807
 1132SOL     OW 9487   6.225   2.517   2.961 -0.0203  0.7134  0.2670
 1132SOL    HW1 9488   6.267   2.441   3.002  1.2766  1.6209  0.6715
 1132SOL    HW2 9489   6.191   2.483   2.878  0.8382 -0.2317  0.2801
 1133SOL     OW 9490  10.645   7.900   1.847 -0.1615 -0.2194  0.5412
 1133SOL    HW1 9491  10.604   7.960   1.784 -0.2378 -0.4231  0.3951
 1133SOL    HW2 9492  10.574   7.877   1.908 -0.4483 -1.0858 -0.0913
 1134SOL     OW 9493   3.101   5.777   8.394 -0.5393  0.2063  0.4852
 1134SOL    HW1 9494   3.084   5.864   8.358 -0.0989  0.1833  0.2122
 1134SOL    HW2 9495   3.020   5.729   8.381 -0.4354  0.2422 -0.3632
 1135SOL     OW 9496   6.113   3.989   9.605 -0.2520 -0.5107 -0.0587
 1135SOL    HW1 9497   6.132   3.932   9.679  0.4219  1.7155  1.6082
 1135SOL    HW2 9498   6.018   4.001   9.608 -0.1999 -0.2084  0.6737
 1136SOL     OW 9499   1.092   1.696   8.981 -0.0808  0.1796 -1.1328
 1136SOL    HW1 9500   1.155   1.643   9.030 -0.2594  0.2805 -0.7896
 1136SOL    HW2 9501   1.087   1.654   8.896 -1.0017 -0.9915 -0.5316
 1137SOL     OW 9502   3.437   1.000   7.834 -0.5728  0.4900 -0.2140
 1137SOL    HW1 9503   3.410   0.949   7.758 -2.2225 -1.4110  1.5172
 1137SOL    HW2 9504   3.358   1.005   7.888  0.4781  1.9795  1.2764
 1138SOL     OW 9505   6.451   0.528   0.740 -0.3991 -0.3055  0.4008
 1138SOL    HW1 9506   6.518   0.597   0.751 -0.6970 -0.1045  0.9862
 1138SOL    HW2 9507   6.416   0.515   0.828 -0.0054 -1.5646  0.3869
 1139SOL     OW 9508   6.866   4.544  10.318  0.4018  0.3921 -0.1247
 1139SOL    HW1 9509   6.906   4.605  10.380  1.3188  0.4239 -0.7379
 1139SOL    HW2 9510   6.911   4.560  10.236 -1.3194  0.8815 -1.0212
 1140SOL     OW 9511   5.601   5.890   7.136 -0.6321  0.5198  0.2409
 1140SOL    HW1 9512   5.598   5.810   7.084  0.2284 -0.3038  1.4007
 1140SOL    HW2 9513   5.525   5.940   7.107 -1.8650 -1.2234  0.2693
 1141SOL     OW 9514   5.721  10.511   8.509 -0.0041  0.1974  0.0168
 1141SOL    HW1 9515   5.734  10.449   8.580  1.1415 -0.0623 -0.3965
 1141SOL    HW2 9516   5.692  10.592   8.552 -0.2353 -0.2354  0.6760
 1142SOL     OW 9517  10.633   4.323   0.713 -0.0002  0.4722  0.2591
 1142SOL    HW1 9518  10.595   4.299   0.628 -0.6214  0.4285  0.5423
 1142SOL    HW2 9519  10.675   4.242   0.744  0.1317  0.4579  0.0436
 1143SOL     OW 9520   0.019   2.064   7.776  0.4588  0.1977 -0.1983
 1143SOL    HW1 9521   0.023   2.095   7.685  2.0362 -0.9256 -0.5608
 1143SOL    HW2 9522  -0.074   2.055   7.794  0.0906  1.1579 -1.4592
 1144SOL     OW 9523   2.877   0.437   7.175  0.2271  0.2471  0.4933
 1144SOL    HW1 9524   2.967   0.445   7.206  0.4539 -0.0366 -0.0673
 1144SOL    HW2 9525   2.856   0.523   7.137  0.5189  0.0944 -0.0241
 1145SOL     OW 9526   1.193   0.968   1.486  0.3785  0.0402  0.0315
 1145SOL    HW1 9527   1.282   0.956   1.519  0.4589  1.5811  0.4391
 1145SOL    HW2 9528   1.139   0.912   1.542  1.0816 -0.9188 -0.2344
 1146SOL     OW 9529   3.141   0.064   5.782  0.6691 -0.3384 -0.1643
 1146SOL    HW1 9530   3.099   0.065   5.868  0.8979 -0.8669 -0.0420
 1146SOL    HW2 9531   3.204   0.136   5.785  0.8151 -0.4783  0.1835
 1147SOL     OW 9532   9.441   5.179   4.718 -0.3006 -0.2431  1.1724
 1147SOL    HW1 9533   9.398   5.201   4.801  1.9598 -0.2370  2.4302
 1147SOL    HW2 9534   9.459   5.085   4.725  1.1710  0.0291  1.3652
 1148SOL     OW 9535   3.681   5.909   1.736  0.0136  0.5573 -0.2991
 1148SOL    HW1 9536   3.715   5.982   1.788 -0.6160 -0.6926  2.0210
 1148SOL    HW2 9537   3.648   5.949   1.656 -0.3402  2.8240  0.9163
 1149SOL     OW 9538   7.305   2.347   1.051 -0.2093 -0.2709 -0.4261
 1149SOL    HW1 9539   7.316   2.434   1.012 -1.1504 -0.2876 -0.7709
 1149SOL    HW2 9540   7.254   2.298   0.986 -0.4270 -0.8074  0.1344
 1150SOL     OW 9541   3.206   6.305   4.528  0.5672  0.4270 -0.2007
 1150SOL    HW1 9542   3.161   6.363   4.589  0.1547  0.6436 -0.7027
 1150SOL    HW2 9543   3.295   6.340   4.522  0.6852  0.2607  0.4520
 1151SOL     OW 9544   2.305   7.407   1.608  0.1139 -0.5160 -0.0926
 1151SOL    HW1 9545   2.249   7.460   1.665 -0.5998 -0.9154 -0.4062
 1151SOL    HW2 9546   2.367   7.365   1.668  0.9269  0.9563  0.1142
 1152SOL     OW 9547   7.730   2.746  10.075  0.1830  0.3897  0.1229
 1152SOL    HW1 9548   7.662   2.689  10.040  0.1910  0.0243  0.6798
 1152SOL    HW2 9549   7.685   2.827  10.097  0.0477  0.3717 -0.0855
 1153SOL     OW 9550   6.069   3.801   9.818 -0.4166 -0.1300  0.0214
 1153SOL    HW1 9551   6.019   3.728   9.781  0.4388 -0.6172 -0.1923
 1153SOL    HW2 9552   6.010   3.841   9.882 -1.1154 -0.6241 -0.3035
 1154SOL     OW 9553   1.140  10.343  10.579 -0.4668 -0.1669 -0.0478
 1154SOL    HW1 9554   1.224  10.309  10.607 -0.2940 -0.7184 -1.1671
 1154SOL    HW2 9555   1.161  10.404  10.508 -0.7860  2.1703  1.7633
 1155SOL     OW 9556   0.023   9.324   3.313 -0.0738 -0.6228 -0.2537
 1155SOL    HW1 9557   0.012   9.294   3.403 -2.7656  1.6409  0.3250
 1155SOL    HW2 9558   0.097   9.384   3.316 -1.8353  1.6860  1.2654
 1156SOL     OW 9559   0.564   0.384   6.369  0.8739 -0.3874 -0.2709
 1156SOL    HW1 9560   0.523   0.348   6.448  2.0275  0.4481  0.7539
 1156SOL    HW2 9561   0.595   0.308   6.321 -0.2445 -0.9378 -0.1723
 1157SOL     OW 9562   8.082   1.914  10.624 -0.0284 -0.5320  0.0339
 1157SOL    HW1 9563   8.170   1.917  10.588  0.1151  1.5790  0.4461
 1157SOL    HW2 9564   8.026   1.945  10.553 -0.1983 -0.0083  0.3912
 1158SOL     OW 9565   2.929   7.791   5.292 -0.4227 -0.0925 -0.0828
 1158SOL    HW1 9566   2.958   7.758   5.377 -1.2415  1.6740  0.9190
 1158SOL    HW2 9567   2.835   7.776   5.291 -0.4328 -0.0128 -0.6491
 1159SOL     OW 9568   3.501   4.086   6.308  0.0141 -0.1979  0.1273
 1159SOL    HW1 9569   3.448   4.166   6.317 -0.5827 -0.6301  0.5965
 1159SOL    HW2 9570   3.451   4.020   6.356  0.5257 -0.8434 -0.2240
 1160SOL     OW 9571   1.802   9.871  10.200 -0.0082  0.0510 -0.5568
 1160SOL    HW1 9572   1.809   9.782  10.164 -0.5590  0.1571 -0.9369
 1160SOL    HW2 9573   1.892   9.900  10.209  0.1845 -0.5958 -0.3122
 1161SOL     OW 9574   2.892  10.465   2.552  0.3316  0.2399  0.0763
 1161SOL    HW1 9575   2.842  10.407   2.609 -0.5405  1.4655  0.5922
 1161SOL    HW2 9576   2.968  10.491   2.604 -0.4266  1.3018  0.6785
 1162SOL     OW 9577   2.932   4.225   2.843 -0.6900 -0.1078  0.0378
 1162SOL    HW1 9578   2.966   4.305   2.804 -2.3938 -0.1376 -1.6110
 1162SOL    HW2 9579   3.003   4.161   2.833 -0.2490  0.5123 -0.9244
 1163SOL     OW 9580   8.097   1.998   2.568  0.1947 -0.2756  0.2476
 1163SOL    HW1 9581   8.118   2.091   2.577  1.2444 -0.2956 -1.5076
 1163SOL    HW2 9582   8.114   1.961   2.654  3.5892  0.4984  0.0361
 1164SOL     OW 9583   1.092   6.364   3.012 -0.4401  0.3235 -0.1399
 1164SOL    HW1 9584   1.160   6.331   3.071 -0.2939  1.8009  0.5493
 1164SOL    HW2 9585   1.033   6.290   3.000  0.8781 -0.7628 -0.1579
 1165SOL     OW 9586   6.461   0.551   3.605  0.2568 -0.5039 -0.1325
 1165SOL    HW1 9587   6.524   0.615   3.638  0.5249 -0.8929  0.1146
 1165SOL    HW2 9588   6.490   0.534   3.515  0.3632 -0.5032 -0.0985
 1166SOL     OW 9589   0.405   3.146  10.828  0.0134 -0.3592  0.1043
 1166SOL    HW1 9590   0.362   3.066  10.799  0.3382 -0.7288  0.6106
 1166SOL    HW2 9591   0.350   3.217  10.796 -0.4332 -0.7981 -0.1021
 1167SOL     OW 9592   6.957   6.886   3.784  0.9244 -0.0161  0.7104
 1167SOL    HW1 9593   6.994   6.836   3.857 -0.2371 -1.4401  0.3843
 1167SOL    HW2 9594   6.931   6.819   3.721  0.4485  1.1012 -0.3096
 1168SOL     OW 9595   4.731   8.318   1.182 -0.4810 -0.0027  0.4970
 1168SOL    HW1 9596   4.641   8.296   1.205 -0.4460 -0.7218 -0.0008
 1168SOL    HW2 9597   4.745   8.404   1.220 -1.5285  0.3202  0.1834
 1169SOL     OW 9598   1.764   1.256   1.590  0.6590  0.1201  0.0992
 1169SOL    HW1 9599   1.812   1.243   1.672 -0.2625  2.1753  1.0326
 1169SOL    HW2 9600   1.777   1.348   1.569 -4.4680  1.4769  1.5711
 1170SOL     OW 9601   5.768   9.124   6.670 -0.3724  0.2587 -0.1163
 1170SOL    HW1 9602   5.827   9.080   6.608 -0.1200  1.8106 -1.0049
 1170SOL    HW2 9603   5.827   9.166   6.733 -0.5734  0.5542 -0.1239
 1171SOL     OW 9604   7.830   0.744   7.385  0.1929 -0.0618  0.4845
 1171SOL    HW1 9605   7.762   0.748   7.318  0.5372  0.3705  0.1576
 1171SOL    HW2 9606   7.789   0.699   7.459 -0.6898  0.8831  0.5861
 1172SOL     OW 9607   6.963   2.577   8.901 -0.3674  0.1071 -0.1920
 1172SOL    HW1 9608   6.921   2.629   8.970 -2.1426 -2.9291  1.2194
 1172SOL    HW2 9609   6.953   2.629   8.822 -1.2295  2.2694  1.2443
 1173SOL     OW 9610   7.139   0.261   7.193  0.1585 -0.1680  0.0911
 1173SOL    HW1 9611   7.098   0.183   7.156  0.7220 -0.8658  0.9088
 1173SOL    HW2 9612   7.209   0.284   7.132  1.9019 -2.0452  1.2588
 1174SOL     OW 9613   6.730   7.929   7.670  0.3029 -0.1734  0.1780
 1174SOL    HW1 9614   6.740   7.837   7.645  1.0863 -0.2813  0.8384
 1174SOL    HW2 9615   6.669   7.928   7.744  0.9113 -0.2414  0.6792
 1175SOL     OW 9616   3.903   2.043   1.583 -0.4775 -0.1045 -0.1818
 1175SOL    HW1 9617   3.963   2.101   1.630 -0.7809  0.1998 -0.1625
 1175SOL    HW2 9618   3.833   2.101   1.552 -1.0531 -0.5394  0.2745
 1176SOL     OW 9619   9.112   5.823   5.582 -0.1406  1.2188  0.2401
 1176SOL    HW1 9620   9.118   5.916   5.603  0.9505  1.4439 -1.0273
 1176SOL    HW2 9621   9.196   5.801   5.542  0.0335 -0.5691  1.4700
 1177SOL     OW 9622   0.433   8.348   3.486  0.3817  0.6420 -0.2069
 1177SOL    HW1 9623   0.520   8.365   3.522  0.3306 -0.9280  0.7631
 1177SOL    HW2 9624   0.387   8.431   3.493  1.7820  1.4956 -0.7246
 1178SOL     OW 9625   1.902   6.157   3.808 -0.4763  0.2647  0.6771
 1178SOL    HW1 9626   1.810   6.156   3.834 -1.6386  0.1514 -2.8171
 1178SOL    HW2 9627   1.901   6.200   3.722  2.8398  0.7700  0.7887
 1179SOL     OW 9628   8.889   4.294   1.223  0.7018  0.4982 -0.4805
 1179SOL    HW1 9629   8.866   4.347   1.300 -2.9210 -0.1736 -0.8911
 1179SOL    HW2 9630   8.918   4.210   1.259 -2.1118 -0.2458  0.3205
 1180SOL     OW 9631   7.460  10.523   2.248  0.0985 -0.1765 -0.6591
 1180SOL    HW1 9632   7.514  10.480   2.182  1.4882  1.4496 -0.6524
 1180SOL    HW2 9633   7.373  10.486   2.235  0.6250 -0.8929 -2.4898
 1181SOL     OW 9634   4.380   7.341   7.595 -0.3337 -0.3944 -0.6184
 1181SOL    HW1 9635   4.423   7.345   7.680  0.7037 -0.8725 -1.1067
 1181SOL    HW2 9636   4.291   7.314   7.614 -0.2074 -0.1551  0.3460
 1182SOL     OW 9637   4.445  10.445   1.520  0.0279  0.6515 -0.2532
 1182SOL    HW1 9638   4.371  10.505   1.527 -0.2614  0.3562 -0.6745
 1182SOL    HW2 9639   4.488  10.468   1.438  1.6352  2.1605  0.9316
 1183SOL     OW 9640  10.018   6.221   6.995  0.6695 -0.3565  0.1171
 1183SOL    HW1 9641   9.964   6.144   7.008  0.6928 -1.0466 -3.0553
 1183SOL    HW2 9642   9.956   6.293   6.983  0.6462  0.1461  2.7087
 1184SOL     OW 9643   4.054   5.532   5.207  0.2828  0.4858 -0.0056
 1184SOL    HW1 9644   4.110   5.517   5.282 -0.8320 -0.8398  0.5917
 1184SOL    HW2 9645   3.983   5.587   5.241  1.6701  3.1056 -1.0030
 1185SOL     OW 9646   3.441   5.918  10.554 -0.0214  0.0562 -0.5496
 1185SOL    HW1 9647   3.468   5.838  10.600  0.7604  0.4065 -0.3815
 1185SOL    HW2 9648   3.449   5.895  10.461 -1.1952 -0.5131 -0.5335
 1186SOL     OW 9649   5.492   2.720   8.111  0.0147 -0.3657  0.0009
 1186SOL    HW1 9650   5.490   2.637   8.160  0.6707 -0.9737 -0.9685
 1186SOL    HW2 9651   5.451   2.783   8.170 -0.1755 -1.3006  0.9084
 1187SOL     OW 9652   3.898   0.718   0.005  0.4514 -0.1937  0.1722
 1187SOL    HW1 9653   3.875   0.640   0.054 -1.0228  1.6360  2.6176
 1187SOL    HW2 9654   3.985   0.743   0.038  0.0400  0.2909  0.9174
 1188SOL     OW 9655   1.637   2.670   6.506 -0.5479 -0.3540 -0.3346
 1188SOL    HW1 9656   1.658   2.657   6.598 -0.0241  1.1124 -0.2320
 1188SOL    HW2 9657   1.678   2.595   6.462  0.4492 -0.3092  0.4675
 1189SOL     OW 9658   2.886   6.463  10.789 -0.2179 -0.1582 -0.1783
 1189SOL    HW1 9659   2.962   6.426  10.743 -0.4423 -0.9755  0.0941
 1189SOL    HW2 9660   2.856   6.534  10.733  0.1206 -0.5011 -0.8032
 1190SOL     OW 9661   0.507   2.256   0.374 -0.0968  0.5879  0.1159
 1190SOL    HW1 9662   0.483   2.201   0.299 -0.6659  1.1750 -0.1418
 1190SOL    HW2 9663   0.474   2.208   0.450 -0.4043  0.4722 -0.0876
 1191SOL     OW 9664   5.408   9.104   3.789 -0.7785 -0.2692 -0.1239
 1191SOL    HW1 9665   5.418   9.198   3.769  0.1218  0.0521  1.6380
 1191SOL    HW2 9666   5.479   9.062   3.740 -1.1988 -0.0478 -0.9413
 1192SOL     OW 9667   3.047  10.892   9.597  0.0634 -0.1175  0.3856
 1192SOL    HW1 9668   3.120  10.885   9.536 -1.2865 -0.7555 -1.2608
 1192SOL    HW2 9669   3.007  10.805   9.595 -0.6232  0.1644  1.3958
 1193SOL     OW 9670   9.638   4.775   9.190  0.0440 -0.4234  0.4143
 1193SOL    HW1 9671   9.723   4.804   9.222 -0.7213 -0.4416  2.6479
 1193SOL    HW2 9672   9.658   4.709   9.124  1.7679  2.6699 -2.4078
 1194SOL     OW 9673  10.400   9.804   0.081  0.4303  0.2786 -0.0051
 1194SOL    HW1 9674  10.330   9.816   0.146  0.8060 -0.5221  0.5659
 1194SOL    HW2 9675  10.430   9.892   0.061 -0.9768  0.6641 -0.5184
 1195SOL     OW 9676  10.321   5.213   0.104 -0.4184  0.3511 -0.4600
 1195SOL    HW1 9677  10.326   5.220   0.009 -1.2174 -0.8267 -0.6178
 1195SOL    HW2 9678  10.245   5.266   0.127 -1.1839 -0.6203 -0.6740
 1196SOL     OW 9679   3.885  10.860   7.192 -0.2571 -0.1468 -0.3211
 1196SOL    HW1 9680   3.872  10.783   7.135  1.1284 -0.0508 -0.8194
 1196SOL    HW2 9681   3.822  10.924   7.160 -2.7060 -1.6399  1.2593
 1197SOL     OW 9682   8.571   0.846   6.940  0.1657 -0.2857 -0.1301
 1197SOL    HW1 9683   8.535   0.797   6.866  0.5042 -1.2404  0.3266
 1197SOL    HW2 9684   8.496   0.862   6.997 -0.0165  0.0670 -0.4725
 1198SOL     OW 9685   2.752   9.143  10.005 -0.1817 -0.0582 -0.0838
 1198SOL    HW1 9686   2.664   9.149  10.042  0.3246  1.5176  0.9669
 1198SOL    HW2 9687   2.809   9.133  10.081  0.6785  0.7543 -0.6096
 1199SOL     OW 9688   9.749   1.221   0.591  0.8093 -0.4617 -0.2748
 1199SOL    HW1 9689   9.673   1.279   0.599  0.0149 -1.1657 -2.1339
 1199SOL    HW2 9690   9.817   1.262   0.644 -0.7561  0.3606  1.1944
 1200SOL     OW 9691   6.826   8.415   7.790  0.1546 -0.5192 -0.3381
 1200SOL    HW1 9692   6.775   8.333   7.790  2.0863 -1.8054 -1.8341
 1200SOL    HW2 9693   6.810   8.453   7.704  0.6118 -0.2042 -0.2828
 1201SOL     OW 9694   5.277   7.665   7.753 -0.0504 -0.3967  0.2018
 1201SOL    HW1 9695   5.298   7.695   7.842 -1.0260 -1.1806  0.7210
 1201SOL    HW2 9696   5.257   7.745   7.704 -2.4239 -0.1119  1.4901
 1202SOL     OW 9697   6.864   4.151   6.644 -0.3396  0.0708 -0.1445
 1202SOL    HW1 9698   6.822   4.188   6.566  1.6017  2.8091 -0.0158
 1202SOL    HW2 9699   6.890   4.227   6.696  0.7531 -1.6187  1.9285
 1203SOL     OW 9700   7.079   2.344   5.438 -0.0341 -0.4248 -0.5305
 1203SOL    HW1 9701   7.000   2.364   5.488 -1.2974 -0.4896 -2.3946
 1203SOL    HW2 9702   7.115   2.266   5.480 -1.0860 -0.5162  0.2342
 1204SOL     OW 9703   9.869   7.483   6.807  0.6517  0.1726 -0.0956
 1204SOL    HW1 9704   9.869   7.391   6.832 -3.1728 -0.2292 -0.9724
 1204SOL    HW2 9705   9.808   7.524   6.868  2.0793  2.1564  0.1009
 1205SOL     OW 9706   4.307   4.943   9.265  0.0302  0.7210  0.3621
 1205SOL    HW1 9707   4.284   4.990   9.345  0.7444  0.6606  0.6090
 1205SOL    HW2 9708   4.345   4.860   9.295 -0.3416  0.3896 -0.0543
 1206SOL     OW 9709   2.747   3.769   9.484 -0.0412 -0.1279  0.5387
 1206SOL    HW1 9710   2.819   3.815   9.526  0.4335 -0.3077 -0.0709
 1206SOL    HW2 9711   2.681   3.836   9.468  1.0031  0.5690 -1.1619
 1207SOL     OW 9712   2.840   5.614   8.960  0.0367 -0.4540  0.0594
 1207SOL    HW1 9713   2.837   5.615   8.864 -0.9894 -2.3932  0.0248
 1207SOL    HW2 9714   2.930   5.590   8.982  1.3893  3.5446 -0.2439
 1208SOL     OW 9715   3.941   6.242   9.616  0.1531 -0.1312 -0.3620
 1208SOL    HW1 9716   3.875   6.292   9.568 -0.3932 -1.4526 -1.0562
 1208SOL    HW2 9717   3.973   6.302   9.683 -1.5656  0.6613 -0.1806
 1209SOL     OW 9718   3.199   9.177   5.689 -0.0313  0.2004 -0.2388
 1209SOL    HW1 9719   3.229   9.097   5.646 -0.0304 -1.2315  2.2297
 1209SOL    HW2 9720   3.269   9.200   5.750 -0.3197  1.7361 -0.4453
 1210SOL     OW 9721   2.230   7.408   0.221 -0.5164 -0.0313  0.1142
 1210SOL    HW1 9722   2.197   7.482   0.172 -0.2381  0.6452  0.9150
 1210SOL    HW2 9723   2.325   7.415   0.216 -0.4390  0.8761  1.8754
 1211SOL     OW 9724   1.122   1.139   7.801 -0.3847 -0.1380  0.7952
 1211SOL    HW1 9725   1.069   1.121   7.723 -0.2357  1.2213  0.3391
 1211SOL    HW2 9726   1.059   1.148   7.872 -0.6762  0.3329  0.4796
 1212SOL     OW 9727   2.070   5.861   5.755 -0.2098  0.1356  0.2676
 1212SOL    HW1 9728   2.136   5.917   5.795 -0.5206 -0.4308  1.6332
 1212SOL    HW2 9729   2.000   5.922   5.730  0.4350  0.6255 -0.3744
 1213SOL     OW 9730   1.349   6.818   2.357  0.1457 -0.3053 -0.8998
 1213SOL    HW1 9731   1.387   6.902   2.384  1.0193 -1.2166  0.8411
 1213SOL    HW2 9732   1.288   6.795   2.428  0.0316 -1.2212 -1.2805
 1214SOL     OW 9733   9.654   9.266   6.161 -0.1350 -0.1090 -0.0405
 1214SOL    HW1 9734   9.723   9.274   6.096 -0.1515  0.7423  0.0335
 1214SOL    HW2 9735   9.618   9.355   6.169 -0.8817 -0.4316  0.3035
 1215SOL     OW 9736  10.747   4.496   3.687  0.6790  0.1977 -0.0084
 1215SOL    HW1 9737  10.685   4.426   3.707 -0.2386  0.7912 -0.6985
 1215SOL    HW2 9738  10.692   4.572   3.670  1.6738  1.2690  1.3174
 1216SOL     OW 9739   9.731   5.228   7.651 -0.1263  0.2888  0.5960
 1216SOL    HW1 9740   9.781   5.193   7.724 -0.7213 -0.4370  0.6720
 1216SOL    HW2 9741   9.790   5.219   7.575 -0.7674 -2.3054  0.3284
 1217SOL     OW 9742  10.796   9.404   5.987  1.0555  0.0784 -0.4994
 1217SOL    HW1 9743  10.825   9.490   5.957 -2.5948  1.9327  0.6706
 1217SOL    HW2 9744  10.726   9.380   5.928  0.6333 -1.0905  0.4358
 1218SOL     OW 9745   6.986   6.956   2.020 -0.3091 -0.1627  0.2360
 1218SOL    HW1 9746   6.970   7.044   1.985 -0.1149 -0.3098 -0.2228
 1218SOL    HW2 9747   6.922   6.947   2.092  0.3151  0.7158  0.9227
 1219SOL     OW 9748   1.195   4.263   3.583  0.1924  0.2070  0.2740
 1219SOL    HW1 9749   1.175   4.274   3.490  1.3486  0.5715  0.0576
 1219SOL    HW2 9750   1.195   4.168   3.597 -2.6493  0.1473  0.5380
 1220SOL     OW 9751   0.807   2.990   8.474  0.8902 -0.2395 -0.1370
 1220SOL    HW1 9752   0.867   2.921   8.448  1.5754  0.3085 -0.0251
 1220SOL    HW2 9753   0.863   3.064   8.497  0.1370  0.9054 -1.7840
 1221SOL     OW 9754   0.859   1.693   9.844 -0.2997  1.0499  0.2467
 1221SOL    HW1 9755   0.825   1.605   9.860 -2.9382  2.0123  0.3957
 1221SOL    HW2 9756   0.952   1.687   9.867 -0.9521 -1.0199  2.8362
 1222SOL     OW 9757   6.158   3.290   4.774  0.4161 -0.1605 -0.3845
 1222SOL    HW1 9758   6.251   3.304   4.786  0.4396  0.1063 -0.8655
 1222SOL    HW2 9759   6.153   3.222   4.707  0.2567  1.7626 -2.4205
 1223SOL     OW 9760   8.316   9.856   5.959  0.3238  0.5809 -0.0601
 1223SOL    HW1 9761   8.276   9.769   5.957  1.8535 -0.1525 -0.6625
 1223SOL    HW2 9762   8.392   9.848   5.901  1.1185  2.0091  0.7360
 1224SOL     OW 9763   9.012   1.285   8.501  0.3115  0.3913  0.5253
 1224SOL    HW1 9764   9.067   1.213   8.470 -2.3950 -1.9998  0.7759
 1224SOL    HW2 9765   8.974   1.323   8.421  0.9879  0.9133  0.4452
 1225SOL     OW 9766   8.824   4.976   8.766 -0.4174 -0.4867  0.2536
 1225SOL    HW1 9767   8.876   4.966   8.846  0.2198  0.5984 -0.0043
 1225SOL    HW2 9768   8.870   4.923   8.701 -1.9383 -2.8712  0.9964
 1226SOL     OW 9769   4.172   6.315   6.731 -0.3882 -0.0732  0.4615
 1226SOL    HW1 9770   4.141   6.225   6.727 -0.8073  0.0844 -3.0765
 1226SOL    HW2 9771   4.267   6.307   6.737 -0.3863 -0.7872 -0.3111
 1227SOL     OW 9772   5.804   7.572   6.158 -0.1980 -0.1721  0.1785
 1227SOL    HW1 9773   5.714   7.604   6.149 -0.6909 -1.4940  0.2799
 1227SOL    HW2 9774   5.837   7.567   6.068  0.0964  1.1492  0.1908
 1228SOL     OW 9775   3.721   6.772   1.019 -0.5626  0.1118 -0.8826
 1228SOL    HW1 9776   3.736   6.842   0.955 -1.5756  1.5582  0.3800
 1228SOL    HW2 9777   3.710   6.693   0.966 -0.9220  1.1672 -2.4656
 1229SOL     OW 9778   1.008   4.656   5.300 -0.1680  0.2583 -0.3839
 1229SOL    HW1 9779   0.940   4.680   5.237  0.9138  0.4874 -1.4949
 1229SOL    HW2 9780   1.039   4.739   5.335  0.5923  0.2546 -1.0264
 1230SOL     OW 9781   2.212   1.673   4.530 -0.1932 -0.9334  0.1360
 1230SOL    HW1 9782   2.175   1.588   4.503 -0.5420 -0.3077 -1.4938
 1230SOL    HW2 9783   2.143   1.736   4.508  0.4121 -0.1285  0.5202
 1231SOL     OW 9784   2.545   2.750   1.150  0.2515  0.8477  0.0893
 1231SOL    HW1 9785   2.492   2.671   1.148 -1.2011  1.6472 -4.1598
 1231SOL    HW2 9786   2.632   2.723   1.120 -0.5838  0.9020 -2.6141
 1232SOL     OW 9787   4.333   7.756   3.870 -0.4165 -0.1223  0.0746
 1232SOL    HW1 9788   4.317   7.713   3.954 -0.7989  2.2464  1.3138
 1232SOL    HW2 9789   4.251   7.746   3.822 -0.7414 -0.1652  0.6272
 1233SOL     OW 9790   9.858   3.561   8.732 -0.6195 -0.1747 -0.7361
 1233SOL    HW1 9791   9.855   3.475   8.776  0.7786  0.0630 -0.0885
 1233SOL    HW2 9792   9.904   3.543   8.650 -0.2184 -0.0298 -0.5441
 1234SOL     OW 9793   1.596  10.565   6.918 -0.0661 -0.0378  0.5202
 1234SOL    HW1 9794   1.613  10.593   6.828  0.1641 -0.1215  0.5373
 1234SOL    HW2 9795   1.594  10.646   6.969 -0.1494  0.0058  0.4484
 1235SOL     OW 9796   3.683   9.518   6.742 -0.4332  0.1694 -0.1782
 1235SOL    HW1 9797   3.739   9.477   6.676 -2.2344 -0.1511 -1.5920
 1235SOL    HW2 9798   3.613   9.559   6.691 -2.2669 -0.6746  1.5497
 1236SOL     OW 9799   9.295   5.528   9.570 -0.0954  0.4509  0.1915
 1236SOL    HW1 9800   9.233   5.528   9.496  1.0851 -1.2152 -0.8694
 1236SOL    HW2 9801   9.366   5.584   9.542  0.1918  0.0987  0.2112
 1237SOL     OW 9802   8.847   5.656  10.014  0.4093 -0.4292 -0.7742
 1237SOL    HW1 9803   8.862   5.625   9.925 -2.5469 -2.2828 -0.7655
 1237SOL    HW2 9804   8.922   5.624  10.064  1.6398 -0.1551 -2.3682
 1238SOL     OW 9805   8.955   0.308   7.198 -0.2167 -0.2700  0.2482
 1238SOL    HW1 9806   8.860   0.308   7.209 -0.3815  0.3492 -0.9479
 1238SOL    HW2 9807   8.969   0.354   7.115  1.1098 -0.6381  0.2478
 1239SOL     OW 9808   0.749   1.790   3.793  0.2725  0.3381 -0.4847
 1239SOL    HW1 9809   0.749   1.697   3.816 -0.6970 -0.0232 -1.8534
 1239SOL    HW2 9810   0.820   1.827   3.845  1.3183 -1.3441 -0.6318
 1240SOL     OW 9811   3.850  10.185   1.060 -0.1620 -0.7434  0.3921
 1240SOL    HW1 9812   3.763  10.166   1.094 -0.3525 -0.4796  0.0647
 1240SOL    HW2 9813   3.846  10.160   0.968  0.1764 -0.9374  0.4300
 1241SOL     OW 9814   3.736   5.946   5.153  0.4132 -0.2910 -0.4839
 1241SOL    HW1 9815   3.735   5.851   5.158  0.4335 -0.2334  0.8854
 1241SOL    HW2 9816   3.744   5.975   5.244  0.2985  1.0171 -0.8723
 1242SOL     OW 9817   4.717   2.709   1.492 -0.3569  0.3694  0.1688
 1242SOL    HW1 9818   4.796   2.762   1.492 -0.4383  0.4993 -0.1591
 1242SOL    HW2 9819   4.747   2.620   1.473 -0.2502  0.3513  0.4289
 1243SOL     OW 9820   8.463   1.071  10.140  0.0830 -0.1729 -0.0680
 1243SOL    HW1 9821   8.528   1.006  10.113  1.1127  1.8435 -2.8514
 1243SOL    HW2 9822   8.388   1.056  10.082  0.0041  0.5746 -0.1699
 1244SOL     OW 9823   7.739  10.293   9.611 -0.1177  0.4098 -0.4291
 1244SOL    HW1 9824   7.705  10.229   9.548 -1.3016 -1.2346  1.7463
 1244SOL    HW2 9825   7.666  10.307   9.672  2.0048 -0.7572  2.5852
 1245SOL     OW 9826   2.624   9.032   4.846 -0.0955  0.1375 -0.1694
 1245SOL    HW1 9827   2.540   9.069   4.817 -0.6176 -1.7901 -1.2683
 1245SOL    HW2 9828   2.600   8.957   4.900  0.9429  0.9430  1.5038
 1246SOL     OW 9829   5.691   3.633   8.260  0.1628  0.2595  0.2110
 1246SOL    HW1 9830   5.598   3.634   8.239  0.0964 -1.6673  0.2234
 1246SOL    HW2 9831   5.694   3.626   8.356  0.2083 -2.5947  0.0693
 1247SOL     OW 9832   1.416   5.474   0.519  0.2706  0.2691  0.5395
 1247SOL    HW1 9833   1.327   5.509   0.508 -0.3350 -0.6002  2.3102
 1247SOL    HW2 9834   1.409   5.383   0.492  0.2928 -0.1332  1.8061
 1248SOL     OW 9835   9.598   4.015   0.839  0.2967  0.4791 -0.7946
 1248SOL    HW1 9836   9.505   4.021   0.816 -0.2006 -1.5319  0.4806
 1248SOL    HW2 9837   9.606   4.066   0.919  0.5326  1.4795 -1.4352
 1249SOL     OW 9838   7.147   9.092   6.095 -0.0614  0.1372 -0.3077
 1249SOL    HW1 9839   7.065   9.071   6.051 -0.2538 -0.7265  0.4215
 1249SOL    HW2 9840   7.214   9.087   6.027 -0.8465  3.1917 -1.4587
 1250SOL     OW 9841  10.136   8.443   4.008 -0.2428  0.2253  0.0933
 1250SOL    HW1 9842  10.079   8.389   4.061  1.4046 -0.4463  1.2768
 1250SOL    HW2 9843  10.195   8.485   4.071  3.1797 -2.2382 -1.1785
 1251SOL     OW 9844   8.746   9.393   9.979  0.0409 -0.3879 -0.3941
 1251SOL    HW1 9845   8.829   9.408  10.024  0.4475 -1.3489 -0.7949
 1251SOL    HW2 9846   8.696   9.336  10.038 -0.2664  0.0418 -0.2342
 1252SOL     OW 9847   6.831   0.453   2.113  0.1997 -0.0271 -0.5756
 1252SOL    HW1 9848   6.916   0.419   2.143 -0.6537 -2.3501 -0.5601
 1252SOL    HW2 9849   6.792   0.380   2.065 -1.4668  1.2578 -1.2622
 1253SOL     OW 9850  10.530   4.204   9.581  0.2435  0.3540 -0.6042
 1253SOL    HW1 9851  10.522   4.263   9.657 -0.4684 -3.4434  2.5947
 1253SOL    HW2 9852  10.622   4.212   9.555  0.6109  1.5427  0.9006
 1254SOL     OW 9853   3.091   2.294   1.049 -1.0714  0.2543  0.1680
 1254SOL    HW1 9854   3.015   2.324   1.098 -2.0531 -0.3693 -0.9148
 1254SOL    HW2 9855   3.056   2.271   0.963  1.0010  4.2068 -1.9762
 1255SOL     OW 9856   2.248  10.635   8.886  0.4888  0.0320  0.1877
 1255SOL    HW1 9857   2.169  10.669   8.843  0.0993 -1.6534 -0.5176
 1255SOL    HW2 9858   2.318  10.648   8.822  0.5020  0.2258  0.2407
 1256SOL     OW 9859   1.317   6.070   8.850  0.3595 -0.2206  0.4142
 1256SOL    HW1 9860   1.232   6.088   8.889  0.0944  1.0965 -0.6830
 1256SOL    HW2 9861   1.299   6.062   8.756  1.6408  1.8535 -0.0730
 1257SOL     OW 9862   5.726   1.255  10.766 -0.2636 -0.0171  0.4847
 1257SOL    HW1 9863   5.769   1.244  10.681 -1.2637 -0.2777 -0.0028
 1257SOL    HW2 9864   5.776   1.200  10.826 -1.3893 -2.3181 -0.5937
 1258SOL     OW 9865   2.215   0.198   6.458  0.2224  0.1319  0.2195
 1258SOL    HW1 9866   2.171   0.133   6.512  0.2252  1.0907  1.4109
 1258SOL    HW2 9867   2.220   0.276   6.513  1.0407  0.8615 -0.8443
 1259SOL     OW 9868  10.898   4.675  10.520  0.6741  0.3682 -0.2491
 1259SOL    HW1 9869  10.803   4.668  10.523  0.4628  2.5526  0.5135
 1259SOL    HW2 9870  10.914   4.761  10.479  2.2802  0.3829  0.3280
 1260SOL     OW 9871   0.770   9.781   0.884 -0.1975  0.1450 -0.0740
 1260SOL    HW1 9872   0.776   9.689   0.909  0.3966  0.4001  0.7774
 1260SOL    HW2 9873   0.676   9.799   0.879 -0.3131 -0.5227 -0.3042
 1261SOL     OW 9874   4.059  10.191   7.757 -0.3090 -0.4582 -0.2335
 1261SOL    HW1 9875   4.050  10.103   7.794 -0.5866 -0.6940 -0.8389
 1261SOL    HW2 9876   3.980  10.237   7.784  0.6353  0.1941  1.5839
 1262SOL     OW 9877   4.637   7.438   8.130 -0.6794 -0.0240  0.6546
 1262SOL    HW1 9878   4.619   7.345   8.142 -1.3004  0.1817  1.3507
 1262SOL    HW2 9879   4.705   7.440   8.062 -0.5959 -0.9831  0.6923
 1263SOL     OW 9880   3.023   1.351   7.675 -0.2005 -0.1758  0.0181
 1263SOL    HW1 9881   2.930   1.337   7.657 -0.1414 -3.4182  1.5938
 1263SOL    HW2 9882   3.026   1.372   7.769  0.6896 -0.7455  0.1216
 1264SOL     OW 9883   4.210   5.373   8.548  0.8670  0.1135 -0.9938
 1264SOL    HW1 9884   4.248   5.459   8.568  0.5073  0.1907 -0.6237
 1264SOL    HW2 9885   4.170   5.345   8.630  2.3442 -1.1438 -0.6612
 1265SOL     OW 9886  10.026   9.916   0.307  0.0271 -0.2048 -0.0235
 1265SOL    HW1 9887  10.112   9.926   0.347  0.1699 -0.4011 -0.2780
 1265SOL    HW2 9888   9.976   9.867   0.372  0.0162  0.1659  0.2501
 1266SOL     OW 9889   5.491   0.697   5.549 -0.4124 -0.0563  0.0757
 1266SOL    HW1 9890   5.430   0.630   5.518 -0.2251 -0.6570  0.9748
 1266SOL    HW2 9891   5.445   0.738   5.623 -1.7572  2.7865 -2.1479
 1267SOL     OW 9892   8.078   9.285   4.927 -0.1414 -0.0764  0.4717
 1267SOL    HW1 9893   8.057   9.359   4.984  1.2420  1.0646 -0.4216
 1267SOL    HW2 9894   8.144   9.236   4.975  0.4075  0.4092  0.2181
 1268SOL     OW 9895  10.642   3.379   4.632  0.3925 -0.1509 -0.2176
 1268SOL    HW1 9896  10.561   3.431   4.638 -0.0125 -0.6818 -0.8898
 1268SOL    HW2 9897  10.611   3.288   4.637  0.9421 -0.3577 -0.6145
 1269SOL     OW 9898   5.259   2.165   5.984 -0.0606  0.1039  0.5136
 1269SOL    HW1 9899   5.251   2.192   6.076 -1.1374  1.4892  0.0480
 1269SOL    HW2 9900   5.340   2.115   5.981  0.6082  1.0177  2.0028
 1270SOL     OW 9901  10.199   2.476   2.181  0.0901  0.4385  0.5919
 1270SOL    HW1 9902  10.181   2.382   2.188  1.0131 -0.0258 -1.9470
 1270SOL    HW2 9903  10.115   2.518   2.200 -0.5221 -0.9349  1.0640
 1271SOL     OW 9904   7.603   3.013   7.569  0.3487 -0.2950 -0.0468
 1271SOL    HW1 9905   7.613   3.042   7.660 -1.5471 -1.5784  0.6427
 1271SOL    HW2 9906   7.692   3.016   7.533  0.9737  1.3573  1.4645
 1272SOL     OW 9907   8.638   0.198   6.117  0.7001 -0.1475  0.4313
 1272SOL    HW1 9908   8.687   0.226   6.194 -0.4285 -0.1507  1.1659
 1272SOL    HW2 9909   8.551   0.177   6.150  0.3322 -0.5883 -0.7744
 1273SOL     OW 9910   1.636   9.356   4.915  0.4420  0.0370 -0.1437
 1273SOL    HW1 9911   1.673   9.323   4.834 -1.2564  0.7735 -1.2756
 1273SOL    HW2 9912   1.658   9.449   4.917 -1.6746  0.6238 -1.1253
 1274SOL     OW 9913   0.029   4.539   0.807  0.4148 -0.3240  0.0229
 1274SOL    HW1 9914   0.061   4.629   0.816  0.1184 -0.2443  0.3234
 1274SOL    HW2 9915   0.037   4.502   0.895  2.9036 -1.4212 -0.5951
 1275SOL     OW 9916   7.392   5.558   7.098 -0.2501  0.4494  0.3308
 1275SOL    HW1 9917   7.433   5.496   7.038 -1.3556  0.7729 -0.8019
 1275SOL    HW2 9918   7.375   5.636   7.045 -0.7624  0.9556  1.2021
 1276SOL     OW 9919   1.664   1.426   4.800  0.5350 -0.4199 -0.2844
 1276SOL    HW1 9920   1.676   1.338   4.836  1.3822  0.0576  0.6416
 1276SOL    HW2 9921   1.576   1.450   4.826  0.3961 -0.8874 -0.3040
 1277SOL     OW 9922   5.746  10.372   0.522  0.4372 -0.2685  0.0301
 1277SOL    HW1 9923   5.702  10.299   0.478  1.8523 -0.6671 -0.7669
 1277SOL    HW2 9924   5.826  10.385   0.472  0.2669  1.7708  0.2348
 1278SOL     OW 9925   1.765   0.906   4.012 -0.1766  0.2364  0.1083
 1278SOL    HW1 9926   1.772   0.832   3.952  0.6952  1.3068 -1.1597
 1278SOL    HW2 9927   1.854   0.941   4.017 -0.6829  1.5308  0.2496
 1279SOL     OW 9928   4.861  10.573   1.129 -0.4126 -0.0247  0.3058
 1279SOL    HW1 9929   4.890  10.650   1.081  1.4786 -0.4328  0.7401
 1279SOL    HW2 9930   4.799  10.530   1.070 -0.5283  1.1431 -0.4537
 1280SOL     OW 9931   4.486   7.988   3.888 -0.1104 -0.3141  0.3732
 1280SOL    HW1 9932   4.537   7.988   3.807  0.9346  0.1191  1.0132
 1280SOL    HW2 9933   4.425   7.915   3.878  0.9622 -1.1588 -0.2144
 1281SOL     OW 9934   1.441   8.680   8.971  0.0293  0.7368  0.0174
 1281SOL    HW1 9935   1.431   8.618   9.043 -1.3406  1.8511  0.8182
 1281SOL    HW2 9936   1.367   8.739   8.979  0.9684  2.1261 -1.0983
 1282SOL     OW 9937   6.012   3.549   8.535  0.0150  0.4803  0.1392
 1282SOL    HW1 9938   5.956   3.482   8.574 -0.5236  0.8567  0.0199
 1282SOL    HW2 9939   5.976   3.632   8.567 -1.0993  0.8713 -1.9649
 1283SOL     OW 9940   2.962   8.034   6.994 -0.3068  0.6498  0.8414
 1283SOL    HW1 9941   3.047   7.990   7.004 -0.0503  1.2036  1.1355
 1283SOL    HW2 9942   2.928   8.001   6.911  0.8467  1.4922 -0.0062
 1284SOL     OW 9943   2.124   2.629   6.122  0.0986 -0.1796 -0.5492
 1284SOL    HW1 9944   2.219   2.621   6.123 -0.0061 -1.6452 -0.2497
 1284SOL    HW2 9945   2.093   2.547   6.083 -1.0447  0.2319 -0.5516
 1285SOL     OW 9946   4.295   6.244   8.380 -0.1762 -0.3574 -0.0362
 1285SOL    HW1 9947   4.217   6.268   8.330 -0.0795  0.6078  0.2709
 1285SOL    HW2 9948   4.320   6.324   8.426  1.3897 -0.4726 -0.6441
 1286SOL     OW 9949  10.682   9.376   1.570 -0.2180 -0.6410 -0.1097
 1286SOL    HW1 9950  10.620   9.308   1.595 -0.0088  0.4108  3.9621
 1286SOL    HW2 9951  10.766   9.345   1.604  0.6703 -0.0663 -1.6802
 1287SOL     OW 9952   8.373   9.291   8.138  0.2225  0.3447 -0.3594
 1287SOL    HW1 9953   8.465   9.265   8.143 -0.2331 -1.9602 -1.8935
 1287SOL    HW2 9954   8.373   9.369   8.083  1.2760  0.3801 -0.3256
 1288SOL     OW 9955   0.111   6.182   6.994  0.3998  0.1501 -0.0249
 1288SOL    HW1 9956   0.187   6.207   7.047  1.0025  0.4852 -1.0288
 1288SOL    HW2 9957   0.136   6.099   6.953 -0.6931 -0.9684  1.4488
 1289SOL     OW 9958   5.797   8.757   7.432  0.0764 -0.0306 -0.3078
 1289SOL    HW1 9959   5.747   8.800   7.363  1.6473  0.5951 -1.1029
 1289SOL    HW2 9960   5.860   8.823   7.460 -0.4865 -0.2975  1.7158
 1290SOL     OW 9961   8.636   9.632   2.168 -0.3713 -0.3451  0.2698
 1290SOL    HW1 9962   8.727   9.641   2.142 -0.6246  0.1678 -0.4549
 1290SOL    HW2 9963   8.599   9.720   2.158 -1.2429 -0.7925 -0.6197
 1291SOL     OW 9964   8.358   4.220  10.247  0.1573 -0.3195  0.1634
 1291SOL    HW1 9965   8.276   4.252  10.211  0.4224 -0.3767 -0.5011
 1291SOL    HW2 9966   8.405   4.184  10.172  0.0933 -1.8006  0.7930
 1292SOL     OW 9967  10.743   6.426   8.787 -0.2018 -0.5836  0.0566
 1292SOL    HW1 9968  10.665   6.375   8.765 -0.5669 -0.4447  1.0108
 1292SOL    HW2 9969  10.726   6.462   8.874  1.9066 -2.5928  1.4306
 1293SOL     OW 9970   8.433   0.192   4.346  0.7783  0.0453  0.2434
 1293SOL    HW1 9971   8.483   0.226   4.420  0.1550 -1.1274  1.2394
 1293SOL    HW2 9972   8.342   0.213   4.367  0.4767 -1.3379  0.4178
 1294SOL     OW 9973   9.503   5.871   6.038 -0.4948  0.1426  0.7519
 1294SOL    HW1 9974   9.540   5.930   5.973  0.8518 -0.5419  0.8560
 1294SOL    HW2 9975   9.439   5.924   6.085  0.0591  1.2678  0.2800
 1295SOL     OW 9976  10.448   5.147   7.245 -0.2031  0.1961  0.4746
 1295SOL    HW1 9977  10.524   5.155   7.186 -0.4828 -2.1106 -0.2892
 1295SOL    HW2 9978  10.397   5.227   7.229  0.6450  0.4608 -1.0926
 1296SOL     OW 9979   5.937   0.406   4.833  0.0898  0.9983  0.5064
 1296SOL    HW1 9980   5.879   0.331   4.847  0.0799  0.9378  0.1505
 1296SOL    HW2 9981   5.885   0.466   4.778 -0.5110  1.9805  2.0780
 1297SOL     OW 9982   4.064   6.115   7.292 -0.4298  0.1125 -0.0273
 1297SOL    HW1 9983   4.147   6.161   7.307 -0.7506  0.5157  0.5612
 1297SOL    HW2 9984   4.007   6.180   7.251 -0.6213  0.0015  0.0599
 1298SOL     OW 9985   7.752   7.573   3.921  0.0004  0.1599  0.0758
 1298SOL    HW1 9986   7.822   7.636   3.939 -1.1018  1.3983  0.1635
 1298SOL    HW2 9987   7.671   7.624   3.930 -1.0644 -1.7546  2.3321
 1299SOL     OW 9988   5.473   9.299   3.012  0.2107 -0.5612  0.4780
 1299SOL    HW1 9989   5.400   9.263   3.062  0.7601 -0.5124  1.3251
 1299SOL    HW2 9990   5.527   9.345   3.077  0.8925 -0.4319 -0.1631
 1300SOL     OW 9991   3.907   9.956  10.767  0.4708  0.4344  0.4801
 1300SOL    HW1 9992   3.885  10.007  10.844 -0.0747  0.1397  0.5225
 1300SOL    HW2 9993   3.994   9.920  10.786 -0.0527 -0.4292  1.3849
 1301SOL     OW 9994   7.496   9.711   9.338  0.0226  0.1669 -0.6209
 1301SOL    HW1 9995   7.474   9.803   9.319  1.3020  0.5095 -0.5363
 1301SOL    HW2 9996   7.527   9.713   9.429 -0.3239 -0.4216 -0.4899
 1302SOL     OW 9997   0.657   8.357   0.612 -0.3659 -0.2152 -0.0235
 1302SOL    HW1 9998   0.702   8.274   0.629  0.7121  0.4301  0.4353
 1302SOL    HW2 9999   0.728   8.422   0.611 -1.1970  0.7065 -0.2942
 1303SOL     OW10000   2.942   8.561   4.589 -0.6750 -0.6050  0.0728
 1303SOL    HW110001   2.929   8.644   4.633 -2.1837 -0.7149 -0.1197
 1303SOL    HW210002   2.965   8.500   4.658 -1.4667 -0.4395  0.4855
 1304SOL     OW10003   7.194   3.496   8.940 -0.6142  0.3859  0.2594
 1304SOL    HW110004   7.141   3.426   8.904  0.7247 -1.1186  1.0621
 1304SOL    HW210005   7.267   3.506   8.878 -0.9663  1.3294 -0.0245
 1305SOL     OW10006   6.188   7.171   0.965 -1.1196 -0.3315  0.0261
 1305SOL    HW110007   6.241   7.246   0.939 -0.3681 -0.6142  0.7197
 1305SOL    HW210008   6.099   7.195   0.940 -0.9871  1.0560  0.7909
 1306SOL     OW10009   3.335  10.663   0.373  0.2942 -0.0341  0.0017
 1306SOL    HW110010   3.405  10.678   0.437  1.3202 -0.4463 -0.9751
 1306SOL    HW210011   3.374  10.691   0.289 -0.9865  0.4331 -0.4562
 1307SOL     OW10012   7.315  10.253   3.890 -0.4601  0.1715  0.2905
 1307SOL    HW110013   7.297  10.166   3.854 -0.5314  0.0149  0.6997
 1307SOL    HW210014   7.322  10.309   3.814 -1.6582  0.0479  0.0722
 1308SOL     OW10015   2.973   5.321   4.600 -0.0964  0.0123  0.0075
 1308SOL    HW110016   2.935   5.294   4.684  0.6077 -0.1298  0.2891
 1308SOL    HW210017   2.960   5.246   4.542  0.1865 -0.2148  0.2396
 1309SOL     OW10018   2.326   4.574   6.171  0.0701 -0.1145  0.1939
 1309SOL    HW110019   2.235   4.594   6.148  0.5301  2.1825  0.1311
 1309SOL    HW210020   2.378   4.627   6.110  1.3586  2.4510  3.2143
 1310SOL     OW10021   7.253   0.319   6.532  0.0593  0.5290  0.1482
 1310SOL    HW110022   7.198   0.374   6.476 -1.1327  0.1880  0.9417
 1310SOL    HW210023   7.317   0.379   6.570 -1.0041  1.3350  0.7339
 1311SOL     OW10024   2.872  10.643   1.468  0.4483 -0.4058  0.1698
 1311SOL    HW110025   2.835  10.557   1.489  0.0535 -0.8649 -2.1155
 1311SOL    HW210026   2.797  10.702   1.469  0.2944 -0.5771 -0.6244
 1312SOL     OW10027   9.764   3.543   0.708 -0.3274 -0.1164 -0.0127
 1312SOL    HW110028   9.678   3.500   0.702 -0.1332 -0.3486 -1.3979
 1312SOL    HW210029   9.796   3.520   0.795 -1.8130  0.2669  0.6686
 1313SOL     OW10030   5.065   6.542   7.832  0.1123  0.2038 -0.1301
 1313SOL    HW110031   4.979   6.573   7.860  0.0246 -0.6449  0.5816
 1313SOL    HW210032   5.077   6.459   7.879  1.8729  0.9435  0.8148
 1314SOL     OW10033   1.951   6.069   8.216 -0.3067  0.0944  0.0068
 1314SOL    HW110034   2.013   6.028   8.155 -0.8880 -0.7843 -0.0076
 1314SOL    HW210035   1.962   6.020   8.298  0.2815  1.0954  0.5516
 1315SOL     OW10036   2.504   5.700   5.173 -0.4057  0.1986 -0.5912
 1315SOL    HW110037   2.429   5.706   5.233 -0.8024  2.3978 -1.2434
 1315SOL    HW210038   2.477   5.635   5.108 -1.4709  0.4599 -0.4314
 1316SOL     OW10039   1.048   6.981   9.406  0.3403 -0.3516 -0.0319
 1316SOL    HW110040   1.039   7.076   9.408 -1.3883 -0.3639 -2.5746
 1316SOL    HW210041   1.141   6.966   9.391  0.6668  0.9086  0.5966
 1317SOL     OW10042   2.954   0.952   3.742 -0.0843 -0.7424 -0.0794
 1317SOL    HW110043   3.023   0.886   3.750  0.9823  0.5325  1.9197
 1317SOL    HW210044   3.000   1.035   3.733 -1.3997 -0.1654 -2.4674
 1318SOL     OW10045  10.686   4.045   8.543  0.2073 -0.7130 -0.4568
 1318SOL    HW110046  10.618   4.011   8.485  0.2965 -1.6747 -0.0142
 1318SOL    HW210047  10.727   3.967   8.581  0.4773 -0.1114  0.5309
 1319SOL     OW10048   8.614   0.888  10.679  0.5918 -0.3115  0.1936
 1319SOL    HW110049   8.623   0.970  10.631 -1.0540 -1.0397 -1.4967
 1319SOL    HW210050   8.668   0.899  10.756  1.2097  1.9716 -0.4957
 1320SOL     OW10051   8.232   6.380   1.428  0.1525  0.7966 -0.4445
 1320SOL    HW110052   8.169   6.412   1.493  0.1795  0.2503 -0.1517
 1320SOL    HW210053   8.271   6.303   1.467 -1.2425 -0.7259 -1.8812
 1321SOL     OW10054   3.557   7.990   1.787  0.4255  0.1359  0.2922
 1321SOL    HW110055   3.524   7.932   1.855  3.1407 -1.5521  0.3291
 1321SOL    HW210056   3.540   7.943   1.705  2.6168 -0.8292  0.3216
 1322SOL     OW10057   4.130   1.546   7.999  0.2463  0.3304 -0.6981
 1322SOL    HW110058   4.121   1.607   7.927  0.8257 -0.9834 -1.9340
 1322SOL    HW210059   4.077   1.471   7.975  0.8165 -0.3264  0.0156
 1323SOL     OW10060   4.443   6.733   3.101 -0.1548  0.2178  0.4454
 1323SOL    HW110061   4.527   6.744   3.147 -0.1816 -1.0097  0.8275
 1323SOL    HW210062   4.405   6.654   3.140 -2.1937  1.5527  1.3297
 1324SOL     OW10063   0.510   1.775   2.748 -0.3710  0.1463 -0.1570
 1324SOL    HW110064   0.448   1.848   2.750 -0.5435 -0.0040  0.0026
 1324SOL    HW210065   0.560   1.788   2.667 -0.1516  0.6480  0.0569
 1325SOL     OW10066   0.934   8.349   1.932  0.4409  0.2206  0.3049
 1325SOL    HW110067   1.011   8.403   1.948 -0.0738  1.3648 -0.8949
 1325SOL    HW210068   0.969   8.261   1.916  1.3357  0.3129  1.6102
 1326SOL     OW10069  10.683   3.396   7.614  0.0735  0.2108  0.2258
 1326SOL    HW110070  10.770   3.428   7.590  0.0600 -1.1684 -1.9131
 1326SOL    HW210071  10.631   3.476   7.626  1.4429  1.0439  0.9103
 1327SOL     OW10072  10.841   4.897   9.440 -0.3220  0.2565 -0.0340
 1327SOL    HW110073  10.777   4.866   9.505 -1.1023  0.2316 -0.7848
 1327SOL    HW210074  10.792   4.897   9.357  1.1130 -1.3897 -0.9471
 1328SOL     OW10075   8.464   3.723   9.232  0.0514 -0.5006 -0.1241
 1328SOL    HW110076   8.408   3.796   9.261  0.9987 -0.2180  1.1265
 1328SOL    HW210077   8.423   3.691   9.152 -0.7003  1.0632 -0.4030
 1329SOL     OW10078   2.373   5.127   5.089  0.1930 -0.1797  0.4706
 1329SOL    HW110079   2.280   5.125   5.067  0.4107  1.6935 -0.7664
 1329SOL    HW210080   2.375   5.137   5.184 -0.8694  0.4291  0.4366
 1330SOL     OW10081   6.913   7.237   2.329 -0.0504 -0.4481  0.5312
 1330SOL    HW110082   6.819   7.253   2.329 -0.0894 -0.5683  2.0121
 1330SOL    HW210083   6.922   7.147   2.361  0.6381  0.3408  2.7103
 1331SOL     OW10084   7.257   2.373   7.224  0.1801  0.1475 -0.0819
 1331SOL    HW110085   7.163   2.368   7.207 -0.1075  3.8072 -0.3324
 1331SOL    HW210086   7.266   2.350   7.317 -1.2392  1.3583  0.3962
 1332SOL     OW10087   9.602   4.759   7.855 -0.1009  0.1669 -0.0213
 1332SOL    HW110088   9.666   4.755   7.784  0.1341  1.0022  0.1328
 1332SOL    HW210089   9.582   4.852   7.865 -1.6483 -0.1093 -0.3161
 1333SOL     OW10090   3.029   9.978   8.719 -0.2441 -0.0573  0.4178
 1333SOL    HW110091   3.093  10.049   8.730  1.0978 -1.1053 -0.3555
 1333SOL    HW210092   2.990   9.968   8.806  0.8808  0.3994  0.9978
 1334SOL     OW10093   1.773  10.757   6.068  0.5368  0.4017  0.1593
 1334SOL    HW110094   1.703  10.758   6.002 -0.1459  0.9594  0.8705
 1334SOL    HW210095   1.742  10.694   6.134  1.0776  0.0679  0.1011
 1335SOL     OW10096   5.209   1.812   7.814 -0.2243  0.2273 -0.2532
 1335SOL    HW110097   5.198   1.891   7.761 -0.6143 -1.4105 -2.7632
 1335SOL    HW210098   5.236   1.845   7.900 -0.2036  3.0582 -1.2328
 1336SOL     OW10099   5.005   1.505   6.130 -0.4247 -0.1426  0.3999
 1336SOL    HW110100   4.953   1.575   6.090 -1.1746 -0.9107 -0.0086
 1336SOL    HW210101   5.073   1.486   6.065 -0.1504  0.2718  0.5596
 1337SOL     OW10102   0.391  10.796   5.489 -0.2570  0.5292 -0.0415
 1337SOL    HW110103   0.377  10.857   5.561  1.9659  0.3728  0.5966
 1337SOL    HW210104   0.418  10.852   5.416 -2.4801  0.6856 -0.8329
 1338SOL     OW10105   5.425   9.495   2.239  0.0252 -0.5376 -0.1600
 1338SOL    HW110106   5.392   9.579   2.205  0.2607 -0.3170  0.1528
 1338SOL    HW210107   5.477   9.519   2.316 -1.4493 -1.1300  1.0600
 1339SOL     OW10108   7.967   1.130   2.059  0.2876  0.0371 -0.5666
 1339SOL    HW110109   8.009   1.055   2.017 -1.0109 -1.0385  0.0020
 1339SOL    HW210110   8.008   1.135   2.146  0.6421  0.2258 -0.7437
 1340SOL     OW10111   8.544   4.054   0.811 -0.1358  0.6635 -0.0231
 1340SOL    HW110112   8.538   3.999   0.889  1.2574  0.9219  0.2799
 1340SOL    HW210113   8.633   4.041   0.779 -0.2626  1.6155 -0.7969
 1341SOL     OW10114   0.105   8.491   1.203 -0.3066  0.0268  0.2750
 1341SOL    HW110115   0.066   8.469   1.287 -0.3449 -0.0932  0.2263
 1341SOL    HW210116   0.121   8.585   1.207 -0.8091  0.1177  0.2087
 1342SOL     OW10117  10.510   5.089   8.718  1.0259 -0.0647 -0.2144
 1342SOL    HW110118  10.451   5.102   8.792  0.2619  0.7527 -0.9458
 1342SOL    HW210119  10.596   5.073   8.758  0.9594  1.9943  0.8435
 1343SOL     OW10120   9.137   3.094   6.238  1.0608  0.2913 -0.4000
 1343SOL    HW110121   9.171   3.038   6.168 -1.1332  0.2468 -1.4982
 1343SOL    HW210122   9.043   3.102   6.220  0.4851  0.6702  2.2726
 1344SOL     OW10123   4.360   2.777   1.172 -0.4755 -0.4252 -0.2755
 1344SOL    HW110124   4.429   2.826   1.216  0.1995 -0.7611 -0.9391
 1344SOL    HW210125   4.328   2.716   1.239  0.1258 -0.5212 -0.0689
 1345SOL     OW10126   5.749   1.624  10.296 -0.3606 -0.7171 -0.7147
 1345SOL    HW110127   5.690   1.642  10.368  0.8720 -1.0844  0.4317
 1345SOL    HW210128   5.711   1.670  10.221 -1.2131  0.3963  0.3643
 1346SOL     OW10129   1.728   2.100   7.118  0.7037  0.1277 -0.0574
 1346SOL    HW110130   1.777   2.131   7.042 -0.9231 -0.8311 -1.5886
 1346SOL    HW210131   1.717   2.006   7.103 -2.2609  0.4007 -0.2871
 1347SOL     OW10132  10.566   1.124   3.987 -0.4767  0.0812  0.1029
 1347SOL    HW110133  10.549   1.133   3.893 -1.4557 -0.4010  0.2189
 1347SOL    HW210134  10.515   1.048   4.013  1.1717 -0.8684  0.6992
 1348SOL     OW10135   6.621   3.615   1.200  0.3260 -0.1256  0.3039
 1348SOL    HW110136   6.636   3.594   1.108  0.4122  0.5039  0.1671
 1348SOL    HW210137   6.568   3.543   1.233  0.5234 -0.4902 -0.1718
 1349SOL     OW10138   0.540   9.307   6.318  0.1021  0.2568 -0.3429
 1349SOL    HW110139   0.597   9.383   6.315  0.3260  0.1597  1.0347
 1349SOL    HW210140   0.571   9.251   6.246  3.2716 -0.8361  1.6494
 1350SOL     OW10141   4.866   9.937   6.048 -0.0391 -0.5494  0.1937
 1350SOL    HW110142   4.905   9.849   6.051  0.9282 -0.1160  1.2106
 1350SOL    HW210143   4.783   9.928   6.094 -0.4864 -1.1618 -0.6956
 1351SOL     OW10144   0.027   1.267   1.833  0.3219  0.2753 -0.1101
 1351SOL    HW110145   0.024   1.207   1.908 -0.3263  0.1263 -0.2465
 1351SOL    HW210146  -0.049   1.242   1.780  1.8066 -0.8782 -1.7932
 1352SOL     OW10147   3.644   4.254   6.737 -0.6772 -0.1263 -0.6407
 1352SOL    HW110148   3.552   4.233   6.718 -1.0141 -0.5450  1.2507
 1352SOL    HW210149   3.693   4.178   6.707 -1.0093 -0.1783 -1.0643
 1353SOL     OW10150   4.298   6.140   7.754  0.0626 -0.0982  0.2498
 1353SOL    HW110151   4.380   6.105   7.788  0.8720  1.0453 -0.4274
 1353SOL    HW210152   4.321   6.228   7.724 -1.9609  1.3194  2.4181
 1354SOL     OW10153  10.567   7.486   9.648 -0.0994  0.0448 -0.2496
 1354SOL    HW110154  10.642   7.518   9.598 -0.2032 -1.2232 -1.2657
 1354SOL    HW210155  10.491   7.526   9.605 -0.0496  0.9957  0.5194
 1355SOL     OW10156   0.743   7.121   7.660  0.1127 -0.4095  0.1007
 1355SOL    HW110157   0.814   7.109   7.597  1.2867  0.3370  1.2286
 1355SOL    HW210158   0.770   7.196   7.712 -1.8541  0.3490  0.1317
 1356SOL     OW10159   2.356   3.343   5.742  0.0873  0.2068 -0.2812
 1356SOL    HW110160   2.348   3.249   5.759 -1.6663  0.4703  0.6201
 1356SOL    HW210161   2.390   3.380   5.824  2.7283  0.1622 -1.2911
 1357SOL     OW10162   7.331   2.776   1.685  0.0958  0.0747 -0.4610
 1357SOL    HW110163   7.262   2.833   1.651 -0.2338  0.3995  0.7134
 1357SOL    HW210164   7.373   2.827   1.753  0.2537 -0.8221  0.1336
 1358SOL     OW10165   3.086   6.313   5.869 -0.5572 -0.5968 -0.1417
 1358SOL    HW110166   3.173   6.307   5.829 -0.6344 -0.1899 -0.3874
 1358SOL    HW210167   3.101   6.303   5.963 -0.2337 -0.4579 -0.1777
 1359SOL     OW10168   7.351   3.511   6.406  0.1631  0.1957  0.1384
 1359SOL    HW110169   7.359   3.443   6.339 -0.3865  0.3230 -0.0651
 1359SOL    HW210170   7.440   3.541   6.420  0.5072 -1.0464  0.7312
 1360SOL     OW10171   2.388   9.436   5.314 -0.1597  0.1146 -0.2728
 1360SOL    HW110172   2.474   9.473   5.294  0.4187 -0.9608  0.1230
 1360SOL    HW210173   2.359   9.484   5.392 -0.4520  1.2704 -1.0724
 1361SOL     OW10174   1.036   7.170   9.132  0.5072  0.1139  0.3924
 1361SOL    HW110175   1.126   7.200   9.117  0.0711  0.5873 -1.7104
 1361SOL    HW210176   0.982   7.233   9.084 -0.7682 -1.4320 -0.2988
 1362SOL     OW10177   2.987   3.529   1.459 -0.1434  0.0169  0.7727
 1362SOL    HW110178   2.936   3.475   1.521 -0.7702 -1.9002 -1.2804
 1362SOL    HW210179   2.926   3.596   1.430  0.4253  1.5141  2.8111
 1363SOL     OW10180   4.340   9.817   8.399  0.1979 -0.2421  0.1963
 1363SOL    HW110181   4.364   9.756   8.468  0.9672  0.7674  0.8509
 1363SOL    HW210182   4.267   9.774   8.353 -1.0374 -0.4858  2.2614
 1364SOL     OW10183   2.980   1.566   8.559 -0.7352 -0.7805  0.2134
 1364SOL    HW110184   3.002   1.631   8.493 -0.2401 -2.0946 -0.9717
 1364SOL    HW210185   2.956   1.617   8.637  0.2366  0.7845 -0.4690
 1365SOL     OW10186   5.170   0.239   4.198  0.4624  0.3822  0.4117
 1365SOL    HW110187   5.141   0.295   4.127  1.8465 -0.0356 -0.5084
 1365SOL    HW210188   5.089   0.213   4.242 -0.4963  0.0864 -1.4253
 1366SOL     OW10189   6.779   9.722  10.073  0.2436 -0.1585  0.2738
 1366SOL    HW110190   6.763   9.716   9.978 -0.9527  1.9119  0.2784
 1366SOL    HW210191   6.732   9.648  10.110 -1.9213  0.7229 -0.5370
 1367SOL     OW10192   1.412   6.898  10.446 -0.6220  0.0645 -0.3712
 1367SOL    HW110193   1.485   6.903  10.507 -1.3770 -0.7343  0.6126
 1367SOL    HW210194   1.439   6.832  10.382  0.1178  0.8196 -0.8690
 1368SOL     OW10195   8.785   7.247  10.307 -0.6134 -0.1401  0.0613
 1368SOL    HW110196   8.867   7.276  10.267 -2.4089  2.7833 -1.8830
 1368SOL    HW210197   8.732   7.215  10.234 -1.7140 -0.7600  1.0895
 1369SOL     OW10198   1.125   4.586   1.100  0.1635 -0.3619 -0.6109
 1369SOL    HW110199   1.141   4.664   1.047  2.6144 -0.0273  0.4828
 1369SOL    HW210200   1.201   4.580   1.157 -1.2247 -2.0916  1.1915
 1370SOL     OW10201   1.355   9.883   7.959 -0.1496  0.1444 -0.4048
 1370SOL    HW110202   1.285   9.900   8.022  0.4609  2.1463 -0.2064
 1370SOL    HW210203   1.419   9.832   8.008 -0.8030 -0.4705 -0.1663
 1371SOL     OW10204  10.202   1.498   4.048 -0.4795  0.1881  0.3152
 1371SOL    HW110205  10.138   1.559   4.084  0.5650  1.1152  0.6542
 1371SOL    HW210206  10.174   1.412   4.081 -0.5518  0.7955  1.9393
 1372SOL     OW10207   8.884   9.265   3.945 -0.1866  0.2336  0.3117
 1372SOL    HW110208   8.835   9.307   3.875 -0.7346  0.6789  0.9418
 1372SOL    HW210209   8.830   9.190   3.970 -0.1930  0.3021  0.5100
 1373SOL     OW10210   7.983  10.415   8.140 -0.2468  0.0679  0.0311
 1373SOL    HW110211   8.020  10.346   8.085  0.2922  0.7526 -0.4883
 1373SOL    HW210212   7.933  10.369   8.207 -0.5462 -0.7967 -0.7777
 1374SOL     OW10213   2.017  10.139   3.285 -0.4404 -0.1476  0.4556
 1374SOL    HW110214   2.056  10.185   3.211 -1.0517 -0.1646  0.1180
 1374SOL    HW210215   2.053  10.051   3.281  1.4962  0.5293  1.6667
 1375SOL     OW10216   5.352   4.601   8.158  0.0470 -0.6795 -0.2878
 1375SOL    HW110217   5.330   4.530   8.219 -0.5221  1.7950  2.6732
 1375SOL    HW210218   5.437   4.633   8.189 -0.4516  0.9130 -0.4682
 1376SOL     OW10219   3.602   9.307   3.006 -0.4273 -0.3193 -0.8731
 1376SOL    HW110220   3.574   9.329   3.095 -1.1227 -0.7053 -0.9897
 1376SOL    HW210221   3.628   9.215   3.011 -0.9006 -0.4708 -1.1660
 1377SOL     OW10222   6.108   0.591   6.557  0.3030 -0.2722  0.1017
 1377SOL    HW110223   6.132   0.680   6.533  2.4472 -1.1360 -1.2937
 1377SOL    HW210224   6.039   0.567   6.495 -0.0495  0.2842  0.2695
 1378SOL     OW10225   4.083   8.876   3.663 -0.0401  0.3895  0.2195
 1378SOL    HW110226   4.169   8.917   3.669  0.0478  0.1002  1.0281
 1378SOL    HW210227   4.027   8.943   3.624  0.3622  0.8786  0.4675
 1379SOL     OW10228   9.575   0.779   1.801 -0.6266 -0.5975  0.3379
 1379SOL    HW110229   9.596   0.802   1.710  0.1831 -0.1038  0.6463
 1379SOL    HW210230   9.547   0.861   1.841 -2.2480 -1.0511  0.2080
 1380SOL     OW10231   1.540   1.191   1.951 -0.3579 -0.2566  0.2188
 1380SOL    HW110232   1.611   1.254   1.960  0.6821 -0.8777 -2.5436
 1380SOL    HW210233   1.489   1.222   1.877 -0.1966 -2.2294 -0.8029
 1381SOL     OW10234   3.588   8.790  10.867 -0.3622 -0.5919  0.4917
 1381SOL    HW110235   3.496   8.763  10.868 -1.2894  2.2434  0.3347
 1381SOL    HW210236   3.615   8.789  10.959 -0.7729 -0.6780  0.6120
 1382SOL     OW10237   3.760   8.444   4.494  0.2145 -0.4521  0.1373
 1382SOL    HW110238   3.840   8.494   4.481 -0.3374 -0.1016 -2.4520
 1382SOL    HW210239   3.689   8.506   4.472 -0.5961 -1.6287 -0.6799
 1383SOL     OW10240   5.286   6.086   8.952 -0.9929 -0.0131  0.0280
 1383SOL    HW110241   5.201   6.067   8.992 -0.6375  2.1861  2.0306
 1383SOL    HW210242   5.314   6.167   8.993  2.0382 -0.5934 -0.6794
 1384SOL     OW10243   6.392   8.634   2.344 -0.0267  0.1514  0.1356
 1384SOL    HW110244   6.440   8.553   2.329  0.0081 -0.0908  1.4628
 1384SOL    HW210245   6.340   8.646   2.264  0.9465 -0.4728 -0.6161
 1385SOL     OW10246   1.099   4.825   5.538  0.1434 -0.0482  0.9089
 1385SOL    HW110247   1.055   4.786   5.613 -1.8105  0.9383  0.3366
 1385SOL    HW210248   1.166   4.761   5.513 -1.9856 -2.3861  0.8759
 1386SOL     OW10249   3.541   4.727   0.358 -0.1064  0.0659  0.1598
 1386SOL    HW110250   3.487   4.651   0.378  1.2920 -0.4181  2.5791
 1386SOL    HW210251   3.608   4.694   0.298 -1.2992  0.2094 -1.3089
 1387SOL     OW10252   2.077   9.261   6.289 -0.7048  0.2097  0.7661
 1387SOL    HW110253   2.087   9.275   6.383 -1.7421 -0.9441  1.0824
 1387SOL    HW210254   1.982   9.260   6.275 -0.6832 -2.6450  0.2558
 1388SOL     OW10255   3.445   2.538   8.384 -0.0580  0.0076  0.4989
 1388SOL    HW110256   3.431   2.565   8.475  0.0723  2.8204 -0.1969
 1388SOL    HW210257   3.535   2.567   8.365 -0.5826  0.8357 -0.9047
 1389SOL     OW10258   8.379  10.569   3.862  0.2769 -0.3191  0.1391
 1389SOL    HW110259   8.305  10.594   3.919  0.3539 -0.5397  0.3376
 1389SOL    HW210260   8.338  10.523   3.789  0.2794 -1.0904  0.6207
 1390SOL     OW10261   5.403   0.869   8.352  0.1346 -0.4103 -0.4051
 1390SOL    HW110262   5.472   0.918   8.307 -2.9435  2.2620 -2.6563
 1390SOL    HW210263   5.379   0.925   8.425 -1.5224  0.1578 -1.3429
 1391SOL     OW10264   7.730   2.692   0.034  0.0088  0.6974  0.3164
 1391SOL    HW110265   7.782   2.754  -0.015 -1.0614  1.1110 -0.3403
 1391SOL    HW210266   7.654   2.674  -0.022 -1.7272  1.8729  2.1493
 1392SOL     OW10267   5.294   0.477   8.610  0.0024 -0.0688 -0.4079
 1392SOL    HW110268   5.243   0.500   8.532  0.2106 -0.5867 -0.7080
 1392SOL    HW210269   5.241   0.505   8.683 -1.0308 -1.1879 -0.6959
 1393SOL     OW10270   6.343   6.400   1.239  1.1451 -0.1645 -0.1774
 1393SOL    HW110271   6.382   6.487   1.232 -0.3086  0.4361 -1.5389
 1393SOL    HW210272   6.365   6.356   1.157 -1.6709  0.5556 -1.4537
 1394SOL     OW10273   6.790   9.907   6.248 -0.1559 -0.1354 -0.6583
 1394SOL    HW110274   6.842   9.902   6.328 -0.3614 -1.7152 -0.5784
 1394SOL    HW210275   6.802   9.996   6.216  0.2816  0.3918  0.8932
 1395SOL     OW10276   8.093   7.559   0.717  0.2201 -0.1842 -0.6335
 1395SOL    HW110277   8.097   7.650   0.747 -0.0817 -0.3769 -0.0049
 1395SOL    HW210278   8.177   7.522   0.743  0.8219  0.2085 -1.9031
 1396SOL     OW10279   3.119   4.346   6.127 -0.6226 -0.4147  0.1241
 1396SOL    HW110280   3.180   4.349   6.053 -0.1929 -0.5342  0.4675
 1396SOL    HW210281   3.097   4.437   6.144  0.1635 -0.2879  0.5564
 1397SOL     OW10282   9.852   6.340   4.930  0.3287 -0.8031  0.1763
 1397SOL    HW110283   9.844   6.427   4.893 -0.9513 -0.7636  0.4883
 1397SOL    HW210284   9.939   6.338   4.970  0.0566  0.6121  0.8794
 1398SOL     OW10285   3.981   7.093   1.433  0.4853 -0.4232  0.4793
 1398SOL    HW110286   3.928   7.029   1.386  2.1616 -1.2853 -0.3340
 1398SOL    HW210287   4.058   7.044   1.461  1.9520  1.2593 -0.3959
 1399SOL     OW10288   6.257   5.984   8.559  0.2709  0.4344  0.1684
 1399SOL    HW110289   6.200   5.984   8.482 -0.1263  0.5390  0.4619
 1399SOL    HW210290   6.201   6.012   8.631  0.6996  0.5608  0.4567
 1400SOL     OW10291   4.205   3.273   2.168  0.0373  0.1569 -0.1616
 1400SOL    HW110292   4.184   3.229   2.250  0.6676  0.7391  0.3187
 1400SOL    HW210293   4.286   3.320   2.185 -0.1419  0.7770 -0.9335
 1401SOL     OW10294   7.361  10.475   6.989  0.3115  0.1780 -0.1075
 1401SOL    HW110295   7.416  10.432   6.923 -0.4494  0.2361 -0.8042
 1401SOL    HW210296   7.347  10.563   6.954  0.3435  0.3858  0.4031
 1402SOL     OW10297   2.990   5.166   4.817 -0.4585 -0.0433 -0.2541
 1402SOL    HW110298   3.071   5.132   4.777  0.3629  0.3190  1.0205
 1402SOL    HW210299   3.001   5.148   4.911 -1.3170  1.1064  0.0861
 1403SOL     OW10300   0.032  10.673   6.244  0.4611 -0.3446 -0.8092
 1403SOL    HW110301  -0.048  10.721   6.266  0.7261  0.9727 -2.5581
 1403SOL    HW210302   0.048  10.617   6.321 -1.7457 -0.1625 -0.1457
 1404SOL     OW10303   7.211   7.233   0.200  0.6993  0.4984  0.0784
 1404SOL    HW110304   7.169   7.210   0.283 -1.0318 -0.7960 -1.0907
 1404SOL    HW210305   7.193   7.326   0.190 -0.2456  0.3828  0.5412
 1405SOL     OW10306   6.720   3.005   9.392 -0.2851 -0.0647  0.5797
 1405SOL    HW110307   6.663   3.076   9.421 -1.6594 -0.9041  0.0461
 1405SOL    HW210308   6.719   2.943   9.466 -0.2883 -0.2013  0.4654
 1406SOL     OW10309   1.948   7.922   2.849  0.6143  0.0842 -0.2169
 1406SOL    HW110310   1.853   7.914   2.841  0.6327 -0.3249 -0.0248
 1406SOL    HW210311   1.961   7.997   2.907  0.3878 -0.5043  0.6021
 1407SOL     OW10312   5.537   0.578   7.802  0.5952  0.1888  0.3214
 1407SOL    HW110313   5.545   0.594   7.708 -1.3724  1.4913  0.3259
 1407SOL    HW210314   5.524   0.483   7.808 -0.2772  0.1991 -0.8386
 1408SOL     OW10315   5.812   5.321   1.878  0.1090 -0.2669 -0.1985
 1408SOL    HW110316   5.730   5.326   1.926 -0.2287  0.0459 -0.7984
 1408SOL    HW210317   5.830   5.227   1.871 -0.2942 -0.3406 -0.2351
 1409SOL     OW10318   5.061   6.514   3.124 -0.1469  0.1773 -0.0673
 1409SOL    HW110319   5.079   6.488   3.034  2.0449  1.0956  0.0441
 1409SOL    HW210320   5.147   6.538   3.159 -1.3679  3.0714  1.2157
 1410SOL     OW10321   7.418   0.819   5.267  0.3959 -0.3390  0.3686
 1410SOL    HW110322   7.346   0.878   5.246 -0.0918 -1.4767 -1.4369
 1410SOL    HW210323   7.415   0.810   5.362 -0.5255  1.2351  0.5301
 1411SOL     OW10324   0.728   4.491   8.024  0.7131  0.2482 -0.0059
 1411SOL    HW110325   0.693   4.422   7.969  0.5339 -0.5274  1.0491
 1411SOL    HW210326   0.787   4.541   7.966  0.6360 -0.6161 -0.8470
 1412SOL     OW10327   9.228   7.047   7.443  0.3748 -0.3916 -0.0381
 1412SOL    HW110328   9.194   7.122   7.395 -0.5617 -0.2676  0.7894
 1412SOL    HW210329   9.305   7.080   7.488  0.4538 -0.1506 -0.3495
 1413SOL     OW10330   2.911   8.002  10.552 -0.0186 -0.3944 -0.7378
 1413SOL    HW110331   2.967   8.072  10.519 -1.4720  1.3289  0.2470
 1413SOL    HW210332   2.929   7.928  10.495  0.7774  1.1025 -2.5495
 1414SOL     OW10333   6.899   7.706   7.517  0.2299 -0.2543 -0.0073
 1414SOL    HW110334   6.926   7.615   7.503 -1.6215 -0.8045 -0.3049
 1414SOL    HW210335   6.855   7.730   7.435  0.0567  0.6590  0.3507
 1415SOL     OW10336   9.894   6.645   5.680 -0.0367  0.4667  0.1207
 1415SOL    HW110337   9.915   6.560   5.641 -0.0258  0.9335 -0.9176
 1415SOL    HW210338   9.963   6.703   5.648  0.1134  0.8150  1.0474
 1416SOL     OW10339   3.573   7.897   4.915  0.5775 -0.1089  0.3391
 1416SOL    HW110340   3.648   7.943   4.953 -0.1621 -1.0167  3.0987
 1416SOL    HW210341   3.553   7.947   4.836  2.5143  1.6478  0.8593
 1417SOL     OW10342   1.266   5.509   9.489  0.2527 -0.7843  0.2005
 1417SOL    HW110343   1.310   5.478   9.410 -0.2196  0.3649 -0.5341
 1417SOL    HW210344   1.253   5.430   9.542  0.6924 -1.5461 -0.8039
 1418SOL     OW10345   4.107   5.500   8.224  1.0119  0.1229  0.3395
 1418SOL    HW110346   4.158   5.419   8.227  2.1298  0.7486 -0.6876
 1418SOL    HW210347   4.043   5.485   8.154  0.9748  0.0060  0.3966
 1419SOL     OW10348   7.288   1.474  10.689 -0.4792 -0.2212 -0.6546
 1419SOL    HW110349   7.212   1.417  10.684 -0.1734 -0.6606 -0.3517
 1419SOL    HW210350   7.352   1.425  10.740 -0.4194  0.6206  0.1099
 1420SOL     OW10351   3.597   4.190   7.041  0.0663 -0.5759 -0.1789
 1420SOL    HW110352   3.619   4.262   6.982 -0.6920  0.3840  0.6769
 1420SOL    HW210353   3.534   4.137   6.992 -0.7300  0.3388 -0.1821
 1421SOL     OW10354   3.128  10.235   4.315 -0.8620 -0.3460  0.3266
 1421SOL    HW110355   3.135  10.324   4.280  0.3820  0.0907  1.6016
 1421SOL    HW210356   3.104  10.247   4.407  1.2207 -1.1951  1.0458
 1422SOL     OW10357   9.161   5.007   3.552  0.0613 -0.0113  0.1710
 1422SOL    HW110358   9.093   5.005   3.619  0.3798  0.9072  0.5403
 1422SOL    HW210359   9.228   5.066   3.587  1.4219 -1.4708  0.1415
 1423SOL     OW10360   1.787   1.764   8.422  0.5643 -0.0799  0.0665
 1423SOL    HW110361   1.827   1.834   8.472 -0.0226 -0.9720  1.8827
 1423SOL    HW210362   1.858   1.729   8.368  1.1508  1.0745  0.0570
 1424SOL     OW10363   6.012   0.615   7.583 -0.8941 -0.0958  0.2807
 1424SOL    HW110364   5.941   0.617   7.648 -2.0786 -0.2619 -0.9703
 1424SOL    HW210365   6.008   0.699   7.539  0.1875  0.1850  0.6914
 1425SOL     OW10366   5.924   7.238   4.507 -0.4667  0.0446  0.7827
 1425SOL    HW110367   5.949   7.164   4.452 -0.3176  1.3932 -1.0642
 1425SOL    HW210368   5.855   7.282   4.457  0.3984  1.9165  1.1618
 1426SOL     OW10369   6.142   7.411   1.469 -0.8022  0.4554 -0.6269
 1426SOL    HW110370   6.127   7.418   1.563  1.9689  1.5728 -0.1738
 1426SOL    HW210371   6.192   7.330   1.458  0.6012  1.3287 -0.8490
 1427SOL     OW10372   5.349   1.232   6.958  0.3189 -0.4111  0.0899
 1427SOL    HW110373   5.339   1.239   6.863  1.9361  4.5513  0.0007
 1427SOL    HW210374   5.438   1.199   6.971  1.3772  2.0348 -0.3602
 1428SOL     OW10375   2.151   4.031   5.424 -0.2508 -0.2065 -0.4993
 1428SOL    HW110376   2.086   4.079   5.373 -0.4968  0.4365  0.4125
 1428SOL    HW210377   2.178   3.960   5.366 -1.4951 -0.2714 -1.0331
 1429SOL     OW10378   2.835   1.448   0.610 -0.6309 -0.4947 -0.0427
 1429SOL    HW110379   2.894   1.426   0.538  0.5366 -0.7364  0.9529
 1429SOL    HW210380   2.783   1.369   0.623 -0.7785 -0.4831 -0.5611
 1430SOL     OW10381   1.727   7.295   5.915 -0.1290 -0.0262  0.1757
 1430SOL    HW110382   1.813   7.335   5.906 -1.2213  2.1655 -1.4968
 1430SOL    HW210383   1.723   7.232   5.843 -0.1753  0.4193 -0.2199
 1431SOL     OW10384   5.353  10.286   2.236 -0.2721  0.2963 -0.6676
 1431SOL    HW110385   5.430  10.312   2.287 -0.4663  1.1184 -0.7741
 1431SOL    HW210386   5.313  10.216   2.288  1.2057 -1.0199 -1.2082
 1432SOL     OW10387   3.129   4.503   4.143 -0.1227 -0.4720 -0.2727
 1432SOL    HW110388   3.035   4.490   4.157 -0.0492  0.6263  1.7583
 1432SOL    HW210389   3.169   4.421   4.172 -0.4074 -0.5437 -0.0719
 1433SOL     OW10390   9.238   3.732   8.024 -0.2976  0.5059  0.1303
 1433SOL    HW110391   9.235   3.820   8.062 -1.4724  0.5189  0.0671
 1433SOL    HW210392   9.296   3.741   7.948 -1.1834  1.5024 -0.4739
 1434SOL     OW10393   3.939   2.287   9.140  0.6696 -0.2330 -0.3809
 1434SOL    HW110394   4.031   2.313   9.134  0.0359  2.1958 -0.3833
 1434SOL    HW210395   3.922   2.244   9.056  0.7352  3.2700 -2.3908
 1435SOL     OW10396   0.931   3.285   6.458  0.5393 -0.2278 -0.2470
 1435SOL    HW110397   0.961   3.369   6.424 -0.7526  0.0415 -0.7698
 1435SOL    HW210398   0.866   3.309   6.524 -1.4992 -0.7880 -1.9509
 1436SOL     OW10399   1.939  10.023   7.310  0.5158  0.1490  0.4913
 1436SOL    HW110400   2.015  10.076   7.284  0.1012  0.2708 -0.5283
 1436SOL    HW210401   1.868  10.086   7.320  0.2089 -0.1219  0.0488
 1437SOL     OW10402   5.642   0.298   9.713 -0.3702 -0.1505 -0.6184
 1437SOL    HW110403   5.686   0.220   9.747  0.5040  1.0976  1.3096
 1437SOL    HW210404   5.700   0.331   9.645  0.2385 -0.1346 -0.1014
 1438SOL     OW10405   7.537  10.286   5.930  0.0153  0.0100  0.4572
 1438SOL    HW110406   7.475  10.289   6.003 -0.0441 -2.9492  0.6603
 1438SOL    HW210407   7.623  10.279   5.972 -0.1163 -3.2877  0.4222
 1439SOL     OW10408   0.706   3.414   6.582  0.1976  0.2927 -0.1874
 1439SOL    HW110409   0.786   3.460   6.605 -0.2644  1.2056 -0.3648
 1439SOL    HW210410   0.662   3.400   6.666  0.2751  0.2805 -0.1485
 1440SOL     OW10411  10.154  10.644   7.064  0.0208  0.8451  0.0786
 1440SOL    HW110412  10.132  10.735   7.086 -4.4218 -0.0522  0.2450
 1440SOL    HW210413  10.167  10.645   6.969 -1.2160  1.5087 -0.1029
 1441SOL     OW10414   6.192   3.286   2.964  0.1508 -0.0677 -0.0964
 1441SOL    HW110415   6.223   3.207   3.008 -0.3890 -0.1729  0.1074
 1441SOL    HW210416   6.271   3.328   2.930  0.4454 -0.6577 -0.1444
 1442SOL     OW10417   2.559   4.901   8.752 -0.4488 -0.1443  0.6619
 1442SOL    HW110418   2.628   4.904   8.685 -1.4538 -0.6624 -0.4372
 1442SOL    HW210419   2.495   4.838   8.718 -1.0507 -0.3349  2.0736
 1443SOL     OW10420   3.945   1.330   2.441  0.2288 -0.5525  0.0177
 1443SOL    HW110421   3.943   1.237   2.465  0.3141 -1.0581 -1.8078
 1443SOL    HW210422   3.874   1.340   2.378  0.6068  0.4893 -0.2603
 1444SOL     OW10423   6.269   1.579  10.509  0.0587 -0.2488 -0.3611
 1444SOL    HW110424   6.204   1.508  10.507  1.8379 -2.0292  1.1894
 1444SOL    HW210425   6.344   1.542  10.554  1.1761  2.6082  0.3548
 1445SOL     OW10426   4.836   9.245   0.338  0.1678  0.6132  0.1496
 1445SOL    HW110427   4.809   9.276   0.424 -0.0042 -0.8754  0.6622
 1445SOL    HW210428   4.767   9.185   0.312  1.6303 -1.2185  0.3071
 1446SOL     OW10429   0.738   9.874   9.205 -0.2454 -0.3345 -0.2765
 1446SOL    HW110430   0.709   9.803   9.262 -1.0698 -0.2935 -0.6261
 1446SOL    HW210431   0.832   9.881   9.220 -0.3760 -0.6263  0.7336
 1447SOL     OW10432  10.301   5.244   6.971 -0.1056  0.2244 -0.6249
 1447SOL    HW110433  10.232   5.258   6.906 -0.8737 -0.2081  0.0851
 1447SOL    HW210434  10.264   5.182   7.033  0.8795  0.0880 -0.1486
 1448SOL     OW10435  10.911   4.116   9.318  0.4016  0.2154 -0.3492
 1448SOL    HW110436  10.974   4.187   9.311  1.9375 -0.6660  2.6651
 1448SOL    HW210437  10.870   4.128   9.404  3.0020 -4.0321  1.8313
 1449SOL     OW10438  10.788  10.566   8.514 -0.0479  0.5925  0.5267
 1449SOL    HW110439  10.794  10.617   8.433  0.0378 -0.0471  0.1321
 1449SOL    HW210440  10.839  10.616   8.578  1.3261  0.2120 -0.2550
 1450SOL     OW10441   7.250  10.049   5.559  0.0046 -0.0731 -0.1207
 1450SOL    HW110442   7.170   9.997   5.552  0.7502 -1.6672  2.0286
 1450SOL    HW210443   7.318   9.994   5.519  0.0826  1.3304 -2.0687
 1451SOL     OW10444   5.698   1.526   6.222 -0.2689 -0.2362  0.0751
 1451SOL    HW110445   5.712   1.460   6.156 -0.9125 -0.3477  0.0389
 1451SOL    HW210446   5.663   1.601   6.174  0.9323  0.3243  0.0398
 1452SOL     OW10447   3.407   0.352   7.537 -0.6609 -0.2371  0.1216
 1452SOL    HW110448   3.480   0.363   7.475  0.5544 -4.5902  0.4442
 1452SOL    HW210449   3.343   0.301   7.489 -2.1045  0.7643  0.9100
 1453SOL     OW10450   8.870   9.515   9.563  0.1871 -0.3127  0.0156
 1453SOL    HW110451   8.780   9.489   9.582  0.2801 -0.5573  0.1310
 1453SOL    HW210452   8.901   9.449   9.501  0.4522 -0.5300  0.3736
 1454SOL     OW10453   5.622   8.251   9.714  0.4329  0.2840  0.1005
 1454SOL    HW110454   5.611   8.342   9.687 -0.0393  0.3615  0.5352
 1454SOL    HW210455   5.674   8.211   9.644  0.4224  0.8205 -0.2196
 1455SOL     OW10456   7.512   2.025   1.307  0.0647 -0.2434  0.4468
 1455SOL    HW110457   7.467   2.107   1.290 -0.0051 -0.4421 -0.3583
 1455SOL    HW210458   7.454   1.977   1.366 -0.4567 -0.2160 -0.0454
 1456SOL     OW10459   7.384  10.365   1.867 -0.2187 -0.4755 -0.0826
 1456SOL    HW110460   7.306  10.318   1.896  0.0950 -1.1772 -0.3681
 1456SOL    HW210461   7.443  10.363   1.942 -0.4830  0.0950  0.1492
 1457SOL     OW10462  10.288   8.286   1.579 -0.0892  0.4495  0.3606
 1457SOL    HW110463  10.260   8.258   1.492  2.3900  0.2887 -0.4575
 1457SOL    HW210464  10.259   8.216   1.637 -2.4706  0.9257 -0.1507
 1458SOL     OW10465   2.707  10.604  10.850 -0.7884 -0.5340  0.2778
 1458SOL    HW110466   2.652  10.602  10.928 -3.4516 -0.1136 -1.4559
 1458SOL    HW210467   2.671  10.536  10.793  1.4512 -1.2355 -0.4488
 1459SOL     OW10468   8.370   8.826   6.497  0.1288 -0.2850 -0.2158
 1459SOL    HW110469   8.445   8.769   6.514  0.6565  0.7051  0.8776
 1459SOL    HW210470   8.404   8.915   6.506 -1.0412  0.1844 -0.2529
 1460SOL     OW10471   6.424   1.361   6.803  0.2414 -0.1312 -0.0625
 1460SOL    HW110472   6.347   1.313   6.773  0.6444 -1.0155  0.2648
 1460SOL    HW210473   6.411   1.371   6.897  0.5110 -0.2759 -0.0078
 1461SOL     OW10474  10.204   2.766   1.975  0.1111 -0.7409  0.5751
 1461SOL    HW110475  10.282   2.753   2.029  2.0188  0.6647 -1.6732
 1461SOL    HW210476  10.155   2.835   2.020  0.6574 -0.9241  1.4803
 1462SOL     OW10477   4.348   7.076  10.206  0.6336  0.4529 -0.5183
 1462SOL    HW110478   4.284   7.141  10.236 -2.0399 -2.1817 -0.1594
 1462SOL    HW210479   4.340   7.076  10.111 -0.0424 -0.0084 -0.4613
 1463SOL     OW10480   2.042   9.165   2.009  0.2009  0.4009 -0.1537
 1463SOL    HW110481   2.124   9.206   1.982  0.6019 -0.0307  0.3714
 1463SOL    HW210482   2.029   9.094   1.945  1.1335 -0.6038  0.7222
 1464SOL     OW10483   1.017   2.588  10.545 -0.4298  0.7322  0.4180
 1464SOL    HW110484   1.107   2.563  10.522 -0.8304 -0.3244 -0.0583
 1464SOL    HW210485   0.993   2.653  10.479  0.6121  2.4352  1.6427
 1465SOL     OW10486  10.928   8.022   1.690 -0.0269  0.1496 -0.4314
 1465SOL    HW110487  10.974   7.948   1.728  0.7969  1.6030  1.5819
 1465SOL    HW210488  10.854   8.039   1.748 -0.1614  0.9398 -0.8042
 1466SOL     OW10489   8.112  10.740   7.979 -0.2903 -0.3985  0.0396
 1466SOL    HW110490   8.036  10.781   8.020  0.0060 -0.5434  0.7395
 1466SOL    HW210491   8.119  10.655   8.022  0.5819 -0.1735  0.3566
 1467SOL     OW10492   3.048  10.610   6.200 -0.1541 -0.1464 -0.0679
 1467SOL    HW110493   3.009  10.523   6.210  0.6534 -0.4517  0.4977
 1467SOL    HW210494   2.973  10.668   6.187 -0.7012 -0.9291 -0.5419
 1468SOL     OW10495   8.928   0.287   1.999  0.2645 -0.2245 -0.0832
 1468SOL    HW110496   8.859   0.350   2.019  0.4295 -0.1916  0.4004
 1468SOL    HW210497   8.969   0.321   1.918 -0.3607 -0.3156 -0.4400
 1469SOL     OW10498   1.952   4.955   8.651  0.0819  0.0921  0.3527
 1469SOL    HW110499   2.046   4.970   8.650  0.1054 -0.0085  0.9288
 1469SOL    HW210500   1.918   5.014   8.584  0.7187 -1.0688 -1.0565
 1470SOL     OW10501   7.043   2.359   1.320  0.1975 -0.6559 -0.0426
 1470SOL    HW110502   7.033   2.419   1.246  0.4097  1.9293  1.8921
 1470SOL    HW210503   7.124   2.311   1.302  1.2298  1.2287 -0.6490
 1471SOL     OW10504   0.734   5.435  10.357 -0.0786 -0.2753  0.4077
 1471SOL    HW110505   0.710   5.527  10.355  0.5151 -0.1289 -0.3033
 1471SOL    HW210506   0.693   5.397  10.280  0.2915 -0.4515  0.2960
 1472SOL     OW10507   0.366   2.674   7.558  0.0569  0.1336  0.6078
 1472SOL    HW110508   0.411   2.743   7.606  1.9036  1.7916 -3.0331
 1472SOL    HW210509   0.423   2.658   7.482 -2.1009 -2.8976 -0.5520
 1473SOL     OW10510   9.450   2.842   6.479  0.1737 -0.7212 -0.0777
 1473SOL    HW110511   9.492   2.913   6.430 -3.0350  0.6683 -1.0269
 1473SOL    HW210512   9.442   2.876   6.568 -1.6114  0.3087 -0.5927
 1474SOL     OW10513   3.513   2.666   5.456 -0.9892  0.2135  0.4522
 1474SOL    HW110514   3.590   2.721   5.468 -1.3463  0.9454 -0.5086
 1474SOL    HW210515   3.448   2.723   5.415 -1.4979 -0.8234 -0.2275
 1475SOL     OW10516   4.583   6.139   9.327  0.0455  0.5710  0.1657
 1475SOL    HW110517   4.524   6.140   9.402  0.3314  1.3735  0.3856
 1475SOL    HW210518   4.664   6.177   9.359  0.1372  1.0278 -0.5807
 1476SOL     OW10519   8.091  10.155   3.455 -0.0480 -0.1286 -0.3268
 1476SOL    HW110520   8.144  10.084   3.420  0.8303  0.1879  0.3250
 1476SOL    HW210521   8.076  10.130   3.547  0.2403  0.5090 -0.1047
 1477SOL     OW10522   6.244   3.644   3.260  0.2800  0.1106  0.9132
 1477SOL    HW110523   6.175   3.593   3.218  0.4865 -0.0754  0.8006
 1477SOL    HW210524   6.249   3.609   3.349 -1.3651  1.6618  1.6877
 1478SOL     OW10525   1.615   5.929   9.552 -0.2131 -0.4157 -0.0562
 1478SOL    HW110526   1.596   5.859   9.491  1.2927  1.4905 -2.9657
 1478SOL    HW210527   1.702   5.908   9.587 -0.1534 -0.4395 -0.2201
 1479SOL     OW10528   7.254   5.936   2.906  0.2377 -0.0289  0.6517
 1479SOL    HW110529   7.232   6.028   2.920 -0.6590 -0.2890  1.0133
 1479SOL    HW210530   7.208   5.912   2.825 -2.0159 -0.9380  2.1228
 1480SOL     OW10531   6.171   7.504  10.783  0.3468 -0.0419 -0.0638
 1480SOL    HW110532   6.266   7.502  10.777  0.3826 -1.8765  0.4280
 1480SOL    HW210533   6.141   7.492  10.693  0.6440 -1.7316  0.0201
 1481SOL     OW10534   7.833   3.512  10.835  0.2362  0.2731 -0.4029
 1481SOL    HW110535   7.771   3.462  10.889  0.5044  0.9472  0.5702
 1481SOL    HW210536   7.917   3.470  10.850  0.4423  0.9238  0.3266
 1482SOL     OW10537   8.725   8.064   0.240  0.5032  0.5769  0.6729
 1482SOL    HW110538   8.635   8.031   0.241  0.5068  0.5797  1.2847
 1482SOL    HW210539   8.715   8.158   0.227  0.4256  0.5447  0.4967
 1483SOL     OW10540   0.776   3.912   8.866  0.4436  0.0949  0.2142
 1483SOL    HW110541   0.714   3.869   8.808 -0.3671  1.5527 -0.0590
 1483SOL    HW210542   0.721   3.953   8.933  1.3034 -0.8025  1.5042
 1484SOL     OW10543   5.545   7.396   6.868 -0.2515 -0.3030  0.0764
 1484SOL    HW110544   5.490   7.340   6.923 -1.7729  2.2619  1.3783
 1484SOL    HW210545   5.519   7.485   6.892  1.5970  0.9837 -2.3031
 1485SOL     OW10546   5.686   4.326  10.089  0.5070 -0.1563 -0.0073
 1485SOL    HW110547   5.639   4.401  10.051  0.2858  0.3592  1.2319
 1485SOL    HW210548   5.621   4.256  10.092 -0.7073  0.9380  2.9429
 1486SOL     OW10549   2.323   4.761   8.744  0.4918 -0.5152 -0.4351
 1486SOL    HW110550   2.262   4.835   8.743  2.5412  1.3362  1.1891
 1486SOL    HW210551   2.272   4.687   8.713 -2.4726  0.9774  0.5433
 1487SOL     OW10552   0.365   1.733   8.831 -0.3794  0.3381  0.4815
 1487SOL    HW110553   0.313   1.793   8.778 -0.2003  1.4225  1.4874
 1487SOL    HW210554   0.306   1.659   8.849 -0.9173  0.6470  0.0290
 1488SOL     OW10555   6.962   4.029   9.741 -0.1702  0.3228  0.2408
 1488SOL    HW110556   6.872   4.035   9.772 -0.0318 -1.5903  1.1118
 1488SOL    HW210557   6.962   3.957   9.678  0.5975  0.8416 -0.3760
 1489SOL     OW10558   8.110   7.685  10.885  0.1131 -0.2664  0.0610
 1489SOL    HW110559   8.026   7.729  10.874  0.2069  0.5033  2.0744
 1489SOL    HW210560   8.173   7.742  10.840  0.1060  1.2991  1.9117
 1490SOL     OW10561   8.273   2.605   0.927  0.3876 -0.4360 -0.0626
 1490SOL    HW110562   8.196   2.626   0.980  0.3894 -1.1103  0.2288
 1490SOL    HW210563   8.347   2.625   0.984  0.3800 -1.7377  0.4416
 1491SOL     OW10564   6.270   0.645   9.563  0.0106 -0.3051 -0.3444
 1491SOL    HW110565   6.338   0.713   9.560  0.3752 -0.6699 -3.0730
 1491SOL    HW210566   6.201   0.678   9.504 -2.4734  0.2251  2.6149
 1492SOL     OW10567   7.157   0.142  10.783  0.1132 -0.3265 -0.2767
 1492SOL    HW110568   7.116   0.117  10.866 -1.6940 -0.4622 -1.1633
 1492SOL    HW210569   7.097   0.110  10.716  0.7222  1.1969 -1.6110
 1493SOL     OW10570   1.126   8.305   4.190  0.3597 -0.2645 -0.0907
 1493SOL    HW110571   1.165   8.324   4.275  0.0162  0.7409 -0.1433
 1493SOL    HW210572   1.200   8.281   4.134  1.0665  2.2555 -0.3741
 1494SOL     OW10573   2.568   4.398   8.919 -0.4458 -0.2515  0.1626
 1494SOL    HW110574   2.654   4.409   8.960 -0.6225  1.5639  0.1101
 1494SOL    HW210575   2.585   4.348   8.840  0.4024 -0.8287  0.6942
 1495SOL     OW10576   8.865  10.637  10.166 -0.2341 -0.3994  0.2982
 1495SOL    HW110577   8.783  10.623  10.214 -1.6183  2.1020 -1.1165
 1495SOL    HW210578   8.879  10.731  10.170  1.5206 -0.5404 -1.2129
 1496SOL     OW10579   4.186  10.470   9.201  0.2050  0.1211  0.3432
 1496SOL    HW110580   4.152  10.518   9.276 -0.2645  1.4134 -0.6498
 1496SOL    HW210581   4.276  10.502   9.191  0.5051 -0.5604  0.7408
 1497SOL     OW10582  10.646   0.861   5.189 -0.1584  0.0709  0.0460
 1497SOL    HW110583  10.660   0.849   5.095  0.6489 -0.3054  0.2083
 1497SOL    HW210584  10.662   0.954   5.204 -1.6196  0.4241 -0.4018
 1498SOL     OW10585  10.357   8.546   9.658 -0.4536 -0.6261 -0.6245
 1498SOL    HW110586  10.321   8.465   9.622 -1.4135  0.1608 -1.5090
 1498SOL    HW210587  10.451   8.532   9.662 -0.5858 -1.6745 -1.0357
 1499SOL     OW10588  10.774   6.919   0.514 -0.2092 -0.1676  0.0213
 1499SOL    HW110589  10.679   6.916   0.500 -0.6229  0.5016  2.3187
 1499SOL    HW210590  10.788   6.996   0.568  2.1127  1.6806 -2.8988
 1500SOL     OW10591   2.040   5.745   1.994 -0.0222  0.1717  0.1918
 1500SOL    HW110592   2.116   5.737   1.937  0.6708 -0.0099  1.1185
 1500SOL    HW210593   2.069   5.711   2.078 -0.8324  0.9841  0.8290
 1501SOL     OW10594   3.751   7.101   6.520  0.0711 -0.5840 -0.4385
 1501SOL    HW110595   3.690   7.094   6.593 -1.0409 -1.9450 -1.4260
 1501SOL    HW210596   3.796   7.016   6.519  1.2863  0.0422 -0.3271
 1502SOL     OW10597   4.198   0.898   6.858 -0.2365  0.0409  0.3885
 1502SOL    HW110598   4.104   0.910   6.846 -0.3544 -0.2939  0.9633
 1502SOL    HW210599   4.232   0.882   6.770 -0.8778 -0.9067  0.3065
 1503SOL     OW10600   1.256   6.128   8.556 -0.5345 -1.1521  0.8181
 1503SOL    HW110601   1.326   6.094   8.501 -2.5528 -0.5246 -2.3634
 1503SOL    HW210602   1.176   6.091   8.520 -2.1864  1.1827  1.8369
 1504SOL     OW10603   0.040   0.806   5.087  0.3007 -0.5148  0.1551
 1504SOL    HW110604  -0.016   0.745   5.134 -0.0927 -0.5865 -0.4013
 1504SOL    HW210605  -0.016   0.842   5.019  0.8263 -0.3052 -0.1687
 1505SOL     OW10606   0.222   5.125   7.692 -0.3452 -0.6771 -0.0883
 1505SOL    HW110607   0.300   5.164   7.653 -0.1988 -0.0780  0.7731
 1505SOL    HW210608   0.149   5.171   7.651 -0.3039 -1.9261 -1.6343
 1506SOL     OW10609  10.265   6.730   6.444  0.1776  0.0220 -0.2310
 1506SOL    HW110610  10.331   6.661   6.444  0.0301 -0.1471 -1.4647
 1506SOL    HW210611  10.316   6.811   6.444  0.4296 -0.1074 -1.7768
 1507SOL     OW10612   6.434   2.264   8.669  0.0362  0.0089  0.3763
 1507SOL    HW110613   6.387   2.209   8.607 -0.8392 -0.7542  1.6636
 1507SOL    HW210614   6.444   2.348   8.625 -0.5558 -0.5122 -0.7812
 1508SOL     OW10615   8.887   1.694   0.764 -0.0406  0.6183 -0.1532
 1508SOL    HW110616   8.827   1.765   0.740 -1.1099 -0.7983 -1.9537
 1508SOL    HW210617   8.846   1.615   0.728  1.6936 -0.7609  0.7481
 1509SOL     OW10618   7.481   2.959   6.683 -0.0372 -0.5599 -0.0681
 1509SOL    HW110619   7.496   3.010   6.763  1.3459 -1.7085  0.4465
 1509SOL    HW210620   7.433   3.019   6.626 -0.3507  0.5700  1.3000
 1510SOL     OW10621   1.913   5.476   5.403  0.1314  0.1037  0.2909
 1510SOL    HW110622   1.983   5.421   5.438 -0.1083  1.1225  2.5613
 1510SOL    HW210623   1.914   5.554   5.459 -1.5535  1.0032 -0.8596
 1511SOL     OW10624   9.942  10.270   0.747  0.1411 -0.2703 -0.4056
 1511SOL    HW110625   9.909  10.341   0.691 -1.9257  0.8124  1.9659
 1511SOL    HW210626   9.904  10.190   0.709 -2.2074  0.5584  0.0398
 1512SOL     OW10627   4.595   4.572   7.490  0.9898 -0.2880  0.4354
 1512SOL    HW110628   4.650   4.502   7.525 -1.3880 -2.8273 -0.5386
 1512SOL    HW210629   4.609   4.646   7.549  1.5702 -2.4729  3.2312
 1513SOL     OW10630   0.319  10.144   4.067  0.3707 -0.5873 -0.0065
 1513SOL    HW110631   0.259  10.151   4.141 -1.7187  0.2820 -1.6565
 1513SOL    HW210632   0.281  10.075   4.012  1.6250 -0.9260 -0.4903
 1514SOL     OW10633  10.706   9.785   6.335  0.1716 -0.4439  0.3188
 1514SOL    HW110634  10.698   9.880   6.348  4.5925  0.1938 -0.0715
 1514SOL    HW210635  10.701   9.773   6.240 -1.1377 -0.7652  0.4104
 1515SOL     OW10636  10.477   5.137   7.681  0.1577  0.3494 -0.2510
 1515SOL    HW110637  10.535   5.179   7.743  0.8174 -0.5124 -0.2619
 1515SOL    HW210638  10.392   5.179   7.694  0.8932  2.0077 -0.6167
 1516SOL     OW10639   3.329   8.943   5.575  0.5511  0.0936  0.6249
 1516SOL    HW110640   3.362   8.990   5.498  0.7320  1.6435  1.6070
 1516SOL    HW210641   3.392   8.872   5.588 -0.4406 -1.3123 -1.6672
 1517SOL     OW10642   4.563   7.135   6.961  0.1153  0.2549  0.4861
 1517SOL    HW110643   4.561   7.039   6.963 -0.9006  0.2731  0.8646
 1517SOL    HW210644   4.482   7.162   7.005 -1.3163  1.2723 -2.4642
 1518SOL     OW10645   3.549   1.205   1.655  0.4898  0.0386 -0.2524
 1518SOL    HW110646   3.511   1.279   1.608  1.8639  0.8069 -0.2310
 1518SOL    HW210647   3.479   1.140   1.660 -0.9172  1.5226  0.1495
 1519SOL     OW10648  10.082   2.360   6.173 -0.2180 -0.5318 -0.0121
 1519SOL    HW110649  10.010   2.394   6.120 -0.0663  0.2520  0.2771
 1519SOL    HW210650  10.041   2.336   6.256 -0.2529 -0.6892 -0.0734
 1520SOL     OW10651   8.477   1.167   6.520 -0.0694  0.3756 -0.2118
 1520SOL    HW110652   8.414   1.225   6.563  0.7455  1.1605 -0.0559
 1520SOL    HW210653   8.443   1.158   6.431 -0.9530 -0.0426  0.1538
 1521SOL     OW10654   4.497  10.550   1.797  0.3057  0.1434 -0.1286
 1521SOL    HW110655   4.436  10.622   1.784 -0.6384 -0.6027 -0.0121
 1521SOL    HW210656   4.556  10.580   1.865 -1.2923  0.1118  1.3571
 1522SOL     OW10657   4.305   2.072   2.330 -0.4514  0.6308  0.1907
 1522SOL    HW110658   4.387   2.091   2.376 -0.4771  3.5139 -0.7173
 1522SOL    HW210659   4.246   2.039   2.398  0.4229  1.9230  1.6490
 1523SOL     OW10660   5.672   7.917   1.175  0.3804  0.2397  0.0975
 1523SOL    HW110661   5.690   7.824   1.190 -0.1088  0.0076 -0.6763
 1523SOL    HW210662   5.758   7.957   1.162  0.6818  0.1171  1.5196
 1524SOL     OW10663   4.312   4.048   6.731 -0.7496  0.1655  0.5286
 1524SOL    HW110664   4.337   4.021   6.819 -0.4242 -2.1229 -0.1958
 1524SOL    HW210665   4.383   4.016   6.675 -0.8315  1.7752 -0.5856
 1525SOL     OW10666   4.056   6.171   4.515  0.4385 -0.2131 -0.1329
 1525SOL    HW110667   4.024   6.188   4.427 -1.6788 -0.6128  0.4979
 1525SOL    HW210668   4.126   6.107   4.504 -0.4510 -0.9947 -1.4585
 1526SOL     OW10669   8.943   2.589  10.619 -0.2414 -0.6343 -0.3674
 1526SOL    HW110670   8.987   2.674  10.613 -0.0884 -0.7461 -0.9921
 1526SOL    HW210671   8.862   2.607  10.666 -0.6702  0.0631 -1.3181
 1527SOL     OW10672   3.295   6.499  10.390  0.2828 -0.4992  0.3129
 1527SOL    HW110673   3.225   6.437  10.368 -0.5875  0.7820 -0.6155
 1527SOL    HW210674   3.372   6.466  10.343 -0.4642 -0.2610 -1.1400
 1528SOL     OW10675   9.631   8.386   3.080  0.1638 -0.1833 -0.3339
 1528SOL    HW110676   9.557   8.326   3.067 -0.5891  0.8857 -1.1234
 1528SOL    HW210677   9.590   8.471   3.096  1.2104  0.6062 -1.6718
 1529SOL     OW10678   4.672   0.292   5.505 -0.3698 -0.0895 -0.4074
 1529SOL    HW110679   4.693   0.215   5.557  0.1012 -0.1355 -0.6560
 1529SOL    HW210680   4.757   0.324   5.475 -0.5703  0.4747 -0.3783
 1530SOL     OW10681   0.251   7.768  10.846 -0.0847  0.4363  0.5024
 1530SOL    HW110682   0.302   7.687  10.853  0.4725  0.4437 -2.1432
 1530SOL    HW210683   0.300   7.832  10.899  0.5243 -0.4861  1.0759
 1531SOL     OW10684   9.456   7.533   2.361 -0.5236 -0.4099  0.4138
 1531SOL    HW110685   9.379   7.476   2.368  0.8969 -2.8022 -1.5888
 1531SOL    HW210686   9.511   7.507   2.435 -0.7643 -0.1623  0.6799
 1532SOL     OW10687   1.123   2.245   0.514  0.2302 -0.2539  0.1569
 1532SOL    HW110688   1.034   2.271   0.533  0.3087 -1.1497  2.0336
 1532SOL    HW210689   1.119   2.149   0.508  1.2522 -0.4227  1.6553
 1533SOL     OW10690   1.500   7.718   2.628  0.9918  0.5884 -0.5480
 1533SOL    HW110691   1.436   7.693   2.561  0.8253  2.8447 -1.3104
 1533SOL    HW210692   1.449   7.764   2.695  1.3514 -0.5314  0.5386
 1534SOL     OW10693   2.408   3.896   0.109 -0.1553  0.0378 -0.5399
 1534SOL    HW110694   2.392   3.989   0.093 -1.8479  0.0696  0.9447
 1534SOL    HW210695   2.482   3.894   0.169 -2.4778  0.8111  2.6760
 1535SOL     OW10696   7.104   3.016   1.862  0.0879  0.0539 -0.3748
 1535SOL    HW110697   7.028   3.069   1.838  0.3432  0.8944  0.6134
 1535SOL    HW210698   7.114   2.954   1.789 -1.7361 -0.3040 -0.3822
 1536SOL     OW10699   6.705   3.107   9.944  0.3513  0.0230  0.3701
 1536SOL    HW110700   6.641   3.040   9.917  1.0285 -1.3687  2.0492
 1536SOL    HW210701   6.755   3.125   9.864 -1.3755  0.3099 -0.7037
 1537SOL     OW10702   0.901   8.817   9.480  0.0569 -0.0150  0.3275
 1537SOL    HW110703   0.902   8.898   9.428  1.2143 -0.0334  0.2790
 1537SOL    HW210704   0.810   8.805   9.504 -0.0824  1.5667  0.7275
 1538SOL     OW10705   5.655   3.910   2.648 -0.9494 -0.5027 -0.6057
 1538SOL    HW110706   5.687   3.911   2.558 -0.8026 -0.9876 -0.5599
 1538SOL    HW210707   5.676   3.822   2.680 -0.1484 -0.0416  0.2003
 1539SOL     OW10708   1.689   4.152   4.370 -0.2883 -0.4130  0.6244
 1539SOL    HW110709   1.757   4.085   4.364  0.8199  0.7101  0.2463
 1539SOL    HW210710   1.717   4.221   4.310 -2.6537 -0.6339 -0.8818
 1540SOL     OW10711   0.516   1.822   0.389  0.7203  0.2497 -0.1907
 1540SOL    HW110712   0.545   1.841   0.300  2.0201  2.6238  0.6575
 1540SOL    HW210713   0.421   1.808   0.381  0.7826  0.6247 -1.9054
 1541SOL     OW10714   9.002   4.386   7.752 -0.0416  0.2812 -0.0207
 1541SOL    HW110715   8.929   4.342   7.795  1.5840 -1.1859  1.4153
 1541SOL    HW210716   9.006   4.473   7.794 -0.1495 -0.1300  0.8619
 1542SOL     OW10717   5.607   1.977   2.485  0.1032  0.3454 -0.8227
 1542SOL    HW110718   5.561   2.051   2.445 -0.3425  0.2141 -0.5559
 1542SOL    HW210719   5.698   1.986   2.455 -0.4402 -0.4299 -2.8928
 1543SOL     OW10720   6.425   5.564   2.423 -0.1444  0.2070 -0.0871
 1543SOL    HW110721   6.407   5.482   2.469  1.1105 -0.7573 -1.2449
 1543SOL    HW210722   6.410   5.544   2.331  2.7861  0.4613 -0.6956
 1544SOL     OW10723   0.362   9.907   6.477 -0.0514 -0.3984  0.0061
 1544SOL    HW110724   0.437   9.848   6.488  2.1828  2.6219  2.6733
 1544SOL    HW210725   0.380   9.954   6.396  1.2219  0.5784  0.8253
 1545SOL     OW10726   6.390   1.887   9.461  0.4108  0.5870  0.0612
 1545SOL    HW110727   6.403   1.934   9.544 -0.7200 -0.3239  0.7880
 1545SOL    HW210728   6.479   1.876   9.426  1.0196  0.0887  1.6675
 1546SOL     OW10729   3.990   3.373   6.288  0.0860  0.3046 -0.1664
 1546SOL    HW110730   3.972   3.282   6.264  0.1272 -0.1994  1.5667
 1546SOL    HW210731   4.085   3.376   6.296  0.1787  0.8009 -1.2171
 1547SOL     OW10732   7.531   9.990   2.097  0.0110 -0.1021 -0.2295
 1547SOL    HW110733   7.512  10.006   2.005 -1.7426 -0.0995  0.1023
 1547SOL    HW210734   7.623  10.015   2.107  0.5708 -1.1461 -2.2014
 1548SOL     OW10735   1.336   9.560   9.719  0.0983  0.0450  0.5423
 1548SOL    HW110736   1.250   9.604   9.721 -0.7091 -1.4867  1.0763
 1548SOL    HW210737   1.315   9.468   9.700  1.5244 -0.5797  1.8389
 1549SOL     OW10738   2.001   6.058   3.565 -0.5196 -0.1392 -0.3316
 1549SOL    HW110739   1.994   6.126   3.498 -1.4495  0.3519  0.2508
 1549SOL    HW210740   2.088   6.071   3.603 -0.7601  0.8509 -0.1023
 1550SOL     OW10741   9.573   0.349  10.514 -0.1916 -0.8681  0.2823
 1550SOL    HW110742   9.562   0.426  10.569 -1.8024 -0.2948 -0.7429
 1550SOL    HW210743   9.667   0.343  10.498 -0.1644  2.1761 -1.3225
 1551SOL     OW10744   8.395   8.815   1.681  0.2970  0.6035  0.1655
 1551SOL    HW110745   8.457   8.887   1.668 -0.3382  0.7944 -2.2246
 1551SOL    HW210746   8.322   8.834   1.623 -0.2247 -1.6129 -0.0195
 1552SOL     OW10747   6.629   2.233   6.309  0.5681 -0.0315  0.5928
 1552SOL    HW110748   6.553   2.204   6.361  0.8693 -0.7126  0.6604
 1552SOL    HW210749   6.624   2.328   6.312  0.5225 -0.0520  1.8129
 1553SOL     OW10750   7.265  10.144   5.232 -0.0224 -0.1308 -0.3851
 1553SOL    HW110751   7.247  10.055   5.261 -1.7254  0.4236  0.3626
 1553SOL    HW210752   7.361  10.147   5.223  0.2958 -1.3300  1.8802
 1554SOL     OW10753  10.497   3.836   6.271  0.2891  0.1736  0.3907
 1554SOL    HW110754  10.485   3.906   6.207  2.1649  0.6302  0.4956
 1554SOL    HW210755  10.439   3.766   6.240  1.5610  0.1431 -2.2039
 1555SOL     OW10756   2.634   0.163   7.763  0.5377 -0.4212 -0.6378
 1555SOL    HW110757   2.640   0.077   7.723 -1.0980 -0.0630 -1.7684
 1555SOL    HW210758   2.550   0.163   7.808  1.0284  0.2098  0.3291
 1556SOL     OW10759   8.399   9.717   4.937 -0.7965 -0.0034  0.3272
 1556SOL    HW110760   8.373   9.641   4.886 -0.5735 -0.0364  0.2587
 1556SOL    HW210761   8.382   9.693   5.028  0.5365 -0.6567  0.4221
 1557SOL     OW10762   9.175   7.165   0.511  0.1374  0.3388 -0.0282
 1557SOL    HW110763   9.248   7.183   0.452  0.7268  1.9761  1.1146
 1557SOL    HW210764   9.214   7.120   0.586  0.2590  2.1527  1.0813
 1558SOL     OW10765   7.776   8.229   0.375  0.2555  0.5318  0.5072
 1558SOL    HW110766   7.743   8.204   0.461  0.5658 -1.6293  0.0400
 1558SOL    HW210767   7.698   8.232   0.319  0.2592  0.2874  0.4895
 1559SOL     OW10768   4.861   0.460   8.138  0.1012 -0.4084  0.1923
 1559SOL    HW110769   4.952   0.490   8.137  0.0034 -0.1005 -0.4807
 1559SOL    HW210770   4.837   0.458   8.230  0.9922 -1.1325  0.4248
 1560SOL     OW10771  10.215   1.962   0.435  0.0936  0.5842 -0.1720
 1560SOL    HW110772  10.198   1.990   0.525  2.3026  0.8457  0.2183
 1560SOL    HW210773  10.207   1.866   0.438  1.8434  0.4185  0.7696
 1561SOL     OW10774   2.295   5.192   1.118  0.2409 -0.2006  0.3041
 1561SOL    HW110775   2.228   5.249   1.079  0.1154 -1.0250 -0.7244
 1561SOL    HW210776   2.280   5.200   1.213 -1.3630 -0.4049  0.1050
 1562SOL     OW10777   0.250   9.796   0.729  0.1664  0.4079  0.0817
 1562SOL    HW110778   0.155   9.807   0.726  0.1337  0.1941  0.2997
 1562SOL    HW210779   0.283   9.850   0.657 -0.2620 -1.2418 -1.3876
 1563SOL     OW10780   7.920   9.690   3.471  0.0497  0.0273  0.3248
 1563SOL    HW110781   7.846   9.641   3.436  0.9076 -0.0373 -1.5583
 1563SOL    HW210782   7.889   9.780   3.477 -1.1268 -0.4427  2.5844
 1564SOL     OW10783   9.163   4.787  10.681  0.0583  0.3728  0.0073
 1564SOL    HW110784   9.210   4.851  10.628  0.9545 -0.2424  0.0308
 1564SOL    HW210785   9.175   4.815  10.771  1.0221 -0.1700  0.0655
 1565SOL     OW10786   0.449   3.179   1.628 -0.4019  0.1331 -0.3474
 1565SOL    HW110787   0.515   3.203   1.562  3.0385 -2.2674  1.8622
 1565SOL    HW210788   0.429   3.087   1.609 -1.2296  0.1365  0.4646
 1566SOL     OW10789   6.289   0.368   3.012  0.2440 -0.3258 -0.1178
 1566SOL    HW110790   6.297   0.459   2.983 -1.5358  0.3643  1.3065
 1566SOL    HW210791   6.197   0.346   2.996  0.3255 -1.4133  0.7710
 1567SOL     OW10792   2.582  10.822   7.911  0.1987 -0.1496  1.0504
 1567SOL    HW110793   2.632  10.835   7.830 -1.2722  1.2273  0.3086
 1567SOL    HW210794   2.570  10.727   7.916  0.1340 -0.2468 -0.4914
 1568SOL     OW10795   4.928   0.131   5.482  0.6631  0.2772  0.1687
 1568SOL    HW110796   4.913   0.047   5.525 -0.4775  0.8203  0.9177
 1568SOL    HW210797   4.949   0.110   5.392 -0.8600 -0.7885  0.0264
 1569SOL     OW10798   4.861   7.362   5.513  0.5403 -0.4804  0.4943
 1569SOL    HW110799   4.788   7.324   5.464 -0.3076  1.7427 -0.0878
 1569SOL    HW210800   4.939   7.329   5.469 -0.1445 -1.0591 -0.3383
 1570SOL     OW10801   4.113   2.324   7.415 -0.1358  0.1057 -0.1404
 1570SOL    HW110802   4.111   2.312   7.320  2.0086  1.7348 -0.4751
 1570SOL    HW210803   4.152   2.244   7.448 -0.4563 -0.2787 -0.6709
 1571SOL     OW10804   2.788   4.369   7.943 -0.8262  0.7313  0.6622
 1571SOL    HW110805   2.778   4.464   7.931 -2.0046  0.3752 -1.7757
 1571SOL    HW210806   2.763   4.354   8.034 -2.5209  2.5781  0.5921
 1572SOL     OW10807   9.084   9.082   8.809 -0.4401  0.0954  0.3144
 1572SOL    HW110808   9.070   9.001   8.858 -1.9581  0.0981 -0.0574
 1572SOL    HW210809   9.035   9.148   8.859  1.3486  0.9734  1.0152
 1573SOL     OW10810  10.052   6.236   9.086  0.0090 -0.1578 -0.0340
 1573SOL    HW110811   9.988   6.165   9.098  0.6263 -0.7954 -0.4632
 1573SOL    HW210812  10.007   6.314   9.120 -0.1223 -1.0026  1.8975
 1574SOL     OW10813   4.967   4.787  10.289 -0.3272  0.2648 -0.2898
 1574SOL    HW110814   4.923   4.818  10.368 -0.3761 -0.5588  0.0221
 1574SOL    HW210815   5.060   4.788  10.311 -0.3517 -0.1230 -0.1543
 1575SOL     OW10816   8.605   5.756   0.667  0.3823 -0.0182  0.1932
 1575SOL    HW110817   8.557   5.684   0.626  0.4345  0.6546 -1.0829
 1575SOL    HW210818   8.554   5.834   0.647  1.6944  0.6427 -0.7109
 1576SOL     OW10819  10.285   9.776   4.699  0.1206  0.3225 -0.5204
 1576SOL    HW110820  10.304   9.687   4.731 -0.9394  0.0468 -0.6152
 1576SOL    HW210821  10.291   9.831   4.777  1.5949  0.3129 -0.6038
 1577SOL     OW10822   6.841   4.802   1.383 -0.5113  0.0210  0.0491
 1577SOL    HW110823   6.898   4.736   1.342  0.1436  0.3699  0.3820
 1577SOL    HW210824   6.800   4.756   1.456  0.1310  0.0349  0.4299
 1578SOL     OW10825  10.345  10.528   2.271  0.2736 -0.0369 -0.3053
 1578SOL    HW110826  10.356  10.501   2.180 -1.9574 -0.7456 -0.4039
 1578SOL    HW210827  10.419  10.488   2.317 -0.2737 -2.3146 -1.2781
 1579SOL     OW10828   8.166   9.126   6.136 -0.0306  0.3652  0.3010
 1579SOL    HW110829   8.186   9.032   6.136  0.3879  0.4543  0.1216
 1579SOL    HW210830   8.225   9.163   6.071 -0.8070  0.6291 -0.2609
 1580SOL     OW10831   5.314   7.669   3.341  0.0872 -0.4225 -0.0260
 1580SOL    HW110832   5.323   7.721   3.421  0.1163 -1.7910  0.8950
 1580SOL    HW210833   5.231   7.698   3.303 -1.1136 -1.3419  1.7417
 1581SOL     OW10834   5.954   4.706   4.750 -0.2750 -0.1143  0.2733
 1581SOL    HW110835   5.944   4.732   4.658  1.3551  1.2498  0.4228
 1581SOL    HW210836   6.025   4.642   4.749 -2.4415 -2.6536  0.2530
 1582SOL     OW10837   1.213   4.022   8.641  0.2441 -0.5409  0.5928
 1582SOL    HW110838   1.200   3.964   8.566  0.7662 -1.2881  1.0652
 1582SOL    HW210839   1.191   4.109   8.608  0.4713 -0.8542 -0.4286
 1583SOL     OW10840   8.516  10.016  10.865  0.0025 -0.0650  0.0623
 1583SOL    HW110841   8.532  10.090  10.806  0.3987  0.0776  0.3503
 1583SOL    HW210842   8.421  10.015  10.877 -0.1991 -0.6647 -1.3192
 1584SOL     OW10843   3.835   0.868   0.720 -0.1783  0.2684  0.3920
 1584SOL    HW110844   3.869   0.806   0.656  0.8843 -0.4020  1.5830
 1584SOL    HW210845   3.748   0.892   0.686 -0.2600 -1.2224 -0.5082
 1585SOL     OW10846   2.508   5.996   1.038 -0.5750  0.4395  0.3018
 1585SOL    HW110847   2.514   5.901   1.035  1.0903  0.5291 -0.0984
 1585SOL    HW210848   2.593   6.025   1.070 -1.5512  1.7558  1.8553
 1586SOL     OW10849   9.120   0.020   5.966 -0.2543 -0.4283  0.3710
 1586SOL    HW110850   9.207  -0.020   5.957 -0.6395 -0.9041 -1.9979
 1586SOL    HW210851   9.138   0.112   5.984  0.9811  0.2993 -3.5146
 1587SOL     OW10852  10.636  10.675   0.825 -0.1557 -0.0019  0.2351
 1587SOL    HW110853  10.682  10.602   0.865 -0.7692 -1.7180 -1.9707
 1587SOL    HW210854  10.705  10.737   0.801  0.6461 -0.9154  0.1202
 1588SOL     OW10855   6.738   8.860   6.520 -0.2778  0.6890  0.2313
 1588SOL    HW110856   6.819   8.911   6.524  0.4846 -0.3020 -1.5280
 1588SOL    HW210857   6.684   8.896   6.590  0.6140  3.1939 -0.2485
 1589SOL     OW10858   5.796   5.169   9.411  0.0140  0.4689  0.7746
 1589SOL    HW110859   5.801   5.092   9.468  0.8958  0.6293  0.9299
 1589SOL    HW210860   5.748   5.138   9.334 -0.1255 -0.0821  1.0761
 1590SOL     OW10861   8.762  10.515   8.699 -0.0635 -0.3956 -0.0329
 1590SOL    HW110862   8.779  10.465   8.779 -0.9743  0.6428  0.8450
 1590SOL    HW210863   8.841  10.504   8.647  1.3030  0.3090  1.7784
 1591SOL     OW10864   8.793   2.504   6.171 -0.5524 -0.7865 -0.0664
 1591SOL    HW110865   8.826   2.539   6.088 -0.5483 -0.6588 -0.0112
 1591SOL    HW210866   8.746   2.577   6.211  1.9719  0.1338  1.4659
 1592SOL     OW10867   0.168   9.425   6.390  0.1517 -0.0980  0.1263
 1592SOL    HW110868   0.083   9.404   6.430  0.8694 -0.9302  1.2619
 1592SOL    HW210869   0.214   9.475   6.457 -0.1938  2.2413 -1.2569
 1593SOL     OW10870   1.316   0.878  10.806 -0.1922 -0.6020 -0.0351
 1593SOL    HW110871   1.312   0.825  10.885  0.7835 -0.5968  0.0332
 1593SOL    HW210872   1.306   0.816  10.734 -0.6832 -0.6589  0.0820
 1594SOL     OW10873   2.887   9.182   1.308 -0.8019 -0.3376 -0.2747
 1594SOL    HW110874   2.844   9.267   1.311  0.1034  0.1050  2.3382
 1594SOL    HW210875   2.814   9.119   1.309 -1.5510  0.4143  2.9373
 1595SOL     OW10876   3.243  10.528   3.045 -0.6752  0.2119 -0.3390
 1595SOL    HW110877   3.327  10.490   3.069 -0.8588  1.4603  2.7204
 1595SOL    HW210878   3.179  10.459   3.060 -0.5025  0.2238  0.4982
 1596SOL     OW10879   7.152   2.610   1.871 -0.3661 -0.1915  0.1086
 1596SOL    HW110880   7.085   2.576   1.812 -0.7905  1.9234 -0.7166
 1596SOL    HW210881   7.222   2.640   1.812  0.3015 -0.2949  0.8336
 1597SOL     OW10882   1.235   4.104   0.738  0.5549  0.0514  0.3313
 1597SOL    HW110883   1.316   4.083   0.690 -0.3090  0.3521 -1.3426
 1597SOL    HW210884   1.234   4.042   0.811  0.5937 -2.3631 -1.5912
 1598SOL     OW10885   5.461   7.124   7.410  0.4073 -0.3049 -0.3945
 1598SOL    HW110886   5.369   7.141   7.430  0.6004 -1.0762  1.3565
 1598SOL    HW210887   5.458   7.067   7.334 -0.8380 -3.6034  1.8798
 1599SOL     OW10888   7.492   8.389   9.849  0.2508  0.0063 -0.0485
 1599SOL    HW110889   7.576   8.360   9.814  1.5321  1.8852  1.3049
 1599SOL    HW210890   7.490   8.483   9.833 -0.6037  0.3633  1.8465
 1600SOL     OW10891   7.385   1.357   7.270  0.1309  0.0964  0.4724
 1600SOL    HW110892   7.440   1.383   7.344  0.0979 -1.4548  1.0870
 1600SOL    HW210893   7.413   1.268   7.250 -0.5944  0.1124 -0.7030
 1601SOL     OW10894   7.586   4.104  10.660  0.5030 -0.2304  0.0380
 1601SOL    HW110895   7.568   4.190  10.697 -2.4443 -0.4680 -0.5505
 1601SOL    HW210896   7.675   4.110  10.626  0.3355  2.6487 -0.1153
 1602SOL     OW10897   3.328   2.878  10.214 -0.5111  0.0404 -0.3645
 1602SOL    HW110898   3.382   2.956  10.219  0.7119 -0.8305  0.5304
 1602SOL    HW210899   3.387   2.809  10.183 -0.4075 -1.4443  2.7196
 1603SOL     OW10900   5.635  10.346   2.276 -0.2617  0.0694  0.0058
 1603SOL    HW110901   5.667  10.429   2.242  1.4267 -0.2386  0.7204
 1603SOL    HW210902   5.701  10.282   2.248  0.3233 -0.4560  2.3521
 1604SOL     OW10903   3.510   4.040  10.582  0.1927 -0.0869 -0.1647
 1604SOL    HW110904   3.487   4.130  10.605  1.7122  0.3262 -0.1565
 1604SOL    HW210905   3.496   3.991  10.663 -1.3507 -0.0336 -0.3620
 1605SOL     OW10906   6.257   5.466   2.863 -0.0601 -0.1746  0.4977
 1605SOL    HW110907   6.176   5.499   2.902  2.4432  2.3768  4.2843
 1605SOL    HW210908   6.286   5.398   2.924  1.3896  0.1109  0.1516
 1606SOL     OW10909   3.425   0.321   4.546 -0.4650 -0.7126  0.0438
 1606SOL    HW110910   3.464   0.381   4.482  0.3345 -0.0448  1.1091
 1606SOL    HW210911   3.351   0.282   4.501  0.4633 -0.7641 -1.5008
 1607SOL     OW10912   8.216   7.994   7.209 -0.0297  0.3318  0.1593
 1607SOL    HW110913   8.189   8.076   7.166  0.0597 -0.0901 -0.7271
 1607SOL    HW210914   8.232   8.019   7.300 -2.0975  0.8824  0.4236
 1608SOL     OW10915   0.335   0.008   9.442 -0.4531 -0.4848 -0.3540
 1608SOL    HW110916   0.326  -0.078   9.399  1.3094  0.2297 -2.3582
 1608SOL    HW210917   0.245   0.035   9.460 -1.3422 -1.1369 -3.1693
 1609SOL     OW10918   7.059   6.160   5.017 -0.5659 -0.2756 -0.2493
 1609SOL    HW110919   6.964   6.145   5.015 -0.9935  1.1397  3.0130
 1609SOL    HW210920   7.095   6.081   5.057 -0.4949 -0.3742 -0.5067
 1610SOL     OW10921   9.657   6.488  10.486 -0.6132  0.2332 -0.0134
 1610SOL    HW110922   9.682   6.573  10.450 -0.6265  0.1892 -0.1274
 1610SOL    HW210923   9.735   6.433  10.473 -0.2130  0.5222  1.0384
 1611SOL     OW10924   2.542   5.085   8.503 -0.1088 -0.4473 -0.2876
 1611SOL    HW110925   2.475   5.136   8.550  0.5110 -0.3906  0.5519
 1611SOL    HW210926   2.545   5.125   8.416 -0.2401  0.4062  0.0883
 1612SOL     OW10927   2.254   4.740   7.739 -0.0408  0.0738  0.3381
 1612SOL    HW110928   2.204   4.820   7.728  1.2188  0.8617  0.0927
 1612SOL    HW210929   2.206   4.674   7.690 -0.5046  0.9438 -0.3986
 1613SOL     OW10930   5.664   5.899   4.477  0.1207 -0.0621 -0.0569
 1613SOL    HW110931   5.754   5.883   4.504 -0.3389  0.4110  1.9513
 1613SOL    HW210932   5.648   5.836   4.407  2.3130  0.5847 -1.2349
 1614SOL     OW10933   2.346   9.982   2.194 -0.1940 -0.1870 -0.0680
 1614SOL    HW110934   2.386  10.069   2.198  1.6616 -0.9377 -1.0039
 1614SOL    HW210935   2.370   9.941   2.277  1.4351 -0.7617 -0.7645
 1615SOL     OW10936   3.477   0.678   8.509 -0.3736 -0.4244 -0.1782
 1615SOL    HW110937   3.449   0.710   8.595  1.6290 -1.4370  0.9545
 1615SOL    HW210938   3.442   0.740   8.447  0.5626  2.0771  1.6256
 1616SOL     OW10939   5.694   3.134   5.204  0.1260 -0.2029 -0.1045
 1616SOL    HW110940   5.782   3.168   5.194  0.5643 -1.3734 -0.3960
 1616SOL    HW210941   5.685   3.069   5.135 -0.6523 -0.7245  0.4632
 1617SOL     OW10942   1.864   0.498  10.542  0.2614 -0.3612 -0.4591
 1617SOL    HW110943   1.907   0.446  10.474  0.9372 -0.8179  0.2987
 1617SOL    HW210944   1.803   0.436  10.583  0.4978 -0.3392 -0.0719
 1618SOL     OW10945   4.302   2.672  10.687  0.1765 -0.0972 -0.2928
 1618SOL    HW110946   4.371   2.628  10.637  0.8910  0.5355  0.1064
 1618SOL    HW210947   4.270   2.741  10.630 -1.9960 -1.9814 -1.5186
 1619SOL     OW10948   6.480   8.504   5.513  0.4402 -0.3236  0.4332
 1619SOL    HW110949   6.428   8.557   5.453 -0.0787 -0.5498  0.6709
 1619SOL    HW210950   6.426   8.499   5.593 -0.4935 -2.8793 -0.2613
 1620SOL     OW10951  10.239   6.682   5.180  0.0118  0.0298  0.3522
 1620SOL    HW110952  10.181   6.758   5.179 -0.1320 -0.0810 -0.5949
 1620SOL    HW210953  10.328   6.719   5.176  0.0046  0.1835  1.3576
 1621SOL     OW10954   4.053   2.783  10.817  0.4146  0.1870 -0.1612
 1621SOL    HW110955   4.141   2.750  10.801  0.2984  0.8811 -2.6623
 1621SOL    HW210956   4.062   2.879  10.815 -0.1913  0.2819  0.9294
 1622SOL     OW10957   9.511   6.133   3.088 -0.8911  0.0278  0.1224
 1622SOL    HW110958   9.604   6.117   3.072 -1.3565 -1.2777 -1.5623
 1622SOL    HW210959   9.474   6.150   3.002 -2.2479  0.3729  0.7455
 1623SOL     OW10960   0.196   6.886   8.522 -0.1289 -0.0465  0.5739
 1623SOL    HW110961   0.251   6.939   8.580 -1.7652  1.0930  1.1538
 1623SOL    HW210962   0.181   6.806   8.572  2.0694 -0.9967 -0.1619
 1624SOL     OW10963   3.937   2.556   0.361  0.2010  0.2242  0.2563
 1624SOL    HW110964   3.889   2.601   0.291 -0.1871  0.5569  0.7228
 1624SOL    HW210965   4.019   2.529   0.321  0.8900  2.2218  0.2078
 1625SOL     OW10966   4.959   1.666   2.253 -0.0623  0.3299 -0.4568
 1625SOL    HW110967   4.909   1.717   2.190 -0.5266 -0.9324 -1.1649
 1625SOL    HW210968   5.043   1.711   2.261 -0.4464  1.1746 -1.0561
 1626SOL     OW10969   8.742   1.781   4.212 -0.5693 -0.1289 -0.7366
 1626SOL    HW110970   8.655   1.744   4.224  0.0150 -1.1154  0.7852
 1626SOL    HW210971   8.787   1.720   4.153  0.2854 -1.8420  1.5104
 1627SOL     OW10972   3.516   0.710   2.911  0.1907 -0.0124 -0.0653
 1627SOL    HW110973   3.540   0.656   2.836  1.3085 -3.0802  2.2765
 1627SOL    HW210974   3.598   0.726   2.957 -0.7646 -1.1831  2.2382
 1628SOL     OW10975   6.830   1.453   5.482 -0.2842  0.2902  0.1122
 1628SOL    HW110976   6.879   1.534   5.500  0.3375 -0.0349 -0.0864
 1628SOL    HW210977   6.817   1.413   5.568  0.2585  0.1222  0.1201
 1629SOL     OW10978   9.076   1.979   3.108  0.9557 -0.1800 -0.3730
 1629SOL    HW110979   9.121   1.908   3.063 -0.9035 -2.7307  1.4405
 1629SOL    HW210980   9.035   1.937   3.184 -1.0502  2.6839  0.3161
 1630SOL     OW10981   4.152   2.388   5.415  0.2875 -0.0254 -0.1219
 1630SOL    HW110982   4.104   2.338   5.350 -0.8947  1.4102 -0.4065
 1630SOL    HW210983   4.088   2.408   5.484  0.6419  1.2511 -0.1248
 1631SOL     OW10984   6.414   5.850   2.385 -0.0369  0.1469  0.2739
 1631SOL    HW110985   6.417   5.759   2.414  0.6149  0.3290  0.8016
 1631SOL    HW210986   6.349   5.851   2.315  0.8589 -0.9725 -0.6119
 1632SOL     OW10987   6.840   6.826   7.288  0.0767 -0.4882 -0.1467
 1632SOL    HW110988   6.771   6.855   7.348  1.1870 -1.4140  1.6935
 1632SOL    HW210989   6.884   6.907   7.262  0.6312 -0.1478  1.6910
 1633SOL     OW10990   4.178   8.314   3.053  0.4167 -0.5715 -0.3725
 1633SOL    HW110991   4.190   8.356   2.968  2.0784 -1.7842 -0.7818
 1633SOL    HW210992   4.201   8.222   3.038  0.0458 -0.9517  1.2267
 1634SOL     OW10993   2.499  10.625   7.020 -0.1004  0.1045 -0.1740
 1634SOL    HW110994   2.478  10.692   6.955  1.3019 -0.4243 -1.2217
 1634SOL    HW210995   2.572  10.661   7.070  0.2932 -0.3957 -0.3777
 1635SOL     OW10996   4.091   0.858   5.578 -0.1072  0.5220  0.3702
 1635SOL    HW110997   4.100   0.787   5.513  0.4259  0.7569  0.1881
 1635SOL    HW210998   4.062   0.813   5.658 -2.3632  0.3952 -0.4223
 1636SOL     OW10999   6.350   2.716   3.670  0.5816 -0.2924 -0.3448
 1636SOL    HW111000   6.303   2.782   3.721  0.9475 -1.2800  1.3686
 1636SOL    HW211001   6.392   2.661   3.736  1.1932 -1.5782 -1.7493
 1637SOL     OW11002   0.701   7.212   6.359  0.1306 -0.4813 -0.3450
 1637SOL    HW111003   0.793   7.194   6.340  0.4785  0.5149  0.3332
 1637SOL    HW211004   0.658   7.208   6.273  0.9171 -0.3093 -0.7533
 1638SOL     OW11005   0.519   9.933   5.724 -0.0295 -0.3135 -0.1601
 1638SOL    HW111006   0.565   9.894   5.798 -0.6054  0.0319  0.3865
 1638SOL    HW211007   0.457   9.866   5.696 -0.2199 -0.2297  0.0515
 1639SOL     OW11008   0.208  10.227   6.402 -0.8504 -0.1381  0.0656
 1639SOL    HW111009   0.212  10.269   6.316 -0.8770 -1.2866 -0.5284
 1639SOL    HW211010   0.152  10.151   6.389 -0.8073 -0.3634  1.0925
 1640SOL     OW11011   8.197   6.617   9.189 -0.2623  0.2608 -0.3406
 1640SOL    HW111012   8.136   6.642   9.258  0.7453 -1.6906  1.3543
 1640SOL    HW211013   8.177   6.525   9.171 -0.2002  0.5993 -2.3773
 1641SOL     OW11014   8.917  10.207   4.608 -0.5334  0.0579 -0.0421
 1641SOL    HW111015   8.913  10.271   4.679  0.3382  0.0457  0.0225
 1641SOL    HW211016   8.825  10.192   4.585 -0.7504  2.6849 -1.2770
 1642SOL     OW11017   7.511   2.091   4.261  0.5679  0.3476  0.7745
 1642SOL    HW111018   7.421   2.085   4.229  1.5011  0.7090 -2.2729
 1642SOL    HW211019   7.503   2.089   4.356 -2.4751 -1.8318  0.6205
 1643SOL     OW11020   1.046   7.943  10.756  0.2692  0.0515 -0.3214
 1643SOL    HW111021   1.055   8.027  10.802 -0.4939 -0.2164  0.3609
 1643SOL    HW211022   0.963   7.907  10.789  0.8027 -1.1721 -0.2676
 1644SOL     OW11023   9.765   7.290   5.828  0.5594  0.5108 -0.1861
 1644SOL    HW111024   9.801   7.357   5.887 -0.3624  1.9905 -1.2141
 1644SOL    HW211025   9.806   7.309   5.743 -0.2744  0.2533 -0.6544
 1645SOL     OW11026   3.576   9.024   2.481  0.1046  0.0456 -0.0413
 1645SOL    HW111027   3.503   9.001   2.422  1.2072 -0.0632 -1.4146
 1645SOL    HW211028   3.654   9.014   2.427  1.2308 -0.6466  1.6277
 1646SOL     OW11029   6.357   3.703   1.045 -0.5490 -0.1347  0.2585
 1646SOL    HW111030   6.387   3.702   1.136 -0.2309 -0.8704  0.1514
 1646SOL    HW211031   6.288   3.770   1.044 -0.9528 -0.5054  1.1765
 1647SOL     OW11032   0.017   8.040   3.585 -0.4889  0.4979 -0.0829
 1647SOL    HW111033   0.102   8.080   3.564  0.7986 -3.0120 -2.5517
 1647SOL    HW211034   0.032   7.994   3.668 -0.2997  0.7658  0.0327
 1648SOL     OW11035   3.227   0.380   4.905 -0.3906 -0.2740  0.2860
 1648SOL    HW111036   3.183   0.465   4.910  1.7180  0.9023  0.0153
 1648SOL    HW211037   3.183   0.335   4.833  1.4840  2.5535 -2.9116
 1649SOL     OW11038   3.106   2.822   2.509  0.9206  0.0456 -0.1675
 1649SOL    HW111039   3.035   2.885   2.503 -0.1075 -1.1366 -1.0597
 1649SOL    HW211040   3.075   2.757   2.573  0.2159 -1.5883 -2.0519
 1650SOL     OW11041   0.897  10.320  10.384 -0.2103 -0.2114 -0.6432
 1650SOL    HW111042   0.844  10.361  10.453 -0.2408  0.0389 -0.8162
 1650SOL    HW211043   0.987  10.341  10.407  0.0950 -2.9999  1.2583
 1651SOL     OW11044   3.622   4.833   1.662 -0.1100  0.1107  0.6387
 1651SOL    HW111045   3.548   4.792   1.707 -0.8097 -0.6803 -1.1284
 1651SOL    HW211046   3.610   4.927   1.678 -0.1189 -0.1395  2.3324
 1652SOL     OW11047   4.674   9.195   6.903  0.4624  0.2867  0.0605
 1652SOL    HW111048   4.604   9.242   6.948  0.2362  1.1359 -1.1258
 1652SOL    HW211049   4.628   9.137   6.842  0.7699 -0.2327  0.3242
 1653SOL     OW11050   1.554   0.246   8.834  0.5683 -0.2595  0.3487
 1653SOL    HW111051   1.621   0.247   8.765  0.4605  0.4220  0.2463
 1653SOL    HW211052   1.601   0.270   8.914  0.1877  1.8084  0.0088
 1654SOL     OW11053   9.785  10.642   1.513 -0.5569  0.5062 -0.3999
 1654SOL    HW111054   9.835  10.567   1.542 -2.8800 -0.9419  0.1320
 1654SOL    HW211055   9.850  10.701   1.474  1.5912 -0.8859  0.8758
 1655SOL     OW11056   4.359   3.944   6.983  0.0346  0.1064 -0.3504
 1655SOL    HW111057   4.412   3.962   7.061  1.3102 -0.0401 -1.1449
 1655SOL    HW211058   4.269   3.946   7.014  0.5175 -0.1688  1.1748
 1656SOL     OW11059   2.172   7.348   8.089  0.0986  0.1686  0.1522
 1656SOL    HW111060   2.195   7.431   8.049 -1.0398  0.2648 -0.3418
 1656SOL    HW211061   2.247   7.291   8.072  0.0344  0.4893 -1.2906
 1657SOL     OW11062   9.333   6.045   7.648  0.3964 -0.0215 -0.0158
 1657SOL    HW111063   9.323   6.082   7.560 -0.2441 -0.9984 -0.3682
 1657SOL    HW211064   9.420   6.005   7.648  1.1780  1.5975  0.4307
 1658SOL     OW11065   4.910   0.745   0.248  0.0782 -0.2063  0.2131
 1658SOL    HW111066   4.976   0.768   0.312  0.7440  1.5590 -1.0145
 1658SOL    HW211067   4.959   0.706   0.176 -0.6969 -2.5234  0.8660
 1659SOL     OW11068   0.533   8.510   9.694 -0.5352 -0.3448 -0.7823
 1659SOL    HW111069   0.561   8.599   9.673 -0.3824 -0.5311 -1.4199
 1659SOL    HW211070   0.443   8.519   9.725 -0.2282  0.1199 -0.0089
 1660SOL     OW11071   7.479   5.969   5.237 -0.3544 -0.0856 -0.1468
 1660SOL    HW111072   7.552   6.017   5.276 -1.0373  0.5498  0.3847
 1660SOL    HW211073   7.508   5.948   5.149  0.7390 -0.4556  0.2858
 1661SOL     OW11074   1.511   0.433   0.563 -0.1211  0.0304 -0.1083
 1661SOL    HW111075   1.515   0.338   0.569 -2.9735 -0.1572  0.4269
 1661SOL    HW211076   1.424   0.451   0.527  0.4512  2.4458 -0.4780
 1662SOL     OW11077   7.476   3.616   1.130  0.4513  0.1196 -0.4133
 1662SOL    HW111078   7.472   3.631   1.224  0.0343  1.6807 -0.6576
 1662SOL    HW211079   7.554   3.664   1.102  1.0711 -1.0562 -0.7506
 1663SOL     OW11080   6.497   2.393   0.097 -0.0384 -0.3337  0.0471
 1663SOL    HW111081   6.591   2.377   0.097  0.2247  0.9215  1.8674
 1663SOL    HW211082   6.458   2.307   0.113  0.9025 -0.5953  1.0257
 1664SOL     OW11083  10.129   1.337   8.998  0.1270  0.0386  0.1879
 1664SOL    HW111084  10.058   1.276   9.019  0.3984  0.2366  1.8700
 1664SOL    HW211085  10.116   1.410   9.059  0.5042  1.1107 -0.9794
 1665SOL     OW11086   2.655   3.374   2.654  0.5799  0.5900  0.3739
 1665SOL    HW111087   2.657   3.436   2.581 -0.6674 -0.1607 -0.3354
 1665SOL    HW211088   2.572   3.327   2.643  1.0705 -0.5747  1.4084
 1666SOL     OW11089   2.654   6.713   1.756  1.0523 -0.3083  0.2469
 1666SOL    HW111090   2.560   6.703   1.748  1.0456 -1.5209  1.4626
 1666SOL    HW211091   2.688   6.624   1.758  2.0635  0.0644  1.4036
 1667SOL     OW11092   7.902   5.316   0.098  0.2161 -0.5952  0.0611
 1667SOL    HW111093   7.917   5.376   0.026 -2.4827 -0.1515 -0.2412
 1667SOL    HW211094   7.900   5.371   0.176  0.9044 -0.7509  0.1900
 1668SOL     OW11095  10.171   7.846   8.393 -0.1770  0.3246 -0.5409
 1668SOL    HW111096  10.221   7.785   8.447 -0.8546  0.3784  0.1516
 1668SOL    HW211097  10.179   7.931   8.438 -1.3666  0.2179 -0.0936
 1669SOL     OW11098   9.509   8.579   2.281  0.0515  0.4588  0.2415
 1669SOL    HW111099   9.575   8.524   2.239 -0.5909 -0.8120  0.8649
 1669SOL    HW211100   9.514   8.557   2.374 -0.7140  0.9360  0.4044
 1670SOL     OW11101   3.327   0.706   6.505  0.0523  0.0771  0.2059
 1670SOL    HW111102   3.363   0.760   6.434  2.5641  0.2284  1.4579
 1670SOL    HW211103   3.340   0.759   6.583  0.0721 -1.2447  1.1225
 1671SOL     OW11104  10.883  10.658   5.803  0.0204  0.3119  0.4944
 1671SOL    HW111105  10.947  10.604   5.849 -0.0828  1.2985  1.8507
 1671SOL    HW211106  10.853  10.722   5.868 -1.9909  0.1895 -0.2299
 1672SOL     OW11107   2.700   4.518   1.940 -0.1953 -0.3597 -0.5021
 1672SOL    HW111108   2.764   4.588   1.947 -0.9211  0.3990 -1.2953
 1672SOL    HW211109   2.675   4.499   2.031  0.7678 -0.3209 -0.2229
 1673SOL     OW11110   6.345   5.616   8.833 -0.3027  0.2886 -0.1374
 1673SOL    HW111111   6.326   5.621   8.739 -1.3577 -0.5363  0.0179
 1673SOL    HW211112   6.271   5.661   8.875  0.9028  2.0022  0.2611
 1674SOL     OW11113   5.971   2.654  10.397 -0.3214 -0.2981  0.6420
 1674SOL    HW111114   5.887   2.620  10.366 -0.9004  0.7398  1.0282
 1674SOL    HW211115   5.988   2.731  10.342 -1.6769  1.9723  3.1310
 1675SOL     OW11116   2.107   4.327   8.850  0.3201  0.2222  0.5369
 1675SOL    HW111117   2.089   4.397   8.913 -0.8820 -0.1436  0.6276
 1675SOL    HW211118   2.158   4.262   8.898  0.8635  0.7154  0.6404
 1676SOL     OW11119   2.441   2.701   4.712  0.2940  1.0818 -0.3072
 1676SOL    HW111120   2.363   2.681   4.660  1.3159 -0.7929 -1.2199
 1676SOL    HW211121   2.486   2.617   4.721  1.1904  1.7271  1.9508
 1677SOL     OW11122   6.574   0.682   0.299  0.2027  0.1595 -0.2279
 1677SOL    HW111123   6.605   0.769   0.273  0.2769 -0.3474 -2.0050
 1677SOL    HW211124   6.513   0.699   0.370  0.8241  1.5933  0.0135
 1678SOL     OW11125   6.237   7.393   6.312  0.4038  0.5561 -0.1767
 1678SOL    HW111126   6.192   7.413   6.230  0.2986 -1.6819 -0.7524
 1678SOL    HW211127   6.320   7.354   6.284  0.8373  0.7653  0.8028
 1679SOL     OW11128   8.848   1.303   7.794 -0.1837 -0.3995  0.3532
 1679SOL    HW111129   8.830   1.229   7.737 -1.5800 -0.0423  0.2779
 1679SOL    HW211130   8.819   1.274   7.881  1.6300 -0.8273  0.8598
 1680SOL     OW11131   2.565   5.266   7.057  0.4061 -0.2510  0.6857
 1680SOL    HW111132   2.654   5.239   7.076 -0.5761 -1.9400  3.4457
 1680SOL    HW211133   2.560   5.269   6.962  3.2823 -0.4215  0.4641
 1681SOL     OW11134   9.547   2.108   1.071 -0.5000 -0.2566  0.1034
 1681SOL    HW111135   9.540   2.196   1.033 -0.1076 -0.2471  0.0516
 1681SOL    HW211136   9.632   2.108   1.115 -0.4746 -0.6318  0.0548
 1682SOL     OW11137   9.967   8.250   8.340  0.3005 -0.5701 -0.2462
 1682SOL    HW111138   9.961   8.168   8.291  0.7161 -1.2198  0.7529
 1682SOL    HW211139   9.896   8.245   8.404 -1.6771  1.2711 -2.1340
 1683SOL     OW11140   9.600   7.570   7.396 -0.2282  0.2363  0.0810
 1683SOL    HW111141   9.695   7.580   7.397 -0.3962  2.0051  0.6627
 1683SOL    HW211142   9.567   7.647   7.351 -1.4314  0.0639  0.6062
 1684SOL     OW11143   1.212   6.979   7.241  0.2367  0.1575 -0.4082
 1684SOL    HW111144   1.119   6.969   7.264  0.4110 -1.3854 -0.3143
 1684SOL    HW211145   1.215   7.061   7.191 -1.7176 -1.2796 -3.1585
 1685SOL     OW11146   8.644   8.675   9.190  0.2604 -0.6619 -0.0233
 1685SOL    HW111147   8.651   8.657   9.096 -0.5276  0.4141 -0.3146
 1685SOL    HW211148   8.713   8.739   9.207 -1.3861  1.3610 -0.5224
 1686SOL     OW11149   7.176  10.862   1.584 -0.0591  0.1305 -0.0832
 1686SOL    HW111150   7.121  10.784   1.586  1.9672 -1.3444  0.1864
 1686SOL    HW211151   7.196  10.874   1.491  0.2598 -0.1246 -0.0468
 1687SOL     OW11152   5.495   4.243   5.703 -0.2130  0.3476 -0.0988
 1687SOL    HW111153   5.490   4.156   5.742 -2.5032  0.3271 -0.2990
 1687SOL    HW211154   5.533   4.299   5.771  0.4783 -0.6186  0.3285
 1688SOL     OW11155   6.265   3.222   3.666 -0.0901  0.3455  0.0028
 1688SOL    HW111156   6.205   3.285   3.706  0.4694  0.1425  1.1968
 1688SOL    HW211157   6.209   3.150   3.637 -0.3893 -0.1620  1.7234
 1689SOL     OW11158   3.568   2.085  10.399 -0.3864 -0.1862 -0.2093
 1689SOL    HW111159   3.582   2.034  10.319  0.9542  0.6221 -0.5139
 1689SOL    HW211160   3.509   2.156  10.373 -1.1448 -0.7606 -0.1069
 1690SOL     OW11161   1.774   9.705   8.850  0.2222 -0.0183 -0.1881
 1690SOL    HW111162   1.818   9.631   8.893 -2.1129 -1.1101  0.4940
 1690SOL    HW211163   1.843   9.750   8.802  1.9175 -2.0497  0.2199
 1691SOL     OW11164   4.219   8.376   2.360  0.0528 -0.5360 -0.1830
 1691SOL    HW111165   4.147   8.406   2.415  1.7985  2.8123  0.5828
 1691SOL    HW211166   4.232   8.447   2.297  3.6620 -0.1275  0.8085
 1692SOL     OW11167   8.958   4.833   0.191  0.4090  0.2775  0.6722
 1692SOL    HW111168   8.955   4.920   0.231  0.4255  0.2954  0.6342
 1692SOL    HW211169   8.869   4.800   0.199 -0.0765  1.0819 -1.0643
 1693SOL     OW11170   3.265   0.685   4.132  0.2913 -0.3459 -0.3465
 1693SOL    HW111171   3.228   0.719   4.213 -0.6736  0.4435 -1.0890
 1693SOL    HW211172   3.305   0.602   4.157 -1.2247 -0.8171  0.6748
 1694SOL     OW11173   4.444  10.037   6.496  0.0652  0.1006 -0.0230
 1694SOL    HW111174   4.358   9.994   6.498  0.4804 -0.7548  2.0278
 1694SOL    HW211175   4.501   9.973   6.455 -0.1363  0.4160 -0.8101
 1695SOL     OW11176  10.365   6.542   9.639 -0.1414  0.3038 -0.1015
 1695SOL    HW111177  10.397   6.535   9.729  0.7309  0.4409 -0.3957
 1695SOL    HW211178  10.295   6.608   9.644  0.9114  1.4222  0.2186
 1696SOL     OW11179   0.366   7.349   8.874 -0.1149 -0.2267  0.2633
 1696SOL    HW111180   0.454   7.318   8.898  0.1336  0.2383 -0.0310
 1696SOL    HW211181   0.360   7.333   8.779  0.0440  0.6798  0.0950
 1697SOL     OW11182   9.962   8.278   4.810  0.1384 -0.1399  0.5961
 1697SOL    HW111183   9.945   8.187   4.786 -1.2143 -0.1977  1.6555
 1697SOL    HW211184   9.901   8.296   4.881 -0.3270  1.9058 -0.2523
 1698SOL     OW11185   9.431   0.850   4.626 -0.2853 -0.2246  0.1536
 1698SOL    HW111186   9.343   0.820   4.648 -0.4356  0.8984  1.2267
 1698SOL    HW211187   9.421   0.944   4.610  0.9498  0.2748  1.9478
 1699SOL     OW11188   7.264   1.644   5.133  0.4578  0.1209  0.2999
 1699SOL    HW111189   7.260   1.713   5.200 -0.1333  0.2416  0.1411
 1699SOL    HW211190   7.222   1.682   5.056 -1.3145 -0.9455  0.6778
 1700SOL     OW11191   5.883   8.894   5.954  0.6504  0.3289  0.2889
 1700SOL    HW111192   5.820   8.830   5.921  2.5719 -0.0007 -3.2226
 1700SOL    HW211193   5.836   8.977   5.954 -1.2670 -0.6078  2.9659
 1701SOL     OW11194   6.191   9.026   7.279  0.2681 -0.3993 -0.3034
 1701SOL    HW111195   6.104   9.061   7.300  0.4364 -0.0612 -0.1543
 1701SOL    HW211196   6.189   8.936   7.311 -0.6092 -0.9621 -1.8270
 1702SOL     OW11197  10.268   1.200   9.812  0.4744 -0.0862  0.1326
 1702SOL    HW111198  10.304   1.167   9.730  0.0633 -1.4439  0.4620
 1702SOL    HW211199  10.280   1.295   9.808  2.4805 -0.3204 -0.5044
 1703SOL     OW11200   3.470   6.300  10.631  0.7172 -0.1446  0.0925
 1703SOL    HW111201   3.504   6.348  10.556 -0.3467  1.9223  0.8457
 1703SOL    HW211202   3.547   6.279  10.683  1.1757  1.9393  0.3634
 1704SOL     OW11203   4.391   8.564   6.975  0.2587 -0.1077  0.0092
 1704SOL    HW111204   4.319   8.627   6.983  1.2571  1.2482 -0.9998
 1704SOL    HW211205   4.458   8.612   6.925  1.2986 -1.7966 -0.2829
 1705SOL     OW11206   2.962   4.092   0.024  0.3476  0.1629 -0.3963
 1705SOL    HW111207   3.001   4.078  -0.062 -0.1255  3.5083 -1.2980
 1705SOL    HW211208   3.033   4.077   0.086  1.3914  0.1853 -1.5614
 1706SOL     OW11209   5.085   2.423   1.080 -0.0829 -0.4219  0.0443
 1706SOL    HW111210   5.145   2.436   1.153 -1.2773 -0.3927  1.0541
 1706SOL    HW211211   5.095   2.501   1.026  2.1531 -1.2563 -0.8606
 1707SOL     OW11212   5.318   6.525   0.657 -0.0891 -0.1661 -0.1260
 1707SOL    HW111213   5.318   6.442   0.610  2.5033  0.4035 -1.2945
 1707SOL    HW211214   5.400   6.524   0.706 -0.1289  1.6094  0.0256
 1708SOL     OW11215   3.286   8.621   5.421  0.5255  0.1975  0.0924
 1708SOL    HW111216   3.204   8.661   5.390 -0.0561 -1.0245  0.0189
 1708SOL    HW211217   3.268   8.595   5.511  1.3478  1.2962  0.5988
 1709SOL     OW11218   4.950  10.503   7.732 -0.3673 -0.0904  0.2547
 1709SOL    HW111219   5.027  10.544   7.692  0.1903  0.6383  2.0018
 1709SOL    HW211220   4.973  10.492   7.824 -1.1384 -2.8109  0.2270
 1710SOL     OW11221   7.840   3.330   9.636  0.2515  0.3976 -0.5931
 1710SOL    HW111222   7.848   3.257   9.698 -0.3466 -0.4825 -1.5159
 1710SOL    HW211223   7.747   3.335   9.616  0.4376  0.5757 -1.4918
 1711SOL     OW11224   9.686   0.827  10.772 -0.5204 -0.1668  0.2106
 1711SOL    HW111225   9.767   0.875  10.786 -1.7461  1.5987  1.8808
 1711SOL    HW211226   9.683   0.763  10.843  1.3572 -3.3400 -2.2959
 1712SOL     OW11227   2.979   0.138   2.629  0.0546  0.3432 -0.6824
 1712SOL    HW111228   3.049   0.199   2.653  0.1788 -0.2623  0.5638
 1712SOL    HW211229   3.024   0.062   2.593 -0.0513  0.5432 -1.2555
 1713SOL     OW11230   4.825   7.243   4.259 -0.1782  0.5121  0.2099
 1713SOL    HW111231   4.913   7.256   4.294  0.3841 -0.3967 -0.8081
 1713SOL    HW211232   4.779   7.324   4.280 -0.0199 -0.0582  3.3551
 1714SOL     OW11233   8.981   9.886   6.277  0.6203  0.1416  0.4300
 1714SOL    HW111234   9.014   9.832   6.205 -1.3448  0.9691 -1.2149
 1714SOL    HW211235   8.915   9.832   6.319  0.6134  0.2594  0.5691
 1715SOL     OW11236   9.412   1.136   6.863 -0.4318 -0.1359  0.0653
 1715SOL    HW111237   9.497   1.147   6.906 -1.3470  0.9846  1.7110
 1715SOL    HW211238   9.375   1.224   6.859 -0.3903 -0.1364 -3.2537
 1716SOL     OW11239   5.801   7.438   0.251  0.2112 -0.4257 -0.0747
 1716SOL    HW111240   5.856   7.495   0.304  1.5354 -2.0983  0.4280
 1716SOL    HW211241   5.816   7.467   0.161  0.2119  0.5370  0.2277
 1717SOL     OW11242   8.186   0.384  10.812  0.8088  0.6328  0.0160
 1717SOL    HW111243   8.211   0.445  10.742 -0.8320  0.2231 -0.9924
 1717SOL    HW211244   8.264   0.331  10.827  0.4757 -1.2831 -3.6955
 1718SOL     OW11245   4.753   3.068   6.445 -0.6708 -0.0981  0.0565
 1718SOL    HW111246   4.754   3.055   6.539 -0.6401 -0.2105  0.0403
 1718SOL    HW211247   4.840   3.103   6.424 -0.4349 -0.7232 -0.0243
 1719SOL     OW11248   0.863   4.832   9.721  0.0451 -0.7153  0.2965
 1719SOL    HW111249   0.793   4.768   9.734  0.4837 -1.4186 -0.6590
 1719SOL    HW211250   0.848   4.866   9.632  0.4888 -0.3299  0.3637
 1720SOL     OW11251   8.217   2.109   1.759 -0.5831 -0.3532 -0.0274
 1720SOL    HW111252   8.135   2.153   1.784 -0.7280 -1.0671  0.8114
 1720SOL    HW211253   8.275   2.123   1.834  0.4719  1.0939 -1.0689
 1721SOL     OW11254   4.300   9.950  10.329 -0.3071 -0.1307 -0.0598
 1721SOL    HW111255   4.272   9.866  10.292 -0.1676  0.2032 -0.9392
 1721SOL    HW211256   4.256   9.954  10.414 -1.5773 -0.3793 -0.6887
 1722SOL     OW11257   3.224   1.855   8.610 -0.4601 -0.2802 -0.2557
 1722SOL    HW111258   3.217   1.943   8.646  2.4432 -0.7157  1.6748
 1722SOL    HW211259   3.156   1.851   8.543  0.6794  4.1822 -2.0379
 1723SOL     OW11260   4.343   7.980   6.814 -0.2319  0.4900  0.7312
 1723SOL    HW111261   4.379   8.016   6.894  1.4378 -2.0185  1.2327
 1723SOL    HW211262   4.413   7.989   6.749 -0.4514 -0.1616  0.3898
 1724SOL     OW11263   7.625   8.475  10.166  0.1619  0.5215 -0.6158
 1724SOL    HW111264   7.699   8.519  10.207 -0.6748  0.7461  0.7147
 1724SOL    HW211265   7.604   8.530  10.090  2.4739 -0.5387 -2.1363
 1725SOL     OW11266   0.196   8.680   6.654 -0.7465 -0.0475 -0.0797
 1725SOL    HW111267   0.175   8.682   6.748 -0.3336 -1.4435  0.0651
 1725SOL    HW211268   0.248   8.601   6.643 -3.6958 -1.9197 -2.0610
 1726SOL     OW11269   8.912   4.290  10.549 -0.4474  0.0172  0.3927
 1726SOL    HW111270   8.993   4.311  10.502 -1.1905  1.2479 -0.4092
 1726SOL    HW211271   8.922   4.199  10.576  2.4294  0.9203  2.8615
 1727SOL     OW11272   4.604   5.018   7.064 -0.4433 -0.5015 -0.5019
 1727SOL    HW111273   4.686   4.974   7.043  1.0304  0.4136  2.6715
 1727SOL    HW211274   4.547   4.949   7.097  0.6869 -0.5826  1.4018
 1728SOL     OW11275   9.671   5.456  10.524  0.6119  0.3687  0.2060
 1728SOL    HW111276   9.728   5.525  10.560  1.0171  0.1574 -0.0190
 1728SOL    HW211277   9.654   5.484  10.434 -1.5275  1.5993  0.9385
 1729SOL     OW11278   3.746  10.163   7.181  0.4055 -0.2575 -0.1958
 1729SOL    HW111279   3.766  10.132   7.093  0.9833  2.2548 -1.0146
 1729SOL    HW211280   3.780  10.094   7.239  2.2404 -0.8292 -1.8606
 1730SOL     OW11281   5.662   8.466   5.694  0.2563  0.3438  0.4136
 1730SOL    HW111282   5.657   8.374   5.720 -0.7631  0.5538  1.0200
 1730SOL    HW211283   5.603   8.472   5.618 -0.5925  0.7192  1.0872
 1731SOL     OW11284   9.619   3.759   5.861 -0.0902  0.0162  0.1188
 1731SOL    HW111285   9.637   3.670   5.891 -1.7913 -0.6797 -0.7693
 1731SOL    HW211286   9.590   3.748   5.771 -0.3010  1.4860 -0.0155
 1732SOL     OW11287   3.434   1.398   1.005  0.2253 -0.1924 -0.1271
 1732SOL    HW111288   3.467   1.317   1.045  2.3991  0.5838 -0.2299
 1732SOL    HW211289   3.512   1.440   0.969 -0.8657  1.9276 -0.1430
 1733SOL     OW11290   6.303   2.231   8.927  0.1246 -0.1333  0.7326
 1733SOL    HW111291   6.393   2.261   8.917  0.3653 -1.2567 -1.0652
 1733SOL    HW211292   6.264   2.242   8.840 -1.6051  0.6523  1.5588
 1734SOL     OW11293   2.050   7.341  10.007  0.1970 -0.4615 -0.0531
 1734SOL    HW111294   2.009   7.303   9.930 -0.1191 -2.2052  0.9307
 1734SOL    HW211295   2.050   7.271  10.072 -0.9884  1.3623  2.0879
 1735SOL     OW11296   0.473  10.601   1.427  0.2905  0.3147  0.2616
 1735SOL    HW111297   0.474  10.631   1.335 -0.6657  2.5071  0.8956
 1735SOL    HW211298   0.549  10.645   1.466  0.7151 -0.6483  0.5309
 1736SOL     OW11299   3.244   8.000   1.397  0.0285  0.1955  0.2981
 1736SOL    HW111300   3.222   8.075   1.342  1.1406 -0.4763 -1.1158
 1736SOL    HW211301   3.160   7.971   1.433 -0.6068  1.2073 -0.3209
 1737SOL     OW11302   6.180   4.230   2.998 -0.3537 -0.0235  0.0684
 1737SOL    HW111303   6.111   4.164   2.989  2.1634 -3.1573  1.8564
 1737SOL    HW211304   6.228   4.205   3.076  2.1985  2.6548 -0.4476
 1738SOL     OW11305   2.985   1.139   2.622  0.4578 -0.2556 -0.0200
 1738SOL    HW111306   2.906   1.104   2.581 -0.1910 -0.7216  1.5585
 1738SOL    HW211307   2.952   1.196   2.692  1.5270  0.9632 -0.4696
 1739SOL     OW11308   7.818   4.653   5.587  0.3334  0.2796 -0.2719
 1739SOL    HW111309   7.907   4.663   5.552  0.4915  0.9489  0.2980
 1739SOL    HW211310   7.815   4.712   5.663 -0.4100 -0.1773  0.0705
 1740SOL     OW11311   8.345   1.873   7.701  0.1970  0.9315  0.1060
 1740SOL    HW111312   8.368   1.790   7.660 -0.6820  1.7514 -2.2359
 1740SOL    HW211313   8.312   1.849   7.788  1.6105 -0.9634  0.1913
 1741SOL     OW11314   3.395   1.628   3.821  0.2402 -0.1549  0.3269
 1741SOL    HW111315   3.478   1.583   3.805  1.0371  0.5547  2.1300
 1741SOL    HW211316   3.392   1.697   3.755  1.3444  0.1225  0.5352
 1742SOL     OW11317   5.635   5.219   5.365  0.0196  0.0217  0.1913
 1742SOL    HW111318   5.657   5.238   5.457 -3.9419  1.2307  1.0951
 1742SOL    HW211319   5.612   5.304   5.328  0.8086 -0.5647 -1.7845
 1743SOL     OW11320   8.638   2.502   5.880  0.3445 -0.3629 -0.4937
 1743SOL    HW111321   8.575   2.533   5.944 -0.3867 -0.6214 -1.0782
 1743SOL    HW211322   8.620   2.409   5.871  0.4177 -0.3214 -1.1003
 1744SOL     OW11323   3.890  10.113   5.247  0.6888 -0.0994  0.2899
 1744SOL    HW111324   3.936  10.080   5.324  2.1142  0.1183 -0.4412
 1744SOL    HW211325   3.826  10.046   5.226 -0.5637  0.3744  2.3569
 1745SOL     OW11326  10.680   7.557   4.402  0.0193 -0.1770 -0.2481
 1745SOL    HW111327  10.621   7.484   4.381  1.4146 -0.9414 -1.7417
 1745SOL    HW211328  10.664   7.622   4.334  0.8588 -0.3847 -0.6569
 1746SOL     OW11329   8.113   9.117   6.715 -0.4026 -0.1084 -0.3180
 1746SOL    HW111330   8.152   9.194   6.755  0.6454  0.4302 -2.2509
 1746SOL    HW211331   8.053   9.151   6.650  0.9306 -0.8471 -2.0147
 1747SOL     OW11332   6.136   1.882   7.932  0.6516 -0.1404 -0.0593
 1747SOL    HW111333   6.209   1.943   7.924  0.3282  0.5169  1.5480
 1747SOL    HW211334   6.162   1.823   8.003 -0.6077  0.5247  1.0213
 1748SOL     OW11335   6.524   1.561   3.834  0.0049 -0.1176  0.1027
 1748SOL    HW111336   6.610   1.525   3.856 -0.6713 -1.7950  0.1852
 1748SOL    HW211337   6.528   1.576   3.739  0.4343 -0.0736  0.1259
 1749SOL     OW11338   7.408   3.432   6.019 -0.3657 -0.2305 -0.0423
 1749SOL    HW111339   7.420   3.367   6.089 -0.0596 -0.7156 -0.5381
 1749SOL    HW211340   7.437   3.387   5.939 -1.9727 -0.1684 -0.7101
 1750SOL     OW11341   8.000   9.550   0.419 -0.1015 -0.2371 -0.5375
 1750SOL    HW111342   7.929   9.540   0.482  0.6380  1.5837  0.6574
 1750SOL    HW211343   8.067   9.600   0.465  2.1379 -2.1457 -1.5261
 1751SOL     OW11344   8.284   7.243   2.168  0.2297  0.0793 -0.1334
 1751SOL    HW111345   8.378   7.245   2.154  0.2153  0.7304 -0.1323
 1751SOL    HW211346   8.250   7.192   2.095  0.4888  0.6419 -0.6524
 1752SOL     OW11347   1.700   8.311  10.176 -0.6339  0.6711  0.1567
 1752SOL    HW111348   1.773   8.317  10.238  0.2129  0.2005 -0.7585
 1752SOL    HW211349   1.628   8.355  10.220  0.5375  2.2344  0.5874
 1753SOL     OW11350   7.379   6.436   7.862 -0.0984  0.1512 -0.0096
 1753SOL    HW111351   7.390   6.391   7.946 -0.5640 -1.5834 -0.8200
 1753SOL    HW211352   7.378   6.365   7.798  1.7456  1.5250 -1.6602
 1754SOL     OW11353   1.647   8.601   3.290  0.1562 -0.7612 -0.2945
 1754SOL    HW111354   1.686   8.632   3.371  1.4446 -2.2717 -0.2818
 1754SOL    HW211355   1.587   8.531   3.317 -0.5545 -0.2590 -0.5370
 1755SOL     OW11356   7.206   2.262   9.094  0.0333 -0.5478  0.2345
 1755SOL    HW111357   7.144   2.283   9.024 -0.6002  1.0393  1.2289
 1755SOL    HW211358   7.205   2.167   9.099 -3.5989 -0.5720  1.2840
 1756SOL     OW11359   6.786   7.609   2.894  0.2413 -0.5540 -0.5265
 1756SOL    HW111360   6.831   7.657   2.963 -0.7382  0.2438 -0.4131
 1756SOL    HW211361   6.759   7.527   2.935 -0.6732  0.0757  0.1839
 1757SOL     OW11362   9.738   3.007   0.110  0.8159  0.0925 -0.1147
 1757SOL    HW111363   9.752   2.913   0.121 -1.1041 -0.5257 -2.1544
 1757SOL    HW211364   9.812   3.037   0.058 -0.4110 -1.1665 -2.7898
 1758SOL     OW11365   8.172   7.201   5.242  0.0170 -0.0663  0.3184
 1758SOL    HW111366   8.201   7.116   5.276 -0.9736 -0.8673 -0.7754
 1758SOL    HW211367   8.145   7.183   5.152 -1.0116  1.2275  0.3380
 1759SOL     OW11368   1.825   0.513   5.370  0.6613  0.1813 -0.3656
 1759SOL    HW111369   1.752   0.464   5.332  0.8472  0.2806 -0.8528
 1759SOL    HW211370   1.783   0.570   5.436  0.5307 -1.1479  0.7503
 1760SOL     OW11371   1.745   7.200   8.283 -0.6260 -0.3419 -0.0578
 1760SOL    HW111372   1.761   7.294   8.274  0.2230 -0.3576  1.0674
 1760SOL    HW211373   1.830   7.163   8.307 -0.7847 -1.5170 -1.1488
 1761SOL     OW11374   3.868   9.075   0.128  0.0619  0.5693 -0.0515
 1761SOL    HW111375   3.866   9.112   0.039 -0.5927 -0.6570 -0.5676
 1761SOL    HW211376   3.951   9.106   0.164  0.5869  0.6766 -1.2747
 1762SOL     OW11377   2.997   8.386   4.778 -0.0678 -0.3120 -0.3321
 1762SOL    HW111378   3.050   8.423   4.849 -0.2659 -1.3899  0.4027
 1762SOL    HW211379   3.053   8.320   4.738 -1.0927 -2.0783  1.0125
 1763SOL     OW11380   0.509   0.982   0.029  0.1273 -0.1712  0.0003
 1763SOL    HW111381   0.440   0.999   0.093  0.3131  0.7703 -0.0425
 1763SOL    HW211382   0.500   1.052  -0.036  0.9577 -0.1871 -0.1385
 1764SOL     OW11383   7.376  10.004   3.508  0.2797 -0.6204  0.1157
 1764SOL    HW111384   7.463  10.004   3.547 -0.3064  0.8068  1.5243
 1764SOL    HW211385   7.370  10.087   3.461 -0.4150 -0.5672  0.2770
 1765SOL     OW11386   0.237   9.442   9.352  0.0692 -0.4208  0.0885
 1765SOL    HW111387   0.182   9.387   9.295  0.5350  0.0266 -0.8150
 1765SOL    HW211388   0.174   9.492   9.405 -0.3680 -1.1543  0.2787
 1766SOL     OW11389   1.697   1.721   5.487  0.1925  0.1844  0.4514
 1766SOL    HW111390   1.682   1.771   5.407  0.6203 -0.1388  0.1690
 1766SOL    HW211391   1.778   1.674   5.472 -0.7173 -1.4004  0.3067
 1767SOL     OW11392   9.507   8.989   8.899  0.5723 -0.3611 -0.2816
 1767SOL    HW111393   9.473   8.900   8.902 -2.8433  0.7029 -1.9177
 1767SOL    HW211394   9.446   9.039   8.954  0.4290  1.4185 -1.9538
 1768SOL     OW11395   5.271   5.909   8.713 -0.4720 -0.1552  0.7109
 1768SOL    HW111396   5.268   5.929   8.807 -0.1212  0.3805  0.6089
 1768SOL    HW211397   5.243   5.990   8.670 -1.2918 -0.6041  0.3678
 1769SOL     OW11398   9.270  10.705   3.470  0.2420 -0.3180  0.5107
 1769SOL    HW111399   9.305  10.655   3.544  1.4361 -0.1272  0.0990
 1769SOL    HW211400   9.195  10.654   3.440 -1.2481  0.3662  2.7838
 1770SOL     OW11401   4.120   4.153   2.185  0.2438 -0.0208  0.8285
 1770SOL    HW111402   4.132   4.086   2.252 -1.1949 -2.0053 -0.7586
 1770SOL    HW211403   4.125   4.105   2.102  0.7589  2.1237 -0.4615
 1771SOL     OW11404   0.554   0.591   4.945  0.1312 -0.1607  0.5050
 1771SOL    HW111405   0.522   0.532   5.013  1.1635  1.2335  2.3140
 1771SOL    HW211406   0.508   0.564   4.865  0.9248 -3.6974  1.0760
 1772SOL     OW11407  10.408   8.559   5.397 -0.1376  0.2133 -0.6089
 1772SOL    HW111408  10.420   8.512   5.314  0.3217  0.3718 -0.6333
 1772SOL    HW211409  10.429   8.493   5.464 -0.7869  0.0025 -0.6075
 1773SOL     OW11410   5.888   6.599   7.048  0.4904  0.0959 -0.2034
 1773SOL    HW111411   5.930   6.679   7.080  0.5878  0.0211 -0.1436
 1773SOL    HW211412   5.883   6.542   7.124  1.1802 -0.2750 -0.4232
 1774SOL     OW11413   4.214   3.944   2.348  0.2333  0.0717  0.0838
 1774SOL    HW111414   4.305   3.920   2.367  0.1124  0.9818  1.9440
 1774SOL    HW211415   4.167   3.927   2.429 -0.8444  1.6726 -0.1580
 1775SOL     OW11416   9.237   3.145   8.010  0.2375 -0.9292  0.6874
 1775SOL    HW111417   9.266   3.102   8.091  1.1700 -1.4058  0.1209
 1775SOL    HW211418   9.162   3.094   7.982  1.9373 -2.9497 -0.5342
 1776SOL     OW11419   4.014   4.816   2.458 -0.1573  0.3062  0.3569
 1776SOL    HW111420   4.045   4.734   2.495 -0.5079 -0.0759 -0.1823
 1776SOL    HW211421   3.999   4.873   2.533  1.4200  0.3557  0.6647
 1777SOL     OW11422   3.552   8.981   4.754  0.0828  0.2197 -0.1777
 1777SOL    HW111423   3.528   8.970   4.661 -3.2836  0.8446  0.4667
 1777SOL    HW211424   3.515   8.904   4.797  0.7062  0.4579  0.7974
 1778SOL     OW11425   5.442   7.427   6.022  0.0036 -0.6388  0.2660
 1778SOL    HW111426   5.499   7.365   5.978 -0.4335 -0.0551 -1.2108
 1778SOL    HW211427   5.354   7.389   6.014 -0.1982 -0.1037 -0.2115
 1779SOL     OW11428   2.867   4.590   0.828 -0.0718 -0.2119 -0.0926
 1779SOL    HW111429   2.776   4.600   0.799 -0.7025 -3.3651  0.5119
 1779SOL    HW211430   2.916   4.571   0.748 -0.1949  0.0444 -0.2307
 1780SOL     OW11431   8.789   5.199   1.022  0.2334  0.2564 -0.1980
 1780SOL    HW111432   8.866   5.235   0.979 -0.0161  0.9355 -0.0952
 1780SOL    HW211433   8.718   5.259   0.999  0.1436  0.8080  1.3417
 1781SOL     OW11434   0.044   7.735   2.702  0.1712 -0.1198 -0.1061
 1781SOL    HW111435   0.037   7.826   2.729  0.9747  0.2013 -0.9258
 1781SOL    HW211436   0.013   7.734   2.611 -1.1815 -0.9324  0.3249
 1782SOL     OW11437   2.781   0.727   1.921 -0.2014  0.5412  0.3025
 1782SOL    HW111438   2.769   0.788   1.847  0.9733 -0.5218 -0.7963
 1782SOL    HW211439   2.783   0.641   1.881  0.6672 -0.0537  1.5753
 1783SOL     OW11440   8.839   8.757   0.832 -0.0664 -0.1815 -0.2088
 1783SOL    HW111441   8.824   8.829   0.770 -0.9621  0.0994  0.2989
 1783SOL    HW211442   8.932   8.738   0.826  0.0417  0.5279 -0.8978
 1784SOL     OW11443   1.557  10.629   4.569 -0.6860  0.4485  0.5930
 1784SOL    HW111444   1.485  10.573   4.537  0.7453 -1.9076  1.2059
 1784SOL    HW211445   1.536  10.644   4.661  0.0126 -1.0232  1.0190
 1785SOL     OW11446   0.436   6.891  10.554 -0.1165  0.1570  0.1355
 1785SOL    HW111447   0.422   6.935  10.638 -0.2680  1.0460 -0.3328
 1785SOL    HW211448   0.527   6.912  10.532  0.0276 -0.3581  0.2342
 1786SOL     OW11449   0.524   1.199   1.995  0.1369  0.0981 -0.0392
 1786SOL    HW111450   0.500   1.291   1.998  1.8075  0.5804 -0.3486
 1786SOL    HW211451   0.589   1.194   1.924  1.2457 -1.0167  1.0175
 1787SOL     OW11452   2.370   9.574   6.775  0.2134  0.0049  0.0682
 1787SOL    HW111453   2.375   9.479   6.769 -0.5513 -0.0649  0.3931
 1787SOL    HW211454   2.276   9.593   6.776  0.3243  0.9122 -2.0038
 1788SOL     OW11455   5.541   2.452   9.905  0.2810 -0.7271 -0.6108
 1788SOL    HW111456   5.455   2.423   9.874  0.9902 -2.5538 -0.9995
 1788SOL    HW211457   5.527   2.481   9.995 -0.4690 -2.6613 -0.0610
 1789SOL     OW11458   5.713   7.740   7.905  0.8609 -0.2012  0.2732
 1789SOL    HW111459   5.775   7.811   7.923  1.4876 -1.0603  1.6180
 1789SOL    HW211460   5.745   7.666   7.956  0.1705 -1.4487 -1.0577
 1790SOL     OW11461  10.771   2.891   9.853  1.0729  0.1428 -0.1649
 1790SOL    HW111462  10.790   2.798   9.865 -1.6350 -0.5398 -0.4319
 1790SOL    HW211463  10.700   2.908   9.915  2.0225  2.2577  0.4045
 1791SOL     OW11464   0.681   1.996   8.817  0.5711  0.9499  0.1572
 1791SOL    HW111465   0.614   1.973   8.881  1.5175 -1.7260  0.3051
 1791SOL    HW211466   0.742   2.052   8.865 -0.1411  1.2018  0.7935
 1792SOL     OW11467   8.389  10.298   2.027 -0.1882 -0.4167  0.1400
 1792SOL    HW111468   8.484  10.290   2.021 -0.3086 -0.9102 -1.9669
 1792SOL    HW211469   8.374  10.390   2.049  0.7730 -0.4282  0.8838
 1793SOL     OW11470   4.532   3.639   7.543  0.2359  0.3612 -0.2830
 1793SOL    HW111471   4.527   3.717   7.488 -2.6887  2.1007  2.1278
 1793SOL    HW211472   4.595   3.661   7.612 -0.3088  0.4645  0.1890
 1794SOL     OW11473   3.998   8.498   3.049  0.3236  0.0372 -0.4322
 1794SOL    HW111474   4.067   8.526   2.989  0.3018  1.2888  0.0951
 1794SOL    HW211475   4.042   8.442   3.112  0.9317  1.0141  0.0359
 1795SOL     OW11476   1.249   7.659   2.007 -0.0476  0.1739 -0.1924
 1795SOL    HW111477   1.237   7.612   2.090 -1.1342 -0.6399 -0.7817
 1795SOL    HW211478   1.221   7.749   2.026  1.2361  0.4061  0.7226
 1796SOL     OW11479   5.819   9.116   2.884  0.3850  0.0753 -0.0260
 1796SOL    HW111480   5.863   9.054   2.942 -1.3165  0.0082  1.2717
 1796SOL    HW211481   5.726   9.109   2.908 -0.5722 -0.7216 -3.4962
 1797SOL     OW11482   0.432   5.752  10.908 -0.4676 -0.2122  0.1160
 1797SOL    HW111483   0.394   5.771  10.822 -0.1515 -0.6492 -0.1247
 1797SOL    HW211484   0.527   5.754  10.893 -0.3673  1.1502  0.7715
 1798SOL     OW11485   0.857   8.341   4.213 -0.3392  0.3808 -0.9337
 1798SOL    HW111486   0.952   8.343   4.219 -0.3163 -0.9817 -0.5204
 1798SOL    HW211487   0.832   8.256   4.249 -1.6225  0.1598 -2.2356
 1799SOL     OW11488   8.762   2.813   9.744  0.4181  0.2151 -0.4152
 1799SOL    HW111489   8.800   2.888   9.698 -0.0211  2.4305  2.5094
 1799SOL    HW211490   8.670   2.812   9.717  0.2859  1.1705 -0.0608
 1800SOL     OW11491   5.367  10.523   0.203 -0.4669  0.2297  0.0773
 1800SOL    HW111492   5.303  10.468   0.250  0.1171 -1.5057 -1.0528
 1800SOL    HW211493   5.450  10.477   0.214  0.0074  0.7820 -1.0850
 1801SOL     OW11494   4.169   6.819   1.105 -0.5533  0.2987  0.3175
 1801SOL    HW111495   4.136   6.749   1.161 -0.3440 -0.2927 -0.2894
 1801SOL    HW211496   4.098   6.883   1.103 -2.0362 -1.3107 -1.6115
 1802SOL     OW11497   5.652   4.049   6.751 -0.0113 -0.2064  0.1998
 1802SOL    HW111498   5.698   4.127   6.784  1.1314 -0.8279  0.1488
 1802SOL    HW211499   5.568   4.050   6.796 -0.1343  1.2087 -0.0206
 1803SOL     OW11500   3.940   3.581   2.128 -0.4037  0.3231  0.5358
 1803SOL    HW111501   3.992   3.587   2.208 -1.4581  3.1549  1.1167
 1803SOL    HW211502   3.984   3.639   2.066 -1.8191  1.3913  0.4724
 1804SOL     OW11503   6.169   4.113   4.888  0.1147  0.3651 -0.3075
 1804SOL    HW111504   6.076   4.093   4.882  0.0215  0.6628  0.1247
 1804SOL    HW211505   6.192   4.092   4.978  0.0864  1.8804  0.0659
 1805SOL     OW11506   2.040   3.204  10.930  0.7890  0.2730  0.5439
 1805SOL    HW111507   2.128   3.177  10.906 -0.9093 -2.8263 -3.6102
 1805SOL    HW211508   2.020   3.277  10.871 -0.2178 -0.9214 -0.6782
 1806SOL     OW11509   8.704   1.760   5.169 -0.0115 -0.4847 -0.1448
 1806SOL    HW111510   8.645   1.761   5.245 -0.3683 -0.7065 -0.4127
 1806SOL    HW211511   8.757   1.839   5.179 -1.0365  0.2614 -0.4207
 1807SOL     OW11512   8.196   1.691   1.424  0.2907 -0.0322 -0.1608
 1807SOL    HW111513   8.288   1.677   1.448  0.1667 -0.7573 -0.0978
 1807SOL    HW211514   8.199   1.759   1.356  0.8320  0.2995  0.1867
 1808SOL     OW11515   7.012   1.844   5.250  0.1674  0.0002  0.0283
 1808SOL    HW111516   6.934   1.789   5.246  0.0498  0.1144  0.6929
 1808SOL    HW211517   6.979   1.932   5.268  0.4619  0.0214  0.4709
 1809SOL     OW11518   1.924   4.960  10.282  0.6664 -0.0550  0.4906
 1809SOL    HW111519   1.852   4.989  10.337  1.3609  0.9436  0.9105
 1809SOL    HW211520   2.003   4.977  10.334  1.2065 -1.5015  0.2185
 1810SOL     OW11521   2.237   1.118   6.178 -0.0376 -0.7643 -0.1087
 1810SOL    HW111522   2.301   1.055   6.148 -1.4641 -2.3550  0.0448
 1810SOL    HW211523   2.170   1.066   6.222 -1.1496  0.8762  0.2557
 1811SOL     OW11524   5.181   7.685   4.187  0.3984  0.2190  0.6681
 1811SOL    HW111525   5.254   7.665   4.246  0.6158 -2.9863 -0.4682
 1811SOL    HW211526   5.219   7.679   4.100 -0.7279  1.0957  0.0953
 1812SOL     OW11527   5.412   5.826   6.839 -0.0475 -0.3990  0.3529
 1812SOL    HW111528   5.365   5.881   6.902  1.6103 -0.7923  2.0187
 1812SOL    HW211529   5.477   5.885   6.801 -0.0662 -0.5386  0.1025
 1813SOL     OW11530   9.116   6.189   5.443 -0.3383  0.1717  0.2840
 1813SOL    HW111531   9.023   6.194   5.421 -0.1843  2.3476 -0.0640
 1813SOL    HW211532   9.160   6.170   5.361 -0.5264 -2.2203  0.6772
 1814SOL     OW11533   3.113  10.920   7.091 -0.1262 -0.1571  0.3979
 1814SOL    HW111534   3.061  10.943   7.168 -0.8176 -1.4040  0.3261
 1814SOL    HW211535   3.195  10.967   7.102 -1.9801  3.7213 -0.5443
 1815SOL     OW11536  10.458   0.175   6.044 -0.2489 -0.4049 -0.3245
 1815SOL    HW111537  10.445   0.133   5.959  0.2351 -0.5535 -0.3265
 1815SOL    HW211538  10.462   0.269   6.023 -1.3973 -0.3389 -0.3109
 1816SOL     OW11539   0.867   5.451   0.811 -0.2013  0.1663  0.4839
 1816SOL    HW111540   0.931   5.383   0.790 -0.9916 -0.5750  0.4265
 1816SOL    HW211541   0.863   5.505   0.732 -0.9321 -0.8183 -0.1641
 1817SOL     OW11542   9.363   0.462   5.551 -0.4925 -0.0965  0.2464
 1817SOL    HW111543   9.401   0.546   5.577 -1.1665  0.5604 -0.7879
 1817SOL    HW211544   9.324   0.427   5.631  0.5987  0.1287  0.8967
 1818SOL     OW11545   6.414   7.203  10.028  0.6423 -0.0847 -0.0203
 1818SOL    HW111546   6.406   7.203   9.932  1.5824 -0.1983 -0.1102
 1818SOL    HW211547   6.429   7.112  10.051  1.7308  0.1091  0.0982
 1819SOL     OW11548   0.979   0.321   2.987  0.3360  0.3798  0.6701
 1819SOL    HW111549   0.986   0.236   3.031  2.2887  0.0924 -0.0788
 1819SOL    HW211550   0.913   0.369   3.036  0.6892 -0.8199  2.3834
 1820SOL     OW11551   4.618   2.550   7.560 -0.1775  0.0789 -0.2804
 1820SOL    HW111552   4.578   2.486   7.618 -2.0196 -1.4192 -2.9610
 1820SOL    HW211553   4.711   2.526   7.558 -0.6292 -1.8101 -0.3077
 1821SOL     OW11554   7.426   2.608   3.758 -0.0722 -0.1790  0.5364
 1821SOL    HW111555   7.341   2.636   3.792  0.5194 -0.2729  2.2354
 1821SOL    HW211556   7.425   2.513   3.767 -0.1416 -0.2650 -0.3470
 1822SOL     OW11557   1.891   3.276   0.259 -0.4894  0.4455 -0.4213
 1822SOL    HW111558   1.927   3.249   0.174 -0.7930 -0.3102 -0.3156
 1822SOL    HW211559   1.968   3.282   0.316 -0.3898  0.0470 -0.5117
 1823SOL     OW11560   5.964   0.411   8.518 -0.6048  0.0371 -0.5909
 1823SOL    HW111561   5.932   0.411   8.427 -1.2371 -1.0241 -0.3861
 1823SOL    HW211562   6.058   0.393   8.510 -0.7754 -0.7263 -1.0112
 1824SOL     OW11563   9.707   6.969   2.531 -0.4551 -0.1687 -0.1312
 1824SOL    HW111564   9.642   6.899   2.520 -0.4853 -0.0588 -0.6499
 1824SOL    HW211565   9.728   6.967   2.624 -2.3017  0.7647  0.3574
 1825SOL     OW11566   1.047   7.641   3.293  0.1236  0.6107 -0.1275
 1825SOL    HW111567   0.975   7.692   3.257 -0.1888  0.3752  0.1662
 1825SOL    HW211568   1.059   7.675   3.382 -1.0257 -0.7664  0.5978
 1826SOL     OW11569   1.399   0.995   9.643 -0.0744 -0.5411  0.0973
 1826SOL    HW111570   1.320   0.979   9.694 -0.6335 -1.1051 -0.9173
 1826SOL    HW211571   1.411   0.915   9.591  1.9627 -1.0456  1.2537
 1827SOL     OW11572   7.545   3.192  10.299  0.3483 -0.3376  0.0624
 1827SOL    HW111573   7.626   3.241  10.284  0.1356 -0.0622 -0.1948
 1827SOL    HW211574   7.492   3.207  10.221 -0.4567  0.4904  0.7446
 1828SOL     OW11575   8.627   2.353   4.682  0.3896  0.1969 -0.3403
 1828SOL    HW111576   8.533   2.355   4.661 -0.2522 -2.4745  1.6422
 1828SOL    HW211577   8.634   2.403   4.763 -0.2036 -2.6909  1.6970
 1829SOL     OW11578   4.589   6.294   3.638  0.4229 -0.0299  0.4616
 1829SOL    HW111579   4.622   6.256   3.557 -0.4067  0.2679 -0.0264
 1829SOL    HW211580   4.556   6.381   3.613  0.5719  0.2472  1.1992
 1830SOL     OW11581   7.154   6.960   7.375 -0.6665  0.4169 -0.3549
 1830SOL    HW111582   7.095   6.988   7.305 -0.0484 -0.8955 -1.4486
 1830SOL    HW211583   7.117   6.877   7.406  0.9880 -0.8620 -1.6330
 1831SOL     OW11584   5.109   0.255   4.880  0.0243 -0.0695 -0.4478
 1831SOL    HW111585   5.018   0.283   4.874 -0.4702 -1.4524  0.1596
 1831SOL    HW211586   5.145   0.304   4.954 -0.6174 -0.4685  0.1424
 1832SOL     OW11587   2.446   5.167  10.552 -0.3202  0.5295 -0.3302
 1832SOL    HW111588   2.527   5.129  10.519 -0.2136  0.1817  0.3201
 1832SOL    HW211589   2.454   5.260  10.533  0.8657  0.7234  0.9844
 1833SOL     OW11590   8.176   2.511   4.954  0.0392 -0.1353  0.2567
 1833SOL    HW111591   8.085   2.496   4.928  0.1954 -0.7874  0.0723
 1833SOL    HW211592   8.171   2.574   5.026 -0.5657 -0.2583  0.3218
 1834SOL     OW11593   2.462   4.194   0.803 -0.0534  0.8989 -0.1661
 1834SOL    HW111594   2.428   4.106   0.818 -1.6569  1.0818 -2.2599
 1834SOL    HW211595   2.420   4.248   0.870 -2.3462  0.7208 -1.3579
 1835SOL     OW11596   9.267   8.174   6.924 -0.3121 -0.0035 -0.4558
 1835SOL    HW111597   9.185   8.140   6.959 -0.8472  1.9451  0.3336
 1835SOL    HW211598   9.244   8.207   6.837 -0.2764  0.1763 -0.3978
 1836SOL     OW11599   0.018   0.115   7.474  0.1130  0.2738 -0.0936
 1836SOL    HW111600   0.111   0.110   7.451  0.5753  0.3368  1.6282
 1836SOL    HW211601  -0.028   0.086   7.395  1.6790 -2.7188 -0.0247
 1837SOL     OW11602   0.476   9.504   5.272 -0.1024 -0.0472  0.2878
 1837SOL    HW111603   0.513   9.432   5.323  1.2725  0.3238 -0.1451
 1837SOL    HW211604   0.396   9.467   5.234  0.6588 -1.4173 -0.0727
 1838SOL     OW11605   6.810  10.424   4.138  0.5463 -0.0297 -1.2057
 1838SOL    HW111606   6.850  10.506   4.109  2.4982  0.2018  1.6686
 1838SOL    HW211607   6.853  10.357   4.085  1.5184  0.5638 -1.2046
 1839SOL     OW11608   8.745  10.120   1.862 -0.3523  0.2994  0.1210
 1839SOL    HW111609   8.827  10.070   1.866  0.1125  1.0389 -0.0746
 1839SOL    HW211610   8.738  10.161   1.948 -0.0599  0.9397 -0.1533
 1840SOL     OW11611   3.806   5.588   9.965 -0.4077  0.0301 -0.2564
 1840SOL    HW111612   3.784   5.668  10.013 -1.2052 -0.2989 -0.0699
 1840SOL    HW211613   3.901   5.579   9.977 -0.5873 -0.0443  1.2533
 1841SOL     OW11614   4.425   2.821   9.101 -0.1469  0.2898 -0.1983
 1841SOL    HW111615   4.400   2.778   9.019  0.1361 -0.4391  0.0892
 1841SOL    HW211616   4.514   2.854   9.085  0.0787 -0.2362 -0.0430
 1842SOL     OW11617   9.630   8.283   3.476  0.2140  0.0462  0.0351
 1842SOL    HW111618   9.562   8.350   3.481  1.2016  0.9938  1.8340
 1842SOL    HW211619   9.582   8.200   3.470 -1.0654  0.7521  0.2477
 1843SOL     OW11620   3.479   8.454   4.926 -0.3858 -0.1834  0.3272
 1843SOL    HW111621   3.466   8.379   4.984  1.0186 -0.2215  0.6207
 1843SOL    HW211622   3.542   8.423   4.861  0.8397  0.9675  0.9248
 1844SOL     OW11623   3.449   8.231   6.060  0.3155  0.1025 -0.6945
 1844SOL    HW111624   3.440   8.144   6.020  1.0763 -0.3764  0.1285
 1844SOL    HW211625   3.454   8.291   5.986 -2.2403 -0.2924 -1.3024
 1845SOL     OW11626   7.219   5.883   9.726  0.4125  0.2558 -0.2125
 1845SOL    HW111627   7.208   5.790   9.747  0.6818  0.2401 -0.1394
 1845SOL    HW211628   7.167   5.929   9.792  1.3736  0.2134  0.5804
 1846SOL     OW11629   6.312   2.732   7.767 -0.1819  0.1092  0.7295
 1846SOL    HW111630   6.320   2.664   7.700  0.1269  0.9141 -0.0863
 1846SOL    HW211631   6.392   2.784   7.757 -1.3841  1.9209 -0.2234
 1847SOL     OW11632   7.183   1.348   4.557  1.2182  0.1251 -1.0247
 1847SOL    HW111633   7.201   1.442   4.552 -2.5224  1.3840  3.0712
 1847SOL    HW211634   7.104   1.336   4.505  0.5234 -0.2753  0.0942
 1848SOL     OW11635   5.448  10.635   4.810  0.2837  0.0756  0.2596
 1848SOL    HW111636   5.521  10.643   4.748 -0.8952  0.7821 -1.0832
 1848SOL    HW211637   5.490  10.634   4.896  1.9751 -1.0676 -0.5357
 1849SOL     OW11638  10.773   5.714   0.712  0.0999 -0.3945 -0.4090
 1849SOL    HW111639  10.708   5.646   0.693  1.9717 -2.5253  0.3584
 1849SOL    HW211640  10.807   5.691   0.798 -0.1570  2.4087  0.5637
 1850SOL     OW11641   3.007   2.015   2.339 -0.7819 -0.6099 -0.5072
 1850SOL    HW111642   3.015   2.107   2.365  0.3006 -0.8080 -0.1080
 1850SOL    HW211643   3.089   1.995   2.294 -1.8012 -0.8404 -2.4131
 1851SOL     OW11644   4.113   9.552   5.611 -0.1129  0.3936  0.1625
 1851SOL    HW111645   4.020   9.571   5.595  0.3182  1.3597 -1.3361
 1851SOL    HW211646   4.142   9.621   5.671  0.1008  1.2468 -0.9083
 1852SOL     OW11647  10.187   5.848   8.663 -0.3904  0.4527 -0.7534
 1852SOL    HW111648  10.235   5.924   8.694 -2.4506  2.3821 -1.9956
 1852SOL    HW211649  10.226   5.774   8.709  1.4807  2.2789  0.7542
 1853SOL     OW11650   5.589  10.086   8.046 -0.2700 -0.1341 -0.0964
 1853SOL    HW111651   5.658  10.046   8.098  0.9150  1.8874 -0.0042
 1853SOL    HW211652   5.617  10.177   8.035 -1.4908  0.0302 -2.5289
 1854SOL     OW11653   4.947   6.874   1.780 -0.3646  0.4611  0.3811
 1854SOL    HW111654   4.859   6.854   1.813 -0.7779  0.4071 -0.7364
 1854SOL    HW211655   5.005   6.846   1.851 -1.1562 -0.8716  0.5419
 1855SOL     OW11656  10.615   0.618   3.790  0.1001  0.1698  0.1135
 1855SOL    HW111657  10.691   0.666   3.822  0.4040  1.5992 -2.5426
 1855SOL    HW211658  10.561   0.684   3.748 -0.9423 -1.3713 -1.0834
 1856SOL     OW11659   7.202   5.575   8.551  0.0944 -0.2567  0.3805
 1856SOL    HW111660   7.244   5.489   8.547 -0.4982 -0.5253 -0.4465
 1856SOL    HW211661   7.137   5.567   8.621 -0.0149 -0.5144  0.2517
 1857SOL     OW11662   3.673   8.716   9.496 -0.0304  0.3395 -0.3384
 1857SOL    HW111663   3.713   8.657   9.432 -1.8649 -0.3267 -0.9576
 1857SOL    HW211664   3.652   8.660   9.571 -2.5097 -0.0551 -1.2454
 1858SOL     OW11665   9.480   7.771   6.420  0.1808  0.4541 -0.2509
 1858SOL    HW111666   9.443   7.722   6.494  1.1813  0.3986  0.2259
 1858SOL    HW211667   9.526   7.845   6.461  0.7337  0.4273 -0.8154
 1859SOL     OW11668   4.789   8.180   8.840  0.2592  0.0849  0.1509
 1859SOL    HW111669   4.834   8.253   8.884  0.9200  0.1298 -0.5847
 1859SOL    HW211670   4.815   8.187   8.749 -0.1442 -0.7312 -0.0353
 1860SOL     OW11671   7.747   4.384   7.781  0.0858 -0.2050  0.2127
 1860SOL    HW111672   7.676   4.366   7.720  0.6850  0.7971 -0.8238
 1860SOL    HW211673   7.809   4.437   7.731  0.0308  1.7276  2.0375
 1861SOL     OW11674   4.281   9.137   7.197  0.1919 -0.3336 -0.2518
 1861SOL    HW111675   4.310   9.119   7.107 -1.1934  0.9287 -1.0107
 1861SOL    HW211676   4.304   9.229   7.211  0.9434 -0.6789  0.9436
 1862SOL     OW11677   2.934   7.509   0.062 -0.1575 -0.2867  0.0645
 1862SOL    HW111678   2.964   7.563  -0.011  1.4099  2.0318  2.2481
 1862SOL    HW211679   2.845   7.541   0.080 -1.2280 -2.0289 -1.7680
 1863SOL     OW11680   4.840   9.887   8.664  0.0249  0.2922  0.5772
 1863SOL    HW111681   4.748   9.905   8.685 -0.2897 -0.7312  0.1726
 1863SOL    HW211682   4.867   9.960   8.609 -1.0065 -0.1087 -0.5168
 1864SOL     OW11683   4.115   0.035  10.264 -0.1640  0.0463 -0.5975
 1864SOL    HW111684   4.172   0.112  10.264 -0.4611  0.3090  1.1119
 1864SOL    HW211685   4.174  -0.038  10.281 -0.3190  0.3869  1.8146
 1865SOL     OW11686   3.265   2.729   9.288 -0.8357  0.4182  0.1537
 1865SOL    HW111687   3.240   2.683   9.208  0.0322  0.5786 -0.2215
 1865SOL    HW211688   3.257   2.822   9.266  0.0635  0.4740  0.0198
 1866SOL     OW11689   2.532   7.268   0.411  0.5661 -0.0275 -0.0068
 1866SOL    HW111690   2.442   7.240   0.398  0.4466 -0.1535  1.0058
 1866SOL    HW211691   2.535   7.357   0.377  0.2308 -0.2576 -0.6497
 1867SOL     OW11692   5.811   6.050   1.916 -0.3390 -0.3161 -0.2076
 1867SOL    HW111693   5.736   6.050   1.975 -0.0342 -0.3730  0.1765
 1867SOL    HW211694   5.861   6.127   1.939  0.5330 -1.0937  0.5689
 1868SOL     OW11695   7.015   2.936   2.123  0.0661  0.4118 -0.2577
 1868SOL    HW111696   7.047   2.979   2.044  1.1268  2.0647  1.0041
 1868SOL    HW211697   7.033   2.998   2.193 -2.1134 -0.3848  1.1275
 1869SOL     OW11698   5.096   5.316  10.913  0.6199  0.0585  0.1854
 1869SOL    HW111699   5.115   5.236  10.963 -0.0469 -1.0189 -1.2175
 1869SOL    HW211700   5.116   5.293  10.823  1.4795  1.8662 -0.1278
 1870SOL     OW11701   9.943   8.926   7.751 -0.1174  0.2945 -0.0721
 1870SOL    HW111702   9.972   8.900   7.838  0.0421 -1.2868 -0.5582
 1870SOL    HW211703  10.018   8.971   7.713  0.9884 -1.7279 -0.4719
 1871SOL     OW11704  10.491   0.771   7.296 -0.7046 -0.5245  0.0202
 1871SOL    HW111705  10.551   0.709   7.254  1.0022  1.1017 -0.0605
 1871SOL    HW211706  10.519   0.772   7.388 -1.9932 -1.2750  0.4443
 1872SOL     OW11707   5.323   6.839   8.976  0.3517  0.4221  0.2071
 1872SOL    HW111708   5.264   6.899   9.022  0.7111 -0.4764  1.9194
 1872SOL    HW211709   5.392   6.896   8.941 -0.7880  1.3184 -0.6739
 1873SOL     OW11710  10.021   5.716   4.538 -0.0033  0.0680  0.1555
 1873SOL    HW111711  10.010   5.810   4.544  0.0356  0.1565 -1.0290
 1873SOL    HW211712   9.946   5.679   4.584 -0.9231  0.6762 -0.8309
 1874SOL     OW11713   5.138   6.406   8.216  0.3475  0.5616  0.1716
 1874SOL    HW111714   5.072   6.346   8.253 -1.0611  0.9638 -1.5383
 1874SOL    HW211715   5.221   6.377   8.253 -0.6336 -0.7760  1.4241
 1875SOL     OW11716   4.144   5.583   9.296  0.0686  0.0110 -0.5562
 1875SOL    HW111717   4.218   5.621   9.344  0.1989  0.2588 -0.9511
 1875SOL    HW211718   4.067   5.625   9.336  0.0743 -0.8396  0.3971
 1876SOL     OW11719   5.163  10.550   5.078 -0.2328 -0.1439 -0.1572
 1876SOL    HW111720   5.169  10.467   5.125 -2.4268  0.1519  0.7998
 1876SOL    HW211721   5.114  10.530   4.999 -1.3066  0.3205  0.3750
 1877SOL     OW11722   7.190   5.596   9.754  0.5849 -0.0038 -0.0372
 1877SOL    HW111723   7.138   5.538   9.810 -1.0488  0.1006 -1.3717
 1877SOL    HW211724   7.264   5.542   9.726 -0.5264 -1.2493 -0.6784
 1878SOL     OW11725   5.395   2.782   9.392 -0.9599  0.0338  0.3630
 1878SOL    HW111726   5.369   2.871   9.370 -0.0003  0.2893  0.2120
 1878SOL    HW211727   5.337   2.757   9.465 -0.5602  1.1484  1.0823
 1879SOL     OW11728   2.340   7.074   4.306 -0.0500 -0.0270 -0.2238
 1879SOL    HW111729   2.290   7.106   4.230  0.3957  1.9533  0.2449
 1879SOL    HW211730   2.283   7.095   4.381  1.8377  3.4868  0.4520
 1880SOL     OW11731   3.090   1.563   6.907  0.6145  0.1540 -0.1400
 1880SOL    HW111732   3.014   1.508   6.889  1.5664 -1.9303  1.7610
 1880SOL    HW211733   3.057   1.632   6.963  0.1557 -1.0275  1.1029
 1881SOL     OW11734   3.274   9.491   6.258  0.1509  0.0386 -0.4319
 1881SOL    HW111735   3.360   9.457   6.284  0.0679  0.7948  0.9785
 1881SOL    HW211736   3.262   9.462   6.168  1.6819 -0.4789 -0.4954
 1882SOL     OW11737   1.665   9.446   0.887 -0.0309 -0.3703  0.2770
 1882SOL    HW111738   1.615   9.369   0.862 -0.3097 -0.9629  2.4265
 1882SOL    HW211739   1.605   9.519   0.872 -1.0038 -0.9215  1.2940
 1883SOL     OW11740   9.229   2.664   4.926 -0.5592 -0.1419 -0.1694
 1883SOL    HW111741   9.232   2.659   4.831  0.1156 -0.5566 -0.1339
 1883SOL    HW211742   9.286   2.738   4.948 -0.5161 -0.2041 -0.0724
 1884SOL     OW11743   1.617   9.836   5.160  0.0537  0.1986  0.5542
 1884SOL    HW111744   1.710   9.814   5.162  0.4007  1.6165  1.5778
 1884SOL    HW211745   1.611   9.910   5.100 -0.4335  0.0563  0.4208
 1885SOL     OW11746   5.660   9.938   5.633 -0.1114 -0.3312 -0.2377
 1885SOL    HW111747   5.587   9.880   5.655  0.3887 -0.7058  0.4690
 1885SOL    HW211748   5.718   9.934   5.709  0.0769  0.8754 -0.2937
 1886SOL     OW11749   9.992   1.653   3.680  0.2979 -0.1781  0.2301
 1886SOL    HW111750   9.978   1.719   3.612  1.1676  0.1648  0.3726
 1886SOL    HW211751  10.077   1.615   3.659 -0.9175 -2.4875 -0.8573
 1887SOL     OW11752  10.668   2.823   9.618  0.5333  0.3875  0.6919
 1887SOL    HW111753  10.723   2.865   9.553 -0.1020 -0.0417 -0.1409
 1887SOL    HW211754  10.696   2.861   9.702  0.3169  2.0505  0.0274
 1888SOL     OW11755   7.908   4.972   0.481  0.4195 -0.5656  0.2172
 1888SOL    HW111756   7.836   5.030   0.506  1.7755  1.7001 -0.7942
 1888SOL    HW211757   7.867   4.904   0.428 -0.8942  1.1950 -1.1437
 1889SOL     OW11758   5.958   9.124   6.275  0.3016 -0.0405 -0.5086
 1889SOL    HW111759   5.937   9.031   6.266 -0.2187 -0.1012  1.0578
 1889SOL    HW211760   5.918   9.165   6.198  0.0300 -1.0319 -0.9166
 1890SOL     OW11761   2.019   6.959   4.839  0.3579 -0.0691 -0.1374
 1890SOL    HW111762   1.972   7.023   4.786 -0.7641 -0.9866 -0.2849
 1890SOL    HW211763   1.971   6.955   4.921 -0.1174 -1.3282 -0.4526
 1891SOL     OW11764   1.509   4.330   3.770  0.0935 -0.5375  0.1623
 1891SOL    HW111765   1.498   4.407   3.714  0.9161 -0.7417 -0.2976
 1891SOL    HW211766   1.593   4.293   3.743  0.8046 -0.2980  1.9490
 1892SOL     OW11767   2.269   5.609   1.366  0.5607 -0.1809 -0.2391
 1892SOL    HW111768   2.331   5.681   1.376 -0.1105  0.5018 -0.9108
 1892SOL    HW211769   2.188   5.651   1.336  0.1790 -1.2200 -0.6899
 1893SOL     OW11770   6.266  10.199  10.785 -0.4074  0.7285 -0.1360
 1893SOL    HW111771   6.199  10.131  10.783 -0.4002  0.6654  0.8558
 1893SOL    HW211772   6.254  10.249  10.705  0.0672 -0.8887 -1.2565
 1894SOL     OW11773   6.954   3.024   9.217 -0.7243 -0.1890  0.0225
 1894SOL    HW111774   7.023   2.983   9.268 -2.2849 -1.7983  0.9862
 1894SOL    HW211775   6.877   3.022   9.275 -1.0954  3.6471 -0.0901
 1895SOL     OW11776   4.956   0.682   5.666 -0.5268 -0.0865 -0.3753
 1895SOL    HW111777   5.004   0.606   5.697 -1.3837  0.0470  1.4473
 1895SOL    HW211778   4.864   0.655   5.667 -0.8019  0.7992 -0.1468
 1896SOL     OW11779   3.161   4.072   6.674 -0.6279 -0.5647 -0.1156
 1896SOL    HW111780   3.104   4.127   6.621 -0.0638  0.0990 -0.0578
 1896SOL    HW211781   3.104   4.032   6.739 -0.6670  2.4622  1.9401
 1897SOL     OW11782   1.326   3.342   3.755  0.3118  0.4855  0.5245
 1897SOL    HW111783   1.252   3.319   3.811 -1.3840 -0.0795 -1.8335
 1897SOL    HW211784   1.388   3.270   3.767 -0.9014 -0.6426  0.2063
 1898SOL     OW11785   1.575   3.234   1.218  0.1771  0.1414  0.1376
 1898SOL    HW111786   1.563   3.255   1.311  1.8447 -0.4574  0.5326
 1898SOL    HW211787   1.629   3.306   1.184  2.0893 -1.0789  0.4052
 1899SOL     OW11788   3.457   6.247   5.905 -0.4504 -0.0264 -0.2117
 1899SOL    HW111789   3.537   6.198   5.887 -1.3966 -1.9414  0.4499
 1899SOL    HW211790   3.415   6.258   5.820  0.5840  1.1912 -0.5945
 1900SOL     OW11791   3.517   9.628   5.836  0.1765  0.5775  0.4256
 1900SOL    HW111792   3.476   9.648   5.752 -0.9009  0.2190  0.8419
 1900SOL    HW211793   3.604   9.596   5.814 -0.2902 -0.0213 -0.5959
 1901SOL     OW11794   0.550   1.337   0.157 -0.0284  0.1476  0.2409
 1901SOL    HW111795   0.589   1.259   0.196 -0.7847  0.5445  1.8787
 1901SOL    HW211796   0.515   1.307   0.073  0.2119 -1.1320  0.5832
 1902SOL     OW11797   7.363   6.701   6.963 -0.3259 -0.5165 -0.4333
 1902SOL    HW111798   7.341   6.794   6.962  1.4641 -0.0226  0.7805
 1902SOL    HW211799   7.418   6.687   6.886 -0.6519 -0.6036 -0.6542
 1903SOL     OW11800   3.053   6.147   2.920 -0.5172  0.0814 -0.1403
 1903SOL    HW111801   3.113   6.077   2.894 -0.2625  0.7360 -1.4019
 1903SOL    HW211802   2.977   6.136   2.864 -0.2370  1.1312 -0.7728
 1904SOL     OW11803   0.253   9.951   4.463 -0.0816 -0.2115  0.0973
 1904SOL    HW111804   0.246  10.046   4.460  0.2486 -0.2099 -0.9098
 1904SOL    HW211805   0.183   9.924   4.522 -0.7969  0.5961 -0.3543
 1905SOL     OW11806   6.066  10.144   1.689 -0.2152 -0.3441 -0.6422
 1905SOL    HW111807   6.062  10.239   1.699  0.5180 -0.4908  1.5735
 1905SOL    HW211808   6.159  10.124   1.677 -0.4235 -0.7651 -1.6971
 1906SOL     OW11809  10.866   4.573   0.207 -0.1776 -0.3069 -0.2205
 1906SOL    HW111810  10.910   4.490   0.228 -0.4837  0.0645  2.2118
 1906SOL    HW211811  10.913   4.638   0.260 -1.2507  0.7161 -0.5043
 1907SOL     OW11812   7.599  10.019   9.193 -0.0945 -0.2439  0.3949
 1907SOL    HW111813   7.525   9.997   9.249 -0.5276 -1.7203 -0.7035
 1907SOL    HW211814   7.560  10.065   9.118  0.0119 -1.3783 -0.3835
 1908SOL     OW11815   9.468   5.822   0.649  0.0711  0.4509  0.2433
 1908SOL    HW111816   9.458   5.855   0.738  1.3586 -0.0089  0.5682
 1908SOL    HW211817   9.432   5.892   0.594 -1.1617  0.5522  1.1189
 1909SOL     OW11818   1.374   8.552   6.952 -0.3280  0.1227 -0.8290
 1909SOL    HW111819   1.338   8.632   6.913 -1.5901  0.0506  0.1223
 1909SOL    HW211820   1.305   8.521   7.010  0.9156 -0.5948  0.3118
 1910SOL     OW11821   4.036   5.095   2.570  0.1009  0.2785  0.6648
 1910SOL    HW111822   4.024   5.111   2.477  0.7726 -1.0156  0.3254
 1910SOL    HW211823   3.977   5.156   2.613 -0.6130  0.5290 -0.6194
 1911SOL     OW11824   2.062  10.402   5.883 -0.0744 -0.1058  0.1457
 1911SOL    HW111825   2.122  10.471   5.908  0.2165  0.4399 -1.9089
 1911SOL    HW211826   2.111  10.347   5.822 -0.7140 -1.3827  0.7426
 1912SOL     OW11827   4.021   7.081   2.494  0.1223  0.0549 -0.0986
 1912SOL    HW111828   3.941   7.035   2.468 -0.3561  0.1291  1.1944
 1912SOL    HW211829   3.993   7.171   2.510  0.8936  0.6323 -1.7383
 1913SOL     OW11830   3.206   9.233   7.192 -0.1922  0.2493 -0.7273
 1913SOL    HW111831   3.160   9.230   7.276  0.3550  0.0485 -0.4292
 1913SOL    HW211832   3.269   9.305   7.201 -0.5331  0.6085 -1.1797
 1914SOL     OW11833   5.059   7.068   7.181 -0.2887  0.2972  1.2477
 1914SOL    HW111834   5.004   7.099   7.109  0.0396  0.3881  1.0331
 1914SOL    HW211835   5.109   6.996   7.143  1.6048  1.8070  0.6653
 1915SOL     OW11836   6.968   9.918   9.629  0.0444  0.0220 -0.1227
 1915SOL    HW111837   6.989   9.968   9.708  0.4919 -0.0505 -0.1884
 1915SOL    HW211838   6.873   9.908   9.631  0.0602 -0.0395  0.4433
 1916SOL     OW11839   8.528   5.321   5.827  0.0928 -0.5474 -0.4042
 1916SOL    HW111840   8.449   5.269   5.846  0.9453 -1.0892  1.9458
 1916SOL    HW211841   8.497   5.411   5.825 -0.5971 -0.7393  0.6159
 1917SOL     OW11842   8.489   2.013   2.273  0.6877  0.1724 -0.2767
 1917SOL    HW111843   8.515   1.927   2.243  0.8786  0.3342 -0.5785
 1917SOL    HW211844   8.560   2.071   2.246 -0.6573  0.9003 -2.5770
 1918SOL     OW11845  10.809   1.111   0.643 -0.0056 -0.1781 -0.1563
 1918SOL    HW111846  10.858   1.171   0.586  0.3750 -0.3211  0.0165
 1918SOL    HW211847  10.724   1.153   0.654  0.1575  0.1906 -0.2753
 1919SOL     OW11848   4.348  10.406   0.250 -0.2224  0.1109 -0.2335
 1919SOL    HW111849   4.408  10.368   0.314 -1.2213 -0.4002  0.4298
 1919SOL    HW211850   4.295  10.332   0.220 -2.2807  0.9524  1.1499
 1920SOL     OW11851   3.616   3.319   4.073  0.3036  0.4244 -0.2194
 1920SOL    HW111852   3.646   3.390   4.015 -1.0048  0.9387 -0.3082
 1920SOL    HW211853   3.553   3.361   4.131  0.7281 -0.3436  0.8229
 1921SOL     OW11854   6.087   1.147  10.730  0.3209 -0.7258 -0.3100
 1921SOL    HW111855   6.080   1.141  10.635  3.9397  0.2111 -0.7957
 1921SOL    HW211856   6.088   1.055  10.759 -1.3482 -1.0167 -1.0531
 1922SOL     OW11857   2.089   1.717   7.318 -0.3425  0.5925  0.0508
 1922SOL    HW111858   2.078   1.807   7.349 -0.5461  0.2953  0.8702
 1922SOL    HW211859   2.083   1.664   7.397 -2.3333 -0.3283 -0.6559
 1923SOL     OW11860   3.836   3.245  10.036  0.7067  0.0653  0.4445
 1923SOL    HW111861   3.907   3.217   9.978 -1.7548  1.2981 -3.5580
 1923SOL    HW211862   3.765   3.184  10.019 -0.6900  1.4965  0.9022
 1924SOL     OW11863   9.674   7.821   4.636 -0.8796 -0.3079 -0.0815
 1924SOL    HW111864   9.597   7.858   4.593 -0.8528  1.9242  1.5968
 1924SOL    HW211865   9.745   7.882   4.616  0.1966 -1.6693 -0.5682
 1925SOL     OW11866   0.349   5.047   9.983  0.2451  0.0996  0.0232
 1925SOL    HW111867   0.259   5.026  10.009  0.3296  0.8580  0.9894
 1925SOL    HW211868   0.396   4.965   9.990 -0.4121 -0.3632 -0.7218
 1926SOL     OW11869   1.152   7.605  10.398  0.3011 -0.2830  0.5186
 1926SOL    HW111870   1.212   7.591  10.325 -0.2267  1.9511 -0.4217
 1926SOL    HW211871   1.073   7.643  10.359  0.2311  1.5870  2.2719
 1927SOL     OW11872   8.523   7.993   2.730 -0.4293 -0.0253 -0.2655
 1927SOL    HW111873   8.545   8.079   2.766  3.2388 -1.6803  2.0719
 1927SOL    HW211874   8.579   7.985   2.653 -0.5254 -0.4331 -0.2933
 1928SOL     OW11875   7.663   0.095   4.447  0.4969 -0.2898 -0.1488
 1928SOL    HW111876   7.705   0.043   4.515  3.0857  0.2649 -1.1995
 1928SOL    HW211877   7.729   0.160   4.422 -1.3928  1.3359 -1.2396
 1929SOL     OW11878   0.226   5.435   8.158 -0.0485  0.5976 -0.0002
 1929SOL    HW111879   0.223   5.527   8.184  0.2106  0.3194  1.0489
 1929SOL    HW211880   0.165   5.391   8.217 -0.2206  0.0995 -0.5354
 1930SOL     OW11881   2.287   1.045   2.841 -0.0561 -0.4712 -0.1782
 1930SOL    HW111882   2.201   1.076   2.870 -0.4554 -0.8316 -0.9466
 1930SOL    HW211883   2.300   1.087   2.756 -0.5779 -2.3108 -1.2124
 1931SOL     OW11884   7.833   4.484  10.177  0.0749 -0.0901  0.1214
 1931SOL    HW111885   7.777   4.422  10.129  1.7628 -1.9661  0.4059
 1931SOL    HW211886   7.873   4.538  10.109  0.8272 -1.3118 -0.4373
 1932SOL     OW11887   3.408  10.637   6.737  0.3800  0.4244 -0.3352
 1932SOL    HW111888   3.416  10.602   6.826 -0.7755 -1.3381 -0.8840
 1932SOL    HW211889   3.361  10.719   6.749  0.6048  0.4248  0.7144
 1933SOL     OW11890   4.427   0.191   6.271 -0.0074  0.0491  0.1905
 1933SOL    HW111891   4.402   0.276   6.234  1.0169  0.2840  0.0323
 1933SOL    HW211892   4.380   0.127   6.217 -1.2211  0.5125  0.6480
 1934SOL     OW11893   0.484   3.583   5.683 -0.6226  0.1101  0.3252
 1934SOL    HW111894   0.510   3.661   5.733 -0.5452  1.0062 -1.0483
 1934SOL    HW211895   0.471   3.616   5.594 -0.9048 -1.4067 -0.2122
 1935SOL     OW11896   8.330  10.375   5.548 -0.2421  0.0678  0.0052
 1935SOL    HW111897   8.316  10.387   5.454  0.7893  1.7058  0.0237
 1935SOL    HW211898   8.407  10.429   5.568 -1.7296  1.5255  2.1983
 1936SOL     OW11899   0.325   3.785   0.445 -0.4390  0.4586 -0.6684
 1936SOL    HW111900   0.258   3.727   0.482 -0.7072 -0.4743 -2.5162
 1936SOL    HW211901   0.292   3.873   0.462  0.3155  0.1971  2.8035
 1937SOL     OW11902   6.202   9.878   5.292 -0.0309  0.1566  0.0209
 1937SOL    HW111903   6.275   9.899   5.235  0.4111  0.3699  0.6486
 1937SOL    HW211904   6.225   9.918   5.376  0.3825 -1.9106  0.9799
 1938SOL     OW11905   8.807   3.652  10.898 -0.4073 -0.3899  0.3315
 1938SOL    HW111906   8.877   3.695  10.947  0.6509 -1.5375 -0.1284
 1938SOL    HW211907   8.803   3.700  10.815 -0.6539  0.1131  0.6271
 1939SOL     OW11908   1.299   8.784   5.480  0.0377  0.0027 -0.0983
 1939SOL    HW111909   1.330   8.874   5.476  0.1892 -0.0601 -0.3737
 1939SOL    HW211910   1.311   8.759   5.572  0.4419  0.1069 -0.1188
 1940SOL     OW11911  10.687   8.074   4.691  0.1582 -0.3292  0.2422
 1940SOL    HW111912  10.689   8.132   4.768 -0.1961 -0.2177  0.1685
 1940SOL    HW211913  10.615   8.108   4.638  1.6073  0.8009 -1.0808
 1941SOL     OW11914   3.247   0.895   0.305 -0.1357  0.4319  0.0025
 1941SOL    HW111915   3.273   0.806   0.284 -0.8522 -0.1482  1.4385
 1941SOL    HW211916   3.154   0.899   0.283  0.2013  1.2842 -1.3915
 1942SOL     OW11917   9.016   6.609   7.722  0.1550 -0.0134  0.0510
 1942SOL    HW111918   8.962   6.535   7.749  1.0652 -1.4842 -1.9194
 1942SOL    HW211919   8.960   6.659   7.663 -0.5605  1.1256  1.6032
 1943SOL     OW11920   9.009   0.773   6.465  0.6997 -0.3602  0.7422
 1943SOL    HW111921   8.973   0.848   6.418  0.0983 -1.3042 -0.3516
 1943SOL    HW211922   8.957   0.768   6.546  0.4527  0.1314  0.6166
 1944SOL     OW11923   2.357   5.554   2.183  0.3516  0.0892 -0.4233
 1944SOL    HW111924   2.348   5.639   2.228  0.8891 -0.1225  0.1049
 1944SOL    HW211925   2.268   5.521   2.177  0.0704  0.9470 -1.1455
 1945SOL     OW11926   7.733   1.015   2.207  0.5755 -0.1721  0.1542
 1945SOL    HW111927   7.734   0.946   2.141  0.7794 -1.3210  1.3102
 1945SOL    HW211928   7.825   1.026   2.232  0.5166  0.3563  0.1558
 1946SOL     OW11929   9.058   1.016   2.116 -0.5346  0.0583 -0.7322
 1946SOL    HW111930   9.130   1.066   2.154 -0.8296 -0.1099  0.0859
 1946SOL    HW211931   9.063   1.033   2.022 -1.8222  3.2403 -0.3501
 1947SOL     OW11932   7.472   1.407   8.760 -0.4819  0.5229 -0.1918
 1947SOL    HW111933   7.552   1.363   8.790 -0.6803  0.6817  0.6067
 1947SOL    HW211934   7.496   1.447   8.677  0.5788  1.4168  0.5131
 1948SOL     OW11935   3.428   6.431   4.847 -0.2159  0.3477 -0.1120
 1948SOL    HW111936   3.494   6.405   4.783 -1.1949 -1.0725 -0.5848
 1948SOL    HW211937   3.439   6.369   4.920 -2.2825 -1.2490 -1.0577
 1949SOL     OW11938   3.026   6.271   8.136  0.0755  0.0545  0.4009
 1949SOL    HW111939   2.967   6.346   8.128  1.3545  1.0121 -0.4682
 1949SOL    HW211940   3.113   6.307   8.121  1.0182 -1.1378  2.5685
 1950SOL     OW11941   3.134   1.052   5.409  0.0373  0.6853  0.0484
 1950SOL    HW111942   3.158   0.961   5.423  0.9655  1.1505  1.8540
 1950SOL    HW211943   3.060   1.049   5.348 -0.4086 -1.2913  0.6256
 1951SOL     OW11944   0.016   1.232   3.267  0.3240  0.3392  0.0152
 1951SOL    HW111945  -0.033   1.236   3.185 -0.8734  0.3021  0.7017
 1951SOL    HW211946   0.072   1.155   3.258 -0.8675 -0.5367 -0.2090
 1952SOL     OW11947   4.948   5.757   5.375 -0.2238 -0.6270 -0.3540
 1952SOL    HW111948   4.963   5.775   5.468  2.6604  2.4780 -1.2183
 1952SOL    HW211949   4.887   5.826   5.346  1.3148  0.4277 -1.2744
 1953SOL     OW11950   0.078   4.181   7.905 -0.2464  0.3513 -0.7357
 1953SOL    HW111951   0.119   4.246   7.962  0.0241 -0.4180 -0.0351
 1953SOL    HW211952   0.150   4.147   7.852  0.0513 -0.9785  0.4740
 1954SOL     OW11953   6.285   5.001   3.520  0.1953  0.3829  0.0421
 1954SOL    HW111954   6.314   4.916   3.551 -1.0897 -0.0822 -0.0012
 1954SOL    HW211955   6.298   5.060   3.594  0.9984  0.1408  0.1005
 1955SOL     OW11956   1.773   5.877   6.040  0.5836 -0.0573  0.4268
 1955SOL    HW111957   1.849   5.935   6.044 -0.8182  1.8050  2.3360
 1955SOL    HW211958   1.775   5.841   5.951  2.9562  0.9017  0.0127
 1956SOL     OW11959   2.646   6.567   4.326  0.2927 -0.5286  0.5400
 1956SOL    HW111960   2.693   6.650   4.314 -0.4832  0.1956  2.1340
 1956SOL    HW211961   2.678   6.534   4.410 -1.7002 -0.2014  1.4809
 1957SOL     OW11962   0.343   8.368   7.808  0.5399  0.4742 -0.4648
 1957SOL    HW111963   0.303   8.452   7.785 -0.1837  0.8330  1.8357
 1957SOL    HW211964   0.269   8.307   7.813  0.6645  0.3993  0.6973
 1958SOL     OW11965   5.428   6.077   2.026 -0.2454  0.3191  0.2043
 1958SOL    HW111966   5.409   6.136   1.953  1.7677  1.6285  0.6680
 1958SOL    HW211967   5.480   6.007   1.988 -1.4652 -0.4640 -0.0811
 1959SOL     OW11968   9.996   6.559   9.399 -0.4226 -0.3073  0.0083
 1959SOL    HW111969   9.904   6.533   9.402 -1.1719  1.9717 -0.9654
 1959SOL    HW211970   9.994   6.652   9.378  2.1566 -0.4372 -1.1912
 1960SOL     OW11971   5.903   3.952   7.870  0.0175  0.5358 -0.0039
 1960SOL    HW111972   5.833   3.927   7.931 -0.0772  0.4888 -0.1329
 1960SOL    HW211973   5.976   3.977   7.927  0.2300 -0.3477  0.1274
 1961SOL     OW11974   5.117   9.495   1.747  0.0912  0.5225 -0.4555
 1961SOL    HW111975   5.171   9.434   1.798 -1.3151  1.1642  1.9728
 1961SOL    HW211976   5.062   9.439   1.693 -1.3990 -0.5043  1.9560
 1962SOL     OW11977   3.356   3.156   0.566  0.0467 -0.3561  0.1337
 1962SOL    HW111978   3.308   3.235   0.590  1.7477  0.8105 -0.1132
 1962SOL    HW211979   3.428   3.152   0.630  1.2062 -0.4927 -1.1343
 1963SOL     OW11980  10.734   5.335  10.349 -0.4546  0.1473 -0.5040
 1963SOL    HW111981  10.825   5.329  10.381 -0.5216 -0.6661 -0.4315
 1963SOL    HW211982  10.725   5.261  10.290 -1.5380 -0.7368  0.7026
 1964SOL     OW11983   0.448   9.576   9.425 -0.3804 -0.4167 -0.3945
 1964SOL    HW111984   0.464   9.558   9.518  0.6011 -2.2187 -0.8700
 1964SOL    HW211985   0.362   9.538   9.408 -1.1265  1.0093  0.0213
 1965SOL     OW11986   7.575   6.938   0.499 -0.1979  0.1742 -0.1046
 1965SOL    HW111987   7.568   6.843   0.489 -2.5200  0.3185 -0.2643
 1965SOL    HW211988   7.579   6.951   0.594 -0.2260 -0.0613 -0.0695
 1966SOL     OW11989   3.500   1.772   7.247  0.0298  0.0638  0.4244
 1966SOL    HW111990   3.441   1.699   7.230  0.2064  0.2535 -1.0982
 1966SOL    HW211991   3.456   1.848   7.209  1.3829  0.1441 -1.0921
 1967SOL     OW11992   2.388   9.364   6.435 -0.5804 -0.1712  0.1167
 1967SOL    HW111993   2.304   9.351   6.479  0.5022 -0.3223  2.2415
 1967SOL    HW211994   2.406   9.457   6.445 -0.7679 -0.0177 -0.8874
 1968SOL     OW11995   6.525   1.598   6.678  0.7209  0.6903 -0.6729
 1968SOL    HW111996   6.597   1.553   6.634  0.9987  0.7172 -0.2515
 1968SOL    HW211997   6.488   1.532   6.737 -0.4474  0.2741 -1.8324
 1969SOL     OW11998   4.231   5.406   0.310 -0.1996  0.9007  0.2714
 1969SOL    HW111999   4.233   5.367   0.223  1.1244 -0.3860  0.8567
 1969SOL    HW212000   4.323   5.414   0.335 -0.5274  2.1483  1.1844
 1970SOL     OW12001  10.875   0.463   2.888  0.0724  0.5010  0.5855
 1970SOL    HW112002  10.801   0.472   2.948  0.5880  0.1930  1.2869
 1970SOL    HW212003  10.844   0.404   2.819  0.0262 -0.5557  1.4911
 1971SOL     OW12004   0.643   3.195   1.452 -0.7845 -0.0413 -0.0033
 1971SOL    HW112005   0.730   3.214   1.488 -1.7734  0.5334  2.3058
 1971SOL    HW212006   0.656   3.116   1.400  1.3587  0.7656 -0.8223
 1972SOL     OW12007   0.960   2.332   3.862 -0.8405  0.2310  0.5376
 1972SOL    HW112008   1.026   2.271   3.831 -0.5917  0.8944 -0.2689
 1972SOL    HW212009   0.879   2.304   3.820 -1.0347 -0.4370  1.3387
 1973SOL     OW12010  10.835   6.777   5.705 -0.6282  0.2720  0.7921
 1973SOL    HW112011  10.801   6.721   5.635 -0.5956  0.4790  0.6104
 1973SOL    HW212012  10.896   6.835   5.661 -1.2012  0.9361  0.8547
 1974SOL     OW12013   6.431   2.088   4.151  0.9358  0.0510  0.1971
 1974SOL    HW112014   6.448   2.012   4.207 -0.4526  0.7328  1.5980
 1974SOL    HW212015   6.338   2.106   4.162  0.6264  0.3305 -2.2392
 1975SOL     OW12016   9.241   3.157  10.464 -0.5593 -0.2908 -0.7751
 1975SOL    HW112017   9.283   3.082  10.421 -1.3251 -1.4339  0.3850
 1975SOL    HW212018   9.205   3.209  10.392  0.9287 -0.4239 -1.6713
 1976SOL     OW12019   3.317   6.398   8.952 -0.1232 -0.6409  0.1086
 1976SOL    HW112020   3.391   6.363   8.999  0.4903 -0.1018 -0.4281
 1976SOL    HW212021   3.298   6.333   8.884 -0.3983 -0.9588  0.4824
 1977SOL     OW12022   9.140   9.882   9.941 -0.3018 -0.3795  0.0041
 1977SOL    HW112023   9.151   9.970   9.906  1.7114 -0.4912  0.2843
 1977SOL    HW212024   9.112   9.895  10.031 -0.2537 -0.0405 -0.0309
 1978SOL     OW12025   4.015   4.097  10.327  0.4042 -0.4569 -0.3213
 1978SOL    HW112026   3.942   4.071  10.271 -0.1997 -0.8986  0.6441
 1978SOL    HW212027   4.066   4.017  10.340 -0.6345 -0.8865  1.4444
 1979SOL     OW12028   8.517   8.222   9.185  0.0049 -0.0496  0.1181
 1979SOL    HW112029   8.523   8.184   9.273 -3.1291  1.8235  1.2979
 1979SOL    HW212030   8.599   8.270   9.174  1.3478 -1.9810  1.1095
 1980SOL     OW12031   4.398   0.379   9.859 -0.4437  0.2524  0.3287
 1980SOL    HW112032   4.390   0.463   9.903  1.1454  0.1740  0.8198
 1980SOL    HW212033   4.336   0.322   9.906 -0.5727  0.8015  0.8410
 1981SOL     OW12034   0.101   2.586   6.693 -0.7921 -1.2386  0.4651
 1981SOL    HW112035   0.129   2.519   6.631  2.7096  0.6889 -0.3030
 1981SOL    HW212036   0.073   2.659   6.639 -0.9985 -0.7558  1.2091
 1982SOL     OW12037   3.581   8.820   4.068 -0.6417 -0.1782 -0.0807
 1982SOL    HW112038   3.658   8.821   4.125 -0.0837  1.1572 -0.7922
 1982SOL    HW212039   3.585   8.736   4.023  0.3184 -0.2028  0.0323
 1983SOL     OW12040   9.859   2.307   5.591 -0.5505  0.0049  0.2927
 1983SOL    HW112041   9.948   2.329   5.565 -0.0706 -1.4497  0.5989
 1983SOL    HW212042   9.821   2.265   5.514 -1.2715  1.3281 -0.1106
 1984SOL     OW12043  10.128   7.733   5.738 -0.4837 -0.5472 -0.1633
 1984SOL    HW112044  10.182   7.805   5.771  0.4841 -1.7351  0.9662
 1984SOL    HW212045  10.170   7.706   5.656  0.2305 -0.9572  0.3181
 1985SOL     OW12046   4.406   2.495   5.037  0.7259  0.2098  0.0571
 1985SOL    HW112047   4.336   2.513   4.974  0.0262  0.3158  0.8516
 1985SOL    HW212048   4.371   2.426   5.093  1.1939  0.3694  0.5591
 1986SOL     OW12049   6.392   7.540   1.229  0.1402  1.0217  0.9964
 1986SOL    HW112050   6.451   7.513   1.159 -0.4847  1.3164  0.3329
 1986SOL    HW212051   6.442   7.528   1.310 -0.2185 -2.5594  0.8340
 1987SOL     OW12052   6.489   2.380   5.898 -0.2063  0.1613 -0.2356
 1987SOL    HW112053   6.510   2.384   5.804  0.5075 -0.4802 -0.1109
 1987SOL    HW212054   6.452   2.293   5.910 -1.2504  0.6077 -0.0961
 1988SOL     OW12055   3.400   2.115   9.350  0.2233 -0.3768 -0.4758
 1988SOL    HW112056   3.426   2.190   9.403  0.7993 -0.0293 -1.2321
 1988SOL    HW212057   3.421   2.140   9.260 -0.9707 -0.8502 -0.9133
 1989SOL     OW12058   1.041   9.552   0.991  0.0640  0.2570  0.4026
 1989SOL    HW112059   1.077   9.466   1.014  1.3653  0.1396 -1.8424
 1989SOL    HW212060   0.998   9.538   0.906 -0.4160  1.6666  0.3911
 1990SOL     OW12061   4.820  10.255   0.851 -0.1908  0.2459 -0.5835
 1990SOL    HW112062   4.803  10.181   0.793 -0.6244 -0.6112  0.6008
 1990SOL    HW212063   4.912  10.277   0.837 -0.5643  0.7750 -2.3763
 1991SOL     OW12064   6.758   7.903   1.128  0.2503  0.4700  0.4333
 1991SOL    HW112065   6.789   7.855   1.205  0.5387  2.4251  1.6098
 1991SOL    HW212066   6.833   7.956   1.101 -0.3679  1.0836 -0.1312
 1992SOL     OW12067   4.405  10.735   4.975  0.3735  0.1773  0.1559
 1992SOL    HW112068   4.413  10.755   4.882  0.5085 -1.7480 -0.2941
 1992SOL    HW212069   4.481  10.777   5.016 -0.0339  1.5703 -0.4949
 1993SOL     OW12070   3.538   8.932   4.468 -0.3763 -0.5209 -0.1014
 1993SOL    HW112071   3.626   8.949   4.435 -0.1883 -0.9579  0.1702
 1993SOL    HW212072   3.496   9.018   4.471 -0.2069 -0.4021 -0.9347
 1994SOL     OW12073  10.191   8.440  10.569  0.1576 -0.0081  0.3929
 1994SOL    HW112074  10.247   8.406  10.500 -0.4560  0.4855 -0.3587
 1994SOL    HW212075  10.247   8.502  10.617  0.7680 -0.8008  0.7439
 1995SOL     OW12076   1.555   0.939   0.959  0.4763 -0.0033 -0.5813
 1995SOL    HW112077   1.487   0.874   0.940  0.1291  0.1437  0.1452
 1995SOL    HW212078   1.603   0.947   0.877 -0.4116 -0.0755 -1.1234
 1996SOL     OW12079   7.757   2.086   4.106  0.0297  0.4534 -0.0619
 1996SOL    HW112080   7.662   2.083   4.100 -0.1128  1.1950  1.3300
 1996SOL    HW212081   7.776   2.069   4.198  1.2558  0.2223 -0.3367
 1997SOL     OW12082   2.327   3.152   0.007 -0.4316 -0.2079  0.6947
 1997SOL    HW112083   2.398   3.141  -0.056 -0.9043  1.4067 -0.1810
 1997SOL    HW212084   2.356   3.222   0.064 -1.4471  0.7760  0.0634
 1998SOL     OW12085   3.264   8.245   2.794  0.2911 -0.3918  0.5232
 1998SOL    HW112086   3.180   8.217   2.829  0.6400 -0.9050  0.9641
 1998SOL    HW212087   3.282   8.184   2.722  1.1284 -1.4334  1.5879
 1999SOL     OW12088   6.680   8.147   2.130  0.5913  0.8059  0.0073
 1999SOL    HW112089   6.714   8.166   2.043  2.5907  0.9565  0.7549
 1999SOL    HW212090   6.616   8.077   2.117 -0.2261  1.8176 -1.7208
 2000SOL     OW12091   4.226   6.356   1.664  0.2042  0.0258  0.2023
 2000SOL    HW112092   4.292   6.408   1.709  1.6704 -1.1875 -0.4837
 2000SOL    HW212093   4.266   6.270   1.652 -2.4503 -1.6381  2.0678
 2001SOL     OW12094   9.210   2.085   3.690 -0.6398  0.4609  0.3655
 2001SOL    HW112095   9.270   2.055   3.759  2.3097 -0.3922 -2.3017
 2001SOL    HW212096   9.165   2.005   3.662 -0.8180  0.5457  0.4133
 2002SOL     OW12097   2.662   3.526   7.569  0.3953 -0.1252 -0.1285
 2002SOL    HW112098   2.733   3.590   7.579  0.9223 -0.6097 -0.6844
 2002SOL    HW212099   2.606   3.563   7.501  0.1944  0.1821  0.1993
 2003SOL     OW12100   7.902   4.010   0.047 -0.2415  0.5228 -0.5866
 2003SOL    HW112101   7.810   4.025   0.028 -0.5784  0.9603  1.1791
 2003SOL    HW212102   7.910   3.915   0.055 -0.8093  0.5323  0.3120
 2004SOL     OW12103   0.782   8.138  10.707  0.2174  0.0549  0.1488
 2004SOL    HW112104   0.690   8.125  10.683  0.1661  2.0292 -1.0100
 2004SOL    HW212105   0.830   8.111  10.629  0.8221 -2.5791  1.3277
 2005SOL     OW12106   3.424  10.104   2.729 -0.4613 -0.0689 -0.3076
 2005SOL    HW112107   3.415  10.025   2.782  0.0650 -0.1417 -0.3147
 2005SOL    HW212108   3.443  10.072   2.641  0.7638  0.0589 -0.1136
 2006SOL     OW12109   5.653   2.047   8.404 -0.1273  0.2420 -0.4272
 2006SOL    HW112110   5.641   2.132   8.361 -2.5280  0.0040 -0.4006
 2006SOL    HW212111   5.657   1.984   8.333 -0.1013  0.2338 -0.4184
 2007SOL     OW12112   2.867   5.391  10.898  0.6649 -0.5445  0.0886
 2007SOL    HW112113   2.779   5.401  10.862  1.4943 -1.6410 -2.4241
 2007SOL    HW212114   2.852   5.377  10.992 -1.7038  0.8269  0.0147
 2008SOL     OW12115   9.760   7.229   4.101  0.3536 -0.2795  0.6556
 2008SOL    HW112116   9.719   7.165   4.160  0.3207  0.6281  1.6532
 2008SOL    HW212117   9.825   7.273   4.155 -1.8625  2.8414  1.0674
 2009SOL     OW12118   5.150   0.766   9.557 -0.4245 -0.2533  0.4459
 2009SOL    HW112119   5.145   0.855   9.591  0.0053 -0.0012 -0.1292
 2009SOL    HW212120   5.207   0.773   9.480 -1.2601 -0.8346 -0.2411
 2010SOL     OW12121   4.279   1.378   0.425 -0.3577 -0.4149  0.0458
 2010SOL    HW112122   4.309   1.425   0.347 -1.0969 -0.1953 -0.1226
 2010SOL    HW212123   4.292   1.440   0.497 -3.4867  1.0712 -0.4759
 2011SOL     OW12124   1.873   9.849   4.021 -0.0364  0.2970 -0.2492
 2011SOL    HW112125   1.838   9.862   3.933 -1.1874  0.7739  0.2607
 2011SOL    HW212126   1.946   9.910   4.028  0.7517 -0.5051 -1.2323
 2012SOL     OW12127   5.684   7.076   8.828  0.6007 -0.7106 -0.1816
 2012SOL    HW112128   5.757   7.087   8.767 -0.9411  0.2482 -1.9770
 2012SOL    HW212129   5.629   7.010   8.787  0.0299 -0.7903  0.7004
 2013SOL     OW12130   9.632   0.744  10.054 -0.1527  0.5372 -0.1771
 2013SOL    HW112131   9.720   0.771  10.079  0.9490 -1.8419 -1.1913
 2013SOL    HW212132   9.581   0.826  10.054  2.0862  2.0288  0.1566
 2014SOL     OW12133   3.118   5.628  10.847 -0.3590 -0.3160 -0.0516
 2014SOL    HW112134   3.060   5.606  10.773 -0.0301  1.4595 -0.8864
 2014SOL    HW212135   3.174   5.697  10.813 -0.3197  0.6815  1.9415
 2015SOL     OW12136   0.464   8.303   0.798 -0.2929 -0.0312  1.0321
 2015SOL    HW112137   0.464   8.385   0.846 -1.2473  1.8385 -1.8729
 2015SOL    HW212138   0.549   8.300   0.754 -0.9292  0.4198 -0.3063
 2016SOL     OW12139   0.198   7.266   0.072 -0.0916  0.1010 -0.4429
 2016SOL    HW112140   0.122   7.307   0.030 -0.7364 -0.4817  0.1223
 2016SOL    HW212141   0.176   7.173   0.077 -0.2862  0.2079  1.6087
 2017SOL     OW12142   3.044   5.389   9.998 -0.1798 -0.0903  1.0149
 2017SOL    HW112143   3.131   5.417  10.026 -1.0163  1.0770  2.6061
 2017SOL    HW212144   3.023   5.315  10.056  1.0014 -2.5851 -1.5163
 2018SOL     OW12145   5.046   3.910   7.400  0.3138 -0.4384 -0.2868
 2018SOL    HW112146   5.124   3.958   7.429  0.5353 -1.3093  0.6122
 2018SOL    HW212147   5.078   3.823   7.378 -0.2020 -0.4081 -1.1968
 2019SOL     OW12148   1.796   9.186   7.819 -0.3080 -0.3637  0.2084
 2019SOL    HW112149   1.765   9.157   7.904  0.4058 -0.4050  0.4563
 2019SOL    HW212150   1.891   9.184   7.825 -0.2412 -0.6165 -0.6716
 2020SOL     OW12151  10.804   7.769   1.179  0.0323  0.2622 -0.3505
 2020SOL    HW112152  10.824   7.859   1.154  0.8715  0.6385  1.4638
 2020SOL    HW212153  10.868   7.749   1.247 -2.4043 -0.3963  1.9108
 2021SOL     OW12154   6.218   2.762   2.166 -0.0665 -0.2978  0.2090
 2021SOL    HW112155   6.194   2.815   2.243  0.1694 -0.0746  0.1293
 2021SOL    HW212156   6.302   2.798   2.138 -0.9546  0.7848 -1.2147
 2022SOL     OW12157   6.626   2.516   0.989  0.0397 -0.2595 -0.0805
 2022SOL    HW112158   6.635   2.577   0.916 -0.6490 -0.7640 -0.6079
 2022SOL    HW212159   6.714   2.506   1.023  0.4633 -0.3779 -1.1575
 2023SOL     OW12160   2.424   8.672  10.809 -0.6275 -0.2164 -0.2283
 2023SOL    HW112161   2.429   8.750  10.865 -0.1895 -0.0381 -0.5078
 2023SOL    HW212162   2.335   8.674  10.774 -0.6596  0.0929 -0.1383
 2024SOL     OW12163   1.519   3.801   2.057 -0.6577  0.2080  0.0552
 2024SOL    HW112164   1.502   3.885   2.098 -0.8066 -0.5780  1.6818
 2024SOL    HW212165   1.492   3.812   1.966 -2.4444  1.3514  0.6919
 2025SOL     OW12166  10.642   3.433   2.290 -0.0616 -0.5675  0.5073
 2025SOL    HW112167  10.660   3.508   2.347 -2.0536  1.5337 -1.4280
 2025SOL    HW212168  10.689   3.453   2.209 -2.0671 -0.3983 -0.6910
 2026SOL     OW12169   0.601   5.061   8.832 -0.0371  0.1051 -0.3550
 2026SOL    HW112170   0.582   5.154   8.821 -0.1827  0.1656  0.3667
 2026SOL    HW212171   0.604   5.048   8.926 -1.8449 -0.9745 -0.3911
 2027SOL     OW12172   2.868   8.225   1.320 -0.1804  0.1974 -0.5977
 2027SOL    HW112173   2.958   8.213   1.290 -0.4640 -2.0773 -0.7157
 2027SOL    HW212174   2.815   8.182   1.253 -1.4194  1.8938 -0.7610
 2028SOL     OW12175   8.645   2.090   6.305  0.1478  0.4083 -0.1248
 2028SOL    HW112176   8.651   2.182   6.330  0.2580  0.6380 -0.9594
 2028SOL    HW212177   8.585   2.089   6.231  0.8565 -0.0615 -0.7180
 2029SOL     OW12178   0.267   8.929   2.288 -0.1573  0.1301 -0.0282
 2029SOL    HW112179   0.302   8.954   2.202 -1.2163  0.5935 -0.3411
 2029SOL    HW212180   0.187   8.882   2.268 -1.1142  1.3680  0.7315
 2030SOL     OW12181   2.937   6.189   3.172 -0.0967 -0.0288  0.2519
 2030SOL    HW112182   2.995   6.151   3.105 -2.4685 -1.2581 -1.2686
 2030SOL    HW212183   2.995   6.214   3.243  2.5646  1.0805 -2.1279
 2031SOL     OW12184  10.466  10.398   8.408  0.4900  0.1362  0.6637
 2031SOL    HW112185  10.473  10.455   8.485  1.0839  2.4368 -1.0000
 2031SOL    HW212186  10.552  10.404   8.366  0.3553 -1.5377  0.0811
 2032SOL     OW12187   8.336   6.029   0.374  0.1507  0.3380 -0.7717
 2032SOL    HW112188   8.386   6.075   0.306 -0.2923  2.6256  0.3785
 2032SOL    HW212189   8.257   6.082   0.386 -0.4907 -0.8460  0.4834
 2033SOL     OW12190   9.125   4.556   1.788 -0.5995 -0.3182  0.6416
 2033SOL    HW112191   9.212   4.596   1.794 -0.7473 -0.1771  2.9355
 2033SOL    HW212192   9.111   4.517   1.874 -1.6935 -2.7928 -0.5616
 2034SOL     OW12193   2.890   2.468   0.042 -0.0741 -0.2076 -0.2900
 2034SOL    HW112194   2.937   2.530   0.098  0.1057 -0.0242 -0.6356
 2034SOL    HW212195   2.959   2.416   0.001 -0.2040 -0.3515 -0.3261
 2035SOL     OW12196   9.815   1.546   9.506 -0.1818 -0.5255  0.1165
 2035SOL    HW112197   9.813   1.455   9.477 -1.2063 -0.8726  1.1871
 2035SOL    HW212198   9.724   1.575   9.499  0.0073  0.1726  0.4982
 2036SOL     OW12199   6.285   3.813   2.110  0.1718  0.3419  0.1882
 2036SOL    HW112200   6.212   3.827   2.171  1.3957 -0.4504  1.9190
 2036SOL    HW212201   6.363   3.817   2.165  1.3939  0.2279 -1.4658
 2037SOL     OW12202   3.494   3.412   6.558 -0.0015  0.1408  0.6969
 2037SOL    HW112203   3.556   3.381   6.624 -1.3815 -1.4758  1.3051
 2037SOL    HW212204   3.430   3.464   6.608  0.6090  1.5053  0.1280
 2038SOL     OW12205   8.885   3.736   8.669  0.1569  0.2252  0.3146
 2038SOL    HW112206   8.865   3.645   8.688 -0.9408  0.5525  0.8093
 2038SOL    HW212207   8.973   3.750   8.704 -0.0723 -0.3699  1.1284
 2039SOL     OW12208   5.047   9.906   7.298  0.6134 -0.7876 -0.3547
 2039SOL    HW112209   5.091   9.825   7.271 -0.1001 -1.6998  1.0534
 2039SOL    HW212210   5.084   9.924   7.385 -0.2291 -0.3891 -0.0720
 2040SOL     OW12211   0.531   0.608   1.300  0.1677 -0.2388 -1.0317
 2040SOL    HW112212   0.615   0.632   1.339  0.2485  0.9294 -1.8948
 2040SOL    HW212213   0.481   0.570   1.373  0.4583  1.5027  0.1403
 2041SOL     OW12214   1.978   3.236   3.333 -0.5549 -0.5744 -0.2981
 2041SOL    HW112215   2.009   3.283   3.255  1.0850 -1.8417 -0.4737
 2041SOL    HW212216   1.891   3.205   3.309 -0.3531 -0.3588 -1.3627
 2042SOL     OW12217   6.602   5.097   6.141  0.0773 -0.5907  0.0881
 2042SOL    HW112218   6.650   5.068   6.064  0.3687 -1.6962  0.6778
 2042SOL    HW212219   6.510   5.083   6.119  0.1180 -0.2523 -0.3127
 2043SOL     OW12220   8.400   5.955   5.784 -0.1089 -0.5764 -0.3091
 2043SOL    HW112221   8.309   5.938   5.759 -0.1039 -3.6167  1.2577
 2043SOL    HW212222   8.395   5.992   5.872  0.1388 -2.0473  0.3545
 2044SOL     OW12223  10.612   3.390   7.961  0.4967  0.8718 -0.3637
 2044SOL    HW112224  10.569   3.430   8.037 -0.3723  1.1672 -0.9919
 2044SOL    HW212225  10.574   3.435   7.885 -0.2753 -0.8779 -1.0810
 2045SOL     OW12226   7.186   4.829   7.714  0.5110 -0.1764 -0.2321
 2045SOL    HW112227   7.160   4.921   7.718  3.2041  0.6405  1.0170
 2045SOL    HW212228   7.281   4.831   7.715  0.6878 -3.0242  1.6667
 2046SOL     OW12229   1.079   1.495   5.546 -0.5572  0.0989 -0.1909
 2046SOL    HW112230   1.161   1.506   5.497 -0.0768  0.0610  0.5737
 2046SOL    HW212231   1.066   1.400   5.549 -0.5643  0.0993 -0.2104
 2047SOL     OW12232   7.045   0.018   8.918  0.4557 -0.1312  0.0038
 2047SOL    HW112233   6.999   0.098   8.941 -0.4715 -0.4568 -0.6559
 2047SOL    HW212234   6.975  -0.046   8.903  1.1687 -0.9481  0.1179
 2048SOL     OW12235   2.748   6.544   2.561 -0.2687  0.6386  0.3826
 2048SOL    HW112236   2.822   6.514   2.509 -0.3052  2.8294 -1.0618
 2048SOL    HW212237   2.786   6.569   2.645  0.0119 -1.6056  0.9765
 2049SOL     OW12238   4.529   7.290   8.894  0.3766 -0.6951 -0.2136
 2049SOL    HW112239   4.560   7.280   8.804  2.7334 -0.2750  0.4917
 2049SOL    HW212240   4.495   7.204   8.917  1.3279 -1.2937 -0.9697
 2050SOL     OW12241   3.318   2.368   0.931 -0.1848  0.1677 -0.4472
 2050SOL    HW112242   3.384   2.411   0.985  0.5755 -1.2153 -0.2298
 2050SOL    HW212243   3.236   2.380   0.979  0.5192 -1.3047  1.2565
 2051SOL     OW12244   4.702   7.247   2.257  0.1467  0.0728 -0.4210
 2051SOL    HW112245   4.611   7.275   2.258 -0.1372 -0.7231 -1.7786
 2051SOL    HW212246   4.700   7.155   2.283  0.5669  0.0778 -0.3525
 2052SOL     OW12247   6.607   1.372   3.527  0.4906 -0.7126 -0.5002
 2052SOL    HW112248   6.697   1.386   3.496  0.4064 -0.2594 -0.5390
 2052SOL    HW212249   6.580   1.457   3.563  0.3170 -1.0290  0.1348
 2053SOL     OW12250   3.684   1.115   2.468  0.6963  0.2785 -0.0604
 2053SOL    HW112251   3.602   1.165   2.477 -0.8176 -1.6486 -2.1513
 2053SOL    HW212252   3.691   1.065   2.550 -0.8216 -0.3248 -0.2718
 2054SOL     OW12253   7.438   3.067   2.237  0.4219 -0.2665 -0.0481
 2054SOL    HW112254   7.465   3.154   2.208  1.2060 -0.7196 -0.7300
 2054SOL    HW212255   7.487   3.052   2.317  0.1425 -0.0113  0.1740
 2055SOL     OW12256   3.454   9.667   3.309  0.6580 -0.1394 -0.1036
 2055SOL    HW112257   3.410   9.709   3.382 -1.4740 -0.6962 -0.9838
 2055SOL    HW212258   3.542   9.703   3.310  0.3799  0.6376  2.0895
 2056SOL     OW12259  10.272   1.841   4.365 -0.1736  0.5024  0.3345
 2056SOL    HW112260  10.211   1.878   4.301  2.1248 -0.1672 -2.4575
 2056SOL    HW212261  10.259   1.746   4.359  0.1727  0.4230  0.7613
 2057SOL     OW12262  10.541  10.549  10.185 -0.2575 -0.4009  0.1752
 2057SOL    HW112263  10.527  10.454  10.183  0.9807 -0.6088 -1.8435
 2057SOL    HW212264  10.583  10.568  10.101  0.8697  1.7206  1.1542
 2058SOL     OW12265   2.480   4.733   2.800 -0.2860  0.2950  0.1675
 2058SOL    HW112266   2.526   4.808   2.838  0.1754  0.5403 -0.8418
 2058SOL    HW212267   2.550   4.671   2.777 -0.5234  0.3209 -0.6365
 2059SOL     OW12268   1.679   0.268   8.579  0.2904  0.2217  0.2823
 2059SOL    HW112269   1.607   0.250   8.518 -1.4853  1.5261  1.8694
 2059SOL    HW212270   1.735   0.330   8.533 -1.8084  2.3437  0.4155
 2060SOL     OW12271   1.297   2.570   3.092 -0.1568 -0.3628 -0.7493
 2060SOL    HW112272   1.363   2.501   3.100  0.6355  0.3529 -0.9776
 2060SOL    HW212273   1.332   2.630   3.027  1.5114  2.7979  2.6762
 2061SOL     OW12274   1.826   1.291   9.479 -0.4458 -0.2427  0.5739
 2061SOL    HW112275   1.751   1.351   9.485 -1.7244 -1.7232  0.0926
 2061SOL    HW212276   1.789   1.205   9.496  1.0409 -1.0902 -0.2927
 2062SOL     OW12277   8.201   5.787   3.084 -0.1131  0.3386  0.3998
 2062SOL    HW112278   8.204   5.837   3.003 -1.0981  1.3848  0.9732
 2062SOL    HW212279   8.243   5.704   3.063 -2.0099 -0.1832 -1.7162
 2063SOL     OW12280   0.541  10.364   3.425  0.8036 -0.2934  0.1508
 2063SOL    HW112281   0.489  10.444   3.417  0.4289 -0.4599  0.8258
 2063SOL    HW212282   0.589  10.376   3.507 -0.3075 -1.3479  0.9887
 2064SOL     OW12283   7.205  10.154  10.527  0.2598  0.1505 -0.3349
 2064SOL    HW112284   7.122  10.141  10.482  0.6936  0.1399 -1.1682
 2064SOL    HW212285   7.251  10.071  10.517 -0.2840 -0.4157  1.5790
 2065SOL     OW12286   6.681   3.699   3.823 -0.1433  0.2026 -0.0152
 2065SOL    HW112287   6.665   3.754   3.746 -1.2513 -1.3459 -0.9632
 2065SOL    HW212288   6.634   3.743   3.894  0.1705  1.2051 -0.4160
 2066SOL     OW12289   1.681   7.891   2.818  0.2923  0.1321  0.4846
 2066SOL    HW112290   1.678   7.795   2.815 -0.4859  0.1436  0.6475
 2066SOL    HW212291   1.591   7.918   2.798  0.9703  0.8895 -1.9396
 2067SOL     OW12292   7.091   6.996   4.068 -0.3877  0.8672 -0.2253
 2067SOL    HW112293   7.051   6.984   4.154 -0.6157  1.0847 -0.2999
 2067SOL    HW212294   7.097   6.908   4.032  2.9192  0.2489  1.4098
 2068SOL     OW12295   4.054   3.526  10.896 -0.2304  0.1927  0.3781
 2068SOL    HW112296   3.988   3.485  10.840 -0.7226  1.8118 -0.2889
 2068SOL    HW212297   4.128   3.542  10.837 -0.5739  1.4782  0.2676
 2069SOL     OW12298   8.940   1.054   9.689 -0.3236 -0.7970  0.2809
 2069SOL    HW112299   8.869   1.116   9.674  0.4315  0.4531  1.5755
 2069SOL    HW212300   9.002   1.071   9.618 -0.1881 -0.1219  0.5439
 2070SOL     OW12301   4.497   4.125  10.460  0.1859 -0.0870 -0.0002
 2070SOL    HW112302   4.523   4.144  10.370 -1.3033 -2.1714 -0.9372
 2070SOL    HW212303   4.454   4.205  10.490  2.0588  1.1961 -0.5177
 2071SOL     OW12304   1.824   7.952   9.203 -0.3003 -0.3288  0.2917
 2071SOL    HW112305   1.883   7.929   9.131 -0.0659  2.6759 -0.5834
 2071SOL    HW212306   1.844   7.888   9.272  1.0269 -1.9191 -1.4752
 2072SOL     OW12307   4.037   9.454   0.890  0.0382 -0.3545 -0.3876
 2072SOL    HW112308   4.056   9.453   0.796 -1.5476 -0.8243 -0.7155
 2072SOL    HW212309   4.022   9.547   0.910  0.8695 -0.1904 -0.4760
 2073SOL     OW12310  10.217   9.900   8.154 -0.0463 -0.1274  0.0055
 2073SOL    HW112311  10.221   9.904   8.058 -1.1279  0.1611 -0.0478
 2073SOL    HW212312  10.206   9.991   8.181 -0.7453 -0.2992  0.3295
 2074SOL     OW12313   6.511   7.551   5.009  0.0328 -0.2779  0.2255
 2074SOL    HW112314   6.506   7.593   5.096  1.0539  0.4365 -0.0446
 2074SOL    HW212315   6.430   7.578   4.965 -0.7205 -1.0202  1.0978
 2075SOL     OW12316   0.164   0.928   7.927 -0.2967  0.3296 -0.1570
 2075SOL    HW112317   0.173   0.873   7.849 -1.7086 -0.4482  0.1969
 2075SOL    HW212318   0.242   0.908   7.979 -1.3185 -2.2937  0.5182
 2076SOL     OW12319   2.525   6.342   3.992 -0.2793  0.0970  0.3698
 2076SOL    HW112320   2.503   6.421   4.042 -1.9494 -1.2459  1.9064
 2076SOL    HW212321   2.617   6.353   3.968 -0.8067  3.0942 -0.6586
 2077SOL     OW12322   2.935   2.347   8.769  0.2062 -0.0124  0.2338
 2077SOL    HW112323   2.939   2.442   8.780 -1.9377 -0.0357  1.8866
 2077SOL    HW212324   2.852   2.322   8.809 -0.9311 -2.2442 -3.1311
 2078SOL     OW12325   8.416  10.714   3.232  0.4552 -0.2993  0.3915
 2078SOL    HW112326   8.389  10.648   3.296  0.4742 -1.0101 -0.3231
 2078SOL    HW212327   8.354  10.786   3.245  1.3576  0.2081  2.2087
 2079SOL     OW12328   6.777   0.630   8.785 -0.2782  0.2599 -0.2479
 2079SOL    HW112329   6.860   0.641   8.830 -0.5776 -0.1494  0.4186
 2079SOL    HW212330   6.728   0.568   8.839 -0.8018  0.0666 -0.9252
 2080SOL     OW12331   0.970  10.028   6.352 -0.2818 -0.5033  0.6824
 2080SOL    HW112332   1.026   9.965   6.397  0.4069 -0.6955 -0.3958
 2080SOL    HW212333   1.030  10.099   6.327 -0.3847 -0.8998 -0.8466
 2081SOL     OW12334   6.901   3.919  10.586 -0.6415 -0.3358 -0.3245
 2081SOL    HW112335   6.833   3.852  10.594 -0.6133 -0.1606  2.1151
 2081SOL    HW212336   6.975   3.873  10.546 -1.0448 -1.4277  0.1398
 2082SOL     OW12337   3.183   6.789   3.620  0.3492  0.2522  0.2359
 2082SOL    HW112338   3.207   6.717   3.562 -0.8661  0.2928 -0.3432
 2082SOL    HW212339   3.167   6.746   3.705 -2.0574 -0.4820 -0.5047
 2083SOL     OW12340   9.938   4.623   0.318  0.6854  0.0731  0.0500
 2083SOL    HW112341   9.964   4.564   0.389 -0.7710 -1.1557 -0.3714
 2083SOL    HW212342  10.011   4.620   0.257  0.7212 -1.1994  0.1217
 2084SOL     OW12343   3.434   4.225   5.160  0.2463  0.5014  0.0603
 2084SOL    HW112344   3.422   4.319   5.173 -1.2903 -0.0158  3.0610
 2084SOL    HW212345   3.516   4.205   5.205  0.6185  0.3882 -0.6520
 2085SOL     OW12346   8.443   2.116   6.117 -0.3014  0.3623 -0.4360
 2085SOL    HW112347   8.421   2.115   6.024 -0.3843  0.1022 -0.4157
 2085SOL    HW212348   8.374   2.063   6.159 -0.3315  0.5749 -0.2128
 2086SOL     OW12349   6.557   9.437   7.159 -0.0880 -0.2722 -0.2942
 2086SOL    HW112350   6.563   9.370   7.227 -1.5714 -1.7642 -1.5017
 2086SOL    HW212351   6.635   9.424   7.106  0.7304  0.4437  0.7192
 2087SOL     OW12352   0.799   8.405   3.285  0.4375  0.3692  0.7650
 2087SOL    HW112353   0.757   8.326   3.249 -0.0133 -0.4578  2.9735
 2087SOL    HW212354   0.885   8.407   3.244  0.2666 -1.0024  0.2809
 2088SOL     OW12355   2.226   2.080   6.606 -0.5714  0.4272  0.0657
 2088SOL    HW112356   2.266   2.144   6.665 -1.5461  0.6474  0.5028
 2088SOL    HW212357   2.146   2.054   6.650 -0.6932 -0.3400 -0.5914
 2089SOL     OW12358   9.092   8.084   0.249 -0.0754  0.6071  0.0423
 2089SOL    HW112359   9.055   8.015   0.304 -0.9501 -0.0771 -1.3553
 2089SOL    HW212360   9.069   8.059   0.160  2.5423  0.9199 -0.8097
 2090SOL     OW12361   4.372   0.937   0.876  0.2733  0.1296  0.2140
 2090SOL    HW112362   4.291   0.984   0.860 -0.5122 -1.0134  0.7013
 2090SOL    HW212363   4.345   0.848   0.899  1.6764 -0.3802  0.0307
 2091SOL     OW12364   6.240   4.878   0.360  0.1233  0.1836 -0.0386
 2091SOL    HW112365   6.243   4.788   0.328 -1.3174  0.8576 -2.2608
 2091SOL    HW212366   6.198   4.871   0.446 -2.2575 -1.0948 -1.2140
 2092SOL     OW12367   7.231   6.171  10.060 -0.5063 -0.5572  0.0909
 2092SOL    HW112368   7.152   6.131  10.021 -0.3660 -0.6348 -0.1187
 2092SOL    HW212369   7.212   6.176  10.153 -0.5095 -1.1672  0.1268
 2093SOL     OW12370  10.813   2.323   6.683 -0.0137 -0.7808 -0.4991
 2093SOL    HW112371  10.793   2.404   6.730 -2.7247 -1.9175  0.5309
 2093SOL    HW212372  10.752   2.323   6.609 -1.5778 -2.7427  0.6841
 2094SOL     OW12373   9.581   5.072   6.117  0.3542 -0.1768 -0.3563
 2094SOL    HW112374   9.636   4.999   6.146  0.5212 -0.2919 -0.9476
 2094SOL    HW212375   9.551   5.113   6.199 -1.4593 -2.1554  0.0414
 2095SOL     OW12376   0.226   1.573   4.906  0.1982 -0.7431  0.2279
 2095SOL    HW112377   0.263   1.659   4.927 -1.0606 -0.3858  1.1252
 2095SOL    HW212378   0.260   1.515   4.975 -0.7560 -0.4454  0.9702
 2096SOL     OW12379  10.091   5.635   8.260  0.0840  0.5330  0.0252
 2096SOL    HW112380  10.006   5.596   8.283 -0.4658  3.0329  2.8810
 2096SOL    HW212381  10.069   5.705   8.198  0.2594  0.2521 -0.3555
 2097SOL     OW12382   8.982   7.087   4.859 -0.1441  0.3891  0.7108
 2097SOL    HW112383   9.035   7.082   4.779 -0.0178  0.1531  0.8103
 2097SOL    HW212384   8.894   7.109   4.827 -0.2343 -0.3352  0.4533
 2098SOL     OW12385   0.369   3.279   0.642 -0.1167  0.0743  0.2334
 2098SOL    HW112386   0.386   3.256   0.734 -0.1733  0.2637  0.2919
 2098SOL    HW212387   0.440   3.238   0.594  0.3715  0.6570  0.4489
 2099SOL     OW12388   8.076   1.126   5.015 -0.1565  0.2139 -0.0969
 2099SOL    HW112389   8.118   1.211   5.030 -1.6950  1.1877 -0.9905
 2099SOL    HW212390   8.015   1.142   4.942 -0.4212 -1.6906 -0.3476
 2100SOL     OW12391   9.077   1.563   9.025  0.4776 -0.4894  0.4078
 2100SOL    HW112392   9.115   1.484   9.064  0.4793 -0.8567 -0.3132
 2100SOL    HW212393   9.126   1.635   9.066  1.1122 -0.9036  0.4033
 2101SOL     OW12394   6.040   6.620   1.579  0.2341 -0.2881  0.3544
 2101SOL    HW112395   6.095   6.585   1.649 -0.5121 -0.9797  0.6075
 2101SOL    HW212396   6.059   6.565   1.503 -0.5906 -0.9769  0.6265
 2102SOL     OW12397   1.390   0.017   1.522 -0.1865 -0.6914 -0.3222
 2102SOL    HW112398   1.376   0.010   1.617 -0.1840 -1.4653 -0.3740
 2102SOL    HW212399   1.317   0.072   1.491 -0.6814 -1.1579  0.0065
 2103SOL     OW12400   1.916   9.357   9.358  0.1652 -0.3056 -0.5078
 2103SOL    HW112401   1.893   9.389   9.446 -1.2118 -0.6616 -0.7110
 2103SOL    HW212402   1.985   9.416   9.328 -0.7984  1.1304 -0.0064
 2104SOL     OW12403   8.948  10.606  10.607  0.4527 -0.1386  0.2355
 2104SOL    HW112404   8.854  10.594  10.621 -0.1107  2.0002 -1.2000
 2104SOL    HW212405   8.963  10.570  10.519  0.5947  1.0782 -0.2554
 2105SOL     OW12406   9.765   2.146   3.381 -0.6969  0.2045 -0.3892
 2105SOL    HW112407   9.803   2.146   3.293  0.3625 -3.6455 -0.0949
 2105SOL    HW212408   9.671   2.139   3.366 -0.5506 -0.1266 -1.2270
 2106SOL     OW12409  10.591   6.441   7.086 -0.2539 -0.1993 -0.2583
 2106SOL    HW112410  10.510   6.447   7.036 -0.1350 -2.3771 -0.8308
 2106SOL    HW212411  10.647   6.384   7.033  0.0017 -2.3968  2.1708
 2107SOL     OW12412   9.648   7.279  10.557 -0.1260 -0.6679 -0.4067
 2107SOL    HW112413   9.726   7.304  10.605 -0.2830  0.5257 -0.7419
 2107SOL    HW212414   9.678   7.214  10.493  0.3933 -0.9693  0.1443
 2108SOL     OW12415   3.985   3.802   2.534  0.5842 -0.1356 -0.4188
 2108SOL    HW112416   3.921   3.861   2.575  0.8723  0.0193 -0.1912
 2108SOL    HW212417   4.041   3.773   2.606 -0.7336 -2.2441 -0.1531
 2109SOL     OW12418   2.034   2.566   7.135 -0.7982 -0.1416  0.2551
 2109SOL    HW112419   2.120   2.530   7.158 -1.4288 -2.7754 -1.0603
 2109SOL    HW212420   2.017   2.631   7.202  2.8610  1.6662 -0.2955
 2110SOL     OW12421   1.673   6.264   9.834  0.0714 -0.3060 -0.0320
 2110SOL    HW112422   1.661   6.212   9.914  0.2644  0.9998  0.8779
 2110SOL    HW212423   1.589   6.306   9.820  0.0370 -0.5384 -0.5297
 2111SOL     OW12424   3.885   3.040   3.788 -0.0947 -0.2414 -0.2123
 2111SOL    HW112425   3.946   3.030   3.861  0.1429 -1.0865 -0.5158
 2111SOL    HW212426   3.798   3.039   3.828  0.0788  1.5902  0.2903
 2112SOL     OW12427   9.447   7.397   4.203  0.1578  0.2873  0.6048
 2112SOL    HW112428   9.453   7.302   4.208  0.0728  0.1712 -0.9559
 2112SOL    HW212429   9.396   7.422   4.280 -0.0752 -0.9498  0.8751
 2113SOL     OW12430   5.822   3.702   6.420  0.3518 -0.2410  0.3557
 2113SOL    HW112431   5.815   3.786   6.466 -0.1617 -1.3568  2.3998
 2113SOL    HW212432   5.744   3.653   6.445 -0.0562 -0.8785 -1.8907
 2114SOL     OW12433   6.700   2.569   2.738  0.0784 -0.5370  0.1388
 2114SOL    HW112434   6.653   2.549   2.657 -0.2182 -0.9032  0.4023
 2114SOL    HW212435   6.755   2.645   2.715  1.7631 -2.0250 -1.0862
 2115SOL     OW12436  10.831   9.302   8.902 -0.0985 -0.4969  0.2019
 2115SOL    HW112437  10.849   9.215   8.868 -0.2296 -0.5688  0.3150
 2115SOL    HW212438  10.873   9.362   8.840  0.6669 -0.6620  0.5386
 2116SOL     OW12439   7.217   9.505   5.932  0.0590  0.8932  0.0534
 2116SOL    HW112440   7.273   9.580   5.912 -1.0505  1.5610 -0.6492
 2116SOL    HW212441   7.150   9.507   5.864 -0.8531  0.1519  0.9133
 2117SOL     OW12442   2.041   1.150   2.856 -0.0699 -0.1822  0.7530
 2117SOL    HW112443   2.027   1.244   2.866  0.7735 -0.0720  0.9597
 2117SOL    HW212444   2.008   1.113   2.938  1.1269  0.1117  1.3931
 2118SOL     OW12445   7.417   0.043  10.347 -0.2512 -0.0127 -0.1725
 2118SOL    HW112446   7.396  -0.051  10.347 -0.6774  0.0745 -1.1626
 2118SOL    HW212447   7.359   0.080  10.414 -0.3907 -0.3839 -0.0816
 2119SOL     OW12448   1.918   6.455   4.322 -0.2166 -0.5690  0.0203
 2119SOL    HW112449   1.880   6.527   4.372 -0.6263  0.3292 -1.5464
 2119SOL    HW212450   2.004   6.486   4.295 -0.6435 -0.3967 -1.1956
 2120SOL     OW12451  10.379   3.835   9.582  0.6250  0.3560 -0.1213
 2120SOL    HW112452  10.307   3.839   9.645  0.3415 -0.5090 -0.3677
 2120SOL    HW212453  10.364   3.910   9.524 -1.1334 -0.7602 -1.2331
 2121SOL     OW12454  10.646   9.397  10.876 -0.1743  0.6240 -0.2318
 2121SOL    HW112455  10.724   9.384  10.822 -0.4890  0.7437 -0.7239
 2121SOL    HW212456  10.645   9.322  10.936 -0.8563 -0.5691 -1.6632
 2122SOL     OW12457   4.419   0.056   8.389 -0.0433  0.2407 -0.2977
 2122SOL    HW112458   4.439   0.128   8.330  0.0540 -0.7292 -1.4683
 2122SOL    HW212459   4.383   0.099   8.467 -2.0735  1.4624 -1.8066
 2123SOL     OW12460   7.491   6.126   5.718  0.2292  0.1456 -0.2271
 2123SOL    HW112461   7.423   6.093   5.777 -0.1033  1.0826 -0.0622
 2123SOL    HW212462   7.456   6.109   5.630 -1.9603  3.7268 -0.2531
 2124SOL     OW12463   9.060   2.867   0.450 -0.4225 -0.2252 -0.0507
 2124SOL    HW112464   9.096   2.778   0.442 -0.2509 -0.3265  1.4969
 2124SOL    HW212465   9.079   2.892   0.541 -1.3536  1.0093 -0.1754
 2125SOL     OW12466   3.939   0.045   0.164 -0.2023  0.2246  0.6864
 2125SOL    HW112467   3.878   0.040   0.090 -1.2675  0.1013  1.5455
 2125SOL    HW212468   3.910  -0.024   0.224  0.4974  0.4753  1.3312
 2126SOL     OW12469   2.565   3.894  10.630 -0.6623 -0.1481  0.7498
 2126SOL    HW112470   2.546   3.981  10.665  0.3247  0.2409  0.3619
 2126SOL    HW212471   2.652   3.873  10.664  1.7164  1.4719 -3.5610
 2127SOL     OW12472   5.270   4.014   1.390  0.0630 -0.1567 -0.1088
 2127SOL    HW112473   5.232   3.944   1.443 -0.1232  0.2639  0.3155
 2127SOL    HW212474   5.363   3.991   1.382  0.0655 -0.2894  0.2921
 2128SOL     OW12475   9.306   1.448   0.066 -0.3598  0.0089 -0.2633
 2128SOL    HW112476   9.242   1.486   0.006  1.7650  1.4669 -1.7510
 2128SOL    HW212477   9.322   1.360   0.031 -1.6989 -0.4752  0.2871
 2129SOL     OW12478   1.611   3.148  10.643 -0.1359 -0.6672  0.2827
 2129SOL    HW112479   1.661   3.131  10.723 -0.5118 -0.3270  0.5935
 2129SOL    HW212480   1.608   3.064  10.598  0.5753 -0.7270  0.3428
 2130SOL     OW12481   6.861   6.002   0.283 -0.0942 -0.2908 -0.2176
 2130SOL    HW112482   6.837   5.910   0.274  0.0119 -0.4209  0.7511
 2130SOL    HW212483   6.896   6.009   0.372 -1.6050  1.0034  0.3165
 2131SOL     OW12484   0.534   5.606   5.898 -0.5337 -0.0032 -0.2859
 2131SOL    HW112485   0.563   5.661   5.825 -0.5285  1.2122  0.5946
 2131SOL    HW212486   0.550   5.660   5.975 -1.3084 -0.9458  0.5496
 2132SOL     OW12487   4.370   7.446  10.376 -0.0095 -0.1116 -0.1186
 2132SOL    HW112488   4.435   7.490  10.321 -0.1427 -0.1944 -0.3454
 2132SOL    HW212489   4.289   7.450  10.325 -0.4622  0.9976  0.6554
 2133SOL     OW12490   4.747   3.240   3.732  0.3631 -0.0474  0.4776
 2133SOL    HW112491   4.682   3.174   3.708  2.3990 -1.3715 -1.9407
 2133SOL    HW212492   4.731   3.312   3.671  0.8620 -0.2097  0.1447
 2134SOL     OW12493  10.735   2.410   2.292 -0.1381 -0.2898 -0.0399
 2134SOL    HW112494  10.711   2.330   2.338 -0.2510 -0.3752 -0.2468
 2134SOL    HW212495  10.682   2.478   2.334  1.3253  0.0154  1.4199
 2135SOL     OW12496   5.603   5.632   5.302 -0.2555 -0.2732 -0.3340
 2135SOL    HW112497   5.650   5.571   5.245 -0.2440 -1.9525  1.3392
 2135SOL    HW212498   5.531   5.579   5.338  0.0228  0.5316  1.5381
 2136SOL     OW12499   6.747   0.942  10.640 -0.5124 -0.6159 -0.4050
 2136SOL    HW112500   6.738   0.847  10.631  0.1507 -1.0052  2.2545
 2136SOL    HW212501   6.839   0.955  10.664 -1.0794  0.4610  1.3513
 2137SOL     OW12502   8.450   3.004  10.291  0.2378 -0.3962  0.3761
 2137SOL    HW112503   8.466   2.977  10.200 -0.5052  0.8432 -0.1570
 2137SOL    HW212504   8.524   3.060  10.313 -0.8060  1.3954 -0.4050
 2138SOL     OW12505   4.684   4.594   4.184 -0.6047  0.2883 -0.4158
 2138SOL    HW112506   4.643   4.594   4.270 -0.4112 -3.1187 -0.1918
 2138SOL    HW212507   4.611   4.602   4.123 -0.8359  1.6599  0.0005
 2139SOL     OW12508   7.053   7.200   3.423 -0.5719  0.1344 -0.3319
 2139SOL    HW112509   7.047   7.163   3.511  1.6406 -0.1257 -0.2409
 2139SOL    HW212510   6.963   7.197   3.389 -1.0278 -2.1994  0.9107
 2140SOL     OW12511   8.684   8.733   9.545 -0.6076 -0.3891  0.0507
 2140SOL    HW112512   8.772   8.739   9.507 -0.9304 -0.2384 -0.6855
 2140SOL    HW212513   8.658   8.825   9.559 -1.0740 -0.3961 -0.7395
 2141SOL     OW12514   7.556   5.140  10.235  0.9785 -0.5564 -0.1162
 2141SOL    HW112515   7.530   5.111  10.322 -2.0762  0.7132 -0.4452
 2141SOL    HW212516   7.618   5.211  10.250  0.0807  0.0130  1.1000
 2142SOL     OW12517   1.860  10.359   8.699  0.1907 -0.2852  0.3657
 2142SOL    HW112518   1.900  10.380   8.615  1.2530 -1.9061  0.4376
 2142SOL    HW212519   1.767  10.346   8.679  0.3496 -0.2002 -0.4551
 2143SOL     OW12520   3.465   9.560   1.574 -0.2555  0.0615  0.3011
 2143SOL    HW112521   3.544   9.551   1.520  1.1178  1.4367  2.0051
 2143SOL    HW212522   3.394   9.568   1.510  0.6770 -2.9520 -1.3024
 2144SOL     OW12523   3.776   4.869   6.284  0.1330  0.5879 -0.4248
 2144SOL    HW112524   3.706   4.933   6.272  0.7293  1.4052  0.3643
 2144SOL    HW212525   3.783   4.825   6.199 -0.3203  1.5156 -0.9572
 2145SOL     OW12526   9.410   8.709   1.874 -0.5674 -0.0730 -0.5187
 2145SOL    HW112527   9.403   8.641   1.806 -0.1976 -0.7075  0.0607
 2145SOL    HW212528   9.504   8.718   1.888 -0.6457  0.0231 -0.0598
 2146SOL     OW12529   1.672   4.893   8.320 -0.0279  0.4986  0.2913
 2146SOL    HW112530   1.728   4.907   8.243 -0.1838  1.7021  0.3766
 2146SOL    HW212531   1.722   4.833   8.375  1.7935  2.4634  0.9255
 2147SOL     OW12532   4.297   7.743   2.155  0.6130  0.1842 -0.1639
 2147SOL    HW112533   4.257   7.669   2.109  0.6629 -0.7887  1.3147
 2147SOL    HW212534   4.338   7.795   2.085  0.2569 -0.9717 -1.2704
 2148SOL     OW12535   9.316   9.260   9.791 -0.5443 -0.1467 -0.4926
 2148SOL    HW112536   9.265   9.182   9.768  0.9535 -1.2669 -0.1504
 2148SOL    HW212537   9.276   9.292   9.871 -2.0319  0.2640 -1.3598
 2149SOL     OW12538  10.106   6.768  10.207 -0.0295 -0.0064 -0.5387
 2149SOL    HW112539  10.055   6.692  10.233 -1.6391  1.6010  1.3656
 2149SOL    HW212540  10.197   6.737  10.207 -0.5031 -1.6311  1.5054
 2150SOL     OW12541  10.778   3.042   4.778  0.0950 -1.0614  0.4836
 2150SOL    HW112542  10.767   3.111   4.844 -0.8120 -0.7305  0.0041
 2150SOL    HW212543  10.705   3.055   4.718  0.6187 -1.6815 -0.3029
 2151SOL     OW12544   3.592   9.442   4.012 -0.1053  0.4962  0.1195
 2151SOL    HW112545   3.572   9.509   4.077 -1.7647  0.3194 -0.1481
 2151SOL    HW212546   3.592   9.489   3.929  1.8049  0.6834  0.1838
 2152SOL     OW12547   4.750   3.185   5.221  0.2556  0.9051  0.0935
 2152SOL    HW112548   4.834   3.224   5.197  0.5532  0.2675  0.0580
 2152SOL    HW212549   4.714   3.244   5.287 -0.0250  2.0410 -1.0533
 2153SOL     OW12550   4.570   0.813   7.633  0.1444  0.0560  0.0735
 2153SOL    HW112551   4.543   0.775   7.549 -1.6922  1.1930  0.0980
 2153SOL    HW212552   4.488   0.822   7.682  1.0942  0.1632  1.6867
 2154SOL     OW12553   6.478   0.421   5.515  0.1573  0.3174  0.1745
 2154SOL    HW112554   6.445   0.367   5.587  0.4193 -0.8302 -0.5535
 2154SOL    HW212555   6.549   0.472   5.554 -0.1035  0.1632  0.8725
 2155SOL     OW12556  10.155   1.099  10.045 -0.0499 -0.1461 -0.4299
 2155SOL    HW112557  10.204   1.142   9.974 -1.2030  0.2541 -1.0019
 2155SOL    HW212558  10.159   1.006  10.024 -0.8491  0.0090 -1.3492
 2156SOL     OW12559  10.289   4.712   6.532 -0.4967 -0.4645  0.1426
 2156SOL    HW112560  10.273   4.623   6.565 -2.7519  1.0043  3.6744
 2156SOL    HW212561  10.343   4.753   6.600 -0.9718  1.3517 -0.5265
 2157SOL     OW12562   6.907   7.075   6.754 -0.5797 -0.1112  0.6505
 2157SOL    HW112563   6.830   7.133   6.752 -0.9703 -0.5053  2.5825
 2157SOL    HW212564   6.876   6.995   6.795  0.7301 -0.5127  0.9017
 2158SOL     OW12565   7.360   8.803   4.600 -0.0498  0.5373  0.1981
 2158SOL    HW112566   7.300   8.729   4.610 -0.5486  0.9855  0.5867
 2158SOL    HW212567   7.339   8.839   4.514 -0.2234  0.5891  0.2611
 2159SOL     OW12568   1.871   0.081   7.917 -0.8855  0.2812  0.0839
 2159SOL    HW112569   1.942   0.071   7.853 -1.5835 -1.4698 -0.4695
 2159SOL    HW212570   1.886   0.011   7.980 -1.3574  0.7542  0.7331
 2160SOL     OW12571   9.114   6.173   7.001 -0.1196  0.0711  0.2046
 2160SOL    HW112572   9.020   6.153   7.010 -1.4059  4.7045 -0.5849
 2160SOL    HW212573   9.123   6.209   6.913  1.8891  1.9765  1.1109
 2161SOL     OW12574   7.200   9.033   1.084 -0.3190  0.6111  0.2189
 2161SOL    HW112575   7.149   9.113   1.079  0.9089  1.4927  1.0867
 2161SOL    HW212576   7.291   9.062   1.072  0.0286 -0.8732 -1.1303
 2162SOL     OW12577  10.835   1.273   3.858 -0.1266 -0.1152 -0.8364
 2162SOL    HW112578  10.830   1.368   3.867 -0.4650 -0.1467 -0.6506
 2162SOL    HW212579  10.823   1.240   3.947 -2.3678 -0.3917 -1.1758
 2163SOL     OW12580   6.522   6.904   8.927  0.1697 -0.6112 -0.2655
 2163SOL    HW112581   6.586   6.852   8.976  0.4398  0.4370  0.5336
 2163SOL    HW212582   6.574   6.970   8.881 -0.2854 -0.1339 -0.1069
 2164SOL     OW12583   2.365   0.785   6.587  0.1204  0.1338  0.0476
 2164SOL    HW112584   2.287   0.739   6.620  0.6235  0.4678  1.7817
 2164SOL    HW212585   2.383   0.743   6.503  0.1076 -2.3359  1.1974
 2165SOL     OW12586   7.974   6.918   5.143  0.0854 -0.5780  0.3651
 2165SOL    HW112587   7.993   6.923   5.237 -0.7446  1.4159  0.4721
 2165SOL    HW212588   7.923   6.838   5.133  3.0157 -2.7024  1.0128
 2166SOL     OW12589   0.582  10.765   5.740 -0.2185  0.6054  0.2690
 2166SOL    HW112590   0.514  10.713   5.783  2.9666 -2.7444  1.8965
 2166SOL    HW212591   0.582  10.736   5.649 -2.3103  2.3638 -0.3664
 2167SOL     OW12592  10.552   4.447   6.538  0.6150 -1.1387 -0.0652
 2167SOL    HW112593  10.616   4.515   6.557  0.3079 -0.4683 -1.2903
 2167SOL    HW212594  10.597   4.365   6.557  0.5970 -0.6236  2.6427
 2168SOL     OW12595   9.424   3.435   0.165  0.5951  0.0471  0.3590
 2168SOL    HW112596   9.475   3.511   0.192  0.1803  0.1958  0.7420
 2168SOL    HW212597   9.471   3.399   0.090  1.6736 -0.2682  1.1658
 2169SOL     OW12598  10.580   3.102   5.885  0.8702  0.2119  0.0680
 2169SOL    HW112599  10.492   3.095   5.921  1.1962 -1.3300  0.6305
 2169SOL    HW212600  10.631   3.143   5.955  0.7636  0.4681 -0.0000
 2170SOL     OW12601   3.554   7.553   0.227  0.0949  0.4888  0.5453
 2170SOL    HW112602   3.647   7.537   0.244  0.4177 -0.2471 -1.5901
 2170SOL    HW212603   3.515   7.465   0.226  0.0204  0.4932 -1.7040
 2171SOL     OW12604   4.013   1.707   2.918 -0.6805  0.1961 -0.1941
 2171SOL    HW112605   4.035   1.666   3.002 -0.3113 -1.2970 -0.9818
 2171SOL    HW212606   4.096   1.741   2.886 -0.5576 -0.4098 -0.5434
 2172SOL     OW12607   1.828   6.697   5.190  0.3592  0.0508 -0.0909
 2172SOL    HW112608   1.877   6.636   5.134 -2.4668 -1.5263 -1.0421
 2172SOL    HW212609   1.776   6.749   5.128 -0.4495  0.5064  0.9505
 2173SOL     OW12610   9.262   9.947   6.634  0.7841  0.2481  0.8000
 2173SOL    HW112611   9.238  10.028   6.588 -0.0534  1.4342  3.1850
 2173SOL    HW212612   9.313   9.976   6.709  1.0035 -1.4973  1.3734
 2174SOL     OW12613   4.054   7.676   6.736 -0.1752  0.6631 -0.1308
 2174SOL    HW112614   4.075   7.722   6.655  0.2438  0.4407 -0.1483
 2174SOL    HW212615   4.105   7.721   6.803 -1.2757  1.4852  0.1843
 2175SOL     OW12616   0.218   7.844   1.771 -0.0600  0.7079 -0.4006
 2175SOL    HW112617   0.296   7.897   1.786 -1.1590  2.0685  0.7235
 2175SOL    HW212618   0.246   7.778   1.708  1.5293  2.2335 -1.3752
 2176SOL     OW12619   8.862   4.267   9.130  0.0080  0.1797 -0.1047
 2176SOL    HW112620   8.946   4.225   9.114  1.3724  2.1564  1.5076
 2176SOL    HW212621   8.851   4.327   9.056  0.6351  0.8497  0.3466
 2177SOL     OW12622   0.193   8.751   1.189 -0.2127 -0.2457 -0.6484
 2177SOL    HW112623   0.213   8.830   1.238  1.0447  0.6227 -2.4375
 2177SOL    HW212624   0.194   8.778   1.097 -0.9134 -2.1098 -1.2742
 2178SOL     OW12625   4.931  10.882   0.746  0.0503  0.1984  0.2643
 2178SOL    HW112626   4.904  10.924   0.827 -0.1981 -1.1551  0.9125
 2178SOL    HW212627   4.955  10.954   0.688 -1.5460  1.2705  0.8878
 2179SOL     OW12628   4.147   4.561  10.041  0.1401 -0.7683 -0.1345
 2179SOL    HW112629   4.073   4.500  10.043 -0.0158 -0.6406 -1.5316
 2179SOL    HW212630   4.219   4.512  10.081 -0.4620 -1.2022  0.4445
 2180SOL     OW12631   0.693   9.346   9.385 -0.6625 -0.1380  0.1924
 2180SOL    HW112632   0.701   9.375   9.476 -1.1261  0.5556  0.0183
 2180SOL    HW212633   0.599   9.340   9.371 -0.5854 -0.4512 -0.1818
 2181SOL     OW12634   5.880   6.739   6.332  0.4448 -0.6276 -0.0826
 2181SOL    HW112635   5.966   6.719   6.296  0.1011 -0.6030 -0.9358
 2181SOL    HW212636   5.838   6.654   6.342  0.7773 -0.6920  0.9077
 2182SOL     OW12637   5.407  10.707   9.963 -0.6356 -0.8896 -0.7549
 2182SOL    HW112638   5.472  10.717   9.894  0.5302 -1.1837  0.2469
 2182SOL    HW212639   5.337  10.767   9.939  0.8358  0.8659 -0.9394
 2183SOL     OW12640  10.912   8.034   5.153 -0.3490  0.2043 -0.0401
 2183SOL    HW112641  10.923   8.077   5.069  0.6335 -1.0368 -0.5762
 2183SOL    HW212642  10.827   7.990   5.146 -1.1310  1.5810  0.3333
 2184SOL     OW12643   5.749  10.312   8.052 -0.4685  0.5380 -0.2335
 2184SOL    HW112644   5.754  10.407   8.058 -0.4994  0.5729 -0.7165
 2184SOL    HW212645   5.816  10.280   8.112 -0.1618  0.8682 -0.3997
 2185SOL     OW12646   6.186   4.469   2.150  0.1554  0.1198  0.0545
 2185SOL    HW112647   6.174   4.560   2.123  0.3893  0.4793  1.1218
 2185SOL    HW212648   6.174   4.418   2.069  0.2038  1.1035 -0.5870
 2186SOL     OW12649   2.005   3.896   8.780  0.4728  0.4405 -0.7281
 2186SOL    HW112650   2.085   3.888   8.729  1.4303 -1.0230  0.8994
 2186SOL    HW212651   1.958   3.814   8.765  0.6201  0.1203  0.4443
 2187SOL     OW12652   1.619  10.183   8.143 -0.5475  0.4608  0.3660
 2187SOL    HW112653   1.526  10.199   8.160 -1.5409 -2.4881 -1.6604
 2187SOL    HW212654   1.633  10.214   8.053 -0.8510 -3.0957 -1.0648
 2188SOL     OW12655   6.635   6.544  10.186 -0.1410  0.1480 -0.3508
 2188SOL    HW112656   6.656   6.463  10.141 -0.8240  0.1822 -0.7433
 2188SOL    HW212657   6.676   6.613  10.134 -1.4277  0.2416 -1.2840
 2189SOL     OW12658   4.364   0.222   3.931  0.8476 -0.1409 -0.2241
 2189SOL    HW112659   4.401   0.308   3.911 -0.0980  0.2657 -0.3022
 2189SOL    HW212660   4.389   0.206   4.022 -0.6025  1.1325  0.4492
 2190SOL     OW12661   5.867   3.800   1.264  0.4761  0.1464 -0.4409
 2190SOL    HW112662   5.935   3.858   1.298 -0.0085  0.3266  0.2327
 2190SOL    HW212663   5.881   3.717   1.310  1.6952 -0.5672 -2.0099
 2191SOL     OW12664   7.964   5.367   1.145  0.1445 -0.5480  0.5043
 2191SOL    HW112665   8.030   5.300   1.164 -0.3857 -1.4522 -0.6511
 2191SOL    HW212666   7.882   5.318   1.141 -0.2767  0.1937 -0.1805
 2192SOL     OW12667   6.766   9.874   5.109 -0.3354  0.6383 -0.1577
 2192SOL    HW112668   6.749   9.947   5.049  0.4313  0.5405 -0.5109
 2192SOL    HW212669   6.796   9.916   5.190  1.5118  0.7162 -0.8216
 2193SOL     OW12670   6.404   8.352   0.088  0.5023 -0.3497 -0.1911
 2193SOL    HW112671   6.367   8.289   0.025  0.4433  0.5664 -1.0945
 2193SOL    HW212672   6.328   8.383   0.138  0.2699  0.3017 -0.9316
 2194SOL     OW12673   3.814   6.960   4.381  0.1283 -0.4068 -0.1165
 2194SOL    HW112674   3.908   6.949   4.366  0.5050 -0.0449  1.7229
 2194SOL    HW212675   3.790   7.035   4.327  0.9061 -0.4679 -0.5624
 2195SOL     OW12676   1.247   2.861   6.986 -0.2117  0.2597 -0.2131
 2195SOL    HW112677   1.308   2.839   7.056 -2.1385 -0.2117  1.4055
 2195SOL    HW212678   1.269   2.799   6.915 -0.2681 -1.4637  1.2044
 2196SOL     OW12679   7.036   4.440   6.301 -0.4048 -0.6586 -0.0907
 2196SOL    HW112680   7.085   4.520   6.320  0.1435 -1.0391  0.1245
 2196SOL    HW212681   6.953   4.471   6.264 -0.4500  0.0250  0.5461
 2197SOL     OW12682  10.832   8.269   3.679  0.0872 -0.4406 -0.1797
 2197SOL    HW112683  10.882   8.191   3.655 -0.7646 -0.7644 -0.9561
 2197SOL    HW212684  10.789   8.245   3.761  2.5155  0.4519  1.4451
 2198SOL     OW12685   9.249   4.117   1.141 -0.6410  0.0887  0.9192
 2198SOL    HW112686   9.337   4.094   1.171  0.5477 -0.8905 -2.7245
 2198SOL    HW212687   9.235   4.206   1.173  1.4256  0.0569  2.0862
 2199SOL     OW12688   6.592   7.472   0.182 -0.1719 -0.2604 -0.6801
 2199SOL    HW112689   6.551   7.548   0.139 -0.2804  0.6823  1.0245
 2199SOL    HW212690   6.656   7.510   0.242  0.6570 -1.5875 -0.6823
 2200SOL     OW12691   1.201  10.009   3.845  0.3950  0.4381  0.0908
 2200SOL    HW112692   1.160  10.007   3.932 -0.8622 -1.0016 -0.4867
 2200SOL    HW212693   1.221   9.917   3.827 -2.6470  0.1529 -2.5998
 2201SOL     OW12694  10.686   3.350   3.851  0.6302  0.4269 -0.0235
 2201SOL    HW112695  10.745   3.290   3.897  1.0126  0.8980  0.1031
 2201SOL    HW212696  10.600   3.331   3.887  1.1577  2.0419  2.2489
 2202SOL     OW12697  10.476   2.961   2.055 -0.0345  0.2831  0.0300
 2202SOL    HW112698  10.487   3.036   1.996 -1.7836  0.3066 -0.3324
 2202SOL    HW212699  10.525   2.890   2.014  0.8992  0.9852 -0.0917
 2203SOL     OW12700   5.531   5.757   5.991  0.0072  0.4224  0.1255
 2203SOL    HW112701   5.437   5.741   5.998  0.2062 -1.6681 -1.3965
 2203SOL    HW212702   5.570   5.697   6.055  0.3843  0.1979 -0.3152
 2204SOL     OW12703   3.547   5.909   1.307  0.1697 -0.0635 -0.2657
 2204SOL    HW112704   3.569   5.995   1.344  1.8796 -0.7252  0.3707
 2204SOL    HW212705   3.602   5.847   1.356 -1.0977 -1.5511 -0.6325
 2205SOL     OW12706   5.177  10.916   1.377 -0.8254 -0.7868  0.1023
 2205SOL    HW112707   5.230  10.895   1.454  0.2135 -1.6504 -0.8269
 2205SOL    HW212708   5.122  10.838   1.364  0.2439 -1.3834 -1.0331
 2206SOL     OW12709   9.334   0.938   7.253 -0.8739  0.0972 -0.0263
 2206SOL    HW112710   9.248   0.904   7.278 -1.5454  1.8818  0.2906
 2206SOL    HW212711   9.314   1.014   7.198  0.5434 -0.6971 -1.7433
 2207SOL     OW12712   3.729   6.642   0.233 -0.2696  0.2063 -0.1894
 2207SOL    HW112713   3.663   6.669   0.297 -0.8888 -0.7656 -0.3862
 2207SOL    HW212714   3.785   6.580   0.280 -1.2046 -1.1333 -0.7483
 2208SOL     OW12715   6.272   2.922   3.814 -0.1172 -0.2816  0.1292
 2208SOL    HW112716   6.215   2.916   3.891 -0.6492  0.7249 -0.1664
 2208SOL    HW212717   6.293   3.015   3.808  1.6828 -0.6529  0.2991
 2209SOL     OW12718  10.865  10.772   1.941 -0.3652  0.0798 -0.7537
 2209SOL    HW112719  10.899  10.836   2.003 -0.1537 -0.2142 -0.5678
 2209SOL    HW212720  10.770  10.783   1.945 -0.2972  1.7972 -2.1958
 2210SOL     OW12721   7.868   7.620   8.914 -0.6801  0.1877  0.0862
 2210SOL    HW112722   7.825   7.626   8.829  1.8174  2.1695 -1.1840
 2210SOL    HW212723   7.822   7.684   8.969 -0.3845  1.1636 -0.7716
 2211SOL     OW12724   9.837   9.500   7.934  0.2684 -0.1174  0.3567
 2211SOL    HW112725   9.821   9.584   7.977  1.0384  0.7918 -1.0532
 2211SOL    HW212726   9.864   9.523   7.845  0.4379 -1.8682 -0.0844
 2212SOL     OW12727   3.955   1.039   8.139  0.4381 -0.1910 -0.1830
 2212SOL    HW112728   4.026   1.093   8.104  1.6590  0.3811  2.9035
 2212SOL    HW212729   3.992   0.999   8.218 -2.0448 -1.5466  0.3870
 2213SOL     OW12730   1.292  10.560   3.875  0.5488  0.1244  0.0597
 2213SOL    HW112731   1.370  10.538   3.926  1.1368  0.9152 -0.4734
 2213SOL    HW212732   1.246  10.477   3.865  1.3679 -0.3755  0.3061
 2214SOL     OW12733   3.814   8.206   1.185 -0.0678 -0.0275  0.0310
 2214SOL    HW112734   3.724   8.237   1.188 -0.5656 -1.3305 -0.7409
 2214SOL    HW212735   3.860   8.262   1.248 -1.7532 -0.4429  1.7212
 2215SOL     OW12736   3.025   9.604   2.955  0.6957  0.5410 -0.2832
 2215SOL    HW112737   3.082   9.565   3.021 -0.6940 -1.0939  0.0121
 2215SOL    HW212738   3.005   9.691   2.990  1.3754  0.3642  0.5845
 2216SOL     OW12739   2.461   4.826   5.567 -0.2040 -0.0127 -0.2165
 2216SOL    HW112740   2.432   4.735   5.578  0.1004 -0.1048 -0.1534
 2216SOL    HW212741   2.449   4.865   5.654 -0.2662 -0.0151 -0.2242
 2217SOL     OW12742   3.831   0.016   1.618 -0.0067 -0.5960  0.3073
 2217SOL    HW112743   3.812  -0.055   1.556  1.6293 -0.6998 -0.1454
 2217SOL    HW212744   3.861   0.088   1.563 -1.9157  0.5862  0.7453
 2218SOL     OW12745  10.064   4.669   2.208  0.3562 -0.1880  0.8499
 2218SOL    HW112746  10.077   4.576   2.189  0.3101  0.0528 -0.4605
 2218SOL    HW212747   9.995   4.670   2.273 -0.1531 -1.0578  0.3539
 2219SOL     OW12748   7.595   1.504   9.046  0.0212  0.7564 -0.1164
 2219SOL    HW112749   7.689   1.511   9.026  0.8082  3.3185  3.4526
 2219SOL    HW212750   7.552   1.544   8.970  1.6256 -1.3652 -2.3050
 2220SOL     OW12751  10.046  10.855   7.430  0.0241  0.2616  0.0669
 2220SOL    HW112752  10.136  10.875   7.456  0.0367  0.6141 -0.2393
 2220SOL    HW212753  10.044  10.870   7.336 -0.5299  0.9365  0.1723
 2221SOL     OW12754   3.228   7.797   2.925  0.0433  0.6724 -0.2868
 2221SOL    HW112755   3.261   7.777   2.837 -0.5476  1.6734 -0.7485
 2221SOL    HW212756   3.271   7.879   2.949  1.3768 -0.3440  1.0188
 2222SOL     OW12757   2.164   6.473   8.853  0.3426 -0.2177  0.5407
 2222SOL    HW112758   2.126   6.560   8.838 -1.0881 -0.9350 -0.2263
 2222SOL    HW212759   2.237   6.467   8.792 -0.6444 -0.1987 -0.6648
 2223SOL     OW12760   1.578   4.628  10.400 -0.3464 -0.0464 -0.0532
 2223SOL    HW112761   1.662   4.647  10.443 -0.4756 -0.5850  0.4464
 2223SOL    HW212762   1.537   4.714  10.389  0.2464  0.2155 -0.2527
 2224SOL     OW12763  10.085  10.684   5.626 -0.1045  0.1031 -0.0297
 2224SOL    HW112764   9.995  10.709   5.645 -0.8095 -2.5113  0.3861
 2224SOL    HW212765  10.092  10.690   5.531 -0.1878  1.8145  0.0378
 2225SOL     OW12766  10.108   7.780   9.533  0.0479 -0.0870 -0.6497
 2225SOL    HW112767  10.156   7.823   9.604  1.4828 -2.0554 -0.3243
 2225SOL    HW212768  10.017   7.779   9.562  0.3253  0.7250  0.3211
 2226SOL     OW12769   0.586   1.435   5.524  0.1072 -0.0223  0.0546
 2226SOL    HW112770   0.621   1.373   5.461  0.3745  1.6930 -1.6037
 2226SOL    HW212771   0.496   1.451   5.495  0.2599  0.8558  0.0326
 2227SOL     OW12772  10.402   6.649   0.235 -0.2827  0.3354  0.0211
 2227SOL    HW112773  10.330   6.690   0.186  1.6549  3.4515 -0.4517
 2227SOL    HW212774  10.463   6.620   0.167 -0.1960 -0.5600  0.4743
 2228SOL     OW12775   2.993   4.661   8.191 -0.1596  0.6499  0.2288
 2228SOL    HW112776   3.038   4.646   8.108 -0.4889  1.0905 -0.0328
 2228SOL    HW212777   2.905   4.626   8.178 -0.3288  1.0596  0.2599
 2229SOL     OW12778   6.375  10.816   2.481 -0.1427 -0.1630  0.4661
 2229SOL    HW112779   6.382  10.800   2.575 -1.0617 -0.5390  0.4783
 2229SOL    HW212780   6.351  10.909   2.475  0.2792 -0.0407  0.5760
 2230SOL     OW12781   6.523   4.076   9.574 -0.0139 -0.3727 -0.0669
 2230SOL    HW112782   6.547   4.148   9.516  0.2864  0.5954  1.2096
 2230SOL    HW212783   6.482   4.011   9.517  1.8359 -0.2511 -1.6552
 2231SOL     OW12784   8.113   6.086   0.648  0.6273 -0.2546  0.1582
 2231SOL    HW112785   8.106   5.996   0.616  1.0285  0.0923 -0.9441
 2231SOL    HW212786   8.104   6.140   0.570 -0.5731  0.7159  0.9271
 2232SOL     OW12787   4.404  10.752   6.508  0.7672  0.1073  0.3057
 2232SOL    HW112788   4.403  10.837   6.550  0.0318  0.2073  0.0930
 2232SOL    HW212789   4.497  10.728   6.505  0.8303 -0.0287  2.2104
 2233SOL     OW12790   1.857   2.927   0.897 -0.2388  0.2516 -0.1765
 2233SOL    HW112791   1.840   2.939   0.990 -0.2168 -0.7425 -0.0338
 2233SOL    HW212792   1.940   2.878   0.894 -0.0015  0.6761 -0.7324
 2234SOL     OW12793   8.563   0.789  10.405 -0.1792 -0.3262  0.9109
 2234SOL    HW112794   8.595   0.835  10.483  0.1465 -2.3469  2.0562
 2234SOL    HW212795   8.486   0.741  10.436 -1.3230  0.4796 -0.5715
 2235SOL     OW12796   5.988   9.392   6.351 -0.1343  0.4212 -0.1780
 2235SOL    HW112797   5.990   9.298   6.336  1.1241  0.5865 -1.2427
 2235SOL    HW212798   6.081   9.417   6.357 -0.4437  1.6198 -0.1164
 2236SOL     OW12799   6.881   9.807   2.705 -0.1700 -0.6369 -0.1161
 2236SOL    HW112800   6.896   9.757   2.625  1.1230 -0.3055 -0.1080
 2236SOL    HW212801   6.962   9.858   2.717  1.6887 -3.8850  3.7144
 2237SOL     OW12802  10.795   2.875   9.110 -0.4562  0.2133 -0.7036
 2237SOL    HW112803  10.817   2.795   9.159 -0.7607  0.1136 -0.7336
 2237SOL    HW212804  10.857   2.876   9.037  0.2706  0.5696 -0.0957
 2238SOL     OW12805   5.849   5.348   4.532  0.1980  0.0018 -0.0694
 2238SOL    HW112806   5.925   5.292   4.548  0.3194  0.4702  1.0490
 2238SOL    HW212807   5.808   5.358   4.618  0.0868  1.5008 -0.2780
 2239SOL     OW12808   9.661   4.682   6.209 -0.4161  0.3007 -0.4438
 2239SOL    HW112809   9.716   4.616   6.251 -0.4598  0.4291 -0.1815
 2239SOL    HW212810   9.703   4.765   6.232 -0.3088  0.3595 -0.8477
 2240SOL     OW12811   0.503   2.329   6.480  0.2840 -0.6705  0.3336
 2240SOL    HW112812   0.477   2.238   6.494  1.0871 -1.3645 -2.2211
 2240SOL    HW212813   0.500   2.342   6.386  0.6270  1.8443  0.5827
 2241SOL     OW12814   6.220   7.818   4.544  0.2298 -0.1485  0.2465
 2241SOL    HW112815   6.171   7.862   4.474 -0.2940  0.0384  0.7192
 2241SOL    HW212816   6.309   7.811   4.510  0.3662  1.4070  0.2026
 2242SOL     OW12817   4.430   8.885   2.741  0.0223 -0.0767  0.2594
 2242SOL    HW112818   4.410   8.979   2.737 -0.4335 -0.1351  1.0153
 2242SOL    HW212819   4.352   8.845   2.780  0.9841 -0.5122  1.8123
 2243SOL     OW12820   3.373   1.582   9.048  0.2264  0.9284 -0.5489
 2243SOL    HW112821   3.383   1.657   9.108  0.0442  0.8690 -0.4416
 2243SOL    HW212822   3.355   1.622   8.963  0.4395  1.0137 -0.5539
 2244SOL     OW12823   2.445   4.342   6.237 -0.0997 -0.6847  0.3293
 2244SOL    HW112824   2.430   4.433   6.212  0.5138 -0.5028  0.5822
 2244SOL    HW212825   2.358   4.306   6.254 -0.4258 -0.4643 -0.8371
 2245SOL     OW12826   1.142  10.747   9.530 -0.1522  0.4296  0.4192
 2245SOL    HW112827   1.123  10.725   9.439 -0.0403  0.4594  0.3893
 2245SOL    HW212828   1.065  10.716   9.578 -0.6869  1.3742  0.1853
 2246SOL     OW12829   3.702   0.958   7.864  0.3536 -0.2544 -0.2545
 2246SOL    HW112830   3.612   0.967   7.832  0.5121 -0.1959 -0.6903
 2246SOL    HW212831   3.694   0.910   7.946 -0.1853  0.7527  0.3009
 2247SOL     OW12832   1.466   4.233   9.791  0.3271  0.3475  0.6718
 2247SOL    HW112833   1.440   4.303   9.731 -0.9474 -0.6762 -0.0226
 2247SOL    HW212834   1.515   4.277   9.860 -0.0577  1.8594  0.0133
 2248SOL     OW12835   3.040   1.184  10.414 -0.1021  0.0838  1.1960
 2248SOL    HW112836   3.103   1.118  10.444  0.0970 -0.9992 -1.3716
 2248SOL    HW212837   2.978   1.136  10.360  0.3019  2.0163 -1.1630
 2249SOL     OW12838   9.061   4.512   8.941 -0.4389 -0.1020 -0.3369
 2249SOL    HW112839   9.005   4.513   9.019 -0.9182 -0.7690 -0.6715
 2249SOL    HW212840   9.002   4.489   8.869 -0.2361  1.6232 -1.1009
 2250SOL     OW12841   0.142   8.931   1.944  0.7025 -0.0850 -0.1523
 2250SOL    HW112842   0.089   8.950   1.866  2.1451  2.5089 -0.6151
 2250SOL    HW212843   0.090   8.965   2.017  0.4773 -0.2088 -0.2518
 2251SOL     OW12844   3.728   4.096   9.450  0.2958 -0.0844  0.7205
 2251SOL    HW112845   3.634   4.079   9.461 -0.2467  1.6210 -0.7112
 2251SOL    HW212846   3.743   4.178   9.497  0.8803  0.0952  0.2308
 2252SOL     OW12847   7.402   2.534   5.438  0.4966 -0.2156  0.1638
 2252SOL    HW112848   7.418   2.455   5.490 -1.4251  0.1613  1.4498
 2252SOL    HW212849   7.344   2.506   5.368 -0.5853  0.0850  0.9023
 2253SOL     OW12850   1.475   7.758   9.079  0.6567 -0.1217  0.2245
 2253SOL    HW112851   1.542   7.746   9.012 -0.4360  0.9245 -1.1244
 2253SOL    HW212852   1.395   7.776   9.030 -0.6532 -1.3830  1.7764
 2254SOL     OW12853   4.435   0.020   0.750 -0.2479 -0.0363 -0.3876
 2254SOL    HW112854   4.357   0.076   0.743 -1.8851 -1.5105  3.2498
 2254SOL    HW212855   4.508   0.080   0.760 -1.7025  1.5288  1.5541
 2255SOL     OW12856   3.164   9.240   1.788 -0.0089  0.2608  0.0917
 2255SOL    HW112857   3.255   9.266   1.770 -0.1989  0.1958 -1.0067
 2255SOL    HW212858   3.130   9.211   1.704 -1.6784  2.1849  0.0231
 2256SOL     OW12859   5.484   2.283   3.610  0.1954  0.2292 -0.0547
 2256SOL    HW112860   5.475   2.351   3.543  1.3136  1.2194  0.7536
 2256SOL    HW212861   5.465   2.329   3.692  1.5326 -0.2768  0.5601
 2257SOL     OW12862   5.080   7.519   6.645  0.5489 -0.3077 -0.0498
 2257SOL    HW112863   5.055   7.500   6.555  1.5738  0.8595 -0.6168
 2257SOL    HW212864   4.999   7.550   6.687  0.0423 -0.9783 -0.5133
 2258SOL     OW12865   4.856   6.534  10.812 -0.6285 -0.1475  0.1044
 2258SOL    HW112866   4.814   6.501  10.891  0.4818  1.0898  1.2539
 2258SOL    HW212867   4.935   6.482  10.802  0.0170  0.6927  0.7008
 2259SOL     OW12868   6.604   6.584   2.446 -0.6562 -0.6594 -0.0473
 2259SOL    HW112869   6.680   6.562   2.500 -0.7735 -1.7479 -0.2985
 2259SOL    HW212870   6.557   6.501   2.436 -2.3979  0.1560  0.8811
 2260SOL     OW12871   6.026   0.917   9.728  0.0938 -0.0895 -0.0625
 2260SOL    HW112872   6.100   0.928   9.788  0.6401 -0.7803 -0.5812
 2260SOL    HW212873   5.975   0.997   9.738  1.0413  0.5118  0.1532
 2261SOL     OW12874   3.719   2.204   6.896  0.2725  0.0188 -0.0257
 2261SOL    HW112875   3.751   2.294   6.903  0.2009  0.0587 -0.2287
 2261SOL    HW212876   3.734   2.167   6.983 -1.7428  0.8946  0.7388
 2262SOL     OW12877   6.123   7.162   2.688 -0.7715  0.1250  0.1062
 2262SOL    HW112878   6.094   7.085   2.737  0.0868  0.0913  0.5896
 2262SOL    HW212879   6.043   7.201   2.654 -1.4056  0.1351  1.5363
 2263SOL     OW12880   8.245   9.985   4.869 -0.2718 -0.0056 -0.1635
 2263SOL    HW112881   8.305   9.917   4.900  0.1466 -0.1879 -1.3137
 2263SOL    HW212882   8.202  10.017   4.948  1.4835  0.2737  0.7394
 2264SOL     OW12883   1.791   2.069   9.813  0.3296 -0.0618  0.2435
 2264SOL    HW112884   1.767   2.074   9.721  2.7628  0.0338 -0.4514
 2264SOL    HW212885   1.881   2.038   9.813 -0.5125 -3.0325  2.7360
 2265SOL     OW12886  10.394   9.922   4.948 -0.7297  0.4623  0.4102
 2265SOL    HW112887  10.396  10.006   4.996  0.3984  1.3926 -1.1623
 2265SOL    HW212888  10.427   9.944   4.861  0.0116 -1.7270  0.0906
 2266SOL     OW12889   2.789  10.238  10.584 -0.0265 -0.1697  0.2237
 2266SOL    HW112890   2.843  10.292  10.642  0.1714  0.1243 -0.2277
 2266SOL    HW212891   2.700  10.269  10.597  0.1023  0.3472 -0.1191
 2267SOL     OW12892   7.211   8.363   5.619 -0.4594 -0.4069  0.2113
 2267SOL    HW112893   7.153   8.437   5.598  0.8866  0.3472 -1.0777
 2267SOL    HW212894   7.185   8.294   5.558  1.2416  0.6335 -1.8255
 2268SOL     OW12895   4.847   4.486   0.865 -0.1543 -0.1482  0.0325
 2268SOL    HW112896   4.841   4.581   0.874  1.3257  0.0273 -0.4456
 2268SOL    HW212897   4.925   4.462   0.916 -0.7797 -1.1753  0.5418
 2269SOL     OW12898   6.753   7.386   2.094 -0.5954 -0.0135 -0.2786
 2269SOL    HW112899   6.703   7.306   2.112 -0.2872  0.4012  3.0451
 2269SOL    HW212900   6.694   7.457   2.118  0.1238  0.6451 -0.4227
 2270SOL     OW12901   0.541   4.295   0.724  0.4665  0.0094  0.3658
 2270SOL    HW112902   0.455   4.277   0.686  0.3038  0.9776  0.2523
 2270SOL    HW212903   0.527   4.372   0.780  1.0824 -0.3304  0.9958
 2271SOL     OW12904   8.978   7.481   9.621 -0.2103 -0.2504  0.0460
 2271SOL    HW112905   8.976   7.524   9.706 -0.7888 -0.3333  0.0811
 2271SOL    HW212906   8.887   7.457   9.604 -0.2785  0.7436 -1.1080
 2272SOL     OW12907  10.856   7.476  10.111 -0.1646 -0.3415 -0.4882
 2272SOL    HW112908  10.795   7.418  10.156 -0.7959  0.4114 -0.3493
 2272SOL    HW212909  10.800   7.531  10.055  0.5363 -0.8309 -1.7192
 2273SOL     OW12910   4.528   0.705   4.916 -0.2011  0.1915  0.3783
 2273SOL    HW112911   4.614   0.743   4.934  0.5868 -1.2867 -0.0761
 2273SOL    HW212912   4.486   0.697   5.002  1.6096 -2.4101  1.1517
 2274SOL     OW12913   0.392   0.476   4.302 -0.2527 -0.1221 -0.0927
 2274SOL    HW112914   0.450   0.553   4.303 -2.4232  1.6172  2.0713
 2274SOL    HW212915   0.378   0.458   4.209  1.0055  1.5347 -0.6546
 2275SOL     OW12916   8.035   8.149   6.102 -1.1065 -0.2933 -0.8346
 2275SOL    HW112917   8.004   8.060   6.120 -0.2218 -0.4437  0.0478
 2275SOL    HW212918   7.959   8.205   6.119 -0.8381 -0.6017  1.7484
 2276SOL     OW12919   8.084   2.059   3.027  0.3656  0.0912  0.3895
 2276SOL    HW112920   8.068   2.153   3.024  0.4981  0.1045 -2.3338
 2276SOL    HW212921   8.173   2.051   3.063  0.0468  0.9223  1.4165
 2277SOL     OW12922   5.382  10.441   8.014 -0.1543  0.1370 -0.3069
 2277SOL    HW112923   5.340  10.383   7.951 -2.0500 -0.4019  1.3256
 2277SOL    HW212924   5.342  10.418   8.098  0.1757  2.7056  0.6636
 2278SOL     OW12925   3.530   9.523   7.568  0.6859 -0.2163  0.6527
 2278SOL    HW112926   3.500   9.564   7.487 -0.2374  1.3189  1.7270
 2278SOL    HW212927   3.466   9.454   7.586 -0.4353  0.9472  1.2441
 2279SOL     OW12928   3.076   2.238   6.566  0.6919 -0.5323 -0.1082
 2279SOL    HW112929   3.108   2.328   6.570  1.6613 -0.7699 -1.6687
 2279SOL    HW212930   2.983   2.246   6.546  1.2437  0.1528 -2.7231
 2280SOL     OW12931   2.626   1.043   0.915 -0.4732  0.3985  0.1590
 2280SOL    HW112932   2.607   1.096   0.992 -0.3190  1.6040 -0.6183
 2280SOL    HW212933   2.585   0.958   0.934  1.1428  0.0264  2.3529
 2281SOL     OW12934   6.901   1.612   2.915 -0.1592  0.5534 -0.2762
 2281SOL    HW112935   6.987   1.617   2.872 -1.2354  1.2936 -2.4548
 2281SOL    HW212936   6.875   1.703   2.927 -1.1614  0.3292 -0.7235
 2282SOL     OW12937   3.662   4.013   1.594  0.4845 -0.3936 -0.6370
 2282SOL    HW112938   3.705   3.930   1.572  0.9210 -0.3409 -0.0178
 2282SOL    HW212939   3.719   4.080   1.556  0.6951 -0.3443 -0.2470
 2283SOL     OW12940   9.598   8.208   5.669 -0.0977 -0.2865  0.3532
 2283SOL    HW112941   9.670   8.270   5.681 -0.5941  0.2952  0.4197
 2283SOL    HW212942   9.637   8.134   5.623  0.0857  0.9497 -1.5915
 2284SOL     OW12943   6.721  10.059   1.456 -0.1025  0.3341 -0.7360
 2284SOL    HW112944   6.700  10.075   1.548  0.5497  1.7402 -0.8056
 2284SOL    HW212945   6.675   9.978   1.435 -3.3597  1.8722 -0.2045
 2285SOL     OW12946   1.348  10.250   8.204 -0.4001 -0.7740 -0.5862
 2285SOL    HW112947   1.291  10.185   8.245 -1.2912  0.2699 -0.1105
 2285SOL    HW212948   1.323  10.333   8.244  0.8940 -0.1592 -0.9839
 2286SOL     OW12949   3.785   8.848   7.927  0.3281 -0.1363 -0.0327
 2286SOL    HW112950   3.834   8.842   7.844 -0.0289  0.0787 -0.2588
 2286SOL    HW212951   3.734   8.767   7.930  0.6008 -0.3058  0.1473
 2287SOL     OW12952   2.817   2.980   7.451 -0.1650  0.4398 -0.5533
 2287SOL    HW112953   2.816   2.888   7.423 -0.1574  0.4566 -0.6105
 2287SOL    HW212954   2.910   3.002   7.456  0.0162 -0.6207  3.0238
 2288SOL     OW12955  10.504   3.226   1.949  0.2007 -0.0729 -0.4676
 2288SOL    HW112956  10.572   3.282   1.911  0.8095 -0.6651 -0.2562
 2288SOL    HW212957  10.461   3.282   2.013 -0.5160  0.7841 -1.6448
 2289SOL     OW12958   4.807   2.341   5.288  0.4253 -0.0902 -0.7572
 2289SOL    HW112959   4.730   2.285   5.300  0.7417 -1.1705 -3.2374
 2289SOL    HW212960   4.847   2.344   5.375 -1.2157 -1.2871  0.1125
 2290SOL     OW12961  10.198  10.185   6.707 -0.3289  0.7253 -0.2545
 2290SOL    HW112962  10.273  10.216   6.758  0.6067 -1.5705 -0.0729
 2290SOL    HW212963  10.122  10.225   6.749  0.4971 -0.0895  2.2276
 2291SOL     OW12964   1.176   9.395  10.448  0.2551  0.1265 -0.0823
 2291SOL    HW112965   1.249   9.444  10.411  1.0402  0.2867  1.6152
 2291SOL    HW212966   1.100   9.453  10.436  0.8321  0.9665  0.2168
 2292SOL     OW12967   6.880   5.341   8.320  0.1915  0.6033  0.2853
 2292SOL    HW112968   6.905   5.431   8.339 -0.5367  0.5466  1.5988
 2292SOL    HW212969   6.830   5.313   8.396 -1.0678 -0.3444 -0.8272
 2293SOL     OW12970   4.047   0.361   1.123  0.2902  0.1379 -0.2013
 2293SOL    HW112971   4.107   0.302   1.167 -0.3840  1.1233  2.2042
 2293SOL    HW212972   3.960   0.327   1.143 -0.0532  1.0433 -0.0898
 2294SOL     OW12973   3.896   8.814   8.927 -0.2167  0.2514 -0.2321
 2294SOL    HW112974   3.816   8.863   8.912 -1.3580 -1.4043  0.2352
 2294SOL    HW212975   3.897   8.796   9.021  0.6305  0.1391 -0.2525
 2295SOL     OW12976   0.094   1.806   1.484  0.2327 -0.2925 -0.8758
 2295SOL    HW112977   0.118   1.731   1.429 -0.0030  0.5938 -2.2439
 2295SOL    HW212978   0.013   1.780   1.527  0.4996 -1.0644 -0.8265
 2296SOL     OW12979   1.473   7.732   3.086  0.0980 -0.2577  0.4162
 2296SOL    HW112980   1.434   7.746   3.173 -0.4524 -0.1490  0.1536
 2296SOL    HW212981   1.470   7.818   3.044 -0.2396 -0.4509  0.0435
 2297SOL     OW12982   6.703   5.778   6.794 -0.2964 -0.0428  0.2287
 2297SOL    HW112983   6.681   5.703   6.848  2.4431  1.2731  3.5018
 2297SOL    HW212984   6.632   5.841   6.810 -0.6305 -0.4738  0.4726
 2298SOL     OW12985  10.216   1.342   4.722 -0.3095 -0.7689  0.0960
 2298SOL    HW112986  10.257   1.266   4.680 -1.5542 -2.0618  1.0966
 2298SOL    HW212987  10.147   1.369   4.661 -1.4785 -2.0399  0.7824
 2299SOL     OW12988   8.317   4.946   0.160 -0.1035  0.2371  0.4646
 2299SOL    HW112989   8.357   5.033   0.160  0.6401 -0.0920  1.2225
 2299SOL    HW212990   8.229   4.960   0.125 -0.0499  1.3201  0.7322
 2300SOL     OW12991   1.381   1.304   3.430  0.1717 -0.4223  0.3134
 2300SOL    HW112992   1.371   1.216   3.395 -1.2808 -0.5208  0.8815
 2300SOL    HW212993   1.443   1.295   3.503 -0.0894 -1.0007  0.4633
 2301SOL     OW12994   1.518   3.026   2.976  0.6243 -0.1061  0.2184
 2301SOL    HW112995   1.582   3.078   2.928  1.6754 -1.0856  0.5161
 2301SOL    HW212996   1.528   3.054   3.067  0.1442  0.2176  0.1758
 2302SOL     OW12997   5.865   5.726   0.882  0.2366  0.1771 -0.5999
 2302SOL    HW112998   5.874   5.659   0.950 -0.5948 -0.3081 -0.9465
 2302SOL    HW212999   5.778   5.711   0.846  0.1812  1.2329 -0.9242
 2303SOL     OW13000   9.115  10.620   5.971 -0.2243 -0.1023  0.2208
 2303SOL    HW113001   9.058  10.688   5.937  0.9518  1.5825  1.4070
 2303SOL    HW213002   9.064  10.579   6.041 -0.4088  0.6213  0.5236
 2304SOL     OW13003   0.087  10.629   4.101  0.4303 -0.1593  0.5511
 2304SOL    HW113004   0.103  10.647   4.008  2.0151  0.8285  0.9871
 2304SOL    HW213005   0.018  10.562   4.100 -0.7556  0.9925 -1.2801
 2305SOL     OW13006   3.322   8.816   2.708  0.1002  0.2216  0.4893
 2305SOL    HW113007   3.333   8.903   2.745 -1.0314  0.5340  0.1205
 2305SOL    HW213008   3.304   8.831   2.616  0.4653 -0.4411  0.3022
 2306SOL     OW13009   3.721   9.425   7.141 -0.1875 -0.1720 -0.1608
 2306SOL    HW113010   3.811   9.392   7.145 -0.4133 -0.7390  0.5553
 2306SOL    HW213011   3.672   9.366   7.198 -0.8936  0.5258 -0.0338
 2307SOL     OW13012   7.941   7.061   3.919  0.1820  0.5392  0.4615
 2307SOL    HW113013   7.893   7.045   4.000 -1.1154  0.9250 -0.2093
 2307SOL    HW213014   7.878   7.044   3.849  1.5083 -0.5422 -0.5101
 2308SOL     OW13015   8.398   2.595   1.696  0.8298  0.6468  0.0040
 2308SOL    HW113016   8.416   2.550   1.779  0.3994 -0.3247 -0.4138
 2308SOL    HW213017   8.321   2.550   1.661  0.4729  1.6264 -0.5071
 2309SOL     OW13018   3.195   2.528   8.214 -0.2346  0.7359 -0.0379
 2309SOL    HW113019   3.190   2.447   8.164 -1.6580  1.0779 -0.5187
 2309SOL    HW213020   3.211   2.500   8.304 -0.0284 -0.0394 -0.3071
 2310SOL     OW13021   0.095   3.354   0.677 -0.3733  0.2385 -0.0674
 2310SOL    HW113022   0.181   3.314   0.665 -1.5485 -2.2443 -0.9681
 2310SOL    HW213023   0.038   3.282   0.705 -2.5486  1.3585 -1.2962
 2311SOL     OW13024   9.486   1.591   9.243 -0.3673 -0.3743 -0.7543
 2311SOL    HW113025   9.532   1.508   9.247 -1.6983 -1.0974  0.2956
 2311SOL    HW213026   9.473   1.608   9.150 -0.2535 -1.4444 -0.9687
 2312SOL     OW13027   7.937   5.204   7.565  0.2751 -0.1053  0.2143
 2312SOL    HW113028   8.016   5.205   7.512  0.1182 -3.1885 -0.2551
 2312SOL    HW213029   7.890   5.284   7.541  1.6215  0.0766 -2.0517
 2313SOL     OW13030   9.895   4.883   0.696 -0.0675 -0.4125  0.9175
 2313SOL    HW113031   9.865   4.973   0.699 -1.2328 -0.7533  0.2252
 2313SOL    HW213032   9.902   4.863   0.602  0.6434 -0.8970  1.0602
 2314SOL     OW13033   3.959   7.071   8.333  0.1913  0.1816  0.2320
 2314SOL    HW113034   3.947   7.053   8.426 -0.9864  0.4106  0.1385
 2314SOL    HW213035   4.048   7.039   8.313  0.6358  0.5725  1.5274
 2315SOL     OW13036  10.531  10.346   8.692  0.0310 -0.2854  0.3815
 2315SOL    HW113037  10.521  10.260   8.651  0.0291  1.0199 -2.5988
 2315SOL    HW213038  10.624  10.364   8.688  0.0956 -0.3313  1.4627
 2316SOL     OW13039   5.383   8.327   8.530  0.2908 -0.4025 -0.2042
 2316SOL    HW113040   5.321   8.345   8.600  1.2798  0.9366  0.3780
 2316SOL    HW213041   5.433   8.251   8.560  0.7093  0.1668  0.5665
 2317SOL     OW13042   9.718   8.228   1.420 -0.2293 -0.0209  0.6704
 2317SOL    HW113043   9.706   8.134   1.437  0.4787 -0.2537 -0.0472
 2317SOL    HW213044   9.634   8.267   1.444 -1.2730 -1.1211 -0.9983
 2318SOL     OW13045   0.004   8.481   0.898  0.4235  0.0716  0.4998
 2318SOL    HW113046   0.030   8.509   0.986 -0.7886  0.2235  0.8322
 2318SOL    HW213047  -0.040   8.397   0.912  0.9418 -0.2975 -0.0675
 2319SOL     OW13048   0.488   1.962   8.132 -0.6698  0.1226 -0.9954
 2319SOL    HW113049   0.496   1.881   8.082  0.4470 -0.8554  0.7244
 2319SOL    HW213050   0.397   1.962   8.162 -0.3227 -1.2260  0.1553
 2320SOL     OW13051   4.927   3.397   4.864  0.0079  0.4418  0.1752
 2320SOL    HW113052   5.011   3.377   4.907 -0.2447 -0.5318  0.2404
 2320SOL    HW213053   4.952   3.437   4.781  0.5324  0.4155  0.3143
 2321SOL     OW13054   2.721   3.648   1.398 -0.0133  0.4848 -0.0408
 2321SOL    HW113055   2.766   3.682   1.321  1.3357  0.1803  0.5877
 2321SOL    HW213056   2.740   3.711   1.467  2.7188 -1.4923  1.2109
 2322SOL     OW13057   3.931   8.470   6.575  0.1885  0.4759  0.3432
 2322SOL    HW113058   3.874   8.409   6.622 -0.8692  1.7834  0.8213
 2322SOL    HW213059   3.892   8.556   6.591 -0.0085  1.0218 -2.6273
 2323SOL     OW13060   5.890   6.707   5.333 -0.5538  0.4075 -0.5266
 2323SOL    HW113061   5.880   6.623   5.287  0.3292 -0.1196  0.1950
 2323SOL    HW213062   5.814   6.758   5.307  0.8643  0.9471 -4.1749
 2324SOL     OW13063   4.282   4.247   0.240  0.0167 -0.2098  0.3933
 2324SOL    HW113064   4.362   4.276   0.197  0.3074 -1.1468  0.2986
 2324SOL    HW213065   4.269   4.310   0.312  1.2510 -0.5091  0.8901
 2325SOL     OW13066   6.398   3.140   8.241  0.3108  0.4365 -0.1084
 2325SOL    HW113067   6.337   3.164   8.312 -0.2340 -2.1794  0.4071
 2325SOL    HW213068   6.452   3.218   8.229  0.6718  0.9208  3.4497
 2326SOL     OW13069   4.987   2.710   9.785  0.8028  0.3760  0.0727
 2326SOL    HW113070   4.897   2.712   9.753  1.1701 -0.0383 -1.0096
 2326SOL    HW213071   4.979   2.735   9.878 -0.5756 -0.9483  0.3541
 2327SOL     OW13072   8.004   8.184   0.997 -0.3568 -0.0814  0.6682
 2327SOL    HW113073   7.988   8.148   0.909  0.5870 -0.7587  0.7572
 2327SOL    HW213074   7.917   8.194   1.034 -0.7417 -0.4178 -0.1109
 2328SOL     OW13075   0.834   9.981   6.873  0.0658  0.0825 -0.2958
 2328SOL    HW113076   0.804  10.061   6.915 -1.2862 -0.1349 -0.7754
 2328SOL    HW213077   0.847  10.004   6.781  1.4236  0.1653 -0.1033
 2329SOL     OW13078   0.785   2.059   4.368 -0.0137  0.4559  0.1179
 2329SOL    HW113079   0.783   1.964   4.360  0.0588  0.3512  1.2210
 2329SOL    HW213080   0.748   2.091   4.286 -0.5829 -0.5344 -0.0211
 2330SOL     OW13081   3.772  10.362   0.508  0.2731  0.3821  0.3153
 2330SOL    HW113082   3.856  10.370   0.462  0.3434  2.3015  0.6851
 2330SOL    HW213083   3.741  10.275   0.486  1.6525  0.1952 -1.0719
 2331SOL     OW13084   8.573   1.590   3.161  0.0342 -0.3702 -0.6931
 2331SOL    HW113085   8.479   1.591   3.180  0.0768 -2.7123 -0.0847
 2331SOL    HW213086   8.615   1.594   3.247  0.4748 -0.6927 -0.8898
 2332SOL     OW13087   8.043  10.301   1.124  0.2080  0.2065 -0.0455
 2332SOL    HW113088   8.026  10.333   1.213  1.0156  1.0526 -0.1769
 2332SOL    HW213089   8.134  10.326   1.107  0.5624 -1.3335 -0.5268
 2333SOL     OW13090   3.233   3.044   7.580 -0.4124  0.3612 -0.1038
 2333SOL    HW113091   3.324   3.015   7.571 -0.5195 -0.2071  0.5364
 2333SOL    HW213092   3.227   3.122   7.525  0.5876  0.6857  0.2212
 2334SOL     OW13093   5.286   7.896   4.031  0.3845  0.2545  1.0398
 2334SOL    HW113094   5.318   7.972   3.982  1.0501  0.6650  2.0782
 2334SOL    HW213095   5.294   7.921   4.123 -1.7098 -0.1382  1.3940
 2335SOL     OW13096   7.172   9.184   8.670  0.0625  0.4570  0.4340
 2335SOL    HW113097   7.158   9.177   8.764  0.3577 -0.3822  0.4225
 2335SOL    HW213098   7.250   9.239   8.661  1.7122 -1.6815  0.8094
 2336SOL     OW13099   3.270   4.858  10.477  0.5614  0.3409  0.1776
 2336SOL    HW113100   3.290   4.904  10.395 -0.4763 -0.8088 -0.7666
 2336SOL    HW213101   3.241   4.927  10.537 -0.5019  1.0098 -1.0443
 2337SOL     OW13102   0.144  10.679   2.123 -0.3876  0.5604 -0.2028
 2337SOL    HW113103   0.082  10.620   2.165  1.7517 -3.3197 -1.9614
 2337SOL    HW213104   0.103  10.704   2.040 -0.1597 -1.0222 -0.8204
 2338SOL     OW13105   3.708   7.290   8.045 -0.3230  0.1988  0.6000
 2338SOL    HW113106   3.656   7.266   8.121 -0.4650  2.3421  1.2237
 2338SOL    HW213107   3.723   7.384   8.053  4.1927 -0.2817  0.8060
 2339SOL     OW13108   3.280   5.882   1.670  0.2677  0.4706  0.1557
 2339SOL    HW113109   3.278   5.977   1.684 -1.2277  0.4212  0.4549
 2339SOL    HW213110   3.340   5.849   1.737 -2.2328  0.8447  2.7548
 2340SOL     OW13111   8.893   1.786   9.890 -0.7370  0.2867  0.4371
 2340SOL    HW113112   8.933   1.827   9.967 -1.8456  2.5439 -0.0953
 2340SOL    HW213113   8.814   1.744   9.924  0.0564 -0.8908  0.8840
 2341SOL     OW13114   9.593   9.506   9.458  0.0633 -0.1261  0.7981
 2341SOL    HW113115   9.530   9.537   9.522 -0.6883 -0.2791  0.1529
 2341SOL    HW213116   9.673   9.490   9.508 -0.7447 -1.0433  1.8505
 2342SOL     OW13117   8.788   2.617   3.865  0.4319  0.1008  0.0023
 2342SOL    HW113118   8.759   2.532   3.898  0.0373 -0.1679 -1.0003
 2342SOL    HW213119   8.882   2.618   3.883  1.1474 -1.9604 -2.7681
 2343SOL     OW13120   7.407   6.894   5.095  0.5781 -0.2983  0.8035
 2343SOL    HW113121   7.351   6.970   5.081  0.7377  0.1711  2.4706
 2343SOL    HW213122   7.495   6.930   5.103  0.8455 -0.8144  0.3151
 2344SOL     OW13123   5.292   9.809  10.044  0.2953 -0.7054 -0.1450
 2344SOL    HW113124   5.333   9.731  10.007  0.5681 -0.3562 -0.5901
 2344SOL    HW213125   5.233   9.840   9.976 -0.3717 -0.9391  0.3179
 2345SOL     OW13126   3.941   0.059   4.020  0.3229  0.1093 -0.2240
 2345SOL    HW113127   3.988   0.004   3.958 -0.6942  1.7912 -2.6760
 2345SOL    HW213128   3.993   0.139   4.025  0.3852  0.0129  1.1696
 2346SOL     OW13129   0.849   0.772   8.450 -0.0380 -0.3356  0.3361
 2346SOL    HW113130   0.889   0.721   8.521 -0.2844 -2.4179 -0.9060
 2346SOL    HW213131   0.904   0.849   8.442  1.2625 -1.1033  1.3847
 2347SOL     OW13132  10.772   4.137   6.370  0.5453 -0.3643 -0.5269
 2347SOL    HW113133  10.853   4.115   6.416  1.7162 -1.4121 -2.8516
 2347SOL    HW213134  10.802   4.174   6.287 -1.4092  0.6650 -0.8250
 2348SOL     OW13135   6.899  10.828   5.326  0.3795 -0.5530  0.1430
 2348SOL    HW113136   6.901  10.882   5.248 -0.9972  0.8262  1.0028
 2348SOL    HW213137   6.982  10.846   5.371  0.4812 -0.1226 -0.2152
 2349SOL     OW13138   4.365   8.376   5.551  0.4527  0.3482  0.3407
 2349SOL    HW113139   4.380   8.377   5.646  1.9559 -3.2088  0.2999
 2349SOL    HW213140   4.422   8.445   5.517  2.0439 -0.1616  1.8384
 2350SOL     OW13141   6.802   7.906   8.106  0.4870  0.3762  0.0127
 2350SOL    HW113142   6.713   7.940   8.118  0.2092 -0.2609 -0.1710
 2350SOL    HW213143   6.838   7.901   8.194  0.0971  0.0127  0.1540
 2351SOL     OW13144   4.762   0.153   8.403 -0.2976  0.0081  0.3739
 2351SOL    HW113145   4.717   0.079   8.443  0.8129 -0.9941 -0.1993
 2351SOL    HW213146   4.774   0.215   8.476 -2.0061  0.0421  0.6654
 2352SOL     OW13147   6.629   5.750   0.991 -0.1022 -0.4529 -0.5120
 2352SOL    HW113148   6.669   5.835   0.971  1.6096 -0.5124  2.0619
 2352SOL    HW213149   6.557   5.770   1.051 -1.4931 -0.6669 -2.0496
 2353SOL     OW13150   6.737   8.898   7.143  0.2979 -0.1043  0.2643
 2353SOL    HW113151   6.711   8.975   7.194  0.4858  0.0697  0.0996
 2353SOL    HW213152   6.691   8.826   7.184 -0.3108  0.1751  0.0853
 2354SOL     OW13153   1.256   0.343   6.855  0.0025 -0.4839 -0.0090
 2354SOL    HW113154   1.214   0.257   6.853  0.3759 -0.6962  0.7990
 2354SOL    HW213155   1.336   0.332   6.804 -0.0981 -0.5333 -0.1568
 2355SOL     OW13156   3.128   4.038   0.264  0.4891 -0.1745  0.3893
 2355SOL    HW113157   3.088   4.115   0.303  0.0528 -0.9756  1.5561
 2355SOL    HW213158   3.220   4.043   0.290  1.5600  2.1609 -3.0511
 2356SOL     OW13159  10.638  10.233   0.348  0.2368  0.3010 -0.3822
 2356SOL    HW113160  10.727  10.198   0.347  0.5151  0.9788  0.0727
 2356SOL    HW213161  10.598  10.195   0.426  0.2079  0.1905 -0.4511
 2357SOL     OW13162   3.823   8.613   7.531  0.3722 -0.1839  0.1546
 2357SOL    HW113163   3.728   8.624   7.543  0.5355  0.1375  1.2512
 2357SOL    HW213164   3.830   8.544   7.465 -0.6393 -1.6690  1.4915
 2358SOL     OW13165   9.776   3.198   6.000  0.4237  0.0758 -0.0686
 2358SOL    HW113166   9.816   3.133   5.942  1.7459 -1.4647  2.4047
 2358SOL    HW213167   9.844   3.218   6.065 -0.9566  1.7535  0.9593
 2359SOL     OW13168   2.228   4.284   7.524 -0.2589  0.4824  0.1854
 2359SOL    HW113169   2.213   4.265   7.431  1.5807  1.1225 -0.2922
 2359SOL    HW213170   2.323   4.288   7.532 -0.3788  0.2097  2.1666
 2360SOL     OW13171   0.732   9.254   7.940 -0.2227 -0.9232  0.0613
 2360SOL    HW113172   0.757   9.310   8.014 -0.1387 -1.0768  0.1498
 2360SOL    HW213173   0.637   9.267   7.931  0.2242  1.5819 -1.8647
 2361SOL     OW13174   4.982  10.219   7.921  0.1817  0.0547  0.0561
 2361SOL    HW113175   4.952  10.154   7.986  1.0575 -0.7664 -0.3275
 2361SOL    HW213176   5.038  10.278   7.971  2.6761 -1.8538 -0.2628
 2362SOL     OW13177   1.039   1.804   4.559  0.2570  0.2382 -0.0411
 2362SOL    HW113178   0.946   1.812   4.536 -0.1733  2.3081  2.0238
 2362SOL    HW213179   1.042   1.730   4.621 -0.1432  0.5560  0.3673
 2363SOL     OW13180   5.909  10.071   4.312  0.1189 -0.1641  0.4440
 2363SOL    HW113181   5.850  10.014   4.360  0.6374 -0.7163  0.4260
 2363SOL    HW213182   5.863  10.089   4.230 -0.2766 -0.1163  0.6732
 2364SOL     OW13183   8.003   6.311   5.267  0.4088 -0.1473  0.5498
 2364SOL    HW113184   7.955   6.281   5.345  0.7437  0.6324  1.0661
 2364SOL    HW213185   8.088   6.338   5.301  0.6707 -0.0976 -0.1443
 2365SOL     OW13186   3.439  10.694   2.190 -0.5209  0.2324 -0.2726
 2365SOL    HW113187   3.369  10.756   2.169 -1.4111 -0.0651  1.5782
 2365SOL    HW213188   3.406  10.609   2.160 -2.2571 -0.3730  2.8660
 2366SOL     OW13189   8.161   6.139   4.285 -0.1582 -0.2730 -0.0328
 2366SOL    HW113190   8.097   6.183   4.229  1.0088 -0.0945 -1.2690
 2366SOL    HW213191   8.201   6.074   4.228 -0.0541 -1.1841  1.0600
 2367SOL     OW13192   8.300   5.032   0.926  0.6513 -0.0762  0.8777
 2367SOL    HW113193   8.238   5.005   0.994 -0.6590 -2.2163 -0.9759
 2367SOL    HW213194   8.244   5.054   0.851  1.9808  3.2402  0.7232
 2368SOL     OW13195   1.890   8.224   2.368  0.1702 -0.0502  0.4168
 2368SOL    HW113196   1.974   8.269   2.364  0.1874 -0.1654 -0.5669
 2368SOL    HW213197   1.859   8.241   2.457  0.3674  1.5655  0.2133
 2369SOL     OW13198   9.835   9.172   7.097  0.4305  0.6119 -0.1173
 2369SOL    HW113199   9.891   9.249   7.087  0.8315  0.2976 -0.3374
 2369SOL    HW213200   9.834   9.131   7.011  1.4977 -0.4816  0.3638
 2370SOL     OW13201   0.473   1.166   1.607  0.2154  0.3261  0.2316
 2370SOL    HW113202   0.526   1.236   1.644 -2.4641  1.8227  1.5581
 2370SOL    HW213203   0.423   1.131   1.681 -2.8286  1.0901 -1.2978
 2371SOL     OW13204   5.952   3.013   6.795 -0.2195  0.3556  0.4337
 2371SOL    HW113205   6.042   3.043   6.780 -0.3725  0.2947 -0.7189
 2371SOL    HW213206   5.912   3.083   6.847  1.0221 -0.5191  2.7206
 2372SOL     OW13207   8.910   8.537   3.419  0.2018  0.4341  0.0227
 2372SOL    HW113208   8.951   8.623   3.423 -0.9733  1.0200  0.1226
 2372SOL    HW213209   8.925   8.506   3.330 -0.5528  1.3730 -0.4477
 2373SOL     OW13210   0.582   8.454   0.144  0.4578  0.4938 -0.0253
 2373SOL    HW113211   0.560   8.482   0.055  1.1397  0.6834 -0.1379
 2373SOL    HW213212   0.671   8.486   0.158  1.7597 -2.5703 -0.5645
 2374SOL     OW13213   7.590   7.249   0.049 -0.0918 -0.0430 -0.4876
 2374SOL    HW113214   7.594   7.184   0.118  2.4035 -0.5341 -0.9972
 2374SOL    HW213215   7.566   7.330   0.093 -0.4071 -0.7309  0.6218
 2375SOL     OW13216   3.455   5.986   4.681 -0.0665 -0.0842 -0.0294
 2375SOL    HW113217   3.371   6.013   4.719  0.1018 -1.2598  1.2755
 2375SOL    HW213218   3.498   5.938   4.752  2.5519  2.0706 -0.0214
 2376SOL     OW13219   6.782   4.477   8.098  0.4787  0.1040  0.0704
 2376SOL    HW113220   6.769   4.387   8.069  0.4826 -0.1147  0.7191
 2376SOL    HW213221   6.781   4.529   8.018  0.1771 -0.4379 -0.2832
 2377SOL     OW13222   6.473   9.343   1.718 -0.1931 -0.0181  0.2519
 2377SOL    HW113223   6.509   9.404   1.783  0.5362  0.6664 -0.7623
 2377SOL    HW213224   6.409   9.291   1.767 -0.3733  1.1341  1.3005
 2378SOL     OW13225   6.550   5.804   0.308 -0.0715  0.3627  0.0933
 2378SOL    HW113226   6.485   5.770   0.369  0.2827 -1.2500 -0.3859
 2378SOL    HW213227   6.500   5.830   0.231 -0.2190 -0.3948 -0.0737
 2379SOL     OW13228   9.260   0.386   1.189 -0.2518  0.0628 -0.3840
 2379SOL    HW113229   9.353   0.407   1.194 -0.3972  0.4476  1.8751
 2379SOL    HW213230   9.255   0.311   1.130  1.5834 -0.4659  0.0810
 2380SOL     OW13231   7.935   4.031   9.207 -0.1754 -0.0632 -0.7837
 2380SOL    HW113232   7.976   4.108   9.169  0.3501 -0.3210 -0.7554
 2380SOL    HW213233   8.003   3.963   9.203  0.1984  0.1038  1.3031
 2381SOL     OW13234   5.407   2.145   2.388 -0.1771 -0.4805  0.1271
 2381SOL    HW113235   5.346   2.207   2.428  0.3577  1.2452 -1.5962
 2381SOL    HW213236   5.352   2.090   2.332 -0.4176 -0.4133  0.2937
 2382SOL     OW13237   0.085   2.848   2.243 -0.3586  0.0133  0.1470
 2382SOL    HW113238   0.026   2.908   2.197 -0.0600  0.3428  0.1918
 2382SOL    HW213239   0.094   2.773   2.185  0.0572  0.4489 -0.3575
 2383SOL     OW13240   3.088   8.647   0.078  0.1704  0.1860  0.2844
 2383SOL    HW113241   3.081   8.555   0.052  2.1336  0.0650  0.0461
 2383SOL    HW213242   3.158   8.649   0.144  2.0783  1.8054 -1.6256
 2384SOL     OW13243   1.886   8.110  10.361 -0.0892 -0.4473 -0.3280
 2384SOL    HW113244   1.815   8.070  10.311 -0.0328  0.1401 -0.8891
 2384SOL    HW213245   1.954   8.130  10.297 -0.0527  0.4000 -0.0466
 2385SOL     OW13246   3.432   3.054   6.310  0.3200  0.5447  0.5828
 2385SOL    HW113247   3.474   3.076   6.393 -0.8944 -0.3483  1.4783
 2385SOL    HW213248   3.359   2.997   6.335 -0.9567  1.4254 -0.9494
 2386SOL     OW13249   6.515   3.049   1.325  0.2793  0.2069 -0.2064
 2386SOL    HW113250   6.572   3.106   1.375 -0.2080  0.4970  0.0281
 2386SOL    HW213251   6.432   3.097   1.319 -0.0057 -0.2940 -0.3571
 2387SOL     OW13252   8.161   3.546   7.221  0.1974 -0.0293 -0.1455
 2387SOL    HW113253   8.177   3.622   7.276 -1.9852  0.5054 -0.1473
 2387SOL    HW213254   8.096   3.576   7.157 -1.0706 -1.9724  0.1426
 2388SOL     OW13255   5.757   3.600   3.641  0.8139 -0.5174 -0.1614
 2388SOL    HW113256   5.836   3.648   3.667  2.5204 -2.9184 -0.5892
 2388SOL    HW213257   5.686   3.662   3.656  2.7691  1.8444  0.0421
 2389SOL     OW13258   8.229   3.776   5.793  0.1941 -0.0881 -0.2985
 2389SOL    HW113259   8.186   3.818   5.868 -1.1380  1.7650 -1.9692
 2389SOL    HW213260   8.322   3.792   5.807  0.0834 -0.7323  1.4648
 2390SOL     OW13261   2.212   9.134   1.742 -0.2289 -0.4618 -0.0966
 2390SOL    HW113262   2.194   9.044   1.715  0.2193  0.0331 -2.2830
 2390SOL    HW213263   2.144   9.186   1.700 -0.1351  0.2912  0.6512
 2391SOL     OW13264   2.543   8.591   4.926  0.7127 -0.1262 -0.2223
 2391SOL    HW113265   2.623   8.554   4.963 -0.4921 -1.2498  1.4006
 2391SOL    HW213266   2.539   8.680   4.960  0.8426 -0.3621  0.4205
 2392SOL     OW13267   6.570   4.450  10.719 -0.2670 -0.1312  0.1236
 2392SOL    HW113268   6.639   4.413  10.663 -0.5772  1.3114 -1.3056
 2392SOL    HW213269   6.488   4.426  10.676 -0.6188 -0.6707  1.0650
 2393SOL     OW13270   0.397   8.903   6.097 -0.0839  0.4292  0.5037
 2393SOL    HW113271   0.459   8.903   6.023 -1.5811  0.5671 -0.8113
 2393SOL    HW213272   0.386   8.995   6.120  0.1946  0.4061  0.7231
 2394SOL     OW13273   5.870   4.287   9.621 -0.7545 -0.2427  0.7244
 2394SOL    HW113274   5.910   4.292   9.707  0.0388 -0.6065  0.3834
 2394SOL    HW213275   5.850   4.194   9.608 -0.3204 -0.2796  0.2781
 2395SOL     OW13276   2.625   2.233   1.996  0.5194 -0.3913  0.2032
 2395SOL    HW113277   2.538   2.251   2.032  1.2990  0.9678  1.4936
 2395SOL    HW213278   2.607   2.192   1.911 -1.3933  0.5885  0.0739
 2396SOL     OW13279   0.495   8.209   1.276  0.6511 -0.1638  0.1541
 2396SOL    HW113280   0.432   8.142   1.299  0.6701  0.0390  0.8028
 2396SOL    HW213281   0.527   8.183   1.189  0.9626 -1.2208  0.5656
 2397SOL     OW13282   6.519   7.727   8.973 -0.0279 -0.3394  0.0821
 2397SOL    HW113283   6.432   7.689   8.955 -0.3460 -0.0207  0.9103
 2397SOL    HW213284   6.509   7.820   8.952  0.5264 -0.5421 -1.1777
 2398SOL     OW13285   8.128   8.645   4.196  0.3605  0.2975 -0.7354
 2398SOL    HW113286   8.168   8.575   4.249  2.1230  1.4580 -0.4449
 2398SOL    HW213287   8.193   8.663   4.128 -0.9304  0.3330 -1.9936
 2399SOL     OW13288  10.055   6.454   0.401  0.3923  0.2580 -0.2399
 2399SOL    HW113289  10.120   6.430   0.468 -0.1315  4.0793  1.9295
 2399SOL    HW213290  10.094   6.528   0.355 -1.7392  1.7037  0.1284
 2400SOL     OW13291   4.598   9.910  10.736 -0.0788  0.5432 -0.2465
 2400SOL    HW113292   4.550   9.901  10.653  0.0300  1.1752 -0.3871
 2400SOL    HW213293   4.625   9.821  10.758  0.2122  0.4117 -1.0873
 2401SOL     OW13294   0.189   9.540   0.842 -0.0679  0.2097  0.0052
 2401SOL    HW113295   0.224   9.625   0.817 -1.1210  0.7388  0.2960
 2401SOL    HW213296   0.202   9.484   0.765  3.0402 -0.1612  0.6658
 2402SOL     OW13297   7.739   6.125   4.290 -0.1047 -0.3766  0.0689
 2402SOL    HW113298   7.694   6.107   4.208  0.3141  1.5847 -0.6357
 2402SOL    HW213299   7.670   6.151   4.351 -0.3380 -1.2345  0.1942
 2403SOL     OW13300   4.814   4.980   5.285 -0.5487 -0.0741 -0.2736
 2403SOL    HW113301   4.783   4.986   5.375  0.7936 -0.4001  0.2394
 2403SOL    HW213302   4.781   5.060   5.244 -2.4337 -0.6295  0.0677
 2404SOL     OW13303   1.245   9.594   2.339 -0.0905 -0.5473 -0.1029
 2404SOL    HW113304   1.177   9.541   2.298 -1.4604  0.9525  0.1597
 2404SOL    HW213305   1.327   9.558   2.304 -0.9855 -2.3571 -0.4653
 2405SOL     OW13306   3.278   7.772  10.170 -0.3664  0.2868  0.0506
 2405SOL    HW113307   3.232   7.768  10.253  1.2342 -1.0402  0.9430
 2405SOL    HW213308   3.367   7.799  10.193 -0.0717  0.5790 -1.3249
 2406SOL     OW13309   7.921   6.779   4.165  0.0048  0.3803 -0.6703
 2406SOL    HW113310   7.862   6.852   4.149  0.8937  0.9604 -1.4226
 2406SOL    HW213311   7.902   6.716   4.095 -0.0152  0.3824 -0.6665
 2407SOL     OW13312   1.946   3.206   1.514  0.3211 -0.2155 -0.1739
 2407SOL    HW113313   1.923   3.280   1.458  0.3602  1.2873  1.6874
 2407SOL    HW213314   1.865   3.186   1.560  0.3119 -1.3681 -0.6731
 2408SOL     OW13315   9.128   8.604   9.809 -0.0432  0.2582 -0.4151
 2408SOL    HW113316   9.101   8.666   9.876  1.7053  0.1869  0.3982
 2408SOL    HW213317   9.173   8.535   9.856 -1.7863 -1.5951 -1.3251
 2409SOL     OW13318   1.466  10.711   8.642 -0.1717 -0.6187  0.2054
 2409SOL    HW113319   1.453  10.774   8.713  0.9117  0.5962 -0.6377
 2409SOL    HW213320   1.470  10.626   8.686 -1.3695 -0.0946  1.3913
 2410SOL     OW13321   1.611  10.542   3.973 -0.2934  0.5445  0.3616
 2410SOL    HW113322   1.551  10.469   3.986 -0.6782  0.4222 -1.7511
 2410SOL    HW213323   1.698  10.505   3.990 -0.5563 -0.2067  0.1275
 2411SOL     OW13324   6.430   1.479   0.754 -0.0599  0.4952 -0.0853
 2411SOL    HW113325   6.447   1.490   0.661  1.6538  0.2695  0.1653
 2411SOL    HW213326   6.511   1.509   0.797 -0.8101  0.5930  1.3265
 2412SOL     OW13327   1.693  10.149   0.183  0.0235 -0.1768 -0.5554
 2412SOL    HW113328   1.704  10.222   0.122  1.0909 -0.1483 -0.3438
 2412SOL    HW213329   1.632  10.182   0.250 -0.8981 -0.0963 -1.3995
 2413SOL     OW13330   5.714   8.383   7.061  0.1683  0.2636  0.5094
 2413SOL    HW113331   5.699   8.363   7.154 -0.3982 -1.3155  0.1068
 2413SOL    HW213332   5.695   8.477   7.054  0.7677  0.5339  2.0876
 2414SOL     OW13333   6.048   3.555   9.445 -0.1670  0.2638 -0.0785
 2414SOL    HW113334   6.133   3.588   9.416 -0.0017 -1.0306 -1.1562
 2414SOL    HW213335   6.065   3.465   9.471 -0.8413  0.5955  1.6739
 2415SOL     OW13336   4.357   4.899   7.104  0.6706  0.4356 -0.2492
 2415SOL    HW113337   4.268   4.933   7.091  1.5590  2.9939 -0.2522
 2415SOL    HW213338   4.362   4.881   7.198 -0.8717 -3.1695 -0.7021
 2416SOL     OW13339   2.714   0.227   2.531 -0.5192  0.3658  0.1714
 2416SOL    HW113340   2.767   0.161   2.576 -0.3219 -0.2797 -0.9589
 2416SOL    HW213341   2.624   0.193   2.537 -0.3395 -0.3588 -0.9585
 2417SOL     OW13342   9.114   1.345   1.955 -0.0516 -0.0868 -0.0215
 2417SOL    HW113343   9.084   1.345   1.864 -3.4922 -0.6770  0.9806
 2417SOL    HW213344   9.133   1.436   1.975 -3.7185  0.8239 -0.1292
 2418SOL     OW13345   3.954   0.523   7.206  0.7258  0.4764  0.1577
 2418SOL    HW113346   3.875   0.540   7.154  1.0868  0.3469 -0.4475
 2418SOL    HW213347   3.928   0.541   7.296  0.4085  1.8354 -0.1854
 2419SOL     OW13348   6.910   5.384   9.919 -0.0513 -0.1731 -0.2739
 2419SOL    HW113349   6.937   5.302   9.879  0.5024 -0.9236  1.5747
 2419SOL    HW213350   6.987   5.415   9.967 -0.0793  1.7161 -1.3323
 2420SOL     OW13351   8.228   1.176   8.607 -0.3944  0.5220  0.8330
 2420SOL    HW113352   8.185   1.192   8.691 -0.2142  0.8250  0.8687
 2420SOL    HW213353   8.229   1.081   8.599  0.4151  0.4578  1.6053
 2421SOL     OW13354   6.984   2.581   4.868  0.0702  0.2604  0.3492
 2421SOL    HW113355   7.067   2.606   4.907  1.5049 -1.0428 -1.6815
 2421SOL    HW213356   6.974   2.488   4.889 -0.7886  0.3506  0.3899
 2422SOL     OW13357   7.054   9.127   8.896 -0.1704  0.1251 -0.2450
 2422SOL    HW113358   7.009   9.066   8.837 -1.1863 -0.4815  1.0930
 2422SOL    HW213359   6.984   9.181   8.932  0.4485  0.5683  0.3141
 2423SOL     OW13360   4.079   0.711   0.862  0.4910 -0.3585 -0.0428
 2423SOL    HW113361   4.090   0.721   0.768 -0.7486  0.8208 -0.0940
 2423SOL    HW213362   4.167   0.688   0.894  1.0183 -0.3603 -1.4173
 2424SOL     OW13363   6.233   1.148   9.017  0.0148 -0.6128 -0.1640
 2424SOL    HW113364   6.192   1.133   8.932 -1.1066  1.6677 -0.1186
 2424SOL    HW213365   6.230   1.243   9.028  0.8443 -0.7880  2.0901
 2425SOL     OW13366  10.210  10.928   5.274 -0.4380  0.0638 -0.4494
 2425SOL    HW113367  10.165  10.957   5.353  0.8181 -1.9302  1.1254
 2425SOL    HW213368  10.175  10.840   5.257 -0.3025  0.2471 -1.8045
 2426SOL     OW13369   5.906  10.643   7.786 -0.2604 -0.5283 -0.0064
 2426SOL    HW113370   6.001  10.632   7.789 -0.2399 -0.4575 -0.4316
 2426SOL    HW213371   5.888  10.683   7.701 -0.5994  0.1494  0.3704
 2427SOL     OW13372   2.749   1.670   0.497  0.2280  0.1281 -0.1651
 2427SOL    HW113373   2.772   1.723   0.573 -0.9047  0.2306  0.1238
 2427SOL    HW213374   2.774   1.581   0.521  0.1406  0.2042  0.2145
 2428SOL     OW13375   7.141   4.053   5.587 -0.6356  0.6251 -0.0341
 2428SOL    HW113376   7.207   4.116   5.559 -0.1201  0.9375  1.7176
 2428SOL    HW213377   7.076   4.054   5.518 -0.2398  2.4897 -0.4491
 2429SOL     OW13378   1.857  10.633   1.013  0.6398  0.0293  0.1177
 2429SOL    HW113379   1.805  10.694   1.065 -1.8528 -0.8806 -1.1143
 2429SOL    HW213380   1.817  10.547   1.029  0.2509 -0.3899 -2.6291
 2430SOL     OW13381   5.688   0.585   1.348 -0.7147  0.4486  0.3359
 2430SOL    HW113382   5.725   0.498   1.362  1.3098  0.9689 -1.1752
 2430SOL    HW213383   5.695   0.628   1.433  2.3890  0.4956  0.1969
 2431SOL     OW13384   3.038   9.924  10.414  0.3352  0.5581  0.4511
 2431SOL    HW113385   3.064   9.836  10.439  0.2230 -0.1411 -1.6878
 2431SOL    HW213386   3.120   9.967  10.389  0.4523  1.2597  1.9132
 2432SOL     OW13387   9.365   2.837   6.745 -0.0223 -0.4006  0.2938
 2432SOL    HW113388   9.381   2.866   6.835 -1.4194 -2.7769  1.4122
 2432SOL    HW213389   9.273   2.859   6.728 -0.0698 -0.9155 -0.1521
 2433SOL     OW13390   5.273   1.488   9.743  0.1407 -0.1780  0.5515
 2433SOL    HW113391   5.228   1.562   9.700  0.1031 -0.7415 -0.4108
 2433SOL    HW213392   5.295   1.429   9.671  0.6801 -0.8401  1.2503
 2434SOL     OW13393  10.489   7.464   0.499  0.1099  0.0323 -0.0742
 2434SOL    HW113394  10.508   7.558   0.497  0.3610 -0.0212 -0.3028
 2434SOL    HW213395  10.429   7.450   0.426 -2.5134  0.5459  1.8270
 2435SOL     OW13396   3.450   9.492   1.049 -0.5581 -0.7531 -0.2027
 2435SOL    HW113397   3.533   9.497   1.097 -0.1211  0.8135 -1.0149
 2435SOL    HW213398   3.430   9.584   1.027 -1.7450 -1.2383 -1.2760
 2436SOL     OW13399   5.656   7.224   0.030  0.5854  0.2276 -0.3278
 2436SOL    HW113400   5.609   7.233   0.113  2.3458  1.0546  0.6205
 2436SOL    HW213401   5.625   7.298  -0.023  1.9287  1.7074  0.8809
 2437SOL     OW13402   9.096   5.286   9.833 -0.0657 -0.0303 -1.0391
 2437SOL    HW113403   9.169   5.257   9.889  1.6463  1.4805 -2.3630
 2437SOL    HW213404   9.023   5.296   9.893  1.2368 -0.0803  0.6546
 2438SOL     OW13405   1.748   4.406   0.252 -0.1059 -0.2388  0.1033
 2438SOL    HW113406   1.762   4.347   0.179  2.0393 -2.4357  2.1063
 2438SOL    HW213407   1.785   4.490   0.224  0.6868 -1.0354 -1.2975
 2439SOL     OW13408   7.480  10.190   0.394 -0.4937  1.2101  0.6626
 2439SOL    HW113409   7.557  10.133   0.392 -2.0153 -0.9786  1.2371
 2439SOL    HW213410   7.434  10.171   0.313 -0.5048  2.4180  0.3776
 2440SOL     OW13411   8.126   9.552   2.303 -0.3751  0.4097  0.3918
 2440SOL    HW113412   8.113   9.471   2.253  1.8286  0.7007 -0.7831
 2440SOL    HW213413   8.221   9.567   2.300 -0.6750  2.8368  0.9093
 2441SOL     OW13414   7.620   0.002  10.680  0.1892  0.2743 -0.4181
 2441SOL    HW113415   7.558  -0.038  10.740 -0.4680  0.4044 -0.9923
 2441SOL    HW213416   7.668  -0.072  10.642  0.4048  0.1749  0.0519
 2442SOL     OW13417   8.841   4.672   9.496  0.1672  0.5078 -0.0861
 2442SOL    HW113418   8.898   4.731   9.446  0.8727 -1.6313 -1.9859
 2442SOL    HW213419   8.901   4.618   9.547 -0.4074  0.6705  0.7939
 2443SOL     OW13420   7.150   6.519   8.967  0.9448 -0.0169 -0.6818
 2443SOL    HW113421   7.215   6.510   8.897  1.0813  0.4922 -0.6318
 2443SOL    HW213422   7.178   6.598   9.015  1.5295 -1.0082  0.6643
 2444SOL     OW13423   2.118   5.830   3.432  0.5084  0.0092  0.1125
 2444SOL    HW113424   2.089   5.905   3.484  0.3521 -1.1890  1.8076
 2444SOL    HW213425   2.179   5.783   3.489  1.3052 -0.6941 -1.2554
 2445SOL     OW13426   0.191   2.695  10.105  0.6354  0.1124  0.3099
 2445SOL    HW113427   0.150   2.782  10.102  0.4631  0.0361  0.4326
 2445SOL    HW213428   0.170   2.656  10.020  2.9928  1.2110 -0.8735
 2446SOL     OW13429   7.025   9.401   2.529 -0.3424 -0.3632  0.0590
 2446SOL    HW113430   6.948   9.392   2.586 -0.1489  1.0315  0.5857
 2446SOL    HW213431   7.042   9.312   2.497 -0.2536 -1.2683  2.4384
 2447SOL     OW13432   7.420   6.485   2.389 -0.2982 -0.1360 -0.0117
 2447SOL    HW113433   7.365   6.563   2.388  0.4549  0.4788  1.7959
 2447SOL    HW213434   7.372   6.422   2.443 -0.2904 -0.4271 -0.3464
 2448SOL     OW13435   2.757   0.139   1.052  0.3683 -0.2974  0.6287
 2448SOL    HW113436   2.750   0.227   1.015  1.1825 -0.3480  0.3290
 2448SOL    HW213437   2.723   0.081   0.985  0.0491 -0.2299  0.7325
 2449SOL     OW13438   9.962   1.614   4.434  0.3200  0.2323  0.1782
 2449SOL    HW113439  10.010   1.584   4.511  1.7570  0.0221 -0.7723
 2449SOL    HW213440   9.887   1.555   4.428 -0.2334  0.7057  1.8120
 2450SOL     OW13441   3.978   4.126   8.115 -0.0502  0.2561  0.0642
 2450SOL    HW113442   3.984   4.105   8.208  1.6188 -0.3431 -0.1464
 2450SOL    HW213443   3.890   4.099   8.090 -0.2848 -0.2039  1.3146
 2451SOL     OW13444   1.371   0.435   7.857 -0.1791 -0.1159  0.6325
 2451SOL    HW113445   1.313   0.413   7.783  2.4350 -1.1889 -1.2530
 2451SOL    HW213446   1.375   0.355   7.908 -0.3194 -0.0515  0.7452
 2452SOL     OW13447   4.013  10.912   0.967  0.1047  0.0239  0.4270
 2452SOL    HW113448   4.099  10.953   0.956 -0.2263  0.2826 -1.6332
 2452SOL    HW213449   3.990  10.929   1.059  0.8216  2.8205  0.1982
 2453SOL     OW13450   2.189   2.904   3.008 -0.0495  0.0006 -0.0680
 2453SOL    HW113451   2.256   2.850   3.051 -1.1956 -0.0187  1.8108
 2453SOL    HW213452   2.106   2.875   3.047 -0.7576  2.9095  0.8223
 2454SOL     OW13453   8.691   8.591   3.047  0.9597  0.0040 -0.5518
 2454SOL    HW113454   8.676   8.652   2.975 -2.0246  0.0120 -0.0705
 2454SOL    HW213455   8.698   8.646   3.125 -1.2485 -0.1077 -0.1866
 2455SOL     OW13456   3.164   7.915   2.224  0.0352 -0.0314  0.4141
 2455SOL    HW113457   3.105   7.979   2.185 -0.5035 -0.7266  0.0487
 2455SOL    HW213458   3.199   7.866   2.150  2.3644  1.3911  0.4799
 2456SOL     OW13459   3.042   8.965   5.481 -0.4753 -0.4976 -0.2505
 2456SOL    HW113460   2.977   9.035   5.474  0.4490  0.5999  1.4664
 2456SOL    HW213461   3.047   8.946   5.575  1.4549 -0.7720 -0.3710
 2457SOL     OW13462   6.467   9.665   9.927 -0.4721  0.3058  0.4651
 2457SOL    HW113463   6.419   9.619   9.858  2.2647 -2.3771  0.1136
 2457SOL    HW213464   6.418   9.646  10.007 -0.2944 -2.0683  0.0861
 2458SOL     OW13465   0.381   0.424   4.025  0.0078 -0.9146  0.1377
 2458SOL    HW113466   0.368   0.488   3.955 -0.8332  0.8312  1.8061
 2458SOL    HW213467   0.472   0.397   4.016 -0.1196 -0.8432 -1.6883
 2459SOL     OW13468   2.757   4.248   4.849  0.5328  0.0850 -0.0838
 2459SOL    HW113469   2.808   4.292   4.781  0.9655  0.0331  0.2026
 2459SOL    HW213470   2.818   4.184   4.886  0.3199  0.1584  0.3951
 2460SOL     OW13471   7.664   7.359   9.387 -0.5014 -0.0787  0.3311
 2460SOL    HW113472   7.751   7.393   9.369  0.5441 -1.6864  1.9879
 2460SOL    HW213473   7.675   7.264   9.388 -2.4704 -0.3613 -0.2396
 2461SOL     OW13474   4.923   5.480   2.020  0.0150  0.8347 -0.1955
 2461SOL    HW113475   4.860   5.439   1.960 -0.4653  1.0552  0.1490
 2461SOL    HW213476   4.891   5.570   2.030 -1.4861  0.1285  2.4433
 2462SOL     OW13477   8.895   8.438   7.294 -0.4669 -0.0366  0.2236
 2462SOL    HW113478   8.984   8.406   7.309 -0.8804 -0.7082  1.4213
 2462SOL    HW213479   8.848   8.364   7.255 -0.7153  0.0048  0.4336
 2463SOL     OW13480   8.565   0.279   6.748 -0.2757 -0.2519 -0.3419
 2463SOL    HW113481   8.490   0.224   6.724  0.1175 -1.0317  0.1958
 2463SOL    HW213482   8.633   0.255   6.685  0.2689 -1.2278  0.5899
 2464SOL     OW13483   2.432   4.248   2.896  0.1348  0.4318 -0.1463
 2464SOL    HW113484   2.485   4.215   2.968 -1.6203 -2.1960  0.0639
 2464SOL    HW213485   2.357   4.290   2.938  0.5434  1.5187 -0.4648
 2465SOL     OW13486   0.011   3.737   8.845 -0.2049 -0.0371 -0.3893
 2465SOL    HW113487   0.063   3.808   8.807  1.7142 -0.6490  0.9595
 2465SOL    HW213488   0.035   3.736   8.938 -0.0246 -2.5575 -0.3939
 2466SOL     OW13489  10.899   1.091   6.926  0.4717  0.1562 -0.2988
 2466SOL    HW113490  10.971   1.127   6.874  1.3596 -1.4005 -0.2289
 2466SOL    HW213491  10.943   1.041   6.995 -0.6695 -0.8027 -0.2309
 2467SOL     OW13492   1.566   3.864   3.683  0.4233  0.0471 -0.3767
 2467SOL    HW113493   1.493   3.810   3.652  0.1139  0.5248 -0.4844
 2467SOL    HW213494   1.547   3.878   3.775  1.7708 -2.0714  0.2888
 2468SOL     OW13495   9.377   2.764   7.263  0.3296 -0.1639 -0.0351
 2468SOL    HW113496   9.462   2.752   7.220  0.9419  2.8204  0.0964
 2468SOL    HW213497   9.315   2.774   7.190  0.4591 -0.2878 -0.1637
 2469SOL     OW13498   9.076   1.203   0.119 -1.0893  0.0952  0.2337
 2469SOL    HW113499   9.166   1.195   0.087 -1.2892 -0.5430 -0.1840
 2469SOL    HW213500   9.022   1.194   0.040 -1.5144  0.6547  0.4552
 2470SOL     OW13501   7.041  10.211   8.070 -0.1160 -0.0638 -0.3268
 2470SOL    HW113502   6.960  10.200   8.120 -0.1195  1.7060  0.1217
 2470SOL    HW213503   7.101  10.145   8.106 -0.7412 -0.1057  0.6758
 2471SOL     OW13504   9.339   9.477   2.714 -0.2264 -0.1601  0.3123
 2471SOL    HW113505   9.409   9.412   2.720  0.1599  0.3138  1.1414
 2471SOL    HW213506   9.347   9.528   2.795 -0.6573  0.7750 -0.2215
 2472SOL     OW13507   6.693   4.479   9.742  0.0006  0.1208  0.2302
 2472SOL    HW113508   6.707   4.547   9.807 -1.2590 -0.9193  1.6565
 2472SOL    HW213509   6.623   4.513   9.686 -0.3523  0.1763  0.6991
 2473SOL     OW13510   9.071   2.757   7.241 -0.3051  0.4339 -0.0409
 2473SOL    HW113511   9.119   2.730   7.163  0.9535  1.1646  0.4486
 2473SOL    HW213512   9.058   2.851   7.230 -0.4404  0.4761  0.4616
 2474SOL     OW13513   4.815   7.060   3.541  0.2079 -0.1526  0.4463
 2474SOL    HW113514   4.720   7.057   3.532  0.3649 -2.0377 -1.3072
 2474SOL    HW213515   4.831   7.036   3.633 -0.9905  0.2317  0.7691
 2475SOL     OW13516   7.714   2.824   8.522  0.2826  0.2942  0.2173
 2475SOL    HW113517   7.648   2.819   8.590 -0.7511  0.4742 -0.7339
 2475SOL    HW213518   7.735   2.733   8.502  1.5273  0.2492  1.6251
 2476SOL     OW13519   1.268   4.478   1.383  0.0727  0.0614  0.1716
 2476SOL    HW113520   1.348   4.436   1.414  0.0996 -2.2885 -2.6447
 2476SOL    HW213521   1.299   4.550   1.328  0.1066  1.2618  1.6984
 2477SOL     OW13522  10.389   9.205   0.927 -0.4502  0.1309  0.2731
 2477SOL    HW113523  10.446   9.236   0.857 -0.1337 -0.7670  0.1142
 2477SOL    HW213524  10.402   9.110   0.928 -1.1489  0.0315  0.9387
 2478SOL     OW13525   4.289   7.464   1.793  0.0511  0.4190 -0.3582
 2478SOL    HW113526   4.345   7.433   1.722 -0.1408 -0.0703 -0.2991
 2478SOL    HW213527   4.208   7.414   1.784 -0.4559  1.2410 -0.5474
 2479SOL     OW13528   0.924   8.182   5.359  0.7260 -0.6225 -0.1933
 2479SOL    HW113529   0.958   8.248   5.299 -0.8325 -0.7174 -1.2535
 2479SOL    HW213530   0.908   8.229   5.440  0.7365  0.0494 -0.5713
 2480SOL     OW13531   7.679   6.214   1.878  0.1822  0.2196 -0.0228
 2480SOL    HW113532   7.728   6.264   1.944 -0.6996 -0.0007  0.8302
 2480SOL    HW213533   7.623   6.279   1.836 -0.2285  0.1373  0.3864
 2481SOL     OW13534   0.838   1.519   0.836 -0.1623 -0.1578 -0.3195
 2481SOL    HW113535   0.898   1.444   0.831  0.2457  0.1945 -0.9267
 2481SOL    HW213536   0.896   1.595   0.837 -0.5739  0.1445  0.3896
 2482SOL     OW13537   2.994   5.292   1.888 -0.1707 -0.4382  0.6923
 2482SOL    HW113538   2.945   5.221   1.846  0.1572 -0.9397  1.1485
 2482SOL    HW213539   2.949   5.308   1.970  0.6295 -1.1505  1.2821
 2483SOL     OW13540   0.649   2.382   4.983 -0.2852  0.2028 -0.0972
 2483SOL    HW113541   0.584   2.406   5.050 -0.6133 -1.0471  0.0595
 2483SOL    HW213542   0.708   2.322   5.029  0.7014  0.9509 -0.3764
 2484SOL     OW13543   6.597   6.100   8.062 -0.5780  0.0189  0.1224
 2484SOL    HW113544   6.522   6.065   8.014  0.7145 -1.9821 -0.5916
 2484SOL    HW213545   6.599   6.049   8.143  0.9939 -1.2770 -0.6680
 2485SOL     OW13546   0.681   0.621   4.065 -0.1066  0.6315  0.2477
 2485SOL    HW113547   0.774   0.603   4.058 -0.0291  0.6869  1.0824
 2485SOL    HW213548   0.663   0.621   4.159 -1.4428 -1.9652  0.0776
 2486SOL     OW13549   3.245   4.076   5.311  0.2532  0.8318 -0.5776
 2486SOL    HW113550   3.197   4.132   5.372  2.7995  1.1970  1.2591
 2486SOL    HW213551   3.301   4.137   5.262  0.8479  0.1945 -0.7062
 2487SOL     OW13552   0.090   2.778   1.478  0.0656  0.1413  0.1801
 2487SOL    HW113553   0.099   2.699   1.426 -1.7645  0.0729 -0.1036
 2487SOL    HW213554   0.091   2.849   1.414  0.5472  0.2760  0.3292
 2488SOL     OW13555   4.994   2.434  10.893 -0.5308  0.0403  0.1450
 2488SOL    HW113556   4.976   2.445  10.799  1.1820 -1.1625 -0.3697
 2488SOL    HW213557   5.043   2.513  10.917 -0.8608  0.2919 -0.0001
 2489SOL     OW13558   8.613   7.118  10.095 -0.2033  0.3691 -0.2379
 2489SOL    HW113559   8.518   7.101  10.099 -0.4829  1.7307 -0.7941
 2489SOL    HW213560   8.652   7.031  10.103 -1.4862 -0.1942  0.3221
 2490SOL     OW13561   3.891  10.369   3.849 -0.3372  0.5954 -0.6433
 2490SOL    HW113562   3.935  10.331   3.925  1.9022  0.6030 -1.8778
 2490SOL    HW213563   3.811  10.409   3.886  0.0815 -0.3983  1.5006
 2491SOL     OW13564  10.341   2.210   5.931 -0.4617  0.3818  0.5496
 2491SOL    HW113565  10.411   2.164   5.976 -0.0047 -0.4332 -0.9130
 2491SOL    HW213566  10.265   2.153   5.940 -0.2432 -0.0238 -0.1047
 2492SOL     OW13567   4.874   1.601   2.620  0.1528 -0.0545  0.0938
 2492SOL    HW113568   4.902   1.558   2.701  0.1673 -1.4491 -0.6222
 2492SOL    HW213569   4.902   1.542   2.550  1.2485  1.7105 -1.0328
 2493SOL     OW13570   6.769   7.592   8.240  0.1950  0.9766  0.3172
 2493SOL    HW113571   6.864   7.593   8.254  0.2326  1.3392  0.0405
 2493SOL    HW213572   6.747   7.499   8.236  0.9060  0.8325 -2.0732
 2494SOL     OW13573   2.761   9.184   4.172  0.0074  0.2177 -0.9367
 2494SOL    HW113574   2.771   9.267   4.218  0.4376 -0.3542  0.0397
 2494SOL    HW213575   2.839   9.176   4.118  1.0502 -0.5084  0.5869
 2495SOL     OW13576   2.872   2.636   0.652 -0.2646  0.4013  0.8195
 2495SOL    HW113577   2.913   2.722   0.644  0.4634  0.1931  2.0888
 2495SOL    HW213578   2.932   2.585   0.706  0.3843 -1.6346 -1.6553
 2496SOL     OW13579   7.644  10.194   5.714  0.0892 -0.3196  0.0250
 2496SOL    HW113580   7.581  10.184   5.643  0.9488 -1.1149 -0.6447
 2496SOL    HW213581   7.593  10.233   5.785 -0.4554  2.0262 -1.5177
 2497SOL     OW13582   4.517   0.288   3.614  0.1577  0.3840 -0.7922
 2497SOL    HW113583   4.447   0.245   3.663 -1.6549  2.6420 -1.2696
 2497SOL    HW213584   4.503   0.261   3.523  1.9352 -1.7025 -0.5298
 2498SOL     OW13585   7.919   6.417   8.269  0.3149  0.2092 -0.1869
 2498SOL    HW113586   7.950   6.502   8.237 -1.4763  1.6762  1.6800
 2498SOL    HW213587   7.882   6.436   8.355 -0.0282 -2.5295  0.3671
 2499SOL     OW13588   3.532   0.625   2.632 -0.4631  0.7698 -0.2545
 2499SOL    HW113589   3.454   0.569   2.633 -1.4433  2.0897 -0.5274
 2499SOL    HW213590   3.605   0.563   2.631 -1.4508 -0.5126  1.4483
 2500SOL     OW13591   5.290   0.502   5.598 -0.0697 -0.1754  0.6941
 2500SOL    HW113592   5.231   0.436   5.562  2.0397 -2.4207  1.0685
 2500SOL    HW213593   5.352   0.451   5.651  2.3863  1.9679  0.0598
 2501SOL     OW13594   5.372   2.577   4.569 -0.6962  0.2605 -0.2027
 2501SOL    HW113595   5.280   2.602   4.572 -0.6367  0.4447  0.1086
 2501SOL    HW213596   5.372   2.483   4.583 -0.7359  0.4698  1.3559
 2502SOL     OW13597   6.908   5.433   4.263  0.1325 -0.1721  0.2553
 2502SOL    HW113598   6.873   5.441   4.351  2.8361  0.9491  1.3495
 2502SOL    HW213599   7.000   5.410   4.276  0.6498  0.1572 -2.2632
 2503SOL     OW13600   0.639   7.584   0.834 -0.1511 -1.1455 -0.1628
 2503SOL    HW113601   0.722   7.562   0.791  0.3541 -0.5311  0.4797
 2503SOL    HW213602   0.608   7.501   0.870 -0.5911 -1.6834 -1.6778
 2504SOL     OW13603   7.572   3.128   6.896 -0.3214  0.0406 -0.1394
 2504SOL    HW113604   7.497   3.165   6.943 -0.3282 -1.4720  1.1174
 2504SOL    HW213605   7.645   3.184   6.922 -0.7476  0.6273 -0.1824
 2505SOL     OW13606   7.984   1.381   0.232 -0.1652  0.4169 -0.3710
 2505SOL    HW113607   7.993   1.452   0.170 -0.5782 -0.8729 -1.9781
 2505SOL    HW213608   8.032   1.410   0.309  0.6377  1.9381 -1.4034
 2506SOL     OW13609   9.612   5.406   9.712 -0.3043  0.1705  0.0413
 2506SOL    HW113610   9.585   5.402   9.621 -1.4545 -0.5943  0.3933
 2506SOL    HW213611   9.708   5.411   9.709 -0.2366 -1.3039 -1.1787
 2507SOL     OW13612   7.514   0.425   3.129  0.2522  0.5998 -0.2277
 2507SOL    HW113613   7.475   0.346   3.093  0.8681  0.8968 -1.5767
 2507SOL    HW213614   7.539   0.401   3.218  1.1345 -0.9537 -0.8695
 2508SOL     OW13615   9.245   6.527   8.313 -0.1464 -0.0129  0.3006
 2508SOL    HW113616   9.228   6.499   8.223  0.2319 -0.9685  0.5029
 2508SOL    HW213617   9.326   6.481   8.337 -0.4922 -0.1353  1.2740
 2509SOL     OW13618   4.795  10.747   8.401  0.5509  0.4686  0.0674
 2509SOL    HW113619   4.714  10.699   8.414 -0.1923  2.1092  2.0971
 2509SOL    HW213620   4.818  10.780   8.488  1.8023  2.4611 -0.9309
 2510SOL     OW13621   0.913  10.921   4.399  0.0046 -0.5202  0.2140
 2510SOL    HW113622   0.835  10.874   4.426  0.8753 -1.3332  1.4388
 2510SOL    HW213623   0.907  11.005   4.444  0.1363 -0.8359  0.8357
 2511SOL     OW13624   1.506   0.941   8.163  0.2586 -0.1147 -0.3796
 2511SOL    HW113625   1.513   1.022   8.113  3.2948 -0.3625 -0.5629
 2511SOL    HW213626   1.474   0.876   8.100 -0.0940  0.4791 -0.8209
 2512SOL     OW13627   6.689   2.060   8.050 -0.3212 -0.2937 -0.6966
 2512SOL    HW113628   6.649   2.059   8.137  0.3320  0.0564 -0.3889
 2512SOL    HW213629   6.630   2.113   7.997  0.8524  2.1523  0.3113
 2513SOL     OW13630   4.817   4.558  10.672 -0.5046  0.4703  0.3331
 2513SOL    HW113631   4.783   4.513  10.595 -3.4562  0.8224  1.2845
 2513SOL    HW213632   4.788   4.504  10.746  2.6436 -0.1174  1.2933
 2514SOL     OW13633   3.859   8.221   2.124 -0.4436  0.3212 -0.3410
 2514SOL    HW113634   3.781   8.268   2.153  0.5862  1.5984  0.4539
 2514SOL    HW213635   3.883   8.264   2.041 -0.9475 -0.5204 -0.9422
 2515SOL     OW13636   9.400   3.945   8.863  0.5061 -0.2310  0.4471
 2515SOL    HW113637   9.439   3.864   8.831  0.0605 -0.5615  0.7268
 2515SOL    HW213638   9.375   3.926   8.953 -1.5379 -0.4991 -0.1209
 2516SOL     OW13639   2.306   8.908   8.340  0.1215  0.3768  0.1101
 2516SOL    HW113640   2.218   8.946   8.336 -0.8799 -1.8239 -2.7761
 2516SOL    HW213641   2.362   8.972   8.297 -0.4862  0.8807  0.0598
 2517SOL     OW13642   8.213   0.694   0.620  0.0682  0.5029 -0.0328
 2517SOL    HW113643   8.276   0.704   0.548  0.6632 -2.3228 -0.0294
 2517SOL    HW213644   8.170   0.610   0.602 -0.3131  0.1009  2.4587
 2518SOL     OW13645   7.733   1.931   7.321 -0.0831  0.0357 -0.0982
 2518SOL    HW113646   7.686   1.960   7.399 -0.8923 -0.9833 -0.1799
 2518SOL    HW213647   7.823   1.921   7.350 -0.0826  1.1084  0.3122
 2519SOL     OW13648   7.788   2.679   1.378  0.3409  0.0520 -0.3084
 2519SOL    HW113649   7.758   2.654   1.466  0.0755  3.2952  0.6358
 2519SOL    HW213650   7.707   2.687   1.328  0.4905 -1.7563 -0.9172
 2520SOL     OW13651  10.773   0.475   5.879  0.2332 -0.0766  0.1920
 2520SOL    HW113652  10.749   0.525   5.801  3.8209  2.4216  0.4706
 2520SOL    HW213653  10.766   0.539   5.951 -2.6733 -2.2193  2.0397
 2521SOL     OW13654   0.326  10.738   5.857 -0.7255 -0.2201  0.3281
 2521SOL    HW113655   0.360  10.814   5.904  1.5471 -1.1912  0.3476
 2521SOL    HW213656   0.284  10.685   5.924  0.8748 -0.7019  0.9932
 2522SOL     OW13657   9.570   8.253  10.687 -0.2941 -0.5545 -0.0158
 2522SOL    HW113658   9.626   8.176  10.679 -0.1710 -0.3600 -1.2162
 2522SOL    HW213659   9.549   8.258  10.781  0.8926 -1.1858  0.3042
 2523SOL     OW13660   4.565   1.793  10.426  0.2780 -0.0699 -0.0435
 2523SOL    HW113661   4.552   1.800  10.520 -0.6238  0.8310 -0.2151
 2523SOL    HW213662   4.627   1.863  10.405  1.3839 -1.0081  0.0309
 2524SOL     OW13663   6.554   7.767   4.002  0.2962 -0.0183  0.4201
 2524SOL    HW113664   6.546   7.860   4.023  0.2221 -0.0396  0.4882
 2524SOL    HW213665   6.595   7.728   4.079  1.1825  0.1083  0.0240
 2525SOL     OW13666   5.140   7.867   6.364 -0.2319 -0.0276  0.2182
 2525SOL    HW113667   5.173   7.780   6.341  2.6001  1.2936 -1.2546
 2525SOL    HW213668   5.055   7.851   6.405 -0.0251 -3.4241 -0.4207
 2526SOL     OW13669   6.262   7.855   8.041 -0.8888  0.5377  0.3413
 2526SOL    HW113670   6.236   7.927   7.983  0.8006  0.7106 -0.2495
 2526SOL    HW213671   6.350   7.832   8.012 -1.3802 -1.8007  0.5054
 2527SOL     OW13672   6.596   6.302   7.594  0.3294 -0.2406  0.2524
 2527SOL    HW113673   6.643   6.373   7.639 -2.3002  1.7575  0.0596
 2527SOL    HW213674   6.608   6.226   7.651  0.8324  1.0816  2.0090
 2528SOL     OW13675   9.817   8.971   6.922 -0.4614 -0.0044 -0.1197
 2528SOL    HW113676   9.825   8.957   6.828 -0.7556  0.2888 -0.1891
 2528SOL    HW213677   9.847   8.889   6.962  3.7954  1.1912 -0.3358
 2529SOL     OW13678   5.999   2.683   4.400  0.0125  0.3164  0.2319
 2529SOL    HW113679   5.966   2.635   4.475 -0.3650  1.0596  0.5560
 2529SOL    HW213680   6.093   2.664   4.398 -0.4034 -1.9355 -0.7870
 2530SOL     OW13681   2.852  10.787  10.714 -0.2598  0.1267  0.0372
 2530SOL    HW113682   2.786  10.852  10.738 -2.4931 -1.2151 -2.0641
 2530SOL    HW213683   2.824  10.707  10.759  0.7119 -0.1392  0.1826
 2531SOL     OW13684   9.051  10.114   8.953  0.0653 -0.1740  0.2916
 2531SOL    HW113685   8.966  10.158   8.952 -0.2072 -0.6862  0.3795
 2531SOL    HW213686   9.041  10.040   8.894  0.5760 -0.0206  0.0038
 2532SOL     OW13687   9.357   3.382   2.481  0.1419 -0.3300  0.2824
 2532SOL    HW113688   9.444   3.420   2.488 -0.2373  0.5043  0.5601
 2532SOL    HW213689   9.336   3.353   2.570 -1.6009  3.4388  1.3087
 2533SOL     OW13690   4.201   3.935   0.968 -0.1516 -0.7045 -0.2622
 2533SOL    HW113691   4.170   3.850   1.000 -0.3141 -0.4886  0.1577
 2533SOL    HW213692   4.156   3.947   0.885 -1.2869 -0.3463  0.3863
 2534SOL     OW13693   7.593   7.770   4.522  0.8524  0.1875  0.2993
 2534SOL    HW113694   7.519   7.711   4.508  0.9144  0.0678  0.4717
 2534SOL    HW213695   7.565   7.826   4.595  0.3411  1.1226 -0.5908
 2535SOL     OW13696   0.159   6.975   6.278 -0.7788 -0.0261 -0.1823
 2535SOL    HW113697   0.181   6.922   6.355 -1.5974  0.3856  0.3400
 2535SOL    HW213698   0.234   6.963   6.219  0.2187  0.2699  0.9953
 2536SOL     OW13699   1.559   1.978   9.968  0.4344  0.2789  0.4487
 2536SOL    HW113700   1.612   1.943  10.040  1.6173  0.1209 -0.4738
 2536SOL    HW213701   1.622   2.022   9.911 -0.4226  0.0652 -0.6979
 2537SOL     OW13702   7.924   6.418   7.159  0.2001 -0.1731  0.1386
 2537SOL    HW113703   7.970   6.466   7.090 -0.9882  1.8768  0.7029
 2537SOL    HW213704   7.912   6.330   7.122  0.1930  0.6522 -1.9998
 2538SOL     OW13705   3.686   6.145   5.767 -0.1571  0.4068 -0.3905
 2538SOL    HW113706   3.774   6.165   5.798  0.3100 -0.5154 -1.0606
 2538SOL    HW213707   3.689   6.167   5.673 -0.3152 -0.5761 -0.6394
 2539SOL     OW13708  10.391   3.108   0.153  0.3040 -0.2812 -0.4701
 2539SOL    HW113709  10.353   3.047   0.088 -0.4028  0.7198 -1.0319
 2539SOL    HW213710  10.435   3.174   0.100 -1.0494  1.0544 -0.0116
 2540SOL     OW13711   6.343   6.102  10.615 -0.4550 -0.5167 -0.3288
 2540SOL    HW113712   6.292   6.172  10.656 -1.6373 -1.7013  0.3258
 2540SOL    HW213713   6.305   6.094  10.527 -0.1398 -0.1644 -0.4976
 2541SOL     OW13714   8.240   9.965   1.082 -0.5924  0.8170 -0.6224
 2541SOL    HW113715   8.251  10.024   1.007 -0.5987  0.8771 -0.5761
 2541SOL    HW213716   8.306   9.896   1.067 -0.8419  0.6301 -0.8730
 2542SOL     OW13717   7.174   4.711   5.904  0.0056  0.0952 -0.6411
 2542SOL    HW113718   7.195   4.783   5.845  0.8896 -0.6537 -1.2540
 2542SOL    HW213719   7.235   4.722   5.978 -0.9361  0.8888  0.0489
 2543SOL     OW13720   7.447   1.460   6.343  0.1275  0.1470 -0.0450
 2543SOL    HW113721   7.391   1.391   6.379  2.4467 -2.1764 -0.5770
 2543SOL    HW213722   7.388   1.514   6.291 -1.8287 -1.3887  0.4344
 2544SOL     OW13723  10.227   2.045   5.142 -0.6404 -0.8293 -0.6148
 2544SOL    HW113724  10.273   2.116   5.096  0.0697 -1.2685 -0.5991
 2544SOL    HW213725  10.294   2.006   5.198 -1.8672  0.8236  2.2343
 2545SOL     OW13726   1.883   1.126   4.603 -0.1477 -0.2676  0.7234
 2545SOL    HW113727   1.848   1.064   4.667 -0.6408 -1.2494 -0.4807
 2545SOL    HW213728   1.807   1.172   4.569 -0.1465 -1.3718 -0.8295
 2546SOL     OW13729   3.139   4.359   8.952 -0.6991  0.2280 -0.2069
 2546SOL    HW113730   3.106   4.366   8.862  0.8139 -0.0740 -0.8240
 2546SOL    HW213731   3.163   4.267   8.961 -0.7661  0.2781  0.4848
 2547SOL     OW13732  10.027   3.179   9.930  0.2490  0.3465 -0.3293
 2547SOL    HW113733   9.944   3.215   9.899  0.4055  2.8470  1.8179
 2547SOL    HW213734  10.091   3.248   9.914  1.8995 -1.3443 -1.4929
 2548SOL     OW13735   2.786   0.872   8.978  0.1613 -0.0422 -0.1866
 2548SOL    HW113736   2.870   0.879   9.024  1.9108 -1.8718 -2.8107
 2548SOL    HW213737   2.744   0.795   9.017 -1.1567  1.7005  2.1519
 2549SOL     OW13738   9.495   8.668   3.076  0.1151 -0.7683 -0.3997
 2549SOL    HW113739   9.420   8.706   3.121  0.3684 -0.8733  0.1142
 2549SOL    HW213740   9.532   8.741   3.026 -0.4337 -0.7602 -0.8011
 2550SOL     OW13741   5.256   7.218   0.915 -0.0021  0.1649 -0.0491
 2550SOL    HW113742   5.331   7.271   0.890 -0.0533 -0.0460 -0.6894
 2550SOL    HW213743   5.204   7.273   0.974 -0.5865  1.2235 -1.4927
 2551SOL     OW13744   4.389  10.492   5.824 -0.0395  0.2595  0.1409
 2551SOL    HW113745   4.386  10.433   5.899  0.7035 -0.1233 -0.1259
 2551SOL    HW213746   4.393  10.435   5.747  1.4863  0.6279 -0.0841
 2552SOL     OW13747   6.076   7.955   5.501  0.3716 -0.5459  0.4558
 2552SOL    HW113748   6.062   8.012   5.426  1.2066 -0.2234  0.5359
 2552SOL    HW213749   6.065   7.866   5.466  0.1318 -0.3743  0.0959
 2553SOL     OW13750   3.840   2.990   7.967  0.4442  0.1617 -0.1594
 2553SOL    HW113751   3.892   2.950   7.897 -0.5813  1.2349 -1.5789
 2553SOL    HW213752   3.796   3.064   7.925 -0.7816  0.3940  1.4539
 2554SOL     OW13753   3.705   9.816   1.422 -0.0983 -0.0433 -0.2507
 2554SOL    HW113754   3.630   9.780   1.374  0.5737  0.4722 -1.7606
 2554SOL    HW213755   3.727   9.896   1.375  1.5854 -0.3455 -0.0423
 2555SOL     OW13756   7.471  10.691   2.912 -0.8613  0.2681  0.4448
 2555SOL    HW113757   7.432  10.614   2.871 -0.3830 -1.1174  2.4550
 2555SOL    HW213758   7.524  10.656   2.984  1.7630  2.2877 -0.3645
 2556SOL     OW13759   9.639   5.504  10.246  0.1667  0.4180  0.0499
 2556SOL    HW113760   9.568   5.508  10.183  0.8855  0.2186 -0.7954
 2556SOL    HW213761   9.719   5.508  10.193  0.8007 -0.6362  0.8661
 2557SOL     OW13762   6.000   4.417   3.795  0.2486 -0.3295  0.3212
 2557SOL    HW113763   5.960   4.377   3.872  0.3576  0.6407  0.9127
 2557SOL    HW213764   5.926   4.453   3.746  0.3020  1.0271  1.1599
 2558SOL     OW13765   2.657   2.239   2.702 -0.1094 -0.1522  0.2592
 2558SOL    HW113766   2.588   2.221   2.637  0.4118 -0.3826 -0.2492
 2558SOL    HW213767   2.700   2.318   2.669  0.5999 -0.6603 -0.0669
 2559SOL     OW13768   9.402   4.211   2.053 -0.5637  0.0753  0.4326
 2559SOL    HW113769   9.424   4.125   2.089  0.3148  0.1766  0.1635
 2559SOL    HW213770   9.467   4.225   1.984 -0.7178  0.9366  0.4522
 2560SOL     OW13771   2.777   5.835   4.348  0.2873  0.2725  0.1191
 2560SOL    HW113772   2.865   5.832   4.310 -0.2432 -0.1549 -1.1516
 2560SOL    HW213773   2.785   5.893   4.424  1.2554  1.7768 -1.0656
 2561SOL     OW13774   4.793   0.517   4.031  0.2922  0.0105 -0.2241
 2561SOL    HW113775   4.742   0.548   4.106  2.5724 -0.2488  1.5212
 2561SOL    HW213776   4.835   0.437   4.061  2.7089  0.8640 -1.1178
 2562SOL     OW13777   2.307   7.382   2.920  0.4492 -0.2788  0.1091
 2562SOL    HW113778   2.215   7.359   2.908  0.3439  1.1581 -2.7609
 2562SOL    HW213779   2.353   7.331   2.854  1.3277  0.9420 -0.2585
 2563SOL     OW13780  10.211   3.888   9.282 -0.5357  0.5347 -0.0248
 2563SOL    HW113781  10.138   3.827   9.294  0.6078 -0.5940  1.5378
 2563SOL    HW213782  10.221   3.931   9.366  1.0588  0.1198  0.0365
 2564SOL     OW13783   1.349  10.191  10.011  0.2935  0.6752  0.8873
 2564SOL    HW113784   1.347  10.276   9.968 -1.4384 -0.3332 -1.2451
 2564SOL    HW213785   1.257  10.165  10.018  0.7749 -1.1577  1.1177
 2565SOL     OW13786   9.547   9.935   3.782 -0.3842  0.2833 -0.2766
 2565SOL    HW113787   9.609   9.897   3.845  0.5516  1.9761 -0.1138
 2565SOL    HW213788   9.581   9.910   3.696  0.6332  1.2909 -0.1928
 2566SOL     OW13789   9.016   6.094   6.507 -0.4289 -0.1645 -0.7555
 2566SOL    HW113790   8.942   6.039   6.532  0.5316 -0.9135  0.5280
 2566SOL    HW213791   9.046   6.134   6.589 -0.1154  1.0453 -1.4304
 2567SOL     OW13792   3.557   9.769  10.599  0.2550  0.1389  0.4694
 2567SOL    HW113793   3.537   9.766  10.505  0.2929  0.0032  0.4655
 2567SOL    HW213794   3.641   9.725  10.607  0.0056 -0.3133  0.6359
 2568SOL     OW13795   2.875   2.865   9.075 -0.6715  0.3631  0.9595
 2568SOL    HW113796   2.825   2.852   9.155 -0.3399  0.5224  1.1948
 2568SOL    HW213797   2.821   2.922   9.021  0.2984  2.6042  2.2091
 2569SOL     OW13798   4.063   5.729   5.614 -0.4015  0.0952 -0.0566
 2569SOL    HW113799   4.062   5.815   5.656  1.8098  1.2868 -2.1693
 2569SOL    HW213800   4.116   5.674   5.671 -0.2728  0.6665  0.3772
 2570SOL     OW13801  10.509   1.635   7.005  0.3077  0.1155 -0.0206
 2570SOL    HW113802  10.461   1.712   6.975 -1.6646 -1.6147 -1.6968
 2570SOL    HW213803  10.598   1.646   6.970  0.1385  1.7235  0.0154
 2571SOL     OW13804   0.617   7.968   3.688 -0.5020  0.0418 -0.4066
 2571SOL    HW113805   0.662   8.052   3.677  0.0549 -0.3813 -1.5579
 2571SOL    HW213806   0.684   7.911   3.726 -1.4017  0.5548  2.1373
 2572SOL     OW13807   0.942   7.434   4.937  0.0070 -0.7949  0.3625
 2572SOL    HW113808   0.896   7.455   4.856  1.3849 -0.3287 -0.3210
 2572SOL    HW213809   0.872   7.415   5.000 -1.1849  0.9895 -0.3318
 2573SOL     OW13810   1.988   8.743   8.672 -0.6386  0.2302  0.0237
 2573SOL    HW113811   1.923   8.742   8.602 -0.4834  0.6963 -0.1303
 2573SOL    HW213812   1.964   8.669   8.728 -0.1225 -0.8344 -1.1051
 2574SOL     OW13813   9.794  10.864   8.290  0.1816 -0.7050 -0.0361
 2574SOL    HW113814   9.875  10.845   8.243 -0.7683  0.6351 -2.3680
 2574SOL    HW213815   9.800  10.958   8.311 -1.2640 -0.2645 -1.3908
 2575SOL     OW13816   8.625   7.177   4.424  0.4066 -0.6360  0.0538
 2575SOL    HW113817   8.603   7.093   4.464  1.5547 -0.2353  1.6333
 2575SOL    HW213818   8.549   7.232   4.440  0.8785 -0.4457  1.9070
 2576SOL     OW13819   7.822   0.185   7.426  0.7171 -0.5555 -0.1172
 2576SOL    HW113820   7.793   0.102   7.463 -2.3457  0.4542 -0.0180
 2576SOL    HW213821   7.786   0.186   7.337  0.1645  0.9089  0.0921
 2577SOL     OW13822   2.683   6.633  10.572  0.3482  0.0165  0.0583
 2577SOL    HW113823   2.604   6.606  10.527 -0.6767  1.0992  1.1263
 2577SOL    HW213824   2.737   6.674  10.505 -0.3035 -0.1125 -0.5497
 2578SOL     OW13825   9.854   7.125   3.817  0.5371  0.7750  0.2562
 2578SOL    HW113826   9.803   7.206   3.810 -0.6110  0.0620  0.1262
 2578SOL    HW213827   9.937   7.145   3.773  0.0669  1.7189 -0.2318
 2579SOL     OW13828   9.524   4.718  10.185 -0.3035  0.7984 -0.4215
 2579SOL    HW113829   9.594   4.751  10.241  1.3034 -0.0429 -1.8231
 2579SOL    HW213830   9.445   4.729  10.236  0.8086  2.0912  1.1167
 2580SOL     OW13831   4.641   2.915   8.955  0.1445  0.5660 -0.5634
 2580SOL    HW113832   4.708   2.856   8.988  0.4536  1.1947 -0.0426
 2580SOL    HW213833   4.590   2.862   8.893 -0.7869 -0.7847  1.2885
 2581SOL     OW13834   4.688   2.227   7.440 -0.0567  0.2072  0.0413
 2581SOL    HW113835   4.739   2.303   7.414 -0.9943  0.4053 -1.3787
 2581SOL    HW213836   4.719   2.156   7.383  0.2098 -0.2530  0.7500
 2582SOL     OW13837   0.385   2.732   6.382 -0.3278  0.3570  0.0888
 2582SOL    HW113838   0.436   2.793   6.434 -1.4395  1.6122 -0.2207
 2582SOL    HW213839   0.408   2.645   6.415 -0.6536  1.0764  2.3581
 2583SOL     OW13840   1.549   9.701   3.626 -0.1735  0.5642  0.6952
 2583SOL    HW113841   1.604   9.695   3.548  0.1778 -0.1316  0.9790
 2583SOL    HW213842   1.541   9.794   3.644 -1.1103  0.7820 -0.7641
 2584SOL     OW13843   8.176   5.384   4.867 -0.1085  0.0189 -0.4204
 2584SOL    HW113844   8.092   5.420   4.839 -0.8819  0.5909  2.3349
 2584SOL    HW213845   8.188   5.418   4.956  2.3173 -1.3023 -0.1650
 2585SOL     OW13846   3.444   6.084   3.223  0.1507 -0.3614 -0.6025
 2585SOL    HW113847   3.524   6.136   3.214 -0.4442  0.4308 -1.4848
 2585SOL    HW213848   3.390   6.110   3.148 -1.4809  0.0952  0.6747
 2586SOL     OW13849   7.293   0.062   3.633 -0.1227  0.3459  0.0469
 2586SOL    HW113850   7.343   0.052   3.552 -0.3313  0.4534 -0.0939
 2586SOL    HW213851   7.257  -0.025   3.650  0.1685  0.2501  0.1874
 2587SOL     OW13852   3.614   2.170   2.096 -0.1374  0.4591  0.3522
 2587SOL    HW113853   3.560   2.092   2.111 -1.7898  1.7131  1.1651
 2587SOL    HW213854   3.672   2.145   2.024 -2.8902 -0.4202 -1.7166
 2588SOL     OW13855  10.374   0.931   3.445 -0.1407 -0.0041 -0.0054
 2588SOL    HW113856  10.301   0.907   3.502 -1.0198 -0.9542 -1.4719
 2588SOL    HW213857  10.370   0.868   3.374  3.3678 -1.4314  0.8603
 2589SOL     OW13858   4.943   0.444   1.361 -0.1404  0.2041 -0.7559
 2589SOL    HW113859   4.941   0.512   1.428 -1.9869  0.0474 -0.6022
 2589SOL    HW213860   5.034   0.441   1.332  0.6396  0.5103  1.4874
 2590SOL     OW13861   1.924  10.112   9.633  0.3767 -0.8765 -0.0575
 2590SOL    HW113862   1.861  10.059   9.584 -1.5479  0.8111  0.4753
 2590SOL    HW213863   1.897  10.203   9.616  1.8877 -0.1442  1.2378
 2591SOL     OW13864   7.585   3.620   3.401 -0.0361 -0.5788 -0.1923
 2591SOL    HW113865   7.678   3.616   3.424 -0.0093 -1.1823 -0.4006
 2591SOL    HW213866   7.553   3.531   3.416 -0.9642 -0.0073  1.4994
 2592SOL     OW13867   1.301  10.796   9.807  0.1177 -0.6022 -0.1473
 2592SOL    HW113868   1.313  10.834   9.720 -0.0444 -0.3211 -0.0492
 2592SOL    HW213869   1.374  10.735   9.817 -0.2317 -1.1250 -0.7389
 2593SOL     OW13870  10.114   7.885   0.631  0.1078  0.1059 -0.2173
 2593SOL    HW113871  10.170   7.809   0.645  0.1895 -0.0545 -1.3357
 2593SOL    HW213872  10.174   7.956   0.609 -0.0747  0.1234 -0.6592
 2594SOL     OW13873   8.694   3.617   9.364  0.4418 -0.4249 -0.1802
 2594SOL    HW113874   8.622   3.660   9.318  0.7074 -0.4248 -0.5910
 2594SOL    HW213875   8.726   3.682   9.426  0.2176 -0.3585 -0.1336
 2595SOL     OW13876   9.332   1.531   5.996  0.3123  0.3633 -0.0833
 2595SOL    HW113877   9.401   1.594   5.973  0.8347 -0.7859 -1.8641
 2595SOL    HW213878   9.365   1.486   6.074  2.4818 -1.3682 -1.8600
 2596SOL     OW13879   5.632   7.303   2.456  0.2278  0.5321  0.4203
 2596SOL    HW113880   5.547   7.319   2.498 -0.1110  0.9876 -0.4225
 2596SOL    HW213881   5.615   7.235   2.391  0.6440  0.2043  0.6445
 2597SOL     OW13882   5.392   8.835  10.686  0.4823  0.1892  0.6734
 2597SOL    HW113883   5.485   8.812  10.683  1.1017  2.4230 -2.7484
 2597SOL    HW213884   5.389   8.920  10.729 -0.0816 -0.0893  1.2082
 2598SOL     OW13885   0.521   3.892   2.665 -0.0098  0.6988  0.2384
 2598SOL    HW113886   0.612   3.866   2.677 -0.7702 -2.1187  0.5407
 2598SOL    HW213887   0.473   3.842   2.731 -2.0315  0.3801 -1.3829
 2599SOL     OW13888  10.371   0.433   7.347 -0.4174  0.0037 -0.1317
 2599SOL    HW113889  10.301   0.467   7.403  1.1781 -1.1696  2.8235
 2599SOL    HW213890  10.437   0.502   7.348 -0.4624  0.0568 -0.7620
 2600SOL     OW13891   9.906  10.147   7.883  0.1552 -0.3261  0.2568
 2600SOL    HW113892   9.980  10.120   7.829 -0.6027  0.8140 -1.4406
 2600SOL    HW213893   9.917  10.242   7.892 -0.9029 -0.2012  0.2890
 2601SOL     OW13894   8.210   3.501   8.320 -0.1250 -0.6059 -0.0394
 2601SOL    HW113895   8.206   3.405   8.328 -0.4461 -0.4737  1.7103
 2601SOL    HW213896   8.278   3.527   8.382 -0.5071  0.3419 -0.0073
 2602SOL     OW13897   4.431   2.705   0.034 -0.2167 -0.4290  0.0513
 2602SOL    HW113898   4.395   2.794   0.024 -0.2247 -0.4813 -0.3877
 2602SOL    HW213899   4.428   2.668  -0.054  1.3905 -0.2533 -0.1030
 2603SOL     OW13900   8.973   5.477   6.915 -0.1098 -0.5489  0.2811
 2603SOL    HW113901   8.946   5.490   7.006  0.5956  2.2007  0.1972
 2603SOL    HW213902   9.057   5.524   6.909 -0.5394  0.0244 -1.9550
 2604SOL     OW13903   8.056   7.537   9.066  0.0527 -0.0804 -0.2329
 2604SOL    HW113904   7.985   7.548   9.004 -0.6279  2.3066  0.8563
 2604SOL    HW213905   8.122   7.600   9.039  0.8023 -0.7121  0.0732
 2605SOL     OW13906   3.305   0.419   5.950  0.6532 -0.0609 -0.5026
 2605SOL    HW113907   3.249   0.452   5.879 -1.3259 -0.6077  0.7364
 2605SOL    HW213908   3.352   0.345   5.911 -0.3153 -0.2823 -1.2835
 2606SOL     OW13909   1.358   4.511   6.963  0.1727 -0.1449 -0.3242
 2606SOL    HW113910   1.437   4.542   7.007 -0.4797 -0.9195  1.5273
 2606SOL    HW213911   1.344   4.572   6.891  2.3226  0.1203 -0.5681
 2607SOL     OW13912   9.137   3.588   5.808  0.3935  0.0455 -0.2249
 2607SOL    HW113913   9.206   3.523   5.795 -0.2059 -0.6064 -0.2272
 2607SOL    HW213914   9.179   3.658   5.858  0.9390 -0.5409  0.1509
 2608SOL     OW13915   7.641   2.742   7.205  0.0827  0.3556 -0.0150
 2608SOL    HW113916   7.696   2.670   7.236 -1.1935 -1.4028 -1.5824
 2608SOL    HW213917   7.620   2.792   7.284  0.6932 -1.2056  1.1880
 2609SOL     OW13918   0.214  10.453   1.731  0.1757  0.0218 -0.0582
 2609SOL    HW113919   0.226  10.546   1.750 -1.7147  0.3369 -0.2013
 2609SOL    HW213920   0.135  10.449   1.678  0.5432 -1.6350 -0.5532
 2610SOL     OW13921   4.390   4.278   5.697 -0.4721  0.4642  0.1125
 2610SOL    HW113922   4.325   4.212   5.674 -1.2743  1.0960  0.5202
 2610SOL    HW213923   4.371   4.352   5.640  1.3624 -0.1568 -1.3964
 2611SOL     OW13924   1.885   6.514  10.550 -0.2557 -0.7578 -0.0644
 2611SOL    HW113925   1.877   6.427  10.511 -2.4849 -0.9938  0.7430
 2611SOL    HW213926   1.836   6.571  10.490  0.2567 -0.2625 -0.0168
 2612SOL     OW13927  10.746   7.413   0.500  0.3515  0.4771 -0.2888
 2612SOL    HW113928  10.655   7.436   0.521  0.7913  0.6732  1.6728
 2612SOL    HW213929  10.796   7.488   0.530  1.2572 -0.1206 -0.2828
 2613SOL     OW13930   5.741   4.124   1.012  0.1266 -0.2554  0.4859
 2613SOL    HW113931   5.752   4.208   1.056 -0.5848  0.1077 -0.0189
 2613SOL    HW213932   5.818   4.116   0.956  0.0290  0.2266  0.2770
 2614SOL     OW13933   6.968   8.422  10.619  0.4417 -0.0827 -0.0394
 2614SOL    HW113934   7.045   8.379  10.582  1.1710  1.4748 -0.4102
 2614SOL    HW213935   7.002   8.476  10.690 -0.3594  0.2737  0.0820
 2615SOL     OW13936   6.433   5.943   8.773 -0.1852  0.2161  0.7065
 2615SOL    HW113937   6.366   5.942   8.704  0.5664 -0.6441 -0.0415
 2615SOL    HW213938   6.397   6.001   8.840 -1.6252 -0.1267  0.2750
 2616SOL     OW13939   2.443   6.589   5.143  0.1160 -0.3597  0.8849
 2616SOL    HW113940   2.492   6.594   5.226  1.1975 -3.1581  0.5403
 2616SOL    HW213941   2.498   6.635   5.080 -0.2029  0.8770  1.4792
 2617SOL     OW13942   3.563   3.450   1.521  0.4321  0.5501 -0.1760
 2617SOL    HW113943   3.498   3.519   1.510  1.4647  1.4357 -0.9623
 2617SOL    HW213944   3.513   3.374   1.550 -0.6468  1.8017  1.3991
 2618SOL     OW13945   9.421   9.571   1.346 -0.0565 -0.3656  0.8275
 2618SOL    HW113946   9.398   9.564   1.253 -2.0455  0.0084  1.2474
 2618SOL    HW213947   9.398   9.661   1.370  1.3177 -0.1562  1.4925
 2619SOL     OW13948   7.777   5.947   7.176 -0.4830 -0.1376  0.1045
 2619SOL    HW113949   7.713   5.944   7.248 -0.3895 -1.8799  0.1667
 2619SOL    HW213950   7.748   5.878   7.116  0.9530 -0.5012 -0.1992
 2620SOL     OW13951   7.340  10.750   6.913 -0.3219  0.1070 -0.4563
 2620SOL    HW113952   7.371  10.786   6.830 -0.4050  0.1145 -0.4840
 2620SOL    HW213953   7.245  10.763   6.911 -0.2116  1.1862  0.1535
 2621SOL     OW13954   9.756   4.130   7.392  0.5895 -0.4540  0.0132
 2621SOL    HW113955   9.786   4.216   7.363 -1.2370  0.4508  0.6665
 2621SOL    HW213956   9.765   4.133   7.487  0.4428 -0.9496  0.0427
 2622SOL     OW13957   5.589   8.191   1.053 -0.4320  0.0197  0.5238
 2622SOL    HW113958   5.601   8.149   1.138  1.6111 -0.9587 -0.1963
 2622SOL    HW213959   5.676   8.225   1.031 -0.7826 -0.2743 -1.4425
 2623SOL     OW13960   4.775   1.243   9.687  0.6552 -0.5812  0.2365
 2623SOL    HW113961   4.757   1.271   9.777 -0.5300 -0.0637 -0.1347
 2623SOL    HW213962   4.701   1.187   9.664 -0.2426  1.0580 -1.1304
 2624SOL     OW13963   4.707   6.604   6.386 -0.3343  0.8858 -0.5773
 2624SOL    HW113964   4.616   6.591   6.413  0.2055 -0.0110  0.9464
 2624SOL    HW213965   4.736   6.682   6.434  0.4755 -0.4173  1.1717
 2625SOL     OW13966   1.364   1.667   4.254 -0.0474 -0.1931  0.0358
 2625SOL    HW113967   1.304   1.739   4.235  0.9463  0.7020  0.2466
 2625SOL    HW213968   1.411   1.694   4.333 -0.5177 -1.6234  0.8524
 2626SOL     OW13969   8.134   5.155   6.398  0.5134  1.1021  0.3472
 2626SOL    HW113970   8.170   5.093   6.461  0.9842  1.8335  0.8170
 2626SOL    HW213971   8.183   5.236   6.414 -0.2628  1.6667 -0.0815
 2627SOL     OW13972   3.623   9.229   4.866  0.1530  0.2793 -0.1611
 2627SOL    HW113973   3.698   9.268   4.822  0.0166 -0.8189 -1.4547
 2627SOL    HW213974   3.601   9.153   4.812 -1.6218  0.3267  0.4266
 2628SOL     OW13975  10.742   3.239  10.136 -0.3549  0.2632 -0.0214
 2628SOL    HW113976  10.706   3.324  10.161  0.5695  0.4949  0.5742
 2628SOL    HW213977  10.814   3.260  10.076  0.5552 -0.0245  0.9448
 2629SOL     OW13978  10.494   4.056   8.762 -0.4473 -0.3958  0.1897
 2629SOL    HW113979  10.530   3.989   8.820  0.6488 -0.2941 -0.3494
 2629SOL    HW213980  10.554   4.057   8.687  0.4815  2.2317  0.8561
 2630SOL     OW13981   8.228   0.883   5.079  0.1599  0.0650 -0.0933
 2630SOL    HW113982   8.139   0.854   5.058 -0.0277  0.6382 -0.1087
 2630SOL    HW213983   8.228   0.976   5.059  1.1590 -0.1840 -1.3244
 2631SOL     OW13984   8.560  10.262   6.533 -0.3481  0.0017  0.2864
 2631SOL    HW113985   8.592  10.185   6.485  0.6235  0.3721  0.3239
 2631SOL    HW213986   8.638  10.299   6.575 -0.9663  0.4515  1.0704
 2632SOL     OW13987   2.538  10.511  10.101 -0.0558  0.1740 -0.3569
 2632SOL    HW113988   2.462  10.516  10.044  0.5369  1.8571 -1.0434
 2632SOL    HW213989   2.608  10.554  10.052  1.2434 -0.9467  0.4349
 2633SOL     OW13990   1.035   5.343   8.999  0.0955 -0.1261  0.2835
 2633SOL    HW113991   1.053   5.437   8.994 -0.8182  0.0607  0.4413
 2633SOL    HW213992   1.121   5.302   8.989  0.3402  0.6836 -1.0749
 2634SOL     OW13993   2.361   2.583   1.969 -0.2804  0.0405  0.8895
 2634SOL    HW113994   2.448   2.549   1.989 -0.5710 -0.5579  1.1626
 2634SOL    HW213995   2.344   2.648   2.038  0.7375  1.5991 -0.2786
 2635SOL     OW13996   5.986   5.985   3.403 -0.4066 -0.4062 -0.0248
 2635SOL    HW113997   6.030   5.911   3.361  0.8472  0.4237 -0.2261
 2635SOL    HW213998   6.029   6.062   3.367 -0.9646  0.4041  0.9865
 2636SOL     OW13999   4.214   4.281   6.759  0.1962 -0.1099  0.0442
 2636SOL    HW114000   4.192   4.287   6.852  2.4091 -0.1491  0.6190
 2636SOL    HW214001   4.243   4.191   6.746  1.4549  0.3224 -0.2861
 2637SOL     OW14002   8.001   6.384   8.775  0.1536 -0.2383 -0.1315
 2637SOL    HW114003   8.077   6.326   8.783  1.7251  1.3172 -2.5497
 2637SOL    HW214004   8.038   6.472   8.774 -1.7643  0.6118 -0.5762
 2638SOL     OW14005   8.890   7.186   0.526 -0.0848 -0.4834 -0.0134
 2638SOL    HW114006   8.832   7.167   0.452 -0.0418 -0.6268 -0.0123
 2638SOL    HW214007   8.976   7.157   0.496 -0.3731 -2.3063  0.7586
 2639SOL     OW14008   5.533   9.683   4.912 -0.6596  0.5698 -0.0117
 2639SOL    HW114009   5.557   9.591   4.900 -0.0111  0.7605 -0.2345
 2639SOL    HW214010   5.590   9.713   4.983 -2.0805  0.3497  1.2726
 2640SOL     OW14011   0.022   1.771  10.834  0.0966 -0.1402 -0.0727
 2640SOL    HW114012   0.112   1.794  10.810 -0.1224  0.6319 -0.1794
 2640SOL    HW214013   0.032   1.696  10.893  0.9570  1.3295  1.7275
 2641SOL     OW14014   5.350   3.556   3.222  0.2705  0.5553 -1.0082
 2641SOL    HW114015   5.389   3.504   3.292 -0.8268  0.3715 -0.5112
 2641SOL    HW214016   5.398   3.639   3.225 -0.1216  0.7664  0.3464
 2642SOL     OW14017   5.628   7.209   7.851  0.0547 -0.4290  0.6108
 2642SOL    HW114018   5.576   7.289   7.853  0.4565  0.1514 -3.4885
 2642SOL    HW214019   5.712   7.234   7.890  0.2722  1.3466 -0.8368
 2643SOL     OW14020  10.693   9.968  10.767 -0.1531  0.1672 -0.0092
 2643SOL    HW114021  10.635   9.953  10.841  1.6940 -0.2315  1.4132
 2643SOL    HW214022  10.701  10.063  10.762 -0.0572  0.1871  0.4917
 2644SOL     OW14023   9.328   5.145  10.716  0.9247  0.2700 -0.8720
 2644SOL    HW114024   9.242   5.183  10.698  0.2159 -0.8077  0.0300
 2644SOL    HW214025   9.354   5.183  10.800 -0.0790 -1.5813  0.3597
 2645SOL     OW14026   6.310   0.073   0.540  0.2945  0.2449  0.1620
 2645SOL    HW114027   6.320   0.150   0.484 -2.5493  0.1853 -0.5895
 2645SOL    HW214028   6.268   0.106   0.619  4.1193  0.2950  2.3909
 2646SOL     OW14029   6.086   0.063   6.656  1.0286  0.1357  0.0858
 2646SOL    HW114030   6.104   0.090   6.566  1.5474  1.1025  0.4645
 2646SOL    HW214031   6.028   0.131   6.690  1.3837  0.1540  0.6812
 2647SOL     OW14032   8.150   2.452   3.666 -0.1893 -0.5271 -0.0318
 2647SOL    HW114033   8.106   2.392   3.606  0.9360 -1.5718  0.1428
 2647SOL    HW214034   8.081   2.486   3.722 -1.1082 -0.2843 -1.2881
 2648SOL     OW14035   0.339   8.966   2.561 -0.6515 -0.6363 -0.2095
 2648SOL    HW114036   0.382   9.052   2.562  1.4734 -1.6501 -0.1727
 2648SOL    HW214037   0.325   8.947   2.469 -0.7398 -0.4496 -0.2360
 2649SOL     OW14038   2.922   0.673   0.988  0.8057  0.5589  0.0948
 2649SOL    HW114039   2.942   0.604   1.051 -2.0099  1.2097  1.9020
 2649SOL    HW214040   2.870   0.630   0.921  1.0952  0.4629 -0.0669
 2650SOL     OW14041   9.675   7.166   9.334  0.2238 -0.6025 -0.4643
 2650SOL    HW114042   9.705   7.202   9.251  0.3909 -2.3296 -1.1908
 2650SOL    HW214043   9.589   7.205   9.348  0.1184 -0.4289 -1.5420
 2651SOL     OW14044   2.224   2.633   1.723 -0.0366 -0.0167 -0.3644
 2651SOL    HW114045   2.264   2.628   1.810 -0.6589 -0.5488 -0.0976
 2651SOL    HW214046   2.225   2.726   1.701  1.2038 -0.0031 -0.3001
 2652SOL     OW14047   6.462   3.037   6.026 -0.3266 -0.2815  0.5097
 2652SOL    HW114048   6.418   3.055   5.943  2.0815 -0.1601 -0.8521
 2652SOL    HW214049   6.431   2.950   6.052 -3.1885  0.7832  0.9962
 2653SOL     OW14050   5.296   0.078  10.159  0.3031  0.3450  0.0680
 2653SOL    HW114051   5.385   0.045  10.145  0.9134  2.0486 -0.3307
 2653SOL    HW214052   5.245   0.000  10.182  2.2012 -0.4768  1.8534
 2654SOL     OW14053   1.662   5.378   4.510  0.0719 -0.3133 -0.0154
 2654SOL    HW114054   1.619   5.294   4.499 -4.6568  1.8424 -0.4109
 2654SOL    HW214055   1.691   5.402   4.422 -0.1316 -0.7944 -0.2164
 2655SOL     OW14056   4.037  10.776   4.706  0.2076 -0.1934  0.2003
 2655SOL    HW114057   4.133  10.769   4.704  0.1042 -2.0437 -0.6321
 2655SOL    HW214058   4.008  10.711   4.642 -1.6120  0.4881  0.3037
 2656SOL     OW14059   5.178   8.454   0.948  0.0077  0.3672  0.0472
 2656SOL    HW114060   5.109   8.496   0.897  0.8430  0.8603 -0.7070
 2656SOL    HW214061   5.133   8.388   1.001 -0.8452 -0.4311 -1.6225
 2657SOL     OW14062   7.617   0.082   3.539 -0.1579 -0.0936 -0.5833
 2657SOL    HW114063   7.542   0.095   3.481  0.2450  1.8371 -0.7466
 2657SOL    HW214064   7.619   0.160   3.594  1.6204 -0.1706 -0.4651
 2658SOL     OW14065   2.812   9.622   3.707  0.0146  0.1221 -0.1262
 2658SOL    HW114066   2.753   9.644   3.635  0.4310 -1.1962 -0.9190
 2658SOL    HW214067   2.755   9.591   3.777 -0.2674 -2.1239 -1.2487
 2659SOL     OW14068   2.278   3.502   0.044  0.1466  0.0317 -0.3966
 2659SOL    HW114069   2.232   3.548   0.114  0.4973  1.6543 -1.1999
 2659SOL    HW214070   2.354   3.464   0.087  0.2246  0.8020  0.1639
 2660SOL     OW14071   0.439   0.528   4.711 -0.5109  0.0600  0.7536
 2660SOL    HW114072   0.499   0.494   4.646 -0.7654  0.4069  0.3289
 2660SOL    HW214073   0.353   0.526   4.668 -0.8754 -0.8056  1.4886
 2661SOL     OW14074   2.685   9.545   5.726  0.0687  0.1086  0.5903
 2661SOL    HW114075   2.733   9.627   5.713 -0.5475  0.7519  2.1284
 2661SOL    HW214076   2.602   9.572   5.766 -0.0142 -1.2681  1.4177
 2662SOL     OW14077   4.702   5.750   3.533 -0.0891 -1.0572 -0.3190
 2662SOL    HW114078   4.615   5.721   3.505 -1.3059 -0.6232  2.5706
 2662SOL    HW214079   4.686   5.834   3.576  1.9584 -0.4396 -0.6597
 2663SOL     OW14080   2.899   9.228   7.723  0.6073 -0.1103  0.2832
 2663SOL    HW114081   2.893   9.134   7.739 -0.9824 -0.2801 -1.1008
 2663SOL    HW214082   2.814   9.262   7.750  0.1152  0.4831 -1.8753
 2664SOL     OW14083  10.519   2.718   8.541  0.3551  0.2603 -0.7918
 2664SOL    HW114084  10.485   2.757   8.460 -0.0805  0.7926 -0.3637
 2664SOL    HW214085  10.457   2.745   8.608  0.3109 -0.7922 -0.3980
 2665SOL     OW14086   2.687   9.438   8.173 -0.6585  0.0970 -0.0036
 2665SOL    HW114087   2.595   9.460   8.185 -0.8207  0.3913 -1.6077
 2665SOL    HW214088   2.719   9.421   8.262 -2.5151 -1.1107  0.4881
 2666SOL     OW14089   2.038   5.584   4.722 -0.1096  0.1833 -0.3973
 2666SOL    HW114090   2.076   5.508   4.766 -1.0963  0.5377  1.1459
 2666SOL    HW214091   2.093   5.596   4.644  0.9060 -1.2628  0.0438
 2667SOL     OW14092   5.991   7.035   6.746  0.0102 -0.0927 -0.4288
 2667SOL    HW114093   6.049   7.044   6.671  1.7566  1.3736  1.0123
 2667SOL    HW214094   6.025   7.097   6.811 -0.8904 -1.8909  1.9089
 2668SOL     OW14095   3.839   3.773  10.463 -0.0656  0.1160  0.2913
 2668SOL    HW114096   3.743   3.770  10.455  0.0120 -0.3399 -0.5427
 2668SOL    HW214097   3.870   3.781  10.373  0.7845 -2.9698  0.2011
 2669SOL     OW14098   9.264   3.253   5.170 -0.1693  0.0303  0.3202
 2669SOL    HW114099   9.169   3.263   5.175 -0.7875 -2.4067 -2.9180
 2669SOL    HW214100   9.289   3.304   5.093  1.2593  0.9382  1.3370
 2670SOL     OW14101   1.791   9.963   9.432 -0.6461 -0.3263  0.2368
 2670SOL    HW114102   1.754  10.043   9.397 -0.5288 -0.0295  0.7862
 2670SOL    HW214103   1.841   9.926   9.359 -1.0125 -0.1012 -0.1303
 2671SOL     OW14104  10.344   3.337   2.673  0.2179 -0.0860  0.3332
 2671SOL    HW114105  10.312   3.251   2.644  0.1442  0.1203 -0.2120
 2671SOL    HW214106  10.428   3.318   2.716 -0.1688 -0.5163  0.9006
 2672SOL     OW14107   6.270   0.627   7.663  0.3119 -0.2072  0.2409
 2672SOL    HW114108   6.326   0.616   7.587 -0.3865  0.1394 -0.3346
 2672SOL    HW214109   6.182   0.607   7.632  0.3067 -2.6073  1.5780
 2673SOL     OW14110   8.180   9.805   8.186 -0.4006 -0.2207 -0.1259
 2673SOL    HW114111   8.252   9.843   8.135 -0.0447  0.4084  0.8090
 2673SOL    HW214112   8.159   9.723   8.141 -0.8239  0.8128 -1.8922
 2674SOL     OW14113   3.056   8.131   8.937 -0.0668 -0.3620  0.3713
 2674SOL    HW114114   3.026   8.093   8.855  0.4416 -1.4437  0.6657
 2674SOL    HW214115   3.099   8.058   8.983 -1.9820 -0.3159  2.4252
 2675SOL     OW14116   4.773   8.779   9.204  0.5920 -0.2904  0.0537
 2675SOL    HW114117   4.733   8.695   9.224 -1.5424  0.7065  0.2864
 2675SOL    HW214118   4.790   8.819   9.289 -0.5394  0.4112 -0.0175
 2676SOL     OW14119   9.242   5.067   7.689  0.1805  0.1596 -0.1182
 2676SOL    HW114120   9.337   5.070   7.680  0.1361 -1.4247 -1.4101
 2676SOL    HW214121   9.209   5.090   7.602 -0.6582  1.3643  0.4908
 2677SOL     OW14122   8.638   7.995   4.993 -0.2212  0.2649  0.1853
 2677SOL    HW114123   8.575   7.965   4.927  1.6222 -0.3166 -1.3776
 2677SOL    HW214124   8.704   7.926   4.996  0.2304  0.7219  2.0249
 2678SOL     OW14125   8.773   0.595   7.789  0.7223 -0.3350  0.0990
 2678SOL    HW114126   8.685   0.562   7.772 -0.1464  1.2853  1.0928
 2678SOL    HW214127   8.812   0.531   7.848 -0.3040 -0.4299  0.7015
 2679SOL     OW14128   9.177   8.869   0.854  0.3659  0.4371 -0.5083
 2679SOL    HW114129   9.203   8.791   0.902 -0.9078  0.1987 -0.1738
 2679SOL    HW214130   9.131   8.923   0.919  0.1889  0.9105 -1.0223
 2680SOL     OW14131   1.276   0.876   5.551  0.3935  0.0373 -0.1664
 2680SOL    HW114132   1.264   0.790   5.590  1.1808  0.2217  0.5279
 2680SOL    HW214133   1.257   0.937   5.623 -1.1282  0.4874 -0.9086
 2681SOL     OW14134   4.621   5.391   8.673  0.6116  0.1338  0.1544
 2681SOL    HW114135   4.705   5.423   8.639  0.8983  0.1087  0.8275
 2681SOL    HW214136   4.558   5.460   8.648  1.0158  0.6526  0.5446
 2682SOL     OW14137   0.399  10.053   5.124  0.2183 -0.1952 -0.2313
 2682SOL    HW114138   0.342  10.032   5.050  1.0083 -1.2164 -0.5734
 2682SOL    HW214139   0.423   9.968   5.160 -1.0963  0.2901  1.9672
 2683SOL     OW14140   2.561   8.006   5.800 -0.2927  0.5775  0.0031
 2683SOL    HW114141   2.566   8.099   5.825 -0.8654  1.1059 -1.7536
 2683SOL    HW214142   2.474   7.979   5.828 -0.1747  0.6020  0.4002
 2684SOL     OW14143   2.437   9.359   4.102  0.2188  0.3038  0.1449
 2684SOL    HW114144   2.407   9.351   4.012  0.6576  2.1940 -0.2087
 2684SOL    HW214145   2.453   9.268   4.130  2.5522 -0.2646 -2.5323
 2685SOL     OW14146   0.694   1.106  10.252 -0.5644  0.5634 -0.4056
 2685SOL    HW114147   0.774   1.110  10.303 -0.0550  2.5335 -1.2843
 2685SOL    HW214148   0.629   1.151  10.306 -0.5793  0.7130 -0.5479
 2686SOL     OW14149   8.505   7.968   6.676  0.0226  0.2836 -0.9383
 2686SOL    HW114150   8.587   7.921   6.659  1.7013  1.4394  2.8454
 2686SOL    HW214151   8.436   7.903   6.662  2.0250 -2.4851  1.1894
 2687SOL     OW14152   5.397   0.390   9.161  0.3119 -0.4988 -0.2259
 2687SOL    HW114153   5.444   0.309   9.140  0.0882 -0.5580 -0.5007
 2687SOL    HW214154   5.393   0.391   9.256 -2.6842 -2.5762 -0.1720
 2688SOL     OW14155   8.294   1.954   7.102  0.2216 -0.0539 -0.0492
 2688SOL    HW114156   8.340   1.920   7.179 -0.9211 -2.2784 -0.2983
 2688SOL    HW214157   8.216   1.996   7.138 -0.0119 -0.5687  0.0501
 2689SOL     OW14158   9.414   4.415   7.084 -0.0553 -0.4433 -0.7753
 2689SOL    HW114159   9.476   4.345   7.102 -1.2648 -1.5471 -0.7520
 2689SOL    HW214160   9.331   4.383   7.119 -0.6551  0.9838 -0.8180
 2690SOL     OW14161   9.216   9.656   5.158  0.0492 -0.1379  0.5618
 2690SOL    HW114162   9.135   9.697   5.186  1.4611  2.7261  0.8411
 2690SOL    HW214163   9.219   9.670   5.063  0.3797  0.0929  0.6039
 2691SOL     OW14164   6.041   4.363   5.360 -0.2800  0.3650 -0.3656
 2691SOL    HW114165   6.114   4.301   5.354  1.7634  2.7384 -1.3837
 2691SOL    HW214166   6.005   4.348   5.448 -0.0132 -2.3399 -0.6293
 2692SOL     OW14167   5.852   9.366   9.291  0.4151  0.0121  0.0269
 2692SOL    HW114168   5.818   9.389   9.205  0.7561 -1.0297 -0.4070
 2692SOL    HW214169   5.818   9.433   9.350 -0.2499  0.4376 -0.8309
 2693SOL     OW14170   3.005   3.329   9.927 -0.4014  0.3412  0.6434
 2693SOL    HW114171   2.957   3.257   9.968 -0.1993 -0.2537 -0.1368
 2693SOL    HW214172   3.082   3.287   9.887 -0.9423  0.7807 -0.9177
 2694SOL     OW14173   3.491  10.044   5.024 -0.2318  0.1879 -0.1685
 2694SOL    HW114174   3.439  10.124   5.034 -1.3147 -0.6633  1.3564
 2694SOL    HW214175   3.478  10.019   4.933 -0.4262  1.3734 -0.4851
 2695SOL     OW14176   7.393   4.999   6.630 -0.2408  0.6188 -0.5528
 2695SOL    HW114177   7.483   4.984   6.602 -1.0503 -0.2232 -3.0073
 2695SOL    HW214178   7.383   5.094   6.628  0.8047  0.7701  0.5887
 2696SOL     OW14179   8.015   2.863   2.050  0.4169 -0.2550 -0.5053
 2696SOL    HW114180   7.966   2.943   2.029  0.2283 -0.8195 -2.4073
 2696SOL    HW214181   7.947   2.796   2.061  0.6171 -0.3427  0.2439
 2697SOL     OW14182   8.387   9.813   3.950  0.0605  0.3842  0.3103
 2697SOL    HW114183   8.442   9.750   3.997 -0.7114 -0.1551  0.4942
 2697SOL    HW214184   8.438   9.894   3.952  1.4044 -0.4007 -0.5828
 2698SOL     OW14185   5.419   2.451   0.862  0.1393  0.1246 -0.5013
 2698SOL    HW114186   5.369   2.373   0.886  1.3953 -0.1936  1.2839
 2698SOL    HW214187   5.383   2.520   0.917  1.1323  0.0512  0.2737
 2699SOL     OW14188  10.415   2.954   1.206  0.0495 -0.5238 -0.5736
 2699SOL    HW114189  10.405   3.003   1.287  0.8578 -0.3841 -0.5532
 2699SOL    HW214190  10.454   3.016   1.144  0.3808 -0.9209 -0.7685
 2700SOL     OW14191   2.356  10.636   2.228  0.6001 -0.1438 -0.1747
 2700SOL    HW114192   2.418  10.622   2.300  2.0631  1.0056 -1.1515
 2700SOL    HW214193   2.367  10.559   2.172  1.1938  0.0745 -0.3653
 2701SOL     OW14194   0.778  10.176   3.449  0.0300  0.2785  0.2709
 2701SOL    HW114195   0.855  10.118   3.450  0.3905  0.7402  0.0374
 2701SOL    HW214196   0.706  10.121   3.480  0.2333 -0.4729 -0.5485
 2702SOL     OW14197   6.281  10.889   1.749  0.4867 -0.0759 -0.2027
 2702SOL    HW114198   6.271  10.835   1.671 -0.7872  0.8493 -0.6975
 2702SOL    HW214199   6.296  10.977   1.716  1.3580  0.1014  0.6056
 2703SOL     OW14200   4.247   9.552   5.340  0.0856 -0.2096 -0.1705
 2703SOL    HW114201   4.206   9.555   5.254 -1.5915  0.2553  0.6028
 2703SOL    HW214202   4.202   9.620   5.391 -0.5524 -1.9404  1.7234
 2704SOL     OW14203   3.653   7.181   9.244  0.2444  0.0065  0.1439
 2704SOL    HW114204   3.697   7.140   9.169 -1.8986 -1.6709 -0.2965
 2704SOL    HW214205   3.718   7.242   9.279  1.3948  0.7454 -2.9561
 2705SOL     OW14206   4.138   1.567   3.500  0.2375 -0.0905 -0.0621
 2705SOL    HW114207   4.058   1.516   3.489  0.9290 -2.4113  3.7541
 2705SOL    HW214208   4.109   1.658   3.505 -1.8066 -0.6259 -1.2204
 2706SOL     OW14209   5.678   9.247   7.168  0.3332  0.0443  0.4075
 2706SOL    HW114210   5.621   9.192   7.221  1.0987 -1.8667 -0.6575
 2706SOL    HW214211   5.663   9.336   7.200 -2.6972 -0.4557  0.6385
 2707SOL     OW14212   0.364   5.620   6.232  0.0685 -0.0365  0.4006
 2707SOL    HW114213   0.374   5.672   6.152  0.0414  0.7520  0.8963
 2707SOL    HW214214   0.275   5.639   6.262  0.2981  0.1889  0.9622
 2708SOL     OW14215   6.650   1.260   9.299  0.4222 -0.3057  0.1630
 2708SOL    HW114216   6.592   1.223   9.232  0.1952 -1.5948  1.0353
 2708SOL    HW214217   6.708   1.188   9.323  1.4599  0.5647  0.3210
 2709SOL     OW14218   1.090   5.920   4.209 -0.2758 -0.0458 -0.0998
 2709SOL    HW114219   1.098   5.957   4.297  0.6610  0.5342 -0.4177
 2709SOL    HW214220   1.050   5.989   4.157 -0.0061 -0.0586 -0.3264
 2710SOL     OW14221   5.025   4.376   2.996 -0.1436  0.1148  0.2131
 2710SOL    HW114222   5.101   4.365   3.055  1.4258  1.3460 -1.4741
 2710SOL    HW214223   4.956   4.324   3.037  0.8780  0.8315  3.0848
 2711SOL     OW14224   1.795   8.694   5.928 -0.1321  0.5657 -0.5867
 2711SOL    HW114225   1.872   8.696   5.985 -0.1051  0.5923 -0.6231
 2711SOL    HW214226   1.832   8.689   5.839 -0.1263  2.3370 -0.7140
 2712SOL     OW14227   5.000   1.707   1.729 -0.0781  0.3821  0.0322
 2712SOL    HW114228   4.926   1.749   1.772 -0.5469  0.9818 -1.2882
 2712SOL    HW214229   5.002   1.747   1.642  0.0798 -1.6381 -0.9428
 2713SOL     OW14230  10.210   6.527  10.395  0.0299 -0.1354 -0.2312
 2713SOL    HW114231  10.204   6.489  10.308 -0.0360 -1.0297  0.1450
 2713SOL    HW214232  10.299   6.509  10.424 -0.4512 -1.4278  0.5569
 2714SOL     OW14233   3.519   5.112   8.163 -0.1025 -0.1789  0.3795
 2714SOL    HW114234   3.594   5.055   8.182  0.0680  0.4018  1.5322
 2714SOL    HW214235   3.457   5.056   8.116 -0.5957 -1.7945  2.8011
 2715SOL     OW14236   0.420   7.375   0.478 -0.5290  0.0679 -0.5355
 2715SOL    HW114237   0.475   7.353   0.554 -2.6212  0.2845  1.1445
 2715SOL    HW214238   0.437   7.305   0.415  0.5156 -0.6901  0.5382
 2716SOL     OW14239   2.330   6.287   2.840 -0.3243  0.4159 -0.0354
 2716SOL    HW114240   2.296   6.331   2.918  0.5950 -0.2659  0.7728
 2716SOL    HW214241   2.425   6.286   2.852 -0.2898 -1.5744 -0.1191
 2717SOL     OW14242   8.282   0.288   3.202 -0.4840 -0.5428 -0.1682
 2717SOL    HW114243   8.332   0.294   3.121 -0.3092 -1.9410 -0.1955
 2717SOL    HW214244   8.192   0.304   3.176 -0.2737  0.3401 -0.3968
 2718SOL     OW14245   0.978   1.347   8.725 -0.0854  0.1730  0.2423
 2718SOL    HW114246   0.943   1.259   8.709 -2.5544  1.1836 -0.3054
 2718SOL    HW214247   0.993   1.350   8.820 -0.6253 -0.6056  0.3592
 2719SOL     OW14248   7.792   9.683   7.349  0.5929  0.0602  0.1560
 2719SOL    HW114249   7.882   9.677   7.317  0.5808  2.7281 -0.6298
 2719SOL    HW214250   7.745   9.728   7.280 -0.5644  1.7195  1.9285
 2720SOL     OW14251   0.553   3.347   9.152  0.1596  0.1406  0.0236
 2720SOL    HW114252   0.560   3.259   9.115 -0.5523  0.3547 -0.6279
 2720SOL    HW214253   0.529   3.403   9.078 -1.1240  0.6094  0.7686
 2721SOL     OW14254   9.222   5.301   9.337  0.0417 -0.0678 -0.0086
 2721SOL    HW114255   9.201   5.394   9.334  0.2140 -0.0447 -0.6117
 2721SOL    HW214256   9.192   5.272   9.423  0.0775  0.5662  0.2189
 2722SOL     OW14257   3.374   3.586   4.307  0.0423  0.3642  0.3411
 2722SOL    HW114258   3.402   3.621   4.223  0.1652  1.0762  0.6743
 2722SOL    HW214259   3.387   3.658   4.369  1.0895 -0.5227  1.1923
 2723SOL     OW14260   6.067   9.617   5.293 -0.5333 -0.9475  0.4867
 2723SOL    HW114261   6.057   9.534   5.247 -1.4171 -0.3694 -0.4104
 2723SOL    HW214262   6.144   9.658   5.252 -1.2887 -0.4553 -0.4873
 2724SOL     OW14263   7.637   8.505   8.948 -0.0946 -0.0200  0.2090
 2724SOL    HW114264   7.668   8.416   8.930 -0.6441 -0.2794  0.5197
 2724SOL    HW214265   7.576   8.523   8.877 -2.2540 -1.0360  1.7078
 2725SOL     OW14266   3.251   9.051   2.065  0.1446  0.0032  0.1890
 2725SOL    HW114267   3.191   9.124   2.080 -1.6692 -1.4902  0.4575
 2725SOL    HW214268   3.261   9.047   1.970 -2.4036 -1.3639 -0.1033
 2726SOL     OW14269   8.444   1.423   0.719 -0.2301  0.1508 -0.5549
 2726SOL    HW114270   8.449   1.362   0.645  1.6062  0.9535 -1.1562
 2726SOL    HW214271   8.374   1.388   0.774  0.6192 -2.3846 -0.9618
 2727SOL     OW14272   3.878   8.672   0.488  0.0254 -0.0670  0.3355
 2727SOL    HW114273   3.871   8.736   0.558  2.0719  0.4638  0.1404
 2727SOL    HW214274   3.897   8.725   0.410 -0.4815 -0.7590 -0.2667
 2728SOL     OW14275   0.843  10.079   4.527 -0.0143  0.3200 -0.2385
 2728SOL    HW114276   0.867  10.158   4.575  0.8027 -0.1533  0.1417
 2728SOL    HW214277   0.912  10.016   4.548 -0.6723 -0.5065 -0.5149
 2729SOL     OW14278   1.925   2.773   2.335 -0.1066 -0.3516  0.0209
 2729SOL    HW114279   1.997   2.762   2.397  0.2575 -0.1911 -0.3661
 2729SOL    HW214280   1.849   2.793   2.390  0.0811 -0.7925  0.4505
 2730SOL     OW14281  10.907   3.353   9.409 -0.0963  0.4465  0.1166
 2730SOL    HW114282  10.944   3.289   9.347  0.0583  0.0880  0.5691
 2730SOL    HW214283  10.897   3.433   9.358  1.8241  0.7225  0.0888
 2731SOL     OW14284   0.489   0.916   2.585 -0.7464 -0.5537 -0.9672
 2731SOL    HW114285   0.453   0.985   2.640  1.0244  0.4559 -1.0141
 2731SOL    HW214286   0.540   0.862   2.644 -2.2987 -2.0267 -0.8886
 2732SOL     OW14287   7.202   4.817  10.789 -0.2723  0.1645 -0.1931
 2732SOL    HW114288   7.179   4.735  10.746  0.0475  0.1728 -0.3843
 2732SOL    HW214289   7.296   4.827  10.772 -0.3552  0.6828 -0.3586
 2733SOL     OW14290   4.865   0.792   8.640 -0.0021 -0.1398 -0.3162
 2733SOL    HW114291   4.799   0.754   8.582  1.6228 -3.8915 -0.0163
 2733SOL    HW214292   4.922   0.843   8.582 -0.2963 -1.0565 -1.4394
 2734SOL     OW14293   6.951   6.189   1.826  0.0940 -0.4495  0.4479
 2734SOL    HW114294   6.930   6.130   1.754 -0.0465  0.3011 -0.1405
 2734SOL    HW214295   6.873   6.243   1.837  1.2443  1.6669 -1.0743
 2735SOL     OW14296   9.392   7.396   8.586  0.0581  0.2820 -0.0868
 2735SOL    HW114297   9.396   7.470   8.524 -0.1480  0.2399 -0.1497
 2735SOL    HW214298   9.471   7.346   8.567  0.4103  0.7104  0.2347
 2736SOL     OW14299   9.244   9.836   8.917  0.4999  0.0091 -0.3419
 2736SOL    HW114300   9.270   9.793   8.998 -1.5993 -1.6117 -0.4172
 2736SOL    HW214301   9.202   9.766   8.866 -1.9946  1.8632 -1.0150
 2737SOL     OW14302   8.300   0.017   9.375 -0.4608  0.6614  0.1595
 2737SOL    HW114303   8.374   0.062   9.334 -1.5221  0.9695 -1.4987
 2737SOL    HW214304   8.272   0.077   9.444 -0.1874  1.3000 -0.2741
 2738SOL     OW14305   1.294   0.474   0.868  0.0383  0.0254  0.6447
 2738SOL    HW114306   1.292   0.424   0.786 -1.5003  2.2285 -0.7724
 2738SOL    HW214307   1.207   0.460   0.906 -0.4502  1.5893  0.1797
 2739SOL     OW14308   2.792   2.309   9.721  0.7182 -0.5517 -0.5038
 2739SOL    HW114309   2.858   2.246   9.751  2.8109  2.0958  0.9304
 2739SOL    HW214310   2.767   2.357   9.801 -0.2584  0.8688 -1.6083
 2740SOL     OW14311   9.989   6.337   0.956 -0.0946 -0.4904 -0.0551
 2740SOL    HW114312   9.969   6.289   0.876  0.2555  1.1757 -1.1817
 2740SOL    HW214313   9.906   6.377   0.981  0.4225  1.5790 -1.4165
 2741SOL     OW14314   2.155   6.987   2.834  0.2670 -0.3566  0.4091
 2741SOL    HW114315   2.089   6.995   2.765 -1.6749 -0.8614  2.1187
 2741SOL    HW214316   2.237   6.976   2.787 -0.9127 -0.1837 -1.8228
 2742SOL     OW14317   9.559   8.747  10.170 -0.0350 -0.3520 -0.7544
 2742SOL    HW114318   9.608   8.816  10.215 -3.1661  0.6911  1.3998
 2742SOL    HW214319   9.574   8.669  10.223 -3.4454  0.7982  2.3419
 2743SOL     OW14320   4.075   6.281   4.770  0.4702  0.6510  0.0588
 2743SOL    HW114321   4.072   6.232   4.688  2.2245 -0.0977  0.3935
 2743SOL    HW214322   3.994   6.331   4.771  0.2935  0.4986 -2.0089
 2744SOL     OW14323   4.714   1.639   6.411 -0.1897  0.1472 -0.2980
 2744SOL    HW114324   4.656   1.576   6.369 -0.5852  1.2284 -1.4339
 2744SOL    HW214325   4.798   1.594   6.416 -0.9987 -1.2929  1.0063
 2745SOL     OW14326   7.163   8.065   0.147  0.1758 -0.1904 -0.1709
 2745SOL    HW114327   7.130   8.150   0.175 -0.3014  0.1324 -1.6308
 2745SOL    HW214328   7.257   8.078   0.135  0.5425 -0.5402  1.9097
 2746SOL     OW14329   8.487   0.389   3.743 -0.2856  0.0027  0.0262
 2746SOL    HW114330   8.568   0.343   3.718 -0.2006  0.7190 -1.0661
 2746SOL    HW214331   8.417   0.340   3.700 -0.4665 -0.6825  1.0615
 2747SOL     OW14332   1.700   6.656   5.426 -0.3334 -0.1995 -0.0362
 2747SOL    HW114333   1.735   6.656   5.337 -2.8510  1.0134 -1.1361
 2747SOL    HW214334   1.694   6.748   5.451  0.3711 -0.5196  1.4516
 2748SOL     OW14335   7.682   8.473   0.606  0.7239  0.2106  0.2112
 2748SOL    HW114336   7.740   8.426   0.666  0.1606 -0.2410  0.4263
 2748SOL    HW214337   7.739   8.511   0.540  1.1821 -1.0746 -0.1623
 2749SOL     OW14338   4.766  10.905   1.279  0.0648 -0.5402  0.1189
 2749SOL    HW114339   4.723  10.971   1.225 -0.3385 -0.4387  0.5523
 2749SOL    HW214340   4.769  10.945   1.367  2.5037  0.1417 -0.2068
 2750SOL     OW14341   7.027   4.330   2.272 -0.2248  0.2346 -0.0183
 2750SOL    HW114342   7.099   4.268   2.286 -0.3513 -0.5973 -2.4836
 2750SOL    HW214343   7.059   4.413   2.308  1.8548 -0.2036 -0.6913
 2751SOL     OW14344   9.579  10.701   7.451 -0.2305 -0.3220  0.0282
 2751SOL    HW114345   9.585  10.747   7.534 -0.0801 -0.9483  0.3747
 2751SOL    HW214346   9.670  10.691   7.423 -0.3162  0.5334 -0.5801
 2752SOL     OW14347   2.709   5.419   7.657  0.7242  0.0386 -0.0124
 2752SOL    HW114348   2.748   5.494   7.702  0.1066  0.2122  0.2327
 2752SOL    HW214349   2.778   5.352   7.659  0.4224 -0.2586  1.9331
 2753SOL     OW14350   9.913   4.442   3.685 -0.0574 -0.2612 -0.1372
 2753SOL    HW114351   9.976   4.484   3.744  0.1733  0.1983 -0.6980
 2753SOL    HW214352   9.911   4.499   3.608  1.5868 -2.1734 -1.6909
 2754SOL     OW14353   5.697   7.480   1.437  0.2474 -0.0171  0.0068
 2754SOL    HW114354   5.619   7.440   1.474  1.1392 -2.0413 -0.1108
 2754SOL    HW214355   5.768   7.420   1.461  2.2137  2.8586  2.1107
 2755SOL     OW14356   5.812   7.768   9.230 -0.0120 -0.0590 -0.7142
 2755SOL    HW114357   5.745   7.834   9.217  1.1551  1.7314  1.5631
 2755SOL    HW214358   5.792   7.729   9.315  1.4750  0.1241 -0.2424
 2756SOL     OW14359   2.252   1.749   1.800  0.2679  0.0105  0.7306
 2756SOL    HW114360   2.326   1.806   1.777  0.2832  0.0412  0.8567
 2756SOL    HW214361   2.226   1.708   1.717  0.7546 -0.3904  0.7682
 2757SOL     OW14362   4.192   7.409   7.057 -0.7438 -0.3499  0.4237
 2757SOL    HW114363   4.115   7.382   7.008 -2.1455 -0.4193  2.5383
 2757SOL    HW214364   4.223   7.330   7.100  1.1683 -0.5412 -1.1461
 2758SOL     OW14365   1.116   0.244  10.167 -0.7343 -0.1694  0.1027
 2758SOL    HW114366   1.210   0.243  10.184 -0.4838  0.4806 -1.1313
 2758SOL    HW214367   1.087   0.156  10.192  0.5651 -1.0692 -1.3468
 2759SOL     OW14368   0.192   2.570   2.109 -0.2595 -0.1936 -0.0014
 2759SOL    HW114369   0.246   2.627   2.164 -0.3646  0.6481 -0.7405
 2759SOL    HW214370   0.161   2.502   2.169 -0.4918  0.7666  1.0207
 2760SOL     OW14371   9.064   0.963   8.503  0.7061  0.1775 -0.3806
 2760SOL    HW114372   9.122   0.946   8.576 -0.4629  0.0842  0.5571
 2760SOL    HW214373   8.979   0.927   8.530  0.5445 -1.0731 -2.3126
 2761SOL     OW14374  10.642   9.713  10.692  1.0611 -0.2718 -0.4165
 2761SOL    HW114375  10.708   9.755  10.747  0.0199  0.3884  0.3756
 2761SOL    HW214376  10.629   9.774  10.619 -0.5237  0.9415  0.7846
 2762SOL     OW14377   1.975   0.923   3.365 -0.7613  0.1976 -0.1251
 2762SOL    HW114378   2.043   0.950   3.427 -0.4829  0.2472 -0.4530
 2762SOL    HW214379   1.916   0.868   3.417 -0.3532 -0.0247  0.1031
 2763SOL     OW14380   1.755   4.591   9.998  0.3726  0.0671 -0.0168
 2763SOL    HW114381   1.810   4.543   9.937  1.2921 -1.1691  1.6922
 2763SOL    HW214382   1.797   4.677  10.006 -0.0864  0.4619 -1.4911
 2764SOL     OW14383   4.548   4.643   9.998 -0.4240  0.0524  0.4646
 2764SOL    HW114384   4.613   4.712   9.983  0.4723 -0.9272 -0.2724
 2764SOL    HW214385   4.464   4.686   9.979  0.1145  0.9329 -0.0277
 2765SOL     OW14386   1.714   5.522   7.364  0.3907  0.3606  0.1917
 2765SOL    HW114387   1.640   5.535   7.422  0.5754  1.2787  0.2366
 2765SOL    HW214388   1.717   5.428   7.349 -1.0496  0.3603 -0.1690
 2766SOL     OW14389   4.311   1.486   4.873 -0.2729 -0.2591  0.4748
 2766SOL    HW114390   4.401   1.456   4.887  1.0102  2.6756 -0.8200
 2766SOL    HW214391   4.260   1.438   4.939  2.3593 -1.2827  1.9217
 2767SOL     OW14392   6.134  10.903   8.882 -0.0130 -1.0508 -0.1976
 2767SOL    HW114393   6.055  10.899   8.828  1.2345 -0.8910 -2.0875
 2767SOL    HW214394   6.146  10.813   8.914 -2.1734 -0.6634  2.0447
 2768SOL     OW14395   6.802   6.384   5.487 -0.0519  0.3135 -0.2995
 2768SOL    HW114396   6.735   6.367   5.421 -0.2197 -0.7021  0.1108
 2768SOL    HW214397   6.884   6.353   5.447 -0.1683 -0.3893 -0.0066
 2769SOL     OW14398   9.837   6.636   4.568  0.2796  0.5836  0.5404
 2769SOL    HW114399   9.787   6.580   4.509  0.5413  1.1840 -0.2769
 2769SOL    HW214400   9.919   6.588   4.582 -0.1304  0.0408  1.1190
 2770SOL     OW14401   5.177   9.756   8.338 -0.0120  0.2348  0.2044
 2770SOL    HW114402   5.245   9.737   8.402  0.2610  3.7700  1.1824
 2770SOL    HW214403   5.222   9.803   8.268 -1.1293  0.9336 -0.0670
 2771SOL     OW14404   6.239   7.227   9.482  0.4174  0.0085 -0.2844
 2771SOL    HW114405   6.305   7.165   9.451 -0.2525 -0.9205  0.1275
 2771SOL    HW214406   6.289   7.306   9.503  1.2440 -0.2868 -1.0700
 2772SOL     OW14407  10.150   0.584   4.478  0.1309  0.0783 -0.6365
 2772SOL    HW114408  10.190   0.643   4.543  0.1977 -1.2052  0.5314
 2772SOL    HW214409  10.160   0.497   4.515  0.8866 -0.8017 -2.7823
 2773SOL     OW14410   8.165   0.191   6.442  0.2062 -0.2912  0.2317
 2773SOL    HW114411   8.141   0.270   6.490 -0.2869 -1.3435  1.8224
 2773SOL    HW214412   8.101   0.125   6.472  1.7204 -1.7566  0.3903
 2774SOL     OW14413   1.440   3.452   1.715  0.0533 -0.5301  0.5168
 2774SOL    HW114414   1.512   3.394   1.688  0.7675  0.9455 -0.9543
 2774SOL    HW214415   1.478   3.506   1.784  0.7512  0.9184 -0.9285
 2775SOL     OW14416   0.347   1.814   4.958 -0.4487  0.1594  0.3738
 2775SOL    HW114417   0.413   1.827   4.889  0.1645 -0.2973  0.8603
 2775SOL    HW214418   0.292   1.892   4.953 -0.1565  0.3333 -0.3529
 2776SOL     OW14419   7.534   0.975   4.671  0.3745  0.1733  0.1163
 2776SOL    HW114420   7.443   0.956   4.695  0.3724  2.3278  2.1058
 2776SOL    HW214421   7.535   1.069   4.653  1.7655 -0.2292 -2.2605
 2777SOL     OW14422   5.856   1.669   2.352 -0.0807 -0.1407 -0.2396
 2777SOL    HW114423   5.867   1.732   2.281 -0.8100 -0.0839 -0.3105
 2777SOL    HW214424   5.800   1.601   2.315 -1.9066  0.7398  0.7951
 2778SOL     OW14425   8.693   2.280   8.023 -0.3483  0.3322 -0.0332
 2778SOL    HW114426   8.628   2.216   8.052 -1.4268  1.0002 -0.8875
 2778SOL    HW214427   8.775   2.252   8.064 -0.6196 -1.9956 -0.9330
 2779SOL     OW14428   4.823   7.261   6.683 -0.3370  0.3671  0.3698
 2779SOL    HW114429   4.771   7.306   6.749 -0.0702  0.5739  0.4406
 2779SOL    HW214430   4.784   7.286   6.600 -3.4243 -3.1942  0.4928
 2780SOL     OW14431   1.579   3.931   3.941  0.3588  0.2540  0.3607
 2780SOL    HW114432   1.538   3.960   4.023  0.5102  1.5182  0.0140
 2780SOL    HW214433   1.667   3.969   3.945  0.2363  0.6473 -0.5580
 2781SOL     OW14434   5.519   2.728   4.366 -0.1193  0.3912 -0.6802
 2781SOL    HW114435   5.473   2.676   4.432 -1.2093  0.4445 -1.3639
 2781SOL    HW214436   5.463   2.806   4.354  0.4729  0.7642 -1.0842
 2782SOL     OW14437  10.565   7.717   0.547  1.0024  0.3492  0.4399
 2782SOL    HW114438  10.523   7.762   0.621  0.5557  1.8269 -0.6608
 2782SOL    HW214439  10.657   7.740   0.554  0.6659  2.2238 -0.5701
 2783SOL     OW14440   3.201  10.165   5.932 -0.3250  0.0098 -0.2487
 2783SOL    HW114441   3.181  10.139   5.842  0.1112 -0.7977 -0.1233
 2783SOL    HW214442   3.234  10.085   5.973 -1.3295  0.1457  0.8809
 2784SOL     OW14443   3.605  10.691   4.886  0.2192 -0.0645 -0.5241
 2784SOL    HW114444   3.586  10.700   4.793 -3.5864 -0.1192  0.0583
 2784SOL    HW214445   3.569  10.770   4.926  2.6252  0.4134  0.8842
 2785SOL     OW14446   5.289  10.095   9.037  0.1145 -0.2309 -0.3685
 2785SOL    HW114447   5.250  10.057   8.958  0.1600 -1.8236  0.3293
 2785SOL    HW214448   5.235  10.171   9.056 -1.5953 -1.3642 -0.4297
 2786SOL     OW14449   4.676   0.569   0.546 -0.4799 -0.3697  0.3552
 2786SOL    HW114450   4.651   0.580   0.454 -1.4036 -0.2475  0.6115
 2786SOL    HW214451   4.761   0.525   0.543  0.3938  1.3102 -0.5897
 2787SOL     OW14452  10.074   7.683   0.397  0.7707 -0.8449 -0.3804
 2787SOL    HW114453  10.074   7.599   0.443  0.4873 -0.4929  0.2756
 2787SOL    HW214454   9.982   7.711   0.398  0.8188 -0.6619 -0.8488
 2788SOL     OW14455   2.671   1.889   5.145  0.1685 -1.0507 -0.8964
 2788SOL    HW114456   2.628   1.858   5.065 -2.0490 -1.3904  0.3386
 2788SOL    HW214457   2.600   1.920   5.200  1.7187  0.0006  0.6247
 2789SOL     OW14458   3.010   4.763  10.127  0.1156  0.0759  0.6627
 2789SOL    HW114459   3.059   4.726  10.200 -0.3675  2.1970  2.1531
 2789SOL    HW214460   3.072   4.764  10.054  1.4007  0.1443  1.7273
 2790SOL     OW14461   9.153   3.610   9.494 -0.5948  0.1258  0.1635
 2790SOL    HW114462   9.151   3.663   9.414 -0.7670  0.2796  0.2676
 2790SOL    HW214463   9.087   3.650   9.551  0.6194  0.9913  1.0044
 2791SOL     OW14464   8.379  10.576   0.380  0.6055 -0.8083 -0.2852
 2791SOL    HW114465   8.391  10.670   0.371 -0.6562 -0.6380 -0.3240
 2791SOL    HW214466   8.369  10.545   0.289  0.7021 -0.9359 -0.2525
 2792SOL     OW14467   0.075   7.109   5.488 -0.0506  0.0295  0.0428
 2792SOL    HW114468  -0.020   7.110   5.497  0.0274 -0.8102  1.2429
 2792SOL    HW214469   0.102   7.025   5.525  1.1269  0.0574 -0.6866
 2793SOL     OW14470   9.367  10.799   0.715 -0.1709 -0.0852 -0.1459
 2793SOL    HW114471   9.277  10.767   0.721 -0.6799  1.3748  0.4715
 2793SOL    HW214472   9.416  10.745   0.777 -0.7328 -0.5015 -0.0542
 2794SOL     OW14473   6.539   8.373   3.696 -0.2549 -0.3265 -0.0939
 2794SOL    HW114474   6.633   8.389   3.687 -0.0604 -1.0220  0.5349
 2794SOL    HW214475   6.530   8.278   3.687 -0.9461 -0.2339 -0.4781
 2795SOL     OW14476   4.836   7.082   7.000  0.1906  0.5846 -0.0704
 2795SOL    HW114477   4.799   6.993   7.006 -0.2999  0.7144 -1.0197
 2795SOL    HW214478   4.761   7.137   6.976  0.5888  1.1942  0.0620
 2796SOL     OW14479   7.912   8.829   9.815  0.2091 -0.1525 -0.1083
 2796SOL    HW114480   7.875   8.741   9.821 -0.5688  0.2532  3.9875
 2796SOL    HW214481   7.836   8.887   9.815  0.7494  0.6133 -1.5887
 2797SOL     OW14482   4.173   8.035   8.203  0.1970 -0.4022 -0.3472
 2797SOL    HW114483   4.115   8.024   8.278  0.5842 -0.6536 -0.0814
 2797SOL    HW214484   4.191   7.946   8.173  0.9635 -0.3699 -0.0189
 2798SOL     OW14485   6.263   5.491   9.958  0.0133  0.6071 -0.4221
 2798SOL    HW114486   6.278   5.545   9.881  0.7799 -0.3727 -0.9950
 2798SOL    HW214487   6.345   5.442   9.969 -0.1105  0.6723  0.9779
 2799SOL     OW14488   4.649   8.396   3.018  0.0729 -0.4070 -0.6252
 2799SOL    HW114489   4.596   8.475   3.007  0.7940  0.5451  1.9680
 2799SOL    HW214490   4.739   8.428   3.019  0.4519 -1.4307 -0.6726
 2800SOL     OW14491   1.336   2.988   8.800 -0.1911 -0.2248  0.0466
 2800SOL    HW114492   1.294   3.074   8.807 -0.5878 -0.4426  0.4371
 2800SOL    HW214493   1.362   2.967   8.889  2.1551  0.5663 -0.3793
 2801SOL     OW14494   9.428   0.179   6.132  0.1893  0.2687 -0.1067
 2801SOL    HW114495   9.416   0.086   6.115 -1.1014  0.5097 -0.6044
 2801SOL    HW214496   9.502   0.183   6.192  0.6591 -1.0319 -0.5761
 2802SOL     OW14497   1.038   7.345   6.124 -0.5953  0.2966  0.1440
 2802SOL    HW114498   1.120   7.381   6.091 -0.2510 -0.6328 -0.0622
 2802SOL    HW214499   0.989   7.420   6.156  0.4700  0.8300  0.5671
 2803SOL     OW14500   1.820   3.881   9.155 -0.4443  0.1799  0.0280
 2803SOL    HW114501   1.793   3.930   9.077  1.7195 -1.3116 -1.7784
 2803SOL    HW214502   1.912   3.902   9.166 -0.3049 -0.9372  1.1698
 2804SOL     OW14503   2.443   7.672   0.048  0.8300  0.2710  0.1083
 2804SOL    HW114504   2.475   7.680  -0.042  1.5586 -0.9803  0.2347
 2804SOL    HW214505   2.383   7.746   0.058  0.5705  0.3207 -1.4661
 2805SOL     OW14506   2.034   8.586   9.320  0.2277  0.5581 -0.1069
 2805SOL    HW114507   2.081   8.666   9.343 -0.5319  0.8728  0.4270
 2805SOL    HW214508   2.000   8.602   9.232 -0.3574  1.0477  0.1966
 2806SOL     OW14509   3.088   6.080   0.132 -0.5128  0.0312 -0.5742
 2806SOL    HW114510   3.141   6.089   0.212  0.6473  2.0193 -1.4859
 2806SOL    HW214511   3.129   6.008   0.084 -0.2590 -0.1455 -0.0998
 2807SOL     OW14512   4.613  10.908   2.981 -0.1709 -0.5675  0.2594
 2807SOL    HW114513   4.560  10.965   2.926 -0.2261  0.7974  1.6623
 2807SOL    HW214514   4.579  10.922   3.070  0.6144 -1.9019  0.8041
 2808SOL     OW14515   7.432   7.259   1.405  0.2872  0.2957 -0.3581
 2808SOL    HW114516   7.351   7.306   1.424 -1.2030 -2.2164 -0.1746
 2808SOL    HW214517   7.479   7.316   1.344 -1.6893  1.7030 -0.6508
 2809SOL     OW14518   6.989   8.835   7.362  0.2132  0.2357  0.0696
 2809SOL    HW114519   6.924   8.840   7.292 -1.1596  4.0348  1.3453
 2809SOL    HW214520   7.038   8.916   7.355  3.5377 -1.5535  0.5073
 2810SOL     OW14521   5.118   0.668   8.736  0.2382 -0.0014  0.3703
 2810SOL    HW114522   5.062   0.690   8.662 -1.2830 -1.6569  0.9772
 2810SOL    HW214523   5.170   0.747   8.751 -1.4586  1.3623 -0.6286
 2811SOL     OW14524   3.143   7.652   7.953 -0.4646  0.1514 -0.2325
 2811SOL    HW114525   3.066   7.613   7.912  1.2250 -1.5546 -1.9748
 2811SOL    HW214526   3.167   7.724   7.895  1.1348 -1.4198 -1.6412
 2812SOL     OW14527   8.249   0.729   4.519  0.6955 -0.4128  0.1736
 2812SOL    HW114528   8.203   0.722   4.603  0.6954  0.0020  0.2128
 2812SOL    HW214529   8.218   0.812   4.483  0.8610 -0.4871 -0.1385
 2813SOL     OW14530   8.034   7.994   4.186 -0.5281 -0.0819 -0.0327
 2813SOL    HW114531   8.108   8.012   4.128 -2.6926 -0.2046 -3.1051
 2813SOL    HW214532   8.067   7.930   4.248  1.8961 -0.2631 -1.3608
 2814SOL     OW14533   4.372   8.109  10.271 -0.2064  0.3260  0.3181
 2814SOL    HW114534   4.458   8.145  10.251 -0.3011  2.1983  2.7517
 2814SOL    HW214535   4.315   8.140  10.201  0.9220 -0.2755 -0.8927
 2815SOL     OW14536   6.496   9.394   2.767 -0.3899  0.7176  0.4549
 2815SOL    HW114537   6.410   9.382   2.806 -0.4755  0.7123  0.2638
 2815SOL    HW214538   6.484   9.373   2.674  0.3497 -1.6796  0.8416
 2816SOL     OW14539   9.174   6.835   5.783  0.2702 -0.3719 -0.0176
 2816SOL    HW114540   9.199   6.767   5.721 -2.0074 -0.3029 -1.1182
 2816SOL    HW214541   9.089   6.866   5.752 -1.1955 -0.5892  3.3514
 2817SOL     OW14542   6.842   6.326   1.104  0.0030 -0.2216 -0.1122
 2817SOL    HW114543   6.844   6.285   1.190 -0.5662 -2.0150 -0.9127
 2817SOL    HW214544   6.812   6.258   1.045 -0.0481  1.0898 -1.6869
 2818SOL     OW14545   0.063   2.457   7.278  0.3316  0.0817  0.3879
 2818SOL    HW114546   0.078   2.391   7.346  1.6304 -1.4553 -1.2887
 2818SOL    HW214547   0.136   2.446   7.217 -0.5601  1.6636 -1.0676
 2819SOL     OW14548   1.347   9.376   1.848 -0.2488  0.1095  0.0153
 2819SOL    HW114549   1.436   9.342   1.849  0.2206  1.0482 -2.3921
 2819SOL    HW214550   1.293   9.301   1.821 -0.5617 -0.9589  3.1613
 2820SOL     OW14551   7.488   1.005   0.627 -0.3745 -0.1344 -0.4376
 2820SOL    HW114552   7.449   1.060   0.695 -0.2073 -0.1190 -0.3523
 2820SOL    HW214553   7.434   1.020   0.550 -1.4275 -1.2135  0.0543
 2821SOL     OW14554   3.502   2.934  10.585 -0.6435 -0.2375 -0.5234
 2821SOL    HW114555   3.471   2.860  10.533  0.7004 -0.0205 -1.7025
 2821SOL    HW214556   3.444   3.006  10.561 -2.3158 -0.9738  1.0487
 2822SOL     OW14557   4.135   9.127  10.162 -0.1004 -0.4056  0.1325
 2822SOL    HW114558   4.090   9.192  10.109  0.1788 -1.9599 -2.1260
 2822SOL    HW214559   4.221   9.166  10.180 -0.1991  0.1494 -0.5657
 2823SOL     OW14560   4.757   1.411   9.091  0.5400  0.1692  0.6844
 2823SOL    HW114561   4.746   1.317   9.101 -2.4223  0.5434  1.7291
 2823SOL    HW214562   4.841   1.420   9.046  0.7365 -2.9624  0.2020
 2824SOL     OW14563   0.071   1.333   4.205 -0.6796  0.5150  0.2771
 2824SOL    HW114564   0.026   1.405   4.251  0.7317  0.7053  1.4225
 2824SOL    HW214565   0.000   1.272   4.182 -1.8106  1.8945 -0.0639
 2825SOL     OW14566   5.719   2.511   4.294 -0.2572 -0.2911 -0.0055
 2825SOL    HW114567   5.701   2.604   4.312 -0.5851 -0.4455  0.4716
 2825SOL    HW214568   5.729   2.471   4.381 -0.3741 -0.7545 -0.2033
 2826SOL     OW14569   9.369   3.563   7.222  0.6810  0.0054  0.1910
 2826SOL    HW114570   9.443   3.502   7.233  0.0491 -0.6138  1.1825
 2826SOL    HW214571   9.305   3.513   7.172  0.3794  0.0380  0.5407
 2827SOL     OW14572   3.778   6.062   6.999 -0.0686  0.1688  0.2868
 2827SOL    HW114573   3.768   6.061   6.904 -1.4487 -1.0456  0.4102
 2827SOL    HW214574   3.689   6.059   7.033  0.4160  0.1457  1.6180
 2828SOL     OW14575   7.248   3.682   2.714 -0.1770 -0.2438  0.0663
 2828SOL    HW114576   7.223   3.601   2.758 -1.5089  0.2382  0.2311
 2828SOL    HW214577   7.173   3.705   2.660  0.0224  1.0806  0.3077
 2829SOL     OW14578   6.583   1.495   3.173 -0.0507 -0.2361  0.0951
 2829SOL    HW114579   6.489   1.485   3.189 -0.3400 -1.8565 -2.1833
 2829SOL    HW214580   6.609   1.566   3.231 -2.1949 -1.2420  2.4992
 2830SOL     OW14581   1.044  10.539   6.062 -0.3365 -0.4431 -0.4772
 2830SOL    HW114582   1.033  10.592   5.983  0.4541  0.4829  0.0212
 2830SOL    HW214583   1.138  10.530   6.073 -0.3872  0.2309  0.8472
 2831SOL     OW14584   0.711   9.854   5.918 -0.5072 -0.8195 -0.5650
 2831SOL    HW114585   0.738   9.839   6.008  1.3844 -1.2370 -1.1600
 2831SOL    HW214586   0.730   9.946   5.901  0.0556 -0.9745 -0.8126
 2832SOL     OW14587  10.734   0.955   5.503  0.5323 -0.2976  0.7213
 2832SOL    HW114588  10.829   0.955   5.513  0.5304  2.2598  1.4961
 2832SOL    HW214589  10.719   0.995   5.417  0.1346 -1.4796  0.2178
 2833SOL     OW14590   4.021   6.512   0.623  0.4399  0.3768  0.3415
 2833SOL    HW114591   4.115   6.533   0.624  0.4435  0.4711 -0.7450
 2833SOL    HW214592   3.978   6.595   0.642  0.5575  0.6156 -0.3820
 2834SOL     OW14593   2.691   8.044   8.436  0.3420 -0.0149  0.5784
 2834SOL    HW114594   2.669   8.032   8.528  0.0676 -0.0003  0.5158
 2834SOL    HW214595   2.784   8.021   8.430  0.6854  1.1608  1.0875
 2835SOL     OW14596   5.143   8.914   5.679 -0.2282 -0.3855 -0.1205
 2835SOL    HW114597   5.147   8.822   5.652  0.7457 -0.5088  0.4295
 2835SOL    HW214598   5.209   8.923   5.747 -0.1876  0.7694 -0.2868
 2836SOL     OW14599   5.015   3.566   2.730  0.0223  0.0761 -0.1764
 2836SOL    HW114600   5.024   3.655   2.695 -0.8476 -0.3056 -1.4546
 2836SOL    HW214601   5.094   3.521   2.700 -0.9688 -0.4049 -2.2833
 2837SOL     OW14602   9.683   6.267   9.122 -0.0530  0.2911 -0.1309
 2837SOL    HW114603   9.712   6.187   9.078  2.3823  0.6226  0.6916
 2837SOL    HW214604   9.737   6.336   9.084 -2.4816  1.6971 -1.2099
 2838SOL     OW14605   9.984   0.011   9.606  0.4078  0.8784 -0.0551
 2838SOL    HW114606  10.034   0.008   9.524 -0.3857 -0.6051 -0.5230
 2838SOL    HW214607  10.035   0.069   9.662  1.1442  1.6786 -1.4767
 2839SOL     OW14608   9.995   6.382   5.457  0.3230  0.7013 -0.1392
 2839SOL    HW114609   9.910   6.362   5.417  0.1549  1.1392 -0.0074
 2839SOL    HW214610  10.037   6.443   5.396  0.3394  0.8622  0.0315
 2840SOL     OW14611   3.316   3.942   2.578 -0.4522  0.1786 -0.6200
 2840SOL    HW114612   3.369   3.876   2.533 -0.8309  0.6180 -1.7545
 2840SOL    HW214613   3.255   3.974   2.511 -1.7788  0.0925  0.4936
 2841SOL     OW14614   3.477   1.011   9.462 -0.4307  0.1514  0.0045
 2841SOL    HW114615   3.505   0.950   9.531  2.6793  0.9401 -0.3917
 2841SOL    HW214616   3.398   1.052   9.496  0.1581 -0.5685  2.4181
 2842SOL     OW14617   4.289   9.608   6.502 -0.2693  0.2794  0.3195
 2842SOL    HW114618   4.345   9.676   6.541  0.1888 -0.1184  0.3674
 2842SOL    HW214619   4.200   9.634   6.526 -0.4261  2.5849 -2.2414
 2843SOL     OW14620   0.000  10.442   3.153 -0.7904 -0.5252  0.0259
 2843SOL    HW114621   0.042  10.371   3.201 -1.0175 -1.7499 -1.5087
 2843SOL    HW214622  -0.088  10.410   3.134 -0.6753 -0.1367 -1.2667
 2844SOL     OW14623   8.544   0.501   7.214  0.4749  0.5994  0.3550
 2844SOL    HW114624   8.506   0.414   7.204  2.5813 -0.4070  0.5178
 2844SOL    HW214625   8.635   0.491   7.186  0.1145  3.4412 -2.4035
 2845SOL     OW14626   4.210   3.307   0.932  0.1001 -0.0781  0.2586
 2845SOL    HW114627   4.115   3.316   0.943  0.0249  0.0796 -0.4731
 2845SOL    HW214628   4.220   3.266   0.847  0.7305  1.0890 -0.2513
 2846SOL     OW14629  10.057   1.444   0.309 -0.5656 -0.2100  0.6008
 2846SOL    HW114630  10.115   1.460   0.235 -0.8883  1.6222  0.7177
 2846SOL    HW214631   9.985   1.392   0.273 -1.3194  1.6469 -0.6687
 2847SOL     OW14632   5.610   4.562   6.477 -0.1661 -0.6145 -0.0090
 2847SOL    HW114633   5.578   4.559   6.387 -1.1716 -2.5131  0.3761
 2847SOL    HW214634   5.640   4.473   6.496  1.4343  0.0937  1.0696
 2848SOL     OW14635   3.515  10.694   3.071 -0.0215  0.0621 -0.2769
 2848SOL    HW114636   3.460  10.756   3.118  0.8938  1.2038 -0.6649
 2848SOL    HW214637   3.598  10.695   3.118 -0.0030 -0.9091 -0.2721
 2849SOL     OW14638   4.587   1.217   4.378 -0.3231  0.4026 -0.2298
 2849SOL    HW114639   4.552   1.165   4.450 -1.8759  0.3468 -0.9829
 2849SOL    HW214640   4.682   1.222   4.395 -0.7923  1.6053  2.5723
 2850SOL     OW14641  10.544   6.000   4.039 -0.3824  0.0765  0.5095
 2850SOL    HW114642  10.548   5.920   4.091  0.8319 -0.3339 -0.1912
 2850SOL    HW214643  10.612   6.056   4.076 -1.4249  0.9302  1.1934
 2851SOL     OW14644   8.164   7.024  10.283 -0.0198 -0.4446 -0.0398
 2851SOL    HW114645   8.100   7.089  10.255 -0.0100 -0.4785 -0.1394
 2851SOL    HW214646   8.224   7.073  10.340 -1.2849 -0.8263  1.7150
 2852SOL     OW14647   8.818   9.807   4.452 -0.3031 -0.2243  0.6502
 2852SOL    HW114648   8.784   9.718   4.456  0.5825 -0.6332 -0.3793
 2852SOL    HW214649   8.783   9.850   4.530 -2.0813 -0.9803  0.3209
 2853SOL     OW14650   2.880   1.706   8.763  0.1668 -0.1073  0.4877
 2853SOL    HW114651   2.912   1.674   8.847  0.9178 -0.5697  0.0310
 2853SOL    HW214652   2.897   1.800   8.765 -0.8242  0.0838  1.2847
 2854SOL     OW14653   9.996  10.694   3.979  0.1079  0.3299  0.1762
 2854SOL    HW114654   9.945  10.775   3.983  3.2523  2.5289 -0.2287
 2854SOL    HW214655   9.988  10.656   4.067 -2.5217  0.2742 -0.0228
 2855SOL     OW14656   3.356   8.781   7.399  0.2621  0.2440 -0.4117
 2855SOL    HW114657   3.427   8.803   7.339  0.0635 -0.7631 -1.0338
 2855SOL    HW214658   3.289   8.848   7.382  1.3629  1.7213  0.7862
 2856SOL     OW14659   6.850   6.791   3.154  0.2539 -0.3838  0.1659
 2856SOL    HW114660   6.918   6.738   3.112  1.6839 -1.5418  3.6276
 2856SOL    HW214661   6.773   6.734   3.157  0.0765 -0.2251 -0.9355
 2857SOL     OW14662   9.037   8.056   9.549  0.4019  0.0147 -0.5100
 2857SOL    HW114663   9.062   8.062   9.457  0.7356 -0.2038 -0.4354
 2857SOL    HW214664   9.094   8.119   9.594 -0.5978  1.0256 -0.6115
 2858SOL     OW14665   3.356   1.865   3.066  0.1113  0.2435  0.0647
 2858SOL    HW114666   3.304   1.941   3.043 -1.6371 -0.2907  1.9875
 2858SOL    HW214667   3.335   1.800   2.999 -1.5248  0.1397  0.6473
 2859SOL     OW14668   1.062   2.651   6.075 -0.0881 -0.1382  0.1932
 2859SOL    HW114669   1.083   2.723   6.134 -0.5638 -0.4992  0.8222
 2859SOL    HW214670   1.124   2.659   6.003  0.1102  0.6669  0.4502
 2860SOL     OW14671   6.791   9.826   7.987  0.3790 -0.5930 -0.0723
 2860SOL    HW114672   6.850   9.793   7.918 -0.3742 -0.5888 -0.7328
 2860SOL    HW214673   6.844   9.823   8.067  1.0960 -1.1260 -0.5510
 2861SOL     OW14674   1.594   7.801   1.539  0.4818 -0.2102 -0.0468
 2861SOL    HW114675   1.658   7.840   1.479  0.4826  1.1464  0.8029
 2861SOL    HW214676   1.637   7.721   1.570  0.4237 -1.0372 -1.9315
 2862SOL     OW14677   5.833   9.200   5.165 -0.3943  0.3438  0.0877
 2862SOL    HW114678   5.809   9.114   5.130  1.5534 -0.8141  1.3803
 2862SOL    HW214679   5.911   9.225   5.115 -1.0946  1.5156 -0.4539
 2863SOL     OW14680   6.689   9.559   0.763  0.6409  0.0097  0.0449
 2863SOL    HW114681   6.761   9.607   0.802  0.6732  1.1193 -1.2861
 2863SOL    HW214682   6.723   9.471   0.749  0.5536 -0.4987  2.6003
 2864SOL     OW14683  10.331   0.750   3.243 -0.6593  0.0980  0.2749
 2864SOL    HW114684  10.238   0.770   3.239 -0.5047  0.6551 -1.1231
 2864SOL    HW214685  10.369   0.793   3.166  0.6775 -0.5113  0.5496
 2865SOL     OW14686   3.469   7.015   0.470 -0.7189  0.1061 -0.2492
 2865SOL    HW114687   3.515   7.083   0.520 -1.7008 -0.8305  2.0497
 2865SOL    HW214688   3.440   7.060   0.390 -0.4727  2.1341  0.7371
 2866SOL     OW14689   2.003   7.882   0.491 -0.5488  0.1440 -0.0333
 2866SOL    HW114690   2.040   7.858   0.576 -1.3242 -0.0731  0.2510
 2866SOL    HW214691   1.922   7.831   0.485 -0.6788  0.4250 -0.7492
 2867SOL     OW14692   8.725   3.027   5.457 -0.0179 -0.3687  0.0877
 2867SOL    HW114693   8.737   3.102   5.515  0.9624 -0.5610  0.1614
 2867SOL    HW214694   8.655   3.052   5.397 -0.9774 -0.1187  1.2776
 2868SOL     OW14695  10.034   6.000   7.482 -0.0805  0.1838  0.0616
 2868SOL    HW114696  10.060   6.034   7.567 -2.4701  0.8384  0.6072
 2868SOL    HW214697  10.075   6.059   7.419  0.1236  0.8793  0.8325
 2869SOL     OW14698   1.251   8.893   7.061  0.2912 -0.0658 -0.7708
 2869SOL    HW114699   1.328   8.942   7.089 -1.5157  2.3570  0.3165
 2869SOL    HW214700   1.220   8.939   6.983 -0.1110 -0.9777 -1.1608
 2870SOL     OW14701   4.389   6.037   3.912  0.4971  0.1900  0.0425
 2870SOL    HW114702   4.469   6.017   3.962 -0.2786 -0.1790  1.1746
 2870SOL    HW214703   4.364   5.953   3.873  0.2958  0.1519  0.2500
 2871SOL     OW14704   5.024   0.177   0.536  0.0862 -0.3302  0.1264
 2871SOL    HW114705   5.100   0.120   0.549  0.5425  0.1820 -0.2345
 2871SOL    HW214706   5.058   0.250   0.485 -1.0743 -1.0464 -1.7813
 2872SOL     OW14707   3.255   9.178   4.192  0.3972  0.4734 -0.2535
 2872SOL    HW114708   3.300   9.141   4.116  1.1835  0.5271  0.1739
 2872SOL    HW214709   3.168   9.139   4.190  0.5399  0.1764 -0.9573
 2873SOL     OW14710   1.350   3.349   5.468 -0.0291  0.1660 -0.2174
 2873SOL    HW114711   1.286   3.388   5.409  0.6521 -0.6742 -1.5685
 2873SOL    HW214712   1.391   3.280   5.416 -0.2308 -1.4253  1.6229
 2874SOL     OW14713   3.546   2.609   6.714  0.3707  0.0624  0.3834
 2874SOL    HW114714   3.501   2.678   6.763 -0.6796  1.1249 -1.9043
 2874SOL    HW214715   3.475   2.554   6.680  0.9465  0.1147 -0.9582
 2875SOL     OW14716  10.384   3.838   1.552 -0.0882 -0.7734  0.0611
 2875SOL    HW114717  10.318   3.906   1.537  1.7766  1.5158  1.4835
 2875SOL    HW214718  10.361   3.801   1.637 -0.1204 -0.7043  0.0824
 2876SOL     OW14719   8.457  10.325   7.414 -0.6587 -0.3200  0.3685
 2876SOL    HW114720   8.529  10.351   7.471 -2.7424  2.3116  2.0472
 2876SOL    HW214721   8.461  10.229   7.413  1.7828 -0.3214  1.7375
 2877SOL     OW14722   8.100   2.781   6.245  0.1788 -0.0356 -0.4655
 2877SOL    HW114723   8.051   2.845   6.297 -0.3051 -0.8852  0.1491
 2877SOL    HW214724   8.066   2.792   6.156  1.2228  1.6330 -0.6895
 2878SOL     OW14725   3.513   3.441   0.276  0.8910 -0.4639  0.7875
 2878SOL    HW114726   3.594   3.417   0.320  0.6856 -5.0102 -0.7445
 2878SOL    HW214727   3.522   3.406   0.187 -1.3191  2.3274 -0.7258
 2879SOL     OW14728  10.886   8.529   7.100 -0.6596 -0.5166 -0.0845
 2879SOL    HW114729  10.833   8.589   7.153 -0.1361 -0.9270  0.9148
 2879SOL    HW214730  10.905   8.455   7.158  0.1502 -0.8474 -0.7533
 2880SOL     OW14731   2.951   7.866   1.840 -0.6092  0.3944  0.0550
 2880SOL    HW114732   2.969   7.783   1.883  0.3582 -0.1395 -1.2976
 2880SOL    HW214733   2.861   7.859   1.810 -0.2270 -0.6242 -0.9410
 2881SOL     OW14734   6.611   8.932   9.563 -0.2004  0.3854 -0.5750
 2881SOL    HW114735   6.639   8.979   9.484 -0.7349  3.0606  0.7195
 2881SOL    HW214736   6.531   8.887   9.536  0.9183 -0.8030 -2.1557
 2882SOL     OW14737   6.087   1.861   7.642  0.1188  0.4538 -0.1133
 2882SOL    HW114738   6.099   1.830   7.552 -0.7238 -0.2301 -0.0037
 2882SOL    HW214739   6.170   1.843   7.685 -0.4246 -2.0533  0.0362
 2883SOL     OW14740   4.790   9.789   2.245 -0.0557  0.0245  0.0696
 2883SOL    HW114741   4.861   9.838   2.204 -0.1944 -0.1890 -0.4309
 2883SOL    HW214742   4.809   9.697   2.225 -0.6198 -0.0146 -0.3155
 2884SOL     OW14743   3.154   1.438   9.242  0.4285 -0.6944 -0.4270
 2884SOL    HW114744   3.202   1.520   9.228 -0.5942  0.0227  0.1346
 2884SOL    HW214745   3.115   1.419   9.156 -1.4370  0.8216  0.0124
 2885SOL     OW14746   0.872   4.149   2.039  0.3710 -0.4281 -0.0538
 2885SOL    HW114747   0.877   4.150   1.943 -1.2419  0.6677 -0.1787
 2885SOL    HW214748   0.904   4.236   2.065 -1.0088  0.0205  0.2318
 2886SOL     OW14749   7.195   7.135   1.210  0.3871 -0.1478  0.5282
 2886SOL    HW114750   7.176   7.051   1.168 -0.4412  0.1625  0.2480
 2886SOL    HW214751   7.289   7.147   1.198  0.3164 -0.4873 -0.4576
 2887SOL     OW14752   5.062  10.110  10.375  0.0079  0.2712 -0.4318
 2887SOL    HW114753   5.127  10.051  10.336  1.3961  0.6330  1.1937
 2887SOL    HW214754   5.040  10.069  10.459  0.3523  1.6101  0.3432
 2888SOL     OW14755   7.121   6.795   8.746 -0.1904 -0.0857 -0.2756
 2888SOL    HW114756   7.066   6.719   8.725 -0.5124  0.4778 -1.5825
 2888SOL    HW214757   7.201   6.758   8.782 -1.4570 -0.9338  1.8920
 2889SOL     OW14758  10.561   7.533   1.255  0.3343  0.3976 -0.1576
 2889SOL    HW114759  10.595   7.620   1.233  0.9458  0.3077  0.3703
 2889SOL    HW214760  10.505   7.548   1.331 -1.8124  0.7172 -1.7029
 2890SOL     OW14761   0.425   9.016   9.199  0.3777 -0.1743 -0.0117
 2890SOL    HW114762   0.330   9.015   9.193  0.4246 -1.3187 -0.9449
 2890SOL    HW214763   0.447   9.105   9.225 -0.8252  0.7756 -2.0483
 2891SOL     OW14764   8.814   9.191   7.360  0.9780 -0.5272 -1.0486
 2891SOL    HW114765   8.832   9.220   7.449  1.2939 -0.4291 -1.1429
 2891SOL    HW214766   8.776   9.104   7.370  0.5430 -0.3083 -0.7932
 2892SOL     OW14767   6.775   5.207   9.132  0.5982 -0.2297 -0.6634
 2892SOL    HW114768   6.752   5.292   9.171 -1.1082  0.0129 -2.0764
 2892SOL    HW214769   6.782   5.225   9.039 -0.1703 -1.7204 -1.0266
 2893SOL     OW14770   4.391   9.749   0.061 -0.4494 -0.2229 -0.1999
 2893SOL    HW114771   4.459   9.688   0.089  1.4814  1.1362 -1.6455
 2893SOL    HW214772   4.408   9.761  -0.033 -1.3120  1.8509 -0.1288
 2894SOL     OW14773   8.151   9.703   8.431  0.1467 -0.1197  0.0238
 2894SOL    HW114774   8.168   9.744   8.346  2.8989 -0.8307  0.1412
 2894SOL    HW214775   8.080   9.755   8.468 -1.3299  0.0611 -2.7677
 2895SOL     OW14776   6.773   7.181   9.932 -0.0336 -0.4635 -0.3714
 2895SOL    HW114777   6.689   7.134   9.928 -0.3533  0.1417 -0.7988
 2895SOL    HW214778   6.765   7.237  10.009  0.0992 -0.6186 -0.2426
 2896SOL     OW14779   9.843   0.775   6.149 -0.0789  0.7086 -0.4634
 2896SOL    HW114780   9.756   0.786   6.112 -1.5284 -1.9283  1.7726
 2896SOL    HW214781   9.893   0.731   6.081 -1.9117 -1.7399 -0.3566
 2897SOL     OW14782   1.099   5.085   9.991  0.0277 -0.2619 -0.1975
 2897SOL    HW114783   1.132   5.166  10.030  1.2798 -0.3003 -1.1488
 2897SOL    HW214784   1.072   5.032  10.067  1.5217  0.0428  0.5889
 2898SOL     OW14785   8.834   6.016   0.075  0.5157 -0.4130 -0.1926
 2898SOL    HW114786   8.790   6.035   0.158  0.4724 -1.0680 -0.0552
 2898SOL    HW214787   8.928   6.018   0.097  0.5168 -0.1967 -0.2171
 2899SOL     OW14788   0.684   8.162   1.579  0.2186  0.2112  0.3121
 2899SOL    HW114789   0.607   8.118   1.544 -0.9475  2.4534 -0.1311
 2899SOL    HW214790   0.716   8.216   1.507  2.2519 -0.6872  0.4847
 2900SOL     OW14791  10.715   4.822   9.180 -0.2857  0.0628  0.2165
 2900SOL    HW114792  10.649   4.764   9.142  0.0265  0.1646 -0.4985
 2900SOL    HW214793  10.745   4.876   9.106  1.1074 -0.4581  0.3643
 2901SOL     OW14794   0.613   1.387   1.766 -0.0077 -0.0056  0.0146
 2901SOL    HW114795   0.584   1.449   1.700 -0.3347 -0.6817 -0.4972
 2901SOL    HW214796   0.568   1.413   1.846  0.1914  0.6661 -0.0880
 2902SOL     OW14797   0.790   8.462   2.488 -0.4923  0.5988  0.1694
 2902SOL    HW114798   0.771   8.433   2.577 -0.8177 -0.3066 -0.1821
 2902SOL    HW214799   0.728   8.534   2.472 -0.8147  0.3898  0.4746
 2903SOL     OW14800   1.220   1.221   2.991  0.1352 -0.3127  0.3946
 2903SOL    HW114801   1.291   1.271   2.951  0.4815 -2.9741 -2.7543
 2903SOL    HW214802   1.264   1.145   3.030 -0.6759 -0.0277  1.9289
 2904SOL     OW14803   3.793   2.091   8.020  0.0451  0.1692 -0.0349
 2904SOL    HW114804   3.824   2.121   8.105  0.2083 -0.1601  0.0230
 2904SOL    HW214805   3.872   2.071   7.970 -0.0584 -0.7303  0.1369
 2905SOL     OW14806   6.265   5.981  10.270  0.2167  0.1456 -0.2347
 2905SOL    HW114807   6.276   5.897  10.226 -1.4083 -0.3076  0.1612
 2905SOL    HW214808   6.172   5.986  10.291  0.3066  1.9626 -0.0666
 2906SOL     OW14809   0.210   4.517   6.726 -0.8364 -0.2906 -0.0109
 2906SOL    HW114810   0.145   4.584   6.749  2.5398  3.4881 -0.2784
 2906SOL    HW214811   0.222   4.526   6.632  0.6167 -0.2376  0.1520
 2907SOL     OW14812   4.830   3.592   4.424 -0.0142  0.2068  0.2330
 2907SOL    HW114813   4.764   3.656   4.450 -0.1327  0.2960 -0.2793
 2907SOL    HW214814   4.802   3.510   4.465 -1.8860 -0.3864 -2.0246
 2908SOL     OW14815   4.909   9.613   9.587  0.0294  0.4659 -0.3983
 2908SOL    HW114816   4.986   9.602   9.642 -1.4141 -0.8296  1.4964
 2908SOL    HW214817   4.894   9.708   9.586  2.4363  0.9265 -2.0890
 2909SOL     OW14818   1.106  10.756   1.498  0.0223  0.2961 -0.0414
 2909SOL    HW114819   1.132  10.736   1.588  0.0845  1.7539  0.2832
 2909SOL    HW214820   1.029  10.701   1.483  0.6121 -0.7128  0.5388
 2910SOL     OW14821   2.765   4.279   1.820  0.4889  0.1524  0.4776
 2910SOL    HW114822   2.860   4.276   1.810  0.3701  0.6940 -1.1858
 2910SOL    HW214823   2.748   4.364   1.861  0.6460  0.8533 -0.8507
 2911SOL     OW14824  10.098   6.680   8.388 -0.2295  0.3470 -0.3327
 2911SOL    HW114825  10.002   6.676   8.398 -0.3475 -1.3382 -1.5493
 2911SOL    HW214826  10.112   6.748   8.323 -0.7470 -0.3782 -1.2359
 2912SOL     OW14827   6.573   0.079   0.930  0.1098  0.0987  0.3554
 2912SOL    HW114828   6.558   0.144   0.861  1.8296 -0.1206 -0.2808
 2912SOL    HW214829   6.580  -0.004   0.883  2.5141  0.0954  0.5733
 2913SOL     OW14830   1.700   7.915   0.984 -0.0913  0.1616  0.2999
 2913SOL    HW114831   1.753   7.989   0.955 -1.5366  1.2406  0.2798
 2913SOL    HW214832   1.636   7.903   0.914 -0.4876 -0.4650  0.7598
 2914SOL     OW14833   8.367   1.776   4.261  0.0077 -0.6042 -0.0708
 2914SOL    HW114834   8.438   1.712   4.266  1.0086  0.4744 -0.0986
 2914SOL    HW214835   8.354   1.790   4.167  1.1023  0.6129 -0.0701
 2915SOL     OW14836   4.156   0.909   2.401  0.0561  0.4557 -0.3977
 2915SOL    HW114837   4.201   0.987   2.368  0.4673 -0.1765 -1.3833
 2915SOL    HW214838   4.111   0.939   2.480  0.7897  1.5211 -0.3566
 2916SOL     OW14839   1.429   3.842   5.406  0.5089 -0.1552  0.4601
 2916SOL    HW114840   1.439   3.747   5.402  0.8679 -0.0827 -1.3494
 2916SOL    HW214841   1.511   3.874   5.441 -0.2966 -0.5785  2.9088
 2917SOL     OW14842   3.508   2.738   1.826  0.5357  0.0655 -0.1138
 2917SOL    HW114843   3.567   2.813   1.820  0.6361 -0.1007 -1.6003
 2917SOL    HW214844   3.444   2.752   1.756 -1.0550  0.1062  1.2790
 2918SOL     OW14845   1.073   9.447   1.866 -0.6595  0.0643 -0.1882
 2918SOL    HW114846   1.164   9.477   1.865 -0.5996 -0.1156 -0.2319
 2918SOL    HW214847   1.079   9.354   1.844 -0.6856 -0.3624  1.4501
 2919SOL     OW14848   3.622   8.607   8.153 -0.1364 -0.0694  0.3947
 2919SOL    HW114849   3.708   8.566   8.164 -1.1247 -2.2667  0.5584
 2919SOL    HW214850   3.614   8.621   8.058  1.2564  2.2770  0.5585
 2920SOL     OW14851   8.316   2.518   8.755 -0.4565  0.4129  0.1927
 2920SOL    HW114852   8.224   2.506   8.779 -0.8094  0.8803 -0.8418
 2920SOL    HW214853   8.351   2.429   8.749 -1.1798  0.1599 -0.6063
 2921SOL     OW14854   6.962   0.522   7.968  0.0272 -0.2521  0.1353
 2921SOL    HW114855   6.950   0.427   7.978  0.4215 -0.1630  1.7152
 2921SOL    HW214856   6.877   0.559   7.988  0.1811 -0.2175  0.7532
 2922SOL     OW14857   4.994   2.419   6.172 -0.2759  0.1658  0.0985
 2922SOL    HW114858   5.001   2.333   6.213  0.9388  0.9858  1.7824
 2922SOL    HW214859   5.024   2.406   6.082 -0.3047 -1.2067  0.2763
 2923SOL     OW14860   4.532   5.959   7.479 -0.1052 -0.0552 -0.0988
 2923SOL    HW114861   4.609   5.991   7.526 -0.1511 -0.8731  0.5737
 2923SOL    HW214862   4.536   5.864   7.488 -2.1239 -0.0651  1.5145
 2924SOL     OW14863   9.111   9.050   9.807  0.1620 -0.3590  0.0856
 2924SOL    HW114864   9.058   9.122   9.773  0.3909 -0.6784 -1.0057
 2924SOL    HW214865   9.055   8.973   9.798  1.1029 -0.8714 -2.0156
 2925SOL     OW14866  10.472   9.203  10.002  0.1029 -0.6718 -0.0633
 2925SOL    HW114867  10.510   9.116   9.990  1.2585 -0.1311 -0.6198
 2925SOL    HW214868  10.536   9.250  10.056 -1.4828 -0.7592  2.0011
 2926SOL     OW14869   4.188   4.257   3.410  0.1523  0.3863 -0.0884
 2926SOL    HW114870   4.214   4.282   3.321 -0.4800 -0.5952 -0.5663
 2926SOL    HW214871   4.152   4.169   3.401 -0.5803  0.5460  1.0275
 2927SOL     OW14872   8.790  10.103   5.030  0.2826  0.7941 -0.3436
 2927SOL    HW114873   8.784  10.023   4.977  0.2791 -0.5109  1.5297
 2927SOL    HW214874   8.708  10.149   5.013 -0.9339 -0.9257  0.4994
 2928SOL     OW14875   1.423  10.677   2.626  0.2447 -0.5174  0.5697
 2928SOL    HW114876   1.440  10.748   2.688 -0.6140 -0.7938  1.1379
 2928SOL    HW214877   1.336  10.695   2.592  1.1138  0.2446 -1.4381
 2929SOL     OW14878   3.649   7.889   6.059  0.1797  0.6125  0.0072
 2929SOL    HW114879   3.596   7.918   5.985 -0.9036 -0.5223  0.3169
 2929SOL    HW214880   3.687   7.806   6.031  1.0491  0.9537  0.1447
 2930SOL     OW14881   9.471   5.431   7.291  0.2301  0.4281 -0.1980
 2930SOL    HW114882   9.567   5.427   7.295  0.2727  1.7753  0.9165
 2930SOL    HW214883   9.453   5.478   7.209  0.4548 -0.6997 -0.9260
 2931SOL     OW14884   8.708   2.592  10.772  0.1595 -0.1183  0.0031
 2931SOL    HW114885   8.619   2.612  10.743  0.3484  0.3271 -0.2890
 2931SOL    HW214886   8.702   2.504  10.810 -0.7713  0.6063  1.6308
 2932SOL     OW14887   3.148   3.998   5.064 -0.4348 -0.1338  0.0974
 2932SOL    HW114888   3.185   4.007   5.153 -1.3915  1.9544  0.3431
 2932SOL    HW214889   3.217   3.954   5.015  1.3751  1.3223  1.1757
 2933SOL     OW14890   1.667   5.143   0.321 -0.0152 -0.1021  0.4281
 2933SOL    HW114891   1.684   5.232   0.352  0.6424 -0.6880  1.8321
 2933SOL    HW214892   1.684   5.088   0.397  1.3067 -1.5972 -0.8883
 2934SOL     OW14893   4.577   9.125   9.619 -0.3010 -0.1748  0.1793
 2934SOL    HW114894   4.541   9.208   9.653  0.0643  1.0196 -2.1457
 2934SOL    HW214895   4.668   9.146   9.599 -0.2602 -1.0903 -0.6279
 2935SOL     OW14896   4.407   3.004   5.668 -0.2238 -0.1260 -0.0467
 2935SOL    HW114897   4.456   3.063   5.726 -0.0853  0.6115 -0.8838
 2935SOL    HW214898   4.366   3.063   5.603  0.7899 -1.0187 -1.5524
 2936SOL     OW14899   5.870   3.477   3.880  0.5240  0.0380 -0.2912
 2936SOL    HW114900   5.896   3.559   3.923  0.4432  0.1135 -0.3843
 2936SOL    HW214901   5.819   3.506   3.804  2.3027 -0.0316 -1.5771
 2937SOL     OW14902   6.617   4.421   8.702 -0.2600 -0.5777 -0.0143
 2937SOL    HW114903   6.633   4.370   8.781 -0.6466 -1.4076 -0.4598
 2937SOL    HW214904   6.688   4.398   8.643  0.0177  0.0272  0.0720
 2938SOL     OW14905   3.633   6.868   0.635  0.3785 -0.3763 -0.4849
 2938SOL    HW114906   3.627   6.930   0.708 -0.4462  1.3425 -1.9253
 2938SOL    HW214907   3.563   6.895   0.575  2.8915  0.3673 -3.3864
 2939SOL     OW14908   5.118   4.994   8.379  0.2121  0.8240  0.9722
 2939SOL    HW114909   5.079   5.050   8.446 -0.3472 -0.6529  1.9340
 2939SOL    HW214910   5.051   4.986   8.311  0.7300  2.2192  0.2684
 2940SOL     OW14911   3.970   0.013   2.145  0.1960  0.1439  0.4823
 2940SOL    HW114912   3.966   0.107   2.161 -0.6591  0.5784 -1.8926
 2940SOL    HW214913   3.885  -0.009   2.107  0.9734 -1.2285 -0.5718
 2941SOL     OW14914   1.195   8.615   6.141  0.1223 -0.0476  0.4058
 2941SOL    HW114915   1.148   8.534   6.121  0.1122 -0.4408  1.8674
 2941SOL    HW214916   1.231   8.600   6.229  1.4440  0.9380  0.0599
 2942SOL     OW14917   6.838  10.465   7.814 -0.4379 -0.1365 -0.7246
 2942SOL    HW114918   6.910  10.404   7.829 -0.3776 -0.0537 -0.6787
 2942SOL    HW214919   6.863  10.512   7.735 -0.9861 -0.9073 -1.3780
 2943SOL     OW14920   9.949   8.866   4.353  0.2733  0.5644 -0.2488
 2943SOL    HW114921   9.963   8.943   4.298  0.8497 -0.7565 -2.0441
 2943SOL    HW214922  10.008   8.800   4.317 -0.3455 -0.7805  1.1142
 2944SOL     OW14923   2.434   6.942   5.067 -0.4585 -0.7793 -0.2123
 2944SOL    HW114924   2.486   7.004   5.015  1.1119 -1.9511 -0.1167
 2944SOL    HW214925   2.444   6.973   5.158  3.7270 -3.2538  0.4225
 2945SOL     OW14926   9.358   2.907   3.809 -0.0151  0.2234 -0.4946
 2945SOL    HW114927   9.382   2.893   3.718 -2.6286 -0.1969 -1.1975
 2945SOL    HW214928   9.390   2.995   3.829  1.7312 -0.1807 -1.3669
 2946SOL     OW14929   4.446   1.711   9.026  0.1777 -0.4757 -0.2536
 2946SOL    HW114930   4.494   1.759   9.093  0.4154 -0.3051 -0.5420
 2946SOL    HW214931   4.375   1.770   9.000  0.0245 -0.5836 -0.0788
 2947SOL     OW14932   3.326   4.338   0.249  0.1510  0.2094 -0.5295
 2947SOL    HW114933   3.260   4.314   0.313 -1.5158  1.2610 -1.7544
 2947SOL    HW214934   3.408   4.301   0.282 -1.1043 -1.4386  0.8647
 2948SOL     OW14935  10.307   0.386   4.970  0.1618 -0.2201  0.2393
 2948SOL    HW114936  10.294   0.294   4.991  0.6525 -0.1986  0.6714
 2948SOL    HW214937  10.395   0.390   4.933  0.1280  0.0711  0.1858
 2949SOL     OW14938  10.393   3.337   4.876  0.1777 -0.3324  0.6983
 2949SOL    HW114939  10.339   3.398   4.924 -0.1428 -1.2849  1.5831
 2949SOL    HW214940  10.331   3.277   4.834  0.5203 -1.5032  1.8190
 2950SOL     OW14941   1.077   2.355   7.478 -0.5269  0.4328 -0.2259
 2950SOL    HW114942   1.022   2.431   7.462 -0.2475  0.6328 -0.2390
 2950SOL    HW214943   1.047   2.289   7.415 -2.3925 -0.3214  1.3615
 2951SOL     OW14944   4.042  10.705   8.031  0.7908  0.2963 -0.0545
 2951SOL    HW114945   4.114  10.726   8.091  0.7483  2.0112 -0.5425
 2951SOL    HW214946   3.970  10.762   8.059  0.2965  0.0794 -0.8465
 2952SOL     OW14947   4.292   3.522   9.707 -0.5025  0.3257  0.2620
 2952SOL    HW114948   4.260   3.552   9.793 -0.6591  1.0867 -0.0549
 2952SOL    HW214949   4.214   3.492   9.661 -0.4351  0.0387  0.3293
 2953SOL     OW14950   5.296   9.163   0.229  0.8279 -0.4666 -0.3739
 2953SOL    HW114951   5.301   9.210   0.313  1.2591 -0.6647 -0.2843
 2953SOL    HW214952   5.357   9.211   0.172  2.0725 -1.5270  0.0259
 2954SOL     OW14953   1.425   0.447   2.928 -0.6107  0.4211 -0.8002
 2954SOL    HW114954   1.348   0.499   2.949  0.2604  0.6228  2.3529
 2954SOL    HW214955   1.391   0.358   2.914 -1.4934  0.6385 -0.0931
 2955SOL     OW14956   3.268   4.815   6.419 -0.1871 -0.1223  0.0004
 2955SOL    HW114957   3.318   4.840   6.496 -0.4482 -1.9237  0.8240
 2955SOL    HW214958   3.312   4.736   6.387 -2.0842 -1.4194  0.4066
 2956SOL     OW14959  10.408   3.287  10.036 -0.2072 -0.1329  0.5617
 2956SOL    HW114960  10.371   3.220  10.094  1.1393 -0.6720  0.8279
 2956SOL    HW214961  10.413   3.366  10.090 -1.2252  0.0344  0.4305
 2957SOL     OW14962   0.270   1.874   4.652  0.2287 -0.9695  0.2077
 2957SOL    HW114963   0.289   1.940   4.586  1.3312  0.4880  1.8949
 2957SOL    HW214964   0.356   1.847   4.685 -0.2852 -1.6665  1.0416
 2958SOL     OW14965   5.210  10.421   0.417  0.0446 -0.0469 -0.0344
 2958SOL    HW114966   5.192  10.327   0.407  0.5384 -0.3641  1.7510
 2958SOL    HW214967   5.126  10.464   0.401 -1.0650 -1.0766  2.5133
 2959SOL     OW14968   0.012   7.224   9.509  0.0458  0.2823 -0.4561
 2959SOL    HW114969   0.016   7.267   9.423  0.5378 -0.7695 -0.9775
 2959SOL    HW214970   0.100   7.234   9.545 -0.6334  2.4307  0.8325
 2960SOL     OW14971   4.060   9.727   5.876  0.4287 -0.0398 -0.2730
 2960SOL    HW114972   4.070   9.644   5.921 -1.6858  0.4787  1.3208
 2960SOL    HW214973   4.094   9.792   5.938 -1.7927  0.6099  0.3717
 2961SOL     OW14974  10.456  10.528   3.606 -0.8511  0.2439 -0.2256
 2961SOL    HW114975  10.443  10.500   3.696 -0.7270  0.9656  0.0243
 2961SOL    HW214976  10.388  10.594   3.591  0.3236  1.5499 -0.0116
 2962SOL     OW14977   6.088   2.368  10.785  0.1222  0.2121 -0.2225
 2962SOL    HW114978   6.028   2.337  10.853 -0.6027 -0.6326 -1.1994
 2962SOL    HW214979   6.162   2.307  10.789 -0.5291 -0.6587 -1.0362
 2963SOL     OW14980   2.414   4.151   5.859 -0.1672 -0.0788 -0.2586
 2963SOL    HW114981   2.478   4.195   5.915 -0.6867  0.4973 -0.0998
 2963SOL    HW214982   2.466   4.098   5.800  0.5552  1.5242 -1.1210
 2964SOL     OW14983   4.808   4.221   7.776 -0.0027 -0.1887 -0.2862
 2964SOL    HW114984   4.899   4.239   7.751 -0.7483  0.7104 -2.5565
 2964SOL    HW214985   4.778   4.303   7.816 -0.6563  0.5995 -2.2761
 2965SOL     OW14986  10.646  10.719   5.119 -0.4025  0.0200  0.3657
 2965SOL    HW114987  10.624  10.785   5.184 -1.9766 -1.0444  0.9851
 2965SOL    HW214988  10.571  10.659   5.120  1.2987 -2.2062  0.3924
 2966SOL     OW14989   7.490   9.950   2.548 -0.0367 -0.4654 -0.7631
 2966SOL    HW114990   7.422   9.892   2.583  0.5043 -1.7828 -1.8181
 2966SOL    HW214991   7.514   9.912   2.464  3.2045 -1.1053  0.2641
 2967SOL     OW14992   3.414   3.863   8.760 -0.5740 -0.2485 -0.0235
 2967SOL    HW114993   3.505   3.884   8.781 -1.1526  1.2726  1.1160
 2967SOL    HW214994   3.391   3.793   8.820  0.1438 -1.4285 -1.0718
 2968SOL     OW14995   5.670   7.866   3.884 -0.0241 -0.3204  0.3334
 2968SOL    HW114996   5.609   7.809   3.931  0.8273 -1.0330  0.6186
 2968SOL    HW214997   5.712   7.809   3.820  0.7111  0.0273  0.4917
 2969SOL     OW14998   6.507   3.975   5.995 -0.1326  0.1964  0.0441
 2969SOL    HW114999   6.601   3.972   6.011  0.0028  0.6049 -0.6185
 2969SOL    HW215000   6.483   3.885   5.973  0.1056  0.0917  0.2133
 2970SOL     OW15001   5.775   8.429   9.218  0.2125 -0.6197 -0.3916
 2970SOL    HW115002   5.842   8.373   9.179 -0.3057 -0.9975 -0.7482
 2970SOL    HW215003   5.779   8.510   9.168  1.1063 -0.2504  0.2579
 2971SOL     OW15004   1.140   1.489   2.050  0.4432 -0.1807  0.0727
 2971SOL    HW115005   1.068   1.450   2.100  0.6473 -0.1723  0.3800
 2971SOL    HW215006   1.206   1.509   2.116  1.3138 -1.4755 -0.3753
 2972SOL     OW15007   5.298   2.390   7.900  0.3118  0.6667  0.0084
 2972SOL    HW115008   5.383   2.421   7.869  0.8395 -2.1381 -1.7267
 2972SOL    HW215009   5.234   2.439   7.850  1.1087 -0.8062 -2.6279
 2973SOL     OW15010   5.576   8.474   8.404  0.0033  0.1440  0.2862
 2973SOL    HW115011   5.509   8.414   8.436 -0.2194  0.1912 -0.0991
 2973SOL    HW215012   5.655   8.449   8.454 -0.3718  0.3089  0.9730
 2974SOL     OW15013   4.861   0.874   1.997 -0.1391  0.1014 -0.3644
 2974SOL    HW115014   4.787   0.846   2.051 -0.7061  3.3152  0.7322
 2974SOL    HW215015   4.832   0.856   1.907 -1.5904 -0.1639  0.1159
 2975SOL     OW15016   7.272   0.702   1.821  0.0468 -0.0688 -0.5156
 2975SOL    HW115017   7.320   0.673   1.898  1.1146 -0.5847 -1.3422
 2975SOL    HW215018   7.289   0.634   1.755 -1.3182  0.0522 -1.0322
 2976SOL     OW15019   0.801   2.964   6.708  0.3863 -0.4468 -0.5620
 2976SOL    HW115020   0.897   2.963   6.708  0.4007 -1.3264  0.4170
 2976SOL    HW215021   0.777   2.972   6.616  1.3770  1.8837 -0.6975
 2977SOL     OW15022   3.457   4.395   7.378 -0.2748 -0.2295 -0.2240
 2977SOL    HW115023   3.468   4.412   7.284  0.0075 -1.2540 -0.3878
 2977SOL    HW215024   3.363   4.408   7.394 -0.2853  0.1797 -0.5937
 2978SOL     OW15025   1.121   5.705  10.222 -0.4318  0.4634 -0.1947
 2978SOL    HW115026   1.159   5.725  10.136  2.6062 -0.1710  0.8576
 2978SOL    HW215027   1.093   5.790  10.256  0.7253  1.1184 -0.7986
 2979SOL     OW15028   1.705   8.148   6.833  0.1540 -0.2679  0.1300
 2979SOL    HW115029   1.659   8.100   6.764  0.4399  0.1349 -0.3560
 2979SOL    HW215030   1.650   8.224   6.850  2.1864  2.1889 -2.9856
 2980SOL     OW15031  10.855   7.289   9.036  0.0115  0.2972  0.0943
 2980SOL    HW115032  10.766   7.267   9.064 -0.0749  1.2285  0.5985
 2980SOL    HW215033  10.846   7.314   8.944  0.3815 -3.3285 -1.0515
 2981SOL     OW15034   3.909   8.275   3.318  0.1498 -0.4006 -0.2553
 2981SOL    HW115035   3.912   8.241   3.229 -0.4685  0.3290 -0.5617
 2981SOL    HW215036   3.942   8.203   3.372  0.6177 -0.8169 -1.0746
 2982SOL     OW15037   3.349   3.745   2.393 -0.5382 -0.8452  0.7440
 2982SOL    HW115038   3.290   3.775   2.324  0.5185 -0.4085  0.0039
 2982SOL    HW215039   3.372   3.655   2.368  1.2846 -0.0955 -0.5379
 2983SOL     OW15040   4.663   3.923   9.325 -0.0284 -0.2068  0.4903
 2983SOL    HW115041   4.658   4.015   9.350 -0.5748 -0.6030  1.9276
 2983SOL    HW215042   4.676   3.876   9.407 -1.3540 -1.5389 -0.0104
 2984SOL     OW15043   3.064   3.890   9.395 -0.0602 -0.0922 -0.4294
 2984SOL    HW115044   3.031   3.905   9.484 -2.0060 -2.3304 -0.6806
 2984SOL    HW215045   3.101   3.974   9.369 -0.5540  0.9728  2.0451
 2985SOL     OW15046   9.648   3.019   5.738 -0.0290  0.5242  0.3222
 2985SOL    HW115047   9.732   2.979   5.760 -0.9575 -0.0237  3.2050
 2985SOL    HW215048   9.659   3.112   5.757 -0.2442  0.3488  1.3490
 2986SOL     OW15049   9.853   2.936   8.421 -0.3568 -0.1308 -0.3468
 2986SOL    HW115050   9.767   2.896   8.409 -0.6965  0.4586  0.0635
 2986SOL    HW215051   9.902   2.910   8.343 -0.8432 -0.6229 -0.5020
 2987SOL     OW15052   3.862   1.113   3.810 -0.1331 -0.1194 -0.8490
 2987SOL    HW115053   3.928   1.050   3.781  1.4473  1.5463 -1.0535
 2987SOL    HW215054   3.815   1.067   3.880  2.1386 -0.9383  0.2598
 2988SOL     OW15055   6.575  10.744   6.910  1.0655  0.5927 -0.0833
 2988SOL    HW115056   6.579  10.827   6.864 -0.5845  0.4820 -0.5147
 2988SOL    HW215057   6.640  10.751   6.980  2.4150  1.4144 -1.3782
 2989SOL     OW15058   4.473   4.782   1.211  0.5438  0.0326  0.3985
 2989SOL    HW115059   4.438   4.794   1.299 -2.5725  0.4419 -0.7634
 2989SOL    HW215060   4.501   4.869   1.183  0.2063  0.1751  0.4995
 2990SOL     OW15061  10.851  10.419   2.638 -0.1716 -0.2089 -0.3618
 2990SOL    HW115062  10.907  10.415   2.560  0.3431  1.5974 -0.1304
 2990SOL    HW215063  10.865  10.507   2.673 -2.2520 -0.1267  0.3903
 2991SOL     OW15064   7.312   1.633  10.231  0.4494  0.0652  0.0754
 2991SOL    HW115065   7.362   1.674  10.160 -1.2829  2.3828  0.0671
 2991SOL    HW215066   7.224   1.624  10.196  0.6541 -3.7975  0.1349
 2992SOL     OW15067   2.569   2.057   8.286  0.0368 -0.4008 -0.2738
 2992SOL    HW115068   2.650   2.025   8.325  0.9511  1.5169 -0.4883
 2992SOL    HW215069   2.503   2.046   8.355  0.7112 -0.9137  0.3070
 2993SOL     OW15070   5.137   6.741   2.363  0.6600  0.1629  0.4902
 2993SOL    HW115071   5.050   6.779   2.352  1.2423  1.4268  0.1269
 2993SOL    HW215072   5.141   6.672   2.296  0.6947  1.4985 -0.9335
 2994SOL     OW15073   2.643  10.260   8.521 -0.2800 -0.7194  0.1478
 2994SOL    HW115074   2.684  10.306   8.447 -1.1427 -0.3032 -0.0870
 2994SOL    HW215075   2.706  10.193   8.546 -0.0447 -0.9880 -1.0904
 2995SOL     OW15076   7.971   1.596   9.999  0.4603 -0.3562 -0.2186
 2995SOL    HW115077   7.965   1.501  10.004 -1.0147 -0.2951 -0.3002
 2995SOL    HW215078   8.003   1.623  10.085  0.1606 -0.8814  0.0604
 2996SOL     OW15079   7.679   9.770   6.398 -0.2655  0.0242 -0.1358
 2996SOL    HW115080   7.765   9.752   6.435  0.1767  0.7882 -0.7497
 2996SOL    HW215081   7.670   9.710   6.325 -1.0097 -1.2707  0.9666
 2997SOL     OW15082   3.845   9.664   4.451 -0.3685 -0.4620 -0.7611
 2997SOL    HW115083   3.810   9.717   4.380 -0.0506  1.5128  0.4832
 2997SOL    HW215084   3.902   9.600   4.407 -0.0954  0.7513 -2.2852
 2998SOL     OW15085   1.771   3.265   6.218 -0.2493  0.1190  0.2504
 2998SOL    HW115086   1.816   3.284   6.136  0.8042 -0.4993  0.6626
 2998SOL    HW215087   1.678   3.265   6.195 -0.0367  1.0218 -0.7063
 2999SOL     OW15088   3.236   5.550  10.116  0.1307 -0.1637  0.7777
 2999SOL    HW115089   3.293   5.621  10.088 -0.5252  0.5702  1.2880
 2999SOL    HW215090   3.177   5.589  10.179 -0.9010 -0.9263  0.3217
 3000SOL     OW15091  10.302   3.128   6.852 -0.0471  0.2014  0.2147
 3000SOL    HW115092  10.263   3.049   6.816 -1.8169  1.3557 -0.5631
 3000SOL    HW215093  10.388   3.135   6.811 -0.6481 -0.3277 -1.1689
 3001SOL     OW15094   1.234   6.508   0.143  0.4672  0.2873 -0.0579
 3001SOL    HW115095   1.185   6.496   0.225 -1.5311  3.1530 -0.6874
 3001SOL    HW215096   1.225   6.425   0.097 -0.2746 -0.6339  1.6674
 3002SOL     OW15097   0.780   0.617   9.288 -0.1636 -0.6763  0.3174
 3002SOL    HW115098   0.734   0.699   9.299 -0.5088 -0.7430 -0.5513
 3002SOL    HW215099   0.805   0.615   9.195  1.5424 -0.6653  0.7420
 3003SOL     OW15100   0.983   0.760   6.386 -0.1893  0.1355  0.2966
 3003SOL    HW115101   0.970   0.729   6.476 -0.0818 -1.4583 -0.1992
 3003SOL    HW215102   0.930   0.839   6.380  0.9496  1.1193  2.1776
 3004SOL     OW15103   2.982   8.345   0.321  0.2140 -0.6720 -0.1027
 3004SOL    HW115104   2.927   8.398   0.264 -0.5250 -0.0576  1.1370
 3004SOL    HW215105   3.049   8.405   0.353 -1.8013  0.2079  2.9222
 3005SOL     OW15106   1.976   9.564   1.987  0.5586 -0.6117  0.5022
 3005SOL    HW115107   1.997   9.504   2.058  1.8573 -1.2384 -0.3675
 3005SOL    HW215108   1.946   9.508   1.916  0.5177 -0.1216  0.1258
 3006SOL     OW15109   1.260   9.738   5.661 -0.3537  0.2233 -0.4814
 3006SOL    HW115110   1.306   9.710   5.581  1.6613 -0.6360  0.8995
 3006SOL    HW215111   1.168   9.730   5.639  0.1352 -1.3038 -2.2986
 3007SOL     OW15112   1.216   3.098   5.004 -0.0571  0.0822 -0.1323
 3007SOL    HW115113   1.267   3.071   4.928  0.2370  2.9759 -1.0929
 3007SOL    HW215114   1.142   3.147   4.967 -0.1515  1.1724  1.3914
 3008SOL     OW15115   9.158   7.838   5.765  0.0811 -0.7462  0.0184
 3008SOL    HW115116   9.072   7.817   5.802 -0.0218 -1.1639 -0.4471
 3008SOL    HW215117   9.196   7.901   5.826 -0.5752 -0.5245  0.2060
 3009SOL     OW15118   1.972   4.185   6.575 -0.0552  0.0995 -0.2980
 3009SOL    HW115119   1.952   4.265   6.526  1.7353 -0.5507 -2.2355
 3009SOL    HW215120   2.065   4.192   6.597 -0.1382 -0.9492  0.4887
 3010SOL     OW15121   4.073  10.546   7.817  0.1180 -0.1301 -0.0183
 3010SOL    HW115122   4.002  10.557   7.754 -0.0569 -1.0414  0.0082
 3010SOL    HW215123   4.051  10.605   7.889  0.4008  1.0462 -0.8643
 3011SOL     OW15124   5.071   1.268   1.150 -0.0559 -0.1689  1.6465
 3011SOL    HW115125   5.163   1.268   1.121 -0.7253 -0.7974 -0.6440
 3011SOL    HW215126   5.027   1.207   1.091 -2.4985  2.2429  0.7851
 3012SOL     OW15127   8.460   9.067   7.174  0.2988  0.3038  0.2576
 3012SOL    HW115128   8.445   9.100   7.262 -0.8110  0.9275 -0.1467
 3012SOL    HW215129   8.551   9.039   7.174  0.5796  1.1698  1.3167
 3013SOL     OW15130   4.859   6.885   5.738 -0.0322  0.0148 -0.2318
 3013SOL    HW115131   4.824   6.796   5.746  1.1800 -0.5780 -1.2959
 3013SOL    HW215132   4.795   6.932   5.684 -0.5037 -0.2942  0.0527
 3014SOL     OW15133  10.782  10.122   7.864 -0.4488  0.0078  0.2718
 3014SOL    HW115134  10.846  10.137   7.934  0.1587 -0.3806 -0.1867
 3014SOL    HW215135  10.781  10.204   7.815 -1.2544  0.4589  1.0272
 3015SOL     OW15136   2.161  10.031   2.548 -0.1410 -0.6886  0.5405
 3015SOL    HW115137   2.080  10.029   2.598  0.5196 -0.1888  1.6620
 3015SOL    HW215138   2.227  10.061   2.610  0.5728  0.6959 -0.8264
 3016SOL     OW15139   0.401   0.592   6.958 -1.0536  0.0000 -0.5952
 3016SOL    HW115140   0.409   0.501   6.987  1.9544 -0.3412 -2.0697
 3016SOL    HW215141   0.359   0.587   6.872 -0.7348 -0.0454 -0.7519
 3017SOL     OW15142   5.338   1.284   6.678 -0.2563 -0.2598 -0.2940
 3017SOL    HW115143   5.339   1.206   6.623 -0.6599 -1.6084  1.4976
 3017SOL    HW215144   5.324   1.357   6.618 -0.9841 -1.6764 -1.9114
 3018SOL     OW15145   8.014   6.864   9.078  0.3285  0.3820  1.0480
 3018SOL    HW115146   8.013   6.808   9.155  0.0100 -0.3679  0.5136
 3018SOL    HW215147   7.970   6.812   9.010 -0.8727  1.6670  0.8047
 3019SOL     OW15148  10.566   3.631   7.555 -0.1561 -0.2700  0.2015
 3019SOL    HW115149  10.484   3.587   7.531 -0.4163 -0.8555  2.0051
 3019SOL    HW215150  10.601   3.663   7.472 -3.2908  1.9687 -0.4206
 3020SOL     OW15151   3.777   7.265   2.760  0.7840  0.2603 -0.0529
 3020SOL    HW115152   3.723   7.190   2.735  0.7745  0.1777  0.2049
 3020SOL    HW215153   3.843   7.228   2.820 -1.0620  0.9145  2.5584
 3021SOL     OW15154  10.446   9.747   7.296 -0.5086 -0.3659  0.1632
 3021SOL    HW115155  10.477   9.677   7.354 -0.6704 -0.4113  0.1942
 3021SOL    HW215156  10.425   9.819   7.355 -1.9686 -0.8745  0.2937
 3022SOL     OW15157   6.656   6.231   8.430 -0.2856  0.3272 -0.1636
 3022SOL    HW115158   6.599   6.304   8.407 -1.4651 -1.2412 -2.6907
 3022SOL    HW215159   6.733   6.243   8.374 -0.0781  0.1342  0.0835
 3023SOL     OW15160   1.713   3.602   3.870 -0.2228  0.4498  0.2244
 3023SOL    HW115161   1.739   3.639   3.786  0.8147 -0.4243  0.1367
 3023SOL    HW215162   1.618   3.598   3.867 -0.1953  0.4827 -0.8896
 3024SOL     OW15163   8.276   0.686   6.056 -0.0666 -0.0634  0.0459
 3024SOL    HW115164   8.235   0.762   6.014 -0.1737  0.7582  1.5673
 3024SOL    HW215165   8.369   0.708   6.058 -0.0277 -0.2246  0.0054
 3025SOL     OW15166   3.432   4.489   2.533 -0.1706  0.2564 -0.5582
 3025SOL    HW115167   3.515   4.499   2.487  0.0946 -2.0716 -0.6763
 3025SOL    HW215168   3.367   4.480   2.464 -0.3403  0.7178 -0.4623
 3026SOL     OW15169   0.771   1.137   9.086  0.1481  0.3110 -0.4267
 3026SOL    HW115170   0.693   1.181   9.051 -1.4030  0.2476  2.6034
 3026SOL    HW215171   0.827   1.207   9.117  0.7713  0.3066 -1.4906
 3027SOL     OW15172   8.413  10.198   6.924 -0.0890  0.3026  0.0627
 3027SOL    HW115173   8.447  10.196   7.014 -0.6788  0.5556  0.2929
 3027SOL    HW215174   8.388  10.107   6.906 -0.1097  0.2791  0.2072
 3028SOL     OW15175   6.410   2.598   9.367 -0.1122  0.1380  0.0477
 3028SOL    HW115176   6.344   2.663   9.389  0.0092 -0.2687  1.7213
 3028SOL    HW215177   6.423   2.548   9.447  0.1257 -1.6856 -1.0581
 3029SOL     OW15178   3.525   7.765   4.610  0.4828  0.2583 -0.4455
 3029SOL    HW115179   3.588   7.832   4.587  1.4415 -0.2881  0.5008
 3029SOL    HW215180   3.489   7.735   4.527  0.3466  1.6261 -0.9018
 3030SOL     OW15181   5.163   3.695   6.799 -0.4000  0.2506  0.1948
 3030SOL    HW115182   5.094   3.631   6.817 -0.7156  0.2722 -0.8307
 3030SOL    HW215183   5.139   3.732   6.714  0.3787  0.9326  0.2586
 3031SOL     OW15184   6.623   7.697   2.683  0.4833 -0.0014 -0.0963
 3031SOL    HW115185   6.644   7.657   2.767  0.0031 -1.4417 -0.6413
 3031SOL    HW215186   6.571   7.632   2.637 -0.0807  1.1440 -1.1441
 3032SOL     OW15187   4.838  10.460   3.077  0.5589 -0.0057 -0.3010
 3032SOL    HW115188   4.799  10.529   3.024  0.4038  1.1177  1.1820
 3032SOL    HW215189   4.929  10.456   3.048 -0.0159 -0.9379 -2.0998
 3033SOL     OW15190   7.765   5.882   5.804 -0.1872 -0.2819 -0.3363
 3033SOL    HW115191   7.804   5.824   5.870  0.1712 -0.7102 -0.9211
 3033SOL    HW215192   7.699   5.932   5.853 -0.3402 -1.0109  0.2255
 3034SOL     OW15193   0.832   6.571  10.370  0.4755 -0.1354  0.1383
 3034SOL    HW115194   0.923   6.591  10.392  0.2864  1.6843 -0.5997
 3034SOL    HW215195   0.826   6.476  10.377  2.4539 -0.2953  0.0979
 3035SOL     OW15196   3.328  10.238   2.209  0.7853 -0.2985  0.3282
 3035SOL    HW115197   3.332  10.285   2.292  2.5158 -2.1309  1.3741
 3035SOL    HW215198   3.286  10.154   2.230  1.5724 -0.9337 -0.5338
 3036SOL     OW15199   7.846  10.518   7.329  0.1581  0.0424  0.2211
 3036SOL    HW115200   7.872  10.590   7.271  2.0867 -0.7082  0.0769
 3036SOL    HW215201   7.870  10.549   7.416 -1.3159  0.5428  0.4756
 3037SOL     OW15202   1.397   2.752   2.910  0.3309  0.7326 -1.1228
 3037SOL    HW115203   1.465   2.735   2.844  2.1224  0.9557  0.5754
 3037SOL    HW215204   1.426   2.832   2.954 -0.9969  0.7806 -0.2705
 3038SOL     OW15205   0.864   5.086   9.839 -0.8459  0.1785  0.2727
 3038SOL    HW115206   0.953   5.120   9.833 -1.3803  2.1908  2.1851
 3038SOL    HW215207   0.866   5.003   9.791  1.3397  1.4522 -2.0346
 3039SOL     OW15208   5.571   4.582   7.395  0.3516  0.0731  0.3733
 3039SOL    HW115209   5.532   4.495   7.387 -1.8560  1.1248 -1.5704
 3039SOL    HW215210   5.511   4.629   7.453  1.7724  0.2248  1.7723
 3040SOL     OW15211   4.209   5.768   1.284  0.1472 -0.6181  0.2431
 3040SOL    HW115212   4.171   5.709   1.219 -2.5330  2.0195 -0.7732
 3040SOL    HW215213   4.171   5.740   1.367 -1.3330 -0.2281 -0.2714
 3041SOL     OW15214   0.359   2.095   5.625 -0.0190  0.3804 -0.3696
 3041SOL    HW115215   0.396   2.038   5.557 -0.6794 -0.8144  0.2305
 3041SOL    HW215216   0.290   2.042   5.664 -0.4804  1.5280  0.3931
 3042SOL     OW15217   0.917   2.450   9.575  0.0929 -0.0317  0.1269
 3042SOL    HW115218   0.851   2.438   9.644  1.5492  1.3452  1.8952
 3042SOL    HW215219   0.873   2.502   9.509 -0.8567  0.1181  0.8462
 3043SOL     OW15220   6.207   6.416   3.194 -0.3660  0.5393  0.1754
 3043SOL    HW115221   6.223   6.369   3.112 -2.2945  1.0436 -0.5498
 3043SOL    HW215222   6.240   6.504   3.177 -0.8442  0.6685 -0.1138
 3044SOL     OW15223   0.986  10.551  10.106  0.2676  0.4259 -0.2008
 3044SOL    HW115224   1.011  10.624  10.050  0.4893 -0.5076 -1.3732
 3044SOL    HW215225   0.960  10.482  10.045 -0.5005 -0.2777  0.8862
 3045SOL     OW15226   1.715   2.906   6.886 -0.0971 -0.4347 -0.0436
 3045SOL    HW115227   1.700   2.914   6.980  3.1432 -2.4728  0.7816
 3045SOL    HW215228   1.791   2.962   6.869 -0.9233  0.2858 -1.6216
 3046SOL     OW15229   9.291   3.811   7.393  0.2188 -0.1044  0.5062
 3046SOL    HW115230   9.335   3.727   7.376 -0.0504 -0.3597  1.0387
 3046SOL    HW215231   9.353   3.859   7.448  1.1201  0.7497 -1.1642
 3047SOL     OW15232   9.007   2.538   7.386  0.1720 -0.0841  0.1955
 3047SOL    HW115233   9.052   2.459   7.358  1.5023  0.8402 -0.3571
 3047SOL    HW215234   9.053   2.610   7.342 -1.9777  0.9168 -0.6236
 3048SOL     OW15235   4.161  10.728   8.510  0.7499 -0.0859  0.0337
 3048SOL    HW115236   4.233  10.671   8.537  0.2638 -2.3722 -2.9954
 3048SOL    HW215237   4.111  10.743   8.590  2.1049 -2.1457  1.3749
 3049SOL     OW15238   3.300  10.522   9.115 -0.2039 -0.4503 -0.8718
 3049SOL    HW115239   3.270  10.593   9.172 -0.8518 -0.4720 -1.1798
 3049SOL    HW215240   3.388  10.548   9.088 -0.8892  0.8514 -1.9792
 3050SOL     OW15241   6.914   3.405   1.091 -0.0925  0.0099  0.4514
 3050SOL    HW115242   6.979   3.443   1.032 -1.2355  2.1404  0.4549
 3050SOL    HW215243   6.830   3.434   1.056 -0.9210 -0.6874  1.7726
 3051SOL     OW15244   8.644   8.574   1.639  0.6153  0.2378  0.6542
 3051SOL    HW115245   8.608   8.541   1.721  1.5123  0.2373  1.0524
 3051SOL    HW215246   8.736   8.549   1.641  0.6524  0.2473 -0.3526
 3052SOL     OW15247   3.282   7.225  10.890  0.3485  0.5018 -0.3766
 3052SOL    HW115248   3.228   7.250  10.965  1.7008  0.0419  0.7794
 3052SOL    HW215249   3.267   7.131  10.879  0.7728  0.4058 -0.1571
 3053SOL     OW15250   2.809   1.869   0.695 -0.0512  0.1550 -0.2809
 3053SOL    HW115251   2.768   1.858   0.781 -0.1628  2.4559  0.0242
 3053SOL    HW215252   2.900   1.892   0.714 -0.0995  0.7815 -0.7673
 3054SOL     OW15253   4.691   1.664   5.624  0.2476 -0.2828  0.2299
 3054SOL    HW115254   4.712   1.720   5.700  0.8366 -1.1756  0.7370
 3054SOL    HW215255   4.688   1.725   5.550  1.8982  0.2944  0.5927
 3055SOL     OW15256   7.453   1.334   3.757  0.3972 -0.4973  0.1899
 3055SOL    HW115257   7.473   1.421   3.792  1.1219 -0.6655  0.2110
 3055SOL    HW215258   7.506   1.327   3.678  1.6451 -1.5477  1.0818
 3056SOL     OW15259   1.980  10.645   9.276  0.5170 -0.3351  0.0920
 3056SOL    HW115260   2.018  10.607   9.355 -0.1225  0.6369  0.8870
 3056SOL    HW215261   2.042  10.713   9.250 -0.1310  0.5512  0.7984
 3057SOL     OW15262   6.622   6.164   2.040 -0.6127 -0.4604  0.2902
 3057SOL    HW115263   6.581   6.160   1.954  0.4623  0.1309 -0.2738
 3057SOL    HW215264   6.637   6.258   2.054  1.5802 -0.7062 -0.0611
 3058SOL     OW15265   8.745  10.017   3.849  0.0378  0.4451 -0.6686
 3058SOL    HW115266   8.791   9.938   3.821 -0.2789  0.2677 -0.6975
 3058SOL    HW215267   8.705  10.051   3.769 -1.5708 -0.5285 -0.3160
 3059SOL     OW15268  10.811   8.484   3.519  0.0410  0.2126  0.0703
 3059SOL    HW115269  10.890   8.477   3.464 -0.7661  0.4875 -1.1726
 3059SOL    HW215270  10.818   8.411   3.580  1.1737  0.1328 -0.1320
 3060SOL     OW15271   3.340   1.300   9.789  0.2951  0.1599  0.0129
 3060SOL    HW115272   3.322   1.209   9.810  1.0845  0.1076  0.4974
 3060SOL    HW215273   3.274   1.323   9.724 -0.5196 -0.4645  0.6039
 3061SOL     OW15274   2.770   6.279   2.294  0.0171  0.1855 -0.3118
 3061SOL    HW115275   2.681   6.269   2.260 -0.9127  0.4243  1.8917
 3061SOL    HW215276   2.806   6.354   2.247 -1.7822  1.4991  0.3229
 3062SOL     OW15277   1.918   7.111   3.187  0.9921 -0.2915  0.2298
 3062SOL    HW115278   1.856   7.184   3.179  1.7489  0.6094  2.0489
 3062SOL    HW215279   1.929   7.099   3.281  2.2167 -1.6353 -0.0487
 3063SOL     OW15280   3.542  10.236   8.874  0.5592  0.4379 -0.3468
 3063SOL    HW115281   3.504  10.311   8.830 -0.2496 -0.6443 -1.5756
 3063SOL    HW215282   3.610  10.204   8.814 -0.1054 -0.6675 -0.5498
 3064SOL     OW15283   9.618   4.890   4.774  0.3738  0.0067 -0.2537
 3064SOL    HW115284   9.696   4.915   4.823 -0.8989  2.0513  0.8433
 3064SOL    HW215285   9.649   4.878   4.684  2.0354  0.1613  0.2733
 3065SOL     OW15286   0.934   7.273   2.880 -0.3836 -0.3471 -0.4200
 3065SOL    HW115287   0.926   7.362   2.845 -1.6019 -0.4684 -0.4866
 3065SOL    HW215288   0.988   7.282   2.959 -0.4297  0.4305 -0.4767
 3066SOL     OW15289   7.695   5.753   6.974 -0.2767  0.3425 -0.1273
 3066SOL    HW115290   7.693   5.767   6.880 -0.2505 -0.2844 -0.2258
 3066SOL    HW215291   7.725   5.663   6.985 -0.4068  0.3635  0.4725
 3067SOL     OW15292   5.365   1.916   3.402 -0.0277  0.6190  0.5608
 3067SOL    HW115293   5.429   1.940   3.470  0.3758  1.3789 -0.0666
 3067SOL    HW215294   5.407   1.942   3.320 -0.9758  0.7362  0.1073
 3068SOL     OW15295   1.909   3.333   3.600 -0.6472  0.2534  0.7137
 3068SOL    HW115296   1.878   3.259   3.653 -0.4088 -0.4047 -0.0487
 3068SOL    HW215297   1.949   3.292   3.523  0.7200  1.1399  0.9229
 3069SOL     OW15298   1.227   0.591   8.824  0.6756  0.4747 -0.5408
 3069SOL    HW115299   1.200   0.501   8.805 -1.1063  0.6519  0.7899
 3069SOL    HW215300   1.240   0.592   8.919  0.9891  1.5456 -0.5838
 3070SOL     OW15301   4.483   8.658   8.473 -0.3987  0.1282 -0.3393
 3070SOL    HW115302   4.407   8.671   8.530 -1.0702  0.0334 -1.1833
 3070SOL    HW215303   4.557   8.689   8.524 -1.0880  0.8334  0.2674
 3071SOL     OW15304   7.127   0.713   7.878 -0.3486 -0.5286 -0.7064
 3071SOL    HW115305   7.069   0.639   7.894 -1.8429  0.6692 -0.3084
 3071SOL    HW215306   7.119   0.767   7.957  0.8041  0.0156 -0.9354
 3072SOL     OW15307   0.561   7.932   8.357 -0.6548  0.2688 -0.4049
 3072SOL    HW115308   0.636   7.976   8.318 -0.7675 -0.0802 -1.0316
 3072SOL    HW215309   0.585   7.839   8.358 -0.9267  0.1979 -0.2624
 3073SOL     OW15310  10.856   8.932   3.120  0.6257 -0.0798 -0.5375
 3073SOL    HW115311  10.796   8.930   3.045  1.3845  0.1486 -1.1594
 3073SOL    HW215312  10.850   8.844   3.157 -0.5324  0.1101 -0.2257
 3074SOL     OW15313   2.696   5.751   9.153 -0.4566  0.2305  0.5041
 3074SOL    HW115314   2.616   5.721   9.109 -0.0309 -1.2577  0.6641
 3074SOL    HW215315   2.766   5.719   9.096  0.0437  1.3249  0.4850
 3075SOL     OW15316   6.100   1.840   3.064 -0.1125 -0.1277  0.2914
 3075SOL    HW115317   6.103   1.920   3.118 -1.9936  0.6216 -0.6232
 3075SOL    HW215318   6.102   1.768   3.127  0.9254  0.6320  1.1716
 3076SOL     OW15319   5.238   5.416   3.733 -0.5040 -0.1992  0.0725
 3076SOL    HW115320   5.142   5.418   3.739 -0.4514  0.1806  0.8488
 3076SOL    HW215321   5.263   5.506   3.712 -0.2296  0.0685  1.4594
 3077SOL     OW15322  10.862   2.261   5.616  0.3917 -0.1420 -0.3918
 3077SOL    HW115323  10.851   2.191   5.552 -0.1004  1.4474 -2.0970
 3077SOL    HW215324  10.776   2.300   5.625  0.9578  1.1923 -0.5936
 3078SOL     OW15325   3.195   4.499   8.284 -0.0522  0.2286  0.0868
 3078SOL    HW115326   3.153   4.485   8.199  1.4973 -2.3022 -0.3687
 3078SOL    HW215327   3.259   4.568   8.268 -1.4939  1.5683 -0.1091
 3079SOL     OW15328   3.701   0.997   7.171 -0.0794 -0.8364  0.1073
 3079SOL    HW115329   3.705   1.032   7.260  1.1092 -1.2632  0.2474
 3079SOL    HW215330   3.792   1.000   7.140 -0.1136 -2.6595 -0.2999
 3080SOL     OW15331   2.953   3.404   0.668  0.5490  0.2495  0.2639
 3080SOL    HW115332   2.967   3.369   0.756  0.7498  0.4469  0.3116
 3080SOL    HW215333   2.954   3.499   0.680  0.1165  0.2730  0.1185
 3081SOL     OW15334   3.288   6.205  10.814 -0.3171  0.0007  0.3360
 3081SOL    HW115335   3.342   6.218  10.736  0.2730 -0.0180  0.7302
 3081SOL    HW215336   3.208   6.255  10.797 -0.7784 -1.1006 -0.8486
 3082SOL     OW15337   3.713   3.290   6.707 -0.0632 -1.1236  0.6216
 3082SOL    HW115338   3.695   3.196   6.709 -1.5559 -0.9761 -1.8851
 3082SOL    HW215339   3.782   3.300   6.641 -2.1371 -0.2767 -1.5717
 3083SOL     OW15340   0.050  10.615   4.461 -0.0029 -0.8383 -0.5211
 3083SOL    HW115341   0.103  10.616   4.382  1.3884 -0.0980  0.3791
 3083SOL    HW215342   0.113  10.607   4.532 -0.8389  1.9951  0.7023
 3084SOL     OW15343   9.311   0.407  10.665  0.0326 -0.5563  0.2759
 3084SOL    HW115344   9.402   0.399  10.693  0.0981 -0.2740  0.1509
 3084SOL    HW215345   9.260   0.397  10.746  0.2095 -0.0247  0.4568
 3085SOL     OW15346   5.437   0.907   7.422  0.4408  0.7553  0.1511
 3085SOL    HW115347   5.480   0.864   7.348  2.5931  2.2598  0.4380
 3085SOL    HW215348   5.404   0.989   7.387 -1.1369  0.2093  0.2567
 3086SOL     OW15349   6.167   9.125   5.388 -0.0809 -0.7684  0.1125
 3086SOL    HW115350   6.162   9.218   5.409  3.0968  0.4021 -3.1508
 3086SOL    HW215351   6.250   9.097   5.427 -0.7716 -2.1761  0.6449
 3087SOL     OW15352   6.069   5.427   2.357  0.0348  0.0464 -0.1712
 3087SOL    HW115353   6.121   5.346   2.356 -0.2528 -0.1336 -0.4519
 3087SOL    HW215354   5.985   5.402   2.319 -0.9933 -0.1515  2.0303
 3088SOL     OW15355   7.946   3.660   7.048 -0.0607 -0.0263  0.3775
 3088SOL    HW115356   7.855   3.636   7.063  0.3028 -2.2616 -0.5636
 3088SOL    HW215357   7.944   3.754   7.033 -1.9930  0.2320  1.8760
 3089SOL     OW15358   7.328  10.175   1.180  0.3327 -0.4949  0.0385
 3089SOL    HW115359   7.414  10.155   1.216 -0.3560  0.5805  2.4450
 3089SOL    HW215360   7.280  10.092   1.187  0.6958 -0.7040  0.0832
 3090SOL     OW15361   2.083   3.218   2.169  0.1003 -0.3573  0.0475
 3090SOL    HW115362   2.044   3.133   2.189  0.0902 -0.4480 -0.3465
 3090SOL    HW215363   2.135   3.202   2.090  0.6711 -0.1618  0.3796
 3091SOL     OW15364   1.782   4.078   5.744 -0.4361  0.1718  0.6727
 3091SOL    HW115365   1.782   4.172   5.762  1.4059  0.1450  0.9353
 3091SOL    HW215366   1.856   4.043   5.793  0.8834 -0.8925 -1.8551
 3092SOL     OW15367   5.172   8.466   2.306  0.4494 -0.0634 -0.3837
 3092SOL    HW115368   5.082   8.433   2.297  0.4327 -0.3318  0.5809
 3092SOL    HW215369   5.169   8.521   2.384  1.0079  0.3648 -0.6600
 3093SOL     OW15370   1.536   3.577   5.381  0.1426 -0.0854 -0.2600
 3093SOL    HW115371   1.484   3.501   5.410  1.2547 -0.7090  0.1489
 3093SOL    HW215372   1.601   3.589   5.450  1.1423  0.0798 -1.2150
 3094SOL     OW15373   8.683   8.802   4.069  0.0237 -0.1607 -0.4344
 3094SOL    HW115374   8.654   8.842   3.987 -0.5693  0.7066  0.1804
 3094SOL    HW215375   8.753   8.859   4.101  0.9034 -1.0082 -0.7826
 3095SOL     OW15376   3.280   2.068  10.563 -0.2478 -0.1588  0.5377
 3095SOL    HW115377   3.233   2.056  10.481  0.0244 -2.2309  0.6294
 3095SOL    HW215378   3.227   2.021  10.628  0.2307  0.3064  1.2852
 3096SOL     OW15379   7.769   7.288   1.875 -0.7780  0.0917  0.3596
 3096SOL    HW115380   7.803   7.261   1.790 -1.7159  0.9793 -0.3185
 3096SOL    HW215381   7.720   7.213   1.907 -0.6699 -0.1405 -0.0215
 3097SOL     OW15382   7.171   7.869   2.529  0.0540  0.3375 -0.4529
 3097SOL    HW115383   7.132   7.920   2.458 -0.6750  2.1969  1.1779
 3097SOL    HW215384   7.117   7.890   2.605  2.3576  0.5613  1.2385
 3098SOL     OW15385   4.563   9.172   7.448  0.2635 -1.1142 -0.3164
 3098SOL    HW115386   4.606   9.207   7.370  1.0322 -1.0127  0.1437
 3098SOL    HW215387   4.500   9.241   7.474  1.4597 -0.2296  0.3313
 3099SOL     OW15388   4.001   4.899   8.539  0.0401 -0.0310 -0.0422
 3099SOL    HW115389   3.936   4.934   8.599 -1.5774 -1.9275 -0.5574
 3099SOL    HW215390   3.966   4.813   8.514  1.5616 -0.0983 -2.2314
 3100SOL     OW15391   9.313   4.524   9.081 -0.2891 -0.2545 -0.7121
 3100SOL    HW115392   9.231   4.535   9.033 -0.3510 -0.7734 -0.7246
 3100SOL    HW215393   9.381   4.538   9.015 -0.3707 -0.4582 -0.8383
 3101SOL     OW15394   8.244   3.444   8.739 -0.2079  0.2501  0.1010
 3101SOL    HW115395   8.331   3.480   8.725 -0.6063  1.1084 -0.2175
 3101SOL    HW215396   8.225   3.395   8.659 -0.3867  0.8472 -0.2315
 3102SOL     OW15397  10.021   8.104   0.070  0.9786  0.4129  0.7099
 3102SOL    HW115398  10.049   8.127   0.158 -0.0326  0.7462  0.9575
 3102SOL    HW215399  10.102   8.098   0.019  1.4570  2.0870  1.2185
 3103SOL     OW15400   4.236   2.080   6.620  0.1904  0.2911 -0.0020
 3103SOL    HW115401   4.196   2.007   6.668 -1.8658  0.2678 -1.6257
 3103SOL    HW215402   4.162   2.124   6.578  1.5617  2.3705 -0.3653
 3104SOL     OW15403  10.387   9.043   8.502  0.8659  0.6704  0.0135
 3104SOL    HW115404  10.375   9.136   8.485 -1.0364  1.0097  2.6455
 3104SOL    HW215405  10.337   8.999   8.433  0.7709  1.6229 -0.5366
 3105SOL     OW15406   1.321   6.009   7.739 -0.3588 -0.2660 -0.0683
 3105SOL    HW115407   1.246   6.068   7.731 -1.1497 -1.0674  1.1756
 3105SOL    HW215408   1.380   6.036   7.669 -0.7333  1.9527  0.3965
 3106SOL     OW15409   2.739   4.360   7.189 -0.9224 -0.5378 -0.5410
 3106SOL    HW115410   2.664   4.352   7.130 -0.1225  0.8439 -1.8322
 3106SOL    HW215411   2.754   4.454   7.196  1.3290 -0.7971 -1.1840
 3107SOL     OW15412   5.805   5.472   3.421  0.3786 -0.2779 -0.0577
 3107SOL    HW115413   5.735   5.443   3.479  1.2444  0.0495  1.2106
 3107SOL    HW215414   5.885   5.444   3.465  1.0796  0.2800 -0.9471
 3108SOL     OW15415   3.817   5.125   0.694 -0.4329  0.2007 -0.3140
 3108SOL    HW115416   3.910   5.147   0.686 -0.2073  0.1740  1.6432
 3108SOL    HW215417   3.772   5.208   0.677  0.0982  0.7776  0.9100
 3109SOL     OW15418   2.036   9.198   1.207  0.6107 -0.4196  0.6579
 3109SOL    HW115419   1.977   9.228   1.277  0.1454  0.7769 -0.2280
 3109SOL    HW215420   2.099   9.269   1.196 -0.9948  0.7356 -2.0372
 3110SOL     OW15421   3.534   3.392   2.574 -0.3359  0.3456 -0.8111
 3110SOL    HW115422   3.548   3.394   2.479 -1.1598  2.0385 -0.9281
 3110SOL    HW215423   3.465   3.327   2.586  1.4754 -1.7451 -1.0666
 3111SOL     OW15424   8.870   6.445   0.811  0.4573 -0.4434 -0.5065
 3111SOL    HW115425   8.847   6.368   0.863  0.8123 -0.5848 -0.5523
 3111SOL    HW215426   8.925   6.410   0.740  0.9085 -0.1059 -0.3287
 3112SOL     OW15427   5.545   6.675   0.859 -0.7383  0.0633  0.4933
 3112SOL    HW115428   5.584   6.590   0.839 -1.5667 -0.7468  2.1734
 3112SOL    HW215429   5.577   6.733   0.789 -0.3720 -1.6614 -0.8279
 3113SOL     OW15430   8.572   9.447   0.778  0.1238  0.0746 -0.5852
 3113SOL    HW115431   8.542   9.372   0.725 -0.8242  0.8339 -1.1516
 3113SOL    HW215432   8.667   9.446   0.768  0.1559 -1.2231 -0.3572
 3114SOL     OW15433   5.814   3.948   6.541  0.4275  0.1311 -0.8362
 3114SOL    HW115434   5.757   3.999   6.598 -2.3390 -1.8425 -1.6088
 3114SOL    HW215435   5.814   3.997   6.458 -0.3438  0.0810 -0.8786
 3115SOL     OW15436   2.179  10.837   6.694 -0.5031 -0.0632 -0.2878
 3115SOL    HW115437   2.088  10.864   6.705 -0.7820 -1.6909  2.3500
 3115SOL    HW215438   2.230  10.912   6.726 -1.0270 -0.0775  0.6292
 3116SOL     OW15439   5.607   0.951   9.986  0.6579  0.7127  0.4615
 3116SOL    HW115440   5.657   0.909   9.916 -2.0152  1.9039 -2.4103
 3116SOL    HW215441   5.562   0.880  10.030  1.5433  0.0242  0.2877
 3117SOL     OW15442   0.683   4.411   0.471  0.3376 -0.5128 -0.2751
 3117SOL    HW115443   0.634   4.350   0.527  0.6545 -1.4097 -0.9530
 3117SOL    HW215444   0.772   4.376   0.471  0.8421  0.7168  0.3948
 3118SOL     OW15445   4.581   7.926   1.879 -0.4902  0.2242  0.3371
 3118SOL    HW115446   4.536   7.977   1.946  1.5646  0.2306  1.8112
 3118SOL    HW215447   4.512   7.872   1.840 -1.5774 -0.9758  3.5723
 3119SOL     OW15448   4.812   0.553   1.821  0.7960  0.0529  0.2259
 3119SOL    HW115449   4.851   0.572   1.906  1.2026 -0.9889  0.2911
 3119SOL    HW215450   4.718   0.554   1.837  0.7634  2.0802  0.1802
 3120SOL     OW15451   6.022   7.273   6.400  0.6721 -0.5270  0.2353
 3120SOL    HW115452   6.074   7.313   6.330 -0.1572  1.1804  0.5336
 3120SOL    HW215453   6.041   7.179   6.394  1.0015 -0.3657 -1.9275
 3121SOL     OW15454   4.813   1.927   8.474  0.6496 -0.2290 -0.6541
 3121SOL    HW115455   4.850   1.996   8.419 -1.8143  0.6494 -1.3618
 3121SOL    HW215456   4.881   1.861   8.478  1.6537  0.4927 -3.2738
 3122SOL     OW15457  10.771   2.924   7.595  0.7805  0.0971  0.1137
 3122SOL    HW115458  10.860   2.921   7.562  1.1964 -1.7512  1.2512
 3122SOL    HW215459  10.723   2.861   7.541 -0.2672  2.1025 -1.4534
 3123SOL     OW15460   4.481   6.713   1.133 -0.2025 -0.0180  0.4245
 3123SOL    HW115461   4.480   6.719   1.037 -2.0296 -1.5115  0.3027
 3123SOL    HW215462   4.570   6.684   1.155  0.2237  0.3035 -0.8043
 3124SOL     OW15463   0.793   4.235   9.226 -0.1045 -0.7137 -0.8333
 3124SOL    HW115464   0.823   4.182   9.300 -0.3897 -2.5260 -1.9545
 3124SOL    HW215465   0.747   4.309   9.267 -1.4198 -2.3488  0.8286
 3125SOL     OW15466   2.203   8.043   5.288 -0.1122  0.0072  0.0082
 3125SOL    HW115467   2.173   7.963   5.330 -0.4746  1.3487  2.5126
 3125SOL    HW215468   2.258   8.085   5.354 -0.3760  2.0911 -1.0263
 3126SOL     OW15469   1.470   7.620   9.929 -0.4106 -0.3205 -0.1874
 3126SOL    HW115470   1.438   7.703   9.895 -0.7769 -0.4853 -0.2464
 3126SOL    HW215471   1.494   7.639  10.020 -0.8364 -0.2372 -0.0927
 3127SOL     OW15472   5.950   8.852   6.272  0.3604  0.5497 -0.4103
 3127SOL    HW115473   5.906   8.782   6.223 -0.4110  0.8350 -0.1336
 3127SOL    HW215474   6.037   8.816   6.291  0.8780  0.6188 -2.4237
 3128SOL     OW15475   6.120  10.657   4.517 -0.8885  0.1050  0.3053
 3128SOL    HW115476   6.054  10.727   4.522 -2.3576 -1.0900 -1.2807
 3128SOL    HW215477   6.135  10.632   4.609 -1.4362  1.4833  0.7968
 3129SOL     OW15478   8.447   6.056   6.035  0.5537 -0.4832 -0.1520
 3129SOL    HW115479   8.470   6.108   6.112 -0.3300 -2.0320  1.2218
 3129SOL    HW215480   8.462   5.965   6.062 -0.2785 -1.0947 -1.6338
 3130SOL     OW15481   8.793   9.523   7.858  0.6778  0.0712  0.2012
 3130SOL    HW115482   8.794   9.609   7.900 -2.0710 -0.3564  1.3564
 3130SOL    HW215483   8.736   9.534   7.782  0.3383 -0.7097  0.3305
 3131SOL     OW15484   1.958   7.305   2.659 -0.6949 -0.5699  0.4108
 3131SOL    HW115485   1.942   7.398   2.639  0.4807 -0.0835  1.5956
 3131SOL    HW215486   1.967   7.302   2.754 -0.6867 -1.9134  0.3891
 3132SOL     OW15487   4.577   4.636   1.903  0.4240  0.2994  0.0272
 3132SOL    HW115488   4.630   4.596   1.834  0.4121 -0.6064  0.5308
 3132SOL    HW215489   4.590   4.580   1.979 -1.3321 -0.0231  0.1379
 3133SOL     OW15490   2.266   2.619   3.082  0.5764  0.2250  0.4656
 3133SOL    HW115491   2.348   2.662   3.107 -0.0347  0.5900  1.9746
 3133SOL    HW215492   2.205   2.641   3.152 -0.7533 -0.2530 -0.4984
 3134SOL     OW15493   9.557   2.036   9.890 -0.1660 -0.0834 -0.8761
 3134SOL    HW115494   9.487   2.069   9.834 -1.3018  2.0710  1.6103
 3134SOL    HW215495   9.513   1.976   9.951  0.4332  0.0561 -0.2961
 3135SOL     OW15496   7.507   3.441   7.904 -1.0107  0.4500 -0.7512
 3135SOL    HW115497   7.432   3.474   7.954 -1.4370 -1.4022 -0.0701
 3135SOL    HW215498   7.561   3.395   7.968 -0.7903 -0.6863 -1.7010
 3136SOL     OW15499   4.267   0.548   3.371  0.0187  0.4163 -0.3957
 3136SOL    HW115500   4.255   0.454   3.361 -0.4438  0.6648 -2.4930
 3136SOL    HW215501   4.204   0.588   3.311  0.4985  2.0613  0.1297
 3137SOL     OW15502   5.243   5.029   4.224  0.1913 -0.4991  0.5792
 3137SOL    HW115503   5.199   5.101   4.180  1.6838 -0.5704 -1.1506
 3137SOL    HW215504   5.282   5.069   4.302 -0.0507  0.2897  0.3040
 3138SOL     OW15505   7.251  10.316   6.019  0.0033 -0.5056  0.1123
 3138SOL    HW115506   7.248  10.232   6.063 -1.6294 -1.1515 -1.1048
 3138SOL    HW215507   7.263  10.295   5.926 -0.7379  0.5457 -0.2532
 3139SOL     OW15508   0.982   3.037   4.591 -0.2870  0.3194 -0.0540
 3139SOL    HW115509   0.977   3.082   4.506  2.8895 -0.7801 -0.9710
 3139SOL    HW215510   0.920   2.966   4.584  1.5480 -1.2115 -2.5636
 3140SOL     OW15511   3.237   0.580   6.804  0.0799 -0.1583 -0.3531
 3140SOL    HW115512   3.247   0.675   6.797 -0.1422 -0.0333  0.8415
 3140SOL    HW215513   3.214   0.565   6.895  2.4223 -1.5759  0.0689
 3141SOL     OW15514   2.556  10.299   1.644  0.1060 -0.1160  0.0600
 3141SOL    HW115515   2.520  10.380   1.681 -2.1303 -0.7881 -0.4815
 3141SOL    HW215516   2.569  10.242   1.720  1.2305  0.5623  0.3933
 3142SOL     OW15517   9.981   2.428   0.927 -0.6695 -0.4286  0.0543
 3142SOL    HW115518  10.053   2.430   0.990 -0.7994  0.2127  0.1922
 3142SOL    HW215519  10.021   2.452   0.844 -0.4997 -1.2650 -0.1039
 3143SOL     OW15520   1.273   3.313   1.126 -0.1908  0.3448 -0.4147
 3143SOL    HW115521   1.323   3.351   1.199 -0.3383  0.0262 -0.1411
 3143SOL    HW215522   1.315   3.347   1.047 -1.4251  2.5248 -0.1961
 3144SOL     OW15523   7.421   0.780   4.984  0.3360  0.3666  0.3963
 3144SOL    HW115524   7.401   0.760   5.076 -0.7947 -0.2812  0.0279
 3144SOL    HW215525   7.501   0.732   4.966 -0.7565 -1.5231  0.3689
 3145SOL     OW15526   4.354   9.486   1.095 -0.0195 -0.0100  0.2069
 3145SOL    HW115527   4.445   9.482   1.068 -0.0215  0.8775  0.0155
 3145SOL    HW215528   4.322   9.396   1.087  0.6000 -0.1742 -0.5568
 3146SOL     OW15529   0.393   8.621   2.343 -0.0794  0.0088 -0.1521
 3146SOL    HW115530   0.299   8.642   2.343 -0.5230 -1.8406 -0.1890
 3146SOL    HW215531   0.427   8.664   2.422 -0.8536  1.0679 -0.3755
 3147SOL     OW15532   6.392   9.905   9.774  0.2316  0.8156  0.3902
 3147SOL    HW115533   6.435   9.826   9.808 -0.7638 -0.1018 -0.3913
 3147SOL    HW215534   6.300   9.894   9.800  0.0068  1.5092 -0.1040
 3148SOL     OW15535   4.435  10.746   0.917  0.2097 -0.0416  0.0220
 3148SOL    HW115536   4.460  10.781   1.002 -1.9863 -1.0299  1.1651
 3148SOL    HW215537   4.421  10.824   0.862 -0.8904  0.7692  1.3763
 3149SOL     OW15538   7.303   9.407   8.415  0.1816  0.3262  0.1777
 3149SOL    HW115539   7.268   9.483   8.463  2.2807  0.3138  1.9018
 3149SOL    HW215540   7.311   9.339   8.482  1.8640 -0.1877 -0.5108
 3150SOL     OW15541   7.884  10.255  10.300 -0.3877 -0.4281  0.1195
 3150SOL    HW115542   7.850  10.329  10.249  0.6699 -0.1776 -0.2378
 3150SOL    HW215543   7.942  10.295  10.365 -0.6855 -0.8602  0.6610
 3151SOL     OW15544   7.036   0.974   5.942 -0.3059 -0.0835 -0.1858
 3151SOL    HW115545   7.129   0.956   5.956 -0.7704 -0.9695  2.4773
 3151SOL    HW215546   6.993   0.891   5.961 -1.6994  0.5452 -0.4872
 3152SOL     OW15547   7.629   5.675   9.215  0.2569  0.3102  0.0428
 3152SOL    HW115548   7.665   5.652   9.301  1.0564  0.4851 -0.2349
 3152SOL    HW215549   7.706   5.690   9.161 -0.2427  0.0478 -0.7489
 3153SOL     OW15550   6.023   3.920   6.800 -0.2760 -0.0428 -0.3749
 3153SOL    HW115551   5.984   3.945   6.716  1.2798 -1.1591 -1.4833
 3153SOL    HW215552   6.097   3.864   6.776 -0.1350 -0.8459  1.7834
 3154SOL     OW15553   0.146   3.782  10.029 -0.1537 -0.1184  0.0120
 3154SOL    HW115554   0.057   3.748  10.034 -0.0137 -0.5443 -0.3579
 3154SOL    HW215555   0.203   3.706  10.042  0.1672  0.2670  1.0082
 3155SOL     OW15556   3.693   3.598   3.983  0.2222  0.4918  0.9870
 3155SOL    HW115557   3.742   3.636   4.056 -1.0027  0.9331  1.6073
 3155SOL    HW215558   3.736   3.632   3.905  1.2852  0.3597  1.4879
 3156SOL     OW15559   7.072   4.276  10.474  0.1730  0.8731 -0.2990
 3156SOL    HW115560   7.123   4.208  10.430  0.5152  1.5501 -0.9822
 3156SOL    HW215561   7.025   4.320  10.403  0.5687  1.8439  0.0150
 3157SOL     OW15562   8.369   5.952   4.601  0.1746  0.1723  0.0789
 3157SOL    HW115563   8.443   6.001   4.635  0.6838 -0.0491 -0.6736
 3157SOL    HW215564   8.293   5.988   4.646  0.8666 -0.6285  1.9846
 3158SOL     OW15565   1.417   2.400   0.139  0.1719 -0.2460  0.4057
 3158SOL    HW115566   1.468   2.424   0.216  1.8038  0.5442 -0.8494
 3158SOL    HW215567   1.326   2.402   0.169  0.7505  0.0499  2.2843
 3159SOL     OW15568   6.908   9.420   8.009 -0.4409 -0.2373 -0.2540
 3159SOL    HW115569   6.968   9.366   7.958  0.3913  0.7296 -0.3256
 3159SOL    HW215570   6.965   9.473   8.065 -1.2997 -0.8131  1.2433
 3160SOL     OW15571   7.243   3.237   9.544  0.4953 -0.2159 -0.2691
 3160SOL    HW115572   7.257   3.266   9.634  0.2625  0.5648 -0.4784
 3160SOL    HW215573   7.193   3.308   9.504 -1.0790 -1.3909 -0.4822
 3161SOL     OW15574   4.118   8.769   5.993  0.1835 -0.4974 -0.0136
 3161SOL    HW115575   4.091   8.691   5.946  0.5798 -0.6847  0.0662
 3161SOL    HW215576   4.213   8.761   6.001  0.1297 -0.4407  0.7647
 3162SOL     OW15577   9.328   3.060   5.340 -0.3789  0.0897 -0.1986
 3162SOL    HW115578   9.239   3.029   5.357  0.1321 -1.0590  0.5032
 3162SOL    HW215579   9.316   3.135   5.282 -1.7920 -0.1652 -0.2849
 3163SOL     OW15580  10.871   0.816   1.598  0.2587 -0.6679 -0.0801
 3163SOL    HW115581  10.938   0.884   1.594  0.2182 -0.5001  1.3948
 3163SOL    HW215582  10.887   0.762   1.521  0.6639  0.6599 -0.9516
 3164SOL     OW15583   4.030   1.888   0.673 -0.3615 -0.4787  0.1957
 3164SOL    HW115584   3.946   1.914   0.635 -0.4471 -0.3063  0.5024
 3164SOL    HW215585   4.081   1.855   0.599 -1.2958 -2.1432  0.2694
 3165SOL     OW15586   6.985   8.018  10.111  0.7793  0.4500 -0.0323
 3165SOL    HW115587   6.979   8.016  10.016 -2.0222 -2.1414  0.0556
 3165SOL    HW215588   7.058   7.960  10.132  0.8030  0.2815 -0.5684
 3166SOL     OW15589   0.951   1.766  10.689 -0.5027  0.4035 -0.3424
 3166SOL    HW115590   0.938   1.672  10.676  2.1149 -0.1168  0.2326
 3166SOL    HW215591   0.905   1.785  10.771 -0.5312 -0.5093 -0.1296
 3167SOL     OW15592   9.109   4.452   0.013  0.0309 -0.6303  0.2353
 3167SOL    HW115593   9.088   4.360   0.000  1.5051 -1.0084  0.3587
 3167SOL    HW215594   9.026   4.493   0.035 -0.4122 -2.2005  1.6764
 3168SOL     OW15595   5.880   0.218   6.701  0.0805  0.1673  0.2064
 3168SOL    HW115596   5.815   0.241   6.636 -0.8529 -1.5837  0.4507
 3168SOL    HW215597   5.872   0.285   6.769 -1.3842  0.0581  0.1662
 3169SOL     OW15598   0.594   1.910   8.556  0.0134  0.1155 -0.2210
 3169SOL    HW115599   0.548   1.993   8.543  1.6395  1.2950  1.0741
 3169SOL    HW215600   0.633   1.918   8.643 -0.3631 -2.3214  0.2240
 3170SOL     OW15601   6.340   1.164   7.770  0.4016 -0.4181 -0.6811
 3170SOL    HW115602   6.408   1.223   7.737  0.8016  0.7081  1.8485
 3170SOL    HW215603   6.387   1.086   7.799  0.8516  0.6301  1.6942
 3171SOL     OW15604   9.112   6.942  10.575  0.1044 -0.6638  0.4086
 3171SOL    HW115605   9.103   6.866  10.633 -0.8448 -0.8539  0.0456
 3171SOL    HW215606   9.024   6.953  10.538  0.2317  0.6138  0.4498
 3172SOL     OW15607   1.589   6.856   1.342 -0.4975 -0.1502 -0.4304
 3172SOL    HW115608   1.655   6.924   1.336  1.3799 -1.7268  0.9141
 3172SOL    HW215609   1.606   6.799   1.267 -1.0543  0.0106 -0.6850
 3173SOL     OW15610  10.511   9.795   9.446  0.0414  0.3678  0.1498
 3173SOL    HW115611  10.485   9.862   9.384 -0.6858 -0.4896 -0.4884
 3173SOL    HW215612  10.434   9.780   9.500  0.2485  0.1495  0.3931
 3174SOL     OW15613   2.076   4.384   1.666 -0.0415  0.8146 -0.1826
 3174SOL    HW115614   2.015   4.401   1.594 -1.3215 -0.0420  0.6656
 3174SOL    HW215615   2.055   4.295   1.694  0.5248  1.0950  1.1742
 3175SOL     OW15616   9.825   7.159   5.265  0.4326  0.5121 -0.2526
 3175SOL    HW115617   9.783   7.112   5.338  0.5833  0.5926 -0.1141
 3175SOL    HW215618   9.754   7.209   5.225 -0.0477 -0.9269 -1.2989
 3176SOL     OW15619   2.203   4.800   5.809 -0.0126  0.0928 -0.0568
 3176SOL    HW115620   2.153   4.766   5.883  1.4485  0.6473  1.2322
 3176SOL    HW215621   2.250   4.724   5.775  0.6938  0.1568  0.7368
 3177SOL     OW15622   5.554   7.552   1.889  0.2577 -0.3978  0.5172
 3177SOL    HW115623   5.556   7.626   1.950 -0.8246 -0.2432  0.3898
 3177SOL    HW215624   5.594   7.586   1.809 -1.2237  0.4332  0.0863
 3178SOL     OW15625   9.942   8.394   6.914 -0.1601 -0.4205  0.0548
 3178SOL    HW115626   9.946   8.299   6.902 -2.3002 -0.6485  0.6726
 3178SOL    HW215627   9.858   8.409   6.957  0.7221  1.6521  1.2182
 3179SOL     OW15628   6.376   7.958   9.821 -0.3178  0.3950 -0.0146
 3179SOL    HW115629   6.322   7.910   9.884  0.5461  0.4089  0.7662
 3179SOL    HW215630   6.462   7.917   9.827  0.3953  1.8817  0.5208
 3180SOL     OW15631  10.513   9.415   0.232 -0.1889 -0.1996 -0.0899
 3180SOL    HW115632  10.519   9.413   0.327 -0.1801 -0.0776 -0.0882
 3180SOL    HW215633  10.529   9.506   0.208  2.5359 -0.6684 -0.3846
 3181SOL     OW15634   9.216   1.539  10.342 -0.5737 -0.0920 -0.0217
 3181SOL    HW115635   9.280   1.508  10.277 -0.9205 -0.0868 -0.3717
 3181SOL    HW215636   9.131   1.524  10.300 -0.7575  2.1793 -0.6001
 3182SOL     OW15637   6.471   3.406   6.904  0.8214 -0.5355 -0.9592
 3182SOL    HW115638   6.531   3.476   6.931 -0.0148  0.4660 -1.6046
 3182SOL    HW215639   6.492   3.333   6.962  2.1162  0.0512 -0.6462
 3183SOL     OW15640   3.545   7.299   0.864 -0.6309 -0.4879 -0.4697
 3183SOL    HW115641   3.550   7.391   0.839 -2.1948 -0.8266 -2.2933
 3183SOL    HW215642   3.560   7.298   0.959 -2.1990  1.8301 -0.1306
 3184SOL     OW15643   1.852   1.412   0.774 -0.7551 -0.2412 -0.1677
 3184SOL    HW115644   1.788   1.472   0.813 -1.2497 -1.0843  0.3587
 3184SOL    HW215645   1.865   1.445   0.685 -0.9239  0.7060  0.1508
 3185SOL     OW15646   8.050   2.802   7.862 -0.6078  0.6637 -0.0592
 3185SOL    HW115647   8.029   2.794   7.768  1.9992  0.6738 -0.7118
 3185SOL    HW215648   8.107   2.727   7.880  0.1328  1.4933  1.1579
 3186SOL     OW15649   0.309   1.180   7.906 -0.4972  0.8990  0.1396
 3186SOL    HW115650   0.270   1.245   7.964 -3.6234 -0.6253 -0.0747
 3186SOL    HW215651   0.247   1.108   7.904  2.4629 -1.8948 -0.1921
 3187SOL     OW15652   1.995   0.972   1.565  0.5278  0.6379 -0.0499
 3187SOL    HW115653   2.021   1.016   1.646  1.6437  1.6660 -0.9266
 3187SOL    HW215654   2.068   0.912   1.546 -1.5173 -2.7888  1.8292
 3188SOL     OW15655   3.744   5.254   8.012 -0.2522 -0.1190 -0.0843
 3188SOL    HW115656   3.664   5.257   8.064 -0.1096 -0.5092  0.1627
 3188SOL    HW215657   3.732   5.178   7.955 -0.2079  0.0327 -0.2992
 3189SOL     OW15658   7.639   2.514  10.594  0.1205 -0.2694 -0.1774
 3189SOL    HW115659   7.713   2.453  10.585  0.7500  0.4243  0.1997
 3189SOL    HW215660   7.616   2.535  10.503  0.6863 -0.1422 -0.2989
 3190SOL     OW15661   4.723   6.485   2.709  0.3637  0.7964  0.5002
 3190SOL    HW115662   4.630   6.497   2.690  0.0775 -0.4967  0.9772
 3190SOL    HW215663   4.743   6.551   2.776 -0.3257  0.8061  0.7012
 3191SOL     OW15664   4.150   8.990   2.740  0.3883 -0.2331  0.0843
 3191SOL    HW115665   4.150   9.076   2.782 -0.2356  0.3859 -1.1324
 3191SOL    HW215666   4.192   8.932   2.804 -1.2188  0.4957  1.8762
 3192SOL     OW15667   5.732   1.824   7.237  0.1162 -0.0372 -0.7379
 3192SOL    HW115668   5.697   1.738   7.261 -0.4834  1.0856  3.0935
 3192SOL    HW215669   5.816   1.828   7.281  0.1739  1.3001 -0.9518
 3193SOL     OW15670   6.166   6.928   9.180 -0.3723  0.3918 -0.5018
 3193SOL    HW115671   6.243   6.872   9.188  0.6626  1.8162 -0.1020
 3193SOL    HW215672   6.116   6.912   9.260 -0.0644  0.1113 -0.3635
 3194SOL     OW15673   1.172   0.270   6.189 -0.3461 -0.5213 -0.6578
 3194SOL    HW115674   1.104   0.332   6.216 -0.4444 -0.5362 -0.8714
 3194SOL    HW215675   1.180   0.283   6.095  1.0878  0.6349 -0.4224
 3195SOL     OW15676   7.146   1.554   1.848 -0.4611 -0.1210 -0.7709
 3195SOL    HW115677   7.183   1.641   1.865 -0.2203 -0.1951 -0.9164
 3195SOL    HW215678   7.099   1.564   1.765 -1.7583  0.2785 -0.0150
 3196SOL     OW15679   1.473   3.196   5.712  0.4252 -0.6369  0.1508
 3196SOL    HW115680   1.516   3.220   5.630 -0.2688 -0.8404 -0.2847
 3196SOL    HW215681   1.541   3.152   5.763  0.6293 -1.3514 -0.7079
 3197SOL     OW15682   1.234   9.140   0.749 -0.5634  0.4285  0.2864
 3197SOL    HW115683   1.209   9.050   0.732  0.2581  0.4288 -1.0922
 3197SOL    HW215684   1.322   9.148   0.711 -1.3114  2.2537 -1.2348
 3198SOL     OW15685   0.289   4.484  10.115  0.1540  0.2594  0.4175
 3198SOL    HW115686   0.359   4.500  10.052  0.8161 -2.8570  0.2084
 3198SOL    HW215687   0.335   4.468  10.198 -0.4246 -0.1702  0.6639
 3199SOL     OW15688   8.736   2.411   7.367  0.3121 -0.8369 -0.6440
 3199SOL    HW115689   8.831   2.425   7.376  0.7674 -1.8537 -3.0232
 3199SOL    HW215690   8.700   2.499   7.357  1.0083 -0.4330  0.2783
 3200SOL     OW15691   6.488  10.311   8.109 -0.1477 -0.1569 -0.2333
 3200SOL    HW115692   6.450  10.224   8.108 -1.3121  0.3044  1.1134
 3200SOL    HW215693   6.421  10.368   8.072  0.7497  0.1618 -1.4767
 3201SOL     OW15694   2.705   5.136   5.135 -0.2025  0.3637  0.2492
 3201SOL    HW115695   2.671   5.222   5.161 -0.2438  0.4800 -0.1705
 3201SOL    HW215696   2.709   5.141   5.039  0.3927  0.1222  0.2606
 3202SOL     OW15697   5.619   4.202   5.091  0.2166 -0.0218  0.4506
 3202SOL    HW115698   5.538   4.251   5.079  1.5598  1.9020 -1.6637
 3202SOL    HW215699   5.614   4.132   5.027  0.2185  0.1080  0.3073
 3203SOL     OW15700   1.554   3.856   8.041 -0.7471  0.2690  0.2640
 3203SOL    HW115701   1.607   3.776   8.039 -0.9637  0.1201  0.3949
 3203SOL    HW215702   1.490   3.844   7.970 -0.9883  0.1757  0.4907
 3204SOL     OW15703   6.035   7.406   3.740  0.0184  0.1878 -0.7859
 3204SOL    HW115704   6.006   7.317   3.758  1.1927 -0.3029 -1.2038
 3204SOL    HW215705   6.024   7.417   3.646  1.2934 -0.0746 -0.9834
 3205SOL     OW15706   2.233   8.959   5.908  0.3980  0.6708  0.3159
 3205SOL    HW115707   2.305   8.947   5.970 -0.0788 -1.4558  0.5140
 3205SOL    HW215708   2.196   9.044   5.932 -0.0490 -0.2337  3.2759
 3206SOL     OW15709   2.277   3.431   6.931 -0.4558  0.4878  0.1194
 3206SOL    HW115710   2.292   3.392   6.845  0.8730  0.4460  0.3440
 3206SOL    HW215711   2.268   3.525   6.913 -3.2997  0.2025 -0.3789
 3207SOL     OW15712   1.154   5.613   0.154 -0.3451 -0.3419  0.7094
 3207SOL    HW115713   1.147   5.687   0.093  2.1910 -0.5929  0.0187
 3207SOL    HW215714   1.101   5.544   0.113  1.8469 -0.7421 -1.6806
 3208SOL     OW15715   5.778   7.155   3.155  0.0465  0.7765 -0.3532
 3208SOL    HW115716   5.702   7.101   3.129 -0.6272  1.1065  0.8727
 3208SOL    HW215717   5.740   7.228   3.204  1.1958  0.6389  0.7880
 3209SOL     OW15718  10.176   2.504   0.027  0.1924 -0.5547 -0.1552
 3209SOL    HW115719  10.245   2.539  -0.029 -1.0117  0.0702 -1.2785
 3209SOL    HW215720  10.203   2.413   0.044  0.6540 -0.7149 -1.6265
 3210SOL     OW15721   5.544   0.541   2.102  0.4908 -0.3184 -0.8968
 3210SOL    HW115722   5.541   0.455   2.060 -0.5978 -0.3421 -0.7989
 3210SOL    HW215723   5.465   0.586   2.070  0.1394  0.0103  0.3749
 3211SOL     OW15724   8.706  10.115   9.308 -0.0717 -0.5890  0.0818
 3211SOL    HW115725   8.764  10.085   9.378  1.9694 -0.5059 -1.4804
 3211SOL    HW215726   8.661  10.191   9.345  0.4993 -0.9152  1.5012
 3212SOL     OW15727   2.653   5.440   9.939  0.3605  0.0248 -0.3655
 3212SOL    HW115728   2.742   5.470   9.919  0.1238 -0.1080 -1.7712
 3212SOL    HW215729   2.648   5.352   9.901 -0.6313  0.3831 -1.1099
 3213SOL     OW15730   2.930   8.209  10.081  0.7014 -0.3531  0.0467
 3213SOL    HW115731   2.869   8.262  10.132  0.1473  1.3921 -2.2630
 3213SOL    HW215732   2.877   8.138  10.046 -0.0650  1.0194 -1.7501
 3214SOL     OW15733  10.926   6.412   7.961 -0.1935  0.1615  0.3981
 3214SOL    HW115734  10.987   6.414   8.035  1.7734  0.3393 -1.1421
 3214SOL    HW215735  10.892   6.322   7.962  1.6792 -0.6084  0.1324
 3215SOL     OW15736   3.325   6.672   6.461 -0.0280 -0.8784  0.3698
 3215SOL    HW115737   3.306   6.581   6.486 -0.6405 -1.7253 -2.7634
 3215SOL    HW215738   3.387   6.664   6.389 -0.6105  1.1753 -0.4135
 3216SOL     OW15739   0.576  10.314   0.152 -0.1480  0.7661  0.1369
 3216SOL    HW115740   0.601  10.280   0.066  0.8529 -0.8122  1.0087
 3216SOL    HW215741   0.481  10.304   0.156 -0.0441 -0.5045 -0.2496
 3217SOL     OW15742   2.521  10.728   6.389 -0.4573  0.0485 -0.2812
 3217SOL    HW115743   2.443  10.781   6.404 -0.6740  0.4511 -2.4322
 3217SOL    HW215744   2.591  10.793   6.374 -0.3603 -0.2545 -1.2278
 3218SOL     OW15745   5.548   7.526   3.395  0.5548 -0.4440 -0.1725
 3218SOL    HW115746   5.460   7.558   3.372  0.1761 -1.2660  0.1146
 3218SOL    HW215747   5.582   7.593   3.454 -0.0940 -0.3778  0.1426
 3219SOL     OW15748  10.370   1.310   1.428 -0.5269 -0.6939 -0.0000
 3219SOL    HW115749  10.331   1.224   1.446  0.9137 -0.9144  2.5714
 3219SOL    HW215750  10.316   1.347   1.359 -2.9046 -2.5322  0.7412
 3220SOL     OW15751   5.011   8.614   4.140  0.3578 -0.2195 -0.2028
 3220SOL    HW115752   4.982   8.703   4.118 -0.9327 -0.7207 -0.6193
 3220SOL    HW215753   5.081   8.627   4.204 -0.3402  1.0743  0.3321
 3221SOL     OW15754   9.158   8.003   5.286 -0.4386  0.3169 -0.3119
 3221SOL    HW115755   9.201   8.005   5.201  0.4621 -3.0755 -0.0725
 3221SOL    HW215756   9.065   7.991   5.266 -0.3297  0.3063 -0.8105
 3222SOL     OW15757  10.031   0.422   6.011  0.0465  0.2603 -0.2397
 3222SOL    HW115758  10.036   0.376   5.927  3.4914 -0.4017  0.1811
 3222SOL    HW215759  10.043   0.514   5.989  2.2356 -0.0275 -0.4676
 3223SOL     OW15760  10.733   4.330   8.463  1.0229 -0.0615  0.3587
 3223SOL    HW115761  10.716   4.240   8.491 -1.8786 -0.0460 -1.0130
 3223SOL    HW215762  10.765   4.321   8.373 -0.8348  0.2880 -0.3658
 3224SOL     OW15763   5.069   2.417   8.713 -0.0703 -0.4159 -0.5210
 3224SOL    HW115764   5.133   2.359   8.671 -0.9927 -0.4579 -1.9284
 3224SOL    HW215765   5.113   2.502   8.718  0.5218 -0.7207 -0.3597
 3225SOL     OW15766   5.477   3.520   5.700  0.3043  0.1973 -0.5411
 3225SOL    HW115767   5.545   3.564   5.650  0.0086  0.7371 -0.4742
 3225SOL    HW215768   5.456   3.442   5.648  0.3971  0.4565 -0.9702
 3226SOL     OW15769   4.005   2.055   8.642  0.2186  0.2926 -0.1571
 3226SOL    HW115770   3.958   2.002   8.577  0.9480  0.6678 -1.0081
 3226SOL    HW215771   3.977   2.019   8.727 -1.7692  0.6394 -0.6131
 3227SOL     OW15772  10.912   3.539   7.541  0.3702 -0.0499 -0.4225
 3227SOL    HW115773  10.988   3.517   7.594  1.7439 -0.9751 -2.6339
 3227SOL    HW215774  10.945   3.604   7.478 -1.0995  0.7401 -0.4301
 3228SOL     OW15775   7.661  10.663   1.333 -0.3154  0.4185  0.1781
 3228SOL    HW115776   7.601  10.628   1.399 -0.9677  0.1794 -0.5409
 3228SOL    HW215777   7.732  10.702   1.385 -1.2072  0.9376  1.0365
 3229SOL     OW15778   9.944   6.139   6.002  0.3025  0.1555 -0.3480
 3229SOL    HW115779   9.956   6.221   6.049 -0.0968  0.1659 -0.2574
 3229SOL    HW215780   9.914   6.077   6.069 -1.2685  0.4249 -0.7436
 3230SOL     OW15781   7.392   3.465   8.781  0.3192 -0.1726  0.0279
 3230SOL    HW115782   7.453   3.537   8.764  0.3181 -0.2097 -0.1311
 3230SOL    HW215783   7.420   3.396   8.721  1.2362 -0.8424  1.1695
 3231SOL     OW15784   3.699   7.801   6.856 -0.0606  0.0199 -0.1443
 3231SOL    HW115785   3.778   7.855   6.855  0.4911 -0.7661 -0.3199
 3231SOL    HW215786   3.680   7.784   6.764  1.3717 -2.3009 -0.1049
 3232SOL     OW15787  10.538   8.435   0.418  0.1120  0.1583 -0.2665
 3232SOL    HW115788  10.548   8.355   0.367  0.2839  0.5143 -0.8116
 3232SOL    HW215789  10.625   8.450   0.456 -0.2088 -0.5051  0.7483
 3233SOL     OW15790   6.248  10.483   3.430  0.0685 -0.0197 -0.2356
 3233SOL    HW115791   6.241  10.470   3.525 -0.5196 -1.5821 -0.4638
 3233SOL    HW215792   6.329  10.533   3.419 -0.1148  0.6421  1.1113
 3234SOL     OW15793   2.191   1.065   8.194 -0.0960  0.3189  0.0322
 3234SOL    HW115794   2.259   1.113   8.148  0.5528  0.1510  0.7928
 3234SOL    HW215795   2.198   0.975   8.160 -1.5478  0.7889 -1.6573
 3235SOL     OW15796  10.858   8.683   1.896 -0.6088  0.1271 -0.0827
 3235SOL    HW115797  10.837   8.723   1.980  1.1611 -0.4453  0.6711
 3235SOL    HW215798  10.828   8.593   1.904 -1.0272  0.2408 -0.3215
 3236SOL     OW15799   3.057   9.064   7.001  0.3886  0.6625  0.2314
 3236SOL    HW115800   3.116   9.093   7.071  1.4943  0.7639 -0.7047
 3236SOL    HW215801   3.014   9.145   6.971 -1.0723  0.4483  1.6194
 3237SOL     OW15802   8.985   9.685   8.309 -0.4144  0.1215 -0.2306
 3237SOL    HW115803   9.075   9.664   8.334 -0.1897  0.3099 -0.8719
 3237SOL    HW215804   8.931   9.638   8.373  0.1209 -0.7899 -0.4236
 3238SOL     OW15805   6.747   7.350   5.715 -0.3853  0.3900 -0.3407
 3238SOL    HW115806   6.686   7.279   5.735 -0.4873  0.5728  0.0043
 3238SOL    HW215807   6.811   7.311   5.655 -0.2141 -0.1071  0.1587
 3239SOL     OW15808   1.713   0.272   2.271  0.4126  0.3550 -0.0718
 3239SOL    HW115809   1.698   0.366   2.266  0.8482  0.5278  1.4743
 3239SOL    HW215810   1.703   0.250   2.363  0.4835 -1.0947 -0.3764
 3240SOL     OW15811   2.832  10.744   1.870  0.0796 -0.0955 -0.2797
 3240SOL    HW115812   2.905  10.762   1.811  0.3435  0.2512  0.1493
 3240SOL    HW215813   2.819  10.649   1.863 -0.6473  0.0780 -1.7645
 3241SOL     OW15814   4.660   4.307   0.770 -0.3161  0.2038  0.2296
 3241SOL    HW115815   4.726   4.364   0.810  2.1001 -1.7749 -0.7257
 3241SOL    HW215816   4.640   4.243   0.838 -0.9883  0.5362  0.3603
 3242SOL     OW15817   2.082   6.446   7.210  0.0588  0.0286  0.1808
 3242SOL    HW115818   2.059   6.499   7.134  0.4820 -1.6923 -1.2401
 3242SOL    HW215819   2.007   6.388   7.223 -0.1555  0.5446  1.3200
 3243SOL     OW15820   1.430   6.341   9.713  0.1267 -0.2618 -0.7768
 3243SOL    HW115821   1.412   6.380   9.627  0.8505 -0.6628 -1.1199
 3243SOL    HW215822   1.396   6.252   9.706 -0.3763 -0.1030 -0.4260
 3244SOL     OW15823   2.420   3.258   2.780 -0.1173  0.5060  0.2639
 3244SOL    HW115824   2.365   3.325   2.740 -2.8728 -2.2891 -1.0317
 3244SOL    HW215825   2.372   3.231   2.859 -0.1659 -1.2597 -0.3158
 3245SOL     OW15826   1.942   0.678   6.425  0.6096  0.6138 -0.3922
 3245SOL    HW115827   1.873   0.613   6.420  0.1175  1.2204 -3.2127
 3245SOL    HW215828   2.013   0.635   6.473 -1.0511 -0.5943  1.1043
 3246SOL     OW15829   1.814   3.831   0.999 -0.0238 -0.0962  0.1431
 3246SOL    HW115830   1.737   3.879   1.030 -0.2235  0.2611 -0.8674
 3246SOL    HW215831   1.778   3.753   0.956  0.2530 -0.6527  0.9075
 3247SOL     OW15832   1.004   3.388   6.988 -0.1526 -0.0014 -0.3286
 3247SOL    HW115833   1.008   3.477   6.954  0.1390  0.0662 -0.1250
 3247SOL    HW215834   1.033   3.333   6.915  0.5116  0.1469 -0.1870
 3248SOL     OW15835   6.355   0.439   7.079 -0.4835  0.7140 -0.0383
 3248SOL    HW115836   6.348   0.383   7.156  0.9801 -0.4801 -0.6993
 3248SOL    HW215837   6.325   0.383   7.007  2.2370  0.1931 -0.9050
 3249SOL     OW15838   2.887   0.399   6.313 -0.0310 -0.2004 -0.0603
 3249SOL    HW115839   2.942   0.427   6.240 -0.9287 -0.3395 -0.8183
 3249SOL    HW215840   2.877   0.477   6.367  1.0365 -0.2191  0.1828
 3250SOL     OW15841   0.094   0.723   9.419 -0.0916 -0.0626  0.6685
 3250SOL    HW115842   0.055   0.699   9.503 -0.4941  0.7175  0.7146
 3250SOL    HW215843   0.177   0.675   9.417  0.3074  0.5350  1.8735
 3251SOL     OW15844  10.637   5.808   0.027  0.6267  0.2211  0.7051
 3251SOL    HW115845  10.718   5.774  -0.012 -0.4871 -1.7338 -0.0327
 3251SOL    HW215846  10.637   5.773   0.116  0.6060  0.2543  0.7179
 3252SOL     OW15847   1.210   3.557   2.301 -0.0470  0.3921 -0.0174
 3252SOL    HW115848   1.213   3.489   2.234 -1.2152  0.0160  0.2837
 3252SOL    HW215849   1.119   3.557   2.331  0.5111  0.3349  1.7826
 3253SOL     OW15850   1.171   8.707   9.137  0.0516 -0.1613 -0.1507
 3253SOL    HW115851   1.225   8.700   9.216 -2.2153 -0.6523  1.4566
 3253SOL    HW215852   1.150   8.801   9.131  1.0006  0.0299 -0.7750
 3254SOL     OW15853   1.921   0.770   9.700  0.6379 -0.1954  0.7992
 3254SOL    HW115854   1.864   0.717   9.644  0.8180 -0.7635  1.1462
 3254SOL    HW215855   1.996   0.791   9.645 -0.1624  1.0661  0.1390
 3255SOL     OW15856   8.127   7.444   7.516 -0.0382 -0.6816 -0.2256
 3255SOL    HW115857   8.042   7.486   7.525  0.7756  0.6949  2.0691
 3255SOL    HW215858   8.173   7.497   7.450 -0.4912 -0.5595 -0.4426
 3256SOL     OW15859   9.653   5.476   9.234 -0.4573 -0.4532 -0.3969
 3256SOL    HW115860   9.600   5.399   9.254 -2.5199  1.1259  0.7137
 3256SOL    HW215861   9.735   5.462   9.281 -1.0221 -1.7016  0.2696
 3257SOL     OW15862   1.098   0.628   3.215 -0.0366  0.2701  0.4936
 3257SOL    HW115863   1.023   0.687   3.205  0.3176  0.6941  0.2824
 3257SOL    HW215864   1.118   0.631   3.309  1.4887  2.4064  0.1558
 3258SOL     OW15865   8.037   0.366   3.559  0.4618  0.0212  0.0573
 3258SOL    HW115866   7.947   0.361   3.590  0.3628 -0.1361 -0.2561
 3258SOL    HW215867   8.061   0.458   3.572 -0.2321  0.4069 -1.2067
 3259SOL     OW15868   0.969   1.533   3.372  0.3615  0.6381  0.8009
 3259SOL    HW115869   1.021   1.466   3.329 -0.4659 -0.3839  1.3368
 3259SOL    HW215870   1.005   1.539   3.460  1.0360  1.5854  0.4691
 3260SOL     OW15871   2.453   7.249   9.320  0.3170  0.1675  0.3496
 3260SOL    HW115872   2.464   7.154   9.325 -1.0800  0.0173  1.2374
 3260SOL    HW215873   2.363   7.261   9.290  1.2755  1.2480 -2.4446
 3261SOL     OW15874   0.373   7.928   6.206  0.2366  0.2015 -0.4243
 3261SOL    HW115875   0.312   7.945   6.278  0.0818  0.4937 -0.6204
 3261SOL    HW215876   0.347   7.842   6.172  1.3263 -0.6776  0.8779
 3262SOL     OW15877   7.989   1.944   8.063 -0.6577 -0.8967  0.6866
 3262SOL    HW115878   7.980   1.939   8.158  0.0924  1.0948  0.9187
 3262SOL    HW215879   7.908   1.906   8.029 -0.6675 -2.2210  2.0755
 3263SOL     OW15880   3.161   2.022   6.439  0.1837  0.1544 -0.0918
 3263SOL    HW115881   3.139   2.080   6.512  0.8793  0.4769 -0.1295
 3263SOL    HW215882   3.249   1.990   6.459  0.4560  0.3893 -0.8808
 3264SOL     OW15883   2.303   2.175   7.581  0.0082  0.4550 -0.2712
 3264SOL    HW115884   2.354   2.217   7.512 -0.2564 -0.1238 -0.8171
 3264SOL    HW215885   2.226   2.230   7.592 -1.3875 -0.9359 -2.4201
 3265SOL     OW15886   6.242   9.045   1.497 -0.0754  0.3898  0.3516
 3265SOL    HW115887   6.317   9.084   1.542 -0.5461  0.5398  1.0301
 3265SOL    HW215888   6.272   9.031   1.408  1.0535 -0.3716  0.8240
 3266SOL     OW15889   9.941   3.233   6.206  0.2600  0.2462 -0.4010
 3266SOL    HW115890   9.939   3.325   6.233 -1.6453  0.6771 -1.7697
 3266SOL    HW215891  10.027   3.202   6.233  0.7518  2.2732  0.5904
 3267SOL     OW15892   3.990   0.307   0.290  0.0454 -0.5545  0.1105
 3267SOL    HW115893   4.077   0.319   0.253  0.9076 -1.7509  1.6886
 3267SOL    HW215894   3.969   0.215   0.275  0.3108 -1.0124  2.2846
 3268SOL     OW15895   9.747   0.142   7.338 -0.6347  0.6460  0.2738
 3268SOL    HW115896   9.804   0.148   7.261  0.4906  0.7866  1.0829
 3268SOL    HW215897   9.756   0.051   7.366 -1.3192  0.5038  0.0444
 3269SOL     OW15898   0.199   1.820   2.804 -0.2982  0.1922 -0.0443
 3269SOL    HW115899   0.264   1.769   2.853 -2.1199 -0.3376  1.9987
 3269SOL    HW215900   0.180   1.894   2.861 -0.8881  0.7885 -0.9949
 3270SOL     OW15901   0.780   9.547   0.413 -0.7044  0.6608  0.0031
 3270SOL    HW115902   0.738   9.549   0.328 -0.2346  0.6330 -0.2318
 3270SOL    HW215903   0.871   9.522   0.395 -0.2552  1.9577  0.3574
 3271SOL     OW15904   2.465  10.927   6.018 -0.3632  0.0899  0.4718
 3271SOL    HW115905   2.543  10.958   5.972  0.8953 -2.2676  0.8359
 3271SOL    HW215906   2.423  11.006   6.051  0.1826  1.6718 -2.3076
 3272SOL     OW15907   6.302   0.992   7.004 -0.1059  1.1876 -0.6944
 3272SOL    HW115908   6.396   0.977   6.990 -0.0403  0.5171  0.3766
 3272SOL    HW215909   6.264   0.987   6.916  0.3525 -2.2741 -0.8341
 3273SOL     OW15910   6.272   6.260   2.364 -0.9457  0.7279  0.0307
 3273SOL    HW115911   6.348   6.201   2.362 -0.7674  0.9830 -1.2526
 3273SOL    HW215912   6.229   6.239   2.447 -0.0971 -0.2115  0.2637
 3274SOL     OW15913   8.935   5.062  10.838 -0.5690 -0.1154  0.0160
 3274SOL    HW115914   8.948   4.982  10.888  0.1263  0.9572  1.6238
 3274SOL    HW215915   8.898   5.033  10.755  1.3442 -2.2863 -0.1783
 3275SOL     OW15916   2.250   2.495   7.288  0.0624 -0.4341 -0.3334
 3275SOL    HW115917   2.262   2.558   7.360  0.9524 -1.7099  0.6781
 3275SOL    HW215918   2.301   2.419   7.314 -0.9093 -1.5603 -1.5780
 3276SOL     OW15919   6.253   9.918   1.955  0.3095 -0.6101 -0.3458
 3276SOL    HW115920   6.346   9.931   1.973  0.0286  0.1287  0.6672
 3276SOL    HW215921   6.236   9.828   1.984  0.5777 -0.5362  0.0556
 3277SOL     OW15922   4.361  10.655  10.400  0.0685  0.0778 -0.1607
 3277SOL    HW115923   4.327  10.731  10.447 -0.1819  0.2215 -0.5711
 3277SOL    HW215924   4.386  10.593  10.469  0.2450  0.5177  0.1727
 3278SOL     OW15925   3.808   4.847   3.334  0.4236 -0.2550  0.3475
 3278SOL    HW115926   3.810   4.802   3.419  0.7926 -0.2077  0.3657
 3278SOL    HW215927   3.726   4.896   3.334  1.0458  0.8124  1.2246
 3279SOL     OW15928   8.025   7.296   6.651 -0.1504 -0.2679  0.4519
 3279SOL    HW115929   8.052   7.355   6.721  1.9637 -0.9760  0.2777
 3279SOL    HW215930   8.091   7.227   6.649 -1.2074 -1.3208 -0.9792
 3280SOL     OW15931  10.575   0.063   4.184  0.1559 -0.3372  0.2277
 3280SOL    HW115932  10.517   0.138   4.192 -1.3065 -1.4750  0.6960
 3280SOL    HW215933  10.528   0.001   4.127  1.5480 -0.7188 -0.5804
 3281SOL     OW15934   2.685   7.729   5.048  0.5869 -0.1015 -0.0318
 3281SOL    HW115935   2.613   7.667   5.039  1.0836 -0.5756 -0.8874
 3281SOL    HW215936   2.663   7.781   5.125 -2.6685  2.4497 -2.4304
 3282SOL     OW15937   6.902   0.468   6.999 -0.3674 -0.1402 -0.0243
 3282SOL    HW115938   6.820   0.436   6.960  0.0515  0.6699 -1.6888
 3282SOL    HW215939   6.882   0.483   7.091 -1.8137 -0.8581 -0.2006
 3283SOL     OW15940   5.865   8.831   2.183 -0.0565 -0.2631  0.0039
 3283SOL    HW115941   5.957   8.814   2.203  0.0285  0.8068  0.5935
 3283SOL    HW215942   5.831   8.876   2.261 -0.5460  1.1590 -0.9903
 3284SOL     OW15943   1.342   3.261   4.131 -0.5856  0.1258 -0.4704
 3284SOL    HW115944   1.275   3.233   4.069 -0.0487 -1.5168 -0.3506
 3284SOL    HW215945   1.376   3.180   4.168  1.1670  0.9436 -0.2011
 3285SOL     OW15946   3.977   6.860   8.964 -0.0842  0.4689  0.2542
 3285SOL    HW115947   3.963   6.766   8.958  0.6235  0.0677  3.2760
 3285SOL    HW215948   4.072   6.871   8.953 -0.3562  1.1231 -1.9773
 3286SOL     OW15949   3.670   3.298   4.732 -0.2963  0.3682  0.2404
 3286SOL    HW115950   3.716   3.316   4.650  0.5276  0.2032  0.6523
 3286SOL    HW215951   3.737   3.258   4.788 -0.6517  1.1299  1.2341
 3287SOL     OW15952   8.646   3.434  10.386  0.2378  0.4163  0.3381
 3287SOL    HW115953   8.659   3.517  10.340 -3.4924  0.5520 -0.7667
 3287SOL    HW215954   8.653   3.457  10.478  0.0729  1.8135  0.0289
 3288SOL     OW15955   4.891   6.597   8.819 -0.3137 -0.3206 -0.3025
 3288SOL    HW115956   4.924   6.681   8.852 -0.6699 -0.2087 -0.2231
 3288SOL    HW215957   4.892   6.539   8.895  1.5273 -0.9000 -0.7159
 3289SOL     OW15958   4.796   5.283   5.278 -0.2726  0.7243  0.3528
 3289SOL    HW115959   4.837   5.349   5.222 -0.2880  0.7821  0.4096
 3289SOL    HW215960   4.863   5.260   5.342  0.7469 -1.3610 -1.3360
 3290SOL     OW15961   0.212   7.463   9.876 -0.4870  0.0248  0.0531
 3290SOL    HW115962   0.209   7.495   9.786 -1.1874  1.1200  0.4459
 3290SOL    HW215963   0.130   7.415   9.887  0.1113 -1.1173 -0.2215
 3291SOL     OW15964  10.899  10.144   0.325 -0.2593 -0.0534 -0.5319
 3291SOL    HW115965  10.980  10.167   0.371 -0.3157  2.0193 -1.3864
 3291SOL    HW215966  10.925  10.075   0.264  0.7971  0.3676 -0.5753
 3292SOL     OW15967   3.017   6.965   0.712  0.2008  0.0137 -0.4316
 3292SOL    HW115968   2.985   6.950   0.623 -0.0096 -0.4050 -0.2847
 3292SOL    HW215969   2.947   7.014   0.754 -0.4463 -1.2413  0.0099
 3293SOL     OW15970   2.429   7.943   1.007  0.4715  0.5241  0.4846
 3293SOL    HW115971   2.444   8.032   1.037  0.9029 -0.2107  2.6105
 3293SOL    HW215972   2.341   7.922   1.036  0.7298 -0.0600  0.8691
 3294SOL     OW15973   6.275   4.541   9.362 -0.2704  0.6047  0.5409
 3294SOL    HW115974   6.286   4.634   9.345 -0.4760  0.4626 -0.4576
 3294SOL    HW215975   6.232   4.507   9.283  0.9497 -0.5489  0.3216
 3295SOL     OW15976   8.114   3.904   9.835  0.0857  0.1044  0.2436
 3295SOL    HW115977   8.102   3.812   9.861  0.4829  0.3143  1.2043
 3295SOL    HW215978   8.164   3.943   9.906 -1.8581  1.5814  0.8822
 3296SOL     OW15979   5.120  10.808   5.054 -0.2919  0.1352  0.0723
 3296SOL    HW115980   5.162  10.826   4.970 -1.1725 -0.9633 -0.6328
 3296SOL    HW215981   5.142  10.717   5.073  1.2759  0.8039  1.8901
 3297SOL     OW15982   9.004   5.200   6.266  0.0304 -0.0932  0.6028
 3297SOL    HW115983   9.086   5.192   6.217 -0.0852  2.5280 -0.1947
 3297SOL    HW215984   8.940   5.151   6.214  0.6533 -0.3194  0.0358
 3298SOL     OW15985   6.701   9.855   6.886  0.1670 -0.1316  0.3830
 3298SOL    HW115986   6.750   9.824   6.810 -1.4810  1.3873 -1.4099
 3298SOL    HW215987   6.746   9.817   6.961  1.7201 -1.9130 -1.3480
 3299SOL     OW15988  10.617   7.109  10.855 -0.0677 -0.5724  0.1777
 3299SOL    HW115989  10.638   7.108  10.948 -1.9313 -1.2580  0.6300
 3299SOL    HW215990  10.699   7.084  10.812  0.4524 -1.6676  1.7177
 3300SOL     OW15991   2.785   8.677   3.397 -0.5748 -0.1332  0.0139
 3300SOL    HW115992   2.794   8.677   3.302 -0.8723 -0.8355 -0.0163
 3300SOL    HW215993   2.805   8.767   3.422  0.9527 -0.2763 -0.5683
 3301SOL     OW15994   8.820  10.424   0.793  0.0273  0.0636  0.2449
 3301SOL    HW115995   8.880  10.351   0.809  0.3741  0.3393  0.2175
 3301SOL    HW215996   8.743  10.384   0.753  1.0643 -0.0569 -1.8038
 3302SOL     OW15997   9.148   3.237   1.407 -0.1102 -0.0426  0.2860
 3302SOL    HW115998   9.180   3.159   1.453 -0.9835  1.6544  4.1643
 3302SOL    HW215999   9.200   3.309   1.444 -0.7734  1.5119 -1.6307
 3303SOL     OW16000   5.784   0.893   1.292 -0.1621 -0.3532  0.0139
 3303SOL    HW116001   5.868   0.929   1.320 -0.5075 -0.1312  0.7805
 3303SOL    HW216002   5.763   0.941   1.212  0.6740 -0.7652 -0.4640
 3304SOL     OW16003   2.032   4.368   5.566 -0.0339  0.0662 -0.6092
 3304SOL    HW116004   1.971   4.316   5.513 -1.0377  0.9945 -0.4061
 3304SOL    HW216005   2.095   4.305   5.599 -1.3416 -1.0742 -0.2013
 3305SOL     OW16006   9.910   6.906   7.963 -0.1322 -0.1675 -0.3804
 3305SOL    HW116007   9.880   6.997   7.976  0.2063 -0.1641  0.4473
 3305SOL    HW216008   9.897   6.890   7.870 -0.0527  0.7902 -0.5716
 3306SOL     OW16009   3.644   3.805   0.163 -0.5057  0.3267  0.2344
 3306SOL    HW116010   3.708   3.854   0.214 -1.4654 -0.6089  2.4404
 3306SOL    HW216011   3.686   3.721   0.146  0.0374  0.8261 -1.1443
 3307SOL     OW16012   1.056   0.337   9.313 -0.1943 -0.2348  1.2743
 3307SOL    HW116013   1.046   0.248   9.279 -0.6328 -0.4468  1.9402
 3307SOL    HW216014   0.985   0.347   9.377  0.3593  0.2973  1.8174
 3308SOL     OW16015   6.840   0.935   0.688 -0.9667 -0.1425  0.8494
 3308SOL    HW116016   6.769   0.974   0.637 -0.0689  1.6963  0.9358
 3308SOL    HW216017   6.896   1.009   0.712  1.3999 -1.6175  0.1604
 3309SOL     OW16018   5.261   7.748  10.690 -0.2237  0.5214 -0.0448
 3309SOL    HW116019   5.256   7.699  10.607 -1.0985 -0.4372  0.5536
 3309SOL    HW216020   5.332   7.810  10.676  0.1500 -0.1333 -1.2485
 3310SOL     OW16021   7.336   3.977   7.143  0.2779  0.1962 -0.0092
 3310SOL    HW116022   7.398   3.950   7.212 -2.0176 -1.8310  1.4077
 3310SOL    HW216023   7.365   3.930   7.065  1.4566  0.5976  0.1580
 3311SOL     OW16024   9.837   8.270   1.155 -0.1935 -0.1897 -0.6071
 3311SOL    HW116025   9.803   8.258   1.243  0.1087 -0.6596 -0.5522
 3311SOL    HW216026   9.763   8.251   1.097 -1.4285  3.3754 -0.4444
 3312SOL     OW16027   2.299   6.060   9.151  0.1871 -0.8937 -0.2054
 3312SOL    HW116028   2.216   6.106   9.163 -0.4701 -2.1415  0.2257
 3312SOL    HW216029   2.366   6.124   9.175 -0.7692 -1.0379  3.5182
 3313SOL     OW16030   7.469  10.803  10.854  0.4341 -0.7436 -0.0408
 3313SOL    HW116031   7.399  10.805  10.789  0.4767 -1.3271 -0.1074
 3313SOL    HW216032   7.447  10.874  10.915  0.2086 -0.4236 -0.4929
 3314SOL     OW16033   8.679   5.268   7.715  0.4338  0.2575  0.6658
 3314SOL    HW116034   8.638   5.343   7.672 -0.8635  0.5843  2.3642
 3314SOL    HW216035   8.610   5.202   7.721  1.3813 -0.8713 -0.2392
 3315SOL     OW16036   8.048   6.605   6.432 -0.4191  0.2333  0.0533
 3315SOL    HW116037   8.125   6.643   6.474 -0.2139 -0.6841  0.5262
 3315SOL    HW216038   8.025   6.667   6.363  1.5880 -0.1271 -1.0140
 3316SOL     OW16039  10.152   7.179  10.068  0.1169  0.1457 -0.0770
 3316SOL    HW116040  10.174   7.258  10.118 -1.0121  0.7864 -0.5552
 3316SOL    HW216041  10.107   7.211   9.990 -1.6606 -1.0123  0.4094
 3317SOL     OW16042   9.891   3.666   6.900 -0.0233 -0.2284 -0.2956
 3317SOL    HW116043   9.925   3.645   6.987  0.0670 -0.9436 -0.4907
 3317SOL    HW216044   9.814   3.611   6.891  0.7912 -1.2780 -1.2209
 3318SOL     OW16045   0.630   2.315   9.350 -0.0388 -0.4792  0.1934
 3318SOL    HW116046   0.670   2.276   9.428 -0.9858  0.7293  1.3425
 3318SOL    HW216047   0.614   2.241   9.292 -1.3492 -1.7955  2.1021
 3319SOL     OW16048   9.529   8.544   9.732 -0.0655 -0.1893  0.5908
 3319SOL    HW116049   9.559   8.579   9.648 -0.3548  0.2572  0.6700
 3319SOL    HW216050   9.573   8.460   9.740  0.1188 -0.1452  0.0819
 3320SOL     OW16051   7.397   1.981   2.648  0.8646 -0.5291  0.7416
 3320SOL    HW116052   7.373   2.044   2.716 -3.8918 -2.4122  1.1901
 3320SOL    HW216053   7.410   1.898   2.695  1.7174 -1.0305 -0.3241
 3321SOL     OW16054  10.745   9.689   1.541  0.0921  0.5256  0.0106
 3321SOL    HW116055  10.782   9.759   1.488 -0.1165 -1.5837 -3.1749
 3321SOL    HW216056  10.819   9.656   1.592  0.3445  2.4682  1.0115
 3322SOL     OW16057   8.678   4.471   9.690 -0.1285  0.5309 -0.4556
 3322SOL    HW116058   8.761   4.425   9.702 -0.3510 -0.5102 -2.4685
 3322SOL    HW216059   8.621   4.407   9.647 -1.4806  1.7102 -0.4883
 3323SOL     OW16060  10.185   6.291   2.671 -0.4541  0.4939  0.0480
 3323SOL    HW116061  10.163   6.199   2.686 -1.1402  0.2708 -2.0001
 3323SOL    HW216062  10.278   6.291   2.649 -0.2405  0.4211  0.9192
 3324SOL     OW16063   9.444   8.475   7.020  0.0760  0.5287 -0.5958
 3324SOL    HW116064   9.425   8.410   6.953  0.0686 -1.5535  1.3096
 3324SOL    HW216065   9.358   8.509   7.045  0.0577  1.1029 -1.3990
 3325SOL     OW16066   8.208   3.889   8.782  0.2348 -0.4521 -0.5499
 3325SOL    HW116067   8.275   3.911   8.848  0.3141  2.0476 -1.3617
 3325SOL    HW216068   8.125   3.903   8.827  0.2889  0.1780 -0.6337
 3326SOL     OW16069   6.838   5.992   2.169 -0.2157 -0.4880 -0.0964
 3326SOL    HW116070   6.772   5.923   2.160  0.0644 -0.6005 -1.7177
 3326SOL    HW216071   6.790   6.074   2.159 -0.2366 -0.5342 -0.3727
 3327SOL     OW16072   6.920   1.357   2.522 -0.5650 -0.1022 -0.3760
 3327SOL    HW116073   6.989   1.333   2.583 -1.3655  0.1794  0.6750
 3327SOL    HW216074   6.905   1.451   2.538 -1.2486 -0.1774 -0.5167
 3328SOL     OW16075   6.793   7.920   3.388 -0.2273 -0.4198 -0.3749
 3328SOL    HW116076   6.866   7.923   3.327  0.9752 -0.7770  0.9746
 3328SOL    HW216077   6.795   8.005   3.432  2.4562 -1.9751  2.9621
 3329SOL     OW16078   8.109   0.060   8.719  0.4480 -0.2368 -0.2890
 3329SOL    HW116079   8.077   0.145   8.750 -0.8567 -0.4169 -1.0400
 3329SOL    HW216080   8.182   0.080   8.661  1.2707  0.2493  0.8871
 3330SOL     OW16081  10.791   9.380   0.782  0.2041  0.2435 -0.4659
 3330SOL    HW116082  10.849   9.333   0.841 -0.1401 -1.2682 -1.2631
 3330SOL    HW216083  10.755   9.451   0.835  0.4451 -0.6301  0.9349
 3331SOL     OW16084  10.608   7.114   6.481  0.1255  0.2704 -0.2220
 3331SOL    HW116085  10.659   7.169   6.422 -0.2523  0.3193 -0.5052
 3331SOL    HW216086  10.563   7.176   6.539  0.0966  0.2423 -0.2139
 3332SOL     OW16087   9.641   0.232   1.337  0.0285  0.3567  0.4659
 3332SOL    HW116088   9.664   0.174   1.410  0.2819  1.1099  1.0016
 3332SOL    HW216089   9.662   0.181   1.259 -1.4279 -0.9420  0.8754
 3333SOL     OW16090   2.150   9.903   9.583 -0.1554  0.1798  0.1092
 3333SOL    HW116091   2.075   9.953   9.615 -0.9267  0.5954 -2.1596
 3333SOL    HW216092   2.222   9.966   9.581 -0.0267  0.0787  1.2135
 3334SOL     OW16093   3.662   4.762   6.676  0.5776  0.6755 -0.2502
 3334SOL    HW116094   3.632   4.676   6.645  4.0790 -0.4202 -1.0519
 3334SOL    HW216095   3.582   4.809   6.698 -1.5419 -2.5132 -0.4903
 3335SOL     OW16096   2.037   3.301   2.753  0.1250  0.7172  0.1706
 3335SOL    HW116097   1.950   3.317   2.714  0.3465  0.6111 -0.3779
 3335SOL    HW216098   2.091   3.372   2.719 -0.0168  1.4677  1.4423
 3336SOL     OW16099   8.312  10.427   6.082  0.5888 -0.0635 -0.4782
 3336SOL    HW116100   8.334  10.519   6.096  0.9257 -0.0490 -1.0999
 3336SOL    HW216101   8.360  10.402   6.003 -0.9886 -0.2472 -1.4135
 3337SOL     OW16102   4.783   3.449   0.044  0.5119  0.0353  0.2935
 3337SOL    HW116103   4.824   3.392   0.108  0.5555  0.4712  0.6587
 3337SOL    HW216104   4.689   3.438   0.058  0.4306 -1.9415 -1.3979
 3338SOL     OW16105   2.040   1.874   5.566 -0.8762  0.0697 -0.1006
 3338SOL    HW116106   2.002   1.961   5.578 -0.0489  0.4628 -0.2307
 3338SOL    HW216107   1.979   1.830   5.507 -0.6290  1.0360 -1.1219
 3339SOL     OW16108   7.571   5.506   5.180 -0.2748 -0.2383  0.3276
 3339SOL    HW116109   7.625   5.586   5.179  1.1769 -1.1727  0.7332
 3339SOL    HW216110   7.546   5.496   5.272 -1.1530  0.1692  0.1468
 3340SOL     OW16111   9.507   1.324  10.632 -0.1340  0.0907 -0.0159
 3340SOL    HW116112   9.518   1.259  10.563 -0.7761  0.0474 -0.0838
 3340SOL    HW216113   9.551   1.285  10.708 -0.9009 -0.6407  0.0710
 3341SOL     OW16114   0.173   1.520   8.920  0.1431 -0.3818  0.6688
 3341SOL    HW116115   0.155   1.426   8.918  0.8976 -0.5490  1.3981
 3341SOL    HW216116   0.090   1.560   8.894 -0.0866 -1.2540 -0.0019
 3342SOL     OW16117   8.835   0.445   8.844 -0.2677 -0.3243  0.5161
 3342SOL    HW116118   8.799   0.412   8.762 -2.2065  1.4783  0.5677
 3342SOL    HW216119   8.759   0.462   8.899  0.8683  0.4550  1.9234
 3343SOL     OW16120   8.557   6.797   8.084 -0.2693  0.4388  0.2512
 3343SOL    HW116121   8.481   6.845   8.118  0.4013 -0.5759  3.4334
 3343SOL    HW216122   8.632   6.846   8.117  0.5495  0.9459 -2.1661
 3344SOL     OW16123   6.688  10.207   2.842 -0.2016  0.4115 -0.7799
 3344SOL    HW116124   6.671  10.161   2.760 -1.3004 -1.1182  0.2620
 3344SOL    HW216125   6.601  10.235   2.872  0.0622  0.0784  0.3450
 3345SOL     OW16126   6.670   3.419   5.818  0.3712 -0.6420 -0.0299
 3345SOL    HW116127   6.631   3.409   5.905  0.0486 -0.9671 -0.2068
 3345SOL    HW216128   6.677   3.513   5.805  1.3168 -0.5895  0.7398
 3346SOL     OW16129  10.044   3.804   4.585  0.3824 -1.1253 -0.0527
 3346SOL    HW116130  10.034   3.869   4.654 -0.7607 -0.0222 -1.2227
 3346SOL    HW216131  10.093   3.849   4.516  0.8340 -1.9725 -0.3066
 3347SOL     OW16132   6.591   4.979   0.062 -0.0563  0.4649 -0.2970
 3347SOL    HW116133   6.606   4.983  -0.033  0.1001  1.3200 -0.2460
 3347SOL    HW216134   6.645   5.049   0.098  1.7833 -1.3671  0.6999
 3348SOL     OW16135   5.991   8.570   9.579  0.6459 -0.0632  0.1694
 3348SOL    HW116136   5.939   8.602   9.652  0.2957 -0.1626 -0.0328
 3348SOL    HW216137   5.937   8.587   9.501  1.5072  1.1146 -0.1986
 3349SOL     OW16138   8.011   1.387   2.105 -0.1775  0.1643  0.3274
 3349SOL    HW116139   8.106   1.402   2.099 -0.1011 -0.4843 -0.2494
 3349SOL    HW216140   7.998   1.304   2.059 -1.0358  0.2784  0.3645
 3350SOL     OW16141   9.455   1.208   8.162 -0.3541 -0.0480  0.2856
 3350SOL    HW116142   9.541   1.231   8.125 -0.4880  0.1215  0.0828
 3350SOL    HW216143   9.399   1.282   8.141 -0.3779  0.1458  1.0232
 3351SOL     OW16144   6.407   4.311   3.768  0.7322 -0.1788  0.1464
 3351SOL    HW116145   6.431   4.355   3.849 -2.8676  1.2603  0.5980
 3351SOL    HW216146   6.392   4.220   3.793  1.7965 -0.2537  0.5697
 3352SOL     OW16147   9.672   7.358   2.156  0.0445 -0.1401 -0.1294
 3352SOL    HW116148   9.648   7.305   2.231 -0.5307 -0.2637 -0.3980
 3352SOL    HW216149   9.592   7.366   2.105  0.6962 -1.0473 -1.3432
 3353SOL     OW16150   9.078   8.775   2.173 -0.3997 -0.0973  0.7252
 3353SOL    HW116151   9.168   8.752   2.151 -0.6468 -0.1620 -0.2909
 3353SOL    HW216152   9.029   8.693   2.166 -1.0485  0.4064 -1.6622
 3354SOL     OW16153   6.084   9.852   0.776 -0.2594 -0.0214  0.0064
 3354SOL    HW116154   6.029   9.929   0.764  0.2675  0.4885  0.7409
 3354SOL    HW216155   6.033   9.795   0.834  0.2781  0.8048  1.3519
 3355SOL     OW16156   7.613   5.902   7.403  0.1958 -0.2654  0.1451
 3355SOL    HW116157   7.670   5.846   7.456 -0.7993 -2.3177 -0.8494
 3355SOL    HW216158   7.555   5.944   7.466  0.9329 -0.3626  0.9117
 3356SOL     OW16159   9.494   2.943   5.506  0.6436 -0.3027  0.0934
 3356SOL    HW116160   9.548   3.001   5.559  1.2916  0.4017 -1.2883
 3356SOL    HW216161   9.454   3.000   5.440 -0.2035 -1.1297 -0.1377
 3357SOL     OW16162   7.707   1.318   0.985  0.3143 -0.3147  0.0277
 3357SOL    HW116163   7.678   1.241   0.935  0.0444 -0.7716  0.8735
 3357SOL    HW216164   7.781   1.352   0.934 -0.1569 -0.5739 -0.8584
 3358SOL     OW16165   6.786   0.343   1.232  0.3510 -0.0359  0.0652
 3358SOL    HW116166   6.771   0.346   1.326  0.2021  0.1211  0.0377
 3358SOL    HW216167   6.825   0.257   1.216  0.1230 -0.1712  0.2333
 3359SOL     OW16168   1.590   3.563   4.193  0.2151 -0.3495  0.4491
 3359SOL    HW116169   1.513   3.507   4.201  0.1763 -0.2634  0.6854
 3359SOL    HW216170   1.624   3.544   4.106  0.0757 -0.5784  0.4429
 3360SOL     OW16171   0.164   1.116   6.168  0.0978 -0.1835 -0.3577
 3360SOL    HW116172   0.139   1.209   6.169  0.3292 -0.1077 -0.8228
 3360SOL    HW216173   0.082   1.069   6.155  0.0413 -0.0073 -0.6728
 3361SOL     OW16174   3.617   4.485   1.036  0.0140 -0.0484 -0.0683
 3361SOL    HW116175   3.637   4.406   1.085 -0.1353 -1.2979 -1.9462
 3361SOL    HW216176   3.679   4.484   0.963 -0.4854  1.1795 -0.5374
 3362SOL     OW16177   6.239   6.947   4.365 -0.3899 -0.2105  0.3037
 3362SOL    HW116178   6.284   6.995   4.435 -1.9628  1.0685  0.5053
 3362SOL    HW216179   6.305   6.888   4.330  1.3701  1.3917  0.7418
 3363SOL     OW16180   5.802   8.994   8.419  0.4431 -0.0827 -0.3251
 3363SOL    HW116181   5.753   8.928   8.368 -1.4601  0.9289  0.1203
 3363SOL    HW216182   5.868   9.026   8.358  0.0658 -0.9449 -1.2239
 3364SOL     OW16183   4.628   5.566   4.058 -0.3127 -0.4179  0.2980
 3364SOL    HW116184   4.534   5.566   4.073 -0.7682  1.3629 -2.0139
 3364SOL    HW216185   4.657   5.653   4.085  0.5518 -0.6737  0.2412
 3365SOL     OW16186   1.995   2.270   4.352  0.1418 -0.4954 -0.3657
 3365SOL    HW116187   1.966   2.231   4.435 -1.4955 -0.0145 -0.6875
 3365SOL    HW216188   1.948   2.353   4.346  1.3181  0.1398 -1.1242
 3366SOL     OW16189   2.513   7.109   8.647  0.4735 -0.0443  0.1885
 3366SOL    HW116190   2.603   7.136   8.666  1.5062 -2.4170 -0.9115
 3366SOL    HW216191   2.482   7.070   8.729  0.3247  0.9995  0.6454
 3367SOL     OW16192   6.740   8.745   9.171  0.0407 -0.0449 -0.5531
 3367SOL    HW116193   6.833   8.738   9.150  0.2269 -0.7973  0.4189
 3367SOL    HW216194   6.696   8.691   9.105  0.4423 -0.9248 -0.1204
 3368SOL     OW16195   3.478  10.544   4.364  0.4620 -0.3887 -0.4342
 3368SOL    HW116196   3.572  10.532   4.375  0.5015  0.3189  0.0787
 3368SOL    HW216197   3.466  10.550   4.269  1.3881  2.6078 -0.4600
 3369SOL     OW16198   5.900   2.788   3.900 -0.2172 -0.2910 -0.4028
 3369SOL    HW116199   5.874   2.806   3.810 -1.0444 -0.1952 -0.1463
 3369SOL    HW216200   5.820   2.761   3.944  0.6435 -3.2074 -0.3917
 3370SOL     OW16201   6.080   6.731   2.237 -0.1968  0.3949 -0.0802
 3370SOL    HW116202   6.009   6.696   2.289 -0.3662 -0.1281 -0.6560
 3370SOL    HW216203   6.132   6.655   2.211  0.2015  0.7047 -0.2194
 3371SOL     OW16204   7.415   7.092   6.664  0.0433 -0.1078  0.0547
 3371SOL    HW116205   7.331   7.132   6.686 -0.5040 -0.5290 -1.1473
 3371SOL    HW216206   7.436   7.037   6.740 -1.1949 -0.6387  0.0427
 3372SOL     OW16207   1.013   9.700   4.028 -0.6717  0.5086  0.0814
 3372SOL    HW116208   1.035   9.661   3.944 -0.2955  1.8432 -0.4647
 3372SOL    HW216209   0.934   9.751   4.011 -2.5210 -1.7692  1.3154
 3373SOL     OW16210   6.350   0.090   6.986 -0.1140  0.1895  0.6017
 3373SOL    HW116211   6.305   0.151   6.927 -1.0741 -2.5017 -1.6756
 3373SOL    HW216212   6.435   0.075   6.946 -0.1121 -0.3697  0.7997
 3374SOL     OW16213   9.411   6.553   9.017 -0.2709 -0.4220 -0.6367
 3374SOL    HW116214   9.486   6.610   8.999  0.4167 -0.6396  1.2030
 3374SOL    HW216215   9.446   6.489   9.079 -2.0284 -0.4339  0.3980
 3375SOL     OW16216   3.898   8.138   9.268 -0.0432 -0.8091  0.0342
 3375SOL    HW116217   3.804   8.156   9.268  0.1559  0.3239 -0.3588
 3375SOL    HW216218   3.922   8.138   9.361 -0.2790 -0.2317  0.0959
 3376SOL     OW16219   4.327   1.325   9.546 -0.1997  0.2083 -0.3072
 3376SOL    HW116220   4.303   1.334   9.454  0.8375 -0.0906 -0.6239
 3376SOL    HW216221   4.350   1.414   9.574  2.5484 -0.1098 -1.2554
 3377SOL     OW16222  10.350   3.839   0.978 -0.7511  0.0699  0.7063
 3377SOL    HW116223  10.409   3.880   1.042  0.7334 -0.8345 -0.0462
 3377SOL    HW216224  10.321   3.759   1.021 -0.6461  0.0234  0.6914
 3378SOL     OW16225   4.355   0.772   2.561 -0.7304 -0.1755  0.3804
 3378SOL    HW116226   4.382   0.747   2.472  1.1207 -2.0908  1.3999
 3378SOL    HW216227   4.260   0.766   2.560 -0.6184 -3.8856 -0.5235
 3379SOL     OW16228   8.804   6.442   7.771 -0.6777 -0.3214 -0.0784
 3379SOL    HW116229   8.798   6.360   7.722 -1.5679 -0.0624 -0.4252
 3379SOL    HW216230   8.733   6.496   7.736  1.2358  1.4698 -1.4580
 3380SOL     OW16231   1.868   8.791   3.297 -0.0725  0.0618  0.3219
 3380SOL    HW116232   1.810   8.717   3.278 -0.3609  0.1694  0.7610
 3380SOL    HW216233   1.927   8.795   3.222 -1.5245  0.8229 -0.8569
 3381SOL     OW16234   3.196  10.851   6.802  0.3371  0.8650 -0.5109
 3381SOL    HW116235   3.141  10.856   6.880  1.9426 -0.1238  0.7482
 3381SOL    HW216236   3.157  10.913   6.741 -2.7536 -0.4723 -0.0951
 3382SOL     OW16237   3.141  10.455   1.591 -0.1449  0.1616  0.3001
 3382SOL    HW116238   3.142  10.497   1.505  0.6030 -0.7364 -0.1507
 3382SOL    HW216239   3.071  10.500   1.639 -1.5930 -0.2875 -1.2893
 3383SOL     OW16240   3.843   9.070   9.254 -0.3351  0.3023  0.5088
 3383SOL    HW116241   3.913   9.024   9.208 -0.1630  0.6318  0.4379
 3383SOL    HW216242   3.857   9.050   9.346 -0.6658 -0.3406  0.4253
 3384SOL     OW16243   7.826   7.174  10.803 -0.4273  0.6253 -0.3643
 3384SOL    HW116244   7.916   7.195  10.830  0.4180 -1.5883 -1.1935
 3384SOL    HW216245   7.771   7.219  10.867  1.3642 -0.1888  1.9093
 3385SOL     OW16246   2.943   3.635   7.493  0.0702 -0.2095  0.1972
 3385SOL    HW116247   2.935   3.635   7.589  0.5832 -1.3690  0.2486
 3385SOL    HW216248   3.001   3.709   7.475 -1.3561  1.0767  0.6321
 3386SOL     OW16249   9.903   8.134   3.550  0.1059  0.5365  0.2603
 3386SOL    HW116250   9.858   8.195   3.609 -0.2705  0.8404 -0.3174
 3386SOL    HW216251   9.832   8.085   3.508  0.4104 -0.3211  0.7352
 3387SOL     OW16252   0.403   0.854   4.848 -0.0350 -0.0862 -0.1662
 3387SOL    HW116253   0.361   0.909   4.783  1.1940  0.7414 -0.2933
 3387SOL    HW216254   0.428   0.775   4.800  0.0771  0.1442 -0.4892
 3388SOL     OW16255   6.248   2.425   1.752 -0.4889  0.1957 -0.2639
 3388SOL    HW116256   6.244   2.493   1.685  1.8749 -0.8530 -1.5837
 3388SOL    HW216257   6.255   2.473   1.835 -0.9612  1.5097 -0.9489
 3389SOL     OW16258   9.670   7.777   6.197  0.2074  0.0185  0.1782
 3389SOL    HW116259   9.704   7.834   6.129  0.8769  0.5356  0.9211
 3389SOL    HW216260   9.747   7.755   6.251  0.2567 -2.7124 -0.8490
 3390SOL     OW16261  10.061   9.828   0.718 -0.0943 -0.1054 -0.1780
 3390SOL    HW116262   9.991   9.771   0.748 -0.7881  0.7435 -0.1629
 3390SOL    HW216263  10.111   9.848   0.798 -1.1142  1.0229  0.2012
 3391SOL     OW16264   5.317   3.840  10.152 -0.0099 -0.0882  0.1479
 3391SOL    HW116265   5.261   3.778  10.104 -1.2095  0.9293  0.1671
 3391SOL    HW216266   5.305   3.816  10.244  1.9376 -1.7479  0.0509
 3392SOL     OW16267   3.258   5.124   1.561  0.3679  0.1087 -0.0268
 3392SOL    HW116268   3.174   5.083   1.582 -0.2944 -1.7392 -5.0998
 3392SOL    HW216269   3.235   5.205   1.515  1.3447 -0.0547 -0.8389
 3393SOL     OW16270   9.302   8.646   2.111  0.5312  0.5379 -0.1018
 3393SOL    HW116271   9.331   8.665   2.022  2.9072 -2.2666 -0.0719
 3393SOL    HW216272   9.384   8.646   2.162 -0.7829  2.3890  2.2370
 3394SOL     OW16273   8.115   0.489   2.599  0.6026 -0.0283  0.3332
 3394SOL    HW116274   8.113   0.553   2.670 -0.6364 -2.4528  2.6282
 3394SOL    HW216275   8.172   0.419   2.631 -1.8061 -2.2605  0.0081
 3395SOL     OW16276   0.219   0.837   6.837  0.0937  0.3297  0.4325
 3395SOL    HW116277   0.272   0.914   6.815  0.9546 -0.6290 -1.0207
 3395SOL    HW216278   0.250   0.811   6.924  1.2308  0.4759  0.0930
 3396SOL     OW16279   8.110   2.374   9.829 -0.7023  0.5603  0.3325
 3396SOL    HW116280   8.113   2.307   9.761 -1.7798  0.8094  0.0247
 3396SOL    HW216281   8.123   2.326   9.910  0.9464  0.3083 -0.0621
 3397SOL     OW16282   3.255   0.508   9.602 -0.2720 -0.2612  0.0499
 3397SOL    HW116283   3.335   0.527   9.553 -0.6331  1.0398 -0.0695
 3397SOL    HW216284   3.190   0.488   9.536 -0.0707 -1.3338  0.1487
 3398SOL     OW16285   9.887   0.607   4.444 -0.0285 -0.3025  0.4103
 3398SOL    HW116286   9.867   0.616   4.351 -0.8923  0.1221  0.6295
 3398SOL    HW216287   9.978   0.576   4.446  1.1419  2.7558 -0.5047
 3399SOL     OW16288   4.392   7.382   1.094  0.6651  0.0438 -0.1163
 3399SOL    HW116289   4.420   7.349   1.009 -0.7118 -0.2365 -0.4780
 3399SOL    HW216290   4.364   7.304   1.142  1.5728  0.1814  0.6615
 3400SOL     OW16291   8.106   1.163   8.327 -0.0258  0.1763  0.0546
 3400SOL    HW116292   8.132   1.201   8.411  0.8278  0.3256 -0.2691
 3400SOL    HW216293   8.179   1.107   8.302  0.8241  1.9613 -1.7256
 3401SOL     OW16294   5.686  10.682   5.453  0.4956  0.5005  0.1737
 3401SOL    HW116295   5.704  10.597   5.493  0.6743  0.3091 -0.3088
 3401SOL    HW216296   5.596  10.675   5.421  1.3368 -0.4669 -2.2111
 3402SOL     OW16297  10.662   9.734   2.208 -0.5148 -0.1786 -0.4192
 3402SOL    HW116298  10.619   9.651   2.229 -3.2323  1.1861 -0.1677
 3402SOL    HW216299  10.736   9.738   2.268 -0.4289 -2.3167 -0.2953
 3403SOL     OW16300  10.325   2.630  10.788  0.6951 -0.0442  0.4172
 3403SOL    HW116301  10.339   2.724  10.793 -0.9088  0.3239 -1.1537
 3403SOL    HW216302  10.380   2.600  10.716 -0.8164  0.1886 -0.8877
 3404SOL     OW16303   7.792   6.378   9.776 -0.0769 -0.0925 -0.4635
 3404SOL    HW116304   7.718   6.319   9.759 -0.3488 -0.0551  0.5205
 3404SOL    HW216305   7.832   6.344   9.856  0.8531  0.0163 -0.8737
 3405SOL     OW16306   5.009  10.496   4.618 -0.4472 -0.0673  0.0195
 3405SOL    HW116307   5.098  10.526   4.601 -0.6952  0.8110  0.2053
 3405SOL    HW216308   5.001  10.414   4.570  0.2401  0.2005 -0.5624
 3406SOL     OW16309   2.463   8.321   3.899 -0.1470 -0.4079 -0.0800
 3406SOL    HW116310   2.494   8.337   3.988  1.1601 -1.7901 -0.2370
 3406SOL    HW216311   2.483   8.402   3.852  0.8812 -0.3189  0.4684
 3407SOL     OW16312   2.720   1.697   6.891  0.2710  0.3965  0.4203
 3407SOL    HW116313   2.789   1.727   6.951 -2.1043  2.2219  2.4587
 3407SOL    HW216314   2.641   1.696   6.945 -1.6107 -0.1253 -2.1908
 3408SOL     OW16315   6.541   6.980   9.269  0.6800 -0.1566  0.1735
 3408SOL    HW116316   6.481   7.006   9.199 -0.5989 -1.0030  0.9179
 3408SOL    HW216317   6.626   6.970   9.226  0.1331  0.3013 -1.0573
 3409SOL     OW16318   8.924   0.484   0.749 -0.1800  0.0616  0.3387
 3409SOL    HW116319   8.992   0.417   0.756  0.0381  0.4307  2.8222
 3409SOL    HW216320   8.842   0.436   0.747  0.0706 -0.3365 -0.3661
 3410SOL     OW16321   8.711   8.598   9.805  0.1591 -0.1225 -0.0879
 3410SOL    HW116322   8.757   8.674   9.842 -2.1573  1.2693  0.1365
 3410SOL    HW216323   8.684   8.627   9.717  2.2178 -1.9958 -1.4420
 3411SOL     OW16324  10.209   7.455   5.875  0.6554 -0.3049 -0.2213
 3411SOL    HW116325  10.275   7.432   5.940  0.3850  0.1155  0.2033
 3411SOL    HW216326  10.190   7.547   5.891  0.1788 -0.3440 -0.5319
 3412SOL     OW16327   1.070   9.490   0.399 -0.2636  0.3919  0.2421
 3412SOL    HW116328   1.161   9.519   0.409 -0.1222  0.1799 -0.4293
 3412SOL    HW216329   1.071   9.398   0.424 -0.0233  0.0198 -1.0806
 3413SOL     OW16330   6.693   1.734   4.053  0.0941  0.3736 -0.5585
 3413SOL    HW116331   6.648   1.798   3.997 -0.4755  0.2636 -0.2329
 3413SOL    HW216332   6.749   1.685   3.992 -0.9998 -0.1718 -1.1552
 3414SOL     OW16333   5.796   6.114   7.586  0.3408 -0.9774 -0.4231
 3414SOL    HW116334   5.784   6.094   7.679 -0.1407  0.1098 -0.2374
 3414SOL    HW216335   5.762   6.036   7.541 -3.4282  0.0920  0.2209
 3415SOL     OW16336   9.298   7.632   7.497  0.1324 -0.0706  0.3451
 3415SOL    HW116337   9.387   7.633   7.463  0.1626  0.3220  0.4227
 3415SOL    HW216338   9.247   7.681   7.432 -0.0987 -0.6204  0.1125
 3416SOL     OW16339   6.653   6.713   4.711  0.0997 -0.7724 -0.4028
 3416SOL    HW116340   6.580   6.759   4.670 -1.5840 -1.1222  1.9598
 3416SOL    HW216341   6.635   6.620   4.696 -0.2424 -0.8790  0.5600
 3417SOL     OW16342   9.223   9.184   2.651  0.3463  0.4906 -0.4142
 3417SOL    HW116343   9.220   9.187   2.556  1.8226 -1.5647 -0.5890
 3417SOL    HW216344   9.311   9.214   2.674 -0.3436  2.0115  0.4222
 3418SOL     OW16345   7.658   0.310   3.684  0.1355 -0.3963  0.9517
 3418SOL    HW116346   7.725   0.379   3.689  0.0167  0.1970 -2.9085
 3418SOL    HW216347   7.587   0.343   3.740  0.9056  1.6510  0.8402
 3419SOL     OW16348   9.735   1.048   0.162 -0.1241  0.1822 -0.1681
 3419SOL    HW116349   9.771   0.963   0.136  0.2502  0.6801 -1.3398
 3419SOL    HW216350   9.643   1.030   0.181 -0.2143 -0.3628 -1.0867
 3420SOL     OW16351   7.930   5.544  10.898 -0.3747  0.6589  0.8873
 3420SOL    HW116352   7.983   5.602  10.952  0.5482  0.8442 -0.1804
 3420SOL    HW216353   7.940   5.579  10.809 -0.9283 -0.3214  0.4280
 3421SOL     OW16354   5.737   6.425  10.240 -0.0553  0.0670 -0.3599
 3421SOL    HW116355   5.646   6.399  10.226 -0.3987  0.9983  0.0466
 3421SOL    HW216356   5.788   6.368  10.182 -0.8542 -0.7779 -0.2527
 3422SOL     OW16357   0.592   5.781   7.916  0.5077  0.3166  0.0852
 3422SOL    HW116358   0.605   5.752   7.826  0.7903 -3.3666  1.1336
 3422SOL    HW216359   0.680   5.801   7.948  0.5001  0.8554 -0.2270
 3423SOL     OW16360   6.172   3.357   9.315 -0.6171 -0.0466  0.3356
 3423SOL    HW116361   6.179   3.347   9.220 -0.7286 -1.7442  0.4730
 3423SOL    HW216362   6.260   3.341   9.347 -0.3793  1.4078  0.4921
 3424SOL     OW16363   0.077   2.410   9.870  0.3673  0.0442  0.0108
 3424SOL    HW116364   0.103   2.461   9.794  0.4318  0.6115  0.4104
 3424SOL    HW216365   0.159   2.371   9.901  0.3164 -0.3157 -0.2988
 3425SOL     OW16366   3.768   9.416   1.764 -0.1003  0.1197 -0.2861
 3425SOL    HW116367   3.695   9.425   1.825  1.1118 -0.9952  1.3926
 3425SOL    HW216368   3.734   9.361   1.693 -1.1540  0.4051 -0.0195
 3426SOL     OW16369   8.029   2.576   4.239 -0.7432  0.6764 -0.8350
 3426SOL    HW116370   8.038   2.491   4.196 -0.2880  1.0858 -1.5719
 3426SOL    HW216371   8.112   2.621   4.222 -0.5312  0.8469  0.5203
 3427SOL     OW16372   8.999   7.486   9.032 -0.2118 -0.2641  0.1401
 3427SOL    HW116373   8.948   7.562   9.003 -1.3337 -1.0140  0.0547
 3427SOL    HW216374   9.007   7.496   9.126 -2.2361 -1.0738  0.4629
 3428SOL     OW16375   0.488   0.724   2.268  0.3837  0.3645 -0.3522
 3428SOL    HW116376   0.405   0.728   2.220 -0.9307  1.3871  1.8294
 3428SOL    HW216377   0.524   0.813   2.260  0.9129  0.1181 -0.7014
 3429SOL     OW16378   1.657   7.967   8.892  0.0710 -0.1069  1.0223
 3429SOL    HW116379   1.569   7.994   8.864  0.2393 -0.7643 -0.2407
 3429SOL    HW216380   1.653   7.871   8.892  0.7697 -0.1398  1.0017
 3430SOL     OW16381   2.556  10.641   9.626  0.3894 -0.4400  0.2365
 3430SOL    HW116382   2.600  10.713   9.671  2.2286 -1.4634  0.1816
 3430SOL    HW216383   2.519  10.680   9.547  0.5841  0.5963  0.6394
 3431SOL     OW16384  10.749   0.751   0.992 -0.2969  0.2735 -0.0268
 3431SOL    HW116385  10.708   0.821   0.941 -3.0990 -1.4536 -0.4026
 3431SOL    HW216386  10.680   0.722   1.052  1.7027 -0.3174  2.1019
 3432SOL     OW16387   9.508  10.173  10.838  0.5414 -0.0721 -0.4575
 3432SOL    HW116388   9.532  10.081  10.850  0.7623  0.1411  0.9981
 3432SOL    HW216389   9.439  10.171  10.772  0.5934 -1.2790 -0.5098
 3433SOL     OW16390   3.924   6.170  10.698  0.3139 -0.0080 -0.1236
 3433SOL    HW116391   3.870   6.128  10.631 -0.5373 -1.3427  1.3409
 3433SOL    HW216392   3.993   6.106  10.716  0.6854  0.4484  0.0990
 3434SOL     OW16393   0.262   5.132   6.885  0.0005  0.6093  0.0682
 3434SOL    HW116394   0.280   5.045   6.923  2.3846 -0.2179 -2.6105
 3434SOL    HW216395   0.314   5.192   6.939  0.7713 -0.0728  0.1069
 3435SOL     OW16396   8.760   5.854   5.105  0.0036 -0.6420  0.4977
 3435SOL    HW116397   8.739   5.898   5.188  0.6144 -0.5178  0.5874
 3435SOL    HW216398   8.681   5.805   5.084  0.2622 -1.6569  1.7824
 3436SOL     OW16399   1.371   2.291   3.869  0.3023 -0.2229  0.3170
 3436SOL    HW116400   1.294   2.347   3.854  0.6032 -0.7104 -4.9939
 3436SOL    HW216401   1.442   2.352   3.887 -0.2818  0.7645 -0.5795
 3437SOL     OW16402   1.081   9.394   9.863  0.0070  0.1234 -0.2140
 3437SOL    HW116403   0.995   9.355   9.874  0.1560 -0.9426 -2.3357
 3437SOL    HW216404   1.142   9.323   9.882  0.3462  0.1508 -1.1526
 3438SOL     OW16405   6.569   6.749   5.062  0.7313  0.0625  0.3378
 3438SOL    HW116406   6.632   6.678   5.047  0.2509 -0.3019  0.0043
 3438SOL    HW216407   6.501   6.734   4.996 -1.0709 -1.1309  2.3375
 3439SOL     OW16408   0.290   8.696   0.696 -0.1713 -0.3533 -0.4538
 3439SOL    HW116409   0.336   8.648   0.627  1.2192  1.4197 -0.8239
 3439SOL    HW216410   0.321   8.786   0.688 -0.5620  0.0731  2.0114
 3440SOL     OW16411   6.574   2.546   6.345  0.3633 -0.3696  0.0279
 3440SOL    HW116412   6.609   2.615   6.288  0.5291 -0.8627 -0.4690
 3440SOL    HW216413   6.503   2.589   6.393  0.7446  0.2635  0.0372
 3441SOL     OW16414   8.280   1.663   6.167  0.0715 -0.0134  0.3775
 3441SOL    HW116415   8.306   1.591   6.225 -0.6067 -0.1904  0.4700
 3441SOL    HW216416   8.331   1.650   6.088 -0.0339 -0.5922  0.4008
 3442SOL     OW16417   6.077   1.795   1.692  0.1311  0.4613  0.1742
 3442SOL    HW116418   5.985   1.805   1.714 -0.0871  0.0485 -0.5085
 3442SOL    HW216419   6.110   1.729   1.753 -0.5818 -1.0434 -0.9966
 3443SOL     OW16420   3.085   8.640   1.202  0.3424  0.6301 -0.5220
 3443SOL    HW116421   3.134   8.558   1.200  0.9060  0.9792 -1.3157
 3443SOL    HW216422   3.096   8.677   1.115 -0.9992  0.9167 -0.5883
 3444SOL     OW16423   2.914   4.762   5.960 -0.0508  0.8759 -0.1261
 3444SOL    HW116424   2.843   4.819   5.932  0.2797  1.1086 -0.4991
 3444SOL    HW216425   2.930   4.705   5.884 -1.8701 -1.2392  0.9730
 3445SOL     OW16426   9.573   9.306   9.713 -0.0171 -0.8068 -0.4208
 3445SOL    HW116427   9.483   9.289   9.740  0.1217 -1.5639 -0.4031
 3445SOL    HW216428   9.595   9.233   9.655  1.0701 -1.4570  0.7473
 3446SOL     OW16429   9.567   9.786   7.601  0.2878 -0.2468 -0.0906
 3446SOL    HW116430   9.558   9.820   7.512 -0.0951 -0.2537 -0.0553
 3446SOL    HW216431   9.640   9.724   7.595 -1.4314 -2.2989 -1.0199
 3447SOL     OW16432   5.004   0.442   2.347 -0.0893  0.1518  0.3242
 3447SOL    HW116433   5.053   0.519   2.320 -0.8056  0.1598 -1.0665
 3447SOL    HW216434   4.957   0.415   2.268  0.5722 -2.0422  0.6140
 3448SOL     OW16435   6.597   2.680   6.803  0.3641 -0.0413  0.3358
 3448SOL    HW116436   6.557   2.598   6.830  1.4444 -0.7057 -0.0382
 3448SOL    HW216437   6.691   2.661   6.797  0.4885  0.8341 -1.0558
 3449SOL     OW16438   4.421   5.596   8.570 -0.4246  0.2401 -0.3593
 3449SOL    HW116439   4.464   5.647   8.500 -1.1963  2.4586  0.6898
 3449SOL    HW216440   4.434   5.648   8.649 -3.2957  0.0084  0.3726
 3450SOL     OW16441   4.887   0.649   1.517 -0.1600  0.0209  0.2042
 3450SOL    HW116442   4.859   0.620   1.604 -0.0215  2.2948  1.0830
 3450SOL    HW216443   4.941   0.727   1.535  1.0739 -0.3084 -1.8426
 3451SOL     OW16444   8.228   9.482   0.713 -0.3083 -0.4252  0.3793
 3451SOL    HW116445   8.207   9.400   0.669  0.8662 -2.0552  2.6154
 3451SOL    HW216446   8.146   9.509   0.754 -0.8576 -0.1016 -0.9106
 3452SOL     OW16447   0.619   2.804   7.043  0.1309 -0.1663  0.2803
 3452SOL    HW116448   0.675   2.744   6.995 -1.2823 -0.1690 -1.4514
 3452SOL    HW216449   0.622   2.885   6.993 -0.1430  0.3507  1.0772
 3453SOL     OW16450  10.039   3.473   6.433 -0.1017  0.0610  0.1743
 3453SOL    HW116451   9.943   3.481   6.432 -0.0361  1.0302  0.8203
 3453SOL    HW216452  10.071   3.563   6.436  0.8157 -0.2723  0.8259
 3454SOL     OW16453  10.708   7.192   7.593  0.1346  0.0462 -0.3779
 3454SOL    HW116454  10.639   7.213   7.656 -1.0245  1.3583 -1.9938
 3454SOL    HW216455  10.675   7.116   7.546  0.8471 -0.7199  0.3153
 3455SOL     OW16456   9.082   3.405   1.941 -0.9645 -0.2100 -0.2136
 3455SOL    HW116457   9.134   3.454   2.004 -0.4418 -0.7148 -0.2461
 3455SOL    HW216458   9.075   3.317   1.978  0.4403 -0.8841 -1.4300
 3456SOL     OW16459   4.594   7.605   8.625  0.0555 -0.4244 -0.1056
 3456SOL    HW116460   4.515   7.554   8.605 -0.8130  1.0467 -0.5372
 3456SOL    HW216461   4.566   7.696   8.619  2.0786  0.1677 -1.5171
 3457SOL     OW16462   4.693   6.536   9.434 -0.0669  0.3268 -0.3226
 3457SOL    HW116463   4.600   6.558   9.428 -0.0661  0.2592 -0.5657
 3457SOL    HW216464   4.694   6.454   9.484  0.0822  2.1520  2.9767
 3458SOL     OW16465   2.467   0.137   2.468 -0.0933 -0.5762 -0.0286
 3458SOL    HW116466   2.448   0.046   2.491 -1.1812 -0.4401 -0.3361
 3458SOL    HW216467   2.426   0.149   2.382 -0.5468  0.3891  0.3019
 3459SOL     OW16468   0.937   4.251   0.479  0.1274  0.6414 -0.6710
 3459SOL    HW116469   1.005   4.276   0.542  0.7237 -0.0178 -1.0393
 3459SOL    HW216470   0.983   4.242   0.396 -0.1548 -1.0570 -0.6849
 3460SOL     OW16471  10.144   9.490   0.390 -0.0626 -0.0094 -0.4661
 3460SOL    HW116472  10.189   9.525   0.313  2.3055 -0.2867  0.7095
 3460SOL    HW216473  10.182   9.404   0.403 -3.2725 -1.6859 -1.2265
 3461SOL     OW16474   6.275   9.810   0.116  0.5466 -0.1831  0.1266
 3461SOL    HW116475   6.253   9.720   0.092  0.4465  0.1329 -1.0240
 3461SOL    HW216476   6.366   9.820   0.088 -0.0667  0.6904 -1.6372
 3462SOL     OW16477   6.624   8.399   0.240  0.0692 -0.4876  0.3786
 3462SOL    HW116478   6.592   8.368   0.324 -1.4491 -1.0326 -0.3590
 3462SOL    HW216479   6.548   8.393   0.182  0.2888  2.4096 -0.4034
 3463SOL     OW16480   2.209   0.568   5.152  0.0939 -0.8342 -0.1794
 3463SOL    HW116481   2.130   0.589   5.202 -1.2353 -0.3836 -2.3303
 3463SOL    HW216482   2.250   0.653   5.135  0.1891 -0.9233 -0.3953
 3464SOL     OW16483   7.904   2.807   1.704 -0.0900  0.4785 -0.4994
 3464SOL    HW116484   7.856   2.754   1.641 -0.3345  1.9495 -1.5901
 3464SOL    HW216485   7.996   2.789   1.685 -0.1556 -1.0787  0.4996
 3465SOL     OW16486   9.715   8.331   2.726 -0.4277 -0.8914 -0.3745
 3465SOL    HW116487   9.756   8.264   2.780  1.0234 -2.0945 -2.8243
 3465SOL    HW216488   9.767   8.410   2.742  1.7337 -1.9046 -1.9089
 3466SOL     OW16489   5.945   5.665   4.324  0.1977 -0.2086  0.2759
 3466SOL    HW116490   6.021   5.640   4.271 -0.3099 -0.9148 -0.1426
 3466SOL    HW216491   5.958   5.758   4.341  0.2236  0.1428 -1.4053
 3467SOL     OW16492   4.279   1.697   8.679 -0.1263 -0.2338 -0.1587
 3467SOL    HW116493   4.226   1.705   8.600 -1.3392  0.1185  0.6688
 3467SOL    HW216494   4.345   1.766   8.670 -0.8168  0.4009 -0.4456
 3468SOL     OW16495   1.939   4.173   7.843  0.3548  0.0971  0.0344
 3468SOL    HW116496   1.960   4.083   7.865 -1.8016 -0.1126  1.5135
 3468SOL    HW216497   1.912   4.212   7.926  0.3900  1.8631 -0.7422
 3469SOL     OW16498   5.507   3.903   9.801 -0.0753 -0.0166  0.0323
 3469SOL    HW116499   5.476   3.818   9.768  1.2830 -1.1309  1.4731
 3469SOL    HW216500   5.431   3.960   9.796 -0.9340 -1.2104 -1.3220
 3470SOL     OW16501   0.568   8.126   1.037 -0.2891  0.5616  0.1844
 3470SOL    HW116502   0.658   8.100   1.018 -0.8975 -1.4297 -0.2189
 3470SOL    HW216503   0.536   8.162   0.954  0.3143  1.9501  0.5216
 3471SOL     OW16504   9.760   4.134   6.373 -0.2155  0.4404 -0.1167
 3471SOL    HW116505   9.678   4.127   6.325 -0.2701 -2.2534  0.2105
 3471SOL    HW216506   9.735   4.165   6.460 -0.6047  1.5176 -0.5995
 3472SOL     OW16507   2.385   7.231   2.717 -0.2462 -0.0327 -0.1234
 3472SOL    HW116508   2.351   7.248   2.629 -1.0313  1.0439  0.3604
 3472SOL    HW216509   2.415   7.141   2.714  1.0522  0.3896 -1.9051
 3473SOL     OW16510   5.529   2.144  10.266  0.2029 -0.5963 -0.3420
 3473SOL    HW116511   5.510   2.068  10.320 -0.2267 -1.3636 -1.5347
 3473SOL    HW216512   5.492   2.123  10.180  0.5664  0.7204 -0.8541
 3474SOL     OW16513   2.861   3.615   1.014 -0.3507 -0.2919  0.5830
 3474SOL    HW116514   2.910   3.539   1.045  0.4902  0.4570  1.1217
 3474SOL    HW216515   2.899   3.689   1.061  1.3851  1.0109 -2.5314
 3475SOL     OW16516   9.231   3.448   0.786 -0.1249 -0.1203 -0.3477
 3475SOL    HW116517   9.238   3.513   0.716  1.2052  0.7235  0.5111
 3475SOL    HW216518   9.262   3.494   0.864 -1.4697 -1.0585  0.8031
 3476SOL     OW16519   1.866   0.489   0.453 -0.3873  0.6035 -0.0679
 3476SOL    HW116520   1.899   0.576   0.428  0.7947  0.2119  0.0741
 3476SOL    HW216521   1.882   0.483   0.547 -0.9265  0.4197  0.0155
 3477SOL     OW16522   1.764   9.208   9.841 -0.2057  0.2084  0.3992
 3477SOL    HW116523   1.752   9.198   9.746  1.6712 -0.3201  0.1711
 3477SOL    HW216524   1.685   9.253   9.871 -0.5632  0.9565 -1.5174
 3478SOL     OW16525   4.173  10.722   3.481 -0.3236 -0.0701 -0.3596
 3478SOL    HW116526   4.144  10.668   3.407  1.0696 -2.3123  0.6137
 3478SOL    HW216527   4.159  10.666   3.558 -0.6659  1.7640  0.9778
 3479SOL     OW16528   6.276  10.729   5.541  0.4235 -0.6937  0.1653
 3479SOL    HW116529   6.301  10.637   5.531  0.2261 -0.7885  0.5044
 3479SOL    HW216530   6.354  10.772   5.575  0.8269 -0.5344 -0.9349
 3480SOL     OW16531   5.037   7.633   8.849 -0.6739 -0.2975 -0.1047
 3480SOL    HW116532   4.976   7.572   8.806 -0.6237  1.3467 -2.7562
 3480SOL    HW216533   5.124   7.598   8.829 -0.6667 -1.0040  1.0803
 3481SOL     OW16534   5.818   4.925   5.693  0.3259  0.2491  0.5580
 3481SOL    HW116535   5.722   4.935   5.695  0.3890  0.8460  0.8297
 3481SOL    HW216536   5.842   4.915   5.785  0.3732 -1.5285  0.3842
 3482SOL     OW16537   9.993   8.295   1.466  0.4041  0.2220  0.1434
 3482SOL    HW116538  10.038   8.238   1.529 -0.3077  0.8263  1.2189
 3482SOL    HW216539   9.906   8.256   1.457  0.9551 -0.7299 -1.6539
 3483SOL     OW16540   8.143   5.418  10.242 -0.0619  0.0714  0.0844
 3483SOL    HW116541   8.224   5.454  10.206 -1.2992  1.6834 -1.2638
 3483SOL    HW216542   8.152   5.324  10.231  1.5972  0.2182 -0.0840
 3484SOL     OW16543   1.037   2.763   9.751 -0.4049 -0.4618  0.4778
 3484SOL    HW116544   0.945   2.736   9.744 -2.2510  4.4964  1.6572
 3484SOL    HW216545   1.044   2.805   9.836  2.1139  1.9554 -0.7635
 3485SOL     OW16546   4.398  10.760   4.103 -0.4002 -0.5811  0.0481
 3485SOL    HW116547   4.335  10.760   4.175  1.3204 -1.3603  1.6815
 3485SOL    HW216548   4.404  10.668   4.077  1.0088 -0.7702  0.8956
 3486SOL     OW16549   7.038   8.067   3.256 -0.2803  0.3685  0.2231
 3486SOL    HW116550   7.021   8.160   3.270 -1.6811  0.1933 -0.0960
 3486SOL    HW216551   7.012   8.051   3.165  2.2263  0.1257 -0.5104
 3487SOL     OW16552   8.699   3.137  10.359  0.2292 -0.4095  0.1078
 3487SOL    HW116553   8.683   3.227  10.387  1.4217 -0.3237  0.5644
 3487SOL    HW216554   8.780   3.141  10.309  1.0427 -1.4441  1.3081
 3488SOL     OW16555   6.302   9.378   1.489  0.2720  0.1243 -0.3427
 3488SOL    HW116556   6.367   9.325   1.443  0.8797  1.2566 -0.8278
 3488SOL    HW216557   6.332   9.381   1.580  0.1400 -0.4867 -0.2744
 3489SOL     OW16558   6.747   1.501   9.298 -0.1079 -0.5494  0.4583
 3489SOL    HW116559   6.664   1.544   9.279 -0.8081 -1.2154  1.8484
 3489SOL    HW216560   6.722   1.411   9.321  0.9553 -0.6588  1.2454
 3490SOL     OW16561   7.870  10.662  10.137 -0.4191 -0.0237 -0.4012
 3490SOL    HW116562   7.953  10.637  10.096  0.1326 -2.0638  1.7937
 3490SOL    HW216563   7.895  10.712  10.214 -1.0273 -2.4737  1.4983
 3491SOL     OW16564   2.078   1.681   3.410 -0.0291 -0.1073  0.1207
 3491SOL    HW116565   2.087   1.677   3.505 -1.7039 -3.2623  0.3006
 3491SOL    HW216566   1.984   1.691   3.395 -0.2016 -2.6551 -1.0703
 3492SOL     OW16567   4.112   9.956   0.206 -0.3388 -0.3913 -0.0205
 3492SOL    HW116568   4.135   9.883   0.263 -0.8748 -1.1152 -0.7009
 3492SOL    HW216569   4.196   9.995   0.180  0.0574 -1.7875 -0.9453
 3493SOL     OW16570   2.536   3.841   0.523  0.2067  0.5050 -0.3174
 3493SOL    HW116571   2.569   3.788   0.450 -0.0602  0.9644 -0.7748
 3493SOL    HW216572   2.441   3.834   0.516  0.1847 -0.0593  0.4430
 3494SOL     OW16573   9.262   6.252   3.920  0.0272 -0.1872 -0.1130
 3494SOL    HW116574   9.318   6.211   3.855  0.8480 -0.2798  0.6368
 3494SOL    HW216575   9.322   6.297   3.980 -0.4170 -2.3598  2.1543
 3495SOL     OW16576   4.229   2.774   0.273  0.5893  0.0209  0.3834
 3495SOL    HW116577   4.285   2.808   0.204  0.9353 -0.9780  0.1460
 3495SOL    HW216578   4.196   2.691   0.239  0.0657 -0.0711  1.0721
 3496SOL     OW16579  10.418   8.242   0.660 -0.0650 -0.5305  0.3978
 3496SOL    HW116580  10.453   8.275   0.743  0.2190  1.2809 -0.4062
 3496SOL    HW216581  10.388   8.320   0.613 -3.1282 -1.7652  0.0521
 3497SOL     OW16582   4.692   0.862   8.147 -0.7984 -0.2608 -0.6228
 3497SOL    HW116583   4.731   0.941   8.186 -1.6628 -0.7442  1.3270
 3497SOL    HW216584   4.760   0.796   8.153 -0.5104 -0.0128 -1.0888
 3498SOL     OW16585   3.033   3.627   3.372 -0.1101  0.1085  0.1988
 3498SOL    HW116586   3.015   3.573   3.449 -0.1957 -0.5085 -0.2441
 3498SOL    HW216587   2.951   3.624   3.322  0.4205 -0.7720 -0.6683
 3499SOL     OW16588  10.751   8.791   5.429 -0.3370  0.6964 -0.4316
 3499SOL    HW116589  10.722   8.742   5.505  1.0739  0.4386 -0.0435
 3499SOL    HW216590  10.680   8.854   5.413 -0.7109  0.6672  0.9961
 3500SOL     OW16591   6.896   8.973   8.057  0.0103  0.1719 -0.2713
 3500SOL    HW116592   6.942   8.962   7.973  1.4722  1.3541  0.3255
 3500SOL    HW216593   6.848   8.892   8.069 -0.1289 -0.0683 -2.2033
 3501SOL     OW16594   9.529   3.546   6.280 -0.3291  0.3523  1.0797
 3501SOL    HW116595   9.527   3.480   6.212 -0.2035 -0.1501  1.5563
 3501SOL    HW216596   9.604   3.601   6.258 -0.2954  0.1998  0.8128
 3502SOL     OW16597   0.274   1.033   3.117  0.3556  0.0525 -0.4939
 3502SOL    HW116598   0.200   1.034   3.179  0.3998 -0.6631 -0.4214
 3502SOL    HW216599   0.342   1.085   3.160 -0.0600  0.6362 -0.5157
 3503SOL     OW16600   3.049   9.156   6.417  0.0365  0.3011  0.1412
 3503SOL    HW116601   3.053   9.190   6.327  0.2405  0.5815  0.2561
 3503SOL    HW216602   3.055   9.061   6.407  1.1539  0.3842 -0.0698
 3504SOL     OW16603   2.866   9.629   4.066  0.0469  0.2516 -0.1811
 3504SOL    HW116604   2.775   9.650   4.088 -0.6519 -1.6703 -1.0167
 3504SOL    HW216605   2.902   9.712   4.034 -1.3137  1.1262  0.4188
 3505SOL     OW16606   0.361   6.515   1.821 -0.4783 -0.0504  0.2784
 3505SOL    HW116607   0.280   6.564   1.828 -0.3096  0.2176  0.3429
 3505SOL    HW216608   0.371   6.473   1.907 -0.0412  0.7063  0.6072
 3506SOL     OW16609   6.565   7.096   4.972  0.6095 -0.1663 -0.1600
 3506SOL    HW116610   6.565   7.150   5.051 -2.2109 -1.1248  0.6138
 3506SOL    HW216611   6.593   7.010   5.002  1.5566 -0.0549 -0.6726
 3507SOL     OW16612   3.328   0.610   3.622 -0.2978 -0.3676 -0.0078
 3507SOL    HW116613   3.384   0.664   3.677  0.3605  0.1715 -1.1738
 3507SOL    HW216614   3.336   0.522   3.659  0.7702 -0.1643  0.2699
 3508SOL     OW16615   7.551   7.030   3.596  0.3212  0.4207  0.4375
 3508SOL    HW116616   7.465   7.053   3.630  1.0558  2.0706  1.3100
 3508SOL    HW216617   7.538   7.018   3.502 -1.2887 -1.7380  0.8576
 3509SOL     OW16618   6.571   7.180   2.133 -0.5346 -0.2879  0.3689
 3509SOL    HW116619   6.593   7.231   2.211  1.1162 -1.5240  0.7693
 3509SOL    HW216620   6.500   7.122   2.162  0.2843 -0.9641  1.0671
 3510SOL     OW16621   7.855   4.953   9.747 -0.2090  0.2105  0.0905
 3510SOL    HW116622   7.878   4.919   9.833 -1.8861  1.2251  0.9855
 3510SOL    HW216623   7.932   5.005   9.721  0.3093 -0.0938  0.9728
 3511SOL     OW16624   7.590   6.129   3.654 -0.2526 -0.3209 -0.1095
 3511SOL    HW116625   7.581   6.221   3.679 -1.0218 -0.2925 -0.4641
 3511SOL    HW216626   7.506   6.106   3.614  0.1976 -0.9622 -0.7261
 3512SOL     OW16627   4.749   3.396   2.192  0.0143  0.5399  0.8065
 3512SOL    HW116628   4.761   3.347   2.274  2.2734 -0.1352  0.1289
 3512SOL    HW216629   4.654   3.407   2.186 -0.2547  0.4559  3.4006
 3513SOL     OW16630   1.859   4.590   1.137 -0.3357 -0.3828  0.8361
 3513SOL    HW116631   1.884   4.673   1.178  0.2549  1.0764 -2.2259
 3513SOL    HW216632   1.907   4.524   1.187  0.4163  1.2621  2.4009
 3514SOL     OW16633   9.311   7.007   6.806 -0.1749  0.4531 -0.1593
 3514SOL    HW116634   9.385   6.995   6.865 -0.0883 -0.4566 -0.4487
 3514SOL    HW216635   9.276   6.919   6.792  0.2277  0.5465 -1.9969
 3515SOL     OW16636   6.142  10.556   8.746  0.4133 -0.0964  0.0255
 3515SOL    HW116637   6.103  10.568   8.833 -0.5239 -0.8214 -0.2801
 3515SOL    HW216638   6.228  10.598   8.753  0.3342 -0.0883  1.2799
 3516SOL     OW16639  10.640   6.939   7.804 -0.4485  0.0874  0.6250
 3516SOL    HW116640  10.575   6.911   7.870 -0.8827  0.9765  0.5850
 3516SOL    HW216641  10.699   6.997   7.852 -0.9036  0.9219  0.1823
 3517SOL     OW16642   3.840   3.474   2.484 -0.0033 -0.5522  0.2581
 3517SOL    HW116643   3.929   3.442   2.467  0.8132  0.1389  2.7902
 3517SOL    HW216644   3.789   3.445   2.409  1.9019 -2.7679 -0.2751
 3518SOL     OW16645   6.920   5.727   7.731  0.4387  0.3391  0.3097
 3518SOL    HW116646   6.835   5.765   7.708  0.3125 -0.7739 -1.2795
 3518SOL    HW216647   6.984   5.782   7.685  0.3929 -0.1141 -0.3224
 3519SOL     OW16648   5.731   2.263   9.945  0.1350  0.0215 -0.0006
 3519SOL    HW116649   5.679   2.338   9.917  1.6034  0.6716 -1.0647
 3519SOL    HW216650   5.676   2.187   9.924 -0.9481  0.7410  0.1616
 3520SOL     OW16651   2.845   6.012   2.682 -0.0510  0.0661  0.4655
 3520SOL    HW116652   2.751   6.026   2.682 -0.2983 -1.4398 -0.3644
 3520SOL    HW216653   2.880   6.082   2.626 -0.8892 -0.5920 -0.9248
 3521SOL     OW16654   1.712   8.009   3.226 -0.3228 -0.4545  0.0237
 3521SOL    HW116655   1.652   8.001   3.152 -0.4994  1.0586 -0.0330
 3521SOL    HW216656   1.752   8.095   3.214 -0.6559 -0.0056  1.9185
 3522SOL     OW16657   9.191   1.080   6.715 -0.1576  0.2205  0.3846
 3522SOL    HW116658   9.275   1.100   6.756  0.2809 -1.3793  0.3226
 3522SOL    HW216659   9.171   0.991   6.744 -2.6879  1.1370  1.7955
 3523SOL     OW16660   0.144   9.096   0.811  0.1638  0.9074 -0.0805
 3523SOL    HW116661   0.114   9.171   0.862 -1.9637 -0.5149  0.9197
 3523SOL    HW216662   0.239   9.093   0.825  0.4929  3.9439 -0.9817
 3524SOL     OW16663   1.102   2.127   1.426 -0.2302 -1.2329  0.0219
 3524SOL    HW116664   1.096   2.173   1.342  0.1869  1.0002  1.1246
 3524SOL    HW216665   1.076   2.037   1.407  1.9699 -1.3800 -2.9313
 3525SOL     OW16666   5.804   7.707   4.169 -0.2896  0.0006 -0.3872
 3525SOL    HW116667   5.759   7.677   4.090 -0.1224  0.6473 -0.7416
 3525SOL    HW216668   5.834   7.795   4.147 -1.5619  0.8155  0.9078
 3526SOL     OW16669   5.913   8.672   8.064 -0.0144 -0.0348  0.2043
 3526SOL    HW116670   5.996   8.716   8.082  0.4012 -1.1290  1.1753
 3526SOL    HW216671   5.914   8.656   7.970  0.8169  0.0963  0.1809
 3527SOL     OW16672   8.215  10.187   3.164 -0.8771  0.0242  0.1777
 3527SOL    HW116673   8.272  10.244   3.114 -0.2868 -0.1206  0.6725
 3527SOL    HW216674   8.209  10.229   3.250 -0.6097 -0.5461  0.4796
 3528SOL     OW16675   5.631   8.601   8.812 -0.3664  0.5484 -0.0429
 3528SOL    HW116676   5.685   8.561   8.744 -2.1186 -0.8937 -0.6670
 3528SOL    HW216677   5.642   8.696   8.798 -0.5483  0.3080 -2.2618
 3529SOL     OW16678   2.707   3.786   2.622  0.0162  0.0961  0.2905
 3529SOL    HW116679   2.616   3.816   2.617 -0.8738 -2.4972 -0.4627
 3529SOL    HW216680   2.707   3.723   2.694  0.9678 -0.7084 -0.3940
 3530SOL     OW16681  10.741   9.657   9.538  0.0858  0.5394 -0.3547
 3530SOL    HW116682  10.699   9.586   9.489 -2.2226 -0.0136  2.1733
 3530SOL    HW216683  10.680   9.731   9.530  1.0651  1.3474 -0.5928
 3531SOL     OW16684   6.697   1.802   5.996  0.2740 -0.2298 -0.2011
 3531SOL    HW116685   6.690   1.837   5.907 -0.6586  2.3011  0.8023
 3531SOL    HW216686   6.785   1.765   5.999 -0.4908 -2.6440 -2.8749
 3532SOL     OW16687   5.899   1.227   2.695 -0.3305 -0.2181  0.3574
 3532SOL    HW116688   5.850   1.294   2.647  1.2909  1.7701  1.3679
 3532SOL    HW216689   5.949   1.182   2.627 -0.8515  0.0871 -0.2498
 3533SOL     OW16690   8.181   8.478   8.144  0.4221  0.9686 -0.0180
 3533SOL    HW116691   8.094   8.498   8.176 -0.6765 -1.6018 -1.0998
 3533SOL    HW216692   8.215   8.413   8.207  0.0981 -0.6083 -1.3905
 3534SOL     OW16693   2.112   5.981   0.411 -0.1233 -0.3304  0.3107
 3534SOL    HW116694   2.156   5.956   0.492 -1.8082 -0.6722  1.1637
 3534SOL    HW216695   2.061   5.904   0.387 -2.5193  0.9701  0.9662
 3535SOL     OW16696   2.660   3.727   4.642  0.2676  0.5468  0.1712
 3535SOL    HW116697   2.685   3.727   4.734  1.5446 -0.3447 -0.1530
 3535SOL    HW216698   2.585   3.667   4.638  0.8304 -0.1912  0.4907
 3536SOL     OW16699   5.165   9.342   6.708 -0.8736 -0.6168 -0.4744
 3536SOL    HW116700   5.241   9.322   6.653  2.6078  0.5704  3.3662
 3536SOL    HW216701   5.130   9.256   6.731  0.7593 -1.3613 -0.5810
 3537SOL     OW16702   2.643   8.741   6.538 -0.0787  0.2865 -0.1008
 3537SOL    HW116703   2.638   8.813   6.475  1.5902  2.3708  1.9578
 3537SOL    HW216704   2.734   8.712   6.533 -0.8939 -2.4083 -1.4852
 3538SOL     OW16705   3.794   0.821   9.210 -0.4903 -0.0067 -0.0200
 3538SOL    HW116706   3.810   0.727   9.218 -1.4178 -0.1661  0.0320
 3538SOL    HW216707   3.826   0.844   9.123  0.2899 -0.2425  0.1904
 3539SOL     OW16708   1.111   0.154   5.277 -0.1799  0.1798  0.1163
 3539SOL    HW116709   1.111   0.058   5.286 -0.1864  0.1816  0.1319
 3539SOL    HW216710   1.058   0.185   5.350  1.1938  0.2974  1.0854
 3540SOL     OW16711   5.870   6.757   8.571  0.1663 -0.2216 -0.1210
 3540SOL    HW116712   5.961   6.726   8.563  0.1274 -1.0041  1.9164
 3540SOL    HW216713   5.866   6.833   8.514  2.0271 -0.3557 -0.5057
 3541SOL     OW16714   1.740   8.724   2.934  0.1353  0.3419 -0.2802
 3541SOL    HW116715   1.816   8.776   2.909  1.2555 -1.2630 -0.3771
 3541SOL    HW216716   1.722   8.750   3.024  1.8279 -0.3800  0.3046
 3542SOL     OW16717  10.551   7.080   7.379 -0.4023 -0.0440  0.2349
 3542SOL    HW116718  10.526   7.000   7.425  0.6612  0.4986  1.8284
 3542SOL    HW216719  10.469   7.123   7.358 -1.0876 -2.0789 -1.7486
 3543SOL     OW16720   9.198   8.350   5.536  0.0778  1.0685 -0.0603
 3543SOL    HW116721   9.289   8.344   5.507 -0.1936  1.5872 -1.0387
 3543SOL    HW216722   9.148   8.361   5.456 -1.3874 -3.8910 -0.1517
 3544SOL     OW16723   5.867   5.541   7.203 -0.3574  0.2989 -0.3232
 3544SOL    HW116724   5.932   5.506   7.264 -0.5671  0.1516 -0.1826
 3544SOL    HW216725   5.913   5.612   7.158  0.0052 -0.0160 -0.4604
 3545SOL     OW16726  10.827   9.146  10.045  0.3281 -0.2601 -0.1090
 3545SOL    HW116727  10.909   9.129   9.997  0.0136 -1.4214 -0.2726
 3545SOL    HW216728  10.799   9.059  10.074  0.0023  0.3120  1.3588
 3546SOL     OW16729   5.968   7.615   9.034  0.6204 -0.0441 -0.9709
 3546SOL    HW116730   5.929   7.677   9.095  2.0639  0.8659 -0.9227
 3546SOL    HW216731   5.907   7.612   8.960 -0.0665  0.4973 -0.4324
 3547SOL     OW16732   0.331   9.340   1.663  0.1613 -0.5556  0.3430
 3547SOL    HW116733   0.290   9.274   1.720 -2.3059  0.1319 -0.5126
 3547SOL    HW216734   0.335   9.419   1.717  1.4025 -0.8819  0.7623
 3548SOL     OW16735   4.891   9.410   6.495  0.6762  0.0432  0.5546
 3548SOL    HW116736   4.907   9.433   6.403  1.0014 -0.5455  0.4574
 3548SOL    HW216737   4.953   9.338   6.512  0.1874 -0.2622  1.0536
 3549SOL     OW16738   2.732   4.425   3.500  0.8089  0.0613 -0.6201
 3549SOL    HW116739   2.802   4.428   3.436  1.2886  0.9682 -0.0764
 3549SOL    HW216740   2.692   4.512   3.496  2.3454  1.0118  1.8934
 3550SOL     OW16741   8.441   2.676  10.761 -0.1842 -0.2857 -0.7585
 3550SOL    HW116742   8.438   2.766  10.795  0.8252  0.0170 -1.4146
 3550SOL    HW216743   8.411   2.684  10.670  0.6386 -0.4874 -1.0505
 3551SOL     OW16744  10.605   6.334   1.234  0.7213  0.3668  0.3022
 3551SOL    HW116745  10.662   6.313   1.160 -0.2044  0.2390 -0.4000
 3551SOL    HW216746  10.574   6.249   1.266  1.3429  0.4049  1.0361
 3552SOL     OW16747   7.675   3.964   7.927  0.6417  0.1858  0.3896
 3552SOL    HW116748   7.606   4.029   7.938  0.8788  0.2050  1.9978
 3552SOL    HW216749   7.639   3.900   7.866  0.0148  1.2753 -0.4007
 3553SOL     OW16750  10.607   2.942  10.847 -0.3854  0.0711  0.1435
 3553SOL    HW116751  10.630   3.033  10.828  1.0263 -0.2525  0.1553
 3553SOL    HW216752  10.643   2.892  10.774 -1.6034 -0.4329 -0.1240
 3554SOL     OW16753   6.896   2.621  10.419 -0.6587  0.2636 -0.4139
 3554SOL    HW116754   6.916   2.529  10.401 -0.6915 -0.4576  2.5737
 3554SOL    HW216755   6.922   2.668  10.340  0.5560 -2.1647 -1.5645
 3555SOL     OW16756   2.093   5.443   0.318  0.5918  0.1202 -0.0002
 3555SOL    HW116757   2.081   5.449   0.223 -0.1907 -0.7387  0.0222
 3555SOL    HW216758   2.008   5.469   0.354  1.3144  1.8829  0.5490
 3556SOL     OW16759   6.887   1.630   9.604  0.5263 -0.4482  0.3960
 3556SOL    HW116760   6.954   1.673   9.551  0.9286 -1.6929 -0.1383
 3556SOL    HW216761   6.811   1.687   9.598  0.8761 -0.0854 -0.7421
 3557SOL     OW16762   6.033   7.941   7.476  0.2501  0.2042  0.0209
 3557SOL    HW116763   5.946   7.970   7.502  0.6486  0.5191  1.0686
 3557SOL    HW216764   6.049   7.985   7.393 -0.6805 -0.0565 -0.3129
 3558SOL     OW16765   2.897   2.318   2.031 -0.0630 -0.5872  0.6121
 3558SOL    HW116766   2.807   2.288   2.022  0.3605 -2.6570  2.6086
 3558SOL    HW216767   2.905   2.388   1.966 -3.7642  1.2966  1.8996
 3559SOL     OW16768  10.622   2.355   5.698  0.3246  0.1089  0.5093
 3559SOL    HW116769  10.634   2.443   5.733  1.0988 -0.0963  0.7897
 3559SOL    HW216770  10.601   2.301   5.774 -1.4716  0.2672  0.1631
 3560SOL     OW16771   5.895  10.620   3.549  0.1800  0.2741  0.2656
 3560SOL    HW116772   5.959  10.690   3.539  1.0098 -0.6648 -1.3621
 3560SOL    HW216773   5.875  10.619   3.643  2.2770  0.8425  0.7679
 3561SOL     OW16774   1.338   4.117   3.842 -0.1432 -0.1754  0.5794
 3561SOL    HW116775   1.406   4.185   3.844  0.1540 -0.4854  2.4944
 3561SOL    HW216776   1.365   4.059   3.771  0.1689  1.0996 -0.3978
 3562SOL     OW16777   9.442   8.878   3.738  0.1934 -0.0693 -0.3283
 3562SOL    HW116778   9.422   8.971   3.752 -1.3764 -0.0626 -2.1923
 3562SOL    HW216779   9.538   8.874   3.738  0.2928  1.5603 -0.2144
 3563SOL     OW16780  10.204   8.817   5.268  0.6952  0.0790 -0.0668
 3563SOL    HW116781  10.269   8.806   5.338  0.3455 -0.1065  0.2360
 3563SOL    HW216782  10.188   8.728   5.236  1.0269  0.1882 -0.5478
 3564SOL     OW16783   6.039   4.894   7.222 -0.4745  0.4315  0.0240
 3564SOL    HW116784   6.049   4.884   7.127  0.2981 -0.4549  0.1870
 3564SOL    HW216785   6.125   4.923   7.252 -0.8399  1.1413  0.4101
 3565SOL     OW16786   9.407   7.832   6.119  0.8399 -0.0730  0.4285
 3565SOL    HW116787   9.476   7.892   6.148  0.4767  0.3841  0.3624
 3565SOL    HW216788   9.342   7.889   6.077  0.5973 -0.5396  0.1582
 3566SOL     OW16789   6.946   9.202   1.540 -0.9597 -0.2777  0.0290
 3566SOL    HW116790   7.036   9.212   1.509 -1.1916  0.6821 -0.3569
 3566SOL    HW216791   6.933   9.277   1.599 -1.8796  0.2530 -0.8284
 3567SOL     OW16792   6.642   2.330   3.857 -0.1290  0.2766  0.3699
 3567SOL    HW116793   6.706   2.323   3.786 -0.2767 -2.2330  0.3860
 3567SOL    HW216794   6.557   2.319   3.814 -0.4959  2.1541  0.5375
 3568SOL     OW16795   5.214   5.794   4.814 -0.3406  0.0513 -0.9448
 3568SOL    HW116796   5.309   5.807   4.806 -0.1980  0.0880  0.4979
 3568SOL    HW216797   5.205   5.715   4.867 -1.1067  0.2906 -0.7001
 3569SOL     OW16798   7.105   8.142   1.521 -0.9489 -0.3406  0.2705
 3569SOL    HW116799   7.160   8.199   1.576 -1.7493  0.1329  0.5962
 3569SOL    HW216800   7.133   8.162   1.432 -1.3468  0.7402  0.3627
 3570SOL     OW16801   8.466   4.011   7.483 -0.5839 -0.5222  0.0539
 3570SOL    HW116802   8.418   3.949   7.537 -3.6021 -0.0915 -1.9000
 3570SOL    HW216803   8.544   3.963   7.454 -0.2224 -1.5918  2.5581
 3571SOL     OW16804   6.294   8.203   5.972 -0.3959  0.5742 -0.3068
 3571SOL    HW116805   6.283   8.230   6.064 -0.7986 -0.1690 -0.1345
 3571SOL    HW216806   6.318   8.284   5.927  1.9816  0.5968  0.8188
 3572SOL     OW16807   3.422   8.301   2.107  0.0487 -0.1388  0.4775
 3572SOL    HW116808   3.330   8.297   2.135  0.0762 -2.2298  0.4127
 3572SOL    HW216809   3.433   8.227   2.048  2.1733 -0.9690  1.7712
 3573SOL     OW16810  10.186   6.664   7.155  0.1068  0.3844 -0.3728
 3573SOL    HW116811  10.148   6.738   7.108  1.4731  1.0496 -0.4780
 3573SOL    HW216812  10.164   6.588   7.102 -1.0863  0.7236 -0.4087
 3574SOL     OW16813   5.362   7.779   8.017 -0.2659 -0.3994  0.4388
 3574SOL    HW116814   5.266   7.777   8.017 -0.2885 -0.7579 -0.9695
 3574SOL    HW216815   5.387   7.739   8.100 -1.3288 -0.1630  0.8991
 3575SOL     OW16816   5.022   0.605   9.263 -0.9620  0.1646  0.4846
 3575SOL    HW116817   4.990   0.685   9.303 -0.8238  0.4292  0.0779
 3575SOL    HW216818   5.054   0.552   9.336  0.6695  1.2561  0.6267
 3576SOL     OW16819   1.778   6.387   9.362 -0.4394 -0.2342  0.0579
 3576SOL    HW116820   1.737   6.334   9.430 -2.0618  2.8436  1.7192
 3576SOL    HW216821   1.871   6.385   9.383 -0.6808 -0.9932  1.1374
 3577SOL     OW16822   4.845   7.035   8.445  0.4425  0.0011 -1.0940
 3577SOL    HW116823   4.860   7.009   8.536 -0.2090  0.6954 -0.7770
 3577SOL    HW216824   4.809   6.957   8.403 -1.1108  0.2323 -0.2600
 3578SOL     OW16825   3.431   1.430   0.322  0.0766  0.0129 -0.5040
 3578SOL    HW116826   3.507   1.443   0.266  0.2462  1.8012  0.0677
 3578SOL    HW216827   3.421   1.335   0.328  1.8912 -0.2499 -1.0676
 3579SOL     OW16828   9.539   5.679   9.558 -0.3121 -0.0749 -0.3019
 3579SOL    HW116829   9.587   5.626   9.622 -2.6891 -3.0282 -0.7447
 3579SOL    HW216830   9.607   5.716   9.502  1.6561  0.1235  2.0581
 3580SOL     OW16831   6.483   3.066   3.662 -0.3183  0.2130  0.0794
 3580SOL    HW116832   6.450   2.986   3.703  0.9988 -0.2060  0.3591
 3580SOL    HW216833   6.406   3.121   3.653 -1.1963 -0.9555  0.1836
 3581SOL     OW16834   5.447  10.602   2.619  0.4017  0.3919 -0.4559
 3581SOL    HW116835   5.491  10.519   2.603  1.5730  0.7305  0.7755
 3581SOL    HW216836   5.467  10.655   2.542  2.1011  0.4904  0.0169
 3582SOL     OW16837   9.743   4.949   2.983  0.6111 -0.1752 -0.0773
 3582SOL    HW116838   9.692   4.906   3.051 -0.8586  0.2108 -0.9003
 3582SOL    HW216839   9.772   4.877   2.926  0.8256 -0.3787  0.2875
 3583SOL     OW16840   0.170   8.644   7.345  0.5552  0.2686  0.1709
 3583SOL    HW116841   0.146   8.593   7.268  0.8237  0.1916  0.1360
 3583SOL    HW216842   0.231   8.588   7.393  1.1133  0.6874 -0.0382
 3584SOL     OW16843   9.141   9.718   7.204  0.4170  0.1990 -0.2129
 3584SOL    HW116844   9.230   9.682   7.202  0.5103  0.4261 -2.1441
 3584SOL    HW216845   9.138   9.768   7.285  2.3357  0.8341 -0.4654
 3585SOL     OW16846   0.635   8.428   9.267  0.0459 -0.2184  0.2474
 3585SOL    HW116847   0.685   8.376   9.204  0.1003 -1.0014  0.9217
 3585SOL    HW216848   0.685   8.420   9.348  0.2146  1.1369  0.3040
 3586SOL     OW16849   3.613   3.485   9.270 -0.6629  0.3304  0.5404
 3586SOL    HW116850   3.527   3.509   9.306 -1.0904  0.5364 -0.5758
 3586SOL    HW216851   3.666   3.564   9.279  0.5787 -0.6920  4.3487
 3587SOL     OW16852   9.286   4.406   1.500  0.7535  0.4247  0.2782
 3587SOL    HW116853   9.350   4.381   1.567 -0.2467  0.8719  1.4310
 3587SOL    HW216854   9.268   4.498   1.518  1.9761  1.1627 -1.9002
 3588SOL     OW16855   3.179  10.269   4.868 -0.0957 -0.5123 -0.3472
 3588SOL    HW116856   3.258  10.269   4.813 -1.4201 -0.5377 -2.3460
 3588SOL    HW216857   3.126  10.341   4.834 -1.0538 -0.6453  0.8083
 3589SOL     OW16858   6.726   7.624   6.730  0.1019 -0.0261 -0.6874
 3589SOL    HW116859   6.752   7.684   6.659  0.2808  0.1213 -0.4994
 3589SOL    HW216860   6.637   7.652   6.752  0.0280 -0.1023 -0.8858
 3590SOL     OW16861   9.436   3.768   0.708  0.1184 -0.1929 -0.1142
 3590SOL    HW116862   9.422   3.852   0.753  1.4529 -0.4941  0.9606
 3590SOL    HW216863   9.455   3.707   0.779  0.3130 -1.1414 -0.9740
 3591SOL     OW16864   8.459  10.526   8.638  0.4992 -0.3052  0.0595
 3591SOL    HW116865   8.424  10.449   8.682 -0.1937  0.2350  0.4609
 3591SOL    HW216866   8.552  10.527   8.661  0.2976 -0.4423  0.9113
 3592SOL     OW16867   7.335   1.979   7.783  0.0586  0.3509  0.3064
 3592SOL    HW116868   7.333   2.070   7.813 -1.7346  0.0596  1.2533
 3592SOL    HW216869   7.403   1.977   7.716  0.0346  2.4192  0.1483
 3593SOL     OW16870   8.607   2.083   4.775 -0.6277 -0.1022 -0.2744
 3593SOL    HW116871   8.635   2.151   4.713  1.7726 -0.3705  0.4083
 3593SOL    HW216872   8.587   2.131   4.855 -1.8769  0.0480 -0.6480
 3594SOL     OW16873   4.614   7.833  10.227  0.2435 -0.7787  0.2467
 3594SOL    HW116874   4.693   7.799  10.185  0.4301 -1.0443  0.8013
 3594SOL    HW216875   4.640   7.919  10.261 -0.1684 -0.1639 -0.9703
 3595SOL     OW16876  10.886   6.842   9.626 -0.7974 -0.1237  0.8550
 3595SOL    HW116877  10.973   6.874   9.648  0.2485 -0.1947 -2.5333
 3595SOL    HW216878  10.838   6.920   9.598 -0.0234 -0.5840 -2.1627
 3596SOL     OW16879   8.006   2.077   0.801 -0.1517  0.2943 -0.5597
 3596SOL    HW116880   7.914   2.075   0.775 -0.3235  0.6664 -0.0152
 3596SOL    HW216881   8.055   2.057   0.722 -0.6922  0.4603 -0.9368
 3597SOL     OW16882   1.359   5.353   1.222 -0.0541  0.6755  0.1701
 3597SOL    HW116883   1.408   5.418   1.272  1.0585 -0.5985  0.8069
 3597SOL    HW216884   1.284   5.332   1.277  0.6611 -0.0273  0.9125
 3598SOL     OW16885   2.912   2.482   3.685  0.4280 -0.2912 -0.3040
 3598SOL    HW116886   2.992   2.457   3.731  1.1327 -0.3581 -1.5456
 3598SOL    HW216887   2.899   2.574   3.707  0.0643 -0.6290  1.0037
 3599SOL     OW16888   5.599   1.444   3.664  0.2543 -0.4988  0.5758
 3599SOL    HW116889   5.683   1.408   3.635  0.2263  1.1494 -1.7927
 3599SOL    HW216890   5.537   1.372   3.651  0.9383 -1.0406  0.2405
 3600SOL     OW16891   4.299   9.107   3.605 -0.6717  0.6880  0.1481
 3600SOL    HW116892   4.363   9.129   3.672 -1.0283  1.1405  0.3469
 3600SOL    HW216893   4.350   9.070   3.533 -0.4456 -1.8487  1.4942
 3601SOL     OW16894   7.041   9.902   1.619  0.3872 -0.0782 -0.1856
 3601SOL    HW116895   6.990   9.827   1.586 -0.0621  0.4373 -0.6839
 3601SOL    HW216896   7.036   9.966   1.548  0.8817  0.3716  0.1873
 3602SOL     OW16897   0.641   8.015   0.516  0.3003  0.6603  0.5228
 3602SOL    HW116898   0.601   7.976   0.593  1.1317 -0.6318  0.3370
 3602SOL    HW216899   0.584   8.089   0.493 -1.1530 -0.2557  1.0788
 3603SOL     OW16900   8.271   1.575   9.874 -0.2661  0.0126 -0.1657
 3603SOL    HW116901   8.297   1.659   9.913  0.8567  1.0071 -2.7986
 3603SOL    HW216902   8.178   1.585   9.855  0.1865  1.3858 -1.9227
 3604SOL     OW16903   5.106   4.853   9.063 -0.2214  0.1817 -0.1244
 3604SOL    HW116904   5.134   4.874   9.152 -0.7294  1.7025 -0.2859
 3604SOL    HW216905   5.012   4.873   9.063 -1.5361 -4.6174  0.3714
 3605SOL     OW16906   7.772   1.837   3.390 -0.3052 -1.0298  0.0101
 3605SOL    HW116907   7.722   1.756   3.395 -2.2662 -0.1429 -2.8479
 3605SOL    HW216908   7.805   1.840   3.300 -0.0345  1.1780  0.1151
 3606SOL     OW16909   4.976   4.063   5.090  0.3557  0.7621 -0.5282
 3606SOL    HW116910   4.980   3.973   5.123 -2.5625  0.7524  0.0085
 3606SOL    HW216911   4.948   4.115   5.165 -0.3191  1.7366 -1.4352
 3607SOL     OW16912   6.073   9.044   9.823  0.2875 -0.1715  0.1590
 3607SOL    HW116913   6.002   8.995   9.783  0.6005 -0.8784  0.4617
 3607SOL    HW216914   6.073   9.015   9.915  0.4470  0.4232  0.3521
 3608SOL     OW16915   8.982   8.766   5.319 -0.3994  0.3476 -0.5524
 3608SOL    HW116916   8.943   8.692   5.273  0.0356 -0.3641  0.1908
 3608SOL    HW216917   8.908   8.823   5.340 -0.6541  0.4702 -1.7204
 3609SOL     OW16918   1.816   1.643   7.466 -0.1034  0.4692 -0.1297
 3609SOL    HW116919   1.811   1.573   7.401 -0.8335 -0.1609  0.5878
 3609SOL    HW216920   1.830   1.598   7.549 -1.8319  1.0549  0.5300
 3610SOL     OW16921   7.401   0.090   3.380 -0.1006  0.1720  0.2388
 3610SOL    HW116922   7.400   0.180   3.347 -1.1516  0.5944  1.3329
 3610SOL    HW216923   7.338   0.044   3.326 -0.6208  0.4645  0.5802
 3611SOL     OW16924   5.557   9.760   6.858 -0.4844  0.4142 -0.1783
 3611SOL    HW116925   5.491   9.827   6.840 -0.2488  0.8755  0.6474
 3611SOL    HW216926   5.638   9.809   6.872  0.0674 -0.1521 -1.2721
 3612SOL     OW16927   8.703   6.221   4.403 -0.3107 -0.3962 -0.1391
 3612SOL    HW116928   8.670   6.310   4.413 -0.3505 -0.3577 -0.6047
 3612SOL    HW216929   8.729   6.215   4.311  0.4488 -0.6119  0.0815
 3613SOL     OW16930   8.297   9.277   6.346  1.2531  0.1882  0.3752
 3613SOL    HW116931   8.254   9.222   6.280  0.0510 -1.3436  2.3308
 3613SOL    HW216932   8.390   9.270   6.326  0.9474 -0.5587 -0.9210
 3614SOL     OW16933   8.672  10.422   7.622 -0.6126 -0.2882  0.8487
 3614SOL    HW116934   8.699  10.343   7.668 -0.1339 -1.3823 -1.1866
 3614SOL    HW216935   8.741  10.437   7.557 -2.6934 -0.7025 -1.6318
 3615SOL     OW16936   7.598   9.725   1.009 -0.1753  0.2029 -0.0847
 3615SOL    HW116937   7.502   9.731   1.005 -0.0631  2.0516 -0.8527
 3615SOL    HW216938   7.617   9.635   0.984 -1.7240 -0.3367  0.5331
 3616SOL     OW16939   1.811   8.583  10.852  0.3742  0.4540  0.2471
 3616SOL    HW116940   1.818   8.506  10.909 -1.4374  1.6469  2.2327
 3616SOL    HW216941   1.893   8.630  10.865  1.1138 -0.6569 -0.2844
 3617SOL     OW16942   6.346   5.335   1.291  0.0473  0.0228 -0.1402
 3617SOL    HW116943   6.289   5.351   1.216  0.2452  1.5870  0.0090
 3617SOL    HW216944   6.287   5.315   1.363 -0.7318  4.6128  0.8138
 3618SOL     OW16945   4.857   8.527  10.905 -0.0811 -0.1172  0.1911
 3618SOL    HW116946   4.852   8.436  10.932 -1.0047 -0.0795  0.1894
 3618SOL    HW216947   4.783   8.569  10.948  0.0513  0.5261 -0.1947
 3619SOL     OW16948   0.132   8.666   9.987 -0.0550  0.2563 -0.4785
 3619SOL    HW116949   0.083   8.720   9.925  1.7080  1.1106 -1.1958
 3619SOL    HW216950   0.065   8.615  10.032 -1.8197  3.0152  0.2601
 3620SOL     OW16951   1.195  10.477   5.717 -0.1612 -0.2929 -0.3781
 3620SOL    HW116952   1.135  10.542   5.753 -1.0344 -0.5634 -1.3237
 3620SOL    HW216953   1.224  10.426   5.793 -0.7611  0.1360  0.1415
 3621SOL     OW16954   9.310   5.987   9.781  0.7318  0.0538  0.4212
 3621SOL    HW116955   9.291   5.989   9.875  1.1298 -0.1726  0.5111
 3621SOL    HW216956   9.301   6.077   9.752 -2.4593 -0.2656  0.0450
 3622SOL     OW16957   8.710   0.587   3.860  0.4045 -0.3288 -0.2228
 3622SOL    HW116958   8.726   0.681   3.855  0.8063 -0.3363  0.6756
 3622SOL    HW216959   8.635   0.572   3.803  0.6287  0.4639 -0.7438
 3623SOL     OW16960   6.569   6.898   5.283 -0.7163 -0.2026 -0.1502
 3623SOL    HW116961   6.614   6.981   5.265  0.3963 -0.7118  0.1956
 3623SOL    HW216962   6.584   6.845   5.205 -1.1814 -0.1812 -0.2547
 3624SOL     OW16963   5.201   9.157   9.311  0.1885 -0.6835 -0.3449
 3624SOL    HW116964   5.158   9.209   9.244  0.3522 -1.4696 -1.0697
 3624SOL    HW216965   5.224   9.220   9.379 -1.5150 -0.1440 -0.2266
 3625SOL     OW16966   2.976   5.132   3.860  0.4316 -0.0011 -0.1084
 3625SOL    HW116967   3.011   5.045   3.845 -1.7273 -0.6802 -1.6979
 3625SOL    HW216968   3.016   5.187   3.793 -1.2050 -0.7156 -1.7521
 3626SOL     OW16969   5.707   1.429   5.972  0.1713 -0.0239  0.2592
 3626SOL    HW116970   5.722   1.338   5.946  0.4876 -0.2565  1.2267
 3626SOL    HW216971   5.769   1.479   5.919  0.8606 -0.4955  0.5947
 3627SOL     OW16972   0.840   5.713  10.121 -0.0704  0.0127  0.1824
 3627SOL    HW116973   0.882   5.628  10.113 -1.1997 -0.5551  0.1086
 3627SOL    HW216974   0.754   5.695  10.160 -0.5053  1.0508 -0.2330
 3628SOL     OW16975   2.250   7.415   7.706 -0.4462 -0.4141 -0.3145
 3628SOL    HW116976   2.167   7.455   7.731 -0.2924 -0.1665 -0.2013
 3628SOL    HW216977   2.251   7.331   7.752  0.5442  0.6988  1.7932
 3629SOL     OW16978   6.475   5.293   4.308 -0.1947 -0.1591 -0.2265
 3629SOL    HW116979   6.568   5.278   4.293 -0.2979 -0.1856 -0.8787
 3629SOL    HW216980   6.465   5.388   4.308 -0.1508 -0.1540 -0.0346
 3630SOL     OW16981   5.542   1.864  10.102 -0.5446 -0.8589 -0.2447
 3630SOL    HW116982   5.533   1.882  10.195 -0.2920 -0.6213 -0.2654
 3630SOL    HW216983   5.592   1.782  10.098  3.0729  1.1371 -0.1791
 3631SOL     OW16984   4.078   5.604   0.138  0.2167 -0.6090 -0.0422
 3631SOL    HW116985   4.030   5.686   0.149 -0.5600 -1.1635  0.8397
 3631SOL    HW216986   4.121   5.589   0.222  2.0191 -0.1057 -0.8167
 3632SOL     OW16987   3.185   4.134   9.322  0.8090  0.0948 -0.0643
 3632SOL    HW116988   3.136   4.166   9.398  2.3522 -1.7757  1.8739
 3632SOL    HW216989   3.277   4.145   9.347  1.3569 -1.1562 -1.3881
 3633SOL     OW16990   6.867   9.628   5.183  0.1729 -0.3516  0.1807
 3633SOL    HW116991   6.824   9.710   5.160 -1.7803 -1.4697 -0.3798
 3633SOL    HW216992   6.943   9.623   5.125  0.1152  0.8555 -0.0239
 3634SOL     OW16993   3.748   2.163   1.840  0.2179 -0.1994  0.1701
 3634SOL    HW116994   3.787   2.243   1.807 -0.4281  0.5268  1.1061
 3634SOL    HW216995   3.819   2.098   1.836  0.4934  0.1545 -1.4418
 3635SOL     OW16996   1.913   7.577   8.971 -0.0600 -0.4781 -0.1033
 3635SOL    HW116997   1.972   7.501   8.971 -0.3992 -0.8006 -2.2542
 3635SOL    HW216998   1.839   7.550   8.917 -0.1516  1.4274 -1.0080
 3636SOL     OW16999   3.574   7.277   6.369  0.1136 -0.9527  0.2334
 3636SOL    HW117000   3.651   7.226   6.391  1.9304  0.8964 -1.4228
 3636SOL    HW217001   3.537   7.234   6.292  0.3619 -0.9933  0.1387
 3637SOL     OW17002   9.843   9.479   6.191 -0.6632  0.3500 -0.0461
 3637SOL    HW117003   9.753   9.477   6.222 -0.6312 -1.0353 -0.0096
 3637SOL    HW217004   9.896   9.458   6.269 -0.4400 -0.7605 -0.4793
 3638SOL     OW17005   2.885   2.205   7.005  0.1572 -0.2724 -0.2581
 3638SOL    HW117006   2.821   2.159   6.950 -1.7411  0.9250  0.8814
 3638SOL    HW217007   2.968   2.193   6.958 -0.5493 -3.1882 -1.0079
 3639SOL     OW17008   3.787   6.236   8.099  0.0805 -0.0738  0.2128
 3639SOL    HW117009   3.697   6.214   8.123  0.4678 -1.1301  0.7846
 3639SOL    HW217010   3.794   6.210   8.007 -1.0372  2.7988 -0.7899
 3640SOL     OW17011  10.318   3.140  10.251 -0.3625 -0.1265  0.7224
 3640SOL    HW117012  10.364   3.100  10.325 -0.8824  0.2728  1.2725
 3640SOL    HW217013  10.244   3.186  10.291 -1.1535 -0.6220 -0.1189
 3641SOL     OW17014   6.638   6.295   3.907  0.3734  0.2935 -0.3599
 3641SOL    HW117015   6.624   6.209   3.868  1.3202  0.0954 -0.2885
 3641SOL    HW217016   6.728   6.292   3.941 -0.1905  0.6820  1.2614
 3642SOL     OW17017   9.904   6.116   9.380 -0.0028 -0.0319  0.4673
 3642SOL    HW117018   9.861   6.070   9.452  1.9410 -1.0738  1.0332
 3642SOL    HW217019   9.876   6.068   9.301 -1.0670  0.2712  0.6461
 3643SOL     OW17020   3.579   4.226   7.845  0.1079  0.3574  0.3078
 3643SOL    HW117021   3.672   4.232   7.870  0.5597  1.1189 -1.3739
 3643SOL    HW217022   3.545   4.314   7.861 -0.1579  0.2490  0.3290
 3644SOL     OW17023   4.430   9.326   6.045  0.3083  0.2443  0.0292
 3644SOL    HW117024   4.384   9.319   5.962  0.6206 -0.5777 -0.0830
 3644SOL    HW217025   4.413   9.243   6.089 -2.9567  1.9918  2.4471
 3645SOL     OW17026   4.727   0.259   6.823 -0.0114  0.0115 -0.5594
 3645SOL    HW117027   4.673   0.181   6.826  0.0761 -0.0147  0.8365
 3645SOL    HW217028   4.677   0.326   6.868  1.5337 -0.3194  1.8059
 3646SOL     OW17029   4.949   5.468   7.402  0.3434 -0.0172 -0.0272
 3646SOL    HW117030   5.001   5.396   7.366 -0.2577  0.2400 -1.4673
 3646SOL    HW217031   4.870   5.425   7.437  0.7750 -0.2341  0.6908
 3647SOL     OW17032   3.676   9.046   2.774  0.1640  0.1151 -0.5840
 3647SOL    HW117033   3.672   9.041   2.678 -0.0384  1.3482 -0.6548
 3647SOL    HW217034   3.588   9.074   2.800  0.4820  0.7051 -0.1138
 3648SOL     OW17035   6.291   0.194   8.858 -0.0495 -0.2025 -0.1152
 3648SOL    HW117036   6.237   0.122   8.890  0.5302 -0.5698  0.0555
 3648SOL    HW217037   6.271   0.200   8.765 -0.0993 -0.5822 -0.1307
 3649SOL     OW17038   9.280   1.792   6.652  0.3181  0.1679  0.7681
 3649SOL    HW117039   9.217   1.768   6.720  0.5774 -0.0319  0.9389
 3649SOL    HW217040   9.265   1.886   6.638 -2.9157 -0.5957 -2.1756
 3650SOL     OW17041   4.963   7.640  10.728 -0.2901 -0.6162 -0.1197
 3650SOL    HW117042   5.049   7.623  10.689 -0.0662 -1.5322  0.7443
 3650SOL    HW217043   4.961   7.735  10.738 -0.6087 -0.2328 -2.8879
 3651SOL     OW17044   1.394  10.179   0.981 -0.6590  0.3134 -0.4486
 3651SOL    HW117045   1.346  10.134   1.051 -0.7847  1.7156  0.4003
 3651SOL    HW217046   1.339  10.167   0.903 -1.6371  0.5888  0.1813
 3652SOL     OW17047   8.223   7.910   2.857 -0.4450  0.0973  0.2049
 3652SOL    HW117048   8.179   7.966   2.792  1.5418  0.2657 -1.0726
 3652SOL    HW217049   8.308   7.891   2.818 -0.2051 -2.0099  1.6208
 3653SOL     OW17050   3.337   8.775   3.429 -0.2209  0.2154  0.0991
 3653SOL    HW117051   3.275   8.731   3.487  1.1060 -0.8164  0.7767
 3653SOL    HW217052   3.382   8.705   3.383  0.7164  0.9106 -0.0851
 3654SOL     OW17053   7.836   1.179   6.424 -0.0452 -0.0137  0.0503
 3654SOL    HW117054   7.816   1.159   6.332 -1.5234 -0.6523  0.4787
 3654SOL    HW217055   7.903   1.114   6.448  0.1211 -0.0446 -0.4730
 3655SOL     OW17056   2.973   3.237   9.139 -0.0503  0.5054  0.0996
 3655SOL    HW117057   3.000   3.208   9.052  0.9761  2.0732 -0.1599
 3655SOL    HW217058   2.938   3.159   9.181 -2.5444  0.0991 -2.4260
 3656SOL     OW17059   1.381   8.752   0.344 -0.2170  0.2996  0.1410
 3656SOL    HW117060   1.371   8.704   0.426  1.5164 -1.4531 -0.5697
 3656SOL    HW217061   1.336   8.698   0.279 -1.4580  1.6013 -0.1334
 3657SOL     OW17062   2.916   9.176   5.734 -0.1665  0.2380 -0.2185
 3657SOL    HW117063   3.011   9.171   5.727 -0.2348  0.4484 -1.5040
 3657SOL    HW217064   2.891   9.243   5.671 -1.2166 -0.2095 -0.2930
 3658SOL     OW17065   7.242   5.234   3.606  0.2608  0.0355  0.2004
 3658SOL    HW117066   7.146   5.239   3.611  0.0923 -1.8911 -0.0955
 3658SOL    HW217067   7.262   5.147   3.642  1.8033 -0.0363 -0.7698
 3659SOL     OW17068   2.213   2.983   0.191 -0.2643  0.7053 -0.2759
 3659SOL    HW117069   2.224   2.888   0.193  1.4011  0.8664 -0.8087
 3659SOL    HW217070   2.252   3.010   0.108 -2.1912  1.7155 -0.8983
 3660SOL     OW17071   4.395  10.917   1.411 -0.4662  0.1517 -0.0458
 3660SOL    HW117072   4.440  10.846   1.364 -1.4771 -0.9926  0.6645
 3660SOL    HW217073   4.445  10.928   1.492  0.7486  1.5191 -0.9221
 3661SOL     OW17074   1.761   7.323   9.219 -0.0976 -0.3830 -0.4570
 3661SOL    HW117075   1.789   7.377   9.293 -1.4407 -0.2599 -0.0072
 3661SOL    HW217076   1.840   7.310   9.168  0.7860 -0.1342  0.7870
 3662SOL     OW17077   3.012   0.586   8.086 -0.0020 -0.3478  0.1465
 3662SOL    HW117078   3.007   0.498   8.048 -0.5754 -0.7121  1.0378
 3662SOL    HW217079   2.931   0.629   8.059 -0.5294 -0.6918  1.1169
 3663SOL     OW17080   0.580   6.649   8.380 -0.4172  0.6291 -0.5044
 3663SOL    HW117081   0.603   6.564   8.343 -0.4006  0.8961 -1.1286
 3663SOL    HW217082   0.520   6.688   8.316 -1.5063  0.5273  0.4268
 3664SOL     OW17083   6.089   3.718   5.953 -0.2549  0.3842 -0.9638
 3664SOL    HW117084   6.047   3.682   5.875  0.8512 -0.5608 -1.1512
 3664SOL    HW217085   6.069   3.654   6.022 -0.9289  1.0356 -0.5436
 3665SOL     OW17086   5.778   2.826   1.707 -0.0983  0.5150  0.0047
 3665SOL    HW117087   5.772   2.861   1.796  1.7832 -0.4494  0.5559
 3665SOL    HW217088   5.850   2.763   1.711 -2.3342 -2.3754 -1.2602
 3666SOL     OW17089   9.069   7.378   0.956  0.1414 -0.2416  0.1236
 3666SOL    HW117090   9.008   7.355   0.886  1.6287  0.2837 -1.4184
 3666SOL    HW217091   9.028   7.343   1.035 -1.6050 -0.8721 -0.9858
 3667SOL     OW17092   8.562   7.000   9.356  0.3214 -0.1410 -0.4010
 3667SOL    HW117093   8.566   7.055   9.434  0.7807  0.9758 -1.1900
 3667SOL    HW217094   8.617   6.924   9.377  1.7708  0.9216 -0.2171
 3668SOL     OW17095   7.701   3.106   9.372 -0.2149  0.0398 -0.2495
 3668SOL    HW117096   7.774   3.078   9.315  0.9394 -1.5941  1.8843
 3668SOL    HW217097   7.639   3.033   9.369 -1.1325  0.8256 -0.9562
 3669SOL     OW17098   2.308   6.524   5.573 -0.3476 -0.0747  0.2732
 3669SOL    HW117099   2.300   6.543   5.666 -0.2867 -0.0337  0.2697
 3669SOL    HW217100   2.391   6.477   5.565 -0.3224 -0.0215  0.2295
 3670SOL     OW17101   5.000   9.802   3.273 -0.0054  0.1554 -0.0720
 3670SOL    HW117102   5.011   9.774   3.364 -0.3847 -0.8207 -0.3224
 3670SOL    HW217103   5.037   9.891   3.271 -1.4277  0.8262  1.3955
 3671SOL     OW17104   1.931   1.234   2.458  0.4750  0.1486  0.1326
 3671SOL    HW117105   2.002   1.267   2.513 -1.1972  1.3677  1.6940
 3671SOL    HW217106   1.944   1.139   2.458  3.2506  0.4223 -1.3800
 3672SOL     OW17107   6.005   6.919   3.655 -0.1670 -0.2947  0.2013
 3672SOL    HW117108   6.078   6.891   3.600 -0.3826 -0.7967  0.1624
 3672SOL    HW217109   6.022   6.877   3.740 -1.6022 -2.3940 -0.4442
 3673SOL     OW17110   4.321   3.733   8.978 -0.1996 -0.5099  0.7236
 3673SOL    HW117111   4.288   3.782   8.904  0.1003 -0.2495  0.7610
 3673SOL    HW217112   4.368   3.797   9.031  0.5691 -0.9149  0.5494
 3674SOL     OW17113   5.455   9.095   9.857  0.1461 -0.0734 -0.0710
 3674SOL    HW117114   5.408   9.164   9.810 -0.5069 -1.3069 -1.3165
 3674SOL    HW217115   5.510   9.141   9.920 -0.6774  1.5435 -0.4986
 3675SOL     OW17116   6.352  10.046   8.092 -0.3555 -0.3633  0.4528
 3675SOL    HW117117   6.303  10.050   8.174 -0.5127  0.8410  0.3190
 3675SOL    HW217118   6.440  10.016   8.119 -0.3438  0.2224  1.0957
 3676SOL     OW17119   6.774   3.828   8.686  0.6442  0.0422  0.1923
 3676SOL    HW117120   6.713   3.849   8.757 -1.2850  0.0491 -1.3652
 3676SOL    HW217121   6.810   3.743   8.710  0.4699  0.2942  1.4440
 3677SOL     OW17122   6.741   6.327   5.011 -0.2682 -0.4902  0.2617
 3677SOL    HW117123   6.662   6.316   4.960  1.1709 -0.5021 -2.0985
 3677SOL    HW217124   6.771   6.237   5.028 -1.1277 -0.5133  1.8705
 3678SOL     OW17125   8.882   9.941   7.802 -0.0074  0.2387 -0.1034
 3678SOL    HW117126   8.817   9.897   7.858  0.2955 -1.5680 -1.1001
 3678SOL    HW217127   8.956   9.881   7.800  0.9475  1.4052 -0.5192
 3679SOL     OW17128   8.661   1.091   2.610  0.1215 -0.4366  0.1379
 3679SOL    HW117129   8.628   1.149   2.542 -0.0810 -1.1251 -0.3699
 3679SOL    HW217130   8.583   1.063   2.658  0.3572  0.9026  1.3889
 3680SOL     OW17131   6.153   9.070  10.379  0.0826 -0.8860 -0.3628
 3680SOL    HW117132   6.248   9.070  10.395 -0.0362 -1.7906  0.4714
 3680SOL    HW217133   6.126   8.980  10.396 -0.5198 -1.3695 -3.3246
 3681SOL     OW17134   2.571   2.853   6.794 -0.2818 -0.0668  0.1747
 3681SOL    HW117135   2.546   2.825   6.705  1.4811 -1.2009 -0.0076
 3681SOL    HW217136   2.611   2.775   6.833  2.0312  1.3480  0.7610
 3682SOL     OW17137   1.430  10.860   2.382 -1.1323 -0.3781 -0.0674
 3682SOL    HW117138   1.489  10.803   2.333  0.3127  0.9304  0.0730
 3682SOL    HW217139   1.364  10.888   2.318  0.0034  0.3137 -0.9656
 3683SOL     OW17140   8.588   2.241   1.963  0.1471  0.4443  0.2918
 3683SOL    HW117141   8.527   2.314   1.955 -0.3237  0.1050  0.7558
 3683SOL    HW217142   8.667   2.271   1.917  0.1310  1.4191  0.8691
 3684SOL     OW17143   1.829   2.942   5.914  0.6308  0.2577 -0.1402
 3684SOL    HW117144   1.818   2.859   5.960  1.2268  0.3719  0.2186
 3684SOL    HW217145   1.741   2.968   5.890  0.5035 -1.0260 -1.2228
 3685SOL     OW17146   1.100   8.032   6.874 -0.5806 -1.0076  0.5857
 3685SOL    HW117147   1.061   8.062   6.791 -2.6163 -0.8756  1.5192
 3685SOL    HW217148   1.148   7.952   6.850 -0.9230 -0.8415 -0.7648
 3686SOL     OW17149   1.327   6.142   8.199  0.0164  0.3750 -0.3382
 3686SOL    HW117150   1.322   6.228   8.240 -2.0690  0.6492 -1.0491
 3686SOL    HW217151   1.383   6.155   8.123 -0.0190  1.0223 -0.2604
 3687SOL     OW17152   9.675  10.592  10.087 -1.1175 -0.2321 -0.1940
 3687SOL    HW117153   9.756  10.619  10.044 -1.5009 -0.6238 -1.1913
 3687SOL    HW217154   9.692  10.605  10.181  0.1561 -0.4947 -0.3744
 3688SOL     OW17155   7.869   4.513   0.585  0.0944 -0.3119  0.3837
 3688SOL    HW117156   7.942   4.474   0.535  0.1321  0.0547  0.1494
 3688SOL    HW217157   7.908   4.586   0.632 -0.1657  0.0174  0.0902
 3689SOL     OW17158   5.401   0.811   1.040 -0.2682 -0.6738  0.2965
 3689SOL    HW117159   5.407   0.806   1.135  1.0666  0.9202  0.3218
 3689SOL    HW217160   5.447   0.733   1.009  0.1165 -0.7100  0.9423
 3690SOL     OW17161   3.465  10.872   5.797 -0.0094  0.0396 -0.0385
 3690SOL    HW117162   3.536  10.885   5.734 -1.9904  0.8308 -2.2377
 3690SOL    HW217163   3.446  10.778   5.793  0.8228 -0.1639  0.5080
 3691SOL     OW17164   0.543   8.558   3.851 -0.1593 -0.1438 -0.4583
 3691SOL    HW117165   0.588   8.621   3.908  0.6627  0.5850 -1.8520
 3691SOL    HW217166   0.575   8.473   3.880 -0.4660  0.1345  0.7559
 3692SOL     OW17167   0.524   2.389   5.229  0.0242  0.0693 -0.4480
 3692SOL    HW117168   0.600   2.362   5.281 -0.3444  0.6348  0.4021
 3692SOL    HW217169   0.464   2.427   5.292 -1.1016 -0.6231 -1.0691
 3693SOL     OW17170   5.134   8.905   0.371  0.2337 -0.0446  0.7841
 3693SOL    HW117171   5.120   8.880   0.463  1.0847  1.4382  1.3506
 3693SOL    HW217172   5.186   8.985   0.376  1.3516 -0.6008 -1.0347
 3694SOL     OW17173   2.519   0.117   7.460  0.6894  0.3852  0.6377
 3694SOL    HW117174   2.516   0.079   7.372  1.1912  1.2463  0.2364
 3694SOL    HW217175   2.605   0.095   7.494  0.1045 -0.8882  1.3673
 3695SOL     OW17176  10.361   6.408   6.943  0.1395  0.3269 -0.4189
 3695SOL    HW117177  10.356   6.483   6.883  1.0686  0.2767 -0.5778
 3695SOL    HW217178  10.353   6.331   6.886  2.7702  0.2267 -0.7583
 3696SOL     OW17179   4.075   0.569   6.021 -0.6007 -0.5620 -0.0923
 3696SOL    HW117180   3.998   0.528   5.981 -0.1355 -0.4995 -1.0985
 3696SOL    HW217181   4.040   0.621   6.093 -1.2739 -2.1522  0.7755
 3697SOL     OW17182   8.329   6.621   0.045 -0.4885  0.2886 -0.6820
 3697SOL    HW117183   8.378   6.703   0.044 -0.8291  0.5827  1.6240
 3697SOL    HW217184   8.389   6.557   0.083 -1.1030  0.1163  0.0173
 3698SOL     OW17185   4.171   1.395   4.285 -0.3698 -0.3769 -0.3868
 3698SOL    HW117186   4.176   1.490   4.294  0.3691 -0.3706 -0.8859
 3698SOL    HW217187   4.185   1.362   4.374  1.4228 -0.0902 -0.5319
 3699SOL     OW17188   6.205   8.652   0.959  0.1389 -0.2446  0.1795
 3699SOL    HW117189   6.282   8.651   1.016 -0.0544  0.0623  0.4471
 3699SOL    HW217190   6.168   8.564   0.969  0.7012 -0.5400 -0.2946
 3700SOL     OW17191   7.841   0.616   5.845  0.1279 -0.0908  0.5473
 3700SOL    HW117192   7.864   0.606   5.938  0.6766 -1.9906  0.2476
 3700SOL    HW217193   7.926   0.623   5.801 -0.1073  0.0180  0.1171
 3701SOL     OW17194  10.337   0.329   8.473 -0.4623  0.1799  0.3592
 3701SOL    HW117195  10.305   0.381   8.547 -1.1008  2.1008 -1.2020
 3701SOL    HW217196  10.346   0.240   8.509 -1.2959  0.9222  2.5791
 3702SOL     OW17197   3.530   7.318   4.099 -0.1340  0.2673  0.5641
 3702SOL    HW117198   3.577   7.390   4.142 -0.4164  0.3407  0.7540
 3702SOL    HW217199   3.560   7.322   4.008  0.4438  0.1330  0.7416
 3703SOL     OW17200   1.054   2.889  10.017 -0.0081  0.7119 -0.1083
 3703SOL    HW117201   0.985   2.910  10.080  0.3300  2.3811 -0.2531
 3703SOL    HW217202   1.117   2.960  10.027  1.3309 -0.3857 -0.5124
 3704SOL     OW17203   2.307   4.085   6.106 -0.3961  0.0194 -0.1400
 3704SOL    HW117204   2.236   4.149   6.115 -0.1119  0.3870 -0.4959
 3704SOL    HW217205   2.330   4.087   6.013  1.5482  1.4883  0.3124
 3705SOL     OW17206   1.103   4.671   2.278  0.7628 -0.3145  0.1580
 3705SOL    HW117207   1.077   4.747   2.225 -0.5938 -0.7924  0.1012
 3705SOL    HW217208   1.123   4.709   2.364 -0.3372  0.0798  0.2592
 3706SOL     OW17209   5.540   4.304   1.214  0.0405 -0.1452 -0.7021
 3706SOL    HW117210   5.606   4.246   1.252  2.8960  3.7480  0.8978
 3706SOL    HW217211   5.497   4.346   1.289 -0.2571  1.4977 -1.7333
 3707SOL     OW17212  10.349   3.600   1.127  0.2388  0.7563 -0.1338
 3707SOL    HW117213  10.383   3.521   1.085 -1.2909 -0.2295  0.3994
 3707SOL    HW217214  10.371   3.588   1.220  1.2397  1.6504 -0.2384
 3708SOL     OW17215  10.640   1.722   7.834 -0.2290 -0.4428  0.4531
 3708SOL    HW117216  10.649   1.637   7.877 -0.9475 -0.5734  0.3528
 3708SOL    HW217217  10.692   1.782   7.888  0.4719 -0.9801  0.3965
 3709SOL     OW17218   4.846   1.131   8.171  0.4359 -0.0418 -0.5163
 3709SOL    HW117219   4.933   1.139   8.132  0.0050 -1.3853 -1.8882
 3709SOL    HW217220   4.793   1.196   8.126  0.1509 -0.9836 -1.5856
 3710SOL     OW17221   9.155   8.613   6.516  0.2086  0.3834  0.7171
 3710SOL    HW117222   9.200   8.665   6.582 -0.2645  0.2799  1.1281
 3710SOL    HW217223   9.063   8.613   6.544 -0.4068  2.1491 -1.0699
 3711SOL     OW17224   9.922   1.534   9.891  0.1129  0.4792  0.1689
 3711SOL    HW117225   9.983   1.546   9.964 -0.6124  0.6691  0.7478
 3711SOL    HW217226   9.836   1.551   9.928 -0.1172  2.5265 -1.1531
 3712SOL     OW17227   9.387  10.916   5.500 -0.4295  0.5380  0.3463
 3712SOL    HW117228   9.301  10.895   5.537 -0.9163  0.9524 -0.5184
 3712SOL    HW217229   9.447  10.854   5.542 -0.6318  2.0896  3.1179
 3713SOL     OW17230   6.747   7.473   9.211  0.0203 -0.0627 -0.4601
 3713SOL    HW117231   6.781   7.408   9.149 -0.0883  0.3044 -0.9119
 3713SOL    HW217232   6.763   7.557   9.168  0.9257  0.2660  0.4827
 3714SOL     OW17233   9.724   7.960  10.078 -0.2072 -0.3961  0.4139
 3714SOL    HW117234   9.802   7.903  10.076  1.1894  1.3761  1.3594
 3714SOL    HW217235   9.656   7.906  10.117  0.8522 -1.6450  0.6139
 3715SOL     OW17236   9.092   3.475   9.197 -0.1308 -0.0166  0.3633
 3715SOL    HW117237   9.131   3.477   9.110 -1.4706  0.6717 -0.2590
 3715SOL    HW217238   9.166   3.465   9.257  1.1623  2.4550 -0.6586
 3716SOL     OW17239   1.659   3.657   3.033 -0.8665  0.6121  0.2161
 3716SOL    HW117240   1.723   3.726   3.051 -1.2315  0.9715  0.1514
 3716SOL    HW217241   1.605   3.654   3.112 -0.4189 -0.0856  0.5014
 3717SOL     OW17242   1.298   5.686   5.473  0.5704  0.1844  0.3630
 3717SOL    HW117243   1.289   5.633   5.553  0.0994  0.0121  0.1982
 3717SOL    HW217244   1.209   5.717   5.455  0.8323  0.9845  0.4248
 3718SOL     OW17245   8.771   9.669   1.026  0.6341  0.3166 -0.1635
 3718SOL    HW117246   8.676   9.667   1.030  0.6046 -1.2005 -0.7310
 3718SOL    HW217247   8.795   9.579   1.001  2.0903  1.2490 -2.4011
 3719SOL     OW17248   4.928   0.753   0.822  0.1249  0.3894  0.2720
 3719SOL    HW117249   4.865   0.825   0.830  1.7237  1.8078  0.8438
 3719SOL    HW217250   5.010   0.790   0.855  0.2704 -2.8166  4.3732
 3720SOL     OW17251   7.691  10.811   7.485 -0.4288  0.0366 -0.2071
 3720SOL    HW117252   7.696  10.761   7.566 -0.2321  0.1067 -0.1747
 3720SOL    HW217253   7.603  10.795   7.452 -0.6177  0.2684  0.1822
 3721SOL     OW17254   3.012   3.185   7.690 -0.5301 -0.1028  0.2366
 3721SOL    HW117255   3.063   3.215   7.764 -2.5110  1.8177  0.9295
 3721SOL    HW217256   3.077   3.161   7.624  1.2675  1.7034  1.2465
 3722SOL     OW17257   1.313   7.088   6.956  0.4513 -0.0324 -0.1973
 3722SOL    HW117258   1.323   7.060   6.865  2.1268  0.5028 -0.1996
 3722SOL    HW217259   1.219   7.079   6.973  0.2133 -0.8296 -1.7426
 3723SOL     OW17260   9.583   8.002   1.241  0.1490 -0.5865 -0.0869
 3723SOL    HW117261   9.492   8.017   1.218  0.0091  0.1606  0.9116
 3723SOL    HW217262   9.630   8.074   1.198  0.2395 -0.7912 -0.3364
 3724SOL     OW17263   5.423  10.835   8.591 -0.6700  0.0007 -0.3481
 3724SOL    HW117264   5.365  10.784   8.647 -0.6250 -0.6197 -0.8581
 3724SOL    HW217265   5.428  10.921   8.633 -0.0588 -0.6665  1.0038
 3725SOL     OW17266   1.165   9.352   6.146 -0.2821  0.0995  0.0758
 3725SOL    HW117267   1.210   9.433   6.171 -0.2862 -0.0262  0.4879
 3725SOL    HW217268   1.082   9.354   6.193  0.4108 -0.9323  1.4304
 3726SOL     OW17269   6.748   2.929   0.708 -0.4037  0.4003  0.1165
 3726SOL    HW117270   6.777   2.958   0.622 -0.8834  1.0671  0.1723
 3726SOL    HW217271   6.762   3.005   0.765  1.9479 -0.6680  1.1356
 3727SOL     OW17272  10.222   8.700  10.224  0.0118 -0.4023 -0.1313
 3727SOL    HW117273  10.161   8.716  10.151 -0.0504  0.2412  0.0568
 3727SOL    HW217274  10.180   8.740  10.300  0.9196  0.5376 -0.1092
 3728SOL     OW17275   9.892   4.826   8.616 -0.6267 -0.1272  0.3525
 3728SOL    HW117276   9.844   4.868   8.688 -3.1942  1.4030 -2.0253
 3728SOL    HW217277   9.878   4.732   8.629 -0.7602  0.0927  2.0051
 3729SOL     OW17278   8.317   4.934   8.887  0.1767 -0.3275 -0.3128
 3729SOL    HW117279   8.392   4.981   8.850 -0.1809  0.0254 -0.5907
 3729SOL    HW217280   8.263   5.002   8.928 -0.9362 -0.3139 -1.7161
 3730SOL     OW17281   0.890   2.489   8.613  0.1822  0.2737  0.0742
 3730SOL    HW117282   0.870   2.420   8.550 -0.4087  0.6522 -0.1575
 3730SOL    HW217283   0.930   2.559   8.561 -1.2638  1.0222 -0.0746
 3731SOL     OW17284   1.159   1.351   3.263  0.6432 -0.3909  0.1579
 3731SOL    HW117285   1.240   1.337   3.311  0.9650 -0.5870 -0.4404
 3731SOL    HW217286   1.181   1.335   3.172 -0.2431 -1.1810  0.0701
 3732SOL     OW17287   7.720  10.354   8.892  0.2244 -0.1876  0.2972
 3732SOL    HW117288   7.769  10.436   8.885 -0.3013  0.2062  1.1827
 3732SOL    HW217289   7.632  10.380   8.917  0.0614 -1.0267  0.6331
 3733SOL     OW17290   3.164   8.605   2.845 -0.1949 -0.0745  0.0187
 3733SOL    HW117291   3.207   8.687   2.818  0.4459 -0.6981 -0.9083
 3733SOL    HW217292   3.235   8.550   2.877 -0.9965  0.9530  4.1570
 3734SOL     OW17293   2.482   4.965   7.266 -0.7905 -0.0532  0.1429
 3734SOL    HW117294   2.529   4.974   7.349  0.7964  0.6779 -0.7908
 3734SOL    HW217295   2.427   5.043   7.262 -0.6398  0.0679  0.3755
 3735SOL     OW17296  10.135   1.929   3.194 -0.2294  0.1419 -0.6812
 3735SOL    HW117297  10.112   2.001   3.134 -1.3879  1.3175  1.0832
 3735SOL    HW217298  10.074   1.859   3.171  0.2861  0.0254 -1.7902
 3736SOL     OW17299   0.346   0.129   3.944  0.8415  0.6156  0.4354
 3736SOL    HW117300   0.305   0.215   3.948  0.8158  0.6995 -0.9598
 3736SOL    HW217301   0.285   0.071   3.990 -1.0059  0.7081 -1.6861
 3737SOL     OW17302   6.506   7.125   0.914 -0.0603  0.1175 -0.2944
 3737SOL    HW117303   6.450   7.197   0.885 -0.7754 -0.3048 -0.0093
 3737SOL    HW217304   6.576   7.120   0.849 -0.5304  0.4578 -0.8354
 3738SOL     OW17305   7.536   2.889  10.283  0.1627 -0.8988  0.5317
 3738SOL    HW117306   7.576   2.946  10.349 -0.1334  0.0965 -0.1285
 3738SOL    HW217307   7.544   2.937  10.201  1.5119 -2.5855 -0.3893
 3739SOL     OW17308   4.876   4.875   0.285  0.2865  0.3818 -0.1433
 3739SOL    HW117309   4.847   4.961   0.254 -0.6495  0.4070  0.7616
 3739SOL    HW217310   4.856   4.815   0.214 -0.5432  0.6652 -0.1562
 3740SOL     OW17311   3.549   7.782   7.072  0.2846 -0.2628 -0.2877
 3740SOL    HW117312   3.601   7.778   6.992  0.2734 -0.3439 -0.2914
 3740SOL    HW217313   3.459   7.767   7.043  0.4981 -2.3761 -0.0313
 3741SOL     OW17314   3.484   7.835   2.233 -0.2863  0.4845 -0.6285
 3741SOL    HW117315   3.538   7.884   2.295 -1.4625  1.2419 -0.1800
 3741SOL    HW217316   3.396   7.838   2.269 -0.2005 -3.6635  0.5188
 3742SOL     OW17317  10.848   6.564   8.570  0.2720  0.8480  0.1261
 3742SOL    HW117318  10.818   6.508   8.642  0.7604 -0.4555 -0.6499
 3742SOL    HW217319  10.943   6.570   8.583  0.4339  0.1812 -0.6812
 3743SOL     OW17320  10.889   2.165   8.713 -0.2258  0.4597  0.7329
 3743SOL    HW117321  10.818   2.196   8.769  0.1309 -0.0627  1.4796
 3743SOL    HW217322  10.851   2.090   8.667 -1.0955  1.9117 -1.0860
 3744SOL     OW17323   0.560   9.874   2.228 -0.6723  0.2612  0.3605
 3744SOL    HW117324   0.539   9.784   2.253  2.5471 -0.0540  2.6207
 3744SOL    HW217325   0.506   9.928   2.286 -0.3024 -0.3231  1.2746
 3745SOL     OW17326   4.954   5.655   3.471 -0.7259  0.7166  0.2513
 3745SOL    HW117327   4.971   5.591   3.540 -1.3160  0.3257  0.0442
 3745SOL    HW217328   4.875   5.701   3.500 -2.5181 -1.1811 -1.3267
 3746SOL     OW17329   8.442   6.017   1.338  0.6174  0.3698 -0.1542
 3746SOL    HW117330   8.470   5.959   1.268 -3.6230 -1.1359 -0.9404
 3746SOL    HW217331   8.453   5.965   1.418 -0.5762 -0.5164 -0.5402
 3747SOL     OW17332   7.158   3.147   7.061 -0.0748 -0.5253 -0.1181
 3747SOL    HW117333   7.126   3.099   7.136 -1.9049 -1.2300 -1.2761
 3747SOL    HW217334   7.105   3.227   7.059 -0.7353 -0.9692 -1.1834
 3748SOL     OW17335   7.548   1.957   3.301  1.0974  0.3376  0.5509
 3748SOL    HW117336   7.633   1.932   3.336 -0.1137 -2.0833  2.0012
 3748SOL    HW217337   7.492   1.881   3.316 -0.8330  1.0493 -2.2249
 3749SOL     OW17338   7.654   6.038  10.584 -0.4223 -0.0029  0.1804
 3749SOL    HW117339   7.701   5.963  10.548 -0.2406  0.2163 -0.0461
 3749SOL    HW217340   7.722   6.105  10.596 -0.6569  0.2829 -0.0593
 3750SOL     OW17341   7.019   8.307   8.839 -0.6290  0.0951  0.3154
 3750SOL    HW117342   7.051   8.236   8.783  0.7591  0.9059  0.0408
 3750SOL    HW217343   7.066   8.295   8.922 -1.6787 -0.3040  0.8786
 3751SOL     OW17344   8.553   1.512   9.438  0.1040  0.4974  0.1382
 3751SOL    HW117345   8.597   1.559   9.367  0.6967  0.5548  0.5327
 3751SOL    HW217346   8.604   1.535   9.516 -0.1988 -0.0195  0.4882
 3752SOL     OW17347   1.691   8.447   2.963 -0.3038 -0.2894  0.0915
 3752SOL    HW117348   1.604   8.432   2.929 -0.5330  0.7047  0.2100
 3752SOL    HW217349   1.705   8.542   2.954  1.4099 -0.6261 -1.4682
 3753SOL     OW17350   8.917   9.247   9.725  0.4717 -0.0095 -0.3794
 3753SOL    HW117351   8.912   9.323   9.667 -0.4742  0.6614  0.5431
 3753SOL    HW217352   8.873   9.275   9.805 -0.2751 -1.6578 -0.1682
 3754SOL     OW17353   4.646   3.238  10.210  0.4313  0.0150 -0.3008
 3754SOL    HW117354   4.612   3.154  10.179  0.4579 -0.1999  0.2451
 3754SOL    HW217355   4.658   3.226  10.305  2.0534  0.0703 -0.4617
 3755SOL     OW17356  10.307   1.861   1.143  0.3026  0.0099  0.2906
 3755SOL    HW117357  10.214   1.866   1.125  0.6154  0.5135 -1.3581
 3755SOL    HW217358  10.313   1.817   1.228 -1.4965  1.7140  1.3902
 3756SOL     OW17359   4.717   4.910   1.736  0.0107 -0.7085  0.3884
 3756SOL    HW117360   4.727   4.815   1.734  0.9063 -0.6157 -0.7672
 3756SOL    HW217361   4.800   4.943   1.769  0.3071 -0.2816 -0.7101
 3757SOL     OW17362   2.469   5.270   0.657 -0.2020  0.4059 -0.2109
 3757SOL    HW117363   2.474   5.271   0.753  1.1219 -0.8257 -0.2356
 3757SOL    HW217364   2.470   5.177   0.634  1.1178  0.7017 -1.4718
 3758SOL     OW17365   3.931   6.729   8.430 -0.5375  0.0199  0.0658
 3758SOL    HW117366   3.999   6.708   8.494  0.2355 -2.0574 -1.3178
 3758SOL    HW217367   3.880   6.799   8.471  1.5771  0.6918  1.7438
 3759SOL     OW17368   4.499   2.145   7.599  0.5094  0.3402  0.2165
 3759SOL    HW117369   4.529   2.061   7.636  2.6551  0.2716 -1.5319
 3759SOL    HW217370   4.568   2.171   7.538 -1.2044  2.2526 -1.0281
 3760SOL     OW17371   0.823   3.254   1.964 -0.2285 -0.1900  0.5227
 3760SOL    HW117372   0.887   3.229   1.897 -0.6643 -0.3823  0.1736
 3760SOL    HW217373   0.792   3.340   1.937 -2.4030 -1.3791 -1.0626
 3761SOL     OW17374   1.408   1.383   0.217 -0.2212 -0.0039  0.2168
 3761SOL    HW117375   1.496   1.389   0.256 -0.4212  1.6973  0.4619
 3761SOL    HW217376   1.403   1.457   0.157 -1.5582  0.0125  0.3221
 3762SOL     OW17377   7.299   4.855   0.573  0.2158 -0.8719 -0.4242
 3762SOL    HW117378   7.347   4.937   0.584 -1.6686  0.1281  0.7013
 3762SOL    HW217379   7.220   4.879   0.524 -0.6054 -1.8983  0.3502
 3763SOL     OW17380  10.693   9.617   8.816  0.3599 -0.0400 -0.4557
 3763SOL    HW117381  10.681   9.687   8.879  2.4349 -0.4020  0.4106
 3763SOL    HW217382  10.709   9.662   8.733  1.7870  0.5548  0.1144
 3764SOL     OW17383  10.629   1.862   9.266 -0.5342 -0.6256 -0.8162
 3764SOL    HW117384  10.549   1.839   9.312 -0.6610  0.9648 -0.1707
 3764SOL    HW217385  10.699   1.816   9.313 -0.8081 -0.0524  0.1744
 3765SOL     OW17386   7.391   9.861   5.033  0.7051 -0.0569  0.5733
 3765SOL    HW117387   7.329   9.861   4.959  1.0881 -0.2443  0.2501
 3765SOL    HW217388   7.347   9.809   5.100  0.8462 -0.8717  0.0571
 3766SOL     OW17389   3.348   5.897   0.496  0.0821 -0.0078  0.0746
 3766SOL    HW117390   3.299   5.979   0.496 -0.4100 -0.2854 -0.7003
 3766SOL    HW217391   3.281   5.829   0.490  0.5348 -0.4205 -0.3960
 3767SOL     OW17392   3.590  10.097   4.149 -0.0141 -0.0484 -0.1935
 3767SOL    HW117393   3.666  10.119   4.095 -0.0072 -2.2034 -1.1927
 3767SOL    HW217394   3.539  10.036   4.095 -1.3998 -0.2457  1.2429
 3768SOL     OW17395   1.360  10.471   2.810  0.6637  0.6814  0.1760
 3768SOL    HW117396   1.416  10.473   2.887 -0.7260 -1.6063  1.3619
 3768SOL    HW217397   1.417  10.500   2.738  2.4319  1.3853  1.7800
 3769SOL     OW17398   7.958  10.255   3.097  0.0629 -0.1098  0.1999
 3769SOL    HW117399   8.049  10.229   3.086  0.0006  0.1141 -1.1203
 3769SOL    HW217400   7.931  10.283   3.009 -1.3293 -0.3437  0.5310
 3770SOL     OW17401   2.601   1.186   6.272 -0.4037 -0.5489  0.1613
 3770SOL    HW117402   2.567   1.186   6.183  1.0588  0.0229 -0.4166
 3770SOL    HW217403   2.688   1.225   6.265  0.5384 -2.2835  1.5371
 3771SOL     OW17404   2.651   1.431   3.952  0.2179 -0.2311  0.2075
 3771SOL    HW117405   2.557   1.417   3.960  0.2900 -0.6694  0.2783
 3771SOL    HW217406   2.659   1.523   3.924 -0.1993  0.0078  0.8600
 3772SOL     OW17407  10.759   1.859  10.174  0.3760  0.3449  0.3241
 3772SOL    HW117408  10.829   1.869  10.239  0.5918 -0.0546  0.1609
 3772SOL    HW217409  10.773   1.771  10.139 -0.7396 -0.0946  0.9222
 3773SOL     OW17410   0.793   1.805   7.965  0.2430 -0.3704  0.0245
 3773SOL    HW117411   0.835   1.890   7.969  0.5531 -0.5655  2.0542
 3773SOL    HW217412   0.784   1.786   7.871  4.4291 -0.2168 -0.5929
 3774SOL     OW17413   6.681   7.498   3.887 -0.5986 -0.2460 -0.4650
 3774SOL    HW117414   6.687   7.499   3.983 -0.0874 -0.6339 -0.4883
 3774SOL    HW217415   6.638   7.580   3.865  1.5497  1.0793 -0.0540
 3775SOL     OW17416   5.605   2.243   4.712  0.4127  0.2533 -0.0503
 3775SOL    HW117417   5.608   2.172   4.777  1.9841 -0.8663 -1.2729
 3775SOL    HW217418   5.520   2.233   4.670  0.5351 -0.7994 -0.0738
 3776SOL     OW17419   6.050   6.604   9.208  0.9036 -0.1337  0.0070
 3776SOL    HW117420   6.101   6.671   9.253 -0.8747  0.8436  0.6497
 3776SOL    HW217421   5.983   6.653   9.161 -0.3670 -1.4460  0.3904
 3777SOL     OW17422   9.709   2.665   1.362 -0.3503 -0.2014 -0.2074
 3777SOL    HW117423   9.753   2.617   1.292 -1.3842 -1.5796  0.0387
 3777SOL    HW217424   9.650   2.601   1.402 -2.6340  1.5295 -0.5616
 3778SOL     OW17425   4.361   6.125  10.476 -0.6964 -0.1675  0.2717
 3778SOL    HW117426   4.423   6.198  10.484  0.7513 -1.3500  0.3200
 3778SOL    HW217427   4.331   6.129  10.385 -0.2084  0.1755  0.1189
 3779SOL     OW17428   1.818   5.380   9.683 -0.3293 -0.2240 -0.0172
 3779SOL    HW117429   1.882   5.327   9.635 -0.5544  0.7144 -1.4123
 3779SOL    HW217430   1.843   5.370   9.774 -0.1957 -2.5001 -0.2262
 3780SOL     OW17431   7.174   5.792  10.721 -0.6641  0.3089  0.0409
 3780SOL    HW117432   7.252   5.789  10.775  0.3526 -0.9536 -1.4178
 3780SOL    HW217433   7.154   5.885  10.711  1.8276  0.7799 -1.1557
 3781SOL     OW17434   1.283  10.819   3.775  0.2569  0.3776 -0.5366
 3781SOL    HW117435   1.323  10.748   3.825  1.1990  0.8627 -0.5725
 3781SOL    HW217436   1.200  10.836   3.820  0.9572  0.6260  0.7300
 3782SOL     OW17437   0.460   3.816   3.104 -0.0022 -0.1603 -0.1619
 3782SOL    HW117438   0.420   3.862   3.178 -0.5912  0.5310 -0.8791
 3782SOL    HW217439   0.426   3.862   3.027  2.5073  0.7294 -0.8232
 3783SOL     OW17440   5.195   4.106   7.864 -0.6477  0.1345 -0.0921
 3783SOL    HW117441   5.257   4.155   7.918 -2.4465  1.2859  1.0497
 3783SOL    HW217442   5.123   4.085   7.924 -1.2247 -1.4513 -1.2712
 3784SOL     OW17443   8.216  10.393   3.726  0.0336  0.1202  0.1588
 3784SOL    HW117444   8.208  10.466   3.665 -0.3593  0.6580  0.8284
 3784SOL    HW217445   8.130  10.351   3.725  0.4261 -0.7119 -0.6609
 3785SOL     OW17446   2.763   0.840   1.536 -0.6419 -0.0774  0.4265
 3785SOL    HW117447   2.806   0.757   1.515  0.0043  0.4213 -0.2801
 3785SOL    HW217448   2.818   0.907   1.495 -0.9543  0.7329  1.2913
 3786SOL     OW17449   9.490   2.020   0.517 -0.4953 -0.0525 -0.2037
 3786SOL    HW117450   9.516   1.936   0.554 -2.3200  0.3390  2.1983
 3786SOL    HW217451   9.403   2.004   0.481  0.8534 -0.1816 -3.8055
 3787SOL     OW17452   7.852   1.575   4.258 -0.1026 -0.5286  0.2423
 3787SOL    HW117453   7.888   1.626   4.185  0.7451 -0.5029  0.6636
 3787SOL    HW217454   7.873   1.484   4.237 -2.4617 -0.8538 -0.9869
 3788SOL     OW17455  10.473   2.748   4.222  0.2736  0.1345  0.7523
 3788SOL    HW117456  10.505   2.759   4.311  0.9062  0.5264  0.4780
 3788SOL    HW217457  10.534   2.687   4.181  0.8198  1.0589  0.1610
 3789SOL     OW17458  10.294   9.890   6.938  0.1041  0.3131 -0.4937
 3789SOL    HW117459  10.238   9.933   7.002  2.4995 -0.8500  2.6159
 3789SOL    HW217460  10.257   9.803   6.928  1.1177 -0.3664  1.3554
 3790SOL     OW17461  10.551   6.089   1.368 -0.1954 -0.0584  0.1148
 3790SOL    HW117462  10.499   6.021   1.324  0.0742  0.1756 -0.5877
 3790SOL    HW217463  10.531   6.079   1.461  1.0511 -2.1235  0.2042
 3791SOL     OW17464   3.108   9.178   2.818 -0.0834 -0.2363  0.3855
 3791SOL    HW117465   3.193   9.221   2.827  0.1071  0.5377 -3.5426
 3791SOL    HW217466   3.046   9.251   2.809 -0.8122 -0.8181  0.6217
 3792SOL     OW17467   0.192   7.316  10.240 -0.2960  0.4813 -0.4672
 3792SOL    HW117468   0.286   7.325  10.225 -0.1179  1.9957  1.2589
 3792SOL    HW217469   0.165   7.401  10.274 -2.0715 -0.2856  0.1463
 3793SOL     OW17470   0.852   6.181   1.061 -0.1982  0.2190 -0.1285
 3793SOL    HW117471   0.801   6.129   0.998  2.0947 -2.2414 -0.1237
 3793SOL    HW217472   0.934   6.200   1.017  0.5605  0.4378  1.3024
 3794SOL     OW17473   5.040   9.922   3.805 -0.1402  0.5586  0.2613
 3794SOL    HW117474   4.969   9.939   3.866  0.3001 -2.0458  1.6333
 3794SOL    HW217475   5.118   9.913   3.860  0.3965 -1.2080 -0.7193
 3795SOL     OW17476   2.453   7.784   3.421  0.6027 -0.0184  0.5960
 3795SOL    HW117477   2.401   7.851   3.466 -0.5699 -0.8687  0.5670
 3795SOL    HW217478   2.432   7.703   3.468  0.3716 -0.7064 -0.6562
 3796SOL     OW17479   2.168   1.283   0.497 -0.2354 -0.1406  0.0490
 3796SOL    HW117480   2.167   1.300   0.403  0.2305 -0.8632 -0.0958
 3796SOL    HW217481   2.244   1.331   0.529  0.0379 -0.4846 -0.0710
 3797SOL     OW17482   1.622   8.655   4.918 -0.3794  0.1386  0.3609
 3797SOL    HW117483   1.711   8.620   4.922  0.2789  1.8235  1.8295
 3797SOL    HW217484   1.607   8.670   4.825  0.4820 -1.0861 -0.0055
 3798SOL     OW17485   3.362   5.564   8.852 -0.2665  0.1282 -0.4019
 3798SOL    HW117486   3.457   5.568   8.846  0.0864 -1.5886  2.2162
 3798SOL    HW217487   3.331   5.579   8.763  2.4805 -0.2854 -1.5182
 3799SOL     OW17488   2.047   6.366   6.503 -0.3406  0.0045 -0.3331
 3799SOL    HW117489   1.956   6.335   6.507 -0.4806  0.4060 -0.4034
 3799SOL    HW217490   2.068   6.392   6.592 -0.0206 -0.8600 -0.1489
 3800SOL     OW17491   2.505   9.989   7.442 -0.0338  0.4719 -0.1294
 3800SOL    HW117492   2.584   9.958   7.397  0.9766  3.1981 -0.3919
 3800SOL    HW217493   2.459   9.909   7.468  1.1855 -1.2245 -2.7857
 3801SOL     OW17494   6.680   9.495  10.178 -0.0556  0.1348 -0.0940
 3801SOL    HW117495   6.768   9.475  10.209 -0.2687 -0.3627  0.2055
 3801SOL    HW217496   6.657   9.422  10.121 -1.0436 -0.7855  1.4257
 3802SOL     OW17497   2.433   5.215   6.785  0.2285  0.2364 -0.1626
 3802SOL    HW117498   2.520   5.237   6.750  0.4081 -0.4227 -0.1599
 3802SOL    HW217499   2.393   5.299   6.805  0.0460  0.6575 -2.1068
 3803SOL     OW17500   1.578   1.814   1.031 -0.1784 -0.2411 -0.4062
 3803SOL    HW117501   1.565   1.828   1.125 -1.1416 -1.2080 -0.3746
 3803SOL    HW217502   1.502   1.855   0.990  0.1420  0.0084 -0.7601
 3804SOL     OW17503   1.981   3.624   5.633  0.1242 -0.7470 -0.4316
 3804SOL    HW117504   2.030   3.544   5.613 -0.4644 -1.4206  0.7310
 3804SOL    HW217505   2.015   3.651   5.719 -1.9667 -1.6147  0.7439
 3805SOL     OW17506   8.764   8.366   2.942  0.1758 -0.3709 -0.1239
 3805SOL    HW117507   8.842   8.404   2.901 -0.0683  0.0331 -0.2125
 3805SOL    HW217508   8.726   8.438   2.992  0.0994 -0.6844  0.2786
 3806SOL     OW17509   9.169   1.619  10.022  0.2318 -0.9471 -0.5156
 3806SOL    HW117510   9.115   1.663  10.088 -0.5122 -1.3292 -0.8488
 3806SOL    HW217511   9.144   1.660   9.939  0.0269 -1.5176 -0.7448
 3807SOL     OW17512   6.548   9.516   5.651  0.1419  0.4615 -0.3188
 3807SOL    HW117513   6.610   9.443   5.656 -0.8249 -0.3569 -0.1343
 3807SOL    HW217514   6.604   9.593   5.638  1.4092  0.0906  2.2386
 3808SOL     OW17515   2.809   5.231   5.915  0.2708  0.2261 -0.0786
 3808SOL    HW117516   2.902   5.245   5.935  0.2039 -0.0283  0.4307
 3808SOL    HW217517   2.809   5.183   5.832  0.5760  0.7178 -0.3686
 3809SOL     OW17518   9.700   0.198   1.072  0.3801 -0.2263 -0.4805
 3809SOL    HW117519   9.683   0.192   0.978  1.9356  0.0292 -0.7995
 3809SOL    HW217520   9.749   0.279   1.082  0.6539 -0.5066  0.4904
 3810SOL     OW17521   4.079   5.916   1.873 -0.0311  0.2429 -0.2131
 3810SOL    HW117522   4.130   5.966   1.937  0.2921  0.7576 -0.8621
 3810SOL    HW217523   4.065   5.978   1.801 -3.1871  0.7860  0.7063
 3811SOL     OW17524   2.127  10.201   8.398  0.0136  0.2564  0.2289
 3811SOL    HW117525   2.121  10.132   8.465 -1.5334 -0.0294 -0.1704
 3811SOL    HW217526   2.192  10.262   8.433  0.1784 -0.5385  1.3861
 3812SOL     OW17527   2.487   2.304   5.224  0.0408  0.1106  0.4151
 3812SOL    HW117528   2.540   2.262   5.155  0.1991  1.7012 -0.4834
 3812SOL    HW217529   2.481   2.396   5.196 -1.7143  0.3324  1.4248
 3813SOL     OW17530   4.153   6.743  10.561  0.0812  0.1866  0.3827
 3813SOL    HW117531   4.106   6.770  10.482  0.1115  0.4017  0.4393
 3813SOL    HW217532   4.230   6.799  10.564  1.0121 -1.0095 -0.3855
 3814SOL     OW17533  10.911   1.044   2.001 -0.0299  0.5143  0.0930
 3814SOL    HW117534  10.828   1.050   2.047  0.8021  0.3347  1.6843
 3814SOL    HW217535  10.935   0.951   2.007 -0.1784  0.3715 -1.2300
 3815SOL     OW17536   9.310   0.341   9.520 -0.0625  0.1481 -0.0252
 3815SOL    HW117537   9.220   0.369   9.508 -0.4398 -0.6750  0.7419
 3815SOL    HW217538   9.331   0.365   9.610 -0.8605 -3.0501  1.1625
 3816SOL     OW17539   0.860   1.034   6.405  0.0479 -0.1814  0.1128
 3816SOL    HW117540   0.839   1.035   6.498  2.8413 -0.7091  0.8539
 3816SOL    HW217541   0.911   1.114   6.391 -2.2126  1.0785 -1.5509
 3817SOL     OW17542  10.645   8.621   1.329  0.7275  0.0046  0.2944
 3817SOL    HW117543  10.672   8.580   1.247  0.9269  1.0809 -0.1945
 3817SOL    HW217544  10.566   8.573   1.355  0.9200 -0.6429 -0.2874
 3818SOL     OW17545   8.272   6.820   0.267 -0.1676  0.0639  0.5040
 3818SOL    HW117546   8.231   6.766   0.199  1.2119 -0.1395 -0.2009
 3818SOL    HW217547   8.224   6.903   0.264  0.1655  0.2362 -1.0674
 3819SOL     OW17548   2.073   0.055   0.563 -0.3010  0.5589  0.2768
 3819SOL    HW117549   2.092   0.149   0.570  1.7106  0.3677 -1.5133
 3819SOL    HW217550   1.995   0.050   0.507 -0.1553  1.1484  0.0192
 3820SOL     OW17551   4.078   3.566   7.586  0.3025 -0.3085 -0.1074
 3820SOL    HW117552   3.988   3.556   7.554 -0.2253  2.0962  0.4342
 3820SOL    HW217553   4.083   3.509   7.663 -0.5857 -0.8621 -0.4438
 3821SOL     OW17554   5.905   2.130   4.756 -0.1916  0.0291  0.4847
 3821SOL    HW117555   5.951   2.118   4.673 -0.5250 -2.4490  0.5724
 3821SOL    HW217556   5.855   2.210   4.745 -0.8996 -0.6782 -2.0437
 3822SOL     OW17557   3.313  10.916   1.902  0.0717  0.9284 -0.4130
 3822SOL    HW117558   3.291  10.845   1.843 -2.3056  0.7791  0.5214
 3822SOL    HW217559   3.292  10.996   1.853  0.6913  0.9158 -0.7050
 3823SOL     OW17560   6.026   2.826   6.026  0.1375 -0.2686  0.1883
 3823SOL    HW117561   5.965   2.783   6.086  1.4151 -0.9381  1.0460
 3823SOL    HW217562   6.003   2.792   5.939 -0.5999 -0.6222  0.5194
 3824SOL     OW17563   3.248   1.267   5.525  0.8991 -0.4131  0.0607
 3824SOL    HW117564   3.311   1.269   5.597  2.0596 -3.1696 -0.7510
 3824SOL    HW217565   3.231   1.174   5.510 -1.6637  0.1749 -1.2546
 3825SOL     OW17566   1.340   8.635   0.594  0.1890 -0.5397 -0.4379
 3825SOL    HW117567   1.387   8.580   0.657  0.0621 -0.8209 -0.5904
 3825SOL    HW217568   1.248   8.630   0.622 -0.0168 -1.5058 -1.2739
 3826SOL     OW17569  10.786   1.088   5.251 -0.0617  0.1803  0.5776
 3826SOL    HW117570  10.873   1.075   5.288  0.0783  0.7863  0.4593
 3826SOL    HW217571  10.801   1.131   5.167 -0.3019 -2.0306 -0.6952
 3827SOL     OW17572   7.875   3.758   0.052 -0.0048  0.1503  0.1490
 3827SOL    HW117573   7.951   3.709   0.021  0.0885 -0.7401  1.6782
 3827SOL    HW217574   7.799   3.711   0.016  0.1083 -0.6819  0.9622
 3828SOL     OW17575   7.215   8.273   9.378  0.2244 -0.0746 -0.0377
 3828SOL    HW117576   7.298   8.226   9.370  1.1991  1.5599  0.1684
 3828SOL    HW217577   7.207   8.322   9.297  0.8234  1.8548  1.0067
 3829SOL     OW17578   4.375   1.122   6.373 -0.1437  0.3890 -0.0929
 3829SOL    HW117579   4.333   1.046   6.334  0.9132  0.3727 -1.2526
 3829SOL    HW217580   4.324   1.197   6.340  0.2833  0.3259 -0.9038
 3830SOL     OW17581   3.494   0.167  10.408 -0.2185  0.0581  0.1642
 3830SOL    HW117582   3.513   0.109  10.335  0.2910 -1.9525  1.8145
 3830SOL    HW217583   3.399   0.161  10.420 -0.2263 -0.0670  0.0403
 3831SOL     OW17584  10.789   2.182   0.652 -0.0829  0.2449 -0.1637
 3831SOL    HW117585  10.751   2.243   0.588 -0.7900 -0.5396 -0.5126
 3831SOL    HW217586  10.879   2.168   0.621 -0.4441 -0.1926 -1.0532
 3832SOL     OW17587   6.321   1.175   3.706  0.3352  0.5363 -0.1720
 3832SOL    HW117588   6.414   1.162   3.688  0.6458 -0.2783  1.7616
 3832SOL    HW217589   6.277   1.103   3.662  0.6141  0.9119 -1.0756
 3833SOL     OW17590   1.672   4.781   0.065 -0.4119  0.6088  0.4155
 3833SOL    HW117591   1.732   4.714   0.097  1.0864  1.7451  0.0986
 3833SOL    HW217592   1.673   4.771  -0.030 -1.0272  0.4051  0.4247
 3834SOL     OW17593   0.878  10.256   4.971  0.4135  0.3077 -0.2650
 3834SOL    HW117594   0.797  10.205   4.972  0.5645  0.0649  0.7198
 3834SOL    HW217595   0.893  10.275   4.879 -1.1324  0.9575 -0.4121
 3835SOL     OW17596   7.963   0.265  10.921  0.1094 -0.3142 -0.3081
 3835SOL    HW117597   7.967   0.268  11.017  0.1124 -3.1021 -0.1470
 3835SOL    HW217598   8.053   0.283  10.893  0.1502  0.3280  0.2133
 3836SOL     OW17599  10.844   9.421   9.312 -0.0893  0.1962 -0.1135
 3836SOL    HW117600  10.756   9.389   9.290 -0.0843  0.8593 -1.2034
 3836SOL    HW217601  10.869   9.474   9.236  2.1445 -1.7558 -0.8647
 3837SOL     OW17602   2.517   5.957   9.541 -0.1481 -0.0522 -0.0398
 3837SOL    HW117603   2.477   5.978   9.626  0.7685 -0.4255  0.4951
 3837SOL    HW217604   2.467   5.881   9.510 -1.8318  1.3089 -0.8205
 3838SOL     OW17605   4.529   7.864   1.144  0.3878  0.5141  0.6074
 3838SOL    HW117606   4.521   7.932   1.211 -1.5981 -0.0964  1.0438
 3838SOL    HW217607   4.514   7.782   1.190 -0.5229  0.0443 -0.4784
 3839SOL     OW17608   1.981   9.953   6.049 -0.4520 -0.0558  0.5336
 3839SOL    HW117609   1.914   9.888   6.028 -0.4395  0.5183 -1.5184
 3839SOL    HW217610   2.052   9.935   5.987  1.0626 -0.2491  2.2343
 3840SOL     OW17611  10.918   5.657   8.389 -0.0146 -0.3230 -0.6113
 3840SOL    HW117612  10.840   5.651   8.334  0.3918  0.3677 -1.2956
 3840SOL    HW217613  10.983   5.700   8.333  0.4035  0.4564  0.4378
 3841SOL     OW17614   0.358   2.726   0.958 -0.0694 -0.2040 -0.3026
 3841SOL    HW117615   0.396   2.811   0.980 -0.8609  0.8121 -2.6330
 3841SOL    HW217616   0.379   2.713   0.866 -0.7425 -2.1485 -0.2272
 3842SOL     OW17617   1.929  10.552   1.337 -0.1610 -0.2857 -0.0924
 3842SOL    HW117618   1.848  10.499   1.332  0.1406 -0.7875  0.2465
 3842SOL    HW217619   1.987  10.513   1.272 -0.6783  0.9596 -1.3569
 3843SOL     OW17620   9.114   0.793   9.560  0.9081 -0.4431 -0.4285
 3843SOL    HW117621   9.062   0.714   9.549  0.0323  0.2317 -1.2991
 3843SOL    HW217622   9.183   0.768   9.622 -0.7410 -1.2003  1.1720
 3844SOL     OW17623   3.858   8.065   2.911  0.0796  0.4838 -0.1176
 3844SOL    HW117624   3.787   8.042   2.852 -1.9539 -0.9142  2.6267
 3844SOL    HW217625   3.822   8.135   2.966  1.8759  1.7220 -0.4219
 3845SOL     OW17626   1.980   3.453   2.238  0.0701  0.3813  0.4555
 3845SOL    HW117627   1.885   3.450   2.249 -0.1461  0.3292 -1.1404
 3845SOL    HW217628   2.003   3.365   2.208  0.3768  0.8407 -0.7135
 3846SOL     OW17629   3.883   5.808   0.102 -0.0038 -0.1419 -0.2416
 3846SOL    HW117630   3.935   5.860   0.040 -1.2252  0.5713 -0.7132
 3846SOL    HW217631   3.793   5.817   0.070 -0.5261 -0.6496  1.0381
 3847SOL     OW17632   3.293   9.492   9.609  0.0529  0.7445  0.0290
 3847SOL    HW117633   3.278   9.492   9.704 -0.6378  0.0043 -0.0690
 3847SOL    HW217634   3.205   9.487   9.571  0.2621  2.0188 -0.6843
 3848SOL     OW17635   8.228   2.961   4.720  0.2238 -0.0208  0.2192
 3848SOL    HW117636   8.168   2.908   4.773 -2.0048  1.5888 -0.5233
 3848SOL    HW217637   8.315   2.929   4.742 -0.7342 -0.8546  3.2217
 3849SOL     OW17638   9.256   0.274   9.226 -0.4696  0.1127  0.7099
 3849SOL    HW117639   9.191   0.205   9.211 -0.5901  0.6950 -1.8327
 3849SOL    HW217640   9.205   0.349   9.256 -1.1907  0.8544 -2.1506
 3850SOL     OW17641   4.526   6.349   7.565 -0.0227  0.3890  0.0856
 3850SOL    HW117642   4.477   6.387   7.638 -1.0736 -2.7508  1.1858
 3850SOL    HW217643   4.618   6.354   7.593 -0.2982  0.4658  1.0103
 3851SOL     OW17644   7.349   4.771  10.472  0.4710 -0.3480  0.2231
 3851SOL    HW117645   7.389   4.716  10.539  1.2583 -0.3380 -0.2154
 3851SOL    HW217646   7.399   4.751  10.392 -1.3950 -1.4641 -0.7345
 3852SOL     OW17647   2.052   6.704  10.503 -0.3149  0.2619 -0.0642
 3852SOL    HW117648   2.132   6.703  10.556  0.0972 -0.2028 -0.6868
 3852SOL    HW217649   2.010   6.620  10.523  1.0623 -1.0440 -2.2758
 3853SOL     OW17650   7.372   6.711   4.454 -0.1409  0.0443 -0.1236
 3853SOL    HW117651   7.425   6.737   4.529 -1.1423 -0.9157  0.9704
 3853SOL    HW217652   7.366   6.790   4.400  1.7133  0.3850  0.1021
 3854SOL     OW17653   3.436  10.914  10.183  0.2089 -0.3848  0.1802
 3854SOL    HW117654   3.449  10.842  10.120  0.6572  0.2139 -0.4231
 3854SOL    HW217655   3.366  10.966  10.145  0.5458  0.0318  0.1228
 3855SOL     OW17656  10.751   5.801   7.549 -0.0968  0.4375 -0.3472
 3855SOL    HW117657  10.679   5.788   7.611 -0.2169 -1.2733 -0.8019
 3855SOL    HW217658  10.731   5.883   7.505 -1.4054  0.3265  0.0137
 3856SOL     OW17659   4.770   3.778   5.574  0.6218 -0.0294 -0.0844
 3856SOL    HW117660   4.777   3.807   5.483 -1.3923  0.2515 -0.1851
 3856SOL    HW217661   4.812   3.849   5.625  2.4994 -0.5712 -0.7906
 3857SOL     OW17662   9.935   8.743   7.042 -0.0627  0.0569  0.8238
 3857SOL    HW117663  10.006   8.777   7.097 -1.0983  0.4021  2.0066
 3857SOL    HW217664   9.887   8.683   7.100  1.0146 -2.6253 -0.8501
 3858SOL     OW17665   4.758   0.856   1.741  0.0174  0.0562  0.2901
 3858SOL    HW117666   4.722   0.941   1.767  0.0643 -0.1868  1.1737
 3858SOL    HW217667   4.821   0.877   1.671 -1.4876  0.5297 -0.9897
 3859SOL     OW17668   9.997   9.722   0.102  0.3788  0.2578  0.3796
 3859SOL    HW117669  10.002   9.770   0.184 -0.6524 -0.1178  0.6772
 3859SOL    HW217670  10.084   9.685   0.090  0.4949  0.1836  1.3835
 3860SOL     OW17671  10.229   5.149   8.307 -0.6030  0.1081 -0.1610
 3860SOL    HW117672  10.191   5.081   8.252 -0.8940 -1.9380  2.3762
 3860SOL    HW217673  10.291   5.102   8.363  0.5011  2.2527  0.5343
 3861SOL     OW17674  10.284   3.077   2.635  0.2383  0.5130 -0.0615
 3861SOL    HW117675  10.364   3.075   2.583 -0.1081 -0.4395 -0.5740
 3861SOL    HW217676  10.306   3.032   2.716  0.5381  1.2463  0.2669
 3862SOL     OW17677   4.451   2.503   1.846 -0.0224  0.6993  0.2092
 3862SOL    HW117678   4.539   2.487   1.812  0.3864  0.6446  1.2598
 3862SOL    HW217679   4.396   2.441   1.798  0.4907  0.7585 -0.4839
 3863SOL     OW17680   3.893   0.000   2.888  0.0206  0.1962  0.0316
 3863SOL    HW117681   3.931  -0.081   2.855 -0.6746  0.5330 -1.6722
 3863SOL    HW217682   3.815   0.015   2.834  0.1100  1.9890  0.3197
 3864SOL     OW17683   5.504   1.646   1.456 -0.1447 -0.2432 -0.4388
 3864SOL    HW117684   5.557   1.608   1.527 -0.9796 -0.4094  0.1052
 3864SOL    HW217685   5.443   1.577   1.432 -0.5629  0.1778 -0.6032
 3865SOL     OW17686   2.662   6.173   9.465  0.6288  0.5896  0.0021
 3865SOL    HW117687   2.719   6.171   9.542 -0.0952  1.0587  0.5575
 3865SOL    HW217688   2.602   6.099   9.477  1.3092 -0.1130 -0.7503
 3866SOL     OW17689   0.562   2.112  10.460  0.3561  0.4985 -0.5823
 3866SOL    HW117690   0.534   2.200  10.434 -1.6255 -0.2000 -0.9990
 3866SOL    HW217691   0.596   2.123  10.549 -0.3019  1.6079 -0.4437
 3867SOL     OW17692   7.791   0.300   5.147 -0.0640 -0.1513  0.0041
 3867SOL    HW117693   7.847   0.365   5.189 -0.0414 -0.1319 -0.0564
 3867SOL    HW217694   7.838   0.275   5.068  0.3869 -0.9516  0.5160
 3868SOL     OW17695   1.423   8.304   2.296 -0.0627  0.0936 -0.1046
 3868SOL    HW117696   1.357   8.372   2.314 -0.7001 -0.6204  0.3051
 3868SOL    HW217697   1.407   8.278   2.206 -0.6192 -0.3593  0.1149
 3869SOL     OW17698   3.288   8.916   9.902  0.3040  0.2514  0.1716
 3869SOL    HW117699   3.231   8.992   9.905 -1.0917 -0.6746 -1.1480
 3869SOL    HW217700   3.341   8.928   9.823  0.8001  0.3417  0.5160
 3870SOL     OW17701   5.746   4.514   3.693 -0.3681 -0.4409 -0.0044
 3870SOL    HW117702   5.657   4.505   3.659 -0.9767  0.3306  1.2990
 3870SOL    HW217703   5.745   4.596   3.742  1.6346  0.6356 -1.6001
 3871SOL     OW17704  10.174   8.208   5.692 -0.2967 -0.1586 -0.6225
 3871SOL    HW117705  10.177   8.291   5.739  0.0553 -0.1938 -0.5767
 3871SOL    HW217706  10.095   8.212   5.639  0.2325  0.6119 -1.3742
 3872SOL     OW17707   1.470   5.327   8.567 -0.8961  0.3958  0.1905
 3872SOL    HW117708   1.463   5.252   8.508 -0.6190  0.9060 -0.5045
 3872SOL    HW217709   1.476   5.402   8.509  1.5207  0.7607  0.7934
 3873SOL     OW17710   6.375   8.346   1.598 -0.2442 -0.0182  0.1215
 3873SOL    HW117711   6.284   8.357   1.626  0.2569 -1.1975  2.5264
 3873SOL    HW217712   6.417   8.429   1.618 -0.5044  0.0670  0.3164
 3874SOL     OW17713   8.244   2.265   3.295 -0.4251  0.0290 -0.1902
 3874SOL    HW117714   8.193   2.192   3.330 -1.6697  0.6655 -0.6046
 3874SOL    HW217715   8.185   2.309   3.234 -0.0126  1.8837  0.6541
 3875SOL     OW17716   1.908   7.936  10.844 -0.2111 -0.4477  0.0324
 3875SOL    HW117717   1.919   7.946  10.749  0.9648 -0.4754  0.1609
 3875SOL    HW217718   1.964   7.863  10.868  1.7704  1.3417  1.1739
 3876SOL     OW17719   7.418   7.068   4.620 -0.3582  0.0611 -0.1044
 3876SOL    HW117720   7.455   7.105   4.539  0.5493 -0.8507 -0.1173
 3876SOL    HW217721   7.444   6.976   4.619 -1.2249 -0.2102  0.7281
 3877SOL     OW17722   0.108   6.247  10.617  0.2062 -0.1008 -0.1448
 3877SOL    HW117723   0.026   6.252  10.567 -0.2079  0.6760  0.5876
 3877SOL    HW217724   0.110   6.328  10.668  1.4720 -0.0828 -0.2034
 3878SOL     OW17725   9.440   5.768   7.930  0.0054  0.0013  0.2120
 3878SOL    HW117726   9.492   5.837   7.971 -0.6909 -0.5826  2.1936
 3878SOL    HW217727   9.503   5.717   7.880  0.9899  0.5542  0.8594
 3879SOL     OW17728   2.707   2.541   2.991 -0.1145  0.4453  0.1101
 3879SOL    HW117729   2.780   2.540   3.053 -0.4736  0.5232  0.5354
 3879SOL    HW217730   2.629   2.552   3.045 -0.4329  0.5089 -0.3547
 3880SOL     OW17731   1.319   5.776   8.382 -0.2481 -0.4463 -0.2697
 3880SOL    HW117732   1.358   5.863   8.384 -2.8180  0.8038 -0.1003
 3880SOL    HW217733   1.391   5.716   8.400  1.5274  1.6717 -0.0377
 3881SOL     OW17734   4.249   7.756  10.747 -0.1721  0.3522 -0.1558
 3881SOL    HW117735   4.282   7.709  10.670 -0.1292 -0.3964  0.3027
 3881SOL    HW217736   4.287   7.709  10.821 -2.6923 -0.9552  0.4406
 3882SOL     OW17737   2.466   2.010   5.296 -0.5007 -0.6177 -0.0816
 3882SOL    HW117738   2.462   2.105   5.294  0.0039 -0.6092 -0.6561
 3882SOL    HW217739   2.385   1.984   5.341 -0.7138  0.0668 -0.0591
 3883SOL     OW17740  10.433   6.522   2.656  0.1567  0.5733 -0.5303
 3883SOL    HW117741  10.450   6.428   2.663  0.0560  0.6268  0.6275
 3883SOL    HW217742  10.517   6.563   2.675 -0.0144  0.7363 -0.1322
 3884SOL     OW17743   7.456   8.574   0.744 -0.3256 -0.8149 -0.2598
 3884SOL    HW117744   7.444   8.525   0.826  2.2591 -0.3710  0.4446
 3884SOL    HW217745   7.528   8.530   0.700  0.6036  1.0363 -0.6527
 3885SOL     OW17746   0.568   8.201   4.744  0.1862  0.1508  0.2062
 3885SOL    HW117747   0.512   8.255   4.689  1.4755 -1.5769 -3.0782
 3885SOL    HW217748   0.599   8.261   4.813  0.2453  3.1473 -2.2069
 3886SOL     OW17749   3.428  10.538   7.871  0.3611 -0.1642  0.2600
 3886SOL    HW117750   3.423  10.625   7.831 -0.3298  0.3482  1.3971
 3886SOL    HW217751   3.341  10.501   7.858  1.2003 -1.5559 -1.9923
 3887SOL     OW17752   0.806   6.840   1.409  0.1449  0.2314  0.6128
 3887SOL    HW117753   0.788   6.922   1.455  2.4472  0.8073  0.6334
 3887SOL    HW217754   0.902   6.834   1.408  0.0859 -3.3727  2.1885
 3888SOL     OW17755   4.299   0.908   4.860  0.4976  0.8686 -0.3610
 3888SOL    HW117756   4.353   0.841   4.817 -1.2961 -1.0919  0.2572
 3888SOL    HW217757   4.337   0.917   4.947  0.4505  0.2230 -0.2639
 3889SOL     OW17758   9.474   6.485   3.960 -0.4574  0.0167  0.2374
 3889SOL    HW117759   9.409   6.555   3.963  0.1550  0.7259 -1.6140
 3889SOL    HW217760   9.508   6.488   3.871  0.5601 -1.7713  0.5174
 3890SOL     OW17761   5.083   4.114   3.822 -0.0046  0.3549 -0.4665
 3890SOL    HW117762   5.083   4.052   3.749 -0.4291 -1.2607  0.8479
 3890SOL    HW217763   5.009   4.087   3.877  0.2257  1.5977  0.4912
 3891SOL     OW17764   0.107   0.074   8.327  0.4130 -0.2394 -0.4364
 3891SOL    HW117765   0.159   0.045   8.252  0.4686  0.2910 -0.6078
 3891SOL    HW217766   0.071  -0.006   8.364 -0.7616 -0.4141 -1.8706
 3892SOL     OW17767   7.485   1.474   0.975 -0.2098 -0.1701  0.4626
 3892SOL    HW117768   7.410   1.416   0.980 -0.4896  0.1555  0.0945
 3892SOL    HW217769   7.561   1.415   0.976 -0.4778 -0.5181  0.4510
 3893SOL     OW17770   0.516   1.111   5.183 -0.8081  0.9712  0.4956
 3893SOL    HW117771   0.500   1.035   5.128 -1.2514  1.0354  0.5273
 3893SOL    HW217772   0.467   1.094   5.263  0.0107  0.7782  0.9658
 3894SOL     OW17773   2.992   0.279   8.169  0.0209  0.3110 -0.4386
 3894SOL    HW117774   3.078   0.249   8.199  0.5657  1.5622 -0.6634
 3894SOL    HW217775   2.969   0.219   8.097 -0.0400 -1.0061  0.6457
 3895SOL     OW17776   1.292   4.730   8.800 -0.5368 -0.1765  0.4505
 3895SOL    HW117777   1.226   4.755   8.736  0.0109  1.0110  0.3080
 3895SOL    HW217778   1.265   4.644   8.831 -2.8222  0.7454  1.2513
 3896SOL     OW17779  10.568   8.830   1.929 -0.0438 -0.5950 -0.0702
 3896SOL    HW117780  10.479   8.797   1.943  0.4216 -1.9926 -0.2556
 3896SOL    HW217781  10.611   8.762   1.877  1.3746 -0.3430  0.7191
 3897SOL     OW17782   6.745   5.887   5.243  0.2654  0.1515 -0.1675
 3897SOL    HW117783   6.664   5.929   5.272  0.0039  0.4368 -1.2526
 3897SOL    HW217784   6.807   5.903   5.314 -0.2504  1.1011  0.0941
 3898SOL     OW17785   6.719   6.545   7.659  0.2974 -0.0523 -0.3642
 3898SOL    HW117786   6.685   6.624   7.700  0.5004 -0.2577  0.2023
 3898SOL    HW217787   6.737   6.571   7.568  0.0601  0.4603 -0.2669
 3899SOL     OW17788   6.352   5.156   9.493 -0.1649 -0.1818 -0.2918
 3899SOL    HW117789   6.360   5.099   9.570 -1.3311 -0.3694 -0.3035
 3899SOL    HW217790   6.258   5.167   9.480 -0.0422 -1.3577 -2.6077
 3900SOL     OW17791   2.628   9.345   2.751 -0.1671  0.0327  0.4336
 3900SOL    HW117792   2.552   9.386   2.709  0.4180 -0.1168 -0.8280
 3900SOL    HW217793   2.643   9.397   2.830 -0.5623  1.1054 -0.1763
 3901SOL     OW17794   1.199   2.637   1.572 -0.1112 -0.3290  0.2677
 3901SOL    HW117795   1.133   2.696   1.608 -0.0807 -0.0118 -0.1803
 3901SOL    HW217796   1.211   2.667   1.482  2.7429  1.5193  1.1259
 3902SOL     OW17797   6.161   5.772   3.329 -0.1980  0.3209 -0.0882
 3902SOL    HW117798   6.233   5.819   3.370  0.7750 -1.4460  0.3542
 3902SOL    HW217799   6.192   5.751   3.241 -0.9543  1.2037 -0.5800
 3903SOL     OW17800   8.073   2.608   3.874  0.2020 -0.2125  0.2497
 3903SOL    HW117801   8.137   2.619   3.945  0.2767 -1.7160  0.4486
 3903SOL    HW217802   8.107   2.662   3.803  1.5747 -0.7622  0.4527
 3904SOL     OW17803   4.131   8.044   7.161  0.6155 -0.1487 -0.2544
 3904SOL    HW117804   4.105   8.102   7.090 -1.0072 -1.4816 -0.7964
 3904SOL    HW217805   4.157   8.104   7.232 -0.6843  1.2400 -0.8908
 3905SOL     OW17806   1.122   1.742   3.117  0.1355  0.0618 -0.5813
 3905SOL    HW117807   1.195   1.691   3.153 -1.1842 -0.2126  1.9536
 3905SOL    HW217808   1.061   1.676   3.085 -0.0701  0.1744 -0.4253
 3906SOL     OW17809   0.302   8.757   5.262  0.2079 -0.1371 -0.3101
 3906SOL    HW117810   0.223   8.712   5.293  0.9984 -1.5553 -0.2502
 3906SOL    HW217811   0.332   8.705   5.187  2.7168 -1.4769  1.4546
 3907SOL     OW17812   1.518   7.538   8.154 -0.1488  0.0682 -0.1460
 3907SOL    HW117813   1.430   7.508   8.175 -0.8740 -0.1139 -3.0465
 3907SOL    HW217814   1.510   7.633   8.145 -0.3930 -0.0740 -1.6644
 3908SOL     OW17815   2.500   6.881   7.669 -0.1541  0.6358 -0.2118
 3908SOL    HW117816   2.432   6.834   7.621 -0.8841  1.1393  0.2995
 3908SOL    HW217817   2.493   6.971   7.638  1.7381  0.3104 -1.7483
 3909SOL     OW17818   1.598   7.663   2.251  0.7245 -0.0845 -0.5382
 3909SOL    HW117819   1.553   7.578   2.260 -3.4983  1.9047 -0.4022
 3909SOL    HW217820   1.573   7.695   2.165  0.3212  1.9459  0.2759
 3910SOL     OW17821   0.579   2.250   7.253 -0.2248 -0.6298 -0.1183
 3910SOL    HW117822   0.646   2.228   7.189  0.5169 -3.1694  1.4001
 3910SOL    HW217823   0.499   2.209   7.219 -0.4751  0.2954 -0.6908
 3911SOL     OW17824  10.800   0.806   3.584  0.1683 -0.1720 -0.5113
 3911SOL    HW117825  10.707   0.808   3.604  0.3463  1.5328  0.2804
 3911SOL    HW217826  10.844   0.814   3.669  1.0075  0.9450 -1.0255
 3912SOL     OW17827  10.607   1.145   7.954 -0.5233  0.2447 -0.0427
 3912SOL    HW117828  10.541   1.081   7.927 -1.9772  0.2215  3.1460
 3912SOL    HW217829  10.556   1.214   7.997  1.4095  1.1724  0.8417
 3913SOL     OW17830   0.373   9.399   1.280 -0.1163  0.0459  0.8123
 3913SOL    HW117831   0.463   9.387   1.312  0.4366  0.9619 -0.3153
 3913SOL    HW217832   0.383   9.407   1.185 -1.2935  1.0528  0.7530
 3914SOL     OW17833   4.478   1.862   2.999  0.3305 -0.2699  0.0576
 3914SOL    HW117834   4.481   1.953   3.028 -2.4312  0.7979 -2.4915
 3914SOL    HW217835   4.556   1.852   2.944 -0.8414  1.6415 -2.1190
 3915SOL     OW17836  10.752   0.489   8.514  0.6810  0.2917 -0.8324
 3915SOL    HW117837  10.749   0.533   8.429 -0.0626 -0.7824 -1.3956
 3915SOL    HW217838  10.811   0.414   8.499  1.8864  1.0365  0.0844
 3916SOL     OW17839   1.693   9.283   7.381  0.1631  0.2403  0.0792
 3916SOL    HW117840   1.765   9.237   7.422 -0.1510  1.3177  1.9162
 3916SOL    HW217841   1.731   9.365   7.349 -0.0391  0.3460  0.1078
 3917SOL     OW17842   8.134   5.180   9.914 -0.3483 -0.0913  0.0981
 3917SOL    HW117843   8.195   5.253   9.911  0.4290 -0.4822  3.1248
 3917SOL    HW217844   8.185   5.104   9.885 -0.6709  0.2212 -1.3858
 3918SOL     OW17845   9.166   4.908  10.926  0.4122 -0.4475  0.0782
 3918SOL    HW117846   9.216   4.977  10.969  0.5792 -0.5349  0.0215
 3918SOL    HW217847   9.109   4.873  10.996 -2.0940  1.9359 -0.5876
 3919SOL     OW17848   3.594   9.403   9.532  0.0597 -0.1275  0.3962
 3919SOL    HW117849   3.529   9.460   9.574  0.1845 -0.8181  1.5694
 3919SOL    HW217850   3.667   9.401   9.594  1.8528  1.7507 -1.5085
 3920SOL     OW17851   3.960   2.694   3.587 -0.2656 -0.2172 -0.4531
 3920SOL    HW117852   4.038   2.670   3.637 -0.5454  0.5755  0.3723
 3920SOL    HW217853   3.887   2.682   3.648 -0.6184  0.6925 -0.6868
 3921SOL     OW17854   1.446   4.988   9.428  0.5506  0.0429 -0.5059
 3921SOL    HW117855   1.477   5.063   9.377 -0.8499  0.0647 -1.3766
 3921SOL    HW217856   1.521   4.963   9.482  1.4953  1.1708 -1.2481
 3922SOL     OW17857  10.585   1.045   9.952  0.9495  0.2265  0.4265
 3922SOL    HW117858  10.514   1.036  10.015  0.5309 -0.5329 -0.1394
 3922SOL    HW217859  10.568   1.129   9.909 -0.0551 -0.3122 -0.2490
 3923SOL     OW17860   9.309  10.024   1.789 -0.0958  0.0764  0.0606
 3923SOL    HW117861   9.332   9.972   1.866 -0.5112 -0.3196 -0.0821
 3923SOL    HW217862   9.293  10.112   1.824  2.2286  0.5422  0.0969
 3924SOL     OW17863   9.794   6.222   9.729 -0.2778  0.2261  0.3218
 3924SOL    HW117864   9.858   6.271   9.780 -1.5481  1.4419  0.8091
 3924SOL    HW217865   9.815   6.130   9.745  1.6083  0.5733  0.0890
 3925SOL     OW17866   1.285   0.012   1.813  0.5060 -0.6066 -0.5512
 3925SOL    HW117867   1.329  -0.001   1.897  3.7339 -1.8613 -2.2692
 3925SOL    HW217868   1.220  -0.059   1.808 -0.9866  0.5095  1.4989
 3926SOL     OW17869   1.019   3.192   5.302 -0.1187 -0.3085 -0.6575
 3926SOL    HW117870   0.955   3.157   5.240 -0.3818 -1.3210  0.1617
 3926SOL    HW217871   0.977   3.269   5.339 -0.5823 -0.5705 -0.6301
 3927SOL     OW17872   4.549   2.927   8.152  0.1013  0.7744  0.0595
 3927SOL    HW117873   4.573   3.019   8.169  1.7010  0.4844 -0.4974
 3927SOL    HW217874   4.630   2.879   8.164 -0.6653 -0.5509  0.0599
 3928SOL     OW17875   3.952   6.466   6.351  0.5169  0.2550 -0.2088
 3928SOL    HW117876   3.960   6.465   6.446  1.6212 -0.0468 -0.2955
 3928SOL    HW217877   3.965   6.375   6.325  2.7526  0.7025 -0.8242
 3929SOL     OW17878   5.847   1.742   4.457  0.2923  0.0231 -0.4892
 3929SOL    HW117879   5.896   1.789   4.524 -1.5700  1.5106 -0.0674
 3929SOL    HW217880   5.846   1.802   4.382  0.4751 -0.6800 -1.0692
 3930SOL     OW17881   1.444   2.128   3.627 -0.3534 -0.3192  0.8659
 3930SOL    HW117882   1.437   2.161   3.717 -0.2858 -0.7289  1.0251
 3930SOL    HW217883   1.384   2.053   3.625  0.4795 -0.9899  0.8885
 3931SOL     OW17884   2.587   8.312   6.670  0.3386  0.1295 -0.2877
 3931SOL    HW117885   2.521   8.280   6.732  1.0988 -0.5085  0.2131
 3931SOL    HW217886   2.607   8.235   6.616  1.6273 -0.0581  0.4282
 3932SOL     OW17887   6.996   9.467   8.747 -0.0345  0.3216  0.3273
 3932SOL    HW117888   6.961   9.384   8.782  0.1868 -0.6714 -1.6582
 3932SOL    HW217889   6.944   9.483   8.668  0.5310  1.6324  0.1965
 3933SOL     OW17890   7.101   0.707   4.607 -0.1141  0.0111  0.6272
 3933SOL    HW117891   7.148   0.625   4.588 -1.4993 -0.5511 -0.5125
 3933SOL    HW217892   7.126   0.728   4.697  2.3406 -0.2277  0.0958
 3934SOL     OW17893   4.116   4.580   7.991  0.0565  0.4166 -0.8837
 3934SOL    HW117894   4.094   4.656   8.046 -0.6860  0.0570 -0.6762
 3934SOL    HW217895   4.049   4.578   7.924  0.0730 -0.0575 -0.8894
 3935SOL     OW17896   6.337   0.645   5.473 -0.3989 -0.2178 -0.3044
 3935SOL    HW117897   6.392   0.568   5.489  2.0944  1.7693  1.4691
 3935SOL    HW217898   6.351   0.664   5.380 -1.5832 -2.1785 -0.9586
 3936SOL     OW17899   5.891   4.392   9.074  0.5082  0.2048  0.2669
 3936SOL    HW117900   5.799   4.379   9.048  0.4062  0.1089  0.6748
 3936SOL    HW217901   5.928   4.443   9.002  0.4977 -0.9484 -0.6006
 3937SOL     OW17902   1.526   5.209   8.797  0.4443 -0.2222 -0.0150
 3937SOL    HW117903   1.611   5.172   8.773  1.2867  1.5369  0.0474
 3937SOL    HW217904   1.497   5.254   8.718  0.9584  1.5594  0.7463
 3938SOL     OW17905   6.419   2.684   1.096 -0.5153 -0.1117  0.0039
 3938SOL    HW117906   6.490   2.746   1.080 -0.0687 -0.5879  0.1304
 3938SOL    HW217907   6.440   2.608   1.042 -0.1890 -0.8188  1.0997
 3939SOL     OW17908   8.442   9.909   6.887 -0.3848  0.2470  0.4729
 3939SOL    HW117909   8.518   9.956   6.921 -0.2260 -0.3015  0.8681
 3939SOL    HW217910   8.433   9.941   6.797  1.7148 -1.3580 -0.3856
 3940SOL     OW17911  10.171   7.871   3.664 -0.1207  0.2118  0.1131
 3940SOL    HW117912  10.265   7.862   3.646 -0.2774 -0.7132 -0.2827
 3940SOL    HW217913  10.143   7.783   3.688 -0.6147  0.7561  1.6226
 3941SOL     OW17914   6.339   1.985   1.890  0.1667  0.0188  0.2070
 3941SOL    HW117915   6.425   2.009   1.924  0.1834 -0.7598  0.7407
 3941SOL    HW217916   6.358   1.941   1.807  0.1828  1.1012 -0.3811
 3942SOL     OW17917   6.938   6.303   1.500 -0.4022 -0.5320  0.4853
 3942SOL    HW117918   6.903   6.256   1.424 -2.0739 -2.0090  2.0493
 3942SOL    HW217919   6.950   6.235   1.567 -1.4868  1.0263  2.3767
 3943SOL     OW17920   1.956   4.134   2.315  0.1860 -0.3814 -0.3666
 3943SOL    HW117921   1.914   4.120   2.400 -0.2456  0.5896 -0.4031
 3943SOL    HW217922   2.007   4.055   2.299  0.4663 -0.4697  0.9135
 3944SOL     OW17923   8.034   6.019   9.853  0.1327 -0.3071 -0.0234
 3944SOL    HW117924   8.092   5.986   9.784  0.1963 -0.3133  0.0319
 3944SOL    HW217925   8.072   6.104   9.877 -0.0453 -0.1845 -0.1813
 3945SOL     OW17926   8.277   5.472   5.994 -0.5091 -0.0360 -0.7713
 3945SOL    HW117927   8.328   5.467   6.075 -1.0236  0.3838 -0.4195
 3945SOL    HW217928   8.189   5.495   6.023 -0.2734  2.0372 -1.6072
 3946SOL     OW17929   7.990   8.213   3.434  0.3680  0.1870  0.0787
 3946SOL    HW117930   8.007   8.275   3.363 -0.8333  0.2199 -0.2132
 3946SOL    HW217931   7.985   8.128   3.391 -1.3700  0.3259 -0.0758
 3947SOL     OW17932   8.180   4.487   9.883 -0.5744  0.5392 -0.8804
 3947SOL    HW117933   8.194   4.396   9.910  1.6535  1.0411 -0.1806
 3947SOL    HW217934   8.160   4.481   9.789  0.7086 -0.6155 -1.1094
 3948SOL     OW17935   6.679   4.212   5.131  0.4621 -0.1014  0.3047
 3948SOL    HW117936   6.725   4.129   5.118  0.0953 -0.1185 -1.0964
 3948SOL    HW217937   6.669   4.220   5.226 -0.1896 -2.0617  0.4493
 3949SOL     OW17938   9.429   9.873   3.007 -0.2024 -0.3119 -0.0049
 3949SOL    HW117939   9.441   9.953   2.955  0.6857 -0.4054  0.0430
 3949SOL    HW217940   9.335   9.869   3.023 -0.1684  1.2232  0.7640
 3950SOL     OW17941   5.931   9.644   7.271 -0.2066  0.0092 -0.4457
 3950SOL    HW117942   6.026   9.654   7.277 -0.0376 -0.8629 -1.4455
 3950SOL    HW217943   5.897   9.697   7.344  1.1514 -1.5883  1.4614
 3951SOL     OW17944   4.654   1.357   8.786 -0.6798  0.0493 -0.6783
 3951SOL    HW117945   4.574   1.409   8.787 -0.6253  0.1481  0.6717
 3951SOL    HW217946   4.648   1.302   8.864  1.9529  2.3069  1.3457
 3952SOL     OW17947   8.438   5.051   0.521  0.4822 -0.6932 -0.0517
 3952SOL    HW117948   8.494   5.121   0.490  1.8236 -1.9344 -0.5710
 3952SOL    HW217949   8.356   5.060   0.472  1.3451 -0.6287 -1.5231
 3953SOL     OW17950   2.601  10.627   1.702  0.4080 -0.5641 -0.3085
 3953SOL    HW117951   2.507  10.616   1.688  0.2485 -0.1047  0.3428
 3953SOL    HW217952   2.616  10.721   1.695  0.3521 -0.3028  2.1312
 3954SOL     OW17953   6.262   2.083   7.057  0.7128  0.3326 -0.1899
 3954SOL    HW117954   6.183   2.110   7.102 -0.5429 -2.6501 -0.3425
 3954SOL    HW217955   6.237   2.080   6.964  0.7466 -1.1840 -0.1810
 3955SOL     OW17956   4.142   3.870   7.075 -0.3349  0.0421  0.4092
 3955SOL    HW117957   4.079   3.797   7.069  0.1450 -0.2938 -0.8261
 3955SOL    HW217958   4.162   3.877   7.169 -0.5042 -1.3176  0.5645
 3956SOL     OW17959   3.528  10.261   7.686  0.3755  0.0027 -0.3633
 3956SOL    HW117960   3.499  10.256   7.777  1.1708 -0.5366 -0.1216
 3956SOL    HW217961   3.562  10.173   7.668  1.3660  0.4569 -0.7782
 3957SOL     OW17962   6.863   7.671   1.541  0.0109  0.1265  0.0600
 3957SOL    HW117963   6.916   7.750   1.553 -0.1497  0.4093 -0.9781
 3957SOL    HW217964   6.779   7.692   1.582  0.5104 -0.1324  1.2517
 3958SOL     OW17965   8.753   1.977   8.197 -0.1197 -0.5491 -0.3103
 3958SOL    HW117966   8.800   1.950   8.118  0.7833  0.3021 -0.0983
 3958SOL    HW217967   8.665   1.941   8.187  0.0352 -0.6135 -1.6132
 3959SOL     OW17968   7.174   4.013   2.592  0.0564 -0.1420  0.5358
 3959SOL    HW117969   7.173   4.055   2.678 -0.3878  0.5393  0.2064
 3959SOL    HW217970   7.115   3.939   2.601 -0.8908  0.5880  0.5072
 3960SOL     OW17971   2.160   7.789  10.110 -0.2945 -0.3464  0.2874
 3960SOL    HW117972   2.075   7.783  10.153 -0.5958  1.3210 -0.0224
 3960SOL    HW217973   2.146   7.848  10.036  1.5932  1.8780  1.5376
 3961SOL     OW17974   5.425   6.794   1.658 -0.5494 -0.0663 -0.3565
 3961SOL    HW117975   5.510   6.753   1.669 -1.3768 -1.2037  3.5406
 3961SOL    HW217976   5.427   6.870   1.716 -2.5935 -1.0059  1.0846
 3962SOL     OW17977   4.404   0.217   9.151 -0.1713 -0.4071 -0.1165
 3962SOL    HW117978   4.321   0.171   9.158  0.1367 -0.7383  1.8374
 3962SOL    HW217979   4.443   0.184   9.070 -1.1709 -1.5283 -0.1699
 3963SOL     OW17980   1.328   8.404   0.811  0.0826 -0.1343 -0.3588
 3963SOL    HW117981   1.419   8.377   0.796  0.2961  0.7136 -0.6332
 3963SOL    HW217982   1.332   8.463   0.886 -0.0673  0.8204 -1.0819
 3964SOL     OW17983   1.741  10.873   4.503  0.2135 -0.5369 -0.2347
 3964SOL    HW117984   1.658  10.832   4.527 -0.0606  0.0246 -0.2070
 3964SOL    HW217985   1.767  10.922   4.581 -0.9305  1.7029 -1.1576
 3965SOL     OW17986   6.131   3.421   8.109 -0.0947  0.1629  0.1085
 3965SOL    HW117987   6.082   3.502   8.097  0.0709  0.6586  2.3620
 3965SOL    HW217988   6.073   3.353   8.075 -0.3233  1.1733 -1.6251
 3966SOL     OW17989   4.866   3.697   4.707 -0.2904 -0.4036  0.0451
 3966SOL    HW117990   4.910   3.680   4.623  0.4108  0.5196  0.2167
 3966SOL    HW217991   4.917   3.767   4.747  0.7886 -2.3168  2.2831
 3967SOL     OW17992   3.989   4.135   8.393  0.1564  0.0523  0.9245
 3967SOL    HW117993   3.992   4.221   8.435 -0.4808  0.2817  0.5179
 3967SOL    HW217994   3.900   4.104   8.410 -0.1944  0.2602 -0.4680
 3968SOL     OW17995   7.632   1.720   4.175  0.5583 -0.3971 -0.1603
 3968SOL    HW117996   7.710   1.670   4.195  3.0803  3.1792 -0.0094
 3968SOL    HW217997   7.642   1.744   4.083 -0.4415 -0.0210 -0.1817
 3969SOL     OW17998   7.954   7.650   4.252  0.4360 -0.7590 -0.1726
 3969SOL    HW117999   7.859   7.663   4.247  0.6137  0.4027 -1.4855
 3969SOL    HW218000   7.985   7.723   4.305  0.7463  0.0324 -1.3844
 3970SOL     OW18001   9.645   9.568   7.075 -0.0882  0.3923 -0.1315
 3970SOL    HW118002   9.738   9.590   7.074 -0.2855  1.2161 -0.9469
 3970SOL    HW218003   9.642   9.483   7.120  1.5780 -1.9220 -3.9105
 3971SOL     OW18004   6.828   0.045   7.253  0.0839 -0.0918 -0.1326
 3971SOL    HW118005   6.769   0.075   7.321  2.2170  2.8776  0.5904
 3971SOL    HW218006   6.796   0.086   7.173  0.3678  0.4355  0.0180
 3972SOL     OW18007   7.046  10.122   0.535  0.2466  0.3582 -0.5136
 3972SOL    HW118008   6.969  10.065   0.537  0.9882 -0.6385  1.0070
 3972SOL    HW218009   7.070  10.126   0.442 -0.9332 -0.2687 -0.8677
 3973SOL     OW18010   9.476   8.576   8.175  0.5840 -0.1989  0.2592
 3973SOL    HW118011   9.453   8.616   8.091 -1.6698 -0.0211  0.8857
 3973SOL    HW218012   9.565   8.544   8.163 -0.0831 -1.2506 -2.5988
 3974SOL     OW18013   8.207  10.349   4.883 -0.4666 -0.1313  0.5415
 3974SOL    HW118014   8.153  10.358   4.805 -1.4866  1.2134  1.3537
 3974SOL    HW218015   8.161  10.285   4.937 -1.2239  0.9084  1.1705
 3975SOL     OW18016   0.941   9.478  10.698 -0.0146  0.2228 -0.5778
 3975SOL    HW118017   1.000   9.551  10.716  0.3625 -0.6816  2.5242
 3975SOL    HW218018   0.861   9.518  10.665  1.1354  1.7393 -1.6919
 3976SOL     OW18019   5.315   2.222   0.562 -0.1179  0.2660 -0.4767
 3976SOL    HW118020   5.404   2.255   0.567 -0.5461  1.6991 -1.5644
 3976SOL    HW218021   5.313   2.168   0.484  0.3051 -1.5448  0.7155
 3977SOL     OW18022   1.418   9.061   3.990  0.3207  0.1066  0.1672
 3977SOL    HW118023   1.426   9.133   4.052  1.2313 -0.2038  0.4235
 3977SOL    HW218024   1.497   9.066   3.937  1.1134 -1.5577  1.1198
 3978SOL     OW18025   8.522   5.219   2.341 -0.0340  0.3124  0.3108
 3978SOL    HW118026   8.601   5.167   2.356  0.3502  1.2237  1.6579
 3978SOL    HW218027   8.473   5.213   2.423 -0.8467  0.6205 -0.1381
 3979SOL     OW18028   6.344   2.402   8.036  0.4050 -0.2398  0.2758
 3979SOL    HW118029   6.292   2.358   7.968 -1.5557 -0.1766  1.6322
 3979SOL    HW218030   6.337   2.495   8.014  0.1474 -0.2515  0.2988
 3980SOL     OW18031  10.817   6.744   8.299 -0.3213 -0.4339 -0.4141
 3980SOL    HW118032  10.798   6.688   8.225  1.7970 -1.7905 -0.0363
 3980SOL    HW218033  10.814   6.685   8.375  0.0219  0.3706  0.2414
 3981SOL     OW18034   3.844   0.359   3.127 -0.3345 -0.3645 -0.1428
 3981SOL    HW118035   3.847   0.298   3.054 -0.0752 -0.7709  0.2041
 3981SOL    HW218036   3.861   0.445   3.088 -1.5533 -0.3864 -0.7679
 3982SOL     OW18037   5.775   2.119   6.883  0.2798  0.1651  0.4976
 3982SOL    HW118038   5.740   2.120   6.972  1.9465  0.5952  1.1988
 3982SOL    HW218039   5.808   2.208   6.869  1.7758 -0.3865  0.2218
 3983SOL     OW18040   9.820   1.669   8.050 -0.1908 -0.1303 -0.0270
 3983SOL    HW118041   9.883   1.716   7.996  1.6906 -1.2364  1.1224
 3983SOL    HW218042   9.822   1.580   8.015 -0.2353 -0.4475  0.7748
 3984SOL     OW18043   8.916   8.354  10.546 -0.0877 -0.5873  0.4079
 3984SOL    HW118044   8.882   8.279  10.497 -0.2351  1.4253 -2.8403
 3984SOL    HW218045   8.840   8.409  10.561  0.0967 -0.7955  2.4000
 3985SOL     OW18046   6.596   1.253   7.234 -0.2623  0.0631  0.0557
 3985SOL    HW118047   6.538   1.195   7.284 -1.3218 -1.5515 -2.8049
 3985SOL    HW218048   6.537   1.318   7.195  0.1443 -0.2826 -1.1604
 3986SOL     OW18049   6.524   1.060   2.909  0.3284 -0.1928  0.1975
 3986SOL    HW118050   6.526   1.084   3.002 -2.4378  0.3786  0.1711
 3986SOL    HW218051   6.555   1.139   2.864 -1.8487  0.9166  0.5088
 3987SOL     OW18052   1.082   8.272   0.830  0.1164 -0.5523  0.2899
 3987SOL    HW118053   1.132   8.337   0.780  0.1855  0.4155  1.5888
 3987SOL    HW218054   1.104   8.289   0.921 -0.7530 -1.6754  0.7310
 3988SOL     OW18055   0.783   8.924   0.776 -0.5108  0.5380 -0.4951
 3988SOL    HW118056   0.876   8.911   0.755 -0.4877  0.7725 -0.5470
 3988SOL    HW218057   0.776   9.018   0.797 -0.5418  0.3263  0.5099
 3989SOL     OW18058   9.951   8.664   7.573  0.0377 -0.1270 -0.0990
 3989SOL    HW118059   9.877   8.603   7.573 -0.2302  0.0504 -3.1695
 3989SOL    HW218060   9.911   8.750   7.561  0.6870 -0.1134 -2.6214
 3990SOL     OW18061   5.552   2.364   2.254 -0.0936  0.2533 -0.0850
 3990SOL    HW118062   5.489   2.302   2.288 -1.2605  0.8615 -1.0776
 3990SOL    HW218063   5.512   2.400   2.175  2.4956 -1.1075 -2.2009
 3991SOL     OW18064   5.372   3.778   7.767 -0.2534 -0.8538 -0.3750
 3991SOL    HW118065   5.453   3.800   7.721 -0.0850  0.5338  0.4994
 3991SOL    HW218066   5.315   3.741   7.700  1.4142 -2.7741 -0.8264
 3992SOL     OW18067   6.942  10.733   6.374 -0.1646  0.2697  0.1986
 3992SOL    HW118068   7.018  10.744   6.316 -1.7771  1.2679 -1.8362
 3992SOL    HW218069   6.952  10.803   6.439  1.2313 -0.3319  0.6782
 3993SOL     OW18070   6.448   0.821   2.044  0.6613 -0.4734 -0.0017
 3993SOL    HW118071   6.446   0.755   2.114  0.9406 -0.3630  0.1127
 3993SOL    HW218072   6.497   0.894   2.082  0.4776 -0.2582 -0.1803
 3994SOL     OW18073   6.437   3.107   2.895 -0.0402  0.1432 -0.1652
 3994SOL    HW118074   6.462   3.197   2.911  0.4757  0.2476 -1.4535
 3994SOL    HW218075   6.493   3.055   2.953 -1.2407  0.6795  1.5566
 3995SOL     OW18076  10.505   2.217   2.279  0.0693  0.3570 -0.0065
 3995SOL    HW118077  10.415   2.186   2.271 -0.4100  1.8216 -0.6584
 3995SOL    HW218078  10.558   2.151   2.234 -0.7068 -0.3544  0.1121
 3996SOL     OW18079   0.178   6.137  10.354  0.4626 -0.2161  0.0034
 3996SOL    HW118080   0.226   6.217  10.330  0.0386 -0.0891 -0.4329
 3996SOL    HW218081   0.172   6.141  10.449  0.6787  0.1389  0.0062
 3997SOL     OW18082   9.632   3.595   1.568  0.0204  0.2012  0.2028
 3997SOL    HW118083   9.598   3.622   1.482  1.3989  0.7554 -0.2151
 3997SOL    HW218084   9.600   3.661   1.629 -2.0835 -0.9279  0.3963
 3998SOL     OW18085   9.707   2.568   0.370 -0.2166 -0.0037  0.3471
 3998SOL    HW118086   9.683   2.541   0.458 -0.1867 -1.6246 -0.1033
 3998SOL    HW218087   9.800   2.549   0.364 -0.2844 -0.2006 -0.1285
 3999SOL     OW18088   6.054   1.650   0.089 -0.3430 -0.6287  0.1369
 3999SOL    HW118089   6.139   1.694   0.087 -0.4902 -0.2291  1.5633
 3999SOL    HW218090   5.998   1.703   0.033 -0.3837  0.7266  1.4283
 4000SOL     OW18091   5.841   3.320   2.876  0.1094 -0.4277 -0.1149
 4000SOL    HW118092   5.928   3.354   2.857 -0.5072  0.3721 -1.6788
 4000SOL    HW218093   5.808   3.289   2.792 -1.2536 -0.4147  0.3817
 4001SOL     OW18094   1.538   5.934   1.032  0.1044  0.4233 -0.0748
 4001SOL    HW118095   1.526   5.863   0.969  1.2663 -1.3141  1.5540
 4001SOL    HW218096   1.457   5.985   1.026  0.4371  0.7742 -3.3892
 4002SOL     OW18097   3.582   1.172   5.089  0.2271 -0.5666  0.5179
 4002SOL    HW118098   3.611   1.101   5.031 -0.8226 -0.2706 -0.4094
 4002SOL    HW218099   3.608   1.143   5.177 -0.2858 -2.1741  0.1787
 4003SOL     OW18100   3.646   0.498   1.279 -0.1897 -0.1216  0.4991
 4003SOL    HW118101   3.739   0.517   1.291  0.0987 -1.7310  1.0058
 4003SOL    HW218102   3.607   0.514   1.365 -0.0591 -1.1423  0.7557
 4004SOL     OW18103   1.651  10.030   8.558  0.1186  0.7122 -0.0459
 4004SOL    HW118104   1.675   9.950   8.512 -1.7927 -0.3692  0.6870
 4004SOL    HW218105   1.711  10.034   8.633  0.5930  0.2787 -0.4001
 4005SOL     OW18106   1.212   0.383   4.404  0.1548 -0.2133  0.3948
 4005SOL    HW118107   1.200   0.411   4.314 -0.2670  1.6436  0.9706
 4005SOL    HW218108   1.306   0.390   4.420  0.2222 -0.4991  0.1260
 4006SOL     OW18109   3.334  10.047   8.632 -0.3626  0.3654 -0.5983
 4006SOL    HW118110   3.404   9.983   8.642  1.7111  1.8551 -3.9049
 4006SOL    HW218111   3.307  10.068   8.722  2.5284 -1.1934  0.7574
 4007SOL     OW18112   0.461   2.893   4.272  0.2863  0.4137 -0.1862
 4007SOL    HW118113   0.479   2.874   4.180 -0.4934 -0.3673 -0.1971
 4007SOL    HW218114   0.474   2.809   4.317 -2.4146 -0.0680 -0.0983
 4008SOL     OW18115   7.256   2.851   4.650  0.4587 -1.0308 -0.0165
 4008SOL    HW118116   7.251   2.855   4.555  0.9628 -3.3216 -0.1859
 4008SOL    HW218117   7.290   2.937   4.676 -0.3997 -0.1033 -1.8167
 4009SOL     OW18118  10.701   3.329   1.725 -0.2541 -0.1990 -0.3165
 4009SOL    HW118119  10.609   3.345   1.703 -0.5219 -1.4725 -0.1698
 4009SOL    HW218120  10.743   3.311   1.641 -0.1027  0.5067 -0.3981
 4010SOL     OW18121   9.855   2.914   5.038 -0.3917 -0.2495 -0.2433
 4010SOL    HW118122   9.838   2.976   5.109  0.3001 -0.0180 -0.2739
 4010SOL    HW218123   9.950   2.903   5.037 -0.5692 -2.2527  0.5437
 4011SOL     OW18124   6.107   2.840   1.276  0.2647  0.5615  0.5101
 4011SOL    HW118125   6.061   2.897   1.338  0.9634  1.5631  0.1417
 4011SOL    HW218126   6.109   2.890   1.194  1.3616  0.2479  0.3248
 4012SOL     OW18127   3.026   6.512   8.601 -0.4472  0.3704  0.7215
 4012SOL    HW118128   3.102   6.459   8.626 -0.4236  0.3041  0.5161
 4012SOL    HW218129   3.034   6.521   8.506 -0.8325  0.1520  0.6657
 4013SOL     OW18130   4.981   5.651   5.000  0.0149 -0.1673 -0.7926
 4013SOL    HW118131   4.948   5.724   4.946  1.6396  0.9156 -0.4030
 4013SOL    HW218132   5.065   5.629   4.961  1.2028  0.5876  1.1630
 4014SOL     OW18133   4.477   7.859   8.541  0.0036  0.2287  0.0016
 4014SOL    HW118134   4.524   7.907   8.609 -0.5209 -1.0173  1.3168
 4014SOL    HW218135   4.396   7.909   8.529  0.7581  1.2757 -0.8108
 4015SOL     OW18136   9.743   0.297   4.313  0.5724  0.0645 -0.7763
 4015SOL    HW118137   9.663   0.270   4.358 -0.0872  0.4673 -1.6738
 4015SOL    HW218138   9.717   0.374   4.263  1.7821  0.8090 -0.2903
 4016SOL     OW18139   0.253   0.501   4.528  0.9890 -0.6955  0.3438
 4016SOL    HW118140   0.304   0.481   4.450 -0.3178  0.7979 -0.9890
 4016SOL    HW218141   0.164   0.476   4.505  0.4710  0.3752  1.0839
 4017SOL     OW18142   9.399   3.867   9.155  0.1935 -0.2667 -0.0655
 4017SOL    HW118143   9.455   3.870   9.233 -0.4486 -0.2148  0.3967
 4017SOL    HW218144   9.318   3.826   9.185  0.0883 -0.6180 -0.8019
 4018SOL     OW18145   7.301   1.342  10.149  0.2770 -0.0345  0.1535
 4018SOL    HW118146   7.383   1.369  10.108  0.8474 -3.8242 -1.6369
 4018SOL    HW218147   7.302   1.386  10.235  2.3482  2.8575 -1.1714
 4019SOL     OW18148   2.306   9.299   5.812  0.1694 -0.0411  0.7910
 4019SOL    HW118149   2.239   9.255   5.759  0.0197  0.6167  0.4174
 4019SOL    HW218150   2.286   9.274   5.902  0.2340 -0.9200  0.5707
 4020SOL     OW18151   5.344   9.715   3.308  0.5273 -0.4710  0.9931
 4020SOL    HW118152   5.257   9.747   3.284  1.4226  1.9366  0.6793
 4020SOL    HW218153   5.366   9.651   3.240 -0.6264 -0.4597  0.5896
 4021SOL     OW18154   9.616   7.901   0.904  0.0690 -0.1426 -0.8157
 4021SOL    HW118155   9.559   7.825   0.915  0.0008 -0.2754 -1.9799
 4021SOL    HW218156   9.692   7.867   0.856 -0.1838  0.6088 -1.7770
 4022SOL     OW18157   2.423   8.812   1.366  0.7208  0.3435 -0.4162
 4022SOL    HW118158   2.352   8.748   1.356  1.0963  0.0711 -1.3789
 4022SOL    HW218159   2.379   8.897   1.358 -0.1601  0.3658  3.0282
 4023SOL     OW18160   5.789   9.789   1.523  0.3495 -0.4631  0.1762
 4023SOL    HW118161   5.881   9.806   1.502  0.9898 -0.5111  2.7070
 4023SOL    HW218162   5.772   9.842   1.601 -0.7364 -3.0990  1.8482
 4024SOL     OW18163  10.869   9.930   1.450  0.2389 -0.0593  0.4747
 4024SOL    HW118164  10.878   9.960   1.360  2.6377  0.9992  0.9969
 4024SOL    HW218165  10.805   9.991   1.489  0.6768  0.7336 -0.0127
 4025SOL     OW18166   8.628   1.975   2.982 -0.1330 -0.2111  0.0596
 4025SOL    HW118167   8.717   2.008   2.970  0.3344 -1.0194  1.1293
 4025SOL    HW218168   8.584   1.992   2.899  1.0335  0.1710 -0.4886
 4026SOL     OW18169   5.393  10.569   8.745  0.4560 -0.4976 -0.4015
 4026SOL    HW118170   5.409  10.561   8.651  0.2920 -2.1846 -0.3168
 4026SOL    HW218171   5.446  10.500   8.785  0.1448 -0.1203  0.6982
 4027SOL     OW18172   5.810   3.682   2.321  0.6096  0.3836 -0.3409
 4027SOL    HW118173   5.782   3.758   2.373  0.5790 -0.0392  0.2616
 4027SOL    HW218174   5.735   3.623   2.323  1.1412 -0.2720  0.3555
 4028SOL     OW18175   4.897   2.362   5.796 -0.3091 -0.1264  0.2243
 4028SOL    HW118176   4.817   2.414   5.796 -0.5491 -0.4721 -0.8443
 4028SOL    HW218177   4.961   2.415   5.844 -0.8467  0.6601  0.0802
 4029SOL     OW18178   2.442   3.576   1.628  0.5281 -0.2491  0.0740
 4029SOL    HW118179   2.415   3.605   1.541 -1.9054  0.1344  0.8729
 4029SOL    HW218180   2.362   3.538   1.666  1.8223 -1.4519  1.7268
 4030SOL     OW18181   2.702   1.354   6.597 -0.0666  0.2366  0.1552
 4030SOL    HW118182   2.701   1.392   6.509  0.1615  1.0663  0.5032
 4030SOL    HW218183   2.610   1.352   6.624 -0.0190  1.3994  0.4799
 4031SOL     OW18184   2.239   2.256   3.102  0.4756 -0.6328 -0.1060
 4031SOL    HW118185   2.230   2.162   3.086  0.1543 -0.5453 -0.4572
 4031SOL    HW218186   2.290   2.288   3.028 -0.8697 -0.2524 -0.9010
 4032SOL     OW18187  10.705   2.870   1.845 -0.0266 -0.0983  0.2575
 4032SOL    HW118188  10.761   2.838   1.915  0.4612  2.5812  1.1838
 4032SOL    HW218189  10.763   2.883   1.771 -0.2102 -1.1601 -0.0931
 4033SOL     OW18190   2.118   4.001   2.073  0.3483  0.3144 -0.2373
 4033SOL    HW118191   2.134   3.958   2.157  0.5884 -0.5584 -0.7089
 4033SOL    HW218192   2.127   3.931   2.008  0.1227  0.9592 -0.9894
 4034SOL     OW18193   9.411   4.386   6.754  0.0475 -0.4772  0.0529
 4034SOL    HW118194   9.445   4.476   6.758  0.6491 -0.6466 -1.0243
 4034SOL    HW218195   9.356   4.384   6.676 -0.6186 -0.8366  0.5194
 4035SOL     OW18196   3.301   2.230   4.265  0.1294  0.3214 -0.3361
 4035SOL    HW118197   3.248   2.215   4.342  0.2743 -0.8553 -0.4404
 4035SOL    HW218198   3.272   2.315   4.231 -1.6222 -0.2471 -0.3547
 4036SOL     OW18199   9.984   4.086  10.476  0.5751  0.1940 -0.1005
 4036SOL    HW118200   9.915   4.042  10.427  1.2724  0.7006 -1.6274
 4036SOL    HW218201   9.942   4.114  10.557 -1.2716  1.2544 -1.3433
 4037SOL     OW18202   9.291  10.214   6.542  0.8416  0.3460 -0.0558
 4037SOL    HW118203   9.265  10.193   6.452 -1.1055  0.5752  0.4061
 4037SOL    HW218204   9.275  10.308   6.550 -2.2386 -0.1810  1.4375
 4038SOL     OW18205   4.083   0.792   4.739 -0.2485  0.6819  0.0150
 4038SOL    HW118206   4.073   0.863   4.675 -0.7936  1.4189  0.8891
 4038SOL    HW218207   4.148   0.826   4.801 -2.2642  1.4674  1.8013
 4039SOL     OW18208   8.100   5.788   8.662 -0.2430  0.1984 -0.4167
 4039SOL    HW118209   8.042   5.745   8.600 -1.1673 -0.8106  1.0945
 4039SOL    HW218210   8.172   5.822   8.608 -1.1848 -0.3173 -2.0587
 4040SOL     OW18211   5.652   6.302   5.088  0.1131 -0.0399  0.2322
 4040SOL    HW118212   5.562   6.326   5.111 -0.4719 -0.6982 -1.2559
 4040SOL    HW218213   5.647   6.209   5.065  1.3027 -0.2333  0.6752
 4041SOL     OW18214   3.755   3.734   4.896 -0.2648  0.3708  0.1757
 4041SOL    HW118215   3.833   3.679   4.884 -1.5888 -1.3755 -0.8782
 4041SOL    HW218216   3.753   3.752   4.990  1.4623  0.5449  0.2084
 4042SOL     OW18217   6.825   8.445   3.632 -0.5601  0.0544 -0.3373
 4042SOL    HW118218   6.789   8.533   3.642 -1.9066 -0.4775 -0.3752
 4042SOL    HW218219   6.920   8.458   3.635 -0.7300  1.2934  1.5722
 4043SOL     OW18220   8.658   5.983   4.062  0.3566  0.1816  0.3971
 4043SOL    HW118221   8.673   5.890   4.043 -1.1751  0.0233 -0.1440
 4043SOL    HW218222   8.604   5.984   4.140 -0.8766  0.5484 -0.4336
 4044SOL     OW18223   8.152   2.773   4.899  0.0883 -0.0961  0.2596
 4044SOL    HW118224   8.162   2.777   4.994 -0.8040 -1.0717  0.4192
 4044SOL    HW218225   8.181   2.685   4.875  0.0627  0.0504 -0.3393
 4045SOL     OW18226   3.945   4.057   5.082  0.1082  0.5377  0.0264
 4045SOL    HW118227   3.990   4.110   5.147 -2.3650  1.7424  0.8747
 4045SOL    HW218228   3.931   4.116   5.008 -0.1596  0.2263 -0.1763
 4046SOL     OW18229   3.482   1.498   7.914 -0.4491  0.0339  0.2119
 4046SOL    HW118230   3.493   1.420   7.860  0.7320  1.3804 -1.5970
 4046SOL    HW218231   3.483   1.465   8.004 -2.7725 -2.3075 -0.5023
 4047SOL     OW18232  10.554   1.107   1.079  0.3027  0.3171  0.3235
 4047SOL    HW118233  10.513   1.193   1.087  1.6563  1.3395 -2.4955
 4047SOL    HW218234  10.587   1.089   1.167 -0.6486  2.3260  1.1702
 4048SOL     OW18235   6.934   2.417   8.559  0.4862  0.2279 -0.5281
 4048SOL    HW118236   6.901   2.505   8.578  0.9666  0.6403 -1.5003
 4048SOL    HW218237   6.862   2.359   8.581  0.5077  0.7677  1.0710
 4049SOL     OW18238   2.965   9.142   9.241 -0.1180  0.3455 -0.5583
 4049SOL    HW118239   2.920   9.160   9.323 -0.5825  2.5343 -1.2194
 4049SOL    HW218240   2.899   9.155   9.173  0.7026  0.4755 -1.3659
 4050SOL     OW18241   9.711   2.261  10.112  0.3223 -0.2821 -0.7167
 4050SOL    HW118242   9.706   2.165  10.108  1.0938 -0.2698 -2.4180
 4050SOL    HW218243   9.736   2.288  10.024  1.0606  1.4435 -0.0154
 4051SOL     OW18244   2.203   5.009   8.709 -0.0691  0.8168  0.4041
 4051SOL    HW118245   2.259   5.034   8.635  0.2458 -1.7766 -0.3329
 4051SOL    HW218246   2.253   5.034   8.787  0.8252  1.1570 -0.2580
 4052SOL     OW18247   8.769   8.345   8.969 -0.3220 -0.4564  0.0696
 4052SOL    HW118248   8.726   8.427   8.946  3.7661  1.7117 -0.8510
 4052SOL    HW218249   8.760   8.339   9.064 -1.2742  0.7001  0.0790
 4053SOL     OW18250   2.358   9.545   7.652  0.3509 -0.6320  0.0697
 4053SOL    HW118251   2.299   9.505   7.716 -0.1655 -1.4731 -0.9030
 4053SOL    HW218252   2.438   9.563   7.701 -0.2983 -0.5751  1.1250
 4054SOL     OW18253   3.171   4.791   4.841  0.4235  0.1581 -0.0031
 4054SOL    HW118254   3.127   4.817   4.760  0.5412 -1.5713 -0.6678
 4054SOL    HW218255   3.121   4.835   4.911 -1.0709 -0.0789 -0.8728
 4055SOL     OW18256   4.884   1.442   4.755 -0.1365  0.2640 -0.4219
 4055SOL    HW118257   4.905   1.428   4.847 -2.9475  0.0901  0.2759
 4055SOL    HW218258   4.824   1.371   4.732  0.3658  0.4044 -2.3561
 4056SOL     OW18259   3.011   3.624   9.299  0.3354 -0.3032  0.2959
 4056SOL    HW118260   2.944   3.635   9.231  1.0554 -0.5349 -0.4634
 4056SOL    HW218261   3.035   3.714   9.323  0.0523 -0.2203  0.2726
 4057SOL     OW18262   0.767   9.315   4.158 -0.0740 -0.3165  0.5064
 4057SOL    HW118263   0.712   9.344   4.086  0.5002 -0.3698  0.0379
 4057SOL    HW218264   0.706   9.277   4.221 -0.3654 -3.2812 -1.3659
 4058SOL     OW18265  10.474  10.834   3.337  0.3207  0.7893 -0.1714
 4058SOL    HW118266  10.401  10.788   3.379  1.0175 -0.7472 -0.5760
 4058SOL    HW218267  10.547  10.822   3.397  0.7820  0.4545 -0.7970
 4059SOL     OW18268   1.290   0.530  10.210 -0.1836  0.4009  0.0533
 4059SOL    HW118269   1.261   0.439  10.206 -1.4895  0.7688  0.6543
 4059SOL    HW218270   1.307   0.554  10.119  0.9274 -0.6492 -0.0497
 4060SOL     OW18271   4.092  10.802   5.647 -0.5377 -0.8263 -0.4527
 4060SOL    HW118272   4.163  10.866   5.640 -1.3000  0.0074 -0.7615
 4060SOL    HW218273   4.082  10.789   5.741 -0.3141 -0.5594 -0.3865
 4061SOL     OW18274   1.554   7.800   7.058  0.0626 -0.4235 -0.1092
 4061SOL    HW118275   1.606   7.802   6.977  0.8272 -0.7503  0.3686
 4061SOL    HW218276   1.500   7.721   7.050 -0.0538 -0.3162 -0.4096
 4062SOL     OW18277   4.868   1.113   3.176 -0.2917 -0.3340 -0.2417
 4062SOL    HW118278   4.929   1.040   3.179  0.1671  0.0672  0.5335
 4062SOL    HW218279   4.875   1.154   3.262  0.2402  1.2436 -0.9802
 4063SOL     OW18280   3.923  10.645   8.385 -0.2301 -0.2976 -0.4481
 4063SOL    HW118281   4.005  10.689   8.410  0.7976 -1.7612 -1.1296
 4063SOL    HW218282   3.913  10.665   8.292 -0.1018 -0.9502 -0.6056
 4064SOL     OW18283   1.727   5.419   0.390 -0.1648  0.8461 -0.6268
 4064SOL    HW118284   1.667   5.480   0.431 -0.0419 -0.1931  1.2383
 4064SOL    HW218285   1.750   5.459   0.306  0.0927  3.4440  0.5875
 4065SOL     OW18286   9.344   8.156   8.374  0.4666 -0.0106 -1.0946
 4065SOL    HW118287   9.290   8.150   8.295 -0.8012  0.1867 -0.2784
 4065SOL    HW218288   9.419   8.099   8.356  0.8313  0.9642 -2.8878
 4066SOL     OW18289   4.689  10.260   2.707  0.0439  0.2059  0.3559
 4066SOL    HW118290   4.694  10.251   2.802 -0.6515  0.0457  0.3827
 4066SOL    HW218291   4.612  10.209   2.682 -1.2752  2.2178  0.0041
 4067SOL     OW18292   8.986   0.083   5.137  0.1109 -0.2091 -0.6705
 4067SOL    HW118293   8.915   0.120   5.190  0.5315 -2.8807  2.0870
 4067SOL    HW218294   8.942   0.041   5.063 -0.8761  0.6511 -0.5908
 4068SOL     OW18295   4.662   8.520   0.183 -0.5748 -0.6940 -0.0067
 4068SOL    HW118296   4.630   8.564   0.261  0.9194 -1.4891  1.1010
 4068SOL    HW218297   4.626   8.571   0.110 -0.0930  1.4931  1.1966
 4069SOL     OW18298   8.639   4.976   7.144  0.3121  0.6085 -0.0789
 4069SOL    HW118299   8.708   4.980   7.210 -1.4311 -1.4182  2.0081
 4069SOL    HW218300   8.674   4.918   7.076  0.4302 -1.0314  1.3315
 4070SOL     OW18301   2.958   2.117   9.444 -0.7797 -0.0608 -0.3080
 4070SOL    HW118302   2.973   2.140   9.353 -1.3660 -1.4847 -0.7998
 4070SOL    HW218303   2.862   2.111   9.452 -1.0302  3.5391  1.3553
 4071SOL     OW18304   0.491   4.805   7.310 -0.0920  0.4441  0.0354
 4071SOL    HW118305   0.550   4.839   7.377  0.6691 -2.1402  0.7763
 4071SOL    HW218306   0.475   4.880   7.252  1.7153  1.9321  1.3392
 4072SOL     OW18307   6.462   4.440   0.052  0.1247 -0.1715 -0.1271
 4072SOL    HW118308   6.398   4.387   0.005  0.5185  0.9333 -2.0353
 4072SOL    HW218309   6.489   4.386   0.126 -0.1926 -2.2186 -1.4194
 4073SOL     OW18310   7.309   2.045   4.063  0.4230  0.6555 -0.0755
 4073SOL    HW118311   7.223   2.074   4.092  0.6860  1.2035  0.1900
 4073SOL    HW218312   7.336   2.110   3.998 -0.1129 -0.5073 -1.5092
 4074SOL     OW18313   0.067   0.350   6.363 -0.4104 -0.7070 -0.0597
 4074SOL    HW118314   0.020   0.318   6.440 -1.0988 -0.5387 -0.3973
 4074SOL    HW218315   0.017   0.315   6.289  0.6079 -1.3952 -0.4318
 4075SOL     OW18316   1.120   7.575   9.298 -0.1298  0.1303 -0.2784
 4075SOL    HW118317   1.122   7.520   9.376  0.0825  0.3506 -0.1248
 4075SOL    HW218318   1.212   7.593   9.279 -0.2058  2.0965  0.8838
 4076SOL     OW18319   9.002  10.023   1.861 -0.0271 -0.2605 -0.6191
 4076SOL    HW118320   9.081  10.022   1.808  0.0461 -1.8804 -0.5372
 4076SOL    HW218321   9.030  10.061   1.945  0.7837 -1.2163 -0.4385
 4077SOL     OW18322   4.879  10.060   0.191 -0.1789 -0.4975  0.0058
 4077SOL    HW118323   4.865   9.969   0.216  0.8351 -0.7277 -0.1982
 4077SOL    HW218324   4.822  10.074   0.116 -3.3362  0.2247  2.3202
 4078SOL     OW18325   8.622   9.546   5.844 -0.0339 -0.6251  0.2670
 4078SOL    HW118326   8.589   9.489   5.913  0.9758 -1.1998  0.2969
 4078SOL    HW218327   8.689   9.494   5.799 -1.5790 -0.7608 -2.0291
 4079SOL     OW18328   2.171   8.251   9.706 -0.0600  0.6394 -0.2817
 4079SOL    HW118329   2.112   8.321   9.731  0.5541  2.1549 -2.6694
 4079SOL    HW218330   2.135   8.217   9.624  0.6263 -0.6413 -0.0884
 4080SOL     OW18331   1.162   6.022   6.380 -0.4079  0.2613 -0.3702
 4080SOL    HW118332   1.201   6.091   6.434  0.6869  1.3730 -2.4502
 4080SOL    HW218333   1.081   5.999   6.425  0.2720  1.3474  1.5328
 4081SOL     OW18334   5.063   7.781   4.676  0.3230  0.3555  1.0839
 4081SOL    HW118335   4.997   7.805   4.612  1.6096  0.0694 -0.3937
 4081SOL    HW218336   5.107   7.864   4.697 -0.1103  0.4525  1.6253
 4082SOL     OW18337   9.784   8.135   2.937  0.7440  0.0661  0.3531
 4082SOL    HW118338   9.775   8.182   3.020  2.6182 -2.0101  1.8382
 4082SOL    HW218339   9.699   8.092   2.925  0.1475  1.1069  0.6794
 4083SOL     OW18340   3.143   1.942   7.156 -0.4234 -0.2913  0.4330
 4083SOL    HW118341   3.132   1.985   7.071 -0.6081 -0.8366  0.1772
 4083SOL    HW218342   3.233   1.965   7.182  0.5171 -2.0646 -1.0431
 4084SOL     OW18343   5.995   0.702   8.518  0.1880  0.5741  0.2874
 4084SOL    HW118344   6.066   0.698   8.582  2.2183 -0.8504 -1.9108
 4084SOL    HW218345   5.984   0.611   8.488 -1.5042  1.0138 -0.5768
 4085SOL     OW18346   8.930   9.017   7.674  0.0713  0.1770 -0.1124
 4085SOL    HW118347   8.883   9.077   7.731  1.4847  0.1148  1.1840
 4085SOL    HW218348   8.986   8.966   7.733  1.3167 -0.1477 -1.5026
 4086SOL     OW18349   1.175  10.508  10.856  0.2370 -0.0733  0.2895
 4086SOL    HW118350   1.110  10.575  10.836  0.9016  0.6344  0.4310
 4086SOL    HW218351   1.141  10.428  10.817 -1.0339  0.1344  0.9263
 4087SOL     OW18352   4.329   2.185   4.987 -0.3703  0.1925 -0.7795
 4087SOL    HW118353   4.421   2.211   4.998 -0.2382  0.3233 -2.0724
 4087SOL    HW218354   4.321   2.165   4.894 -1.3384 -1.0923 -0.4371
 4088SOL     OW18355   6.477   7.215   9.723  0.2139  0.5684 -0.1377
 4088SOL    HW118356   6.421   7.276   9.675 -0.8848  0.4993  1.0214
 4088SOL    HW218357   6.521   7.165   9.654 -0.8962  0.8578 -1.0963
 4089SOL     OW18358   1.906   6.782   4.214 -0.0951  0.0756  0.6992
 4089SOL    HW118359   1.846   6.768   4.287 -0.9524  1.6545  0.3604
 4089SOL    HW218360   1.990   6.749   4.245 -0.4714  0.5723  2.3621
 4090SOL     OW18361   5.650   5.696   8.544 -0.1017  0.1135  0.0099
 4090SOL    HW118362   5.638   5.781   8.587  1.4117  1.0519 -1.2756
 4090SOL    HW218363   5.710   5.649   8.600  0.3080  0.5378 -0.0667
 4091SOL     OW18364  10.372   1.301   3.777  0.1418  0.1220  0.3620
 4091SOL    HW118365  10.441   1.282   3.713  0.9028  0.0368  1.1900
 4091SOL    HW218366  10.296   1.254   3.745  0.6854 -0.4292 -0.1497
 4092SOL     OW18367  10.902   7.288   6.023  0.2021  0.1461  0.4442
 4092SOL    HW118368  10.983   7.246   6.050 -0.8604 -0.9768  2.0460
 4092SOL    HW218369  10.851   7.298   6.104 -2.1484 -1.2188 -0.7291
 4093SOL     OW18370   7.327  10.513   7.240 -0.1588 -0.8000  0.1145
 4093SOL    HW118371   7.420  10.523   7.258 -0.3661  0.8071  0.4159
 4093SOL    HW218372   7.322  10.495   7.146  0.2981  3.3849 -0.8981
 4094SOL     OW18373   1.763   0.775   8.052 -0.1256 -0.1879  0.5382
 4094SOL    HW118374   1.667   0.781   8.061 -0.2668 -2.2201  1.0118
 4094SOL    HW218375   1.791   0.724   8.129  1.2512 -0.1674  0.0755
 4095SOL     OW18376   9.921   0.368   0.461 -0.4518 -0.1310 -0.0696
 4095SOL    HW118377   9.977   0.299   0.425 -0.2341 -0.2466  0.4881
 4095SOL    HW218378   9.954   0.383   0.549  1.3529  2.7177 -1.0962
 4096SOL     OW18379   8.406   7.576   3.512  0.7151  0.2583  0.1288
 4096SOL    HW118380   8.333   7.601   3.569  0.6183  0.5602 -0.1214
 4096SOL    HW218381   8.385   7.487   3.484  0.2617  0.4580 -0.2048
 4097SOL     OW18382  10.679   0.363   3.879  0.6950 -0.4023  0.4195
 4097SOL    HW118383  10.739   0.353   3.806 -0.9947 -0.9261 -0.9697
 4097SOL    HW218384  10.642   0.451   3.868  0.2817 -0.5621  0.5109
 4098SOL     OW18385   7.469   5.413   5.422  0.1007 -0.2360  0.1562
 4098SOL    HW118386   7.382   5.403   5.461 -0.1816 -0.1609 -0.4460
 4098SOL    HW218387   7.523   5.451   5.492  0.0752 -1.7926  1.0704
 4099SOL     OW18388   5.220   6.947   0.087 -0.6103  0.1211 -0.4799
 4099SOL    HW118389   5.149   7.001   0.052 -0.8748  0.6650  0.8238
 4099SOL    HW218390   5.284   6.943   0.016 -1.3016  0.8190 -1.1724
 4100SOL     OW18391   7.092   9.326   4.453  0.0046  0.2180 -0.1928
 4100SOL    HW118392   7.097   9.402   4.394 -0.2157  0.2253 -0.2007
 4100SOL    HW218393   7.007   9.333   4.495 -0.0811 -0.1094 -0.3073
 4101SOL     OW18394   2.337   4.184   6.844 -0.0657 -0.5040  0.0610
 4101SOL    HW118395   2.295   4.100   6.857 -1.3108  0.2522  1.2017
 4101SOL    HW218396   2.316   4.209   6.754  0.5411 -1.5155 -0.3699
 4102SOL     OW18397   0.939   8.412   8.151 -0.4406  0.4483  0.3443
 4102SOL    HW118398   1.013   8.382   8.099 -1.7861 -0.4317 -1.1390
 4102SOL    HW218399   0.979   8.450   8.229  1.5081 -2.0478  0.7012
 4103SOL     OW18400   1.509   1.088  10.290  0.7565  0.3662 -0.1376
 4103SOL    HW118401   1.421   1.110  10.321  1.3155  1.1706  0.9590
 4103SOL    HW218402   1.503   0.996  10.265 -0.7784  0.8171 -1.5690
 4104SOL     OW18403   1.028   7.912   3.605  0.1946  0.1709 -0.4037
 4104SOL    HW118404   1.106   7.962   3.630  0.8310 -0.1406 -1.6832
 4104SOL    HW218405   0.973   7.975   3.558  0.7511 -0.1519 -1.5372
 4105SOL     OW18406   7.774   5.770   5.339 -0.1196  0.3353  0.5220
 4105SOL    HW118407   7.844   5.725   5.386  0.1354 -1.0031 -1.0138
 4105SOL    HW218408   7.699   5.768   5.398 -0.6083 -3.6319  0.0297
 4106SOL     OW18409   3.462  10.116   1.212 -0.3099  0.2767 -0.2065
 4106SOL    HW118410   3.391  10.165   1.253 -0.0842 -0.3654  0.9686
 4106SOL    HW218411   3.459  10.143   1.120  0.3259  3.1515  0.5160
 4107SOL     OW18412   5.737   8.311  10.655  0.0880  0.2411 -0.1769
 4107SOL    HW118413   5.728   8.239  10.719  2.1442  0.3748  0.3335
 4107SOL    HW218414   5.682   8.285  10.582 -0.7062 -0.9362  0.8024
 4108SOL     OW18415   3.021   3.558   8.072  0.2317 -0.1393 -0.4620
 4108SOL    HW118416   3.067   3.641   8.080 -0.1997 -0.0424  1.4111
 4108SOL    HW218417   3.068   3.499   8.131 -0.9156 -0.5438  0.0710
 4109SOL     OW18418   7.947   7.860   0.906  0.4463  0.2504  0.0955
 4109SOL    HW118419   8.014   7.900   0.962  2.0584 -1.0274 -0.8056
 4109SOL    HW218420   7.996   7.831   0.828 -1.5651  1.3089 -1.6676
 4110SOL     OW18421   3.921   7.071   3.703 -0.0361 -0.2805 -0.1062
 4110SOL    HW118422   3.976   7.005   3.745 -0.5490 -0.0072  1.0077
 4110SOL    HW218423   3.862   7.021   3.646  0.0719 -0.7144  0.1607
 4111SOL     OW18424   0.378   3.261   0.915 -0.7912  0.6525  0.4111
 4111SOL    HW118425   0.361   3.330   0.978  0.5441 -0.6146  2.2816
 4111SOL    HW218426   0.412   3.188   0.968  0.5666 -0.4283 -1.7878
 4112SOL     OW18427  10.188   0.322   0.622 -0.3879 -0.9796  0.1750
 4112SOL    HW118428  10.198   0.294   0.713 -0.1418  0.1675  0.5259
 4112SOL    HW218429  10.122   0.391   0.626 -0.4592 -1.0011 -0.5394
 4113SOL     OW18430   2.969   5.444   1.487 -0.2760  0.2228  0.3496
 4113SOL    HW118431   2.982   5.500   1.411 -2.3097  1.4232  0.8148
 4113SOL    HW218432   3.002   5.359   1.460  0.9968  1.1234 -1.1123
 4114SOL     OW18433   1.960   1.223   0.095  0.2051 -0.5611  0.0065
 4114SOL    HW118434   1.872   1.246   0.124 -0.8929 -3.8359 -0.3132
 4114SOL    HW218435   1.968   1.261   0.008 -2.5076 -3.3074 -1.6212
 4115SOL     OW18436   0.902   0.969   3.495 -0.3531  0.3711  0.5111
 4115SOL    HW118437   0.988   0.934   3.517 -0.3942 -2.3411 -2.8759
 4115SOL    HW218438   0.921   1.055   3.456  0.5516  0.7603  1.7364
 4116SOL     OW18439   3.400   4.455   7.733  0.6174  0.2194  0.2198
 4116SOL    HW118440   3.419   4.533   7.682  2.9043 -0.0517  0.5320
 4116SOL    HW218441   3.345   4.402   7.675  1.1043  0.9920 -1.0076
 4117SOL     OW18442   8.913   1.022   2.556  0.1691 -0.2765  0.2946
 4117SOL    HW118443   8.892   0.931   2.575 -0.5759 -0.9707 -3.2059
 4117SOL    HW218444   8.833   1.070   2.578 -0.2556 -0.8333 -0.0010
 4118SOL     OW18445  10.753   6.147   9.020  0.3184  0.0068  0.0282
 4118SOL    HW118446  10.752   6.099   8.938  1.5388  0.5926 -0.3575
 4118SOL    HW218447  10.688   6.216   9.009 -0.1838 -0.4824 -0.0867
 4119SOL     OW18448   7.551   1.007   6.124  0.2638  0.0666 -0.1527
 4119SOL    HW118449   7.468   0.965   6.101 -0.2478  1.7592 -1.5426
 4119SOL    HW218450   7.618   0.951   6.084 -0.1966 -1.0631  0.6031
 4120SOL     OW18451   4.850   2.177   8.686  0.4803  0.3691  0.4811
 4120SOL    HW118452   4.857   2.082   8.694 -1.7008  0.1555  0.6542
 4120SOL    HW218453   4.935   2.211   8.713  1.0576 -1.4984  1.1230
 4121SOL     OW18454   8.677  10.911   4.027  0.2396  0.1845 -0.7038
 4121SOL    HW118455   8.587  10.940   4.013 -0.2716 -1.2956 -0.6666
 4121SOL    HW218456   8.691  10.921   4.121 -0.0367  0.0232 -0.6438
 4122SOL     OW18457   3.803   0.985   9.465  0.3154 -0.2348 -0.6150
 4122SOL    HW118458   3.828   1.077   9.456 -0.5218  0.0513 -0.1176
 4122SOL    HW218459   3.812   0.949   9.377 -0.4904  0.6273 -1.0717
 4123SOL     OW18460   7.051   6.747   9.955 -0.3159  0.4741 -0.4713
 4123SOL    HW118461   7.067   6.765   9.863 -0.8055  0.2620 -0.5985
 4123SOL    HW218462   6.956   6.748   9.964 -0.3088 -0.4648 -0.1648
 4124SOL     OW18463   6.392   1.365  10.008 -0.3646  0.2931  0.0324
 4124SOL    HW118464   6.329   1.410   9.951 -0.8145  0.7621  0.8799
 4124SOL    HW218465   6.370   1.395  10.096  0.1801 -0.5929  0.4804
 4125SOL     OW18466   1.744   5.769   5.791 -0.1503 -0.3345 -0.2501
 4125SOL    HW118467   1.678   5.701   5.804 -0.3204 -0.4798 -1.6698
 4125SOL    HW218468   1.698   5.839   5.745 -0.2134  1.1935  1.9895
 4126SOL     OW18469  10.901   7.833   9.826 -0.7429  0.2341  0.0756
 4126SOL    HW118470  10.934   7.815   9.737 -0.3714 -1.4542  0.5047
 4126SOL    HW218471  10.975   7.873   9.871  0.2739 -2.0198  0.5520
 4127SOL     OW18472   6.519   9.356   0.155  0.0884  0.1347  0.5841
 4127SOL    HW118473   6.533   9.432   0.098 -1.0372 -1.5018 -2.0920
 4127SOL    HW218474   6.604   9.311   0.156  0.6486  1.1700  1.8566
 4128SOL     OW18475   0.077   0.701   1.377  0.2096  0.6127 -0.0549
 4128SOL    HW118476   0.080   0.756   1.299 -0.6771  0.6080 -0.1097
 4128SOL    HW218477   0.111   0.617   1.348 -1.2075  0.2504 -0.7689
 4129SOL     OW18478   6.724   3.133   8.309 -0.0945 -0.1704 -0.1592
 4129SOL    HW118479   6.672   3.206   8.344  0.3819  0.6770 -1.1542
 4129SOL    HW218480   6.784   3.110   8.380 -1.8247 -1.2080  1.0429
 4130SOL     OW18481   4.524   3.381   8.167  0.0379  0.1782 -0.6915
 4130SOL    HW118482   4.484   3.361   8.083 -0.2960 -1.9333 -0.0914
 4130SOL    HW218483   4.583   3.307   8.184 -0.5440  0.1179  1.2886
 4131SOL     OW18484   6.857   7.585   5.829  0.0267 -0.1956 -0.0531
 4131SOL    HW118485   6.868   7.630   5.746 -1.0034  1.0649  0.4685
 4131SOL    HW218486   6.843   7.494   5.806  1.1522 -0.1096 -1.1769
 4132SOL     OW18487   5.945   3.686   7.726  0.4455 -0.2381  0.0596
 4132SOL    HW118488   5.976   3.768   7.689 -0.6590  0.3890  0.4647
 4132SOL    HW218489   6.024   3.637   7.748  1.1105  0.5643 -0.5082
 4133SOL     OW18490   9.670   2.891   7.747  0.4302 -0.0830  0.4060
 4133SOL    HW118491   9.592   2.925   7.704 -1.0819 -0.7462  2.4950
 4133SOL    HW218492   9.690   2.956   7.816 -0.4859 -1.6549  2.2325
 4134SOL     OW18493   1.994   6.271   7.821  0.2569  0.1053  0.2776
 4134SOL    HW118494   1.951   6.295   7.903  1.3749  1.1244  0.5955
 4134SOL    HW218495   1.993   6.175   7.821 -1.3795  0.0881  0.5809
 4135SOL     OW18496   6.355   0.512   4.373 -0.3872 -0.3768  0.3184
 4135SOL    HW118497   6.376   0.419   4.381  0.5761 -0.1453  0.6230
 4135SOL    HW218498   6.335   0.540   4.463  1.6269  0.2117  0.6400
 4136SOL     OW18499  10.078   6.470   8.084 -0.0739  0.0304  0.0599
 4136SOL    HW118500  10.060   6.495   7.993  0.4208 -0.5630 -0.2058
 4136SOL    HW218501   9.992   6.474   8.127 -0.6558 -1.4506 -0.8708
 4137SOL     OW18502   1.635   4.466   3.178 -0.2971  0.4131  0.2086
 4137SOL    HW118503   1.577   4.512   3.117 -1.2825 -1.1488 -0.1057
 4137SOL    HW218504   1.715   4.450   3.128 -0.9912 -0.5985 -0.6169
 4138SOL     OW18505  10.590  10.853   1.091 -0.1782 -0.4462  0.3471
 4138SOL    HW118506  10.603  10.768   1.133  0.1822  0.0262  1.2154
 4138SOL    HW218507  10.534  10.901   1.152 -0.9765 -0.3026 -0.4772
 4139SOL     OW18508   8.898   0.806   2.165  0.3569  0.4499 -0.0432
 4139SOL    HW118509   8.969   0.869   2.150 -1.3963  2.9110  1.2591
 4139SOL    HW218510   8.833   0.826   2.098 -1.2258  1.7510  1.7396
 4140SOL     OW18511   2.061  10.765   5.588  0.7962 -0.0201 -0.0524
 4140SOL    HW118512   1.976  10.722   5.595  0.3507  0.9463  0.6066
 4140SOL    HW218513   2.122  10.693   5.569  0.0596 -0.9220  0.8642
 4141SOL     OW18514   3.385  10.322   8.583 -0.0031  0.3568  0.0281
 4141SOL    HW118515   3.376  10.383   8.657 -1.0690  0.9294 -0.5457
 4141SOL    HW218516   3.324  10.251   8.603  0.1396  0.2221 -0.0169
 4142SOL     OW18517   9.430  10.476   1.645  0.3655  0.7726 -0.0888
 4142SOL    HW118518   9.486  10.543   1.684 -0.4426  2.3924 -1.5476
 4142SOL    HW218519   9.448  10.482   1.551 -1.5666  0.7303 -0.5074
 4143SOL     OW18520   5.157   6.010   1.442  0.2586 -0.2937 -0.0235
 4143SOL    HW118521   5.167   6.085   1.501  0.9398  0.3469 -0.9250
 4143SOL    HW218522   5.067   5.981   1.455  0.2791  0.0870  1.0340
 4144SOL     OW18523   4.905   1.547   8.836  0.0400  0.1646  0.0375
 4144SOL    HW118524   4.847   1.475   8.809  0.1194  0.3816 -0.7470
 4144SOL    HW218525   4.860   1.626   8.809 -0.3738  0.4656  1.5351
 4145SOL     OW18526   4.980   6.635   4.806  0.0876  0.1113 -0.2791
 4145SOL    HW118527   4.929   6.555   4.794 -0.0880  0.0062  1.0565
 4145SOL    HW218528   4.947   6.695   4.739 -0.9520 -0.3732 -0.2164
 4146SOL     OW18529   6.220   2.259   6.793 -0.1034  0.0568  0.0144
 4146SOL    HW118530   6.194   2.168   6.788 -0.9598  0.3558 -1.8643
 4146SOL    HW218531   6.232   2.286   6.702 -1.3771  2.2356  0.4113
 4147SOL     OW18532   2.638   8.027   8.694  0.1994  0.1884  0.2987
 4147SOL    HW118533   2.573   7.977   8.744 -0.0879 -1.5840 -1.6906
 4147SOL    HW218534   2.692   8.068   8.760 -0.0256 -2.1806  2.1120
 4148SOL     OW18535   9.235   3.278   1.097  0.0491  0.0104  0.1064
 4148SOL    HW118536   9.201   3.213   1.157 -0.6914 -1.3416 -1.6778
 4148SOL    HW218537   9.292   3.229   1.037  1.2692  1.4076  0.0553
 4149SOL     OW18538   1.328   4.988   8.007  0.2645  0.1092  0.1749
 4149SOL    HW118539   1.292   4.950   7.927 -2.6762 -1.6919  2.1703
 4149SOL    HW218540   1.255   4.988   8.068  2.3326  1.6075  2.8171
 4150SOL     OW18541  10.754   0.679   8.304  0.0546 -0.4460  0.3578
 4150SOL    HW118542  10.762   0.755   8.246 -0.0183 -0.4048  0.4018
 4150SOL    HW218543  10.667   0.644   8.285  0.0998 -0.5366  0.3158
 4151SOL     OW18544   5.325   6.440   1.680  0.5680 -0.3896  0.8049
 4151SOL    HW118545   5.245   6.487   1.703 -1.5423 -2.0242 -2.4216
 4151SOL    HW218546   5.356   6.404   1.763 -2.9949 -1.0237  2.0319
 4152SOL     OW18547   7.988   7.031   2.850 -0.3942 -0.0906  0.1591
 4152SOL    HW118548   7.992   7.094   2.779  1.9485  0.5385  0.7562
 4152SOL    HW218549   8.006   7.082   2.929  2.6071 -1.5104  0.5676
 4153SOL     OW18550   4.219   7.138   9.450  0.7345  0.2025  0.6095
 4153SOL    HW118551   4.151   7.187   9.404  1.8240 -1.5921 -3.2906
 4153SOL    HW218552   4.296   7.196   9.447  0.9072 -0.0533 -0.2872
 4154SOL     OW18553   4.173  10.242   5.326 -0.4816  0.1505 -0.2572
 4154SOL    HW118554   4.132  10.164   5.364 -0.3975 -0.1915 -0.8573
 4154SOL    HW218555   4.142  10.314   5.381 -0.6613 -0.2889  0.2279
 4155SOL     OW18556   7.783   2.488   0.991  0.0444  0.1679 -0.6949
 4155SOL    HW118557   7.792   2.410   1.046 -0.5635  1.1283  0.8255
 4155SOL    HW218558   7.826   2.464   0.909 -0.2978 -1.8262 -0.3476
 4156SOL     OW18559   2.636   4.974   5.409  0.0923 -0.6054 -0.1916
 4156SOL    HW118560   2.610   4.962   5.317 -3.3862  0.5069  0.5046
 4156SOL    HW218561   2.566   4.933   5.459  0.3298  1.3992  1.9523
 4157SOL     OW18562   0.448   2.068   0.601  0.4457 -0.2627  0.5604
 4157SOL    HW118563   0.378   2.089   0.663 -0.7694 -0.2190 -0.7781
 4157SOL    HW218564   0.466   1.976   0.616 -1.5713 -0.9146 -0.6409
 4158SOL     OW18565   7.941   1.063   3.402 -0.3600 -0.6276  0.3059
 4158SOL    HW118566   8.018   1.116   3.423 -0.3634 -0.2166 -0.6584
 4158SOL    HW218567   7.966   1.015   3.323 -1.0981 -0.4656 -0.0362
 4159SOL     OW18568   0.772   7.312   9.239 -0.2639 -0.2226 -0.3734
 4159SOL    HW118569   0.721   7.392   9.244  0.2082  0.0464  0.2290
 4159SOL    HW218570   0.709   7.242   9.259 -0.7027 -0.0240 -1.0327
 4160SOL     OW18571   1.659   7.386   9.929 -0.0861 -0.0351 -0.1565
 4160SOL    HW118572   1.712   7.465   9.934  0.5506 -0.4965  0.5021
 4160SOL    HW218573   1.580   7.413   9.882 -1.0269  1.6311  2.1934
 4161SOL     OW18574   2.706   0.535   0.899 -0.1999 -0.3259 -0.4242
 4161SOL    HW118575   2.704   0.462   0.836  3.2952 -0.5124 -0.4939
 4161SOL    HW218576   2.656   0.605   0.856 -1.7488 -1.9000 -1.3331
 4162SOL     OW18577   2.063   7.364   9.687  0.0272  0.0160 -0.7681
 4162SOL    HW118578   2.000   7.341   9.754  3.3790 -0.1374  2.6926
 4162SOL    HW218579   2.104   7.281   9.662  2.3713  0.4976  1.0940
 4163SOL     OW18580   4.004   8.452   4.989  0.0100  0.1414 -0.2727
 4163SOL    HW118581   4.027   8.464   5.081  0.2877 -0.9600 -0.1832
 4163SOL    HW218582   4.078   8.405   4.951 -1.1549 -1.6332 -0.4518
 4164SOL     OW18583   4.084   9.373   6.229  0.2424 -0.0093 -0.3012
 4164SOL    HW118584   4.136   9.379   6.148  2.1036  0.0169  0.8425
 4164SOL    HW218585   4.022   9.445   6.222  2.3102  1.8946 -0.4631
 4165SOL     OW18586   1.756   3.509   1.121  0.2266  0.2865  0.0299
 4165SOL    HW118587   1.802   3.512   1.037  1.3261  0.9731  0.6264
 4165SOL    HW218588   1.696   3.584   1.118  0.2917  0.3330 -0.1351
 4166SOL     OW18589   2.632   9.370   1.119 -0.3221 -0.4653 -0.1572
 4166SOL    HW118590   2.654   9.429   1.190 -0.6360 -0.5858  0.0449
 4166SOL    HW218591   2.704   9.379   1.056  0.1366 -0.6205  0.3362
 4167SOL     OW18592   4.806   3.961   0.069 -1.0245  0.3975  0.2648
 4167SOL    HW118593   4.724   3.977   0.021 -2.7605 -1.1238  2.5348
 4167SOL    HW218594   4.784   3.976   0.161  1.2596 -0.1091  0.9634
 4168SOL     OW18595   0.818   6.861   9.284  0.0959 -0.7198  0.4694
 4168SOL    HW118596   0.770   6.807   9.347 -0.1640 -0.2761  0.6519
 4168SOL    HW218597   0.892   6.896   9.333  0.5038 -1.2463  0.2387
 4169SOL     OW18598   6.512   4.126   3.057 -0.0928  0.3679  0.0586
 4169SOL    HW118599   6.495   4.152   2.967 -0.4646  0.3103  0.1092
 4169SOL    HW218600   6.428   4.093   3.089  0.0116  0.4729  0.4551
 4170SOL     OW18601   3.896   2.547   1.273  0.6425 -0.3554  0.0358
 4170SOL    HW118602   3.890   2.619   1.210  1.0268  0.4429  0.8927
 4170SOL    HW218603   3.943   2.478   1.226  0.0444 -0.1535 -0.8831
 4171SOL     OW18604   9.207   9.479   0.851 -0.1493  0.1567 -0.0908
 4171SOL    HW118605   9.144   9.420   0.809 -0.5091 -0.3432  1.0865
 4171SOL    HW218606   9.202   9.560   0.800  0.2793 -0.7755 -1.6767
 4172SOL     OW18607   2.706   8.641   5.874  0.6736  0.2279 -0.2960
 4172SOL    HW118608   2.612   8.652   5.857  0.8861  0.8124 -1.1717
 4172SOL    HW218609   2.748   8.702   5.813  1.7608 -2.2053 -2.1312
 4173SOL     OW18610   9.454  10.207   0.854  0.0032 -0.0362  0.5479
 4173SOL    HW118611   9.442  10.140   0.921 -1.1875  0.5861  0.9818
 4173SOL    HW218612   9.379  10.265   0.864  1.0072  1.3800  0.1936
 4174SOL     OW18613   3.144   3.110   6.758  0.0824  0.3146  0.1557
 4174SOL    HW118614   3.201   3.170   6.805  0.8638  1.5407 -2.2094
 4174SOL    HW218615   3.144   3.142   6.668 -1.4966 -1.7805 -0.6770
 4175SOL     OW18616   6.646   6.120  10.531  0.2376  0.2668 -0.5930
 4175SOL    HW118617   6.560   6.080  10.526  0.7188 -0.6056 -2.5138
 4175SOL    HW218618   6.661   6.156  10.444  1.4889  1.1309 -0.0496
 4176SOL     OW18619   0.615   8.655   5.105  0.0671  0.0794 -0.5917
 4176SOL    HW118620   0.532   8.678   5.062 -0.6642 -0.1116  0.6843
 4176SOL    HW218621   0.606   8.563   5.127  0.1113  0.3554  0.6497
 4177SOL     OW18622   5.579   3.594   7.893  0.7540  0.3964  0.4225
 4177SOL    HW118623   5.659   3.555   7.859  0.7246  1.2362 -0.6624
 4177SOL    HW218624   5.578   3.683   7.857 -0.2554  0.6776  1.0883
 4178SOL     OW18625   6.639   8.810   8.664 -0.0555 -0.7364  0.1424
 4178SOL    HW118626   6.728   8.777   8.659  0.7078  1.2685 -0.1224
 4178SOL    HW218627   6.610   8.820   8.573 -0.1007 -0.2543  0.2048
 4179SOL     OW18628   9.759   7.942   8.943 -0.2747 -0.5058  0.1422
 4179SOL    HW118629   9.695   7.944   8.872 -2.6392  0.8886  2.1361
 4179SOL    HW218630   9.741   8.021   8.993  2.9942 -0.1381  0.9395
 4180SOL     OW18631  10.159   1.587   9.121  0.3355  0.0135  0.3470
 4180SOL    HW118632  10.118   1.622   9.200  1.4271 -0.5664  1.2029
 4180SOL    HW218633  10.180   1.665   9.069 -1.8112  0.3353 -0.1587
 4181SOL     OW18634   8.769   0.811   4.977  0.0219 -0.1841  0.4664
 4181SOL    HW118635   8.777   0.906   4.974 -0.3074 -0.1733 -0.0856
 4181SOL    HW218636   8.837   0.784   5.039  1.0802  0.2927 -0.4537
 4182SOL     OW18637   9.487   1.424   5.602 -0.2666  0.1480  0.2135
 4182SOL    HW118638   9.571   1.469   5.599 -0.1777 -0.0496 -0.5431
 4182SOL    HW218639   9.474   1.392   5.512 -1.8073  1.4026 -0.0555
 4183SOL     OW18640   5.597  10.637   5.031 -0.2964  0.5172  0.3373
 4183SOL    HW118641   5.683  10.674   5.013 -0.6449  0.2485 -2.4612
 4183SOL    HW218642   5.607  10.543   5.018 -1.3766  0.6759 -2.2807
 4184SOL     OW18643  10.352   8.105   0.984  0.4490 -0.3438 -0.0605
 4184SOL    HW118644  10.430   8.147   1.020  0.7088 -0.2578 -0.6993
 4184SOL    HW218645  10.325   8.043   1.051  0.2028  0.6557  0.8008
 4185SOL     OW18646   2.774   7.955   2.474  0.1896 -0.4432 -0.1608
 4185SOL    HW118647   2.693   7.938   2.427 -0.4111  0.6264  0.4193
 4185SOL    HW218648   2.756   7.928   2.564  1.3446 -2.5301 -0.5090
 4186SOL     OW18649   3.455   4.925   3.726  0.0125 -0.1720 -0.1343
 4186SOL    HW118650   3.528   4.874   3.762  0.8678  0.5710 -0.7603
 4186SOL    HW218651   3.382   4.863   3.721  0.4500 -0.8034  0.9642
 4187SOL     OW18652   8.267   3.248   8.974 -0.4001  0.1052  1.0746
 4187SOL    HW118653   8.191   3.236   9.031 -0.6506  0.6812  0.8674
 4187SOL    HW218654   8.231   3.285   8.894  0.2095  1.2166  1.3032
 4188SOL     OW18655  10.791   1.136   4.736 -0.4326  0.5277  0.2200
 4188SOL    HW118656  10.773   1.144   4.643 -1.5668  2.2091  0.5261
 4188SOL    HW218657  10.778   1.225   4.771 -0.5173 -0.1466  2.0452
 4189SOL     OW18658   6.065   0.194   3.391  0.2043 -0.5182  0.1695
 4189SOL    HW118659   5.992   0.163   3.337  0.6623  0.1176 -0.8700
 4189SOL    HW218660   6.029   0.268   3.439  0.2019 -0.0947 -0.4733
 4190SOL     OW18661   3.211   4.057  10.824 -0.3518 -0.0250  0.0394
 4190SOL    HW118662   3.234   3.973  10.864 -0.0545 -0.2409 -0.5706
 4190SOL    HW218663   3.179   4.034  10.736 -1.2501  0.4206  0.2444
 4191SOL     OW18664  10.279   2.774   8.287 -0.4720 -0.0070  0.2483
 4191SOL    HW118665  10.359   2.796   8.239 -1.4925  1.4195 -0.8906
 4191SOL    HW218666  10.254   2.687   8.253 -0.1731  0.1688 -0.4473
 4192SOL     OW18667   0.663   9.527   7.374 -0.1881  0.1745  0.2492
 4192SOL    HW118668   0.666   9.433   7.361  1.2576  0.1805  0.3714
 4192SOL    HW218669   0.728   9.561   7.312 -0.6096  1.0866  0.2888
 4193SOL     OW18670   8.097   9.780  10.697  0.5959 -0.1239 -0.2511
 4193SOL    HW118671   8.002   9.770  10.695  0.2658  0.6363  3.5482
 4193SOL    HW218672   8.112   9.870  10.667 -0.0659  0.1719  0.2603
 4194SOL     OW18673   7.272   0.530   6.056  0.0776 -0.0126 -0.0338
 4194SOL    HW118674   7.297   0.575   6.137 -0.6765  1.5022 -0.6033
 4194SOL    HW218675   7.355   0.506   6.015  0.6168  2.6365 -0.6520
 4195SOL     OW18676   1.670   4.037   8.962 -0.0795  0.7742  0.0448
 4195SOL    HW118677   1.611   4.031   8.886 -0.1734 -1.4800  0.2439
 4195SOL    HW218678   1.744   4.088   8.929 -1.5460  2.6820 -0.5467
 4196SOL     OW18679   4.977   4.207   3.231 -0.6397  0.5895  0.3717
 4196SOL    HW118680   4.934   4.275   3.282 -0.2265  0.7174  0.5603
 4196SOL    HW218681   5.064   4.200   3.271 -0.7365 -0.1572  0.4497
 4197SOL     OW18682   6.712  10.155   1.729 -0.1172  0.2717 -0.5667
 4197SOL    HW118683   6.673  10.239   1.703 -0.1553  0.7414  0.9337
 4197SOL    HW218684   6.676  10.138   1.816  0.4842 -0.9329 -0.5377
 4198SOL     OW18685   7.782   4.552   8.008  0.3078 -0.5525  0.4103
 4198SOL    HW118686   7.762   4.492   7.935 -2.4099 -2.4991  2.5295
 4198SOL    HW218687   7.847   4.505   8.060  1.5670  0.4438 -0.1978
 4199SOL     OW18688   4.748  10.211   5.335  0.0723 -0.3887 -0.1528
 4199SOL    HW118689   4.672  10.265   5.315 -0.5361 -1.7300 -1.6539
 4199SOL    HW218690   4.717  10.121   5.329  0.9492 -0.9970  2.7217
 4200SOL     OW18691   6.267  10.104   8.341 -0.6185 -0.0236 -0.3828
 4200SOL    HW118692   6.203  10.172   8.360 -0.7181  0.1509 -1.3273
 4200SOL    HW218693   6.336  10.117   8.406 -1.5441 -0.2379  0.6769
 4201SOL     OW18694   6.639   6.628   7.174  0.1422 -0.5132  0.0014
 4201SOL    HW118695   6.687   6.636   7.092 -0.0214  1.5298  0.0636
 4201SOL    HW218696   6.664   6.705   7.224 -1.3057 -0.6926  1.0490
 4202SOL     OW18697   0.270   1.654   4.384 -0.4537 -0.1637 -0.4163
 4202SOL    HW118698   0.362   1.636   4.401 -0.2952  1.6773  1.0764
 4202SOL    HW218699   0.222   1.583   4.427  0.2398 -0.2305  0.2564
 4203SOL     OW18700   3.111   4.824   5.442  0.1651 -0.7964  0.4273
 4203SOL    HW118701   3.028   4.871   5.431 -0.5846 -1.9007  1.1126
 4203SOL    HW218702   3.106   4.787   5.530  1.7385 -0.2384  0.7730
 4204SOL     OW18703   9.983   3.358   7.962  0.5223  0.5291  0.4738
 4204SOL    HW118704  10.018   3.363   7.873  1.7630  1.1218  0.9656
 4204SOL    HW218705   9.889   3.348   7.951  0.5270  1.7328 -0.9054
 4205SOL     OW18706   0.800   7.579   9.591 -0.7243 -0.2690  0.1388
 4205SOL    HW118707   0.778   7.486   9.586 -0.5461 -0.4611  2.0180
 4205SOL    HW218708   0.720   7.621   9.623 -0.8385  0.2653 -0.8003
 4206SOL     OW18709   6.331   9.748   6.356 -0.2683 -0.3774 -0.1636
 4206SOL    HW118710   6.258   9.784   6.305 -0.0051  2.3184  1.1873
 4206SOL    HW218711   6.402   9.739   6.294 -0.9856 -0.5878 -0.9746
 4207SOL     OW18712   3.663  10.332   1.296 -0.0994 -0.2939  0.0987
 4207SOL    HW118713   3.576  10.293   1.289 -0.5747  0.7011  0.2286
 4207SOL    HW218714   3.654  10.397   1.366  0.4299  0.6167 -0.6625
 4208SOL     OW18715   1.212   7.113   7.890  0.3892  0.1456  0.0685
 4208SOL    HW118716   1.189   7.126   7.982 -0.8747 -1.0646 -0.0408
 4208SOL    HW218717   1.205   7.201   7.851 -0.5693  0.4192  0.8169
 4209SOL     OW18718   4.026   3.823   9.132 -0.2159  0.0149 -0.2273
 4209SOL    HW118719   3.996   3.734   9.115 -0.9516 -0.1577  1.7075
 4209SOL    HW218720   4.096   3.813   9.196  0.0088  0.7957 -0.3404
 4210SOL     OW18721   4.802   3.831   5.311  0.2339 -0.4980  0.1029
 4210SOL    HW118722   4.794   3.770   5.238  0.9374 -0.0319 -0.3837
 4210SOL    HW218723   4.743   3.903   5.288  1.6277  0.4035 -0.8263
 4211SOL     OW18724   5.565   3.379   0.861 -0.0201 -0.6659  0.3636
 4211SOL    HW118725   5.646   3.422   0.889  0.1737 -1.0120  0.3441
 4211SOL    HW218726   5.497   3.445   0.874  0.5206  0.3475 -1.4932
 4212SOL     OW18727   4.625   9.046   3.538  0.3063  0.3816  0.1786
 4212SOL    HW118728   4.675   9.013   3.463 -1.1234  1.1091 -1.1463
 4212SOL    HW218729   4.649   8.988   3.610  0.9975 -0.9329 -1.0606
 4213SOL     OW18730   5.878   4.289   4.015 -0.1582 -0.1509 -0.4654
 4213SOL    HW118731   5.861   4.314   4.106 -0.2996  0.3204 -0.6133
 4213SOL    HW218732   5.951   4.228   4.020  0.6206  0.7745 -0.1221
 4214SOL     OW18733   5.406   6.417   7.259 -0.4320 -0.5413 -0.0159
 4214SOL    HW118734   5.419   6.323   7.258 -4.1639 -1.2979  2.1242
 4214SOL    HW218735   5.346   6.434   7.186  1.5593  0.6126 -1.5175
 4215SOL     OW18736   6.365   8.650   2.630 -0.2092  0.2017  0.2264
 4215SOL    HW118737   6.279   8.621   2.600 -0.2835  0.6502  0.0030
 4215SOL    HW218738   6.421   8.643   2.552  0.2897 -1.3719  0.6829
 4216SOL     OW18739   2.701   8.898   6.327  0.5086  0.4774  0.0957
 4216SOL    HW118740   2.646   8.961   6.280  0.5135  0.4313  0.0267
 4216SOL    HW218741   2.747   8.850   6.257  1.5563  1.3267  0.1727
 4217SOL     OW18742   6.328   7.465   6.658 -0.1059 -0.0256  0.3293
 4217SOL    HW118743   6.237   7.477   6.633 -0.5095  0.4257  1.9419
 4217SOL    HW218744   6.330   7.380   6.701  0.5532 -0.7151 -0.9740
 4218SOL     OW18745   6.321   0.674   6.863 -0.0617  0.5313  0.4998
 4218SOL    HW118746   6.380   0.685   6.789 -0.8968 -0.7014 -0.3933
 4218SOL    HW218747   6.372   0.701   6.939  0.6571  2.3061 -0.5481
 4219SOL     OW18748   1.721   0.297   6.820 -0.0320 -0.2821 -0.3439
 4219SOL    HW118749   1.710   0.392   6.811  1.7575  0.0449  0.5648
 4219SOL    HW218750   1.690   0.277   6.908 -0.5831 -0.5849 -0.6015
 4220SOL     OW18751  10.045   8.780   0.295 -0.4062  0.3991 -0.0119
 4220SOL    HW118752  10.134   8.785   0.330 -0.2700  0.5837 -0.3767
 4220SOL    HW218753   9.997   8.848   0.343 -0.5575 -0.2321  0.7567
 4221SOL     OW18754  10.470   6.243   0.442  0.0342  0.0871 -0.3481
 4221SOL    HW118755  10.484   6.167   0.499  1.0799  0.6921  0.2265
 4221SOL    HW218756  10.392   6.285   0.478  0.7121  0.4920  0.6967
 4222SOL     OW18757   7.395   3.888  10.529 -0.0378  0.3728 -0.1387
 4222SOL    HW118758   7.386   3.800  10.567 -2.6374  0.3649 -0.6061
 4222SOL    HW218759   7.473   3.882  10.473  0.1349 -1.4797  0.2329
 4223SOL     OW18760   5.487   7.868  10.561 -0.3905  0.1176  0.3195
 4223SOL    HW118761   5.564   7.834  10.514 -1.2320  0.1267 -1.1266
 4223SOL    HW218762   5.518   7.882  10.651  0.4451 -3.0162  0.6705
 4224SOL     OW18763   7.635  10.472   6.902 -0.1116 -0.0823  0.0541
 4224SOL    HW118764   7.723  10.442   6.881  0.4195  0.2370  1.6569
 4224SOL    HW218765   7.618  10.542   6.839  0.9236  0.0868 -0.0644
 4225SOL     OW18766   1.409   2.993   9.418 -0.0930  0.2581  0.1025
 4225SOL    HW118767   1.428   2.899   9.417 -0.1556  0.2191 -1.8044
 4225SOL    HW218768   1.439   3.023   9.504 -0.4081 -1.5533  0.8979
 4226SOL     OW18769   4.139   4.553   1.232 -0.0311  0.0241 -0.2491
 4226SOL    HW118770   4.143   4.579   1.324 -0.7358 -1.2468  0.1611
 4226SOL    HW218771   4.229   4.566   1.200  0.2455  0.3878  0.6270
 4227SOL     OW18772   9.605   6.788   4.805  0.0642  0.1314 -0.4094
 4227SOL    HW118773   9.639   6.804   4.893  0.3216 -2.5123  0.0334
 4227SOL    HW218774   9.621   6.695   4.789  0.7096  0.6675 -3.5704
 4228SOL     OW18775   8.172   7.090   4.504 -0.1652  0.2379 -0.0374
 4228SOL    HW118776   8.204   7.107   4.416 -0.6167  0.3324 -0.1871
 4228SOL    HW218777   8.154   6.996   4.506 -1.4991  0.4633 -0.5098
 4229SOL     OW18778   8.437   2.340   0.367 -0.3251  0.6293  0.0584
 4229SOL    HW118779   8.378   2.309   0.436 -0.3195  2.3317  0.8889
 4229SOL    HW218780   8.414   2.432   0.355  0.6675  0.7466 -1.1941
 4230SOL     OW18781   4.348   4.933   0.890 -0.7452 -0.1426  0.0008
 4230SOL    HW118782   4.338   4.982   0.972  1.1612 -0.7939  0.6637
 4230SOL    HW218783   4.425   4.972   0.848  0.5044 -2.1697  0.3040
 4231SOL     OW18784   5.012   1.454   4.495  1.0056  0.2725 -0.1020
 4231SOL    HW118785   5.050   1.541   4.486 -3.4558  2.6017  0.3699
 4231SOL    HW218786   4.976   1.453   4.584 -1.3103 -0.8761 -0.9577
 4232SOL     OW18787   0.370  10.563   0.896  0.3963 -0.0864 -0.2332
 4232SOL    HW118788   0.370  10.542   0.803 -2.4443 -0.1250 -0.3053
 4232SOL    HW218789   0.405  10.652   0.900 -0.5064  0.3581 -1.5070
 4233SOL     OW18790   4.055   1.131   3.527  0.0575 -0.2634 -0.6223
 4233SOL    HW118791   4.092   1.058   3.576 -0.7416 -1.0803 -1.2058
 4233SOL    HW218792   4.123   1.198   3.530  1.6654 -1.7589 -1.7793
 4234SOL     OW18793   8.047  10.179   8.380 -0.0266  0.0548  0.1699
 4234SOL    HW118794   8.017  10.108   8.323  0.1545  0.2992 -0.2377
 4234SOL    HW218795   8.138  10.192   8.355  0.4283 -0.6724  1.3904
 4235SOL     OW18796   4.619   7.224   8.604  0.1575 -0.0826  0.2813
 4235SOL    HW118797   4.574   7.200   8.523 -0.8127  0.7766  0.5453
 4235SOL    HW218798   4.707   7.251   8.575 -0.1669  0.1985 -0.4809
 4236SOL     OW18799   1.903   5.633   9.638 -0.3055  0.1747 -0.8079
 4236SOL    HW118800   1.988   5.590   9.634 -0.2827  0.2083 -0.6859
 4236SOL    HW218801   1.840   5.561   9.647 -0.2493  0.1790 -0.3614
 4237SOL     OW18802   5.401   4.196   3.955  0.3394 -0.1766 -0.2444
 4237SOL    HW118803   5.477   4.240   3.916 -0.8342  1.1817 -1.1344
 4237SOL    HW218804   5.352   4.266   3.998 -1.4650 -0.5980 -1.4696
 4238SOL     OW18805   2.893   0.267   4.821 -0.1969 -0.4381  0.1875
 4238SOL    HW118806   2.827   0.217   4.868 -0.2870  0.3836  0.9594
 4238SOL    HW218807   2.850   0.349   4.799  0.4279 -0.0750  0.3039
 4239SOL     OW18808  10.654   9.190   2.629 -0.3125  0.3202 -0.7061
 4239SOL    HW118809  10.690   9.262   2.576  1.5332  0.4163  0.5740
 4239SOL    HW218810  10.645   9.227   2.717 -0.4370 -0.6960 -0.2847
 4240SOL     OW18811   1.281   0.863   8.845 -0.7447 -0.1069  0.4510
 4240SOL    HW118812   1.293   0.774   8.812  0.1175 -0.8773  2.6273
 4240SOL    HW218813   1.198   0.860   8.893 -2.3468  1.1779 -2.0361
 4241SOL     OW18814   2.844   4.390   8.949 -0.0604  0.8120 -0.0156
 4241SOL    HW118815   2.886   4.305   8.934 -1.8518 -0.2211  0.5218
 4241SOL    HW218816   2.850   4.434   8.865 -0.0328 -0.2865 -0.6178
 4242SOL     OW18817   4.813   7.136   1.435  0.1956  0.2770 -0.0802
 4242SOL    HW118818   4.868   7.149   1.512 -0.4869  0.2165  0.4205
 4242SOL    HW218819   4.868   7.165   1.362  0.4316  1.4564  0.5355
 4243SOL     OW18820   8.353   3.548   1.101 -0.2767 -0.1988  0.1469
 4243SOL    HW118821   8.360   3.496   1.181  1.8684  2.2758  1.7356
 4243SOL    HW218822   8.440   3.542   1.061 -0.4622  0.8967 -0.4521
 4244SOL     OW18823   4.495   1.586  10.712 -0.1038  0.6145 -0.8396
 4244SOL    HW118824   4.573   1.532  10.707 -0.7674 -0.9039  2.4325
 4244SOL    HW218825   4.526   1.671  10.744  0.3945  0.6113 -1.3137
 4245SOL     OW18826   0.213   3.506   2.937  0.4158 -0.1210  0.9694
 4245SOL    HW118827   0.162   3.548   3.006  0.4270 -1.1772  1.6640
 4245SOL    HW218828   0.148   3.475   2.874  0.3410  0.1618  0.9086
 4246SOL     OW18829   2.752   7.646  10.076 -0.2238  0.2117 -0.2755
 4246SOL    HW118830   2.681   7.674  10.135 -0.7556 -0.1165 -0.7463
 4246SOL    HW218831   2.823   7.708  10.093 -0.5573  0.4411  0.3327
 4247SOL     OW18832   1.198   7.934   5.005 -0.0807 -0.2614  0.2381
 4247SOL    HW118833   1.119   7.893   5.041 -0.7450 -0.1616 -1.0568
 4247SOL    HW218834   1.188   7.926   4.910  0.4010  1.7404 -0.0270
 4248SOL     OW18835  10.393   9.229   6.105 -0.1259 -0.2162  0.4761
 4248SOL    HW118836  10.377   9.313   6.064  0.2325 -0.5434 -0.3498
 4248SOL    HW218837  10.390   9.165   6.033  1.0665 -0.7323  0.8473
 4249SOL     OW18838   4.636   4.892   8.288  0.1890 -0.2753  0.3651
 4249SOL    HW118839   4.674   4.805   8.275 -0.4074 -0.5213  0.2497
 4249SOL    HW218840   4.685   4.929   8.361 -1.1105 -1.6436  2.0091
 4250SOL     OW18841   9.825   0.689   5.374  0.5076 -0.0412 -0.1244
 4250SOL    HW118842   9.871   0.705   5.291  1.1244  0.3528  0.2843
 4250SOL    HW218843   9.849   0.599   5.397  0.4424 -0.1056 -0.3045
 4251SOL     OW18844  10.606   4.445   1.405 -0.2649 -0.2475  0.0018
 4251SOL    HW118845  10.634   4.524   1.450 -0.3570  1.1703 -2.2515
 4251SOL    HW218846  10.678   4.426   1.344 -1.3327 -0.4201 -1.2440
 4252SOL     OW18847   0.831   6.997   0.142  0.1417  0.0524 -0.1133
 4252SOL    HW118848   0.824   7.055   0.219 -1.9515 -1.9666  1.3452
 4252SOL    HW218849   0.835   7.057   0.068 -1.0259  2.1251  1.3802
 4253SOL     OW18850   4.232   0.114   0.978 -0.4068  0.3659  0.1759
 4253SOL    HW118851   4.265   0.170   0.908  3.0068 -1.3192  0.2068
 4253SOL    HW218852   4.278   0.143   1.056  0.1652 -1.3262  0.5233
 4254SOL     OW18853   7.492   6.841   1.281 -0.5417  0.1330  0.3333
 4254SOL    HW118854   7.496   6.772   1.215 -0.5405 -0.5906  1.0699
 4254SOL    HW218855   7.489   6.923   1.231  1.1123 -0.3019 -0.5579
 4255SOL     OW18856   1.890   1.988   3.736 -0.6595  0.2757  0.5929
 4255SOL    HW118857   1.985   1.983   3.727 -0.4681  1.5768  1.5986
 4255SOL    HW218858   1.865   2.066   3.687 -1.2248 -0.1056  0.2642
 4256SOL     OW18859   4.812   8.928   3.280 -0.3587 -0.4451 -0.5157
 4256SOL    HW118860   4.899   8.936   3.242 -0.0970 -0.8604 -0.0149
 4256SOL    HW218861   4.757   8.985   3.226  0.0429 -0.8592 -1.3831
 4257SOL     OW18862  10.447   7.712   4.829 -0.5858 -0.3983 -0.0520
 4257SOL    HW118863  10.516   7.746   4.886  0.6725  0.3773 -1.9412
 4257SOL    HW218864  10.405   7.790   4.794 -2.1568 -0.8663  0.7120
 4258SOL     OW18865   2.450   2.920   0.406  0.0645  0.4211  0.3018
 4258SOL    HW118866   2.405   2.849   0.452  1.8279 -1.6311 -0.9565
 4258SOL    HW218867   2.479   2.881   0.323 -0.7825  3.2488 -1.4746
 4259SOL     OW18868   0.743   3.505   6.191 -0.1144 -0.2013 -0.2371
 4259SOL    HW118869   0.794   3.512   6.271 -1.5380 -0.5990  0.7414
 4259SOL    HW218870   0.731   3.596   6.162  0.7996 -0.0874 -0.2780
 4260SOL     OW18871   7.635   0.225   2.259 -0.0734  0.0828  0.4095
 4260SOL    HW118872   7.563   0.172   2.293 -1.0405  1.2315  0.2423
 4260SOL    HW218873   7.592   0.289   2.202  1.1301  0.5399 -0.0113
 4261SOL     OW18874   7.588   4.774   8.571 -0.7426  0.6138  0.4332
 4261SOL    HW118875   7.644   4.810   8.503 -0.9831 -1.0285 -0.6824
 4261SOL    HW218876   7.520   4.726   8.524 -1.2870 -0.0187  1.8103
 4262SOL     OW18877   6.930   1.188   0.730  0.5449  0.4394 -0.6897
 4262SOL    HW118878   6.972   1.168   0.813  0.1495  0.3664 -0.5091
 4262SOL    HW218879   6.852   1.238   0.753 -0.6492 -1.2566 -0.8756
 4263SOL     OW18880   1.252   5.086   5.735 -0.1529  0.2485 -0.0648
 4263SOL    HW118881   1.246   5.099   5.830 -0.8761 -0.6768  0.0408
 4263SOL    HW218882   1.346   5.082   5.717  0.0027 -1.0884  0.8708
 4264SOL     OW18883   2.007  10.365  10.031  0.0615 -0.6784 -0.1379
 4264SOL    HW118884   2.026  10.389  10.122  1.2472  0.5021 -0.6686
 4264SOL    HW218885   1.948  10.434  10.000  0.4075 -0.5523 -0.5278
 4265SOL     OW18886   2.999   2.318   4.062 -0.8378 -0.0926 -0.2092
 4265SOL    HW118887   2.999   2.250   4.129 -0.1097  1.1249  1.0797
 4265SOL    HW218888   3.068   2.379   4.090  0.4129 -0.2063 -2.7792
 4266SOL     OW18889   4.675   7.880  10.553  0.0657 -0.2719  0.1962
 4266SOL    HW118890   4.672   7.916  10.642 -1.7310  1.5298 -0.5139
 4266SOL    HW218891   4.628   7.797  10.559 -2.4713  1.0879  0.4872
 4267SOL     OW18892   4.799   7.038   0.099 -0.6944 -0.0277  0.1638
 4267SOL    HW118893   4.862   7.109   0.111  1.0166 -1.6535  1.3183
 4267SOL    HW218894   4.802   7.019   0.005  1.1071 -0.5484  0.2966
 4268SOL     OW18895   5.949   7.771   8.671 -0.1869 -0.3371  0.0266
 4268SOL    HW118896   5.980   7.724   8.593  1.5864 -1.0762  1.1165
 4268SOL    HW218897   6.018   7.835   8.689 -1.1240  0.5984  0.3464
 4269SOL     OW18898   6.583   3.959   7.034  0.3094 -0.3917 -0.0407
 4269SOL    HW118899   6.617   4.045   7.058  0.6103 -0.5794  0.1967
 4269SOL    HW218900   6.490   3.963   7.058  0.0568  0.2574 -1.0458
 4270SOL     OW18901   0.902   8.324   5.650 -0.1386 -0.0171 -0.0812
 4270SOL    HW118902   0.989   8.343   5.686  0.6701 -0.5837 -1.6737
 4270SOL    HW218903   0.889   8.391   5.583  0.3717 -1.6530 -1.8986
 4271SOL     OW18904   6.503   1.638   3.576 -0.1653  0.1917 -0.2240
 4271SOL    HW118905   6.538   1.724   3.553  0.3503 -0.1497 -0.7502
 4271SOL    HW218906   6.410   1.643   3.553  0.0904  0.2579 -1.2983
 4272SOL     OW18907   3.896   3.981   8.957  0.0903 -0.0792 -0.1014
 4272SOL    HW118908   3.924   3.993   8.866 -0.0856 -0.0025 -0.1459
 4272SOL    HW218909   3.959   3.918   8.992  0.4356  0.2331 -0.1438
 4273SOL     OW18910  10.666   8.267   4.269  0.4511  0.0781 -0.2452
 4273SOL    HW118911  10.644   8.347   4.316  0.3430  0.1669 -0.4452
 4273SOL    HW218912  10.759   8.277   4.247  0.3917  0.2314 -0.4298
 4274SOL     OW18913   1.816   2.828   9.847 -0.1740 -0.0705 -0.2871
 4274SOL    HW118914   1.765   2.902   9.813  0.2617 -0.0962 -1.0348
 4274SOL    HW218915   1.754   2.777   9.899 -0.3234  1.1690  0.7975
 4275SOL     OW18916   2.891   3.936   2.753  0.3083 -0.4783 -0.4268
 4275SOL    HW118917   2.902   4.019   2.707  0.6448  0.1699  0.7584
 4275SOL    HW218918   2.832   3.885   2.698  2.8901 -0.8961 -2.9772
 4276SOL     OW18919   4.297   1.785   9.864  0.1282 -0.2462  0.5064
 4276SOL    HW118920   4.360   1.832   9.919 -0.4745 -0.4659  1.3981
 4276SOL    HW218921   4.257   1.853   9.810 -2.6081  0.8028  3.5616
 4277SOL     OW18922   0.451   1.810   9.802  0.6104  0.3748  0.2149
 4277SOL    HW118923   0.369   1.768   9.774  2.1672 -1.5077 -1.9550
 4277SOL    HW218924   0.471   1.769   9.886 -0.5211  0.6629  0.6422
 4278SOL     OW18925   1.799   8.261  10.893  0.6430 -0.1414  0.0066
 4278SOL    HW118926   1.884   8.238  10.931  0.3906 -2.3712 -0.6333
 4278SOL    HW218927   1.815   8.262  10.799  0.5883  2.4374 -0.0460
 4279SOL     OW18928   3.932   1.238   9.361  0.0705 -0.1059  0.3355
 4279SOL    HW118929   3.976   1.322   9.372  0.1975 -0.2148  0.6892
 4279SOL    HW218930   3.988   1.189   9.301  0.1069 -0.0129  0.2936
 4280SOL     OW18931   4.444   1.736   1.718  0.0309  0.4133  0.0105
 4280SOL    HW118932   4.442   1.788   1.637 -0.4037  0.6482  0.1692
 4280SOL    HW218933   4.376   1.670   1.705  0.6274 -0.1626 -0.2180
 4281SOL     OW18934   4.614   8.303   2.101 -0.4180  0.1658 -0.2381
 4281SOL    HW118935   4.537   8.268   2.057 -1.6168  0.1565  1.7434
 4281SOL    HW218936   4.591   8.394   2.121 -0.2722 -0.0754  1.1019
 4282SOL     OW18937   1.832   3.289   7.144  0.6128  0.4685 -0.3558
 4282SOL    HW118938   1.810   3.204   7.106 -1.2395  0.4118  0.7596
 4282SOL    HW218939   1.781   3.352   7.093 -0.6161  0.5488  0.9237
 4283SOL     OW18940   5.770   3.232   6.006 -0.0617  0.5161 -0.3103
 4283SOL    HW118941   5.752   3.224   6.099 -0.3878  1.1032 -0.3181
 4283SOL    HW218942   5.715   3.165   5.965 -0.0663  0.3899 -0.0966
 4284SOL     OW18943  10.074   2.161   5.776  0.2118  0.1332 -0.0819
 4284SOL    HW118944  10.121   2.097   5.721 -0.8535 -0.4879 -0.3036
 4284SOL    HW218945   9.989   2.170   5.734  0.9744  3.2656 -1.2368
 4285SOL     OW18946   3.171   9.797   2.530  0.2113  0.2665  0.1010
 4285SOL    HW118947   3.171   9.840   2.616  0.6218 -0.2710  0.3739
 4285SOL    HW218948   3.092   9.742   2.532  0.1814  0.3089  0.1030
 4286SOL     OW18949   3.868   0.790   4.099  0.8472  0.3638 -0.1352
 4286SOL    HW118950   3.887   0.721   4.036 -1.2976 -0.4792  0.0771
 4286SOL    HW218951   3.954   0.827   4.120  1.8158 -0.7156 -1.9478
 4287SOL     OW18952   2.644   9.004   5.871 -0.1919 -0.1267 -0.0204
 4287SOL    HW118953   2.588   9.020   5.795 -1.5267 -0.5785  0.8353
 4287SOL    HW218954   2.729   8.982   5.834 -0.5243  0.7045 -1.3583
 4288SOL     OW18955   3.117   7.783   4.091 -0.0408  0.0774 -0.2402
 4288SOL    HW118956   3.037   7.742   4.124 -0.0946  1.1989  1.1377
 4288SOL    HW218957   3.121   7.759   3.999 -0.6735 -2.0041  0.2310
 4289SOL     OW18958   1.604   2.775   5.059  0.5365 -0.4086 -0.1047
 4289SOL    HW118959   1.579   2.711   5.126 -1.3233  1.2498  0.8782
 4289SOL    HW218960   1.566   2.739   4.978 -0.6159 -0.5186  0.4584
 4290SOL     OW18961   2.453   0.669   5.777 -0.6191 -0.1270 -0.0645
 4290SOL    HW118962   2.360   0.685   5.760 -0.3989 -0.2839 -1.5166
 4290SOL    HW218963   2.499   0.717   5.708  0.3360 -0.9582 -0.0373
 4291SOL     OW18964   2.756  10.842   4.274 -0.1208 -0.1806 -0.0717
 4291SOL    HW118965   2.809  10.918   4.255 -0.5027  0.7085  2.0752
 4291SOL    HW218966   2.668  10.865   4.244  0.2912 -0.9124 -1.9282
 4292SOL     OW18967   8.446   8.340   4.196  0.5851 -0.2596  0.3441
 4292SOL    HW118968   8.515   8.405   4.185  0.3302  0.0649  0.6135
 4292SOL    HW218969   8.368   8.381   4.159  0.2859 -0.1612  1.0614
 4293SOL     OW18970   5.487   2.836   7.131  0.0009 -0.3844  0.1518
 4293SOL    HW118971   5.417   2.856   7.193 -1.1687  0.2518 -1.3107
 4293SOL    HW218972   5.547   2.910   7.138 -0.2468 -0.2010  0.3543
 4294SOL     OW18973   9.857   8.346   6.151  0.4756 -0.3923  0.3173
 4294SOL    HW118974   9.767   8.376   6.142  0.2424 -1.0691  0.3137
 4294SOL    HW218975   9.883   8.321   6.063  0.7051 -0.1065  0.3019
 4295SOL     OW18976   7.513   0.552   8.991  0.5841  0.4090  0.5455
 4295SOL    HW118977   7.494   0.646   8.993  1.2494  0.5651 -0.1341
 4295SOL    HW218978   7.493   0.522   9.080  0.3843  1.1963  0.7758
 4296SOL     OW18979   1.830   6.225   6.852  0.2529 -0.1564 -0.9550
 4296SOL    HW118980   1.775   6.298   6.879  1.1277  0.4080 -0.6618
 4296SOL    HW218981   1.825   6.225   6.756 -0.9128 -0.6397 -0.9039
 4297SOL     OW18982  10.000   9.966  10.280 -0.4523 -0.6939 -0.2537
 4297SOL    HW118983   9.950  10.001  10.207  1.4107  1.9018 -0.4286
 4297SOL    HW218984  10.075   9.922  10.239  0.1637  0.0659  0.0109
 4298SOL     OW18985   1.068   9.802   0.082  0.3136 -0.3836  0.2083
 4298SOL    HW118986   1.154   9.832   0.109  1.1537 -1.7089 -0.8824
 4298SOL    HW218987   1.061   9.827  -0.010 -1.3470  1.5286  0.7666
 4299SOL     OW18988   3.724   1.635   9.758  0.6597 -0.2464 -0.4980
 4299SOL    HW118989   3.698   1.544   9.775  1.2219 -0.4402 -0.6620
 4299SOL    HW218990   3.813   1.629   9.723  1.3267  0.4706  0.9751
 4300SOL     OW18991   9.978   4.341   5.991  0.4461 -0.5216 -0.6656
 4300SOL    HW118992   9.981   4.306   6.081 -2.0539  0.3678 -0.1513
 4300SOL    HW218993  10.069   4.365   5.972  0.8987  0.2778  2.0604
 4301SOL     OW18994   9.370   5.246   9.625  0.0537  0.3600 -0.1831
 4301SOL    HW118995   9.327   5.331   9.624  0.0902  0.4013  0.8715
 4301SOL    HW218996   9.309   5.189   9.671 -0.1709 -0.3059 -1.2845
 4302SOL     OW18997   1.251   1.889   4.926  0.1290  0.8007 -0.4561
 4302SOL    HW118998   1.206   1.808   4.905 -2.3294  2.2379 -1.0339
 4302SOL    HW218999   1.199   1.958   4.886  2.4892  2.6784 -0.5620
 4303SOL     OW19000   4.989   6.162   0.446 -0.2501  0.0880  0.1886
 4303SOL    HW119001   4.999   6.068   0.457 -0.1550  0.2859  2.1170
 4303SOL    HW219002   4.982   6.196   0.535 -0.9560  1.8377 -0.4938
 4304SOL     OW19003   2.219   6.584   4.146  0.0508  0.6100  0.4908
 4304SOL    HW119004   2.314   6.578   4.155 -0.0360 -2.9806  0.2809
 4304SOL    HW219005   2.190   6.621   4.229  1.4642 -1.6303  2.0942
 4305SOL     OW19006  10.513   2.808   4.954  0.0331 -0.2239  0.2412
 4305SOL    HW119007  10.501   2.766   4.869  1.2813 -1.2499  0.5441
 4305SOL    HW219008  10.427   2.801   4.996 -0.2809 -0.7568 -0.4597
 4306SOL     OW19009   5.607   6.303   0.100 -0.0699  0.2744  0.5060
 4306SOL    HW119010   5.523   6.346   0.111 -0.1846 -0.2239  1.8288
 4306SOL    HW219011   5.657   6.361   0.042 -0.3958  1.9197  1.7940
 4307SOL     OW19012   8.837   2.297   1.346  0.2901 -0.9285 -0.1544
 4307SOL    HW119013   8.758   2.300   1.400  1.0951 -0.4702  1.0574
 4307SOL    HW219014   8.812   2.339   1.263 -0.1102  1.5375  1.1051
 4308SOL     OW19015  10.739   8.022   4.170 -0.3869 -0.1256  0.5848
 4308SOL    HW119016  10.650   8.019   4.135  0.4896  1.4381 -2.1055
 4308SOL    HW219017  10.738   8.098   4.229 -0.1766  2.0716 -2.0053
 4309SOL     OW19018   5.113   1.112   1.601  0.2588 -0.0436  0.0059
 4309SOL    HW119019   5.147   1.072   1.681  2.5048 -2.5938 -2.0273
 4309SOL    HW219020   5.041   1.055   1.575 -0.3451  0.6719  0.0721
 4310SOL     OW19021   8.592   9.546   9.086  0.3124 -0.1048 -0.3902
 4310SOL    HW119022   8.632   9.579   9.167 -0.2791 -0.5324  0.0924
 4310SOL    HW219023   8.599   9.450   9.094  0.6704 -0.1365 -1.0663
 4311SOL     OW19024   2.056   8.050   3.056 -0.2494  0.0502  0.4631
 4311SOL    HW119025   2.112   8.124   3.035  0.1788 -0.5474 -0.5481
 4311SOL    HW219026   1.987   8.088   3.111 -0.6915  1.4444 -0.9661
 4312SOL     OW19027   6.706   1.256   6.714 -0.4030 -0.4770  0.1393
 4312SOL    HW119028   6.635   1.287   6.657 -0.5503 -0.6424  0.2322
 4312SOL    HW219029   6.729   1.332   6.767 -0.3226 -0.3447 -0.0825
 4313SOL     OW19030  10.797   6.205  10.507  0.1792  0.6926 -0.6209
 4313SOL    HW119031  10.792   6.226  10.414  0.8216 -0.3824 -0.9160
 4313SOL    HW219032  10.773   6.112  10.511  1.1749  0.4591  0.1550
 4314SOL     OW19033   7.907   8.233   4.838 -0.5979  0.0869 -0.3028
 4314SOL    HW119034   7.975   8.183   4.794  0.3846  0.4877  0.7163
 4314SOL    HW219035   7.935   8.237   4.930 -2.0531  0.1629  0.1635
 4315SOL     OW19036   8.026   9.564   4.955 -0.3547 -0.1090 -0.1873
 4315SOL    HW119037   7.997   9.573   4.865  0.6350  2.0613 -0.3474
 4315SOL    HW219038   7.947   9.576   5.008 -0.3852  2.4174 -0.6969
 4316SOL     OW19039   2.594   8.454   9.713  0.1910  0.3051  0.1764
 4316SOL    HW119040   2.659   8.423   9.650 -1.1849 -1.6842 -0.3848
 4316SOL    HW219041   2.530   8.501   9.660  1.4484  2.9092  0.8240
 4317SOL     OW19042   3.634   8.333   2.248  0.5938 -0.1779 -0.2800
 4317SOL    HW119043   3.637   8.423   2.281  0.2605 -0.9620  2.1307
 4317SOL    HW219044   3.554   8.330   2.195  0.6138  0.9446 -0.4065
 4318SOL     OW19045   2.887   7.958   8.804 -0.5363 -0.0144 -0.4128
 4318SOL    HW119046   2.835   7.961   8.885 -0.8467 -3.0636 -0.4052
 4318SOL    HW219047   2.825   7.930   8.737  0.5710 -1.3784 -0.8897
 4319SOL     OW19048   5.877   5.075   9.069  0.6264  0.3396  0.1786
 4319SOL    HW119049   5.882   5.164   9.035 -1.1728  0.3590 -0.1504
 4319SOL    HW219050   5.788   5.068   9.104  0.7013 -1.3569  0.1047
 4320SOL     OW19051   5.311   5.690   4.496  0.2231 -0.1574  0.2245
 4320SOL    HW119052   5.378   5.628   4.468 -1.1639 -1.7802  0.3180
 4320SOL    HW219053   5.357   5.752   4.552  1.9965 -0.0353 -1.2899
 4321SOL     OW19054   0.997   1.182   4.739  0.2887 -0.7556  0.0684
 4321SOL    HW119055   0.950   1.191   4.822  0.0610 -1.1009 -0.0204
 4321SOL    HW219056   1.050   1.103   4.750  0.1617 -0.8742 -0.1608
 4322SOL     OW19057   7.912   2.350   6.107  0.5044 -0.1704 -0.2198
 4322SOL    HW119058   7.837   2.395   6.146  2.1183  0.3762  2.4808
 4322SOL    HW219059   7.895   2.257   6.122  0.2883 -0.0584  0.2439
 4323SOL     OW19060   0.634   5.520   0.980  0.3650 -0.3324 -0.3150
 4323SOL    HW119061   0.598   5.436   1.009  0.1213  0.1863  0.9554
 4323SOL    HW219062   0.719   5.497   0.941 -0.2217 -1.2888 -1.0811
 4324SOL     OW19063   3.336   4.631   0.683  0.1630  0.3210 -0.5323
 4324SOL    HW119064   3.304   4.622   0.593 -0.1202  1.0828 -0.5193
 4324SOL    HW219065   3.398   4.704   0.679 -0.6160  1.0417  0.0649
 4325SOL     OW19066   8.378   1.544   6.977 -0.4738  0.3516  0.0585
 4325SOL    HW119067   8.457   1.597   6.990 -0.3088  0.4445 -1.1976
 4325SOL    HW219068   8.308   1.594   7.019  0.2116 -0.0530  1.7969
 4326SOL     OW19069   1.432  10.798   2.887  0.2787 -0.5910 -0.0089
 4326SOL    HW119070   1.471  10.791   2.975 -1.3016 -1.3930  0.6739
 4326SOL    HW219071   1.340  10.818   2.903  0.1916  0.3733 -1.5458
 4327SOL     OW19072   0.846   4.466   1.122 -0.4839 -0.2090 -0.1036
 4327SOL    HW119073   0.922   4.525   1.119 -0.6139 -0.0876 -1.6601
 4327SOL    HW219074   0.808   4.471   1.035 -1.2556 -1.6301  0.1181
 4328SOL     OW19075   4.856  10.403   4.178  0.1508  0.1245  0.1647
 4328SOL    HW119076   4.903  10.320   4.181 -0.1264 -0.0072  1.6243
 4328SOL    HW219077   4.836  10.416   4.085  2.1294 -0.3250 -0.3698
 4329SOL     OW19078   7.698   2.349   7.784 -0.0046  0.3124 -0.4597
 4329SOL    HW119079   7.620   2.370   7.733 -0.2880 -0.8821 -0.5520
 4329SOL    HW219080   7.755   2.425   7.773 -1.4435  1.5424  0.2201
 4330SOL     OW19081   5.349   9.297   5.869  0.4003 -0.0330 -0.6427
 4330SOL    HW119082   5.273   9.240   5.878  0.2526  0.2603  0.0011
 4330SOL    HW219083   5.313   9.377   5.829 -0.3450  1.4615  2.6672
 4331SOL     OW19084   4.081   4.237   5.638 -0.1100 -0.2129  0.1119
 4331SOL    HW119085   3.993   4.203   5.652 -0.5192  0.8431  0.1590
 4331SOL    HW219086   4.138   4.160   5.646 -1.1213 -1.1332 -1.1710
 4332SOL     OW19087   0.323   8.817   5.776  0.1042 -0.2916 -0.4243
 4332SOL    HW119088   0.234   8.786   5.758  0.2310 -0.1712 -1.3464
 4332SOL    HW219089   0.317   8.912   5.763  0.3682 -0.2850 -0.4893
 4333SOL     OW19090   4.029   9.613   2.128 -0.2866 -0.7579 -0.9962
 4333SOL    HW119091   3.989   9.550   2.188  1.2630 -1.4855 -0.6774
 4333SOL    HW219092   4.008   9.579   2.041 -0.1865 -1.2411 -0.8359
 4334SOL     OW19093  10.329   4.065   9.475  0.4694  0.0806  0.1907
 4334SOL    HW119094  10.399   4.119   9.512 -1.1626  1.7763  0.9609
 4334SOL    HW219095  10.300   4.114   9.397  1.3857 -1.5805 -1.2485
 4335SOL     OW19096   9.644   5.971   8.048 -0.2671 -0.0273  0.3236
 4335SOL    HW119097   9.699   6.006   8.118 -0.8643 -0.7382  1.1723
 4335SOL    HW219098   9.682   6.006   7.967  0.4069  0.8430  1.0015
 4336SOL     OW19099   6.118   0.650   1.802  0.4069  0.1094  0.0341
 4336SOL    HW119100   6.036   0.677   1.842  0.5573  0.9037 -0.1773
 4336SOL    HW219101   6.147   0.727   1.752  0.7543 -0.5037 -0.7321
 4337SOL     OW19102   7.616   1.497   1.632  0.0469 -0.3745 -0.2160
 4337SOL    HW119103   7.640   1.521   1.722 -1.0535 -2.5870  0.7403
 4337SOL    HW219104   7.617   1.402   1.632  0.3916 -0.4126 -2.6954
 4338SOL     OW19105   3.081   6.314  10.625  0.0685 -0.0217 -0.3783
 4338SOL    HW119106   3.140   6.257  10.576  0.4901  0.6321 -0.6429
 4338SOL    HW219107   3.010   6.334  10.564  0.2955  0.3195 -0.5363
 4339SOL     OW19108   1.028   4.048   8.237 -0.2582 -0.4040 -0.5970
 4339SOL    HW119109   0.952   3.997   8.209  0.2670 -1.0477 -0.8721
 4339SOL    HW219110   1.048   4.104   8.163 -1.2878  0.7759 -0.0300
 4340SOL     OW19111   5.479   2.276   6.241  0.0890  0.0488  0.1072
 4340SOL    HW119112   5.456   2.186   6.219 -2.0984  0.5873 -0.1302
 4340SOL    HW219113   5.459   2.284   6.334 -0.0342  0.3673  0.0564
 4341SOL     OW19114   6.702   2.149   4.807 -0.2782  0.4603  0.4932
 4341SOL    HW119115   6.783   2.197   4.824 -0.2042  0.1680  0.9691
 4341SOL    HW219116   6.678   2.175   4.718  0.7677 -0.0468  0.0401
 4342SOL     OW19117   0.844  10.884   4.069 -0.1811  0.5057  0.0713
 4342SOL    HW119118   0.887  10.887   4.154  0.0378  0.2246 -0.0271
 4342SOL    HW219119   0.800  10.969   4.061  1.3176  1.2797 -0.3238
 4343SOL     OW19120   0.739  10.072   0.221  0.3937 -0.8079 -0.2191
 4343SOL    HW119121   0.722  10.072   0.127 -0.0744  0.0290 -0.1500
 4343SOL    HW219122   0.683  10.142   0.255  0.6130 -1.0535  0.6704
 4344SOL     OW19123   7.278   8.748   9.825  0.5251  0.6973 -0.1117
 4344SOL    HW119124   7.369   8.721   9.807  1.2500  2.7118  0.2839
 4344SOL    HW219125   7.287   8.832   9.870 -1.5771  2.1051 -2.1041
 4345SOL     OW19126   3.756   4.251   5.620 -0.4711 -0.1435  0.7655
 4345SOL    HW119127   3.780   4.273   5.710 -2.5824 -0.9848  1.5801
 4345SOL    HW219128   3.797   4.321   5.567  0.2457  0.7388  2.4116
 4346SOL     OW19129   9.261   7.816   8.636 -0.1725 -0.4750  0.3686
 4346SOL    HW119130   9.254   7.911   8.632  0.8841 -0.4168 -0.8568
 4346SOL    HW219131   9.283   7.797   8.727  0.0173  0.4736  0.5297
 4347SOL     OW19132   3.713   9.874   0.073  0.1661  0.3452 -0.5746
 4347SOL    HW119133   3.654   9.872   0.148 -0.8656  0.6800 -1.3501
 4347SOL    HW219134   3.775   9.944   0.094 -0.6833  1.0833 -0.4175
 4348SOL     OW19135   2.939   9.727   0.565  0.4399  0.7989 -0.0263
 4348SOL    HW119136   2.951   9.660   0.498 -0.4752 -0.3095  0.8759
 4348SOL    HW219137   3.014   9.714   0.624  0.2595  0.5643  0.1516
 4349SOL     OW19138   4.206   5.362   3.167 -0.1439 -0.5623 -0.2089
 4349SOL    HW119139   4.174   5.301   3.233 -1.4309  1.3591  1.0263
 4349SOL    HW219140   4.301   5.366   3.182 -0.1100 -1.8389  0.0046
 4350SOL     OW19141   1.954   6.786   9.513  0.1688  0.1061 -0.7028
 4350SOL    HW119142   2.018   6.794   9.584  1.5912 -0.1294 -1.9096
 4350SOL    HW219143   1.898   6.713   9.541  1.3088 -0.6394 -0.2503
 4351SOL     OW19144   2.538   1.271   5.344 -0.1561 -0.0816 -0.4525
 4351SOL    HW119145   2.476   1.338   5.374 -1.2820 -0.7690 -1.1813
 4351SOL    HW219146   2.624   1.303   5.374 -0.5470  2.0649 -1.4519
 4352SOL     OW19147  10.275   2.536   4.196 -1.0070 -1.0720  0.0594
 4352SOL    HW119148  10.345   2.601   4.196 -0.0120 -2.0910 -0.8572
 4352SOL    HW219149  10.195   2.586   4.183 -0.4106  0.0677  0.6095
 4353SOL     OW19150   7.507   2.919   9.188 -0.2402  0.1289 -0.6000
 4353SOL    HW119151   7.478   2.949   9.275 -0.2528 -1.2373 -0.0958
 4353SOL    HW219152   7.565   2.845   9.207  0.9608  0.7398 -1.7269
 4354SOL     OW19153   1.713   5.887   0.012  0.7118 -0.0520  0.3360
 4354SOL    HW119154   1.707   5.916  -0.079  0.0843  0.9197  0.6793
 4354SOL    HW219155   1.784   5.822   0.011  1.5323  0.8129 -0.6221
 4355SOL     OW19156   1.954   7.850   8.986  0.0349 -0.7701  0.0220
 4355SOL    HW119157   1.939   7.756   8.995  1.0052 -1.0604 -1.1505
 4355SOL    HW219158   1.906   7.875   8.908  1.2585 -0.6767 -0.7286
 4356SOL     OW19159   6.221   6.097   9.980  0.2314 -0.3291  0.0991
 4356SOL    HW119160   6.164   6.020   9.979  3.2828 -2.7538  0.7694
 4356SOL    HW219161   6.294   6.074   9.923  1.9945  1.4628  1.5161
 4357SOL     OW19162   5.277   0.487   6.127 -0.0359 -0.2892 -0.3341
 4357SOL    HW119163   5.195   0.471   6.079 -1.1627  0.6236  1.1846
 4357SOL    HW219164   5.282   0.415   6.190  0.9981 -1.0222 -1.2292
 4358SOL     OW19165   6.352   3.257   9.712  0.5425 -0.8649  0.6311
 4358SOL    HW119166   6.388   3.261   9.800  1.6599  0.3703  0.1637
 4358SOL    HW219167   6.410   3.196   9.665 -0.6829 -2.3538  0.9951
 4359SOL     OW19168   2.666   1.946   3.932  0.6068 -0.2397 -0.1747
 4359SOL    HW119169   2.720   1.975   3.859  0.0152 -1.6806 -1.2371
 4359SOL    HW219170   2.633   2.027   3.971  2.4263  0.6175 -0.3252
 4360SOL     OW19171   1.894   4.120  10.267  0.0758 -0.1633  0.6149
 4360SOL    HW119172   1.950   4.174  10.212 -1.6242  0.7984 -0.2541
 4360SOL    HW219173   1.874   4.176  10.342 -2.6026  1.0029 -0.8166
 4361SOL     OW19174   0.733   0.136   1.203  0.1553 -0.2598 -0.0336
 4361SOL    HW119175   0.732   0.230   1.184  2.0252 -0.1873  0.0292
 4361SOL    HW219176   0.713   0.131   1.297  0.1423  0.0924 -0.0151
 4362SOL     OW19177   5.798   7.978   4.769 -0.4341 -0.4699 -0.0947
 4362SOL    HW119178   5.739   8.044   4.805 -2.4854 -1.1408 -1.9745
 4362SOL    HW219179   5.876   8.027   4.743 -0.5793  0.6393  1.4080
 4363SOL     OW19180   2.658   0.268   6.135 -0.6878  0.1614 -0.4139
 4363SOL    HW119181   2.722   0.310   6.194 -1.4676 -0.3367  0.8389
 4363SOL    HW219182   2.682   0.299   6.048 -0.2655  1.9580  0.2884
 4364SOL     OW19183   1.730   9.785   0.322 -0.0760  0.5011 -0.4924
 4364SOL    HW119184   1.738   9.821   0.410  0.0559  1.6688 -0.9577
 4364SOL    HW219185   1.658   9.723   0.327 -1.2278  1.8471  0.0400
 4365SOL     OW19186   0.609   3.439   0.828 -0.7361 -0.3193 -0.1214
 4365SOL    HW119187   0.535   3.463   0.771 -0.0925  0.8407 -0.5047
 4365SOL    HW219188   0.569   3.388   0.898 -2.5090  2.8985  1.4716
 4366SOL     OW19189   6.605   7.832   3.200  0.3457  0.0998 -0.3920
 4366SOL    HW119190   6.668   7.761   3.192 -0.1869 -0.5303  0.7554
 4366SOL    HW219191   6.636   7.885   3.273 -0.5509 -0.3417  0.3300
 4367SOL     OW19192   7.306   6.448   2.909  0.2979 -0.0637  0.3174
 4367SOL    HW119193   7.392   6.405   2.910  0.2011 -0.3270 -0.7553
 4367SOL    HW219194   7.325   6.541   2.900  0.4814 -0.0366  0.9588
 4368SOL     OW19195   2.689   1.231   1.715 -0.6885  0.3390  0.2378
 4368SOL    HW119196   2.611   1.218   1.660  0.3891  0.0283 -1.3012
 4368SOL    HW219197   2.747   1.285   1.661  1.3087 -1.7705  0.1289
 4369SOL     OW19198   4.271   1.171   8.963 -0.0527 -0.2703  0.7526
 4369SOL    HW119199   4.343   1.196   9.021  0.8077 -0.8373 -0.0611
 4369SOL    HW219200   4.312   1.120   8.893 -1.5245 -2.8229  1.5910
 4370SOL     OW19201   1.908   5.355   8.703 -0.3103 -0.0882 -0.4875
 4370SOL    HW119202   1.873   5.286   8.646  1.1287 -1.0149 -0.2860
 4370SOL    HW219203   1.870   5.436   8.668  0.5367 -0.6097 -2.8116
 4371SOL     OW19204   2.013   5.418   3.938 -0.2277 -0.0648  0.0723
 4371SOL    HW119205   2.050   5.457   4.016  2.3544  0.0377 -1.0961
 4371SOL    HW219206   1.940   5.475   3.913 -0.0810  0.7666  1.5018
 4372SOL     OW19207   3.782   8.748   5.451 -0.3183 -0.0760 -0.3836
 4372SOL    HW119208   3.756   8.727   5.361 -0.2689  1.8952 -0.8896
 4372SOL    HW219209   3.813   8.838   5.447  1.3910 -0.5286  1.2876
 4373SOL     OW19210   0.533   5.524  10.729 -0.0393 -0.0639  0.3608
 4373SOL    HW119211   0.619   5.567  10.724 -0.0813  0.0894  0.8646
 4373SOL    HW219212   0.527   5.495  10.820 -1.7663  2.5395  1.2000
 4374SOL     OW19213   3.501   2.107   0.033 -0.3458  0.3441 -0.3607
 4374SOL    HW119214   3.433   2.039   0.036 -0.8479  0.8425  1.9051
 4374SOL    HW219215   3.582   2.060   0.014 -0.4504 -1.1896  2.4776
 4375SOL     OW19216   1.896   0.985   8.031 -0.0052 -0.5316 -0.4012
 4375SOL    HW119217   1.853   1.054   7.979 -1.9593 -0.8539  0.7207
 4375SOL    HW219218   1.864   0.903   7.993 -1.7304 -0.7749  1.4374
 4376SOL     OW19219   8.659   9.017   2.312 -0.3889 -0.1881  0.1474
 4376SOL    HW119220   8.668   9.074   2.235 -0.8320  0.1013  0.3082
 4376SOL    HW219221   8.564   9.005   2.322 -0.5096  1.6487  2.0023
 4377SOL     OW19222   8.967   7.508   7.415 -0.0791  0.0103 -0.6173
 4377SOL    HW119223   8.998   7.533   7.327 -0.2801  0.6615 -0.5101
 4377SOL    HW219224   8.912   7.431   7.400 -1.7629  1.2894 -1.3469
 4378SOL     OW19225   9.854   8.361  10.609 -0.6324  0.4606  0.1683
 4378SOL    HW119226   9.761   8.364  10.587 -0.5695  1.4763 -0.0382
 4378SOL    HW219227   9.870   8.444  10.655 -0.0883 -0.2392  1.2762
 4379SOL     OW19228   6.676   7.472   7.552 -0.3723  0.4794  0.5340
 4379SOL    HW119229   6.663   7.549   7.607 -2.1636  1.1022 -0.6757
 4379SOL    HW219230   6.651   7.398   7.607 -0.8175  0.9648  0.9916
 4380SOL     OW19231   4.301   8.009   2.978  0.1474 -0.2087  0.4863
 4380SOL    HW119232   4.330   8.016   2.887  1.7693  0.5057  1.0157
 4380SOL    HW219233   4.303   7.915   2.996 -1.0366 -0.4355 -0.4497
 4381SOL     OW19234   7.836   5.057   0.040  0.4996 -0.5653  0.0815
 4381SOL    HW119235   7.787   5.029   0.117 -1.0555  0.5482 -0.4590
 4381SOL    HW219236   7.865   5.146   0.060  1.1118 -0.7038 -0.1623
 4382SOL     OW19237   6.768   7.058   6.327  0.1057 -0.0879  0.3040
 4382SOL    HW119238   6.773   6.971   6.287 -1.0974 -0.3595  0.7050
 4382SOL    HW219239   6.849   7.067   6.377  1.4530  0.0731 -1.7755
 4383SOL     OW19240   1.367   4.981   1.260 -0.2231  0.3812  0.2717
 4383SOL    HW119241   1.445   5.026   1.227 -0.0370  0.6120  1.0049
 4383SOL    HW219242   1.298   5.005   1.199  0.0615  1.0013  0.1791
 4384SOL     OW19243   9.393   3.997   5.893  0.0652 -0.3183  0.5247
 4384SOL    HW119244   9.374   3.957   5.808 -1.6232  0.4920  0.4894
 4384SOL    HW219245   9.467   4.055   5.876  0.8364 -1.4190  0.0019
 4385SOL     OW19246   1.433   0.880   3.137  0.2990  0.2628 -0.3838
 4385SOL    HW119247   1.423   0.898   3.043 -1.0421 -1.5576 -0.6559
 4385SOL    HW219248   1.516   0.832   3.143 -0.2977 -0.8707 -0.8814
 4386SOL     OW19249   2.391  10.461   3.144 -0.9351  0.3941  0.3460
 4386SOL    HW119250   2.476  10.505   3.142 -1.3971  1.3124 -0.0519
 4386SOL    HW219251   2.410  10.369   3.124 -0.1922  0.8858 -1.4546
 4387SOL     OW19252   4.923   6.649   0.767 -0.4422  0.4819  0.1772
 4387SOL    HW119253   4.936   6.680   0.857  1.1489 -1.3734  0.6510
 4387SOL    HW219254   5.005   6.668   0.722 -0.4547 -0.4478 -0.2829
 4388SOL     OW19255  10.024   7.649   4.848 -0.1996 -0.2870 -0.0554
 4388SOL    HW119256  10.040   7.556   4.831 -1.1170 -0.7692  1.5090
 4388SOL    HW219257   9.988   7.652   4.936 -0.0776  1.5861 -0.0172
 4389SOL     OW19258   4.517   5.975   7.835 -0.3822 -0.3022 -0.1591
 4389SOL    HW119259   4.533   5.888   7.873 -0.4691  0.2346  1.1681
 4389SOL    HW219260   4.579   5.982   7.763 -0.4735 -1.5192 -0.3784
 4390SOL     OW19261   6.574   0.060   6.787  0.0964  0.6084 -0.0384
 4390SOL    HW119262   6.495   0.071   6.733  0.5653 -1.8347 -1.3332
 4390SOL    HW219263   6.645   0.096   6.734  0.5393 -1.6880 -1.1081
 4391SOL     OW19264   1.291   7.273   8.612  0.1149  0.0480  0.0912
 4391SOL    HW119265   1.203   7.294   8.581 -0.9971 -0.7190  2.4888
 4391SOL    HW219266   1.336   7.237   8.535 -1.3697  1.1722 -1.3782
 4392SOL     OW19267   5.657   1.872   8.185  0.1472 -0.4442 -0.9949
 4392SOL    HW119268   5.728   1.872   8.122 -0.5922 -2.6790 -1.8943
 4392SOL    HW219269   5.587   1.923   8.143  1.0635  1.6479 -0.1604
 4393SOL     OW19270  10.666   0.478   4.261  0.0016  0.2393 -0.2520
 4393SOL    HW119271  10.600   0.482   4.191 -0.1118  0.0260 -0.1590
 4393SOL    HW219272  10.616   0.487   4.342  0.1448  0.5995 -0.2000
 4394SOL     OW19273   3.534   0.183   0.448 -0.2443  0.6170  0.1168
 4394SOL    HW119274   3.602   0.250   0.438 -0.7000  1.4247  1.9981
 4394SOL    HW219275   3.580   0.108   0.486  0.3099 -0.2990 -2.1873
 4395SOL     OW19276   7.188   6.095   0.883 -0.0134 -0.1997 -0.5878
 4395SOL    HW119277   7.161   6.181   0.915  1.3994  0.4387 -1.0283
 4395SOL    HW219278   7.140   6.033   0.937 -0.6729  0.8708  0.0782
 4396SOL     OW19279   4.389   0.888   3.409 -0.0977 -0.4800 -0.3304
 4396SOL    HW119280   4.475   0.882   3.368 -0.3426 -1.9532 -0.7022
 4396SOL    HW219281   4.349   0.802   3.392 -1.1642 -0.2455  0.8838
 4397SOL     OW19282   0.360   1.889   5.896 -0.3001  0.0661 -0.1142
 4397SOL    HW119283   0.319   1.804   5.913 -1.9989  1.0403  0.9308
 4397SOL    HW219284   0.447   1.867   5.861 -0.8152 -2.0806 -0.1941
 4398SOL     OW19285   0.209   9.677   8.609 -0.2323 -0.0729  0.1611
 4398SOL    HW119286   0.177   9.765   8.590 -1.1645 -0.5883 -0.8024
 4398SOL    HW219287   0.300   9.689   8.637  0.1783  1.0820 -1.4955
 4399SOL     OW19288   5.754   0.401   7.670  0.6892  0.0356  0.0200
 4399SOL    HW119289   5.718   0.427   7.585  0.1760  1.1378  0.5555
 4399SOL    HW219290   5.712   0.317   7.689 -1.8015  1.3496  0.7111
 4400SOL     OW19291   1.279   0.822   0.135  0.1241 -0.3170  0.0908
 4400SOL    HW119292   1.241   0.908   0.152 -1.1539 -1.0793  1.2728
 4400SOL    HW219293   1.356   0.818   0.191 -0.4105 -0.3237  0.8462
 4401SOL     OW19294   2.563   9.269   9.789  0.4473 -0.2181  0.6626
 4401SOL    HW119295   2.473   9.279   9.818  0.3328 -1.5483  0.8409
 4401SOL    HW219296   2.611   9.247   9.869  1.2807  2.2291  0.8964
 4402SOL     OW19297   0.913   7.586   7.883  0.2272  0.6381 -0.5109
 4402SOL    HW119298   0.884   7.667   7.842  0.5737  0.2964 -1.4734
 4402SOL    HW219299   0.897   7.599   7.977 -0.2169  1.5989 -0.7052
 4403SOL     OW19300   8.680   4.219  10.311  0.0061  0.2250  0.0027
 4403SOL    HW119301   8.717   4.304  10.334  0.3998  0.2321 -0.6316
 4403SOL    HW219302   8.639   4.233  10.227  0.1432 -0.2310 -0.1424
 4404SOL     OW19303   1.433  10.134   6.122 -0.1875 -0.0824 -0.1806
 4404SOL    HW119304   1.499  10.168   6.182 -1.3957 -0.2838  1.3040
 4404SOL    HW219305   1.480  10.068   6.070  1.7469  2.4707 -1.9223
 4405SOL     OW19306   4.849   0.708   3.844 -0.2908  0.0245 -0.2287
 4405SOL    HW119307   4.822   0.641   3.907  0.8342  0.0535  0.2959
 4405SOL    HW219308   4.777   0.771   3.845  0.1106  0.5249  1.7719
 4406SOL     OW19309   0.083   8.032   1.410 -0.4911  0.0783 -0.2600
 4406SOL    HW119310   0.058   8.038   1.502  0.7206 -0.3488  0.1172
 4406SOL    HW219311   0.098   7.938   1.395 -0.0737  0.2144 -0.7225
 4407SOL     OW19312   1.504   9.076   7.430 -0.2335  0.6381 -0.2295
 4407SOL    HW119313   1.517   9.079   7.524 -1.3785  0.8618 -0.0649
 4407SOL    HW219314   1.559   9.147   7.396  1.8663 -0.7922  0.0273
 4408SOL     OW19315   5.183   8.169   0.106 -0.0530  0.3561 -0.3521
 4408SOL    HW119316   5.170   8.191   0.013  0.2210 -1.1651 -0.7771
 4408SOL    HW219317   5.230   8.245   0.142 -0.1780  0.9766 -1.4431
 4409SOL     OW19318   6.160   6.165   2.602  0.4816 -0.0491  0.1120
 4409SOL    HW119319   6.129   6.082   2.637 -0.6543  0.5281  0.5396
 4409SOL    HW219320   6.080   6.216   2.587  0.9943  0.1912 -2.1935
 4410SOL     OW19321   9.166   5.696   8.066  0.3440 -0.1096 -0.4848
 4410SOL    HW119322   9.211   5.733   8.142 -1.7068 -0.0783  0.7784
 4410SOL    HW219323   9.115   5.623   8.101 -2.8447  1.5904 -1.2497
 4411SOL     OW19324   0.026   9.098   2.140 -0.7648  0.6131  0.4333
 4411SOL    HW119325   0.045   9.071   2.230 -0.7063 -2.2830 -0.3617
 4411SOL    HW219326  -0.067   9.079   2.128 -0.8871  1.4304  0.0009
 4412SOL     OW19327   5.971   8.538  10.361  0.3602 -0.4430  0.0605
 4412SOL    HW119328   5.890   8.487  10.360 -0.1298  0.3199 -0.2376
 4412SOL    HW219329   6.023   8.503  10.289 -0.2145 -0.1472 -0.5056
 4413SOL     OW19330   6.997   6.365   3.668 -0.0260  0.0287  0.7952
 4413SOL    HW119331   7.077   6.403   3.702  2.3660 -3.6324 -0.1805
 4413SOL    HW219332   6.981   6.412   3.586  2.0138 -0.0732  0.2819
 4414SOL     OW19333   5.333   5.663   3.671  0.3640  0.1966 -0.3965
 4414SOL    HW119334   5.423   5.695   3.671  0.4596 -0.0701 -0.4319
 4414SOL    HW219335   5.287   5.721   3.732  0.9022 -0.6176  0.8196
 4415SOL     OW19336   7.484   7.895  10.518  0.2345 -0.3157 -0.1164
 4415SOL    HW119337   7.508   7.898  10.425 -1.0555  1.3198 -0.4293
 4415SOL    HW219338   7.454   7.983  10.538 -0.4633 -0.9134  1.6086
 4416SOL     OW19339   1.725   1.284   7.668 -0.2729 -0.5788  0.4292
 4416SOL    HW119340   1.721   1.377   7.691  1.2352 -0.1142 -1.0361
 4416SOL    HW219341   1.676   1.278   7.586 -1.5917 -1.3693  1.2393
 4417SOL     OW19342   9.085  10.093   4.442 -0.3846 -0.2709 -0.2914
 4417SOL    HW119343   9.008  10.067   4.391 -0.0946 -1.1049 -0.3266
 4417SOL    HW219344   9.050  10.133   4.521 -0.8533 -0.3389 -0.4624
 4418SOL     OW19345   0.751   7.633   8.103 -0.0390  0.5179 -0.2743
 4418SOL    HW119346   0.745   7.648   8.198  0.5680  0.3224 -0.1968
 4418SOL    HW219347   0.706   7.549   8.090  1.9505 -0.7142  0.2239
 4419SOL     OW19348   4.902   7.574   2.018 -0.1708  0.3253  0.3160
 4419SOL    HW119349   4.972   7.523   1.977 -2.5257 -2.4057 -0.5938
 4419SOL    HW219350   4.875   7.636   1.950 -0.1290 -0.1379 -0.1265
 4420SOL     OW19351   5.705   6.741   7.403  0.1231 -0.0488  0.1343
 4420SOL    HW119352   5.638   6.769   7.466  0.5367  1.3735 -0.0202
 4420SOL    HW219353   5.669   6.662   7.362 -0.1854 -0.9899  2.1013
 4421SOL     OW19354   5.708   1.521   0.517 -0.1166  0.3590  0.0886
 4421SOL    HW119355   5.765   1.527   0.440 -0.6696 -0.6128 -0.4265
 4421SOL    HW219356   5.682   1.428   0.520 -2.7868  0.9931 -0.5464
 4422SOL     OW19357   2.233   1.415   1.446  0.3098  0.0682  0.1256
 4422SOL    HW119358   2.172   1.364   1.392 -1.4574  2.6887 -0.5411
 4422SOL    HW219359   2.212   1.389   1.536 -0.5215 -0.4156 -0.1917
 4423SOL     OW19360   6.256   3.121   2.653 -0.4412  0.6785  0.0863
 4423SOL    HW119361   6.320   3.106   2.723  0.4659  0.8632 -0.6785
 4423SOL    HW219362   6.172   3.098   2.693  0.1091  0.2560  1.0689
 4424SOL     OW19363   5.234   9.457   0.404 -0.1537  0.3022  1.1960
 4424SOL    HW119364   5.298   9.432   0.471  0.8097  2.4758  1.1699
 4424SOL    HW219365   5.244   9.552   0.395 -2.5828  0.5489  0.3259
 4425SOL     OW19366   8.369   2.075   5.868  0.2105  0.0885  0.2804
 4425SOL    HW119367   8.399   1.996   5.824  2.1043  0.2347  1.2000
 4425SOL    HW219368   8.399   2.147   5.812 -1.2905  0.2047 -0.4276
 4426SOL     OW19369   0.436   0.726   9.272 -0.5430  0.9221  0.1226
 4426SOL    HW119370   0.368   0.776   9.226 -1.9948 -0.7047  0.3661
 4426SOL    HW219371   0.516   0.776   9.259 -1.9386  3.4248  0.6206
 4427SOL     OW19372   8.291   6.097   0.048 -0.0903  0.4672  0.2262
 4427SOL    HW119373   8.265   6.176  -0.001 -1.5395  0.0164  0.2422
 4427SOL    HW219374   8.212   6.070   0.094  0.8325 -0.0537  1.5686
 4428SOL     OW19375   5.400   3.807   6.226 -0.1295  0.1932  0.3227
 4428SOL    HW119376   5.428   3.819   6.317  0.2967  0.8294  0.1108
 4428SOL    HW219377   5.390   3.896   6.192  2.1626  0.0080 -1.0066
 4429SOL     OW19378   0.528   9.763   0.216 -0.4423  0.3695 -0.1945
 4429SOL    HW119379   0.540   9.754   0.311 -0.8374  1.0579 -0.0728
 4429SOL    HW219380   0.611   9.732   0.179 -0.8957 -1.5204  0.2734
 4430SOL     OW19381   6.278   2.608   4.451 -0.6424  0.0851 -0.1308
 4430SOL    HW119382   6.340   2.578   4.384  0.0074  3.0556 -0.9961
 4430SOL    HW219383   6.315   2.577   4.533  0.7316 -0.2092 -0.8276
 4431SOL     OW19384  10.179   1.170   3.994  0.1362 -0.2643 -0.1517
 4431SOL    HW119385  10.245   1.206   3.934  0.9701 -0.4177  0.6616
 4431SOL    HW219386  10.097   1.175   3.944  0.1487  2.9220 -0.0813
 4432SOL     OW19387  10.538   0.154   9.040  0.1039  0.1066  0.3636
 4432SOL    HW119388  10.496   0.081   8.993  2.3028 -1.9795  1.3662
 4432SOL    HW219389  10.496   0.156   9.125  0.2332 -0.2524  0.4423
 4433SOL     OW19390   0.116   3.942   8.717  0.4906 -0.3066  0.2836
 4433SOL    HW119391   0.210   3.928   8.703  0.2272 -0.5371 -1.4467
 4433SOL    HW219392   0.094   4.015   8.659 -0.2993  0.1464  1.1269
 4434SOL     OW19393   2.020   1.961   7.832 -0.8299  0.2280  0.3268
 4434SOL    HW119394   2.023   2.057   7.832 -0.8353  0.2408  1.6387
 4434SOL    HW219395   1.984   1.938   7.746  3.2023  1.2517 -1.8934
 4435SOL     OW19396  10.277   1.670   2.085  0.4610  0.7783 -0.5221
 4435SOL    HW119397  10.346   1.692   2.022  0.2377 -0.9789 -1.4408
 4435SOL    HW219398  10.199   1.713   2.051  0.8223  1.7487 -0.1557
 4436SOL     OW19399   9.896   1.099   9.878  0.4373  0.0723 -0.3135
 4436SOL    HW119400   9.966   1.102   9.942 -1.9959  1.0775  2.5568
 4436SOL    HW219401   9.825   1.149   9.917 -2.2494 -1.6089 -2.5613
 4437SOL     OW19402   1.443   7.890   1.760  0.0470  0.8239  0.6075
 4437SOL    HW119403   1.407   7.976   1.738 -1.1625  0.0338 -0.6904
 4437SOL    HW219404   1.510   7.875   1.693 -1.1829 -0.0953 -0.4497
 4438SOL     OW19405   6.162  10.206   8.936 -0.2454 -0.3816 -0.2745
 4438SOL    HW119406   6.133  10.115   8.930  2.4118 -1.3392  0.0297
 4438SOL    HW219407   6.082  10.257   8.934 -2.1207 -2.8604  2.8817
 4439SOL     OW19408   0.134   2.439   2.541 -0.2894 -0.4153  0.0791
 4439SOL    HW119409   0.189   2.365   2.567  0.2715 -0.3888 -0.9479
 4439SOL    HW219410   0.196   2.504   2.508 -0.8301  0.2382  0.3356
 4440SOL     OW19411   3.539   2.235   6.670 -0.0190  0.0362  0.1145
 4440SOL    HW119412   3.585   2.231   6.754 -0.2714 -0.3132  0.2355
 4440SOL    HW219413   3.524   2.144   6.646  0.8550  0.1042 -0.7521
 4441SOL     OW19414   4.246   9.971   7.528  0.0919 -0.3627  0.1291
 4441SOL    HW119415   4.206   9.889   7.559  0.7759 -0.3738  1.0414
 4441SOL    HW219416   4.193  10.040   7.567 -1.9445 -0.2779 -2.5177
 4442SOL     OW19417   4.330   2.049   2.736  0.4889  0.2543  0.2121
 4442SOL    HW119418   4.399   2.065   2.672  0.1064 -0.0906 -0.2966
 4442SOL    HW219419   4.285   2.133   2.745  2.1942  1.0535  2.0616
 4443SOL     OW19420   4.479   8.535  10.364 -0.6763 -0.1582 -0.1598
 4443SOL    HW119421   4.485   8.626  10.335  0.4839  0.2713  1.2906
 4443SOL    HW219422   4.419   8.537  10.438 -0.6872 -0.5821 -0.1548
 4444SOL     OW19423   9.932   1.184   3.813  0.1247 -0.8848  0.1427
 4444SOL    HW119424   9.884   1.121   3.760 -1.1251 -0.4857  0.7577
 4444SOL    HW219425   9.904   1.270   3.780  1.4377 -0.6264 -0.3665
 4445SOL     OW19426   8.964   2.654   2.530 -0.4035  0.0029  0.3132
 4445SOL    HW119427   9.007   2.580   2.488 -0.5841  0.5336 -0.8641
 4445SOL    HW219428   8.999   2.656   2.619  0.6127 -0.6769 -0.0584
 4446SOL     OW19429   6.866   5.472   9.125  0.2353 -0.1321 -0.6863
 4446SOL    HW119430   6.944   5.421   9.145  1.3705  1.9209  0.4079
 4446SOL    HW219431   6.899   5.555   9.090 -1.5281 -0.0016 -2.2840
 4447SOL     OW19432   8.240   8.963   9.248 -0.1882  0.1494 -0.5489
 4447SOL    HW119433   8.171   8.932   9.188  0.5608 -0.0409 -1.3393
 4447SOL    HW219434   8.210   8.935   9.335 -1.0334 -0.0631 -0.8902
 4448SOL     OW19435   5.186   4.804   5.592  0.1709  0.4071 -0.7006
 4448SOL    HW119436   5.098   4.781   5.621  0.8289 -0.3950  0.7989
 4448SOL    HW219437   5.244   4.756   5.652  1.6275  0.5626 -1.9234
 4449SOL     OW19438   8.051   5.489   8.266  0.7619  0.3567 -0.6560
 4449SOL    HW119439   8.123   5.482   8.330  1.8385 -0.9213 -1.9251
 4449SOL    HW219440   8.094   5.514   8.185 -0.2923 -0.0979 -1.3712
 4450SOL     OW19441   0.848   7.565   8.880  0.3417  0.1742 -0.2983
 4450SOL    HW119442   0.888   7.520   8.954 -0.1522  1.4236  0.7667
 4450SOL    HW219443   0.754   7.566   8.900  0.2326  0.7429 -0.8045
 4451SOL     OW19444   1.022   6.384   5.107 -0.5683  0.5948 -0.0267
 4451SOL    HW119445   1.070   6.440   5.168  0.1418 -0.7182  0.6533
 4451SOL    HW219446   0.941   6.364   5.153 -0.2960  0.0900  0.2323
 4452SOL     OW19447   8.124   8.905   5.784  0.4931 -0.4920  0.0819
 4452SOL    HW119448   8.053   8.969   5.786  0.0128 -1.0066  0.0355
 4452SOL    HW219449   8.090   8.834   5.729  1.5824 -0.1398 -1.1063
 4453SOL     OW19450  10.365   0.924   0.497 -0.5677  0.0355 -0.2506
 4453SOL    HW119451  10.309   0.881   0.561  0.2734 -0.1722  0.3603
 4453SOL    HW219452  10.452   0.921   0.535 -0.4445  2.2035 -0.2063
 4454SOL     OW19453   5.943   4.199   0.110 -0.5834  0.6923 -0.1508
 4454SOL    HW119454   5.859   4.241   0.090 -0.0403  1.1735 -1.5170
 4454SOL    HW219455   5.922   4.106   0.117 -1.0783  0.6878 -1.4666
 4455SOL     OW19456   5.036   8.027   3.492  0.1353 -0.1828  0.2499
 4455SOL    HW119457   4.968   8.074   3.444  0.4329 -2.0794 -2.2592
 4455SOL    HW219458   4.987   7.967   3.549 -0.2660  0.4165  0.5402
 4456SOL     OW19459   4.652   2.384   4.258  0.2075 -0.4016 -0.1156
 4456SOL    HW119460   4.730   2.432   4.227 -0.0301  0.7148  0.9062
 4456SOL    HW219461   4.667   2.294   4.231  0.8697  0.1674 -1.7802
 4457SOL     OW19462   0.506   2.999   9.544  0.6707 -0.2573  0.3218
 4457SOL    HW119463   0.471   2.996   9.633 -0.8820  2.6595 -0.0604
 4457SOL    HW219464   0.588   3.049   9.553  0.8145 -0.4672  0.1830
 4458SOL     OW19465  10.478   4.400   8.938  0.1776 -0.0425  0.8427
 4458SOL    HW119466  10.480   4.313   8.979 -0.8463 -0.1183  0.7768
 4458SOL    HW219467  10.517   4.387   8.852 -0.1255 -0.4795  0.7660
 4459SOL     OW19468   1.664   5.308   7.061 -0.2973  0.2405 -0.1519
 4459SOL    HW119469   1.658   5.359   6.981  1.4058 -0.7377 -0.9480
 4459SOL    HW219470   1.734   5.349   7.111  0.5801 -0.8127 -0.4698
 4460SOL     OW19471   8.581   6.075   5.186 -0.6268  0.7387  0.2433
 4460SOL    HW119472   8.586   6.006   5.120  1.1864  0.0710  0.9907
 4460SOL    HW219473   8.548   6.151   5.140 -1.0615 -0.1752 -1.0095
 4461SOL     OW19474   7.135  10.823   5.460  0.1917  0.0648  0.4216
 4461SOL    HW119475   7.123  10.751   5.522  0.1137  0.1188  0.4701
 4461SOL    HW219476   7.146  10.901   5.515 -1.1090  0.3100  0.3749
 4462SOL     OW19477   5.180   8.651   2.535 -0.5059 -0.3256  0.5041
 4462SOL    HW119478   5.112   8.718   2.538 -0.7943 -0.6398  1.3090
 4462SOL    HW219479   5.262   8.698   2.544 -0.7047 -0.0688  1.0328
 4463SOL     OW19480   5.735   3.303   9.587 -0.0867 -0.4072 -0.4072
 4463SOL    HW119481   5.716   3.397   9.588  0.2881 -0.2947  1.7812
 4463SOL    HW219482   5.803   3.293   9.521  1.1310  1.1801  0.5207
 4464SOL     OW19483   0.568   2.811   8.254 -0.0107  0.0311 -0.3035
 4464SOL    HW119484   0.557   2.800   8.159 -0.2615 -1.5242 -0.1122
 4464SOL    HW219485   0.660   2.788   8.270 -0.0025  0.1682 -0.1475
 4465SOL     OW19486   1.915   8.655   0.624  0.1025  0.9334 -0.1417
 4465SOL    HW119487   1.834   8.615   0.654  1.1143 -0.7688  0.4455
 4465SOL    HW219488   1.974   8.648   0.699  1.5747 -0.1772 -1.3562
 4466SOL     OW19489   9.587   0.714   8.585 -0.3764 -0.1554 -0.0135
 4466SOL    HW119490   9.637   0.745   8.660  0.1682  0.0676 -0.4674
 4466SOL    HW219491   9.579   0.620   8.598  0.3032 -0.2147 -0.0305
 4467SOL     OW19492  10.224   2.501   3.879  0.5580  0.2279  0.2961
 4467SOL    HW119493  10.301   2.444   3.879 -0.7807 -1.6780  1.7300
 4467SOL    HW219494  10.153   2.446   3.846 -0.3141  1.8332 -0.6383
 4468SOL     OW19495   7.888   3.786   6.088 -0.1819  0.4382 -0.0380
 4468SOL    HW119496   7.811   3.827   6.047  1.0991  0.7348 -2.2921
 4468SOL    HW219497   7.875   3.692   6.074 -0.9421  0.3421  1.1547
 4469SOL     OW19498   5.157  10.704   0.143 -0.6165  0.1248  0.3903
 4469SOL    HW119499   5.237  10.652   0.147 -1.4703 -1.2718  0.1412
 4469SOL    HW219500   5.095  10.659   0.200 -1.7930  0.1077 -0.8190
 4470SOL     OW19501   4.069   9.650   6.773 -0.5339  0.4935  0.1624
 4470SOL    HW119502   4.037   9.612   6.691  0.4993  0.1782 -0.1046
 4470SOL    HW219503   4.063   9.579   6.836  1.1096 -0.0587 -0.2652
 4471SOL     OW19504   4.724   5.807   4.279 -0.0062  0.2658  0.2857
 4471SOL    HW119505   4.808   5.767   4.258 -0.6533 -0.5056 -0.9300
 4471SOL    HW219506   4.747   5.891   4.320  1.3483  0.0732 -0.0407
 4472SOL     OW19507   2.985   2.928   4.682  0.0244  0.1521  0.2172
 4472SOL    HW119508   2.905   2.979   4.667 -1.6790 -1.9295  1.7116
 4472SOL    HW219509   3.049   2.993   4.712 -1.1071  1.8507 -0.8242
 4473SOL     OW19510   3.511   8.634   0.558 -0.3101  0.5249  0.2441
 4473SOL    HW119511   3.606   8.649   0.561 -0.4638  1.6557  0.0298
 4473SOL    HW219512   3.502   8.539   0.562  0.7808  0.4327  1.5258
 4474SOL     OW19513   8.215   0.430   3.898  0.0139 -0.3646 -0.2543
 4474SOL    HW119514   8.305   0.401   3.912  0.4917  0.1464 -2.0703
 4474SOL    HW219515   8.198   0.490   3.970  0.6649 -1.4158  0.8189
 4475SOL     OW19516   6.647   2.825   6.385 -0.4346 -0.2408  0.0667
 4475SOL    HW119517   6.639   2.826   6.290 -0.7275  1.8860  0.0834
 4475SOL    HW219518   6.558   2.812   6.417 -0.2331 -1.7700  0.0773
 4476SOL     OW19519   3.486   5.923   6.356  0.4784  0.3464  0.3037
 4476SOL    HW119520   3.420   5.960   6.298  1.5512  0.5147 -0.8320
 4476SOL    HW219521   3.455   5.946   6.444 -1.6898 -0.7660 -0.0831
 4477SOL     OW19522   1.351   6.912   8.776  0.0126 -0.2788 -0.6262
 4477SOL    HW119523   1.407   6.927   8.700  1.5330 -0.1162  0.4902
 4477SOL    HW219524   1.372   6.823   8.804 -0.5894 -0.3637 -0.4302
 4478SOL     OW19525   9.737   3.678   7.242  0.5246  0.1078 -0.4729
 4478SOL    HW119526   9.751   3.772   7.231 -0.5060  0.1938 -1.1307
 4478SOL    HW219527   9.825   3.641   7.239  1.0930  1.1681  1.2326
 4479SOL     OW19528   7.454   7.725   3.546  0.3919 -0.0912  0.5412
 4479SOL    HW119529   7.471   7.763   3.633 -0.8036  1.3193  0.2038
 4479SOL    HW219530   7.384   7.661   3.562  0.2013  0.1376  0.6486
 4480SOL     OW19531   8.210   9.762   6.752  0.3660 -0.4898 -0.2702
 4480SOL    HW119532   8.241   9.850   6.773  0.6733 -0.9156  1.2051
 4480SOL    HW219533   8.118   9.762   6.779  0.4939 -0.7503  0.1783
 4481SOL     OW19534   0.837   1.836  10.925 -0.0591 -0.0454 -0.3952
 4481SOL    HW119535   0.882   1.906  10.972 -2.3261  0.5695  0.9851
 4481SOL    HW219536   0.858   1.756  10.974  0.5829  0.0227 -0.5539
 4482SOL     OW19537   0.464  10.676   8.188  0.0731  0.1369  0.2867
 4482SOL    HW119538   0.539  10.643   8.239  0.2700  1.1302  0.6581
 4482SOL    HW219539   0.502  10.703   8.105 -0.0398 -0.2944  0.0947
 4483SOL     OW19540   1.061   3.006   6.786 -0.3214  0.0595  0.1022
 4483SOL    HW119541   1.156   2.991   6.780 -0.3186  0.0206  0.2404
 4483SOL    HW219542   1.052   3.101   6.785 -0.2410  0.0763  0.6730
 4484SOL     OW19543   5.576   1.450   4.662  0.5391 -0.1994  0.2187
 4484SOL    HW119544   5.666   1.440   4.631  0.4136 -0.1396 -0.1678
 4484SOL    HW219545   5.548   1.361   4.684  0.6059 -0.2507  0.0972
 4485SOL     OW19546  10.733   3.544   8.322  0.1365  0.3625 -0.4326
 4485SOL    HW119547  10.729   3.490   8.401  0.0285 -1.2396 -1.4945
 4485SOL    HW219548  10.821   3.530   8.288  0.9707  2.7595  0.5038
 4486SOL     OW19549   5.637   3.073   3.121  0.5568 -0.3548  0.3247
 4486SOL    HW119550   5.728   3.084   3.094  0.4875  2.1710  0.8774
 4486SOL    HW219551   5.642   3.037   3.209  1.0304 -0.1342  0.3907
 4487SOL     OW19552   2.109   1.101  10.459 -0.0024  0.2430 -0.2947
 4487SOL    HW119553   2.075   1.013  10.442  1.7750 -0.6379  0.3471
 4487SOL    HW219554   2.105   1.146  10.375  0.1824 -0.8717 -0.9165
 4488SOL     OW19555   9.770   4.862   8.865  1.3664  0.0996  0.4881
 4488SOL    HW119556   9.817   4.928   8.916 -1.2513  2.2418  0.3268
 4488SOL    HW219557   9.764   4.787   8.923  1.4536  1.2362  2.0317
 4489SOL     OW19558   1.109   1.975   0.981  0.0690 -0.2300 -0.0255
 4489SOL    HW119559   1.085   2.022   0.901 -0.8071  0.7707  0.7891
 4489SOL    HW219560   1.182   1.918   0.955  0.3864  0.7239 -1.3243
 4490SOL     OW19561   0.143   2.648  10.928 -0.0039  0.1306  0.2365
 4490SOL    HW119562   0.050   2.637  10.908 -0.3607  0.0327  1.7881
 4490SOL    HW219563   0.149   2.736  10.967  0.9897  1.1506 -2.0512
 4491SOL     OW19564   4.952   9.711   9.990 -0.0640  0.0562  0.6033
 4491SOL    HW119565   4.922   9.801   9.985 -2.5597 -0.5698  2.3521
 4491SOL    HW219566   4.989   9.701  10.077 -0.6235 -0.8166  0.7596
 4492SOL     OW19567   2.459   2.291   9.454  0.5322 -0.0466  0.3774
 4492SOL    HW119568   2.538   2.236   9.464 -0.2225 -1.0505  1.1088
 4492SOL    HW219569   2.407   2.245   9.388  0.4746  0.5198  0.0269
 4493SOL     OW19570   9.545   1.740   6.576  0.1760 -0.1525  0.3255
 4493SOL    HW119571   9.588   1.692   6.647  0.8140 -1.7051 -1.0584
 4493SOL    HW219572   9.454   1.748   6.605  0.2668 -1.3658  1.0361
 4494SOL     OW19573   9.312   2.466   9.154  0.1759 -0.3813  0.3365
 4494SOL    HW119574   9.288   2.373   9.151  0.0577 -0.3859  1.0428
 4494SOL    HW219575   9.399   2.467   9.193  0.5253 -0.2445 -0.4421
 4495SOL     OW19576  10.761   5.539   5.844  0.5472  0.3238  0.6884
 4495SOL    HW119577  10.669   5.527   5.821  0.3850  1.7483  0.5200
 4495SOL    HW219578  10.761   5.567   5.935  0.7687  0.8403  0.5364
 4496SOL     OW19579   3.978   0.048   0.606 -0.1864 -0.2085  0.4239
 4496SOL    HW119580   4.049  -0.005   0.568 -0.3940 -0.4995  0.4413
 4496SOL    HW219581   4.017   0.135   0.619 -0.3924  0.1967 -1.4012
 4497SOL     OW19582   7.236   3.496   5.240  0.2460 -0.1024  0.4227
 4497SOL    HW119583   7.199   3.425   5.188 -2.0985  1.5358 -0.3505
 4497SOL    HW219584   7.241   3.461   5.329 -0.9824 -1.2036  0.0949
 4498SOL     OW19585   7.710   2.618   1.639  0.3281  0.3263  0.8233
 4498SOL    HW119586   7.650   2.643   1.709 -0.3529  0.2000  0.3010
 4498SOL    HW219587   7.725   2.524   1.652 -1.1054 -0.0784 -0.1275
 4499SOL     OW19588   8.948   9.491   9.186 -0.0171  0.4127 -0.1756
 4499SOL    HW119589   8.861   9.499   9.226 -0.8012  0.0372 -1.7198
 4499SOL    HW219590   8.945   9.551   9.111  0.8700 -0.0111 -0.5619
 4500SOL     OW19591   8.870   2.173   3.349 -0.2115 -0.1100 -0.4988
 4500SOL    HW119592   8.964   2.181   3.368  0.1077  0.6487 -2.1954
 4500SOL    HW219593   8.843   2.093   3.393  1.0926 -0.0224  0.5169
 4501SOL     OW19594   4.748   1.410   3.724 -0.0978  0.1427 -0.1303
 4501SOL    HW119595   4.782   1.348   3.659  0.4735  1.7547 -1.4144
 4501SOL    HW219596   4.820   1.423   3.786 -0.3313 -0.6856  0.3371
 4502SOL     OW19597   1.019   7.765   8.930  0.1127 -0.4262 -0.3421
 4502SOL    HW119598   0.995   7.812   9.010  1.1182 -0.8546  0.2244
 4502SOL    HW219599   0.944   7.707   8.913 -0.5817  0.4521 -0.3416
 4503SOL     OW19600   2.335   9.949   3.546  0.1415  0.1005  0.8296
 4503SOL    HW119601   2.269   9.887   3.515  1.2526 -0.8525  0.3301
 4503SOL    HW219602   2.331  10.021   3.482  1.0217 -0.9329 -0.4455
 4504SOL     OW19603   2.164   4.253   3.682 -0.4961 -0.2582  0.6082
 4504SOL    HW119604   2.116   4.234   3.762 -1.1801  0.3410  0.3467
 4504SOL    HW219605   2.123   4.331   3.647 -0.4226 -0.6993 -0.5031
 4505SOL     OW19606   3.358   7.324   0.368 -0.3272 -0.4608 -0.3522
 4505SOL    HW119607   3.284   7.338   0.309 -0.7509  0.1758  0.3181
 4505SOL    HW219608   3.318   7.304   0.452  0.2617  0.0683  0.0606
 4506SOL     OW19609   4.681   1.133   9.002 -0.1703 -0.0897  0.0395
 4506SOL    HW119610   4.722   1.068   8.946  2.5677 -0.5661  2.3714
 4506SOL    HW219611   4.616   1.084   9.053 -0.0464 -0.4021 -0.1046
 4507SOL     OW19612   6.660   7.265   2.608 -0.1094  0.7974 -0.3175
 4507SOL    HW119613   6.604   7.224   2.674  0.2509  0.6009 -0.1256
 4507SOL    HW219614   6.699   7.341   2.652 -1.0495  1.5623 -0.7843
 4508SOL     OW19615   5.204   6.506   0.906  0.0577  0.1486 -0.0428
 4508SOL    HW119616   5.181   6.417   0.880  1.7399 -1.5990  3.6710
 4508SOL    HW219617   5.273   6.531   0.845  0.3895 -1.6174 -0.4519
 4509SOL     OW19618   1.589   9.686   9.776 -0.0465 -0.3001  0.4358
 4509SOL    HW119619   1.619   9.595   9.774  0.8925 -0.0106  0.6805
 4509SOL    HW219620   1.498   9.683   9.746  0.0121 -1.3031  0.3470
 4510SOL     OW19621   3.067   5.672   3.297  0.5677 -0.1130 -0.1495
 4510SOL    HW119622   3.072   5.767   3.300 -0.2986 -0.0774  0.9186
 4510SOL    HW219623   3.077   5.650   3.204  0.5006  1.0289 -0.4395
 4511SOL     OW19624   0.320   9.310   4.324  0.4263 -0.3922 -0.4153
 4511SOL    HW119625   0.332   9.243   4.257  2.0056  0.1989 -0.7760
 4511SOL    HW219626   0.231   9.296   4.357 -0.4668 -0.5998 -2.7279
 4512SOL     OW19627   2.230   5.973   3.202  0.9146 -0.1752  0.6832
 4512SOL    HW119628   2.287   6.049   3.207 -0.9447  1.3075  0.2570
 4512SOL    HW219629   2.215   5.948   3.293  1.7763 -0.2463  0.8116
 4513SOL     OW19630   1.746  10.168   2.343 -0.5432  0.1347  0.2704
 4513SOL    HW119631   1.670  10.158   2.285 -0.9015  0.4478  0.6843
 4513SOL    HW219632   1.760  10.262   2.349  1.5656  0.0673 -1.9748
 4514SOL     OW19633   8.308   5.398   4.585 -0.3539 -0.5282  0.1331
 4514SOL    HW119634   8.368   5.371   4.655  0.3125 -0.4551 -0.4065
 4514SOL    HW219635   8.299   5.320   4.530  0.1560 -0.2033 -0.4239
 4515SOL     OW19636  10.380   9.296   3.366 -0.4778 -0.1955 -0.2007
 4515SOL    HW119637  10.410   9.385   3.383  0.1626 -0.3993 -0.2599
 4515SOL    HW219638  10.302   9.286   3.421  1.5578 -0.8844  2.8232
 4516SOL     OW19639   2.804   9.383   0.131  0.0271  0.0440 -0.4320
 4516SOL    HW119640   2.826   9.298   0.169  0.5720  1.0694  1.6763
 4516SOL    HW219641   2.846   9.382   0.045  2.2100 -0.8651  0.5736
 4517SOL     OW19642   8.702   9.234   8.132 -0.0554 -0.1360 -0.3302
 4517SOL    HW119643   8.692   9.216   8.226 -0.0837 -0.1292 -0.3317
 4517SOL    HW219644   8.678   9.326   8.123 -0.8072 -0.3357 -0.4599
 4518SOL     OW19645   4.512   9.305   4.490  0.0575  0.3207  0.5521
 4518SOL    HW119646   4.509   9.388   4.441  2.1215 -0.0490 -0.3166
 4518SOL    HW219647   4.543   9.329   4.577  2.1458  0.3559 -0.1468
 4519SOL     OW19648   7.069   7.181  10.515 -0.0008 -0.3022  0.5216
 4519SOL    HW119649   7.029   7.160  10.599  1.2111  0.2962  1.2740
 4519SOL    HW219650   7.139   7.243  10.536 -1.1323  1.6870 -1.1816
 4520SOL     OW19651   9.868   5.071   9.844  0.0971  0.0387 -0.6695
 4520SOL    HW119652   9.863   5.142   9.907 -1.7537 -0.8232  0.2485
 4520SOL    HW219653   9.951   5.084   9.799  1.9384  0.2333  2.4839
 4521SOL     OW19654   0.385   9.435   8.560  0.2591 -0.0119  0.1273
 4521SOL    HW119655   0.375   9.429   8.465  0.9024  1.0722 -0.0202
 4521SOL    HW219656   0.322   9.501   8.587 -0.9581 -1.3343  0.6747
 4522SOL     OW19657   8.490   6.513   6.710  0.5059 -0.4282  0.6021
 4522SOL    HW119658   8.440   6.482   6.635  1.0808  1.0189 -0.4358
 4522SOL    HW219659   8.559   6.448   6.722  0.7300 -0.4015 -0.4857
 4523SOL     OW19660   6.855   1.099   3.332 -0.1537 -0.4730 -0.2767
 4523SOL    HW119661   6.783   1.084   3.393  0.1445  2.0718  0.8576
 4523SOL    HW219662   6.821   1.163   3.270  0.3584 -1.1546 -1.2943
 4524SOL     OW19663  10.081   9.764   4.226 -0.5762 -0.0085 -0.7201
 4524SOL    HW119664  10.096   9.703   4.153 -0.2057  0.5212 -1.0958
 4524SOL    HW219665  10.136   9.731   4.297  1.9895  1.5195 -1.8560
 4525SOL     OW19666   6.085  10.482   4.805  0.4373 -0.9901 -0.1789
 4525SOL    HW119667   6.178  10.463   4.795  1.1036  2.2063 -1.2591
 4525SOL    HW219668   6.083  10.556   4.867 -1.1264  0.4564 -1.8429
 4526SOL     OW19669   1.435   4.612   1.701 -0.1654  0.2115 -0.0555
 4526SOL    HW119670   1.377   4.668   1.752  0.0841  0.1235  0.3380
 4526SOL    HW219671   1.523   4.642   1.723 -0.0658  1.8127 -2.3309
 4527SOL     OW19672   6.058   5.355   0.406  0.1275 -0.1717  0.6799
 4527SOL    HW119673   6.076   5.332   0.315 -1.2602 -1.0450  0.5876
 4527SOL    HW219674   6.075   5.275   0.455 -2.0637 -0.6739  0.7418
 4528SOL     OW19675   1.897   6.120   9.685  0.4871 -0.1814 -0.1655
 4528SOL    HW119676   1.873   6.027   9.686  2.0977 -0.6313  1.2347
 4528SOL    HW219677   1.815   6.166   9.699 -0.1681 -1.4488  0.2794
 4529SOL     OW19678   6.123   1.956   5.554  0.9226 -0.1233  0.0272
 4529SOL    HW119679   6.059   1.934   5.622  1.2571 -0.2155  0.3114
 4529SOL    HW219680   6.111   1.887   5.488 -0.3112  0.7011 -0.6354
 4530SOL     OW19681  10.781  10.048   5.774 -0.0426  0.4576 -0.1721
 4530SOL    HW119682  10.755  10.115   5.837  1.4241  0.2419  0.7072
 4530SOL    HW219683  10.704  10.037   5.719 -1.7929 -0.0494  2.1778
 4531SOL     OW19684   7.725   3.189   5.952  0.1410 -0.4434 -0.0206
 4531SOL    HW119685   7.761   3.218   6.036 -1.2767 -2.5343  1.4256
 4531SOL    HW219686   7.802   3.168   5.898  1.0779  0.5763  0.8790
 4532SOL     OW19687   8.619   0.567   2.651 -0.1922  0.5309  0.1094
 4532SOL    HW119688   8.575   0.560   2.566 -0.7468  0.4210  0.4025
 4532SOL    HW219689   8.665   0.484   2.661  0.4662  0.8168 -0.3982
 4533SOL     OW19690   3.693   8.272   9.698 -0.1665 -0.2915  0.1957
 4533SOL    HW119691   3.730   8.333   9.762 -1.3087  0.8341 -0.1930
 4533SOL    HW219692   3.630   8.323   9.649 -1.9601 -2.0433  0.5530
 4534SOL     OW19693   7.620   9.495  10.334 -0.0876 -0.2920  0.0438
 4534SOL    HW119694   7.698   9.481  10.387  1.9595  0.8626 -2.4675
 4534SOL    HW219695   7.614   9.590  10.323 -1.1258 -0.4363 -0.8382
 4535SOL     OW19696   1.464   9.909   2.929  0.6663  0.0394  0.1671
 4535SOL    HW119697   1.396   9.948   2.874  1.9070  0.1796 -1.3448
 4535SOL    HW219698   1.417   9.871   3.002 -0.8735  1.7086  0.1169
 4536SOL     OW19699   0.013   7.616   5.789 -0.1574  0.1824  0.0008
 4536SOL    HW119700  -0.031   7.531   5.781 -0.9060  0.4133  1.2904
 4536SOL    HW219701   0.105   7.594   5.798 -0.5992 -0.8462  3.8763
 4537SOL     OW19702   1.380   9.355   3.053  0.2378 -0.2293  0.4685
 4537SOL    HW119703   1.301   9.333   3.003 -0.8559  2.1093  0.9908
 4537SOL    HW219704   1.415   9.271   3.081 -2.3241 -1.3772  0.5515
 4538SOL     OW19705   8.413   2.017   4.367 -0.2221  0.4471 -0.0219
 4538SOL    HW119706   8.409   1.925   4.341  0.1313  0.3886  0.1175
 4538SOL    HW219707   8.505   2.042   4.352 -0.1927  0.6258  0.4320
 4539SOL     OW19708   0.470   1.601   2.475  0.5284 -0.2489 -0.0288
 4539SOL    HW119709   0.381   1.629   2.492 -0.0422 -1.5153 -0.7415
 4539SOL    HW219710   0.522   1.681   2.479 -0.6630  0.5401  0.1975
 4540SOL     OW19711   8.914   1.085   4.698  0.0247 -0.2948  0.0796
 4540SOL    HW119712   8.910   1.180   4.708 -1.1633 -0.2519 -0.6213
 4540SOL    HW219713   9.002   1.068   4.665  0.3902  0.5172  0.6069
 4541SOL     OW19714   0.606   8.829   7.262  0.0628  0.2041 -0.0703
 4541SOL    HW119715   0.674   8.763   7.271  1.3443  1.4710 -0.1914
 4541SOL    HW219716   0.648   8.901   7.215 -0.7597  1.8575  1.6098
 4542SOL     OW19717   7.960   9.722   0.055 -0.2894 -0.4972  0.2671
 4542SOL    HW119718   8.051   9.694   0.047 -0.4076 -0.5672 -1.0804
 4542SOL    HW219719   7.959   9.813   0.023 -0.7116 -0.5482  0.1184
 4543SOL     OW19720   9.474   1.909   2.660  0.2054  0.2069 -0.3806
 4543SOL    HW119721   9.459   1.999   2.688 -0.6902  0.1477 -0.6460
 4543SOL    HW219722   9.443   1.855   2.733 -1.9644  0.0583 -1.3329
 4544SOL     OW19723   3.011   9.472   3.903 -0.3723  0.5350 -0.0458
 4544SOL    HW119724   2.996   9.566   3.903  0.8827  0.7521  0.3758
 4544SOL    HW219725   2.925   9.434   3.919 -0.8928  1.6060 -0.2058
 4545SOL     OW19726   8.100   8.700   3.345 -0.4029 -0.2161  0.7189
 4545SOL    HW119727   8.083   8.659   3.260 -0.9781  1.0610  0.1815
 4545SOL    HW219728   8.045   8.778   3.345  0.0972  0.1662  1.9993
 4546SOL     OW19729   5.292   7.764   1.832  0.1810  0.3971  0.2439
 4546SOL    HW119730   5.358   7.754   1.763  1.1175  0.8232  1.0488
 4546SOL    HW219731   5.219   7.709   1.804  1.5166 -1.4065  0.1077
 4547SOL     OW19732   0.262   1.072  10.230 -0.3425 -0.4312  0.5401
 4547SOL    HW119733   0.177   1.063  10.188  0.0095 -0.0841 -0.2638
 4547SOL    HW219734   0.263   1.003  10.296 -1.0483 -0.7588  0.2230
 4548SOL     OW19735   4.754  10.315   7.062  0.3821  0.0488 -0.4320
 4548SOL    HW119736   4.841  10.354   7.050 -0.1173  1.6756  0.8112
 4548SOL    HW219737   4.763  10.259   7.140 -0.0629  1.6659  0.8488
 4549SOL     OW19738  10.401   6.197   0.181  1.0936 -0.2337  0.0334
 4549SOL    HW119739  10.444   6.252   0.246  3.2067  0.0481 -1.5033
 4549SOL    HW219740  10.318   6.241   0.163  0.6832 -0.0527  2.1052
 4550SOL     OW19741   5.109   6.989   5.852  0.2873  0.0778 -0.3420
 4550SOL    HW119742   5.026   7.005   5.806  0.3989  1.0435 -0.2220
 4550SOL    HW219743   5.088   6.920   5.916 -0.0117 -0.8576 -1.4136
 4551SOL     OW19744   0.779   8.428  10.740 -0.1131 -0.2880  0.2248
 4551SOL    HW119745   0.766   8.334  10.749 -0.7806 -0.1664  0.5350
 4551SOL    HW219746   0.874   8.440  10.749 -0.1368 -0.8059  1.2271
 4552SOL     OW19747   6.755   9.060   9.366  0.4006  0.4958  0.0835
 4552SOL    HW119748   6.771   9.062   9.272  1.0654  1.5117  0.2023
 4552SOL    HW219749   6.841   9.046   9.405  0.0788 -0.2642  0.5306
 4553SOL     OW19750   0.849   1.543  10.117 -0.1030  0.3001 -0.0752
 4553SOL    HW119751   0.835   1.464  10.065  1.5019  1.1238 -1.8677
 4553SOL    HW219752   0.907   1.515  10.188  1.3924  0.0474 -1.3445
 4554SOL     OW19753   4.835   9.498   2.219  0.4312 -0.4601  0.3637
 4554SOL    HW119754   4.795   9.433   2.163  1.7610  1.0140 -2.5302
 4554SOL    HW219755   4.914   9.525   2.172  1.1361  1.6154  2.5095
 4555SOL     OW19756  10.301   5.199   8.904  0.4179  0.0837  0.0530
 4555SOL    HW119757  10.228   5.163   8.854  1.4860 -0.4527 -1.1580
 4555SOL    HW219758  10.264   5.218   8.990 -1.1386 -0.1903 -0.5318
 4556SOL     OW19759   3.379   9.531  10.810 -0.1872 -0.7357 -0.1219
 4556SOL    HW119760   3.471   9.532  10.836 -0.8921 -0.4635  2.7413
 4556SOL    HW219761   3.360   9.621  10.787 -0.3005 -0.1816  1.8890
 4557SOL     OW19762   3.575   5.843   3.008 -0.1563  0.1588  0.4195
 4557SOL    HW119763   3.487   5.876   3.022 -0.4510 -0.2527 -0.4001
 4557SOL    HW219764   3.592   5.859   2.915  0.3493 -0.4354  0.4057
 4558SOL     OW19765  10.043   8.591   7.838  0.5817 -0.2996 -0.3251
 4558SOL    HW119766  10.017   8.590   7.746  0.9585  2.0350 -0.5352
 4558SOL    HW219767  10.129   8.635   7.838 -0.2984  1.5988  1.2661
 4559SOL     OW19768   2.565   9.635  10.778  0.3743 -0.5314  0.2230
 4559SOL    HW119769   2.503   9.623  10.851  1.2079 -1.0419  0.8563
 4559SOL    HW219770   2.633   9.692  10.813  1.2741 -1.5305  0.1649
 4560SOL     OW19771   5.556   3.690   1.083 -0.2712  0.1132 -0.5138
 4560SOL    HW119772   5.523   3.762   1.137 -0.5134  0.6617 -1.3705
 4560SOL    HW219773   5.629   3.729   1.034 -1.2747  0.2001 -2.0187
 4561SOL     OW19774   6.786   6.869   1.449  0.1795  0.0700  0.0220
 4561SOL    HW119775   6.691   6.882   1.446  0.1018 -0.5877 -0.6072
 4561SOL    HW219776   6.814   6.876   1.357  0.6254 -0.5173  0.1069
 4562SOL     OW19777  10.757   8.172  10.632  0.1420 -0.4030 -0.0246
 4562SOL    HW119778  10.720   8.168  10.544 -0.6414 -1.1070  0.3225
 4562SOL    HW219779  10.753   8.082  10.664  2.2442 -0.5301  0.0203
 4563SOL     OW19780   1.959   3.301   0.910  0.1200  0.4494 -0.4168
 4563SOL    HW119781   2.041   3.258   0.884  0.3742  1.0554 -0.6274
 4563SOL    HW219782   1.892   3.236   0.889  0.5049  0.1121 -0.6473
 4564SOL     OW19783   3.958   7.818   7.221 -0.2045 -0.2154 -0.1527
 4564SOL    HW119784   4.009   7.900   7.220  1.0339 -0.9556  0.1913
 4564SOL    HW219785   3.903   7.825   7.299  1.5969 -0.6832  1.2248
 4565SOL     OW19786   5.722   7.398  10.692 -0.3944  0.3464 -0.5203
 4565SOL    HW119787   5.722   7.305  10.670  1.8604  0.3125 -0.5919
 4565SOL    HW219788   5.632   7.416  10.720 -1.6925 -1.1469 -3.2654
 4566SOL     OW19789   7.441   6.098   0.963  0.8197  0.4584  0.1698
 4566SOL    HW119790   7.404   6.086   1.051 -0.9043 -2.0305 -0.7835
 4566SOL    HW219791   7.366   6.119   0.908  0.9311 -2.7974 -1.4813
 4567SOL     OW19792   8.288   0.860   6.487  0.2077 -0.7660  1.2085
 4567SOL    HW119793   8.248   0.782   6.447  0.4327  0.5902 -1.9944
 4567SOL    HW219794   8.370   0.871   6.439 -1.6040  3.5818 -1.4912
 4568SOL     OW19795  10.482   0.919   7.858 -0.0148 -0.1424  0.7899
 4568SOL    HW119796  10.438   0.883   7.781  0.0420  1.2520  0.0630
 4568SOL    HW219797  10.448   0.868   7.931 -0.9163 -0.7727 -0.0378
 4569SOL     OW19798   1.389   7.503   8.832  0.3837  0.2695 -0.3931
 4569SOL    HW119799   1.351   7.427   8.789  1.0697  0.3083 -1.1090
 4569SOL    HW219800   1.408   7.474   8.921  0.4101 -0.3228 -0.5876
 4570SOL     OW19801  10.112   2.287   3.759  0.0381  0.1153  0.0605
 4570SOL    HW119802  10.076   2.198   3.754  1.5737 -0.5113 -0.4199
 4570SOL    HW219803  10.054   2.339   3.704 -1.1530 -0.4853  0.7082
 4571SOL     OW19804   3.768   3.167   1.168  0.0461  0.2030  0.6335
 4571SOL    HW119805   3.807   3.236   1.222 -0.0000  2.0599 -1.5758
 4571SOL    HW219806   3.842   3.130   1.120 -0.4665  2.3359 -2.0287
 4572SOL     OW19807   8.997  10.124   8.158 -0.0846 -0.0275  0.1017
 4572SOL    HW119808   8.988  10.186   8.086 -3.2073 -1.2610 -0.7055
 4572SOL    HW219809   9.072  10.069   8.133  0.9988  1.6411 -0.4792
 4573SOL     OW19810   7.898   9.509  10.749 -0.1111 -0.0725 -1.0810
 4573SOL    HW119811   7.863   9.597  10.741 -1.4621 -0.5291 -0.4563
 4573SOL    HW219812   7.969   9.517  10.813 -0.8700  0.4004 -0.2728
 4574SOL     OW19813   2.787  10.622   5.511 -0.4030 -0.3173  0.4649
 4574SOL    HW119814   2.750  10.704   5.477  0.4403 -0.3258 -0.5104
 4574SOL    HW219815   2.860  10.602   5.452 -1.1483 -2.2671  0.1119
 4575SOL     OW19816   2.600   6.978   9.874 -0.8225 -0.1568  0.1554
 4575SOL    HW119817   2.631   7.041   9.809 -2.2938  1.0206  0.5197
 4575SOL    HW219818   2.678   6.930   9.901  0.5721  2.1886  0.5896
 4576SOL     OW19819   8.812   2.239   4.399  0.1334  0.0427  0.0458
 4576SOL    HW119820   8.752   2.314   4.394 -0.2672 -0.3292 -0.9002
 4576SOL    HW219821   8.770   2.172   4.345  1.4583 -0.1977 -0.7109
 4577SOL     OW19822   7.864   1.542   6.213 -0.3346 -0.3700 -0.2350
 4577SOL    HW119823   7.831   1.563   6.301  0.2823 -1.1448  0.2063
 4577SOL    HW219824   7.925   1.470   6.228 -0.7041 -0.9480 -1.3895
 4578SOL     OW19825   0.276   3.117   6.380 -0.6480  0.0877 -0.3046
 4578SOL    HW119826   0.325   3.195   6.354  2.3074 -1.6937 -0.6363
 4578SOL    HW219827   0.317   3.089   6.462 -0.7603 -1.7157 -0.8028
 4579SOL     OW19828   0.920   6.632  10.837  0.0018  0.0328  0.0120
 4579SOL    HW119829   0.927   6.537  10.824  1.4024  0.0794  0.2518
 4579SOL    HW219830   0.887   6.665  10.753  1.8425 -0.4287 -0.9477
 4580SOL     OW19831   1.266  10.606   5.122 -0.3589  0.0052 -0.3232
 4580SOL    HW119832   1.289  10.518   5.151  0.9120  0.3285 -0.3027
 4580SOL    HW219833   1.284  10.662   5.197 -0.9370  0.3296 -0.4159
 4581SOL     OW19834   8.626   6.224   8.608 -0.2151  0.4590  0.5827
 4581SOL    HW119835   8.582   6.248   8.690 -2.2396  1.3862 -0.6971
 4581SOL    HW219836   8.698   6.287   8.601 -2.6458  3.4010 -0.3962
 4582SOL     OW19837   5.156   3.670   7.375 -0.0165 -0.3722 -0.2266
 4582SOL    HW119838   5.146   3.616   7.297 -1.8875  0.5589 -0.6785
 4582SOL    HW219839   5.111   3.622   7.445 -1.2218  0.3107 -0.5086
 4583SOL     OW19840   5.914   2.455   6.224  0.6235  0.2649 -0.2932
 4583SOL    HW119841   5.951   2.443   6.136  2.6235 -0.0198  0.5253
 4583SOL    HW219842   5.885   2.368   6.250  1.9866 -0.1088  0.1003
 4584SOL     OW19843   0.733   8.314   1.368 -0.3792  0.0409 -0.2945
 4584SOL    HW119844   0.645   8.325   1.332 -0.6673 -0.2577  0.3147
 4584SOL    HW219845   0.785   8.383   1.326 -0.6533 -0.4256 -1.4337
 4585SOL     OW19846   5.877   2.433   7.458  0.0449 -0.1162  0.2514
 4585SOL    HW119847   5.930   2.509   7.483  1.1691  0.7551 -3.9943
 4585SOL    HW219848   5.787   2.463   7.468  0.4526  1.2778  0.0418
 4586SOL     OW19849   4.550   2.394  10.866 -0.2979 -0.4625 -0.5313
 4586SOL    HW119850   4.495   2.323  10.834 -1.5055  0.2176 -0.0198
 4586SOL    HW219851   4.549   2.385  10.961  2.1971 -1.6831 -0.5346
 4587SOL     OW19852   1.746  10.744   8.868 -0.4327  0.1390  0.0345
 4587SOL    HW119853   1.816  10.724   8.806 -1.7441 -0.8980 -1.1957
 4587SOL    HW219854   1.710  10.828   8.837  1.4347  1.7136  1.8316
 4588SOL     OW19855   0.012   3.464   1.632  0.4736 -0.3068  0.6570
 4588SOL    HW119856   0.080   3.485   1.695  1.6511  1.5846 -1.1047
 4588SOL    HW219857  -0.062   3.435   1.685  1.1720  1.7834  2.9586
 4589SOL     OW19858   3.725   6.273   3.294  0.2772  0.1579  0.0246
 4589SOL    HW119859   3.728   6.252   3.201 -3.5710 -0.8942 -0.0235
 4589SOL    HW219860   3.765   6.197   3.337 -1.6028 -1.3355 -0.7064
 4590SOL     OW19861  10.484   7.352   6.365  0.5129 -0.5974  0.0596
 4590SOL    HW119862  10.434   7.348   6.446 -0.4301  2.6547 -0.2233
 4590SOL    HW219863  10.423   7.323   6.297 -0.0836  0.5846  0.0685
 4591SOL     OW19864  10.384   9.489   5.979 -0.3692  0.1307 -0.0831
 4591SOL    HW119865  10.453   9.554   5.996 -0.9394  0.8210 -0.3883
 4591SOL    HW219866  10.304   9.540   5.974 -0.7694 -0.5556 -0.7455
 4592SOL     OW19867   0.241   2.910   8.036  0.7845  0.2702 -0.3172
 4592SOL    HW119868   0.258   2.996   8.076  0.1111 -0.1529  0.9362
 4592SOL    HW219869   0.158   2.921   7.989  0.0774  0.0077  0.8357
 4593SOL     OW19870  10.826   2.922   2.973  0.2573 -0.0800  0.5708
 4593SOL    HW119871  10.871   2.882   3.048  1.3544 -0.6555 -0.3678
 4593SOL    HW219872  10.878   3.000   2.952 -0.0184  0.0526  0.3765
 4594SOL     OW19873   0.370   9.556   2.568 -0.2625  0.1991  0.1027
 4594SOL    HW119874   0.457   9.592   2.584  0.0471 -1.1853  1.8322
 4594SOL    HW219875   0.310   9.628   2.591  0.3781  1.3053 -1.5003
 4595SOL     OW19876   7.832   2.576   7.694  0.0460 -0.1746 -0.0977
 4595SOL    HW119877   7.893   2.597   7.624 -1.3886  1.8094 -0.8725
 4595SOL    HW219878   7.806   2.661   7.730 -2.6946 -0.8305 -0.2590
 4596SOL     OW19879  10.002   6.152   7.943  0.0155  0.4522  0.0402
 4596SOL    HW119880   9.919   6.113   7.971  0.6061 -1.4120 -0.6123
 4596SOL    HW219881  10.006   6.236   7.988 -2.3711  0.7543 -0.1808
 4597SOL     OW19882   6.730   5.469  10.406  0.0108  0.4502 -0.3371
 4597SOL    HW119883   6.806   5.488  10.460 -0.0183  1.0583 -0.5055
 4597SOL    HW219884   6.757   5.492  10.317  0.2066 -0.9330 -0.6678
 4598SOL     OW19885   0.605   7.871   0.285 -0.0391 -0.8219  0.9433
 4598SOL    HW119886   0.624   7.909   0.371 -0.9842 -0.3677  0.9624
 4598SOL    HW219887   0.570   7.784   0.305 -1.1481 -0.3581  1.0783
 4599SOL     OW19888   9.231   4.318   2.241 -0.3053  0.5634 -0.0961
 4599SOL    HW119889   9.309   4.299   2.188 -0.6510 -1.0510 -0.0866
 4599SOL    HW219890   9.242   4.264   2.320 -0.9291  1.1365  0.3926
 4600SOL     OW19891   6.695   7.552   3.211 -0.0546 -0.4707  0.2702
 4600SOL    HW119892   6.757   7.529   3.281 -1.3907 -0.8701  1.3607
 4600SOL    HW219893   6.713   7.488   3.142 -0.2259 -1.5532  1.1826
 4601SOL     OW19894   5.708   3.003   9.159  0.0670 -0.6569 -0.4433
 4601SOL    HW119895   5.783   2.965   9.113 -2.0937 -1.5969 -3.4968
 4601SOL    HW219896   5.662   2.929   9.197 -0.0199 -0.2206  0.3240
 4602SOL     OW19897   4.630   0.898   3.766 -0.1912  0.0876 -0.7149
 4602SOL    HW119898   4.681   0.954   3.707  2.6831 -0.3790  1.1539
 4602SOL    HW219899   4.598   0.957   3.834  1.4658 -0.1969  0.3667
 4603SOL     OW19900   0.208   0.081   2.600  0.4132 -0.1468  0.0725
 4603SOL    HW119901   0.156   0.044   2.671  0.3623 -1.4238 -0.5967
 4603SOL    HW219902   0.293   0.037   2.606  0.0837 -1.0273 -1.2203
 4604SOL     OW19903   9.015   9.556   9.787  0.2347  0.4525  0.2961
 4604SOL    HW119904   9.001   9.568   9.693  0.2393  1.7859  0.4413
 4604SOL    HW219905   8.941   9.600   9.828  1.9778  2.9969  0.9644
 4605SOL     OW19906   5.711  10.224   1.538 -0.5456 -0.2070  0.4278
 4605SOL    HW119907   5.790  10.195   1.492 -0.8771 -0.7927  0.2257
 4605SOL    HW219908   5.731  10.314   1.565  0.4686 -0.5894  1.0039
 4606SOL     OW19909   7.982   2.698   7.233 -0.0923  0.0434 -0.2899
 4606SOL    HW119910   7.918   2.657   7.292  1.2523 -0.5055  0.8651
 4606SOL    HW219911   7.947   2.785   7.216 -0.9062 -0.0695  0.7143
 4607SOL     OW19912   4.067   8.542   4.544  0.1610  0.0039 -0.6369
 4607SOL    HW119913   4.096   8.611   4.604  0.0214 -0.8502  0.4414
 4607SOL    HW219914   4.090   8.461   4.589 -0.7786 -0.6636 -1.3371
 4608SOL     OW19915   9.925   3.309   0.146  0.1175  0.1621 -0.2891
 4608SOL    HW119916   9.872   3.277   0.072 -1.1491  2.7768 -0.6270
 4608SOL    HW219917  10.011   3.327   0.108 -0.0243 -0.0897 -0.7357
 4609SOL     OW19918   6.961   7.326   1.325 -1.0587 -0.3416 -0.0772
 4609SOL    HW119919   7.023   7.323   1.398 -1.7988 -1.9299  0.5415
 4609SOL    HW219920   7.015   7.347   1.248  0.2850 -1.8205  0.4174
 4610SOL     OW19921   3.811   9.032   1.726  0.1909  0.1604  0.4572
 4610SOL    HW119922   3.758   9.015   1.804  1.1121  1.2519  1.3612
 4610SOL    HW219923   3.852   9.117   1.743  1.0555  0.0379 -0.8661
 4611SOL     OW19924   8.956   0.838   0.760  0.2687  0.4913 -0.3002
 4611SOL    HW119925   8.940   0.932   0.760 -0.0663  0.4346 -0.2315
 4611SOL    HW219926   8.869   0.799   0.770  0.5202  0.1859  0.7309
 4612SOL     OW19927   3.176   5.556   3.008 -0.4621  0.2956  0.0912
 4612SOL    HW119928   3.115   5.484   2.993 -1.4731  1.4408 -1.6208
 4612SOL    HW219929   3.262   5.517   2.997 -0.9901 -0.6860 -0.7842
 4613SOL     OW19930   5.477   0.536   4.562 -0.4471 -0.4710 -0.3258
 4613SOL    HW119931   5.407   0.532   4.627  1.0425  0.7436  1.4737
 4613SOL    HW219932   5.509   0.626   4.568  1.8042 -1.2061 -0.4377
 4614SOL     OW19933   0.543   2.405   4.751  0.4163  0.6393  0.0044
 4614SOL    HW119934   0.598   2.398   4.829 -0.6023  0.9280  0.7537
 4614SOL    HW219935   0.454   2.409   4.784 -0.0418  0.6381 -1.1850
 4615SOL     OW19936   9.612   3.795  10.493 -0.0730 -0.0929  0.1056
 4615SOL    HW119937   9.569   3.752  10.420 -0.7124 -0.1604  0.5124
 4615SOL    HW219938   9.578   3.885  10.492  0.3985  0.0846 -0.0631
 4616SOL     OW19939   0.863   3.887   9.755  0.7828  0.2049 -0.5556
 4616SOL    HW119940   0.926   3.820   9.780  1.0137  0.4005 -0.6022
 4616SOL    HW219941   0.835   3.862   9.667 -0.7262 -0.9939  0.2248
 4617SOL     OW19942   3.825   7.071   3.988  0.0110 -0.4259  0.1456
 4617SOL    HW119943   3.737   7.045   4.015  0.1202  0.9607  2.0488
 4617SOL    HW219944   3.821   7.074   3.892 -1.7957 -1.0660  0.1619
 4618SOL     OW19945   9.697   1.794   3.302  0.4224 -0.1926  0.4029
 4618SOL    HW119946   9.623   1.734   3.300 -0.4230  0.6349  2.7739
 4618SOL    HW219947   9.724   1.803   3.211 -1.8609 -1.1644 -0.4383
 4619SOL     OW19948   8.103   9.244   0.628 -0.2969  0.3846 -0.3307
 4619SOL    HW119949   8.121   9.161   0.673 -2.0983  0.5374  0.7826
 4619SOL    HW219950   8.085   9.219   0.538 -0.8913 -0.4798  0.0089
 4620SOL     OW19951   3.084   6.225   3.617  0.3383 -0.3696 -0.4049
 4620SOL    HW119952   2.995   6.257   3.600 -0.1383 -1.4289  0.0323
 4620SOL    HW219953   3.072   6.151   3.676  1.4957 -0.7027 -0.5677
 4621SOL     OW19954   5.048   3.362   0.978  0.5332  0.1442 -0.4290
 4621SOL    HW119955   4.955   3.373   0.958 -0.1342 -1.0531  1.7038
 4621SOL    HW219956   5.074   3.446   1.016  0.7763  1.0195 -2.4092
 4622SOL     OW19957   8.100  10.048  10.635 -0.1049  0.2586 -0.8298
 4622SOL    HW119958   8.062  10.124  10.677  0.2334 -0.0947  0.1382
 4622SOL    HW219959   8.158  10.084  10.567 -0.8618  0.8222 -1.1924
 4623SOL     OW19960   7.341   9.604   5.557 -0.1531  0.3531 -0.4586
 4623SOL    HW119961   7.258   9.609   5.605  0.4255  0.4978  0.5537
 4623SOL    HW219962   7.322   9.545   5.484 -0.4398 -1.8443  1.2733
 4624SOL     OW19963   0.874   8.718   8.798 -0.4382 -0.0754  0.2526
 4624SOL    HW119964   0.881   8.754   8.887 -1.6612 -0.0793  0.3640
 4624SOL    HW219965   0.919   8.782   8.743  0.3053 -0.0519  0.8569
 4625SOL     OW19966   0.517   4.899  10.478  0.3520  0.3424  0.1449
 4625SOL    HW119967   0.557   4.985  10.485  1.9919 -0.3789 -0.0792
 4625SOL    HW219968   0.587   4.837  10.500 -1.1300 -0.9000  1.6510
 4626SOL     OW19969   9.945   2.790   9.107 -0.2857 -0.2991 -0.4794
 4626SOL    HW119970   9.966   2.766   9.197 -0.3181 -1.3171 -0.7298
 4626SOL    HW219971   9.932   2.885   9.109 -0.0915 -0.2893  0.5424
 4627SOL     OW19972   4.350   7.643   0.042 -0.1374 -0.4158 -0.3925
 4627SOL    HW119973   4.402   7.672   0.117  2.0653  0.1306 -2.0096
 4627SOL    HW219974   4.322   7.555   0.064  1.8134 -0.8759  0.4728
 4628SOL     OW19975   2.627   4.770   7.139  0.0534 -0.1388  0.0699
 4628SOL    HW119976   2.576   4.842   7.176  1.8216  0.6357  1.1518
 4628SOL    HW219977   2.562   4.709   7.103 -1.5490  1.1628  0.6717
 4629SOL     OW19978   0.143   7.786   1.335 -0.5730 -0.5775 -0.2283
 4629SOL    HW119979   0.117   7.695   1.342  1.6067 -1.1709  0.9340
 4629SOL    HW219980   0.238   7.784   1.337 -0.4816  1.7895  0.5595
 4630SOL     OW19981   8.061   3.911   8.115  0.6846  0.0777  0.1309
 4630SOL    HW119982   8.103   3.992   8.144 -2.5713  1.4174  1.5062
 4630SOL    HW219983   8.066   3.915   8.019  2.4495  0.7552  0.2040
 4631SOL     OW19984   7.247   6.703   5.790  0.4993 -0.3225  0.4685
 4631SOL    HW119985   7.309   6.767   5.824  0.3993  0.7501 -1.2226
 4631SOL    HW219986   7.294   6.620   5.795  1.0755  0.0429  1.6219
 4632SOL     OW19987   4.225   5.140   8.394  0.7479 -0.4497 -0.6388
 4632SOL    HW119988   4.227   5.218   8.449  1.2224 -0.1700 -1.0506
 4632SOL    HW219989   4.162   5.160   8.326 -1.2671 -1.4947  0.8022
 4633SOL     OW19990   9.192   9.844   7.440 -0.0419  0.1655  0.2426
 4633SOL    HW119991   9.230   9.931   7.449  0.4357  0.0950 -0.9780
 4633SOL    HW219992   9.219   9.798   7.520 -0.2262  1.0881  0.8599
 4634SOL     OW19993   3.786   1.161   8.933 -0.0311  0.5312  0.4196
 4634SOL    HW119994   3.708   1.216   8.924 -0.5445 -0.3795 -0.9962
 4634SOL    HW219995   3.767   1.084   8.879  1.0061 -0.6625  1.6874
 4635SOL     OW19996   1.798   1.350   6.654 -0.5730 -0.0031 -0.0213
 4635SOL    HW119997   1.766   1.356   6.743  1.9164  2.6441  0.8371
 4635SOL    HW219998   1.864   1.280   6.657  0.6567  1.1526  0.6681
 4636SOL     OW19999  10.385   4.042   6.878  0.5895 -0.1426  0.1394
 4636SOL    HW120000  10.466   4.091   6.889 -0.0470  0.6569  1.5080
 4636SOL    HW220001  10.401   3.957   6.919  1.2861 -0.6571 -1.1454
 4637SOL     OW20002  10.868  10.022   6.078  0.2371  0.0523  0.2127
 4637SOL    HW120003  10.895  10.114   6.081 -1.6078  0.6663 -0.2449
 4637SOL    HW220004  10.920   9.984   6.007  0.6931  0.8622  0.0989
 4638SOL     OW20005   9.842   7.995   1.584 -0.1637  0.6263  0.4181
 4638SOL    HW120006   9.758   7.953   1.564  0.3780 -0.8687  1.1122
 4638SOL    HW220007   9.823   8.050   1.661 -0.8433  1.5968 -0.4056
 4639SOL     OW20008   6.125   9.963   3.784 -0.5625 -0.1019  0.5181
 4639SOL    HW120009   6.214   9.997   3.785 -0.2205 -0.9834  0.7182
 4639SOL    HW220010   6.129   9.886   3.728 -0.8748 -1.0043  1.7091
 4640SOL     OW20011   0.832   2.730   2.273  0.4449  0.7163  0.2230
 4640SOL    HW120012   0.756   2.674   2.256  0.7948 -0.0048  0.9466
 4640SOL    HW220013   0.796   2.809   2.313  0.0845  0.2878  0.7566
 4641SOL     OW20014   2.378   9.768   5.778 -0.0500 -0.3741 -0.5894
 4641SOL    HW120015   2.371   9.674   5.792 -0.4589 -0.4813 -1.4539
 4641SOL    HW220016   2.464   9.791   5.814 -0.2293 -0.9494  0.2354
 4642SOL     OW20017   7.524   7.536  10.276 -0.5930  0.9145  0.0797
 4642SOL    HW120018   7.619   7.536  10.289 -0.7380  2.1827  1.3053
 4642SOL    HW220019   7.499   7.445  10.289  0.6025  0.2852 -1.6225
 4643SOL     OW20020   2.017   4.975  10.833 -0.7320 -0.2970  0.1896
 4643SOL    HW120021   2.064   5.044  10.786 -1.8019 -0.1288 -0.6642
 4643SOL    HW220022   2.074   4.955  10.908 -0.3650  1.4768  0.4467
 4644SOL     OW20023   5.243   4.884   4.960  0.4689 -0.3065 -0.0095
 4644SOL    HW120024   5.154   4.854   4.981  0.5955 -0.0088  1.0036
 4644SOL    HW220025   5.251   4.869   4.866 -1.0967  0.7612 -0.3755
 4645SOL     OW20026   2.559   0.590   4.992  0.0015 -0.4403 -0.2813
 4645SOL    HW120027   2.622   0.534   5.038 -2.1950 -1.6146  1.5587
 4645SOL    HW220028   2.550   0.667   5.049 -0.0580 -0.1732 -0.6524
 4646SOL     OW20029   0.007   4.428  10.425  0.6983 -0.2492 -0.0141
 4646SOL    HW120030   0.009   4.516  10.461  0.7676  0.0776 -0.8088
 4646SOL    HW220031  -0.086   4.403  10.429  0.2609  0.8640 -2.1589
 4647SOL     OW20032  10.064   2.554   5.311 -0.0655 -0.3379 -0.1911
 4647SOL    HW120033   9.981   2.598   5.292 -2.0693 -2.7688  2.1044
 4647SOL    HW220034  10.120   2.622   5.348 -2.4579  0.6962  1.7634
 4648SOL     OW20035   1.862   3.016   5.345 -0.0530 -0.5084 -0.5622
 4648SOL    HW120036   1.913   2.953   5.396  0.6796 -0.9461 -1.7954
 4648SOL    HW220037   1.773   3.005   5.376  0.6221  0.7617  2.1561
 4649SOL     OW20038   4.845   5.735   7.359 -0.1141  0.1692 -0.8075
 4649SOL    HW120039   4.863   5.645   7.387 -0.9689  0.9458  2.7963
 4649SOL    HW220040   4.910   5.788   7.405 -2.5089  1.7116  1.0915
 4650SOL     OW20041   3.330   0.042   6.346 -0.4672  0.1481 -0.0045
 4650SOL    HW120042   3.386  -0.020   6.392 -1.1154  0.1122  0.7499
 4650SOL    HW220043   3.307  -0.003   6.264 -0.4106 -0.3458  0.2478
 4651SOL     OW20044   5.687   3.528   8.747  0.4381 -0.2104 -0.0137
 4651SOL    HW120045   5.768   3.478   8.731 -0.2521 -1.2081 -0.4789
 4651SOL    HW220046   5.681   3.587   8.672  0.0855 -1.0392 -0.6608
 4652SOL     OW20047  10.545   1.264   8.269 -0.2370  0.2684  0.1328
 4652SOL    HW120048  10.548   1.168   8.278  2.8509  0.3121  0.7520
 4652SOL    HW220049  10.503   1.295   8.349 -1.3862 -0.5443 -0.1323
 4653SOL     OW20050   7.800  10.602   5.958  0.1634 -0.0404  0.8179
 4653SOL    HW120051   7.856  10.606   6.036 -0.7430 -0.0410  1.4855
 4653SOL    HW220052   7.861  10.607   5.884  1.3820 -3.4425  1.4312
 4654SOL     OW20053   7.543   2.606   6.897 -0.0231  0.3995  0.5427
 4654SOL    HW120054   7.554   2.696   6.926 -0.5200  0.2453  1.2548
 4654SOL    HW220055   7.484   2.568   6.961 -0.9835 -0.0317 -0.5538
 4655SOL     OW20056   8.736   0.443   2.071  0.1245  0.6181 -0.6253
 4655SOL    HW120057   8.687   0.391   2.134  0.5801 -0.4919 -1.1554
 4655SOL    HW220058   8.697   0.530   2.077 -0.3694  0.3372  0.5966
 4656SOL     OW20059   8.456   1.101   1.815 -0.0446  0.1289 -0.0722
 4656SOL    HW120060   8.375   1.150   1.832 -1.5177 -2.1410 -0.0386
 4656SOL    HW220061   8.461   1.038   1.887  0.7800 -0.9354 -1.0211
 4657SOL     OW20062   4.921   6.941   4.125  0.0449 -0.1688 -0.0239
 4657SOL    HW120063   4.997   6.920   4.179  0.5675  0.0996 -0.6365
 4657SOL    HW220064   4.948   7.019   4.076 -0.0471 -0.9473 -1.3721
 4658SOL     OW20065   0.679  10.744   3.156  0.0137 -0.1575 -0.1378
 4658SOL    HW120066   0.598  10.693   3.148  0.2481 -0.2936 -2.6389
 4658SOL    HW220067   0.679  10.800   3.078  1.8305  0.6151  0.3669
 4659SOL     OW20068   2.183   4.217   3.071 -0.3135  0.3141 -0.3107
 4659SOL    HW120069   2.204   4.301   3.031  2.5392  0.4017  1.1390
 4659SOL    HW220070   2.127   4.239   3.145  0.2953  0.9352 -0.0294
 4660SOL     OW20071  10.420   9.560   4.817 -0.1141 -0.1994  0.0436
 4660SOL    HW120072  10.441   9.468   4.800 -0.4815 -0.2262 -0.2932
 4660SOL    HW220073  10.384   9.561   4.906  0.2579 -0.3211  0.1952
 4661SOL     OW20074   1.769   7.069   1.389  0.1737 -0.4232  0.0924
 4661SOL    HW120075   1.693   7.127   1.393 -0.5059 -1.2715 -0.1500
 4661SOL    HW220076   1.834   7.118   1.339 -0.4505  0.0713 -0.2459
 4662SOL     OW20077   1.035   0.665  10.154  0.2578 -0.0550  0.0560
 4662SOL    HW120078   1.032   0.575  10.123 -1.6245  0.0620 -0.2181
 4662SOL    HW220079   1.104   0.665  10.220 -0.2799 -1.9158  0.6823
 4663SOL     OW20080  10.780   5.941   9.767  0.0508  0.2517  0.5602
 4663SOL    HW120081  10.709   5.924   9.706  1.2057  1.3030 -1.1724
 4663SOL    HW220082  10.809   5.854   9.796 -1.2937 -0.2132  0.5730
 4664SOL     OW20083   5.799  10.824   2.236 -0.2562 -0.0062 -0.2018
 4664SOL    HW120084   5.870  10.879   2.205 -0.7301  1.0910  0.6090
 4664SOL    HW220085   5.788  10.848   2.328  0.9181 -2.9460  0.8311
 4665SOL     OW20086   6.297   5.435   1.658  0.4015  0.0122 -0.1231
 4665SOL    HW120087   6.241   5.483   1.719  2.7483  0.4237  1.8750
 4665SOL    HW220088   6.383   5.477   1.666  1.3594 -1.4169 -2.0468
 4666SOL     OW20089   5.285   0.054   4.027  0.7895  0.4120  0.4293
 4666SOL    HW120090   5.233   0.106   4.088  1.0072  1.8103 -0.5231
 4666SOL    HW220091   5.367   0.103   4.018  0.9113  0.0398 -0.6784
 4667SOL     OW20092   0.780   8.735   1.713 -0.2381 -0.5742 -0.3708
 4667SOL    HW120093   0.858   8.772   1.753 -0.0561 -1.0341 -0.2959
 4667SOL    HW220094   0.712   8.744   1.779 -0.3378  0.1519 -0.5674
 4668SOL     OW20095   9.203   6.909   0.271  0.0981  0.3283  0.0173
 4668SOL    HW120096   9.148   6.979   0.307 -0.3977  0.1456 -0.3596
 4668SOL    HW220097   9.290   6.948   0.264  0.2379  0.3153  1.5316
 4669SOL     OW20098   5.691   5.096   9.842 -0.3614 -0.0788 -0.4980
 4669SOL    HW120099   5.711   5.104   9.935 -0.8361 -0.3784 -0.3667
 4669SOL    HW220100   5.596   5.097   9.838 -0.3443 -0.1653 -0.9725
 4670SOL     OW20101   3.949  10.445   1.124  0.0305  0.2062 -0.0876
 4670SOL    HW120102   3.903  10.364   1.101 -1.1415  0.0839  2.2981
 4670SOL    HW220103   3.880  10.511   1.132  0.5020  0.5809  1.3263
 4671SOL     OW20104   2.681   2.363   8.892  0.3938  0.2585  0.2318
 4671SOL    HW120105   2.692   2.414   8.973 -0.0779 -0.1963  0.5862
 4671SOL    HW220106   2.623   2.291   8.916 -1.4967  1.2951 -1.0330
 4672SOL     OW20107   7.644   0.200   5.915 -0.0755  0.0043  0.4355
 4672SOL    HW120108   7.614   0.280   5.960  1.7895  0.4995  0.8940
 4672SOL    HW220109   7.605   0.129   5.966  1.4078  0.5719  2.4994
 4673SOL     OW20110   6.839   2.383   4.253 -0.3023  0.7626 -0.3311
 4673SOL    HW120111   6.833   2.428   4.337  0.0352  0.5937 -0.2157
 4673SOL    HW220112   6.806   2.295   4.271 -1.0998  0.9974 -0.5907
 4674SOL     OW20113   0.378   6.486   7.627 -0.8455  0.3895 -0.2496
 4674SOL    HW120114   0.312   6.554   7.640 -0.0363  1.0228  0.6615
 4674SOL    HW220115   0.335   6.405   7.653 -1.4913  0.6899 -0.3653
 4675SOL     OW20116   0.795   7.332   7.833 -0.3938  0.2211  0.0035
 4675SOL    HW120117   0.817   7.425   7.838  1.5622 -0.1350 -1.0878
 4675SOL    HW220118   0.808   7.300   7.922 -0.1802  0.8304  0.1971
 4676SOL     OW20119   3.629   5.378   8.894 -0.1810  0.2505 -0.0687
 4676SOL    HW120120   3.654   5.384   8.986 -0.3509 -1.9478  0.1718
 4676SOL    HW220121   3.659   5.460   8.856  2.9285 -0.1298  1.2483
 4677SOL     OW20122   5.294   3.906   8.758  0.3202 -0.7702 -0.8485
 4677SOL    HW120123   5.251   3.935   8.839  2.0802 -0.2752 -0.0374
 4677SOL    HW220124   5.239   3.834   8.727 -0.8297 -0.4723  0.3627
 4678SOL     OW20125   3.759   6.176   2.708 -0.1527  0.5150 -0.5986
 4678SOL    HW120126   3.803   6.235   2.770 -0.8259  0.5304 -0.1332
 4678SOL    HW220127   3.819   6.171   2.633  2.7504 -2.7435  1.6274
 4679SOL     OW20128   5.748   6.641   9.213  0.6902  0.5849  0.1170
 4679SOL    HW120129   5.791   6.706   9.156  0.3878  0.0928 -0.6862
 4679SOL    HW220130   5.660   6.633   9.178  0.3105  0.6927  1.0186
 4680SOL     OW20131   6.372   1.358   4.877  0.2032 -0.3771  0.3735
 4680SOL    HW120132   6.339   1.399   4.957 -1.5553  1.5940 -1.2158
 4680SOL    HW220133   6.338   1.414   4.806  0.9508 -2.4933 -1.7944
 4681SOL     OW20134   9.718   2.507   2.494  0.3271  0.4126 -0.0699
 4681SOL    HW120135   9.687   2.539   2.409 -0.4357  0.4564  0.2203
 4681SOL    HW220136   9.746   2.417   2.477  2.5300  1.1789 -0.9039
 4682SOL     OW20137   7.000   8.664   6.153  0.2682  0.0466 -0.1965
 4682SOL    HW120138   7.015   8.689   6.244 -2.9478 -0.4407  0.5712
 4682SOL    HW220139   7.081   8.619   6.127  1.9164  1.6412  1.8209
 4683SOL     OW20140   8.187   5.853  10.869 -0.0670 -0.4694  0.0068
 4683SOL    HW120141   8.253   5.922  10.869 -0.0728 -0.4555  0.5132
 4683SOL    HW220142   8.110   5.893  10.831  0.0271 -0.2905  0.0041
 4684SOL     OW20143  10.162  10.196  10.086  0.2691 -0.2729 -0.3086
 4684SOL    HW120144  10.096  10.228  10.025  0.1726 -1.3532 -0.8023
 4684SOL    HW220145  10.131  10.223  10.172 -0.0411  0.5238 -0.6675
 4685SOL     OW20146   7.706   4.251   6.312 -0.1078  0.1748 -0.1260
 4685SOL    HW120147   7.740   4.224   6.398  1.7517 -1.4361 -1.2599
 4685SOL    HW220148   7.622   4.206   6.305  0.6649 -1.3953  0.0696
 4686SOL     OW20149   8.562   9.285  10.581  0.1622  0.3348 -0.7542
 4686SOL    HW120150   8.646   9.241  10.567 -0.5669 -1.1339 -0.6760
 4686SOL    HW220151   8.586   9.373  10.610  1.6741 -0.4678  0.5683
 4687SOL     OW20152   7.213  10.670   7.554 -0.2229  0.3803  0.5764
 4687SOL    HW120153   7.208  10.587   7.602  0.6072  0.2107  0.3937
 4687SOL    HW220154   7.164  10.654   7.474 -0.5636  0.2563  0.8086
 4688SOL     OW20155   5.625   5.104   9.178  0.3481  0.2931  0.0216
 4688SOL    HW120156   5.664   5.192   9.182 -0.6359  0.7446 -0.1257
 4688SOL    HW220157   5.562   5.109   9.107 -1.3983  0.1744  1.4869
 4689SOL     OW20158   5.645   9.863   8.364 -0.4874 -0.1950 -0.4834
 4689SOL    HW120159   5.596   9.936   8.402 -0.9644 -1.1689  0.8462
 4689SOL    HW220160   5.684   9.818   8.439  0.7213 -0.6677 -1.3607
 4690SOL     OW20161   6.992  10.298   9.675  0.5065 -0.6348  0.1883
 4690SOL    HW120162   7.078  10.261   9.655  0.4331 -0.4787 -0.4315
 4690SOL    HW220163   6.987  10.376   9.620 -0.9994 -1.9141 -1.6070
 4691SOL     OW20164   9.274   9.206   7.754 -0.9308 -0.0951 -0.4632
 4691SOL    HW120165   9.225   9.226   7.674 -0.3978 -0.5919 -0.9237
 4691SOL    HW220166   9.357   9.169   7.722 -0.9105 -0.7456  0.3268
 4692SOL     OW20167   0.215   9.878   5.395 -0.1023 -0.6431  0.2480
 4692SOL    HW120168   0.226   9.833   5.478 -1.7564  0.1346  0.9396
 4692SOL    HW220169   0.137   9.932   5.407  1.0313  1.3848 -0.9850
 4693SOL     OW20170   1.998   6.986   1.805  0.0706 -0.4666  0.0538
 4693SOL    HW120171   1.968   6.993   1.714  0.0761 -0.2976  0.0651
 4693SOL    HW220172   1.924   7.015   1.857  0.6607  1.1638  0.0348
 4694SOL     OW20173   3.181   4.401   0.837  0.0579 -0.2757 -0.2055
 4694SOL    HW120174   3.177   4.318   0.790  0.6466  0.1205 -0.9906
 4694SOL    HW220175   3.216   4.463   0.773  1.3975  0.1793  0.9026
 4695SOL     OW20176  10.864   6.367   0.635 -0.8118 -0.3759  0.3553
 4695SOL    HW120177  10.871   6.434   0.704 -1.3443 -0.9632  0.9882
 4695SOL    HW220178  10.892   6.286   0.677  0.9618 -0.3645 -0.7402
 4696SOL     OW20179   3.011   6.739   1.832 -0.3589  0.2320  0.0321
 4696SOL    HW120180   3.069   6.682   1.882  1.1557  1.7775  0.1382
 4696SOL    HW220181   2.938   6.757   1.892  0.0979 -0.0929  0.7040
 4697SOL     OW20182   5.026   1.121   8.844 -0.0623 -0.5518 -0.5652
 4697SOL    HW120183   4.997   1.033   8.869  0.2066 -1.2133 -2.4069
 4697SOL    HW220184   4.950   1.161   8.802 -0.4729  0.4873  1.0815
 4698SOL     OW20185   7.997   5.574  10.645  0.4714 -0.3730 -0.0524
 4698SOL    HW120186   8.073   5.519  10.663  0.0432 -0.8965  0.1940
 4698SOL    HW220187   7.951   5.528  10.574  0.3828 -0.0613 -0.1990
 4699SOL     OW20188  10.564   9.414   9.543 -0.1250  0.2228 -0.0515
 4699SOL    HW120189  10.491   9.429   9.603 -0.4965 -0.1173 -0.4027
 4699SOL    HW220190  10.622   9.354   9.589 -1.2452 -1.4070 -0.6443
 4700SOL     OW20191   6.624   8.545   9.393  0.3832 -0.6746  1.0048
 4700SOL    HW120192   6.701   8.601   9.397  0.4452 -0.6594 -0.0572
 4700SOL    HW220193   6.650   8.471   9.338 -0.7186 -0.0315 -0.4636
 4701SOL     OW20194   9.795  10.754   7.046 -0.0719 -0.3899 -0.0778
 4701SOL    HW120195   9.781  10.714   7.132 -1.5234 -1.9109 -0.9599
 4701SOL    HW220196   9.879  10.720   7.017  0.3006 -0.0762  0.6061
 4702SOL     OW20197   4.047   2.643   8.800  0.2342 -0.5997 -0.0154
 4702SOL    HW120198   4.053   2.677   8.889 -0.4996 -0.4785 -0.0016
 4702SOL    HW220199   4.011   2.555   8.811  2.2234 -1.4682 -0.0419
 4703SOL     OW20200   1.884   7.091   3.464 -0.3552 -0.4272 -0.5097
 4703SOL    HW120201   1.852   7.135   3.542  1.0747 -0.7070  0.2653
 4703SOL    HW220202   1.975   7.071   3.483 -0.6977 -2.9609 -1.1559
 4704SOL     OW20203   8.416   3.201   0.991 -0.1290  0.2636  0.3729
 4704SOL    HW120204   8.503   3.172   1.017 -0.1345 -1.0567 -0.9367
 4704SOL    HW220205   8.410   3.292   1.022  2.8938  1.4893 -2.1176
 4705SOL     OW20206   7.032   3.383   7.031 -0.5584 -0.3285 -0.5581
 4705SOL    HW120207   7.043   3.358   6.940  2.1069  1.5609 -0.8550
 4705SOL    HW220208   7.074   3.468   7.039 -2.5570  0.5858  2.0199
 4706SOL     OW20209   9.286   4.275   9.242 -0.3152  0.1383  0.3924
 4706SOL    HW120210   9.209   4.243   9.195 -1.5357  0.3836  2.1625
 4706SOL    HW220211   9.326   4.338   9.181 -2.4552  1.2631  0.0407
 4707SOL     OW20212   0.840   4.414   5.223 -0.1036 -0.2761 -0.0620
 4707SOL    HW120213   0.908   4.453   5.168 -0.7632  0.1891 -0.5662
 4707SOL    HW220214   0.827   4.479   5.293 -1.4442  0.6069 -1.0916
 4708SOL     OW20215   6.565   3.345   3.745  0.2210  0.1992 -0.6739
 4708SOL    HW120216   6.514   3.318   3.821  0.0754  1.5014 -0.2827
 4708SOL    HW220217   6.521   3.303   3.671  0.0157 -0.6094 -0.1040
 4709SOL     OW20218   6.414   3.208   7.119 -0.0409  0.2098  0.0025
 4709SOL    HW120219   6.390   3.116   7.109 -0.4269  0.3057  0.0541
 4709SOL    HW220220   6.494   3.206   7.172 -1.8784  0.0627  2.9915
 4710SOL     OW20221   4.001   3.096   8.150  0.1963 -0.6999  0.1288
 4710SOL    HW120222   4.018   3.020   8.207  0.0646 -0.8659 -0.0503
 4710SOL    HW220223   3.945   3.061   8.081  1.1232 -0.7312 -0.6342
 4711SOL     OW20224   3.596   3.149   0.199  0.0607 -0.3105 -0.6331
 4711SOL    HW120225   3.511   3.175   0.164  0.3763  0.7581 -0.6216
 4711SOL    HW220226   3.656   3.157   0.124  0.0063 -1.9639 -0.8982
 4712SOL     OW20227   0.815   1.499   9.129 -0.3180  0.2463 -0.0001
 4712SOL    HW120228   0.748   1.503   9.061 -2.2517  0.8086  1.8288
 4712SOL    HW220229   0.897   1.485   9.081 -1.4916  1.1495 -2.4464
 4713SOL     OW20230   6.592   6.435   0.800  0.2332  0.2399  0.0778
 4713SOL    HW120231   6.522   6.445   0.736 -0.4966 -2.6027  0.2940
 4713SOL    HW220232   6.577   6.504   0.864 -2.6678 -0.4924  0.3255
 4714SOL     OW20233   2.460   2.833   3.078 -0.1496 -0.0757 -0.0438
 4714SOL    HW120234   2.489   2.849   2.988  1.4733 -0.5660  0.3607
 4714SOL    HW220235   2.511   2.893   3.131 -2.2682  1.4028  0.4682
 4715SOL     OW20236   9.064   8.705   7.403 -0.2775 -0.5886 -0.1297
 4715SOL    HW120237   9.010   8.627   7.416  0.1649 -0.6449  1.5138
 4715SOL    HW220238   9.002   8.772   7.372 -1.3495 -0.6205  1.8376
 4716SOL     OW20239   3.704   4.710   4.102 -0.7070 -0.0121  0.2821
 4716SOL    HW120240   3.792   4.744   4.116 -0.1493 -0.8354 -1.0494
 4716SOL    HW220241   3.713   4.615   4.111 -1.5756 -0.0580  0.7287
 4717SOL     OW20242   2.360   0.431   4.871 -0.5241  0.2591  0.2386
 4717SOL    HW120243   2.345   0.507   4.816  0.1596  0.3296  0.1359
 4717SOL    HW220244   2.430   0.458   4.931 -0.3671 -0.2461  0.2853
 4718SOL     OW20245   9.152   0.017   3.533  0.7128 -0.1767 -0.2631
 4718SOL    HW120246   9.196   0.042   3.614  0.4478  1.2384 -0.5340
 4718SOL    HW220247   9.189  -0.069   3.512  0.8774 -0.5171  1.2794
 4719SOL     OW20248   3.692   3.985   4.814  1.3694 -0.1145  0.4114
 4719SOL    HW120249   3.697   3.897   4.852  0.6213 -0.7613 -0.8953
 4719SOL    HW220250   3.766   3.989   4.753  0.4331 -0.5193 -0.8050
 4720SOL     OW20251   6.326   5.835   5.171  0.3991  0.1260  0.0498
 4720SOL    HW120252   6.371   5.919   5.160  0.4319  0.1681  0.4847
 4720SOL    HW220253   6.233   5.857   5.170  0.3959  0.5169  2.5852
 4721SOL     OW20254   3.315   3.681   8.986 -0.0213 -0.3792  1.1768
 4721SOL    HW120255   3.382   3.617   8.966 -0.6760 -0.7832  0.1531
 4721SOL    HW220256   3.242   3.630   9.023 -0.8357 -0.3830 -0.3343
 4722SOL     OW20257   2.484   3.244   8.701  0.0202 -0.2828 -0.6645
 4722SOL    HW120258   2.436   3.176   8.652 -0.3198 -0.7464  0.2820
 4722SOL    HW220259   2.575   3.212   8.702 -0.3044 -1.2586  0.6159
 4723SOL     OW20260   8.594   5.123   3.147 -0.3317 -0.0483  0.8070
 4723SOL    HW120261   8.657   5.154   3.212 -1.0757  0.2551  1.4049
 4723SOL    HW220262   8.515   5.174   3.165 -0.7196 -0.3573  0.0158
 4724SOL     OW20263   3.861  10.914  10.386 -0.0740  0.1575  0.9792
 4724SOL    HW120264   3.951  10.934  10.362 -0.1934 -0.5067 -0.0908
 4724SOL    HW220265   3.828  10.995  10.425  0.0426  1.4817 -1.4817
 4725SOL     OW20266   4.775  10.789   9.728  0.1384  0.2988  0.3890
 4725SOL    HW120267   4.846  10.852   9.737 -0.6332  1.6190 -1.8033
 4725SOL    HW220268   4.705  10.837   9.683 -1.7305 -1.2534  1.4496
 4726SOL     OW20269   8.472   3.688  10.370 -0.4603  0.0752 -0.0249
 4726SOL    HW120270   8.435   3.777  10.371  0.8779  0.6999 -1.2030
 4726SOL    HW220271   8.414   3.639  10.312 -0.7805  0.3880  0.0274
 4727SOL     OW20272   4.138  10.306  10.210  0.8467  0.3809  0.2303
 4727SOL    HW120273   4.162  10.233  10.153 -2.8081 -0.1541 -0.8562
 4727SOL    HW220274   4.093  10.265  10.284 -0.4456  1.4084  0.0604
 4728SOL     OW20275   2.970   5.944   7.491  0.8134  0.4345 -0.5855
 4728SOL    HW120276   2.952   5.876   7.555  1.0036  1.1336  0.2289
 4728SOL    HW220277   2.899   5.936   7.426  1.2996 -1.0643 -0.9749
 4729SOL     OW20278   8.487   2.315   4.061  0.0579 -0.4442  0.4694
 4729SOL    HW120279   8.542   2.252   4.015  0.6438 -0.1775  0.7959
 4729SOL    HW220280   8.526   2.400   4.040 -0.3001 -0.2447  0.6090
 4730SOL     OW20281   5.142  10.851   8.140 -0.6706  0.2343 -0.9739
 4730SOL    HW120282   5.088  10.893   8.207  0.2915 -0.9591  0.6070
 4730SOL    HW220283   5.082  10.835   8.067 -3.2284 -3.2828  1.5845
 4731SOL     OW20284   7.728   8.278   2.430 -0.2734  0.4417 -0.5767
 4731SOL    HW120285   7.731   8.338   2.356  0.8331  0.6908 -0.3458
 4731SOL    HW220286   7.639   8.241   2.428 -0.8789  1.8601 -0.8959
 4732SOL     OW20287   0.056   1.162   2.387 -0.2526  0.0618 -0.2368
 4732SOL    HW120288  -0.034   1.134   2.369  0.1952 -0.2621 -2.2248
 4732SOL    HW220289   0.104   1.081   2.403 -0.5621  0.3142  2.4996
 4733SOL     OW20290   8.974   5.132   8.981 -0.2747  0.0688  0.2683
 4733SOL    HW120291   9.008   5.182   8.908 -0.5654 -1.2809 -0.8312
 4733SOL    HW220292   9.051   5.099   9.027 -0.0383 -1.6760 -1.2915
 4734SOL     OW20293   6.029   6.273   4.023 -0.4370 -0.1481 -0.1371
 4734SOL    HW120294   5.942   6.234   4.033 -0.9517  1.2219  1.0215
 4734SOL    HW220295   6.068   6.227   3.949 -0.5803 -3.6338  1.7217
 4735SOL     OW20296   4.592   4.339   3.407 -0.1765  0.6531 -0.3968
 4735SOL    HW120297   4.662   4.403   3.393  0.4448 -0.2595 -1.7376
 4735SOL    HW220298   4.567   4.311   3.319 -1.8230  0.4926  0.0773
 4736SOL     OW20299   4.106   0.181   4.919 -0.0383 -0.0660  0.5862
 4736SOL    HW120300   4.196   0.182   4.886 -0.6225 -2.0300 -1.2481
 4736SOL    HW220301   4.110   0.132   5.000  0.2366 -2.4100 -0.7615
 4737SOL     OW20302   8.660   2.554   1.321 -0.0649 -0.3261  0.0670
 4737SOL    HW120303   8.652   2.575   1.414  3.4393  0.1780  0.4145
 4737SOL    HW220304   8.571   2.538   1.291 -1.3260 -0.2347  3.4339
 4738SOL     OW20305   1.184   2.345   8.705 -0.5005 -0.3794 -0.3882
 4738SOL    HW120306   1.249   2.414   8.688  2.1875 -2.1144  1.8668
 4738SOL    HW220307   1.130   2.380   8.776 -1.8801  0.9228 -2.0084
 4739SOL     OW20308   3.988   1.961   0.381  0.2064  0.3985 -0.2814
 4739SOL    HW120309   4.019   1.871   0.390  0.6061  0.4599 -0.9429
 4739SOL    HW220310   3.967   1.969   0.288  0.5146  1.0905 -0.2975
 4740SOL     OW20311   8.613  10.300   4.953 -0.1261 -0.2413 -0.4378
 4740SOL    HW120312   8.541  10.256   4.907 -0.4314 -0.1131 -0.0918
 4740SOL    HW220313   8.619  10.386   4.911  1.0923 -0.9310 -1.7438
 4741SOL     OW20314   3.092   3.899   4.539 -0.7627 -0.2727 -0.1894
 4741SOL    HW120315   3.100   3.965   4.608 -0.0268  0.2476 -0.7403
 4741SOL    HW220316   3.063   3.820   4.583 -0.1764  0.0165  0.7294
 4742SOL     OW20317   5.863   8.984   4.132 -0.2339 -0.3982  0.2442
 4742SOL    HW120318   5.859   9.079   4.116  0.8223 -0.2709  0.6555
 4742SOL    HW220319   5.940   8.973   4.188 -0.0715 -1.5643 -0.2032
 4743SOL     OW20320  10.736   3.664  10.513  0.0671 -0.4338  0.3592
 4743SOL    HW120321  10.728   3.570  10.493  0.9248 -0.6719  1.0791
 4743SOL    HW220322  10.756   3.705  10.429  0.3857 -0.9898  0.1561
 4744SOL     OW20323   8.170  10.262   6.756  0.2155  0.3824  0.4845
 4744SOL    HW120324   8.194  10.218   6.675  0.1026  1.1764  0.0053
 4744SOL    HW220325   8.245  10.248   6.814 -0.5663 -1.9771  1.0153
 4745SOL     OW20326   5.587   9.071   0.040 -0.4087  0.5110  0.1977
 4745SOL    HW120327   5.649   9.020   0.092 -0.7903 -0.8476 -0.6046
 4745SOL    HW220328   5.629   9.156   0.029  1.2919 -0.3224 -0.2348
 4746SOL     OW20329   2.708   0.363   2.979  0.7342  0.6370 -0.0704
 4746SOL    HW120330   2.651   0.423   2.932  1.0501  0.1629 -1.0803
 4746SOL    HW220331   2.795   0.401   2.971  0.6896  0.9509  0.8014
 4747SOL     OW20332   4.596   9.616   2.918 -0.1468  0.0500 -0.2930
 4747SOL    HW120333   4.674   9.564   2.895  0.1548  0.1962  0.3565
 4747SOL    HW220334   4.580   9.671   2.842 -1.4023 -2.0598 -1.6554
 4748SOL     OW20335   2.801  10.537   6.798 -0.4816  0.1403  0.5066
 4748SOL    HW120336   2.722  10.483   6.803  0.5897 -1.4285  1.3245
 4748SOL    HW220337   2.832  10.525   6.708  0.2787 -1.4500  0.9509
 4749SOL     OW20338   5.804   8.152   3.068  0.5172 -0.5918 -0.3796
 4749SOL    HW120339   5.774   8.069   3.106 -0.8499  0.2534  0.4471
 4749SOL    HW220340   5.724   8.201   3.050  1.2999  0.5069 -0.9610
 4750SOL     OW20341   2.305   2.798  10.922  0.0045 -0.3369 -0.3423
 4750SOL    HW120342   2.282   2.848  10.843  1.0090  2.4083  0.9519
 4750SOL    HW220343   2.237   2.731  10.928 -0.8350  0.1630 -2.8295
 4751SOL     OW20344  10.857   2.471   6.411 -0.5342 -0.1214 -0.2921
 4751SOL    HW120345  10.884   2.542   6.353  2.4064  0.6168  1.7693
 4751SOL    HW220346  10.921   2.401   6.394 -0.3457 -0.3360  1.2129
 4752SOL     OW20347  10.233   8.025   2.661 -0.4421  0.3294 -0.3869
 4752SOL    HW120348  10.141   8.054   2.662 -0.3463  0.6260 -0.0142
 4752SOL    HW220349  10.268   8.053   2.746  0.2125  0.8959 -0.8392
 4753SOL     OW20350   8.339   6.649   5.397  0.1573  0.4263  0.3496
 4753SOL    HW120351   8.283   6.579   5.362  0.9949 -0.6779  1.1335
 4753SOL    HW220352   8.399   6.670   5.326  0.4762 -0.2960  0.3989
 4754SOL     OW20353   5.253   9.554   5.730  0.6962  0.1997 -0.2339
 4754SOL    HW120354   5.192   9.568   5.658 -0.2205  3.8077  1.0223
 4754SOL    HW220355   5.333   9.600   5.703  0.4249  1.3776  0.8702
 4755SOL     OW20356   8.475   5.822   6.187 -0.6100 -0.1390 -0.0302
 4755SOL    HW120357   8.550   5.805   6.130  0.1129  0.6049  0.6767
 4755SOL    HW220358   8.513   5.831   6.274 -1.6238 -0.5346  0.4657
 4756SOL     OW20359  10.087   3.237   4.139 -0.0766  0.1527  0.2161
 4756SOL    HW120360  10.051   3.155   4.107  1.3224  0.4638 -2.4035
 4756SOL    HW220361  10.166   3.212   4.186  1.0299 -0.0088 -1.6278
 4757SOL     OW20362  10.122   0.722   5.411 -0.3278  0.0500  0.1773
 4757SOL    HW120363  10.218   0.719   5.417 -0.2824 -0.3292 -0.5927
 4757SOL    HW220364  10.102   0.682   5.326 -1.1198  0.9269 -0.0611
 4758SOL     OW20365   9.243   9.730   4.895 -0.0588 -0.1670  0.1740
 4758SOL    HW120366   9.230   9.822   4.872  0.0691 -0.2122 -0.0977
 4758SOL    HW220367   9.311   9.700   4.833 -0.4505 -0.5703 -0.0690
 4759SOL     OW20368   3.556   7.418   9.462  0.0122  0.2784 -0.0506
 4759SOL    HW120369   3.503   7.483   9.508 -0.3674  0.4063 -0.6419
 4759SOL    HW220370   3.605   7.468   9.397 -1.1278 -0.1093 -1.2826
 4760SOL     OW20371   4.682  10.879   9.135 -0.7940  0.5766 -0.4072
 4760SOL    HW120372   4.701  10.971   9.151 -2.0466  0.5579  1.4576
 4760SOL    HW220373   4.726  10.832   9.206  0.7728 -0.4354 -1.9361
 4761SOL     OW20374   0.103   1.592   5.343  0.2863 -0.0578 -0.2775
 4761SOL    HW120375   0.150   1.635   5.271  0.9153  0.2155  0.2866
 4761SOL    HW220376   0.027   1.552   5.301  0.2286  0.7527 -0.9755
 4762SOL     OW20377   9.100   4.481  10.034  0.4165  0.0789  0.1200
 4762SOL    HW120378   9.154   4.411  10.070 -0.3553 -0.5135  0.1402
 4762SOL    HW220379   9.014   4.469  10.074  0.0099  0.4432 -0.6172
 4763SOL     OW20380   8.522   0.985   9.421 -0.0422 -0.2612 -0.9311
 4763SOL    HW120381   8.594   0.924   9.434  1.6566  1.8066  0.1123
 4763SOL    HW220382   8.444   0.940   9.453  1.3654 -1.3620  1.1148
 4764SOL     OW20383   2.718   7.141   6.174 -0.7268  0.1309  0.0058
 4764SOL    HW120384   2.811   7.129   6.193 -0.7304 -1.0228 -0.6788
 4764SOL    HW220385   2.697   7.227   6.212  0.2098 -0.3339  1.6657
 4765SOL     OW20386   8.441  10.183   8.116 -0.1181  0.1901  1.0568
 4765SOL    HW120387   8.514  10.130   8.148 -0.5644 -0.6502  0.7078
 4765SOL    HW220388   8.410  10.231   8.193 -1.4452 -2.1101  2.0441
 4766SOL     OW20389   6.186   3.317   0.473 -0.3242  0.0611  0.4733
 4766SOL    HW120390   6.092   3.297   0.471 -0.0806 -1.1727  0.7233
 4766SOL    HW220391   6.212   3.319   0.381 -0.4204 -0.5332  0.4269
 4767SOL     OW20392   7.865   0.045   4.086 -0.3178 -0.3530 -0.0096
 4767SOL    HW120393   7.874   0.127   4.039  0.9460 -0.8906 -0.7442
 4767SOL    HW220394   7.940   0.042   4.145 -0.7108 -0.6847  0.4898
 4768SOL     OW20395   8.793   2.101   8.441  0.0004  0.0634  0.1654
 4768SOL    HW120396   8.757   2.185   8.414  2.5695  1.4483  0.7472
 4768SOL    HW220397   8.782   2.044   8.365  1.1105  1.9039 -1.4770
 4769SOL     OW20398   2.738   0.482   4.787  0.1541 -0.0678 -0.7642
 4769SOL    HW120399   2.649   0.511   4.810  1.0911  1.1145  1.8559
 4769SOL    HW220400   2.767   0.545   4.721 -0.6867  0.0161 -1.0669
 4770SOL     OW20401  10.811   2.563   3.898  0.0649  0.6862 -0.3782
 4770SOL    HW120402  10.811   2.483   3.845 -1.4989 -0.0306  0.6170
 4770SOL    HW220403  10.793   2.633   3.835 -0.5411  0.0065 -0.9866
 4771SOL     OW20404   0.155  10.693  10.463 -0.3858  0.2373 -0.2950
 4771SOL    HW120405   0.214  10.655  10.398  0.2648  0.6275  0.0529
 4771SOL    HW220406   0.197  10.775  10.489  0.7470 -1.0666  2.5106
 4772SOL     OW20407  10.113   9.725   9.002 -0.2541 -0.3311  0.7546
 4772SOL    HW120408  10.093   9.645   9.052 -0.3522 -1.2197 -0.6539
 4772SOL    HW220409  10.117   9.696   8.911  0.3905  1.1634  0.2783
 4773SOL     OW20410   8.441   6.258   5.543 -0.9219  1.0162 -0.1390
 4773SOL    HW120411   8.435   6.166   5.518 -1.8889  0.8940  0.5106
 4773SOL    HW220412   8.424   6.259   5.637 -1.7351  1.9494 -0.2832
 4774SOL     OW20413  10.028   8.704   5.536 -0.1196 -0.4528  0.3287
 4774SOL    HW120414  10.013   8.648   5.612  0.6568 -0.6667  0.3309
 4774SOL    HW220415   9.947   8.697   5.485 -0.1909 -1.2477  0.5393
 4775SOL     OW20416   9.655   7.585   3.597 -0.1536 -0.0659 -0.5245
 4775SOL    HW120417   9.718   7.657   3.602  1.1836 -1.2207  0.3157
 4775SOL    HW220418   9.603   7.593   3.677 -0.8208  0.6633 -1.0262
 4776SOL     OW20419   9.957  10.111   3.737 -0.5888  0.1555  0.4108
 4776SOL    HW120420  10.007  10.099   3.656 -0.7686 -0.1790  0.3492
 4776SOL    HW220421   9.990  10.193   3.773  0.3131 -0.2779  0.6016
 4777SOL     OW20422   4.887   8.386   4.022 -0.5014  0.7212  0.1093
 4777SOL    HW120423   4.837   8.353   4.096 -0.8694 -0.4471 -0.6304
 4777SOL    HW220424   4.953   8.443   4.061 -0.3871 -0.2284  1.3806
 4778SOL     OW20425   6.790  10.124   8.584 -0.4188  0.2864 -0.0243
 4778SOL    HW120426   6.755  10.039   8.608  0.2879  0.4157  1.5657
 4778SOL    HW220427   6.766  10.135   8.492  0.0785 -1.9258 -0.4702
 4779SOL     OW20428   4.535   5.101   0.283  0.0372  0.9697 -0.0490
 4779SOL    HW120429   4.493   5.049   0.214  0.2682 -1.0737  1.2663
 4779SOL    HW220430   4.471   5.104   0.354  1.4471 -0.8681  1.3816
 4780SOL     OW20431  10.631   5.956   8.220 -0.2129 -0.0813  0.1791
 4780SOL    HW120432  10.611   5.993   8.307  1.0784  0.4541  0.2600
 4780SOL    HW220433  10.602   6.023   8.159  1.4399  0.7918  0.3051
 4781SOL     OW20434   8.546   2.280   5.439  0.0400  0.3473  0.1864
 4781SOL    HW120435   8.500   2.268   5.355 -1.1469 -1.3527  1.0150
 4781SOL    HW220436   8.624   2.331   5.417 -1.3616  1.8588 -1.5733
 4782SOL     OW20437   7.214   5.639   6.226  0.3842  0.3403 -0.4565
 4782SOL    HW120438   7.219   5.726   6.188  0.5248  0.2465 -0.6584
 4782SOL    HW220439   7.297   5.629   6.274  0.7822 -0.0228 -1.1917
 4783SOL     OW20440   3.511   2.568   4.180 -0.6201  0.5530 -0.0603
 4783SOL    HW120441   3.539   2.654   4.211 -0.3328  0.6372 -0.5357
 4783SOL    HW220442   3.438   2.587   4.120 -0.3265  0.4930 -0.4373
 4784SOL     OW20443   1.888   1.963   0.957 -0.9782 -0.4425 -0.4033
 4784SOL    HW120444   1.889   1.869   0.938  0.5396 -0.2604 -1.4047
 4784SOL    HW220445   1.954   1.974   1.025  0.1435  0.1117 -1.5501
 4785SOL     OW20446   1.642   0.682   8.903 -0.0832  0.2555  0.5888
 4785SOL    HW120447   1.616   0.670   8.812 -0.0659  0.6918  0.5245
 4785SOL    HW220448   1.732   0.651   8.907  0.5691  1.9628  0.0318
 4786SOL     OW20449   9.753   9.195   2.798 -0.4741  0.3557  0.1122
 4786SOL    HW120450   9.829   9.253   2.793 -2.1103  2.6612  0.1258
 4786SOL    HW220451   9.789   9.109   2.817  2.2504  0.9874 -1.5954
 4787SOL     OW20452   6.784   1.695   7.904  0.1446 -0.1064  0.5791
 4787SOL    HW120453   6.795   1.786   7.876 -1.7907  0.3002  1.0116
 4787SOL    HW220454   6.826   1.643   7.835  1.6290  1.0956  0.5283
 4788SOL     OW20455  10.628   6.595  10.474  0.8329  0.4532 -0.0868
 4788SOL    HW120456  10.603   6.687  10.458 -0.4065  0.1114 -0.2238
 4788SOL    HW220457  10.553   6.545  10.442  0.2905 -0.5085  2.4601
 4789SOL     OW20458   4.132   6.630   4.983 -0.3232  0.3051  0.4962
 4789SOL    HW120459   4.079   6.680   5.044 -1.9183 -1.0651  0.3127
 4789SOL    HW220460   4.100   6.540   4.992 -0.3473 -0.0208 -2.0347
 4790SOL     OW20461   8.428   0.227   7.181  0.2885  0.6246  0.3967
 4790SOL    HW120462   8.422   0.131   7.189  1.8082  0.6468  3.7457
 4790SOL    HW220463   8.338   0.256   7.168 -0.2106 -1.2379 -0.6973
 4791SOL     OW20464   9.024   0.059   7.086  0.2120 -0.5920 -0.1655
 4791SOL    HW120465   8.982   0.141   7.111 -4.1252 -2.7233  0.5086
 4791SOL    HW220466   9.113   0.066   7.119  0.2269  3.9269 -0.5736
 4792SOL     OW20467   6.826   1.905   2.941 -0.4325 -0.2573 -0.2335
 4792SOL    HW120468   6.799   1.929   3.029  0.9482  0.3467  0.0495
 4792SOL    HW220469   6.817   1.985   2.889  0.1695 -0.2202 -0.2871
 4793SOL     OW20470   1.260   9.810   4.958 -0.2837  0.0790 -0.1931
 4793SOL    HW120471   1.179   9.856   4.981  0.4181  1.0343  0.4349
 4793SOL    HW220472   1.322   9.880   4.938  0.4542 -0.6392 -0.4627
 4794SOL     OW20473   6.045   0.124   6.384  0.3048 -0.1865 -0.3149
 4794SOL    HW120474   6.066   0.078   6.303  0.9803  0.6700 -0.6455
 4794SOL    HW220475   6.004   0.206   6.356  0.9972  0.3441  0.1665
 4795SOL     OW20476  10.475   3.749   7.000 -0.3458 -0.2174 -0.0178
 4795SOL    HW120477  10.508   3.774   6.914  2.5278  0.3840  1.1772
 4795SOL    HW220478  10.544   3.694   7.037 -0.5914  1.1367  2.6644
 4796SOL     OW20479   3.922   5.856   3.263 -0.4260 -0.1804 -0.1862
 4796SOL    HW120480   3.828   5.868   3.278 -0.4039 -0.6227  0.3640
 4796SOL    HW220481   3.928   5.813   3.178 -0.5978  1.9164 -1.3107
 4797SOL     OW20482   1.024  10.919  10.206 -0.0136 -0.7057 -0.1046
 4797SOL    HW120483   1.054  10.896  10.118  0.1324  1.0819 -0.5629
 4797SOL    HW220484   1.086  10.876  10.265  0.3709 -1.2422 -0.8896
 4798SOL     OW20485   3.834   8.325   4.840  0.0476  0.7423  0.1652
 4798SOL    HW120486   3.899   8.332   4.770  0.1484  0.2536  0.2084
 4798SOL    HW220487   3.879   8.360   4.917 -0.6512  2.9798 -0.3656
 4799SOL     OW20488   6.410  10.487  10.216  0.7439 -0.4873  0.4234
 4799SOL    HW120489   6.442  10.570  10.181 -0.0191  0.0269  0.9098
 4799SOL    HW220490   6.484  10.450  10.262  1.1084 -0.1032  0.1544
 4800SOL     OW20491   4.108  10.259   1.695 -0.0226  0.1479 -0.2124
 4800SOL    HW120492   4.048  10.239   1.623 -0.5039  1.1842 -0.1142
 4800SOL    HW220493   4.065  10.225   1.773 -1.0896  1.9265  0.0291
 4801SOL     OW20494   4.520   7.793   9.157 -0.1877 -0.0439  0.1649
 4801SOL    HW120495   4.563   7.776   9.242  0.9303 -1.4268 -0.6174
 4801SOL    HW220496   4.560   7.729   9.098 -1.5395  0.3495 -1.2270
 4802SOL     OW20497   1.451  10.099   5.546 -0.1165  0.5351 -0.1390
 4802SOL    HW120498   1.451  10.029   5.481 -0.2490  0.1500  0.2661
 4802SOL    HW220499   1.359  10.104   5.575  0.4239 -1.5747  2.3870
 4803SOL     OW20500   2.269   7.073   5.897 -0.1636  0.2570 -0.2061
 4803SOL    HW120501   2.288   7.105   5.986  0.2706 -0.5054 -0.0101
 4803SOL    HW220502   2.174   7.078   5.889 -0.0877  1.9860 -0.3466
 4804SOL     OW20503   2.087  10.408   1.041  0.1231 -0.3494  0.0036
 4804SOL    HW120504   1.993  10.388   1.042  0.2008 -0.8670 -1.2348
 4804SOL    HW220505   2.113  10.395   0.950  1.6966 -1.6347  0.5930
 4805SOL     OW20506   3.524   3.431   7.888  0.0857 -0.2420  0.4249
 4805SOL    HW120507   3.611   3.435   7.848 -0.2161 -2.8606 -0.7177
 4805SOL    HW220508   3.517   3.341   7.920 -1.0978  0.7684  3.2650
 4806SOL     OW20509  10.686   8.406   6.387  0.4037 -0.2584  0.4053
 4806SOL    HW120510  10.653   8.483   6.433 -0.8498 -0.8541  0.5537
 4806SOL    HW220511  10.618   8.339   6.401  0.6421 -0.8681 -1.1432
 4807SOL     OW20512   8.190  10.678   7.219 -0.3504 -0.3772 -0.0393
 4807SOL    HW120513   8.204  10.624   7.140 -1.0550  1.3623 -1.4238
 4807SOL    HW220514   8.213  10.620   7.291 -0.2108 -2.2437 -1.4813
 4808SOL     OW20515   5.268   3.730   9.483 -0.3191  0.4346  0.4312
 4808SOL    HW120516   5.270   3.742   9.578  0.8158  0.0273  0.4686
 4808SOL    HW220517   5.359   3.739   9.455 -0.7903  1.8052 -0.7886
 4809SOL     OW20518   0.063   5.789   6.784  0.2611 -0.0422 -0.3729
 4809SOL    HW120519   0.082   5.747   6.868 -0.3294 -0.7552 -0.5859
 4809SOL    HW220520   0.003   5.860   6.805  0.6247  0.1917 -0.1130
 4810SOL     OW20521   4.187   5.059   8.849 -0.5011  0.0727  0.1887
 4810SOL    HW120522   4.265   5.067   8.903  0.0078 -0.0481 -0.5220
 4810SOL    HW220523   4.200   4.979   8.799 -1.5759 -0.5427  0.8405
 4811SOL     OW20524   3.538   6.875   5.478  0.5501  0.0522  0.0759
 4811SOL    HW120525   3.473   6.937   5.512  0.7694  0.4821 -0.2673
 4811SOL    HW220526   3.519   6.793   5.522 -0.5416  0.0411 -0.3771
 4812SOL     OW20527   6.625   4.382   1.821 -0.1225  0.3578 -0.0116
 4812SOL    HW120528   6.594   4.407   1.908  0.4042  3.7142 -0.6293
 4812SOL    HW220529   6.711   4.342   1.837  0.3889  1.7689  1.0160
 4813SOL     OW20530  10.863   1.156   7.892 -0.0227  0.3048  0.2250
 4813SOL    HW120531  10.768   1.144   7.898  0.1218 -0.7715  0.5162
 4813SOL    HW220532  10.895   1.077   7.847  0.7787  0.4708  0.4854
 4814SOL     OW20533   5.804   6.093   7.137  0.3222 -0.0327  0.2739
 4814SOL    HW120534   5.735   6.030   7.155  0.5898 -0.9790 -1.8220
 4814SOL    HW220535   5.884   6.051   7.169  0.2418  0.1389  0.7161
 4815SOL     OW20536   3.331  10.247   9.301 -0.2322  0.4573  0.3627
 4815SOL    HW120537   3.296  10.159   9.285 -0.6843  0.6930  0.0590
 4815SOL    HW220538   3.404  10.255   9.240 -0.3693  0.3978  0.1894
 4816SOL     OW20539  10.508   6.925   0.566 -1.1392  0.1859  0.1941
 4816SOL    HW120540  10.449   6.865   0.520 -0.7759  1.2931 -1.8331
 4816SOL    HW220541  10.451   6.991   0.604 -1.3111  0.6330 -0.8136
 4817SOL     OW20542   0.324   6.939   0.105  0.0219 -0.0329 -0.1815
 4817SOL    HW120543   0.301   6.914   0.194 -0.6254  0.0838 -0.3117
 4817SOL    HW220544   0.244   6.924   0.054  0.3895 -0.1232 -0.7478
 4818SOL     OW20545   6.413  10.548   2.076  0.2551  0.0184  0.8665
 4818SOL    HW120546   6.462  10.598   2.141  0.1374  0.6085  0.5089
 4818SOL    HW220547   6.399  10.463   2.117 -0.9353  0.7946  2.1631
 4819SOL     OW20548   2.156  10.448   1.798  0.0309 -0.4596 -0.2766
 4819SOL    HW120549   2.187  10.373   1.848 -0.3587 -1.0044 -0.8392
 4819SOL    HW220550   2.106  10.410   1.725 -2.0279  0.3529  0.6239
 4820SOL     OW20551   3.474   6.713   2.517 -0.1835  0.0634  0.3766
 4820SOL    HW120552   3.499   6.677   2.432 -0.0035 -0.0357  0.4697
 4820SOL    HW220553   3.551   6.699   2.572 -0.8424 -1.3007  0.9993
 4821SOL     OW20554   3.257   8.298  10.185  0.2389  0.5234  0.2904
 4821SOL    HW120555   3.168   8.327  10.201  0.6110  1.7996  0.1513
 4821SOL    HW220556   3.310   8.346  10.248  0.8534 -0.1212  0.2840
 4822SOL     OW20557   0.730   3.192   3.364  0.1560  0.3655 -0.4660
 4822SOL    HW120558   0.722   3.159   3.454 -0.3819 -2.3719 -1.4327
 4822SOL    HW220559   0.815   3.158   3.334  0.8230  2.1342 -0.7256
 4823SOL     OW20560  10.544   1.799   1.917  0.1596 -0.3381 -0.3050
 4823SOL    HW120561  10.572   1.758   1.835  2.1762 -1.7614  0.9877
 4823SOL    HW220562  10.523   1.889   1.893 -0.7223 -1.0924 -2.6110
 4824SOL     OW20563   6.890   3.493   6.220  0.2775  0.3325  0.2573
 4824SOL    HW120564   6.864   3.567   6.165 -0.3612  0.9696  1.3637
 4824SOL    HW220565   6.985   3.488   6.210  0.2893  1.0746 -0.1154
 4825SOL     OW20566   7.143   3.039   7.309  0.4348 -0.2990  0.0628
 4825SOL    HW120567   7.076   3.049   7.376  0.7492  1.3774  0.1679
 4825SOL    HW220568   7.226   3.050   7.356  0.6781  0.4259 -0.5187
 4826SOL     OW20569   0.691  10.829   4.484 -0.5544 -0.4601 -0.3005
 4826SOL    HW120570   0.664  10.789   4.567  1.2725  1.2382  1.2070
 4826SOL    HW220571   0.668  10.921   4.492  2.2498  0.3351 -0.4025
 4827SOL     OW20572   3.706   2.843   9.458  0.2334  0.0471  0.3241
 4827SOL    HW120573   3.781   2.807   9.411 -0.6076 -1.4164  0.0460
 4827SOL    HW220574   3.727   2.936   9.468  1.3137  0.0151 -1.2191
 4828SOL     OW20575   3.278   9.319  10.421 -0.5572  0.3594 -0.6620
 4828SOL    HW120576   3.209   9.315  10.355 -0.4550  2.0596 -0.9180
 4828SOL    HW220577   3.243   9.376  10.489  0.1652  0.3443 -0.2684
 4829SOL     OW20578   3.927  10.119   0.396 -0.0221  0.4897  0.9275
 4829SOL    HW120579   3.943  10.112   0.302 -1.0805  0.1116  0.7588
 4829SOL    HW220580   4.009  10.090   0.436  0.1883 -0.0770  0.1287
 4830SOL     OW20581   8.138   9.099   9.718 -0.6304 -0.1118 -0.2602
 4830SOL    HW120582   8.139   9.030   9.784 -0.8465  0.4836  0.3734
 4830SOL    HW220583   8.083   9.167   9.756  0.7659  1.0429 -0.2355
 4831SOL     OW20584  10.247   0.121   2.161  0.1533  0.1218 -0.1146
 4831SOL    HW120585  10.290   0.036   2.173 -0.5206 -0.1859  0.1638
 4831SOL    HW220586  10.203   0.138   2.244  0.8821  1.0967  0.0887
 4832SOL     OW20587   9.137   8.755   4.694  0.2501  0.5287 -0.4313
 4832SOL    HW120588   9.059   8.708   4.666 -0.0605  1.5490 -1.3579
 4832SOL    HW220589   9.202   8.736   4.626  0.2912  0.9966 -0.5240
 4833SOL     OW20590   2.367   9.129   2.712 -0.0870 -0.4976 -0.8154
 4833SOL    HW120591   2.371   9.186   2.789 -0.5050  0.1046 -1.2404
 4833SOL    HW220592   2.383   9.187   2.638 -0.8454 -0.8700 -1.2809
 4834SOL     OW20593   5.327   5.394   9.439 -0.4047 -0.1429 -0.0089
 4834SOL    HW120594   5.409   5.381   9.485  0.9485  2.2602 -1.5064
 4834SOL    HW220595   5.345   5.368   9.349 -1.6788 -0.7347 -0.1163
 4835SOL     OW20596   2.094   9.764   8.102 -0.0796 -0.1842 -0.5601
 4835SOL    HW120597   2.171   9.816   8.122 -1.0161  0.8362  0.5499
 4835SOL    HW220598   2.033   9.826   8.062 -0.3688 -0.9528 -1.3409
 4836SOL     OW20599   5.713   5.246   0.730  0.1658 -0.5009 -0.1481
 4836SOL    HW120600   5.758   5.315   0.681  0.6511  0.8796  2.0751
 4836SOL    HW220601   5.743   5.258   0.820 -1.2035 -2.4609  0.6322
 4837SOL     OW20602   5.530  10.766   8.362 -0.2441  0.1475  0.2118
 4837SOL    HW120603   5.501  10.804   8.445 -0.2489  0.3578  0.1154
 4837SOL    HW220604   5.452  10.722   8.328 -0.1365 -0.2743  0.5044
 4838SOL     OW20605   6.162   3.652   9.093  0.0713 -0.1786 -0.1284
 4838SOL    HW120606   6.200   3.625   9.177 -1.1723 -0.9839  0.2090
 4838SOL    HW220607   6.069   3.631   9.102 -1.0084  3.7296 -0.0273
 4839SOL     OW20608   1.354   3.221   0.439  0.1289 -0.4271  0.0065
 4839SOL    HW120609   1.374   3.130   0.461 -1.6408 -0.8943 -0.1756
 4839SOL    HW220610   1.434   3.269   0.462  0.6671 -1.8347  1.2597
 4840SOL     OW20611   7.491   0.161   3.081 -0.5282 -0.4161 -0.1269
 4840SOL    HW120612   7.569   0.127   3.037 -0.2519 -1.5581  1.1903
 4840SOL    HW220613   7.418   0.129   3.028 -0.1593 -0.3903 -0.6620
 4841SOL     OW20614   5.043   8.995   3.479  0.2822 -0.1354  0.9008
 4841SOL    HW120615   5.085   8.987   3.564 -0.2591 -0.4612  1.1398
 4841SOL    HW220616   5.007   8.908   3.461  1.9640 -0.6129 -0.5027
 4842SOL     OW20617   9.600   2.915   4.963  0.1059  0.1427 -0.1964
 4842SOL    HW120618   9.692   2.923   4.988 -0.0802 -0.4011  0.6993
 4842SOL    HW220619   9.599   2.847   4.896  0.1347 -1.3928  1.2755
 4843SOL     OW20620   6.179   8.241   2.274 -0.7343  0.0591 -0.3773
 4843SOL    HW120621   6.247   8.230   2.208 -1.6923 -3.2680 -1.0119
 4843SOL    HW220622   6.226   8.266   2.353  1.5434 -3.1737 -0.4990
 4844SOL     OW20623   5.982   4.953   7.483  0.2372  0.2872 -0.4215
 4844SOL    HW120624   5.887   4.965   7.477  0.1706 -0.5490 -1.1779
 4844SOL    HW220625   6.010   4.937   7.393  0.7350 -2.0107  0.0838
 4845SOL     OW20626   3.779   6.060   2.042  0.4142  0.1423 -0.1899
 4845SOL    HW120627   3.791   6.097   2.130  1.0588  0.6948 -0.5074
 4845SOL    HW220628   3.779   6.135   1.984 -0.3344 -0.1962 -0.6424
 4846SOL     OW20629   2.316   4.968   7.957 -0.0161  0.8780  0.1247
 4846SOL    HW120630   2.256   4.894   7.964  0.4770  0.6035  1.9855
 4846SOL    HW220631   2.270   5.040   7.999 -0.3694  1.5814 -1.4116
 4847SOL     OW20632   8.144   2.100   2.165 -0.0882 -0.1517 -0.1700
 4847SOL    HW120633   8.192   2.160   2.223 -0.9656 -0.4451  0.8911
 4847SOL    HW220634   8.090   2.157   2.111 -0.1590  0.0682  0.1316
 4848SOL     OW20635   7.195   9.865   2.425 -0.3993  0.0647 -0.2755
 4848SOL    HW120636   7.276   9.844   2.378  0.2744  0.5818  0.6407
 4848SOL    HW220637   7.171   9.784   2.469  0.3356  0.2612  0.4999
 4849SOL     OW20638   2.744   0.070   5.931 -0.2757  0.7921 -0.1288
 4849SOL    HW120639   2.808   0.036   5.869  0.9868 -1.2117  2.0711
 4849SOL    HW220640   2.746   0.164   5.919  1.9852  0.6762 -1.2118
 4850SOL     OW20641   2.065   3.956   7.946 -0.2658  0.0914  0.1746
 4850SOL    HW120642   2.011   3.892   7.992 -1.9086  2.1540  1.3149
 4850SOL    HW220643   2.141   3.969   8.003 -0.6352  0.1782  0.6554
 4851SOL     OW20644   4.506   1.872   6.711 -0.4278 -0.3652  0.2812
 4851SOL    HW120645   4.508   1.955   6.758  0.2172  0.4667 -1.1375
 4851SOL    HW220646   4.417   1.866   6.675 -0.3896 -0.1541  0.1529
 4852SOL     OW20647   9.178   5.747   8.815  0.0151 -0.4671 -0.3321
 4852SOL    HW120648   9.217   5.833   8.833 -0.2277 -0.4914  0.3623
 4852SOL    HW220649   9.194   5.731   8.723  2.8943 -1.1013  0.1986
 4853SOL     OW20650   9.561   6.872   9.800 -0.2003 -0.2924  0.5494
 4853SOL    HW120651   9.645   6.901   9.765 -0.4337  0.2231  0.4221
 4853SOL    HW220652   9.504   6.864   9.724 -0.2310 -0.7822  0.6187
 4854SOL     OW20653   7.260   7.077   8.371  0.0014 -0.1918 -0.0883
 4854SOL    HW120654   7.338   7.029   8.345  0.9321  0.4286  1.4375
 4854SOL    HW220655   7.193   7.010   8.386  0.2933 -0.7394 -1.1694
 4855SOL     OW20656   2.882   5.119   6.272  0.4385  0.4406  0.1874
 4855SOL    HW120657   2.848   5.203   6.243 -1.6311 -0.1295  0.8220
 4855SOL    HW220658   2.913   5.135   6.361  2.2933  1.0511 -0.5256
 4856SOL     OW20659   5.594   8.898   8.712 -0.2811 -0.0323 -0.2633
 4856SOL    HW120660   5.656   8.910   8.641 -1.7892 -0.0114 -1.6461
 4856SOL    HW220661   5.584   8.985   8.750  0.1754  0.0577 -0.3554
 4857SOL     OW20662   5.302   0.362  10.675 -0.5017  0.5563  0.1038
 4857SOL    HW120663   5.229   0.316  10.632 -0.2081  0.2000 -0.0192
 4857SOL    HW220664   5.285   0.351  10.769 -1.8565  2.4564  0.1381
 4858SOL     OW20665   7.348   1.084   9.462 -0.1136  0.2382  0.0008
 4858SOL    HW120666   7.394   1.110   9.541  0.6371  1.3434 -0.7638
 4858SOL    HW220667   7.271   1.036   9.493  0.1272  0.7088  1.3797
 4859SOL     OW20668  10.588   4.654   0.157  0.5536  0.1986 -0.0302
 4859SOL    HW120669  10.679   4.658   0.187  0.3352 -1.8875  1.1264
 4859SOL    HW220670  10.546   4.728   0.200  1.4945  0.5845  0.2606
 4860SOL     OW20671   2.513   3.529   0.539 -0.7248 -0.0413 -0.2354
 4860SOL    HW120672   2.545   3.447   0.501 -1.4001 -0.6118  0.3977
 4860SOL    HW220673   2.546   3.597   0.480  0.3174 -0.7171 -0.4588
 4861SOL     OW20674   7.738   9.890   3.392  0.4137 -0.4813 -0.2544
 4861SOL    HW120675   7.787   9.937   3.324  0.3106 -1.7870 -1.2943
 4861SOL    HW220676   7.700   9.815   3.345  0.1115 -1.2683  1.2032
 4862SOL     OW20677   0.852   0.024   3.275  0.3563  0.2678 -0.2747
 4862SOL    HW120678   0.789  -0.048   3.273  0.4886  0.0886  1.2829
 4862SOL    HW220679   0.825   0.078   3.348  1.8552  0.3306  0.2685
 4863SOL     OW20680   5.383   5.247  10.683 -0.2407  0.0155  0.0284
 4863SOL    HW120681   5.387   5.299  10.603  2.1736 -0.0382  0.0241
 4863SOL    HW220682   5.431   5.298  10.748 -1.6695 -0.2053  1.3117
 4864SOL     OW20683  10.667   0.891   3.144 -0.2153 -0.3988  0.0329
 4864SOL    HW120684  10.700   0.809   3.107 -3.7261 -2.1996  0.5268
 4864SOL    HW220685  10.719   0.903   3.224  0.2889 -2.2105  0.0215
 4865SOL     OW20686   3.160   8.929   0.730 -0.2817  0.1636 -0.8304
 4865SOL    HW120687   3.131   9.014   0.765  0.4051  0.0652 -0.0080
 4865SOL    HW220688   3.146   8.937   0.635 -3.2360  0.0175 -0.4900
 4866SOL     OW20689   5.902   0.926   1.978 -0.2272  0.0488 -0.1131
 4866SOL    HW120690   5.907   0.935   1.883  0.6235 -0.8017 -0.1760
 4866SOL    HW220691   5.994   0.928   2.007 -0.5576  2.8418  0.9895
 4867SOL     OW20692   0.611   2.325   5.766 -0.0020 -0.7559  0.2090
 4867SOL    HW120693   0.532   2.357   5.723  0.4431 -0.2009 -0.2095
 4867SOL    HW220694   0.606   2.359   5.855  0.2155  0.0674 -0.0856
 4868SOL     OW20695   8.015   3.355   9.153  0.0222 -0.2761 -0.3165
 4868SOL    HW120696   7.957   3.334   9.226  1.8464 -0.7685  1.0446
 4868SOL    HW220697   7.956   3.385   9.084 -1.8151 -0.4528  1.1052
 4869SOL     OW20698   1.394   9.184   7.026  0.3043  0.2017  0.0613
 4869SOL    HW120699   1.407   9.275   6.998  2.6292  0.1166  0.6885
 4869SOL    HW220700   1.478   9.141   7.010 -1.0852 -2.2034 -1.3673
 4870SOL     OW20701   8.181   7.569   3.239  0.0600 -0.2572  0.2661
 4870SOL    HW120702   8.248   7.534   3.179  1.7001  1.2871  1.0907
 4870SOL    HW220703   8.164   7.657   3.206 -0.1067  0.0711  1.2011
 4871SOL     OW20704   4.074   1.844   3.571  0.1989 -0.1778 -0.1458
 4871SOL    HW120705   4.067   1.815   3.662 -1.1289 -1.4448 -0.6215
 4871SOL    HW220706   4.000   1.905   3.560  0.4287  0.0656 -0.3431
 4872SOL     OW20707   7.751   5.197   1.155 -0.1478 -0.6851 -0.0203
 4872SOL    HW120708   7.662   5.221   1.130  0.3859  1.0685 -0.3650
 4872SOL    HW220709   7.743   5.107   1.189 -2.1282 -0.3526  0.5206
 4873SOL     OW20710   7.529   0.019   8.072 -0.0930 -0.2751 -0.0484
 4873SOL    HW120711   7.457   0.077   8.098 -0.6391 -0.7222 -0.5425
 4873SOL    HW220712   7.505  -0.012   7.985  0.7100 -0.4223 -0.2297
 4874SOL     OW20713   3.523   3.795   7.137  0.4418 -0.8256 -0.7261
 4874SOL    HW120714   3.537   3.884   7.169  0.2713 -1.0118 -0.1134
 4874SOL    HW220715   3.428   3.784   7.139  0.5541 -2.1027  2.3110
 4875SOL     OW20716  10.462   7.921   9.332 -0.1434  0.4744  0.0031
 4875SOL    HW120717  10.518   7.850   9.362  0.6879  1.0046 -0.2726
 4875SOL    HW220718  10.381   7.878   9.304 -0.4589 -0.1579  1.7607
 4876SOL     OW20719   7.687   9.218   0.473  0.2448  0.4121 -0.2049
 4876SOL    HW120720   7.594   9.198   0.476 -0.0741  1.0066 -3.2789
 4876SOL    HW220721   7.727   9.157   0.536 -2.2230  0.6216  1.7065
 4877SOL     OW20722   6.565   0.872   4.891 -0.5758 -0.4440  0.6712
 4877SOL    HW120723   6.525   0.948   4.931  0.7695  0.4254  0.4278
 4877SOL    HW220724   6.599   0.903   4.807  1.6127 -0.8073  1.3539
 4878SOL     OW20725  10.587   9.264   4.547  0.9497  0.1325 -0.2215
 4878SOL    HW120726  10.516   9.277   4.611  0.4618  0.8079 -0.8796
 4878SOL    HW220727  10.545   9.222   4.472  1.6587 -1.2738  0.1398
 4879SOL     OW20728   0.017   0.176   1.010  0.0229 -0.0435 -0.1659
 4879SOL    HW120729  -0.043   0.235   1.056  0.0315 -0.8519  0.9081
 4879SOL    HW220730   0.078   0.146   1.077  0.4311 -0.7614 -0.8352
 4880SOL     OW20731   6.645   7.266  10.174  0.6467 -0.5423 -0.2106
 4880SOL    HW120732   6.618   7.357  10.186  2.8996  0.1398  0.2493
 4880SOL    HW220733   6.574   7.226  10.125 -2.1919  0.4325  2.7465
 4881SOL     OW20734   6.121   7.466   1.194 -0.1507  0.3560 -0.0663
 4881SOL    HW120735   6.092   7.477   1.284  0.4007  0.8501  0.0544
 4881SOL    HW220736   6.212   7.494   1.194 -0.5458  1.7273 -1.0609
 4882SOL     OW20737   0.359   4.924   8.398  0.3796  0.0801 -0.0505
 4882SOL    HW120738   0.347   4.889   8.309  0.4034  1.9895 -0.8446
 4882SOL    HW220739   0.427   4.990   8.389  0.5028  0.1782  1.4442
 4883SOL     OW20740   0.944   6.001   9.711 -0.0005 -0.0936 -0.1931
 4883SOL    HW120741   0.863   6.003   9.659  0.1060 -2.7668 -0.5816
 4883SOL    HW220742   0.917   5.962   9.795  0.7284 -0.1127  0.0365
 4884SOL     OW20743   4.241   2.087   0.763  0.2982  0.4262  0.2073
 4884SOL    HW120744   4.165   2.029   0.757  0.2334  0.4683  0.5762
 4884SOL    HW220745   4.213   2.167   0.718  0.1565  0.4097  0.2653
 4885SOL     OW20746   8.655   2.456   4.420 -0.4908  0.2815  0.0585
 4885SOL    HW120747   8.660   2.413   4.505  0.4263 -0.3473 -0.3017
 4885SOL    HW220748   8.563   2.484   4.413 -0.3874  1.1480  1.6284
 4886SOL     OW20749   0.235   2.720  10.673  0.4102 -0.1189 -0.4032
 4886SOL    HW120750   0.172   2.665  10.720 -2.2105  2.0258 -1.2090
 4886SOL    HW220751   0.300   2.744  10.740 -1.6189  0.5397  1.4378
 4887SOL     OW20752   0.410   8.016   8.827 -0.3221 -0.2121  0.2022
 4887SOL    HW120753   0.436   8.053   8.912 -0.0155 -0.8960  0.4109
 4887SOL    HW220754   0.441   8.080   8.763 -3.1251  1.8601  0.6887
 4888SOL     OW20755   0.587   5.484   7.643 -0.1774  0.1145  0.6551
 4888SOL    HW120756   0.565   5.577   7.637 -0.6562  0.0509  1.3316
 4888SOL    HW220757   0.524   5.449   7.706 -1.0596 -1.0103 -0.8060
 4889SOL     OW20758  10.846  10.859   1.620 -0.0670 -0.8815  0.3469
 4889SOL    HW120759  10.917  10.805   1.583 -0.9429 -0.5468 -1.9850
 4889SOL    HW220760  10.890  10.936   1.655  0.7230 -0.1350 -2.0769
 4890SOL     OW20761   8.902   4.163   0.963 -0.1197  0.2686 -0.1740
 4890SOL    HW120762   8.827   4.200   1.011 -0.8557 -0.6588 -0.5846
 4890SOL    HW220763   8.976   4.177   1.022 -0.6244  1.1067  0.2931
 4891SOL     OW20764   2.785   0.961   3.416 -0.7011  0.2359  0.1108
 4891SOL    HW120765   2.876   0.935   3.404 -0.3628  1.9474 -1.6113
 4891SOL    HW220766   2.786   1.018   3.493 -0.2706  0.3344  0.0377
 4892SOL     OW20767   3.766   8.606   4.935  0.3391 -0.0175  0.4690
 4892SOL    HW120768   3.838   8.546   4.951 -0.9700 -1.6642  0.5194
 4892SOL    HW220769   3.763   8.616   4.840 -0.6823 -1.7451  0.2727
 4893SOL     OW20770   3.362   1.551   6.983  0.0827  0.0072 -0.5949
 4893SOL    HW120771   3.277   1.534   6.945  0.1528 -0.4133 -0.5683
 4893SOL    HW220772   3.347   1.553   7.078  0.5153 -2.7438 -0.3777
 4894SOL     OW20773   6.462  10.665   8.022  0.5883  0.1734  0.1748
 4894SOL    HW120774   6.435  10.733   7.960 -1.6364 -0.8814 -0.1357
 4894SOL    HW220775   6.493  10.593   7.967  3.7609  1.1417  0.5218
 4895SOL     OW20776   4.159   6.531   8.992 -0.3275  0.4776  0.5624
 4895SOL    HW120777   4.216   6.580   8.932 -1.3068 -0.3349 -1.1157
 4895SOL    HW220778   4.218   6.479   9.045  0.5705 -2.3114 -2.8322
 4896SOL     OW20779   4.596   9.049   9.905 -0.5472 -0.0283  0.6123
 4896SOL    HW120780   4.614   9.143   9.896  0.6369 -0.3416 -0.7588
 4896SOL    HW220781   4.543   9.028   9.828  2.0455 -1.0732 -1.0431
 4897SOL     OW20782   2.587   1.336   0.435  0.0976 -0.7252 -0.2948
 4897SOL    HW120783   2.657   1.357   0.373  0.2796  0.5835  0.3310
 4897SOL    HW220784   2.570   1.242   0.421 -0.2738 -0.3750 -2.7338
 4898SOL     OW20785   4.279   1.347   1.929 -0.5575  0.7304 -0.0178
 4898SOL    HW120786   4.225   1.323   2.005 -0.7975  0.3686 -0.3029
 4898SOL    HW220787   4.216   1.378   1.864 -0.5304 -0.5618 -0.6952
 4899SOL     OW20788   4.845   5.881   0.109  0.4351 -0.5035  0.4199
 4899SOL    HW120789   4.783   5.880   0.036  1.6540  1.6942 -0.7584
 4899SOL    HW220790   4.909   5.813   0.087  0.1123 -0.7036  0.0861
 4900SOL     OW20791   2.259   1.890   7.946 -0.1832  0.2986  0.2321
 4900SOL    HW120792   2.238   1.802   7.978  0.4009 -0.5056 -1.5254
 4900SOL    HW220793   2.179   1.919   7.903  0.0468  0.0951 -0.3317
 4901SOL     OW20794   4.099   5.342   6.311  0.2850  0.0158  0.1903
 4901SOL    HW120795   4.081   5.252   6.337  2.7253 -1.0450 -1.4507
 4901SOL    HW220796   4.027   5.364   6.250  0.5813 -1.4847 -0.7548
 4902SOL     OW20797   7.850   4.067   9.481 -0.0793 -0.0289  0.2224
 4902SOL    HW120798   7.919   4.032   9.539  0.0555 -0.7554 -0.3599
 4902SOL    HW220799   7.881   4.048   9.393 -1.8312 -2.0177 -0.0369
 4903SOL     OW20800   6.836   8.379   9.354 -0.0529 -0.0834 -0.0145
 4903SOL    HW120801   6.828   8.374   9.450 -0.7437  0.9832 -0.0005
 4903SOL    HW220802   6.892   8.455   9.339  0.5650 -0.6216 -0.4524
 4904SOL     OW20803   5.728   4.185  10.478  0.3077 -0.2395 -0.2295
 4904SOL    HW120804   5.765   4.099  10.460 -0.8005 -1.0374  1.1303
 4904SOL    HW220805   5.801   4.235  10.515  1.2145 -0.2387 -1.9388
 4905SOL     OW20806   4.026   8.762   6.269 -0.3132  0.3234 -0.3081
 4905SOL    HW120807   4.048   8.771   6.176 -0.0880 -0.7235 -0.3653
 4905SOL    HW220808   4.110   8.771   6.314 -0.2486 -0.3097 -0.2925
 4906SOL     OW20809   2.130   2.959   2.421 -0.0041  0.1599  0.0818
 4906SOL    HW120810   2.221   2.989   2.411  0.1336 -0.6138 -1.2037
 4906SOL    HW220811   2.094   3.016   2.489  1.7028 -0.1071  1.2958
 4907SOL     OW20812  10.183   3.533   0.280  0.1976  0.0502  0.8286
 4907SOL    HW120813  10.247   3.594   0.242 -1.1740  0.9384 -0.1798
 4907SOL    HW220814  10.230   3.451   0.290  0.4684 -0.7220 -4.1086
 4908SOL     OW20815   3.337   2.517   1.901 -0.5161 -0.2120 -0.3201
 4908SOL    HW120816   3.385   2.442   1.867 -1.7821 -0.0765 -2.5553
 4908SOL    HW220817   3.394   2.592   1.885 -1.2129 -0.1090 -2.5736
 4909SOL     OW20818   5.451   9.202   2.625 -0.2199  0.4796 -0.3390
 4909SOL    HW120819   5.542   9.233   2.629  0.0250 -0.3660  1.0007
 4909SOL    HW220820   5.438   9.181   2.532  1.2252 -0.1797 -0.4275
 4910SOL     OW20821   7.942   4.643   9.921  0.0332  0.4678  0.6620
 4910SOL    HW120822   8.029   4.604   9.924  0.4474  1.2087 -0.7316
 4910SOL    HW220823   7.932   4.672   9.830 -2.1895 -0.7281  0.4646
 4911SOL     OW20824   3.641   5.687   4.255  0.1045  0.0128  0.4761
 4911SOL    HW120825   3.612   5.607   4.211  2.2607  0.4719 -1.9562
 4911SOL    HW220826   3.657   5.660   4.345 -0.6081 -1.9456  0.0630
 4912SOL     OW20827   1.545   7.503   9.682 -0.1158 -0.3264  0.0468
 4912SOL    HW120828   1.562   7.544   9.767  1.9612 -3.3391  1.2578
 4912SOL    HW220829   1.534   7.410   9.702  1.9274 -1.4087 -3.0746
 4913SOL     OW20830   2.503   8.188   2.162 -0.3516  0.1429  0.9791
 4913SOL    HW120831   2.554   8.269   2.171 -0.9485  0.4967  1.2903
 4913SOL    HW220832   2.546   8.140   2.092  1.1195 -0.1138  2.0040
 4914SOL     OW20833   8.975  10.267   7.455  0.7736 -0.4806  0.1839
 4914SOL    HW120834   9.020  10.351   7.449  1.4751 -0.8403  0.2508
 4914SOL    HW220835   8.994  10.236   7.544 -1.4457  0.3600  1.0319
 4915SOL     OW20836   2.946   1.142   9.237  0.2567 -0.0964 -0.1125
 4915SOL    HW120837   2.882   1.081   9.200 -0.8240 -1.6863  3.8554
 4915SOL    HW220838   2.903   1.227   9.233 -1.5322 -0.8951  1.0443
 4916SOL     OW20839   6.456   9.033   9.762  0.6870 -0.2849  0.0006
 4916SOL    HW120840   6.512   9.030   9.685  1.9557 -0.5829  0.9149
 4916SOL    HW220841   6.516   9.033   9.836 -0.5465 -2.5687  1.0818
 4917SOL     OW20842   3.809   2.989   5.987 -0.2219  0.1390 -0.1709
 4917SOL    HW120843   3.835   2.906   6.028  0.7847  0.2148 -0.6373
 4917SOL    HW220844   3.866   2.998   5.911 -1.1530  0.6743 -0.8329
 4918SOL     OW20845   3.558  10.743   4.625 -0.2506 -0.4587  0.0215
 4918SOL    HW120846   3.589  10.726   4.536 -2.1638 -2.8736 -0.3155
 4918SOL    HW220847   3.531  10.835   4.623 -0.1795 -0.4253 -1.8821
 4919SOL     OW20848   9.439   3.431   6.539  0.4265 -0.0567 -0.8299
 4919SOL    HW120849   9.450   3.435   6.444  3.2823  2.7962 -0.5464
 4919SOL    HW220850   9.367   3.492   6.558  1.6631  1.5674 -1.0860
 4920SOL     OW20851   6.986   1.080   4.671  1.2028  0.4790  0.0442
 4920SOL    HW120852   7.068   1.126   4.652  1.4400  0.2422  0.4770
 4920SOL    HW220853   6.953   1.055   4.585  2.3455 -0.7192 -0.0865
 4921SOL     OW20854  10.685   1.709   1.422 -0.0276  0.0062 -0.4999
 4921SOL    HW120855  10.687   1.788   1.368  0.8858  1.2459  1.2241
 4921SOL    HW220856  10.775   1.677   1.422  0.3705  0.9383  1.4489
 4922SOL     OW20857   7.053   6.138   9.037 -0.3046 -0.0637 -0.0725
 4922SOL    HW120858   6.983   6.076   9.061 -0.9520  0.7080  0.0641
 4922SOL    HW220859   7.011   6.224   9.041  1.4133  0.7749  3.0895
 4923SOL     OW20860   2.359   9.297   3.504 -0.4551  0.1790 -0.4321
 4923SOL    HW120861   2.332   9.380   3.543 -1.0837  0.2918 -1.0848
 4923SOL    HW220862   2.277   9.249   3.491 -0.0867 -0.6278  0.1051
 4924SOL     OW20863   6.551   4.515   7.088 -0.1716 -0.1522 -0.6342
 4924SOL    HW120864   6.608   4.585   7.121 -1.1785  0.0490  0.7837
 4924SOL    HW220865   6.566   4.514   6.993 -1.3418  3.1692 -0.9990
 4925SOL     OW20866   0.296   7.789   4.777 -0.4279  0.1675 -0.1941
 4925SOL    HW120867   0.273   7.732   4.704 -0.5298 -0.8076  0.5830
 4925SOL    HW220868   0.389   7.808   4.764  0.3376 -2.4151  0.9945
 4926SOL     OW20869   5.306   7.324   2.513  0.4083  0.1631  0.3634
 4926SOL    HW120870   5.299   7.312   2.608  0.1262 -1.0590  0.2139
 4926SOL    HW220871   5.271   7.411   2.497 -0.1496  0.1302  1.3202
 4927SOL     OW20872   2.819   0.674   7.017  0.3880 -0.1268  0.1572
 4927SOL    HW120873   2.808   0.683   6.922  0.1932 -0.2109  0.1706
 4927SOL    HW220874   2.791   0.758   7.053 -1.6961 -0.8329  0.3042
 4928SOL     OW20875   8.717   4.888   0.428  0.1616 -0.2192  0.2282
 4928SOL    HW120876   8.655   4.956   0.403 -0.0088 -0.5059 -0.1507
 4928SOL    HW220877   8.703   4.876   0.522 -2.1549 -1.9886 -0.2351
 4929SOL     OW20878   9.307   6.214  10.896 -0.0106  0.1213 -0.4770
 4929SOL    HW120879   9.382   6.255  10.939  0.4117  0.3594 -1.4086
 4929SOL    HW220880   9.346   6.148  10.838 -0.2666  2.0361 -2.9952
 4930SOL     OW20881   2.286   8.486   4.809  0.2926  0.1255  0.7320
 4930SOL    HW120882   2.376   8.505   4.836  0.3619 -2.7248  3.0639
 4930SOL    HW220883   2.238   8.566   4.828  1.8531  0.8110  2.0799
 4931SOL     OW20884   1.158   3.078   4.033 -0.4489 -0.2008  0.3263
 4931SOL    HW120885   1.140   3.021   4.108 -0.8645  0.2762  0.5875
 4931SOL    HW220886   1.073   3.113   4.008 -0.6416 -1.8784 -1.6230
 4932SOL     OW20887   3.121   2.677   3.804 -0.5631 -0.3532 -0.7294
 4932SOL    HW120888   3.067   2.728   3.743  1.5642  2.0283 -0.7783
 4932SOL    HW220889   3.076   2.685   3.888 -1.3011 -0.0760 -1.1415
 4933SOL     OW20890   0.080   9.913   4.655 -0.0101 -0.0117 -0.1749
 4933SOL    HW120891   0.060   9.916   4.748  0.0047  1.8107 -0.1920
 4933SOL    HW220892  -0.005   9.919   4.612 -0.1967 -2.6059 -0.3592
 4934SOL     OW20893   7.243   6.908   1.873  0.3009  0.3285 -0.2152
 4934SOL    HW120894   7.147   6.908   1.871  0.2546  2.0089  0.2409
 4934SOL    HW220895   7.265   6.924   1.965  1.0083  0.2263 -0.3659
 4935SOL     OW20896   9.642   0.782   0.336  0.1195 -0.1681 -0.3104
 4935SOL    HW120897   9.643   0.707   0.396 -3.5026 -0.0053  0.1848
 4935SOL    HW220898   9.643   0.858   0.393  0.2300  0.0947 -0.6611
 4936SOL     OW20899   4.529  10.501   2.453  0.0644 -0.6742 -0.0037
 4936SOL    HW120900   4.474  10.423   2.448 -0.9783 -0.0062  0.5693
 4936SOL    HW220901   4.548  10.524   2.362 -0.5401 -0.9693 -0.2046
 4937SOL     OW20902   9.316   7.865  10.492 -0.0480 -0.2845 -0.0448
 4937SOL    HW120903   9.255   7.927  10.531  0.7918  0.5755 -0.0437
 4937SOL    HW220904   9.382   7.850  10.560 -1.6280 -3.3350  0.9954
 4938SOL     OW20905   9.281  10.123   2.247  0.4172 -0.5730 -0.0487
 4938SOL    HW120906   9.346  10.193   2.241  0.7880 -0.6733  2.0216
 4938SOL    HW220907   9.324  10.047   2.208  1.5767 -0.6236  1.2409
 4939SOL     OW20908   1.823   5.867   9.688 -0.2389 -0.0667 -0.1597
 4939SOL    HW120909   1.843   5.775   9.669 -1.0913 -0.0407 -1.2475
 4939SOL    HW220910   1.781   5.865   9.775 -2.0069 -0.9617 -0.9793
 4940SOL     OW20911   1.502   4.000  10.827 -1.1253 -0.5181 -0.0918
 4940SOL    HW120912   1.518   3.964  10.740  0.6688  1.6795 -0.7538
 4940SOL    HW220913   1.493   4.094  10.814  0.5157  0.0601  2.2121
 4941SOL     OW20914   6.470  10.107  10.611 -0.2599  0.1320 -0.3536
 4941SOL    HW120915   6.388  10.147  10.641 -0.7378  0.0297 -1.4471
 4941SOL    HW220916   6.495  10.047  10.682 -1.1369  0.1635  0.0012
 4942SOL     OW20917   3.740   9.866   7.723  0.1117 -0.4256  0.2363
 4942SOL    HW120918   3.759   9.776   7.697  0.1155 -0.1663 -0.6835
 4942SOL    HW220919   3.740   9.915   7.641 -0.3946  0.3215  0.6731
 4943SOL     OW20920   6.013   1.683   2.073  0.3767 -0.1360 -0.0857
 4943SOL    HW120921   6.087   1.690   2.133  0.7242  0.6923 -0.6054
 4943SOL    HW220922   5.998   1.772   2.041 -0.6140 -0.3501 -0.2695
 4944SOL     OW20923   2.214   8.164  10.468 -0.3369  0.2461 -0.3336
 4944SOL    HW120924   2.201   8.077  10.505  1.8118  0.3244  0.7592
 4944SOL    HW220925   2.190   8.155  10.376 -3.3068 -0.6267  0.4060
 4945SOL     OW20926  10.711   5.426   7.337  0.1772  0.1439  0.3438
 4945SOL    HW120927  10.778   5.494   7.334 -1.3350  1.7169  0.0604
 4945SOL    HW220928  10.744   5.356   7.281  2.0575  0.3565  1.1322
 4946SOL     OW20929   5.630   3.051   2.244  0.7645 -0.6160  0.2155
 4946SOL    HW120930   5.603   3.044   2.336  0.4443 -2.1739  0.0193
 4946SOL    HW220931   5.723   3.074   2.249  0.4455  0.6414  0.9017
 4947SOL     OW20932   2.446   2.384   3.249  0.0298  0.0030 -0.5236
 4947SOL    HW120933   2.512   2.319   3.274  0.6622  0.6794 -0.3793
 4947SOL    HW220934   2.366   2.333   3.233  0.2330 -0.6993  0.5855
 4948SOL     OW20935   2.192   9.443   8.812  0.1798  0.0895  1.0063
 4948SOL    HW120936   2.150   9.490   8.741  0.5582 -1.4462 -0.2945
 4948SOL    HW220937   2.151   9.356   8.811  2.5277 -1.0831  0.4288
 4949SOL     OW20938   1.957   4.737   0.708 -0.2364  0.3440 -0.0245
 4949SOL    HW120939   2.023   4.748   0.775 -0.7181  0.5966  0.4176
 4949SOL    HW220940   1.924   4.648   0.720  0.2355  0.1040 -0.4504
 4950SOL     OW20941   0.535   2.311   8.743 -0.0363  0.0901 -0.2674
 4950SOL    HW120942   0.567   2.306   8.833 -1.4049  0.2368  0.2551
 4950SOL    HW220943   0.603   2.268   8.691  0.4060 -0.7420  0.9404
 4951SOL     OW20944   7.199   5.956   9.167  0.2679 -0.2654 -0.2565
 4951SOL    HW120945   7.175   5.889   9.104 -1.7051  1.3591 -1.3488
 4951SOL    HW220946   7.189   6.039   9.120 -1.3989  1.0324  2.1734
 4952SOL     OW20947   4.848   9.106   5.762  0.0395 -0.0076  0.1420
 4952SOL    HW120948   4.775   9.157   5.798 -0.3504  0.5562 -1.3907
 4952SOL    HW220949   4.812   9.062   5.686  0.7845 -1.3930  0.5575
 4953SOL     OW20950   0.502   5.839   8.390  0.3310 -0.1787  0.0659
 4953SOL    HW120951   0.481   5.746   8.385 -1.9478  0.0630  2.5108
 4953SOL    HW220952   0.437   5.882   8.334  0.5752 -0.0134 -0.0891
 4954SOL     OW20953   5.023   4.915   3.331 -0.3806  0.8255 -0.1587
 4954SOL    HW120954   4.983   4.956   3.407 -1.1706 -0.1637 -0.0130
 4954SOL    HW220955   5.005   4.975   3.259  0.3565  1.7579  0.4181
 4955SOL     OW20956   0.799   0.447   3.140  0.2282  0.0459  0.4720
 4955SOL    HW120957   0.708   0.436   3.112 -0.2453  2.2232  0.9193
 4955SOL    HW220958   0.792   0.494   3.223  1.7577  1.6904 -0.2714
 4956SOL     OW20959  10.811   9.297   3.985 -0.2321  0.6290  0.7011
 4956SOL    HW120960  10.892   9.340   4.014  1.0548 -2.2492  1.7521
 4956SOL    HW220961  10.842   9.227   3.928 -2.0667 -0.1050  0.5718
 4957SOL     OW20962   3.835   1.475   2.885  0.0897 -0.4226  0.3003
 4957SOL    HW120963   3.895   1.549   2.872 -1.2068  0.5088 -0.7076
 4957SOL    HW220964   3.891   1.398   2.884  1.2107  0.3539 -1.4004
 4958SOL     OW20965   2.970   7.627   2.271  0.6794 -0.5663  0.0495
 4958SOL    HW120966   2.932   7.556   2.322 -0.1557 -0.2357 -0.0922
 4958SOL    HW220967   2.954   7.706   2.324 -0.4470 -0.1814 -0.8216
 4959SOL     OW20968   3.554   1.267   7.782  0.2077 -0.4539 -0.0491
 4959SOL    HW120969   3.564   1.241   7.690 -0.2654  0.2745 -0.3165
 4959SOL    HW220970   3.526   1.187   7.827  0.4837 -0.8247 -0.5338
 4960SOL     OW20971   2.190   4.290   7.792 -0.1671 -0.5561  0.1733
 4960SOL    HW120972   2.121   4.226   7.808 -0.9278  0.0611 -0.5659
 4960SOL    HW220973   2.210   4.281   7.699  0.8851 -0.8515  0.4179
 4961SOL     OW20974   3.181   5.935   2.828 -0.5865 -0.0835  0.2724
 4961SOL    HW120975   3.239   5.946   2.752  0.4218  0.2922  1.0769
 4961SOL    HW220976   3.099   5.905   2.790  0.1808 -0.8204 -0.8849
 4962SOL     OW20977   1.445   3.689   2.638  0.2657 -0.2702 -0.1531
 4962SOL    HW120978   1.415   3.769   2.595  0.5523  0.6846  1.3543
 4962SOL    HW220979   1.404   3.618   2.589 -0.1596  0.8023 -1.3970
 4963SOL     OW20980   4.819   5.495   1.624  0.0100  0.0689  0.0614
 4963SOL    HW120981   4.762   5.569   1.645 -0.2597  0.1849 -1.0339
 4963SOL    HW220982   4.896   5.508   1.681 -0.6072  0.4449  0.8387
 4964SOL     OW20983   8.112   1.845   8.881  0.4722  0.1359 -0.0522
 4964SOL    HW120984   8.076   1.862   8.969 -0.3098  1.1889 -0.5545
 4964SOL    HW220985   8.058   1.899   8.823  1.6807  0.2987 -1.0538
 4965SOL     OW20986   1.564   8.178   0.094  0.0751  0.8052  0.2589
 4965SOL    HW120987   1.584   8.087   0.117  0.2954  0.4816 -1.1392
 4965SOL    HW220988   1.644   8.211   0.053 -0.3895  1.2563 -0.3067
 4966SOL     OW20989   8.162  10.384  10.042 -0.5884  0.1222  0.3264
 4966SOL    HW120990   8.111  10.441   9.985  0.9833  1.5820  0.2949
 4966SOL    HW220991   8.228  10.442  10.080  1.1773 -1.7109  0.1876
 4967SOL     OW20992   0.611   0.593   3.806 -0.0705  0.2193 -0.5357
 4967SOL    HW120993   0.625   0.612   3.899  0.3311  0.0681 -0.5648
 4967SOL    HW220994   0.555   0.665   3.775  2.6636  2.2849 -1.0103
 4968SOL     OW20995   9.115   9.398   8.790 -0.3402 -0.2989 -0.4031
 4968SOL    HW120996   9.190   9.402   8.851  0.2911 -0.8223 -1.1164
 4968SOL    HW220997   9.132   9.319   8.738  0.3660  1.3658 -2.8324
 4969SOL     OW20998   0.703   9.744   3.287  0.1531  0.2037  0.5800
 4969SOL    HW120999   0.699   9.667   3.345  1.0169 -0.2262  0.0818
 4969SOL    HW221000   0.792   9.743   3.252  0.4687  1.9671  1.2641
 4970SOL     OW21001   7.091   6.523   6.034 -0.2079 -0.2258 -0.0389
 4970SOL    HW121002   7.060   6.608   6.063 -0.2847 -0.2594 -0.0224
 4970SOL    HW221003   7.183   6.521   6.059 -0.5332 -0.6833  1.1875
 4971SOL     OW21004   4.637   4.241   2.525 -0.1145 -0.2897 -0.5554
 4971SOL    HW121005   4.568   4.258   2.461  0.1494 -0.1643 -0.8136
 4971SOL    HW221006   4.605   4.280   2.606 -0.0982  0.2854 -0.8163
 4972SOL     OW21007  10.645   0.493   3.021  0.1591 -0.0867  0.2317
 4972SOL    HW121008  10.629   0.422   3.083  0.0682  0.8107  1.2610
 4972SOL    HW221009  10.600   0.568   3.058 -0.5749  0.2895 -1.3479
 4973SOL     OW21010   1.328   0.767   8.457 -0.1982 -0.2644 -0.4287
 4973SOL    HW121011   1.253   0.826   8.463 -0.3209 -0.4186 -0.4710
 4973SOL    HW221012   1.403   0.826   8.444 -0.5807 -0.1981 -2.8445
 4974SOL     OW21013   5.615  10.720  10.929  0.4572 -0.0184 -0.1431
 4974SOL    HW121014   5.689  10.696  10.984 -0.2784  0.0439  0.8879
 4974SOL    HW221015   5.549  10.753  10.989 -0.2192  0.4355 -1.0986
 4975SOL     OW21016   7.651   9.983   5.414  0.7502 -0.2898 -0.0630
 4975SOL    HW121017   7.712   9.929   5.465 -0.3520 -0.5960  0.9478
 4975SOL    HW221018   7.572   9.930   5.407  0.0941  0.6837 -0.1575
 4976SOL     OW21019   9.759   4.498   2.244 -0.3763 -0.7911  0.3291
 4976SOL    HW121020   9.822   4.544   2.300  0.8427  1.3242 -2.5389
 4976SOL    HW221021   9.673   4.523   2.279  0.3384 -0.1131  1.6527
 4977SOL     OW21022   8.392   0.571   9.919  0.0731  0.0847 -0.3535
 4977SOL    HW121023   8.426   0.482   9.915  1.6012  0.6565 -1.1881
 4977SOL    HW221024   8.366   0.591   9.829 -0.0027  0.5624 -0.2300
 4978SOL     OW21025   5.642   7.881   2.771 -0.0133 -0.4305 -0.6131
 4978SOL    HW121026   5.733   7.851   2.766 -0.1341 -0.6238 -2.0772
 4978SOL    HW221027   5.613   7.853   2.857  1.5629  0.3971  0.2363
 4979SOL     OW21028   4.461   8.981   5.245  0.1595  0.3306 -0.2955
 4979SOL    HW121029   4.398   9.037   5.289 -0.6592 -0.5563 -0.3160
 4979SOL    HW221030   4.476   8.909   5.306  3.8423  2.1853  1.2964
 4980SOL     OW21031   3.986   3.166   7.117  0.2453 -0.6418 -0.0163
 4980SOL    HW121032   4.075   3.143   7.092  0.3113 -0.9547  0.4869
 4980SOL    HW221033   3.931   3.129   7.049  0.5982  1.1578 -1.3712
 4981SOL     OW21034   5.960   1.330   9.301 -0.5846  0.0627 -0.3541
 4981SOL    HW121035   5.942   1.241   9.271  1.8871 -0.2641 -1.0532
 4981SOL    HW221036   6.010   1.319   9.382  0.6704  0.7555 -1.0027
 4982SOL     OW21037   3.703   2.475   9.781 -1.1270 -0.1710  0.4893
 4982SOL    HW121038   3.610   2.466   9.804 -1.3900 -1.1806 -0.8072
 4982SOL    HW221039   3.745   2.398   9.822 -1.0791 -0.3565  0.0971
 4983SOL     OW21040  10.422   0.523   5.689 -0.1984 -0.2664 -0.0740
 4983SOL    HW121041  10.454   0.601   5.645 -1.0441  0.6368  0.8596
 4983SOL    HW221042  10.359   0.485   5.627  0.3753 -0.3482 -0.6191
 4984SOL     OW21043   9.121   1.757   5.607  0.5597  0.1686 -0.1582
 4984SOL    HW121044   9.028   1.776   5.601  0.9714  2.2420 -0.7257
 4984SOL    HW221045   9.128   1.694   5.679 -0.9668  2.4128  2.1045
 4985SOL     OW21046   0.719  10.462   9.768 -0.6175  0.2031  0.0106
 4985SOL    HW121047   0.629  10.475   9.800 -0.6491  1.4147 -0.5291
 4985SOL    HW221048   0.710  10.450   9.674 -0.2354  0.1720 -0.0233
 4986SOL     OW21049   4.538   7.083   3.607 -0.6917 -0.4448 -0.2200
 4986SOL    HW121050   4.472   7.082   3.538  0.0085 -3.1825 -0.9645
 4986SOL    HW221051   4.544   6.992   3.637  2.2384 -0.2035  0.2882
 4987SOL     OW21052   5.936   4.595  10.727 -0.6869 -0.2614 -0.0497
 4987SOL    HW121053   5.881   4.665  10.763  0.0710  0.3101  0.0083
 4987SOL    HW221054   6.011   4.590  10.786  1.8713  2.3876 -2.7775
 4988SOL     OW21055   4.783   4.205  10.513 -0.3756  0.2775 -0.7259
 4988SOL    HW121056   4.695   4.170  10.532 -0.1286 -0.2950 -0.6166
 4988SOL    HW221057   4.767   4.293  10.479 -0.9442  0.5483  0.2091
 4989SOL     OW21058   0.105   0.199   2.831 -0.5881  0.0915 -0.3904
 4989SOL    HW121059   0.059   0.155   2.902  0.9718 -1.5548 -0.3414
 4989SOL    HW221060   0.035   0.232   2.774 -1.8286 -0.4300  0.7801
 4990SOL     OW21061  10.413   2.290   3.907 -0.3453  0.0584  0.2732
 4990SOL    HW121062  10.373   2.208   3.877 -2.3129  0.8075  0.7026
 4990SOL    HW221063  10.491   2.263   3.955 -0.1156 -1.4612 -0.8840
 4991SOL     OW21064   2.051   9.996   3.696 -0.1150 -0.0794  0.2797
 4991SOL    HW121065   2.093   9.995   3.610  1.0860 -1.0319  0.8449
 4991SOL    HW221066   2.000   9.914   3.698  0.5560 -0.4910  0.7919
 4992SOL     OW21067   6.353   0.412  10.217 -0.1848  0.2649 -0.3688
 4992SOL    HW121068   6.320   0.427  10.305  0.6845  1.4239 -0.2307
 4992SOL    HW221069   6.281   0.440  10.160 -0.6008 -0.1288 -0.0500
 4993SOL     OW21070   6.409   1.772   7.117  0.0827  0.1905  0.2406
 4993SOL    HW121071   6.332   1.825   7.135 -0.7080 -0.7693 -0.1921
 4993SOL    HW221072   6.460   1.774   7.198 -0.7439  0.2855  0.7709
 4994SOL     OW21073   5.167   3.637  10.516 -0.2816  0.1743 -0.2996
 4994SOL    HW121074   5.195   3.729  10.510 -1.6224  0.6663  0.4483
 4994SOL    HW221075   5.088   3.633  10.462  0.1266 -0.7063 -0.8415
 4995SOL     OW21076   3.380   4.302   1.012  0.2410  0.2453 -0.4127
 4995SOL    HW121077   3.329   4.351   0.947  1.9674  1.4241 -0.9476
 4995SOL    HW221078   3.449   4.363   1.039  0.5018 -0.7708  1.3848
 4996SOL     OW21079   3.883   5.198   2.992  0.5507  0.1844 -1.0551
 4996SOL    HW121080   3.916   5.242   2.913  0.3925 -1.8171 -2.3104
 4996SOL    HW221081   3.789   5.186   2.975  0.4209  0.1735 -0.3434
 4997SOL     OW21082   9.109   8.050   3.539  0.5572  0.6406  0.0824
 4997SOL    HW121083   9.137   8.123   3.595  0.3040  0.6695  0.1729
 4997SOL    HW221084   9.169   8.052   3.465  0.2777  1.2107 -0.1310
 4998SOL     OW21085   1.084   5.108   8.531 -0.2197 -0.4758  0.0013
 4998SOL    HW121086   1.099   5.202   8.546  1.7712 -0.2405 -2.6116
 4998SOL    HW221087   0.991   5.095   8.550 -1.2469  2.6573 -1.9780
 4999SOL     OW21088   3.703   0.108   7.091  0.0232 -0.0708  0.3561
 4999SOL    HW121089   3.699   0.194   7.050 -1.6115  0.5004  1.6210
 4999SOL    HW221090   3.639   0.056   7.042  1.2688 -0.7243 -0.6471
 5000SOL     OW21091   1.093   2.261   2.731 -0.2165 -0.1536  0.5353
 5000SOL    HW121092   1.183   2.257   2.763  1.1091  0.0484 -2.7991
 5000SOL    HW221093   1.039   2.255   2.811  2.6949  1.0538  2.7980
 5001SOL     OW21094   5.301   2.453   3.872 -0.5668  0.2748 -0.5069
 5001SOL    HW121095   5.339   2.484   3.955  0.8508  0.3817 -1.1743
 5001SOL    HW221096   5.219   2.411   3.898 -0.8251  1.4929  0.8121
 5002SOL     OW21097   8.936   6.290   3.574 -0.1190  0.0202  0.5595
 5002SOL    HW121098   9.005   6.234   3.539 -0.3284  1.2636 -2.0872
 5002SOL    HW221099   8.864   6.230   3.594  0.8697 -1.0142  1.1553
 5003SOL     OW21100   3.451   8.428   6.854 -0.2705  0.1255 -0.0991
 5003SOL    HW121101   3.438   8.418   6.948 -1.5896  0.8969 -0.1822
 5003SOL    HW221102   3.406   8.353   6.816  1.3617 -0.9107 -0.0872
 5004SOL     OW21103   3.255  10.790   8.588  0.3255 -0.7745 -0.3147
 5004SOL    HW121104   3.215  10.719   8.538  0.5337 -0.9933 -0.1698
 5004SOL    HW221105   3.201  10.799   8.666  1.0648 -1.6704  0.3227
 5005SOL     OW21106   2.995   4.832   9.371 -0.0669 -0.3836 -0.6266
 5005SOL    HW121107   2.944   4.911   9.388  0.7252 -0.0851  0.4651
 5005SOL    HW221108   3.001   4.828   9.276  2.0949  2.3515 -0.7246
 5006SOL     OW21109   3.692   9.861   4.322  0.0173 -0.7704  0.4758
 5006SOL    HW121110   3.675   9.951   4.351 -0.2736 -0.0182 -1.8475
 5006SOL    HW221111   3.616   9.811   4.352 -1.6161  0.5300 -1.2849
 5007SOL     OW21112   6.391   8.504   7.233 -0.2117  0.0597  0.2317
 5007SOL    HW121113   6.367   8.540   7.147  0.7102 -2.4636 -1.1906
 5007SOL    HW221114   6.474   8.546   7.254  0.4785 -0.6086 -1.0283
 5008SOL     OW21115   7.258   7.221   8.053  0.4077 -0.0883 -0.0508
 5008SOL    HW121116   7.198   7.247   8.123  0.3952  1.6533 -0.6625
 5008SOL    HW221117   7.302   7.302   8.027  0.0975 -0.5796 -2.3594
 5009SOL     OW21118   6.410   7.719   5.482  0.2988  0.2179  0.3061
 5009SOL    HW121119   6.445   7.683   5.563 -1.8554 -0.7898  0.8658
 5009SOL    HW221120   6.378   7.806   5.507 -1.8929 -0.7244  1.0542
 5010SOL     OW21121   4.773   0.862   7.817 -0.2103 -0.2997 -0.0474
 5010SOL    HW121122   4.776   0.956   7.836  1.3808 -0.4415  0.5502
 5010SOL    HW221123   4.707   0.854   7.748  1.6242  1.6614 -2.2288
 5011SOL     OW21124   8.827   2.055   1.649 -0.1834 -0.2915  0.0526
 5011SOL    HW121125   8.910   2.083   1.688 -0.9806  1.3164  0.7199
 5011SOL    HW221126   8.771   2.035   1.725 -0.7518 -0.2641 -0.3554
 5012SOL     OW21127   7.064   8.963   8.264  0.6518  0.0838 -0.0327
 5012SOL    HW121128   7.003   8.975   8.191  1.2104 -2.9436 -1.1494
 5012SOL    HW221129   7.148   8.990   8.228  0.2808  3.3698  1.2174
 5013SOL     OW21130   0.583   7.591   8.913  0.3558  0.4021  0.2969
 5013SOL    HW121131   0.550   7.584   8.823  1.0992  0.0803  0.0474
 5013SOL    HW221132   0.508   7.565   8.967 -0.3376  1.3116 -0.1858
 5014SOL     OW21133   4.596   9.230   5.500 -0.3599  0.3513 -0.1934
 5014SOL    HW121134   4.545   9.152   5.522  0.5628 -0.4022 -0.6503
 5014SOL    HW221135   4.582   9.289   5.574 -0.5202 -0.5260  0.4990
 5015SOL     OW21136   9.576   6.708   8.550 -0.0186  0.7794 -0.1963
 5015SOL    HW121137   9.496   6.745   8.589 -0.6564 -0.0422 -0.6908
 5015SOL    HW221138   9.555   6.699   8.457  0.1325 -0.7538 -0.0990
 5016SOL     OW21139   1.418   1.082  10.653 -0.0142  0.4598 -0.2725
 5016SOL    HW121140   1.375   1.025  10.717 -0.4184  0.2804 -0.6955
 5016SOL    HW221141   1.509   1.054  10.652 -0.0949  0.1906 -0.0750
 5017SOL     OW21142   2.084   0.358   1.675  0.1716 -0.5145  0.3955
 5017SOL    HW121143   2.029   0.354   1.754  0.3120 -2.3372  0.4518
 5017SOL    HW221144   2.145   0.285   1.685  0.9977 -0.0269 -0.8401
 5018SOL     OW21145   3.521   0.990   6.107  0.2834 -0.4101 -0.3286
 5018SOL    HW121146   3.613   1.009   6.096  0.5136 -1.1088  0.2504
 5018SOL    HW221147   3.486   1.065   6.155  1.0154 -1.0751  1.3194
 5019SOL     OW21148   9.103   8.001   0.869  0.8046 -0.3200 -0.4700
 5019SOL    HW121149   9.098   7.958   0.954 -3.0244  2.4608  1.0357
 5019SOL    HW221150   9.077   7.934   0.806  0.5326 -1.6334  0.9956
 5020SOL     OW21151   2.142   0.846   6.828  0.1664  0.1880 -0.1388
 5020SOL    HW121152   2.081   0.917   6.847 -0.3609  0.5441 -2.7367
 5020SOL    HW221153   2.229   0.885   6.840 -0.0594  1.9454 -3.1308
 5021SOL     OW21154   9.092   0.738   0.976  0.1678  0.2281  0.0592
 5021SOL    HW121155   9.023   0.704   1.032 -1.9915  1.7104 -1.5721
 5021SOL    HW221156   9.054   0.741   0.889  2.0565  1.7755 -0.7975
 5022SOL     OW21157   4.869   9.960  10.023  0.8194  0.3264  0.0684
 5022SOL    HW121158   4.782   9.939   9.989  1.0870  1.4359 -1.4035
 5022SOL    HW221159   4.857  10.043  10.070  0.9616  0.1408  0.4361
 5023SOL     OW21160   3.724   8.299   7.109 -0.2658  0.3141  0.3034
 5023SOL    HW121161   3.663   8.282   7.181 -0.7503 -1.1255 -0.4146
 5023SOL    HW221162   3.684   8.256   7.033 -0.1020  2.3541 -1.0071
 5024SOL     OW21163   3.140   1.070   9.425  0.4063 -0.8375  0.3416
 5024SOL    HW121164   3.066   1.102   9.374  1.6433  0.5886 -0.6588
 5024SOL    HW221165   3.104   1.000   9.479 -1.6695 -0.1305 -0.0444
 5025SOL     OW21166   9.297   7.613   8.425 -0.2286  0.3782  0.8750
 5025SOL    HW121167   9.224   7.556   8.448 -0.6765  1.2074  1.5711
 5025SOL    HW221168   9.288   7.689   8.483  0.5496  1.0026  0.2104
 5026SOL     OW21169   2.695   4.303   9.390  0.0053  0.5396  0.1325
 5026SOL    HW121170   2.648   4.260   9.319 -1.8265  1.3787  0.7637
 5026SOL    HW221171   2.764   4.353   9.347  1.8996 -2.4586 -0.6691
 5027SOL     OW21172   8.420  10.674   2.344 -0.4847 -0.0442 -0.0892
 5027SOL    HW121173   8.476  10.625   2.406 -0.0345 -0.3917 -0.7572
 5027SOL    HW221174   8.417  10.762   2.380 -0.4993 -0.3170  0.6116
 5028SOL     OW21175   0.864   6.305   6.612  0.3951  0.1132  0.4366
 5028SOL    HW121176   0.955   6.302   6.585  0.1976  0.9397 -0.3536
 5028SOL    HW221177   0.844   6.399   6.620 -1.6136  0.3086 -3.8428
 5029SOL     OW21178   4.284   3.522   4.584  0.1745 -0.6721 -0.5198
 5029SOL    HW121179   4.245   3.444   4.546  0.3894 -1.5499  0.9688
 5029SOL    HW221180   4.360   3.489   4.632  0.1838  0.4334  0.2529
 5030SOL     OW21181   0.557   5.100   7.357 -0.1628  0.0283 -0.1949
 5030SOL    HW121182   0.652   5.108   7.363  0.1319 -1.4330 -2.0960
 5030SOL    HW221183   0.531   5.063   7.441  0.6619  2.1891  1.1018
 5031SOL     OW21184   1.539   4.478   9.016 -0.5998  0.9896 -0.2762
 5031SOL    HW121185   1.516   4.406   9.076 -0.4779 -1.0858 -2.5615
 5031SOL    HW221186   1.596   4.535   9.068 -2.5637  0.7634  2.3575
 5032SOL     OW21187   0.101   8.317   7.269  0.9044  0.0491 -0.1380
 5032SOL    HW121188   0.113   8.294   7.361  0.3606  1.4754  0.3071
 5032SOL    HW221189   0.055   8.242   7.231 -2.9163  1.2152  1.7889
 5033SOL     OW21190   7.041   6.530   1.944 -0.3067  0.3624 -0.2608
 5033SOL    HW121191   6.972   6.587   1.909 -1.2002 -0.1340  0.6232
 5033SOL    HW221192   7.110   6.533   1.878 -0.7395  1.6885 -0.6874
 5034SOL     OW21193   1.259   9.757   3.732 -0.2805  0.4245 -0.1007
 5034SOL    HW121194   1.204   9.683   3.758 -1.4742  1.3985  0.2067
 5034SOL    HW221195   1.242   9.767   3.638  0.3005 -0.0232 -0.2588
 5035SOL     OW21196   5.234   8.669   5.155  0.1298 -0.2315  0.1728
 5035SOL    HW121197   5.323   8.641   5.176  0.1241 -1.3885 -1.1982
 5035SOL    HW221198   5.224   8.651   5.062 -1.0519  1.2846 -0.0479
 5036SOL     OW21199   2.116   8.166  10.202  0.0447 -0.0470 -0.2389
 5036SOL    HW121200   2.174   8.137  10.132 -0.9290 -0.2500 -0.9957
 5036SOL    HW221201   2.074   8.245  10.168 -0.4198 -0.1328  0.1146
 5037SOL     OW21202   0.836   9.106   5.202 -0.2925  0.4561 -0.1899
 5037SOL    HW121203   0.854   9.158   5.123 -1.7210  1.8240  0.3257
 5037SOL    HW221204   0.917   9.111   5.253  0.4654 -0.0047 -1.3003
 5038SOL     OW21205   2.314   1.334  10.554  0.2357  0.3457  0.1750
 5038SOL    HW121206   2.257   1.323  10.630 -1.9393  1.7707 -1.1705
 5038SOL    HW221207   2.399   1.300  10.583 -0.7198  0.1155  2.9556
 5039SOL     OW21208   1.922   5.229   8.931 -0.2290  0.8194  0.3216
 5039SOL    HW121209   1.912   5.274   8.847 -1.8439  0.9042  0.5183
 5039SOL    HW221210   1.882   5.143   8.918  1.3694  0.0247  0.4305
 5040SOL     OW21211   7.201   2.492   6.460 -0.1763 -0.7713  0.1512
 5040SOL    HW121212   7.120   2.541   6.471 -0.6420 -1.2219 -1.1089
 5040SOL    HW221213   7.270   2.559   6.460 -0.4963 -0.4047  1.4213
 5041SOL     OW21214   7.436   9.253   5.565 -0.4812 -0.1854 -0.6390
 5041SOL    HW121215   7.506   9.307   5.603 -0.7710  0.0112 -0.3853
 5041SOL    HW221216   7.425   9.180   5.626 -0.5144 -0.2034 -0.6659
 5042SOL     OW21217   7.552   3.255   5.551  0.2522  0.1933 -0.6238
 5042SOL    HW121218   7.636   3.241   5.506  0.5990 -1.3137  0.4204
 5042SOL    HW221219   7.486   3.233   5.485  0.6443  1.3374 -1.4380
 5043SOL     OW21220   1.232   2.511   0.921 -0.6509 -0.0662  0.0485
 5043SOL    HW121221   1.138   2.515   0.901 -0.9411 -0.4619  1.2281
 5043SOL    HW221222   1.268   2.452   0.855 -1.6278 -1.6103  0.8224
 5044SOL     OW21223   2.243   3.623   2.208  0.3717  0.0201  0.6583
 5044SOL    HW121224   2.275   3.577   2.131  0.9133  1.2932  0.0878
 5044SOL    HW221225   2.155   3.589   2.222  0.2178 -0.1506 -0.5987
 5045SOL     OW21226   5.004   3.709   3.501 -0.5117 -0.0005 -0.0479
 5045SOL    HW121227   4.972   3.620   3.515  0.9759 -0.5104  0.3259
 5045SOL    HW221228   5.000   3.722   3.407  1.3683 -1.3336 -0.3592
 5046SOL     OW21229   8.689   6.691  10.707  0.4235  0.3763 -0.4367
 5046SOL    HW121230   8.733   6.748  10.771  1.3818  2.8009 -3.0385
 5046SOL    HW221231   8.606   6.735  10.690  0.0488 -0.4075 -0.6620
 5047SOL     OW21232   6.387   6.754   2.588 -0.3628  0.0928  0.4403
 5047SOL    HW121233   6.411   6.846   2.581 -1.5248  0.4139  0.4684
 5047SOL    HW221234   6.439   6.711   2.520 -1.3263  1.1019 -1.0226
 5048SOL     OW21235   6.350   3.639   5.894  0.1336 -0.2760  0.3368
 5048SOL    HW121236   6.289   3.596   5.835  0.1821 -1.6293  1.2237
 5048SOL    HW221237   6.298   3.655   5.973 -0.2369  2.4667 -0.3603
 5049SOL     OW21238   2.344   2.053   9.347  0.3247 -0.2969  0.2450
 5049SOL    HW121239   2.254   2.034   9.318  0.4165  1.3776 -1.2986
 5049SOL    HW221240   2.399   2.001   9.289  0.4030  0.8041 -0.7167
 5050SOL     OW21241   7.900   3.726   8.628 -0.1278 -0.0184  0.0198
 5050SOL    HW121242   7.930   3.675   8.703 -0.4028  0.0027  0.1446
 5050SOL    HW221243   7.981   3.759   8.588  0.2039 -2.0918 -1.1835
 5051SOL     OW21244   7.022   7.141   3.689  0.0770 -0.5361 -0.0550
 5051SOL    HW121245   6.978   7.208   3.741  1.9477  0.6939  0.0458
 5051SOL    HW221246   6.997   7.059   3.730 -2.3003  0.0304 -0.1795
 5052SOL     OW21247   5.169   8.628   1.382 -1.1562 -0.0390 -0.0530
 5052SOL    HW121248   5.258   8.626   1.346 -0.6451  2.5114  0.8728
 5052SOL    HW221249   5.149   8.536   1.400  0.6335 -0.8587 -1.7920
 5053SOL     OW21250   8.959   8.259   0.425 -0.3584  0.0197  0.0658
 5053SOL    HW121251   8.883   8.303   0.386 -0.4594  0.4313  0.7086
 5053SOL    HW221252   9.011   8.232   0.350 -0.3365  1.1728 -0.3673
 5054SOL     OW21253   2.745   8.229   4.801 -0.3600 -0.4963 -0.1832
 5054SOL    HW121254   2.840   8.231   4.788 -0.5610 -3.1185 -3.5193
 5054SOL    HW221255   2.718   8.320   4.785  1.5256  0.3180  0.8607
 5055SOL     OW21256   2.999   9.696   1.684  0.3011 -0.5676 -0.4092
 5055SOL    HW121257   2.949   9.679   1.763 -0.5619 -2.5850 -1.3290
 5055SOL    HW221258   3.058   9.768   1.708 -0.9949 -0.0876  1.5675
 5056SOL     OW21259   6.615   8.328   2.701  0.5200 -0.2329  0.0066
 5056SOL    HW121260   6.635   8.400   2.641  1.1799 -1.4977 -1.3484
 5056SOL    HW221261   6.671   8.256   2.672 -0.8434 -1.6205  0.6736
 5057SOL     OW21262   4.398   3.947   0.263  0.1000  0.0033  0.8366
 5057SOL    HW121263   4.328   3.927   0.201  0.8202  0.5156 -0.1888
 5057SOL    HW221264   4.387   4.040   0.282 -0.0143 -0.1152  1.3383
 5058SOL     OW21265   5.168   2.288   4.828 -0.6067  0.1073  0.4772
 5058SOL    HW121266   5.142   2.365   4.879 -1.7693 -0.5037  0.8343
 5058SOL    HW221267   5.206   2.228   4.893  0.8740  0.5881  0.1108
 5059SOL     OW21268   8.457   5.465   9.224 -0.4746  0.1030 -0.0515
 5059SOL    HW121269   8.504   5.539   9.185 -0.5925 -0.4193 -1.2328
 5059SOL    HW221270   8.365   5.487   9.213 -0.5097 -0.0404 -0.0429
 5060SOL     OW21271   3.323   6.098   2.499 -0.4388  0.3744  0.1354
 5060SOL    HW121272   3.347   6.153   2.424  2.3998 -0.2752  0.4844
 5060SOL    HW221273   3.377   6.130   2.571 -0.2677 -1.5119  0.9035
 5061SOL     OW21274   1.328   8.894   9.898 -0.7279  0.2226  0.3677
 5061SOL    HW121275   1.392   8.934   9.958 -1.2511  0.1316  0.9945
 5061SOL    HW221276   1.324   8.803   9.925 -2.4171  0.5927  1.5061
 5062SOL     OW21277   4.779   7.251   9.987  0.0285 -0.3064  0.2443
 5062SOL    HW121278   4.824   7.264  10.071  0.2523 -0.4434  0.1475
 5062SOL    HW221279   4.697   7.207  10.010  0.9404 -2.1343  0.2390
 5063SOL     OW21280   3.611   9.940   6.501  0.0530  0.3041  0.7181
 5063SOL    HW121281   3.653  10.024   6.482 -1.2287  1.1933  1.6117
 5063SOL    HW221282   3.622   9.930   6.596  0.7141 -0.8550  0.5352
 5064SOL     OW21283   2.600   2.825   0.757  0.2043  0.1475 -0.4363
 5064SOL    HW121284   2.693   2.842   0.774  0.0615  0.7322 -0.1878
 5064SOL    HW221285   2.582   2.871   0.675  0.1952 -0.1837 -0.6199
 5065SOL     OW21286   5.386   5.037   8.347  0.1062  0.3788  0.1235
 5065SOL    HW121287   5.296   5.018   8.373  0.3771 -1.2225  0.0046
 5065SOL    HW221288   5.438   4.970   8.392  1.1714  0.8883 -0.3187
 5066SOL     OW21289   6.374   8.385   4.392 -0.0942  0.0189  0.3096
 5066SOL    HW121290   6.438   8.448   4.359 -0.7861  0.6351  0.1292
 5066SOL    HW221291   6.321   8.363   4.316  0.0954 -0.7287  0.3896
 5067SOL     OW21292   0.847   8.809   1.436 -0.3889 -0.2110 -0.2197
 5067SOL    HW121293   0.915   8.827   1.502 -1.4714  0.3715  0.7685
 5067SOL    HW221294   0.804   8.730   1.468 -0.1413 -0.6251 -0.8885
 5068SOL     OW21295   4.863   6.396   0.653  0.4264 -0.0758 -0.2103
 5068SOL    HW121296   4.872   6.488   0.677  1.4600 -0.6199  1.7476
 5068SOL    HW221297   4.774   6.373   0.681 -0.1663  0.5112 -1.5262
 5069SOL     OW21298   7.477   7.219   5.091 -0.0870 -0.2754  0.3698
 5069SOL    HW121299   7.492   7.305   5.132  0.7284  1.3138 -2.8983
 5069SOL    HW221300   7.565   7.189   5.067 -0.5697 -0.5258 -1.1934
 5070SOL     OW21301   5.103  10.127   6.286 -0.6142 -0.0373  0.0083
 5070SOL    HW121302   5.084  10.205   6.338 -1.3121 -0.2996  0.1646
 5070SOL    HW221303   5.096  10.156   6.195 -1.9212 -0.1480  0.0611
 5071SOL     OW21304   3.255   2.155   5.887  0.7221  0.0795  0.1437
 5071SOL    HW121305   3.258   2.241   5.928  2.1013  0.6618 -1.0760
 5071SOL    HW221306   3.316   2.102   5.938 -1.4347 -0.7972  2.0265
 5072SOL     OW21307  10.899   0.458   0.845  0.0686 -0.1192  0.1746
 5072SOL    HW121308  10.970   0.432   0.786 -0.1679 -0.2275 -0.0672
 5072SOL    HW221309  10.863   0.536   0.805 -0.7914 -0.7971 -0.4202
 5073SOL     OW21310   1.374   5.034   6.398 -1.1670 -0.1294 -0.1103
 5073SOL    HW121311   1.465   5.063   6.395 -1.2205  0.0993  0.3214
 5073SOL    HW221312   1.326   5.110   6.431 -1.5249 -0.2289 -0.3897
 5074SOL     OW21313   1.238   9.002   6.808  0.2068  0.3790 -0.0820
 5074SOL    HW121314   1.299   9.073   6.785  2.5854 -2.2751 -2.9510
 5074SOL    HW221315   1.285   8.922   6.783 -2.7568 -2.1846  1.8970
 5075SOL     OW21316   5.659   4.082   4.274 -0.5989  0.1032 -0.2854
 5075SOL    HW121317   5.630   4.173   4.274  1.1103  0.7597  2.0701
 5075SOL    HW221318   5.713   4.074   4.196 -2.2402  0.5106 -1.5296
 5076SOL     OW21319   1.456   9.268   5.112  0.8632 -0.2259  0.3716
 5076SOL    HW121320   1.498   9.301   5.192  0.6352 -1.9621  1.2461
 5076SOL    HW221321   1.513   9.298   5.041 -0.0442  3.2395  0.8826
 5077SOL     OW21322   3.971   1.791   0.904  0.2894  0.0302 -0.1992
 5077SOL    HW121323   4.006   1.819   0.819  2.3376  0.5807  0.7682
 5077SOL    HW221324   3.897   1.848   0.920  0.8449  0.9753 -0.9153
 5078SOL     OW21325   1.620   9.317   1.303 -0.2027 -0.2356  0.1680
 5078SOL    HW121326   1.571   9.281   1.376 -1.6806 -0.7450 -1.0261
 5078SOL    HW221327   1.708   9.334   1.338 -1.0824  0.2842  2.2445
 5079SOL     OW21328   1.489   2.384   5.379 -0.3652 -0.2475  0.3326
 5079SOL    HW121329   1.507   2.363   5.471 -1.6737  1.2029  0.9421
 5079SOL    HW221330   1.538   2.317   5.330 -0.2141 -1.4851  2.0784
 5080SOL     OW21331   8.367   9.561   2.678 -0.3598 -0.3533 -0.1892
 5080SOL    HW121332   8.410   9.621   2.738  1.4941 -2.6038  0.9179
 5080SOL    HW221333   8.281   9.546   2.717 -0.2313  0.3412  0.3774
 5081SOL     OW21334   1.530   7.835   4.283  0.0878  0.6606  0.0632
 5081SOL    HW121335   1.617   7.872   4.300  0.4336  0.1812 -0.6374
 5081SOL    HW221336   1.526   7.824   4.188 -0.7340  0.6582  0.0880
 5082SOL     OW21337   9.259   6.674   0.074 -0.3851  0.0468 -0.7709
 5082SOL    HW121338   9.198   6.688   0.146  0.2285  1.1485 -0.4446
 5082SOL    HW221339   9.307   6.756   0.066  1.0318 -0.7578 -1.0350
 5083SOL     OW21340   8.929   0.050   0.878 -0.0856  0.0142 -0.0646
 5083SOL    HW121341   8.927  -0.045   0.889  0.8145  0.1695  1.8605
 5083SOL    HW221342   8.900   0.064   0.788  4.5269 -2.4105 -2.3260
 5084SOL     OW21343   1.311   2.932   4.811 -0.4199 -0.0168 -0.7905
 5084SOL    HW121344   1.377   2.863   4.815  0.9254  1.2258  2.5428
 5084SOL    HW221345   1.228   2.887   4.829  0.1934 -1.0335 -0.4305
 5085SOL     OW21346   7.784   8.080   8.562 -0.0334 -0.0219 -0.0201
 5085SOL    HW121347   7.838   8.004   8.544 -1.6449 -2.1785  3.2336
 5085SOL    HW221348   7.705   8.068   8.509  0.2147  0.0157 -0.3945
 5086SOL     OW21349   6.351   9.773   2.604  0.0231  0.3212 -0.3018
 5086SOL    HW121350   6.331   9.715   2.530  0.0037  1.7761 -1.4987
 5086SOL    HW221351   6.315   9.729   2.680  0.0933 -1.2629 -1.1492
 5087SOL     OW21352   4.984   5.743   9.508  0.0736  0.3307 -0.0868
 5087SOL    HW121353   5.028   5.815   9.553 -0.3017  0.9864 -0.7501
 5087SOL    HW221354   4.922   5.709   9.573 -0.0582  0.8915  0.0867
 5088SOL     OW21355   2.326   9.314   3.869 -0.0035 -0.5954 -0.3217
 5088SOL    HW121356   2.285   9.400   3.862 -0.0797 -0.6585 -0.6942
 5088SOL    HW221357   2.255   9.256   3.899  0.2069 -0.4118  0.5632
 5089SOL     OW21358   7.182   2.636   1.365  0.0037 -0.3755  0.4380
 5089SOL    HW121359   7.222   2.553   1.390  0.9347 -0.4862 -1.3099
 5089SOL    HW221360   7.187   2.638   1.270 -1.4435  0.9875  0.3430
 5090SOL     OW21361   2.999   0.082   2.224 -0.1642  0.0768 -0.4085
 5090SOL    HW121362   3.008   0.174   2.250 -0.5785 -0.1883  0.7266
 5090SOL    HW221363   2.904   0.070   2.213 -0.2117 -0.5151  0.6173
 5091SOL     OW21364   2.476   4.945   5.997  0.2289  0.1341 -0.1363
 5091SOL    HW121365   2.404   4.927   6.058 -0.3065 -0.8518 -1.0120
 5091SOL    HW221366   2.479   5.040   5.989  0.4941  0.2946  1.6166
 5092SOL     OW21367   2.709   2.038   6.846  0.4336  0.5518  0.2569
 5092SOL    HW121368   2.633   2.083   6.808  1.0465  0.4774 -1.1407
 5092SOL    HW221369   2.674   1.956   6.880 -0.1628  0.6295 -0.1497
 5093SOL     OW21370   0.661   2.811   3.769 -0.6046 -0.0480  0.0888
 5093SOL    HW121371   0.702   2.876   3.827  1.3862 -0.1036 -1.1446
 5093SOL    HW221372   0.635   2.740   3.827 -1.8552  1.3484  1.3380
 5094SOL     OW21373   1.750   2.212   6.782  0.0568  0.6924  0.2546
 5094SOL    HW121374   1.754   2.237   6.689  1.1966  1.5639  0.5342
 5094SOL    HW221375   1.811   2.270   6.826  1.6358 -1.5104  1.1665
 5095SOL     OW21376   0.648   3.652   2.033 -0.5355  0.6228  0.5068
 5095SOL    HW121377   0.671   3.604   1.953 -0.5908 -0.0547  0.8880
 5095SOL    HW221378   0.627   3.740   2.003 -2.5619 -0.1279 -0.5096
 5096SOL     OW21379   3.174   1.287   0.424 -0.2423  0.5442 -0.1586
 5096SOL    HW121380   3.197   1.316   0.512 -0.4310  0.4500 -0.0796
 5096SOL    HW221381   3.132   1.363   0.384 -0.0613  0.6215 -0.2043
 5097SOL     OW21382   6.922   3.288   0.794 -0.1540 -0.0907  0.3811
 5097SOL    HW121383   6.940   3.248   0.879  1.5902  0.2672  0.2309
 5097SOL    HW221384   7.004   3.277   0.746 -1.2013 -0.5598 -1.3839
 5098SOL     OW21385   6.802   0.286   2.493 -0.0113 -0.0037 -0.0991
 5098SOL    HW121386   6.850   0.369   2.492 -0.1616  0.0860 -0.9782
 5098SOL    HW221387   6.854   0.229   2.549 -0.4417  0.9900  1.3479
 5099SOL     OW21388   9.015   2.223   4.625 -0.2296 -0.1043  0.0140
 5099SOL    HW121389   9.078   2.176   4.570 -0.6687  0.1786 -0.7474
 5099SOL    HW221390   8.945   2.249   4.564 -0.8295  0.0328  0.7492
 5100SOL     OW21391   8.149   9.337   4.670 -0.0459 -0.1916 -0.0025
 5100SOL    HW121392   8.125   9.283   4.746 -1.3523 -0.4404 -0.5749
 5100SOL    HW221393   8.075   9.395   4.656  0.2356 -0.0467 -1.0041
 5101SOL     OW21394   0.717   0.170   7.059  0.1085 -0.2718 -0.0144
 5101SOL    HW121395   0.756   0.138   7.140 -1.3465  0.0236  0.8372
 5101SOL    HW221396   0.759   0.118   6.990  1.7201 -0.1998  0.8643
 5102SOL     OW21397   7.861   3.836   8.295  0.1815  0.2116 -0.0321
 5102SOL    HW121398   7.928   3.838   8.226 -0.0225  1.6848 -0.2222
 5102SOL    HW221399   7.852   3.743   8.317  1.5769 -0.1111 -0.6946
 5103SOL     OW21400   7.868  10.427   6.293  0.3722  0.3139  0.5326
 5103SOL    HW121401   7.916  10.359   6.247 -0.7274  0.0521 -0.2674
 5103SOL    HW221402   7.897  10.509   6.253 -0.6343  0.0866 -0.7296
 5104SOL     OW21403   6.283   4.540   1.392 -0.2218 -0.2935  0.1038
 5104SOL    HW121404   6.310   4.531   1.483  1.5685 -1.2605 -0.4854
 5104SOL    HW221405   6.307   4.629   1.368  3.5725 -1.3365 -0.6482
 5105SOL     OW21406   1.375   8.589   5.049 -0.4087 -0.2110  0.1530
 5105SOL    HW121407   1.453   8.605   4.997 -1.2011  1.2078 -0.6933
 5105SOL    HW221408   1.365   8.494   5.050  0.3242 -0.3257 -1.2582
 5106SOL     OW21409   5.845   4.945   9.638  0.1932  0.2341  0.0276
 5106SOL    HW121410   5.843   4.852   9.657 -0.7556  0.1416 -0.4780
 5106SOL    HW221411   5.793   4.985   9.707 -0.0055  0.3149 -0.1691
 5107SOL     OW21412   4.487   1.734   2.463 -0.2911  0.0887 -0.8101
 5107SOL    HW121413   4.455   1.703   2.548 -1.3549 -0.0862 -1.2643
 5107SOL    HW221414   4.573   1.773   2.483 -0.7379  0.5020  0.4278
 5108SOL     OW21415   9.688  10.769   7.979 -0.2818  0.2777  0.3185
 5108SOL    HW121416   9.689  10.679   8.011 -3.1433  0.3283  0.7931
 5108SOL    HW221417   9.768  10.777   7.926 -0.6090 -2.9266 -0.8609
 5109SOL     OW21418   1.977   0.340   3.367 -0.4804  0.3208 -0.3246
 5109SOL    HW121419   1.934   0.400   3.306 -0.2152  0.5599 -0.2809
 5109SOL    HW221420   2.049   0.392   3.404 -0.2742 -0.0117 -0.2559
 5110SOL     OW21421   4.584   9.621   5.394 -0.6440 -0.2834 -0.0710
 5110SOL    HW121422   4.549   9.596   5.309 -1.2485 -1.1002  0.4059
 5110SOL    HW221423   4.555   9.711   5.407 -1.5770 -0.5607 -0.2004
 5111SOL     OW21424   9.908  10.782   8.858  0.3442 -0.4207 -0.2764
 5111SOL    HW121425   9.997  10.748   8.867 -0.0909 -1.7787 -0.8341
 5111SOL    HW221426   9.893  10.788   8.764 -0.5534 -1.3608 -0.2102
 5112SOL     OW21427   3.466   8.028  10.594 -0.2305 -0.2805  0.3817
 5112SOL    HW121428   3.438   8.067  10.511  0.9089 -0.3023 -0.0285
 5112SOL    HW221429   3.384   8.002  10.637 -0.8986  0.8956 -0.1489
 5113SOL     OW21430   2.851   2.757   4.965 -0.2700 -0.3071  0.4765
 5113SOL    HW121431   2.805   2.816   5.025 -0.2212 -0.6564  0.8609
 5113SOL    HW221432   2.798   2.757   4.886  0.4097  1.2817 -0.0304
 5114SOL     OW21433   7.939   6.696   0.754  0.2773 -0.4005  0.0339
 5114SOL    HW121434   7.873   6.685   0.821 -0.2957  2.0868 -0.0139
 5114SOL    HW221435   7.909   6.643   0.680 -1.2736  0.0793  0.2938
 5115SOL     OW21436   3.163   4.611  10.299  0.2420 -0.7342 -0.0537
 5115SOL    HW121437   3.253   4.634  10.273 -0.0505  0.8020  0.2020
 5115SOL    HW221438   3.155   4.647  10.388 -0.3277 -1.7056  0.2956
 5116SOL     OW21439   9.917   4.292   8.257 -0.0571  0.5826 -0.2591
 5116SOL    HW121440   9.969   4.373   8.251  0.6638  0.1046 -0.6073
 5116SOL    HW221441   9.946   4.239   8.183  1.9990 -1.4097  1.7783
 5117SOL     OW21442   5.942   7.422   4.129  0.0243  0.5165  0.0251
 5117SOL    HW121443   5.893   7.423   4.212  1.0249 -1.3364  0.7073
 5117SOL    HW221444   5.877   7.445   4.063 -1.0409  1.0833  1.2070
 5118SOL     OW21445   8.552   5.049   6.445  0.3160  0.5248  0.0000
 5118SOL    HW121446   8.484   5.054   6.377 -0.9535  1.9140  1.2902
 5118SOL    HW221447   8.537   5.126   6.500  0.9186 -0.8093  2.1919
 5119SOL     OW21448   1.829   3.048  10.340 -0.4456 -0.5198 -0.2146
 5119SOL    HW121449   1.734   3.041  10.333 -0.3521  0.0843 -2.6076
 5119SOL    HW221450   1.857   3.093  10.261  1.9098 -1.1961  0.1471
 5120SOL     OW21451   9.219   0.576  10.915 -0.3943 -0.1174 -0.2378
 5120SOL    HW121452   9.309   0.605  10.906 -0.4977  0.4313  0.4524
 5120SOL    HW221453   9.226   0.483  10.937  0.0239  0.1088  0.5975
 5121SOL     OW21454   2.957  10.066   7.928 -0.2200 -0.2059 -0.2183
 5121SOL    HW121455   2.965   9.984   7.976 -0.4905 -1.0413 -1.5352
 5121SOL    HW221456   2.985  10.134   7.990 -2.1658 -1.0234  1.6584
 5122SOL     OW21457   3.048   0.408   4.214 -0.2128 -0.1499  0.0517
 5122SOL    HW121458   2.995   0.475   4.170  1.2340  0.1544 -1.3427
 5122SOL    HW221459   3.139   0.435   4.196  0.4023 -1.5272  0.9716
 5123SOL     OW21460   3.446   3.623   4.063 -0.3252  0.4182 -0.1082
 5123SOL    HW121461   3.383   3.590   3.999 -1.3975 -0.5313  1.3645
 5123SOL    HW221462   3.532   3.607   4.024 -0.9490  0.0346 -1.3658
 5124SOL     OW21463   3.259   9.304   0.680  0.1352 -0.0060 -0.0681
 5124SOL    HW121464   3.310   9.224   0.686 -0.3920 -0.2420  2.3062
 5124SOL    HW221465   3.177   9.284   0.726  0.0062  1.8624  0.6272
 5125SOL     OW21466   8.169   1.364   7.359 -0.9157 -0.3000  0.2060
 5125SOL    HW121467   8.115   1.439   7.383 -1.2930 -0.2231 -0.8590
 5125SOL    HW221468   8.112   1.288   7.375 -0.3974 -0.4238  1.6772
 5126SOL     OW21469   1.835   3.971   2.105 -0.3306 -0.1967 -0.2837
 5126SOL    HW121470   1.895   4.040   2.076 -0.4944 -0.1494 -0.5195
 5126SOL    HW221471   1.793   4.007   2.183  2.6322 -1.6690  2.1627
 5127SOL     OW21472   1.149   6.035  10.513 -0.4953 -0.0915  0.0169
 5127SOL    HW121473   1.125   6.126  10.497  0.0102 -0.0492 -0.5303
 5127SOL    HW221474   1.162   6.030  10.607 -2.6064 -0.1135  0.3683
 5128SOL     OW21475   8.847   3.640   5.427  0.3223  0.1596  0.0389
 5128SOL    HW121476   8.876   3.615   5.515  1.3736 -0.4020 -0.4495
 5128SOL    HW221477   8.835   3.557   5.382 -1.5256  0.3807  0.0176
 5129SOL     OW21478   0.049   4.299  10.673  0.4815  0.0144 -0.5791
 5129SOL    HW121479   0.013   4.211  10.684  0.2807  0.0141 -1.1870
 5129SOL    HW221480   0.007   4.332  10.593  1.8371  0.0147 -1.3161
 5130SOL     OW21481   3.686  10.233   9.558 -0.2096  0.4657  0.0524
 5130SOL    HW121482   3.604  10.208   9.601 -0.0762 -1.6268 -0.7693
 5130SOL    HW221483   3.754  10.199   9.616  0.0074 -0.3234 -0.6539
 5131SOL     OW21484   6.375   1.883   3.417  0.4903 -0.3268  0.7941
 5131SOL    HW121485   6.305   1.818   3.409 -0.5533  0.9233 -1.3150
 5131SOL    HW221486   6.387   1.894   3.511 -0.7115 -2.0736  1.2147
 5132SOL     OW21487   7.693   7.429   3.695 -0.3199  0.9712 -0.2018
 5132SOL    HW121488   7.620   7.489   3.711  0.2456  2.0375 -1.4118
 5132SOL    HW221489   7.757   7.452   3.762 -0.2976  1.4136 -0.3698
 5133SOL     OW21490   7.183  10.522   5.361  0.4627  0.3078 -0.4517
 5133SOL    HW121491   7.173  10.589   5.294 -0.4022 -0.1412 -0.7987
 5133SOL    HW221492   7.275  10.496   5.356  0.4863  0.5033 -1.2546
 5134SOL     OW21493   0.206   5.548   9.152  0.0381  0.1110  0.0556
 5134SOL    HW121494   0.224   5.465   9.107  2.4183  1.0770 -0.9420
 5134SOL    HW221495   0.150   5.524   9.225 -1.1087 -2.0440 -1.4192
 5135SOL     OW21496   7.264   5.495   0.477 -0.0977  0.3151 -0.7669
 5135SOL    HW121497   7.321   5.565   0.509 -0.7124  0.8057 -0.7362
 5135SOL    HW221498   7.247   5.441   0.554  0.7672 -0.1544 -0.8903
 5136SOL     OW21499   1.863   1.143   8.476  0.1838 -0.0460  0.0438
 5136SOL    HW121500   1.805   1.209   8.514  0.5589  0.0887  0.3997
 5136SOL    HW221501   1.816   1.061   8.486 -0.7709  0.2921 -1.4009
 5137SOL     OW21502   8.013   8.979   6.950  0.3276 -0.0502 -0.2217
 5137SOL    HW121503   8.079   8.917   6.979 -0.2487 -0.9094 -0.7011
 5137SOL    HW221504   8.060   9.038   6.890  0.1842 -2.2283 -2.6548
 5138SOL     OW21505   2.197  10.247   1.264  0.7412 -0.4819 -0.2110
 5138SOL    HW121506   2.173  10.310   1.196  0.2294 -0.4937 -0.0402
 5138SOL    HW221507   2.193  10.162   1.220  1.3193 -0.4093 -0.4110
 5139SOL     OW21508   6.500   9.557  10.506 -0.4846  0.2239  0.0344
 5139SOL    HW121509   6.491   9.461  10.500 -0.8668  0.2467  0.2176
 5139SOL    HW221510   6.476   9.588  10.419  1.3722  0.0434 -0.5852
 5140SOL     OW21511   7.752   4.377   0.158  0.1620  0.1862  1.1333
 5140SOL    HW121512   7.686   4.326   0.205  0.4850 -1.1979  0.1633
 5140SOL    HW221513   7.835   4.347   0.195  0.4024 -0.7113 -0.0710
 5141SOL     OW21514   0.424   9.174   4.114 -0.9093  0.0393  0.6120
 5141SOL    HW121515   0.486   9.102   4.104 -1.5597 -0.3626 -0.7945
 5141SOL    HW221516   0.399   9.197   4.024 -1.6924  1.1620  1.0889
 5142SOL     OW21517   6.284   4.985   7.310 -0.1019  0.1054  0.3491
 5142SOL    HW121518   6.337   4.999   7.389  0.1772 -1.9965  0.5781
 5142SOL    HW221519   6.346   4.953   7.245 -0.4821  1.0704 -0.5236
 5143SOL     OW21520   1.787   0.998   1.325 -0.2403 -0.4569  0.7628
 5143SOL    HW121521   1.697   0.966   1.331 -0.1840 -0.5848  0.9281
 5143SOL    HW221522   1.807   1.032   1.412 -0.7686  1.2953  0.2525
 5144SOL     OW21523   2.517  10.217   0.154 -0.1326 -0.0552 -0.2323
 5144SOL    HW121524   2.585  10.234   0.090  0.4118 -0.6486  0.1767
 5144SOL    HW221525   2.470  10.300   0.162  0.0463  0.1346 -1.0909
 5145SOL     OW21526   1.630   7.972  10.647 -0.6142 -0.3376 -0.3869
 5145SOL    HW121527   1.573   7.919  10.703  0.2179 -1.5177 -0.6314
 5145SOL    HW221528   1.641   8.054  10.695  0.6229 -1.5610  1.5425
 5146SOL     OW21529   6.975   4.642   0.169 -0.1906  0.0525 -0.0536
 5146SOL    HW121530   7.066   4.670   0.175 -0.7500  2.0018  0.1240
 5146SOL    HW221531   6.927   4.707   0.221 -1.8181 -0.1931 -1.1746
 5147SOL     OW21532   8.407   8.731   2.261  0.4118  0.7334  0.5025
 5147SOL    HW121533   8.346   8.714   2.188  1.0622 -0.0778  0.1355
 5147SOL    HW221534   8.402   8.825   2.274 -1.2824  0.6414  0.7888
 5148SOL     OW21535   8.140   9.926   6.403 -0.5192 -0.3635  0.0915
 5148SOL    HW121536   8.193   9.852   6.432 -0.1139 -0.2365 -0.3182
 5148SOL    HW221537   8.131   9.914   6.309  1.2096  1.1290 -0.3323
 5149SOL     OW21538   5.899  10.077   6.071 -0.0950  0.0387  0.1771
 5149SOL    HW121539   5.900  10.011   6.002 -0.6454  1.0843 -0.8758
 5149SOL    HW221540   5.878  10.028   6.151  0.3700 -1.1704 -0.4159
 5150SOL     OW21541  10.330   8.716   4.098  0.0050 -0.5803  0.0076
 5150SOL    HW121542  10.406   8.699   4.153 -0.5079  1.2029  1.3452
 5150SOL    HW221543  10.362   8.775   4.030 -0.3014  0.8034  1.0228
 5151SOL     OW21544   2.605   8.341   0.545  0.3411  0.0194  0.1941
 5151SOL    HW121545   2.562   8.355   0.630  1.3006 -2.2845  1.1647
 5151SOL    HW221546   2.698   8.333   0.566  0.7787  0.8199 -1.3013
 5152SOL     OW21547  10.889   7.027  10.791  0.2304 -0.8428  0.6401
 5152SOL    HW121548  10.869   6.957  10.728  1.0057 -2.4601  2.1016
 5152SOL    HW221549  10.930   7.095  10.737 -2.5327 -0.4729 -1.1984
 5153SOL     OW21550   4.380   9.965   9.834 -0.2763  0.6537 -0.1675
 5153SOL    HW121551   4.328   9.890   9.807 -0.8801  0.7322  0.7451
 5153SOL    HW221552   4.378  10.024   9.758  2.3623 -1.2955 -1.9448
 5154SOL     OW21553   4.984   1.502   6.779 -0.1322 -0.7218  0.6932
 5154SOL    HW121554   4.893   1.526   6.797 -0.0359 -0.1761  0.4738
 5154SOL    HW221555   4.988   1.408   6.797 -0.6767 -0.7017  0.9472
 5155SOL     OW21556   5.501   6.784   3.237 -0.4312 -0.1473 -0.0452
 5155SOL    HW121557   5.501   6.836   3.317  0.6011 -0.5762  0.2447
 5155SOL    HW221558   5.506   6.849   3.167 -0.0265  0.1880  0.2837
 5156SOL     OW21559   0.418   2.866   3.120  0.0800  0.0178  0.2522
 5156SOL    HW121560   0.348   2.864   3.055  0.7704  0.9442 -0.5591
 5156SOL    HW221561   0.471   2.789   3.102  0.7303  0.6994 -0.8449
 5157SOL     OW21562  10.655   0.587   1.450 -0.3614 -0.0508 -0.2430
 5157SOL    HW121563  10.608   0.591   1.534 -0.3577  2.3398 -0.2880
 5157SOL    HW221564  10.747   0.581   1.475 -0.4553 -4.4840 -0.1564
 5158SOL     OW21565   5.408   8.317   2.114 -0.0182 -0.5422 -0.1282
 5158SOL    HW121566   5.438   8.401   2.081  3.4851 -0.2435  3.1287
 5158SOL    HW221567   5.369   8.337   2.199  0.6367 -2.1259  0.5989
 5159SOL     OW21568   4.401   1.766   6.003 -0.0467 -0.2317  0.0189
 5159SOL    HW121569   4.384   1.770   5.908 -0.3061  1.4272  0.1149
 5159SOL    HW221570   4.441   1.680   6.016 -0.4364 -0.6801 -1.5314
 5160SOL     OW21571   3.828   6.886   7.953  0.1744 -0.1015  0.1601
 5160SOL    HW121572   3.783   6.920   8.031 -1.0037 -0.3544 -0.3834
 5160SOL    HW221573   3.852   6.796   7.977  0.0500 -0.0934  0.3167
 5161SOL     OW21574   5.865   9.655   4.621  0.0768 -0.5495  0.2559
 5161SOL    HW121575   5.931   9.641   4.553  0.0784  0.6125 -0.0070
 5161SOL    HW221576   5.841   9.567   4.650  1.6578 -1.0110  0.2796
 5162SOL     OW21577  10.625   7.874   6.746 -0.0040  0.2037  0.5832
 5162SOL    HW121578  10.661   7.898   6.661  0.0230  0.1587  0.5818
 5162SOL    HW221579  10.566   7.946   6.769  0.0364  0.2457  0.5554
 5163SOL     OW21580   8.443   2.802   7.148  0.1033 -0.8293 -0.6452
 5163SOL    HW121581   8.470   2.785   7.058 -0.1684  2.6411 -1.5139
 5163SOL    HW221582   8.350   2.780   7.149 -0.2869  0.6321 -1.7327
 5164SOL     OW21583  10.550   8.356   0.906  0.1533  0.2684  0.2170
 5164SOL    HW121584  10.564   8.434   0.959 -0.2036  0.0646  0.6207
 5164SOL    HW221585  10.560   8.283   0.968 -1.7503  0.0750  0.3498
 5165SOL     OW21586   0.935  10.238   9.465 -0.2609  0.7813  0.2149
 5165SOL    HW121587   0.992  10.164   9.485  1.9565  2.1696 -0.6379
 5165SOL    HW221588   0.961  10.266   9.377 -2.4470  1.3676 -0.3160
 5166SOL     OW21589   9.209   4.136   7.478 -0.0662  0.2764  0.3613
 5166SOL    HW121590   9.303   4.142   7.464 -0.0306  0.3242  0.6282
 5166SOL    HW221591   9.199   4.112   7.570 -0.3344  1.3085  0.6141
 5167SOL     OW21592   7.309   7.270   8.648 -0.1775 -0.3578  0.3721
 5167SOL    HW121593   7.249   7.315   8.589 -0.3167 -1.2651 -0.2026
 5167SOL    HW221594   7.254   7.206   8.695 -0.1589  0.6533  1.8378
 5168SOL     OW21595   2.383   5.608   3.096  0.3680  0.2397 -0.4715
 5168SOL    HW121596   2.301   5.568   3.122  1.3093 -0.6324  1.3279
 5168SOL    HW221597   2.359   5.694   3.060 -1.2033  0.7515  1.6383
 5169SOL     OW21598   4.414   4.318   0.943  0.1601 -0.5005  0.6368
 5169SOL    HW121599   4.395   4.336   0.851 -0.1563 -1.1668  0.5624
 5169SOL    HW221600   4.335   4.273   0.975  0.9553 -1.8617  0.7544
 5170SOL     OW21601   8.312   4.503   0.479 -0.2194 -0.1586 -0.5666
 5170SOL    HW121602   8.329   4.577   0.421 -1.6504 -1.0964 -2.3081
 5170SOL    HW221603   8.393   4.452   0.478 -0.5310 -0.7182 -2.7199
 5171SOL     OW21604   2.951   3.569  10.038  0.1950  0.0601  1.0083
 5171SOL    HW121605   2.950   3.494   9.979  0.3593  0.6051  0.2872
 5171SOL    HW221606   2.932   3.533  10.124 -2.5791 -0.4631  0.2845
 5172SOL     OW21607   8.463   2.724   8.353  0.0051 -0.1394 -0.0154
 5172SOL    HW121608   8.461   2.734   8.448 -0.9980 -1.6359  0.1630
 5172SOL    HW221609   8.474   2.630   8.339 -3.5169 -0.5149 -1.2832
 5173SOL     OW21610   7.155   4.045   5.198  0.1839 -0.3933 -0.1888
 5173SOL    HW121611   7.095   4.024   5.270  1.6966 -1.1962  0.8952
 5173SOL    HW221612   7.178   3.960   5.161  2.5621 -0.3463  1.0411
 5174SOL     OW21613   5.700   7.027   4.218  0.6003 -0.5373  0.4168
 5174SOL    HW121614   5.682   7.110   4.263 -0.5140 -0.3119 -0.3834
 5174SOL    HW221615   5.615   7.003   4.180  1.2457 -1.3070 -0.5552
 5175SOL     OW21616  10.537   7.632   6.155  0.3998 -0.2071  0.1811
 5175SOL    HW121617  10.576   7.617   6.241  0.7365  2.4646  0.5664
 5175SOL    HW221618  10.608   7.666   6.101 -0.3020  0.1940 -0.5158
 5176SOL     OW21619   0.475   2.183   3.046  0.1095  0.0476 -0.0896
 5176SOL    HW121620   0.392   2.230   3.042  0.5522  0.7734 -0.8733
 5176SOL    HW221621   0.527   2.231   3.110  0.6124  0.7374 -0.9914
 5177SOL     OW21622   3.588  10.610  10.876  0.9231  0.3925  0.4302
 5177SOL    HW121623   3.582  10.679  10.810  0.3694  0.4637  0.5519
 5177SOL    HW221624   3.648  10.546  10.838 -0.7474 -0.4504 -0.9594
 5178SOL     OW21625   9.400   5.997  10.478  0.1215  0.0445  0.1916
 5178SOL    HW121626   9.457   5.946  10.421  0.0997 -0.3370  0.5079
 5178SOL    HW221627   9.419   6.088  10.456  0.2554 -0.0954 -0.2850
 5179SOL     OW21628   5.297   7.726   6.643  0.2496  0.3702 -0.4490
 5179SOL    HW121629   5.267   7.805   6.687  0.5553 -0.1140  0.6578
 5179SOL    HW221630   5.231   7.660   6.663  0.8084 -0.0682 -0.0274
 5180SOL     OW21631   1.410   0.420   9.086 -0.2239  0.0407  0.0986
 5180SOL    HW121632   1.321   0.394   9.108 -0.3135  0.9282  0.8554
 5180SOL    HW221633   1.408   0.516   9.086  0.0740  0.1152 -2.6320
 5181SOL     OW21634   9.690   3.691   3.089  0.2408 -0.0872 -0.4100
 5181SOL    HW121635   9.750   3.739   3.032 -0.4289 -0.0094 -1.0618
 5181SOL    HW221636   9.743   3.667   3.165  1.5101 -1.3714 -1.6518
 5182SOL     OW21637   2.412   5.042   2.313 -0.3155  0.1325  0.5722
 5182SOL    HW121638   2.393   4.976   2.246  0.3588 -1.1837  1.6249
 5182SOL    HW221639   2.427   4.991   2.393  0.8905  1.5271  1.2798
 5183SOL     OW21640   2.105   8.596   3.858  0.0947 -0.4774  0.0850
 5183SOL    HW121641   2.090   8.645   3.778  0.5056 -1.0263 -0.3367
 5183SOL    HW221642   2.044   8.522   3.852  1.1289 -1.3053 -0.4118
 5184SOL     OW21643   4.182   3.343   1.696  0.3436 -0.2729 -0.4639
 5184SOL    HW121644   4.098   3.378   1.727  1.0070 -0.7130  2.1137
 5184SOL    HW221645   4.176   3.249   1.712  1.2955 -0.3142 -0.2889
 5185SOL     OW21646   5.274   2.319   3.172 -0.0012 -0.1770 -0.3191
 5185SOL    HW121647   5.202   2.285   3.120 -0.2918  0.4694 -0.3545
 5185SOL    HW221648   5.237   2.393   3.220  0.2110 -0.8960  0.9916
 5186SOL     OW21649   1.837   0.251   1.601  0.3771  0.5312  0.1526
 5186SOL    HW121650   1.929   0.268   1.621  1.2152 -0.9124 -2.0893
 5186SOL    HW221651   1.804   0.204   1.678  2.0201 -0.4359  0.3128
 5187SOL     OW21652   9.826   4.167   5.604 -0.1264 -0.1272  0.1321
 5187SOL    HW121653   9.888   4.203   5.541  0.2876 -0.1173  0.5312
 5187SOL    HW221654   9.875   4.095   5.645 -0.8893 -1.0680 -0.5691
 5188SOL     OW21655   9.877  10.649   9.930 -0.3618  0.1351 -0.5643
 5188SOL    HW121656   9.970  10.660   9.953 -0.5417  0.3801  0.0775
 5188SOL    HW221657   9.860  10.717   9.866 -0.1272  0.1736 -0.5868
 5189SOL     OW21658   1.426   9.369   5.972  0.1377 -0.2188 -0.2872
 5189SOL    HW121659   1.370   9.376   6.049  1.3837  0.3408  0.6112
 5189SOL    HW221660   1.468   9.284   5.981 -0.4598 -0.5856 -0.8945
 5190SOL     OW21661   4.271   1.803   0.231 -0.3770  0.4565  0.2326
 5190SOL    HW121662   4.264   1.785   0.138 -0.3897  2.4275 -0.1797
 5190SOL    HW221663   4.361   1.832   0.244 -0.6108  0.9916  0.6877
 5191SOL     OW21664   3.829   4.753  10.068 -0.7207  0.6219  0.3358
 5191SOL    HW121665   3.766   4.818  10.098 -1.1918 -0.1379  1.0645
 5191SOL    HW221666   3.788   4.669  10.088 -0.1540  0.0986 -0.6359
 5192SOL     OW21667   3.534   4.880   0.908 -0.4227 -0.5001  0.3217
 5192SOL    HW121668   3.602   4.848   0.849 -0.4454  1.8206 -1.0689
 5192SOL    HW221669   3.581   4.909   0.986  0.1142  0.4377 -0.3427
 5193SOL     OW21670   9.320   9.984   9.432  0.2677 -0.3944 -0.3633
 5193SOL    HW121671   9.349  10.045   9.364  0.6093 -1.0970 -0.8680
 5193SOL    HW221672   9.286  10.040   9.502 -1.3333  0.3178 -1.6452
 5194SOL     OW21673   9.759   6.354   8.478 -0.2453 -0.1093 -0.5139
 5194SOL    HW121674   9.752   6.402   8.560  1.8094 -0.0375 -0.3297
 5194SOL    HW221675   9.671   6.320   8.462 -0.8057  0.3358  1.4201
 5195SOL     OW21676   9.496   5.022  10.116  0.2219 -0.0400  0.4597
 5195SOL    HW121677   9.503   4.941  10.067 -0.2957  1.2591 -1.9039
 5195SOL    HW221678   9.572   5.022  10.173 -0.0308 -2.3746  0.9050
 5196SOL     OW21679   3.274  10.183   6.953 -0.7342  0.4789 -0.4183
 5196SOL    HW121680   3.259  10.264   6.903  1.5029 -0.2292 -2.4520
 5196SOL    HW221681   3.368  10.185   6.972 -0.8295 -1.2027  0.3088
 5197SOL     OW21682   7.120   2.013   8.371 -0.0430  0.3051  0.2531
 5197SOL    HW121683   7.088   2.051   8.290 -2.1321 -2.3651 -0.3373
 5197SOL    HW221684   7.065   2.052   8.439 -0.7323 -0.0810 -0.0755
 5198SOL     OW21685   4.776  10.339   6.080 -0.1184 -0.0763 -0.4366
 5198SOL    HW121686   4.832  10.330   6.003  1.5374  0.3730  0.6562
 5198SOL    HW221687   4.818  10.285   6.146 -1.5260 -0.4680  0.1611
 5199SOL     OW21688   6.277  10.308   5.679  0.0179  0.1207  0.1229
 5199SOL    HW121689   6.295  10.296   5.772  0.1495 -2.7103 -0.1644
 5199SOL    HW221690   6.181  10.304   5.673 -0.1618  2.5523  0.2987
 5200SOL     OW21691   2.672   6.629  10.187  0.0221 -0.0254 -0.0582
 5200SOL    HW121692   2.592   6.662  10.227  0.3884 -0.7799  1.3579
 5200SOL    HW221693   2.722   6.708  10.164  0.0873  0.4531  1.6157
 5201SOL     OW21694   4.139   5.514   2.098  0.1067 -0.3003 -0.4133
 5201SOL    HW121695   4.052   5.550   2.118  0.0197 -0.1203 -1.1003
 5201SOL    HW221696   4.123   5.422   2.081 -0.0705 -0.1199 -1.2780
 5202SOL     OW21697   0.653   6.856   9.653  0.1623 -0.2457  0.3324
 5202SOL    HW121698   0.667   6.786   9.588  0.7809  0.2252 -0.0490
 5202SOL    HW221699   0.654   6.937   9.602 -0.4059  0.0609  0.7947
 5203SOL     OW21700   1.987   7.737   0.752  0.1054  0.0134 -0.3010
 5203SOL    HW121701   2.019   7.651   0.722  1.6807  0.9838 -1.6026
 5203SOL    HW221702   1.987   7.730   0.847 -2.5360 -2.3243 -0.3370
 5204SOL     OW21703   4.396  10.823   9.131  0.5849  0.1092 -0.4605
 5204SOL    HW121704   4.374  10.840   9.223 -1.0869  0.4313 -0.8945
 5204SOL    HW221705   4.463  10.888   9.110  0.1824  0.7565  0.2234
 5205SOL     OW21706   5.476   9.244   1.138 -0.3443  0.1959  0.3098
 5205SOL    HW121707   5.525   9.207   1.064 -0.8451  0.7417 -0.3040
 5205SOL    HW221708   5.442   9.328   1.106  0.4932  1.0558  1.5723
 5206SOL     OW21709   7.710   7.050   1.476 -0.1126  0.1896 -0.1118
 5206SOL    HW121710   7.624   7.060   1.516  0.5618  1.5964  1.1136
 5206SOL    HW221711   7.755   6.986   1.531 -0.0538  0.1758 -0.1756
 5207SOL     OW21712   8.299   9.038   0.718  0.3737 -0.0402  0.8052
 5207SOL    HW121713   8.213   9.002   0.737 -0.6636  2.0184  0.2884
 5207SOL    HW221714   8.356   9.002   0.786 -0.6605 -2.1351  0.6329
 5208SOL     OW21715   4.967   0.638   7.784 -0.0076 -0.1804 -0.6334
 5208SOL    HW121716   4.904   0.567   7.787 -0.2520  0.0708  0.4226
 5208SOL    HW221717   4.914   0.718   7.793  0.4230  0.0490 -0.0925
 5209SOL     OW21718   1.240   0.696   6.978  0.3866  0.0633  0.0271
 5209SOL    HW121719   1.229   0.607   7.013  1.9846  0.1068  0.7368
 5209SOL    HW221720   1.331   0.699   6.949 -0.3297  0.6503 -2.4779
 5210SOL     OW21721   1.409   5.245   0.392  0.8865 -0.0073  0.5083
 5210SOL    HW121722   1.479   5.193   0.351  0.2217 -1.6274  1.3056
 5210SOL    HW221723   1.345   5.258   0.323 -0.8340 -3.8075  1.0998
 5211SOL     OW21724   1.057   4.305   9.238  0.6447 -0.1733 -0.1940
 5211SOL    HW121725   1.096   4.219   9.226  0.3115 -0.2518 -0.7829
 5211SOL    HW221726   0.965   4.293   9.214  0.9787  0.7396 -2.1852
 5212SOL     OW21727   1.315   3.447   3.048 -0.0293 -0.1334 -0.2211
 5212SOL    HW121728   1.342   3.412   3.133  0.5488 -0.4051 -0.5110
 5212SOL    HW221729   1.360   3.392   2.984  1.4727  1.5413 -0.6920
 5213SOL     OW21730   2.782   8.282   8.310  0.3481 -0.2293  0.1392
 5213SOL    HW121731   2.741   8.201   8.342  0.7138 -0.6536 -0.4215
 5213SOL    HW221732   2.792   8.337   8.387 -3.1124  0.7431  0.0338
 5214SOL     OW21733   1.110   1.990   1.752 -0.0172 -0.3698 -0.2666
 5214SOL    HW121734   1.103   1.949   1.838  1.9267  0.8640  0.5636
 5214SOL    HW221735   1.020   2.002   1.723 -0.6833 -1.7867  1.1046
 5215SOL     OW21736   6.291   9.426   8.631 -0.5240  0.0134 -0.1223
 5215SOL    HW121737   6.278   9.391   8.543  2.2457 -2.0668  0.1393
 5215SOL    HW221738   6.214   9.399   8.680  0.0354 -3.1062 -0.7700
 5216SOL     OW21739  10.333   1.630   7.512  0.6169  0.4403 -0.6475
 5216SOL    HW121740  10.406   1.643   7.452  0.3252  1.2699 -0.8266
 5216SOL    HW221741  10.362   1.670   7.594 -0.2447  2.2420 -1.1758
 5217SOL     OW21742   2.898   1.600   5.502  0.1521 -0.1574  0.3978
 5217SOL    HW121743   2.841   1.662   5.458 -0.4728 -0.3045  0.9909
 5217SOL    HW221744   2.986   1.636   5.491  0.3173 -1.2172 -2.7768
 5218SOL     OW21745   3.555   0.181   8.788 -0.2084  0.4719  0.0323
 5218SOL    HW121746   3.477   0.224   8.823  0.3973  2.7720 -1.2338
 5218SOL    HW221747   3.523   0.129   8.715 -0.9901 -1.5472  1.7280
 5219SOL     OW21748   7.604   9.470   5.581 -0.0022 -0.1308  0.3550
 5219SOL    HW121749   7.532   9.532   5.596  1.3630  1.4708  0.5826
 5219SOL    HW221750   7.629   9.442   5.669  1.3365  1.3724  0.4964
 5220SOL     OW21751   7.267   7.967   5.330  1.0034 -0.0357 -0.8123
 5220SOL    HW121752   7.299   7.923   5.251  1.0041 -1.2108 -0.1689
 5220SOL    HW221753   7.174   7.980   5.314  0.9331 -0.5847 -0.8732
 5221SOL     OW21754   4.622   2.261   4.951  0.4403  0.1317  0.2374
 5221SOL    HW121755   4.618   2.354   4.927 -3.1208  0.7779  2.5213
 5221SOL    HW221756   4.628   2.261   5.046 -1.8804 -1.8167  0.4859
 5222SOL     OW21757  10.504   9.193   5.045  0.4444 -0.1705  0.2018
 5222SOL    HW121758  10.422   9.163   5.084 -0.8767  1.6794 -1.0057
 5222SOL    HW221759  10.567   9.190   5.116 -1.4471  1.4416  2.0667
 5223SOL     OW21760   1.756   2.735   8.727 -0.1047 -0.1502 -0.4898
 5223SOL    HW121761   1.832   2.712   8.780  0.2299  1.7399 -0.0664
 5223SOL    HW221762   1.791   2.759   8.642 -0.4128 -0.9468 -0.8487
 5224SOL     OW21763   7.617   4.038   6.503 -0.0166  0.6285  0.1137
 5224SOL    HW121764   7.574   3.954   6.512 -0.5604  0.8704 -0.1751
 5224SOL    HW221765   7.568   4.097   6.561  1.0409  0.5072  1.1715
 5225SOL     OW21766   8.383   6.847   2.363 -0.0616  0.0226 -0.7957
 5225SOL    HW121767   8.436   6.867   2.286  1.2425  0.8083  0.2673
 5225SOL    HW221768   8.430   6.887   2.436 -0.7366 -1.5255  0.5562
 5226SOL     OW21769   5.146   6.316   9.385  0.2748  0.0442  0.0910
 5226SOL    HW121770   5.164   6.234   9.338 -1.1852  0.5910 -1.5204
 5226SOL    HW221771   5.228   6.366   9.378 -0.0468  0.3317 -2.4319
 5227SOL     OW21772   1.353   8.124   0.307 -0.3423  0.0403  0.2031
 5227SOL    HW121773   1.424   8.175   0.267 -0.1780 -0.0378  0.3954
 5227SOL    HW221774   1.295   8.189   0.346  0.7289  0.0219  1.9065
 5228SOL     OW21775   2.919   8.057   6.679  0.2057 -0.3469  0.1796
 5228SOL    HW121776   2.966   7.980   6.647 -0.6952 -0.4169 -1.0291
 5228SOL    HW221777   2.829   8.046   6.647 -0.6277 -0.1199  2.2710
 5229SOL     OW21778   1.986   3.398  10.760 -0.6222  0.4195 -0.0892
 5229SOL    HW121779   2.066   3.451  10.765 -0.9382  0.8810  0.0630
 5229SOL    HW221780   1.916   3.457  10.786 -0.8314 -0.4296  1.4082
 5230SOL     OW21781   0.411   7.865   9.228  0.5975 -0.0690 -0.4629
 5230SOL    HW121782   0.364   7.914   9.295  2.8017  0.0931  1.1104
 5230SOL    HW221783   0.453   7.932   9.174 -1.9836 -0.1580 -2.8108
 5231SOL     OW21784   8.800   9.991   2.535  0.0595  0.3651 -0.4594
 5231SOL    HW121785   8.807   9.900   2.564  0.7188  0.1594 -1.2305
 5231SOL    HW221786   8.877  10.004   2.480 -0.0617  1.3770 -0.3994
 5232SOL     OW21787  10.065   0.097   5.460  0.2087 -0.4441 -0.2874
 5232SOL    HW121788   9.972   0.107   5.442  0.5809  1.1320 -1.7252
 5232SOL    HW221789  10.099   0.187   5.459  1.5534 -0.8818  1.4407
 5233SOL     OW21790   6.132   3.751   7.419 -0.4016  0.1114  0.3915
 5233SOL    HW121791   6.077   3.809   7.471 -0.0338  0.0678  0.8443
 5233SOL    HW221792   6.211   3.739   7.473  0.1675  0.3971 -0.3675
 5234SOL     OW21793   8.904   6.729   0.532  0.5316 -0.1391 -0.2753
 5234SOL    HW121794   8.945   6.713   0.617  0.8586 -2.8020 -0.8262
 5234SOL    HW221795   8.812   6.745   0.552  0.3242 -2.0963  0.5882
 5235SOL     OW21796   8.685   3.894   7.368 -0.8350  0.4431 -0.3209
 5235SOL    HW121797   8.702   3.817   7.314 -0.1237  0.4374 -0.1071
 5235SOL    HW221798   8.768   3.943   7.366 -1.2631  1.1847 -0.4308
 5236SOL     OW21799   5.074  10.612   2.330  0.0145 -0.1300 -0.1500
 5236SOL    HW121800   5.014  10.604   2.405 -0.7786 -0.3377 -0.7973
 5236SOL    HW221801   5.111  10.700   2.340 -0.6610  0.1431  0.0785
 5237SOL     OW21802  10.309   8.159   6.360 -0.0507  0.0717 -0.1410
 5237SOL    HW121803  10.236   8.149   6.420  0.5637  0.7427  0.7488
 5237SOL    HW221804  10.334   8.069   6.337  0.5089 -0.2765  1.6366
 5238SOL     OW21805   9.646   1.132   2.510 -0.2943  0.0511  0.0170
 5238SOL    HW121806   9.644   1.059   2.448  2.0189  1.8148 -2.3870
 5238SOL    HW221807   9.731   1.173   2.495  1.3167 -0.4090  5.7641
 5239SOL     OW21808   0.031   0.366   4.509 -0.0459 -0.6545  0.5971
 5239SOL    HW121809  -0.005   0.311   4.579  0.2089 -1.4792  0.0953
 5239SOL    HW221810  -0.003   0.327   4.428 -1.7648  1.3043  0.2877
 5240SOL     OW21811   3.662   4.178   6.133 -0.4747  0.3748  0.2249
 5240SOL    HW121812   3.714   4.238   6.186 -0.2240 -1.2996  1.9667
 5240SOL    HW221813   3.604   4.135   6.195 -0.6548 -1.1713 -0.9515
 5241SOL     OW21814   3.288   3.391   3.162  0.0625  0.0858  0.5524
 5241SOL    HW121815   3.257   3.301   3.152 -0.3875  0.2438  0.4914
 5241SOL    HW221816   3.342   3.389   3.242 -0.8247 -0.0175  1.1669
 5242SOL     OW21817   9.123   0.102   1.876 -0.4002  0.0004  0.4273
 5242SOL    HW121818   9.066   0.115   1.952  0.3233 -1.2542  1.2110
 5242SOL    HW221819   9.062   0.101   1.802 -1.1680  0.8107  1.0193
 5243SOL     OW21820   9.449   7.113  10.720  0.0004 -0.5572 -0.1633
 5243SOL    HW121821   9.536   7.076  10.701 -0.9491 -2.5894 -0.7941
 5243SOL    HW221822   9.420   7.149  10.637 -0.3142 -1.1105 -0.2969
 5244SOL     OW21823   2.642   3.012  10.499  0.1061  0.0682 -0.3968
 5244SOL    HW121824   2.676   2.927  10.472 -0.0108  0.1934 -0.9417
 5244SOL    HW221825   2.561   3.022  10.450 -1.7751 -1.0664  2.2264
 5245SOL     OW21826   5.372   6.648   5.374 -0.3609 -0.1294  0.0915
 5245SOL    HW121827   5.445   6.588   5.389 -1.6760 -1.8498 -0.1353
 5245SOL    HW221828   5.293   6.596   5.392 -1.6177  1.0281 -1.7133
 5246SOL     OW21829   8.172   2.753   7.062 -0.0352  0.1464  0.1997
 5246SOL    HW121830   8.102   2.710   7.112  0.5291 -0.8338  0.1700
 5246SOL    HW221831   8.138   2.841   7.045 -0.7507  0.0912  1.2403
 5247SOL     OW21832   5.135   2.728   8.381 -0.0520 -0.7613  0.2196
 5247SOL    HW121833   5.082   2.779   8.443 -0.8665  1.9285 -2.4748
 5247SOL    HW221834   5.223   2.766   8.388 -1.0522  2.6777 -3.1368
 5248SOL     OW21835   2.436  10.570   8.259  0.1309  0.7677  0.1333
 5248SOL    HW121836   2.454  10.487   8.215 -0.6377  0.4491  0.4054
 5248SOL    HW221837   2.340  10.578   8.257  0.1213  1.0517  1.1857
 5249SOL     OW21838   1.040   6.375   7.179 -0.0724 -0.0823  0.4551
 5249SOL    HW121839   0.948   6.395   7.198 -1.0711 -2.8713 -0.8414
 5249SOL    HW221840   1.065   6.437   7.111 -3.1468 -3.0201 -3.8424
 5250SOL     OW21841  10.806   1.975   8.544 -0.0889  0.0099  0.0958
 5250SOL    HW121842  10.714   1.959   8.563 -0.9429 -1.1286 -4.1196
 5250SOL    HW221843  10.845   1.888   8.537  0.7873  0.4285 -0.4177
 5251SOL     OW21844   7.455   2.762   1.438 -0.0472  0.5027 -0.3390
 5251SOL    HW121845   7.367   2.732   1.415 -0.4434  2.3937 -1.5076
 5251SOL    HW221846   7.472   2.723   1.524 -1.6223 -0.6603 -0.4987
 5252SOL     OW21847   7.709   2.051   0.732  0.1518  0.0277  0.2332
 5252SOL    HW121848   7.632   1.997   0.746  0.2260  0.3637  2.2341
 5252SOL    HW221849   7.703   2.120   0.799  2.6609 -0.5134  1.1506
 5253SOL     OW21850  10.546   6.010   8.827 -0.0925 -0.1483  0.0744
 5253SOL    HW121851  10.461   6.051   8.809  0.3010  0.6157 -0.0770
 5253SOL    HW221852  10.602   6.038   8.756  0.2942 -0.6524  0.1739
 5254SOL     OW21853   0.712  10.717   5.482  0.1598 -0.1091 -0.2436
 5254SOL    HW121854   0.731  10.798   5.530 -0.7833  0.1790 -0.3347
 5254SOL    HW221855   0.729  10.738   5.391 -0.7254  0.2136 -0.3499
 5255SOL     OW21856   3.823   4.269   1.572  0.0955  0.2792 -0.2930
 5255SOL    HW121857   3.749   4.297   1.627 -1.7399  0.1046 -2.5140
 5255SOL    HW221858   3.831   4.339   1.507  1.6507  0.0693 -0.3529
 5256SOL     OW21859   5.797   6.871   6.595 -0.4466  0.1331  0.6231
 5256SOL    HW121860   5.825   6.811   6.526  0.2353  2.1236 -0.9187
 5256SOL    HW221861   5.879   6.905   6.631 -0.8355  0.5863  1.0760
 5257SOL     OW21862   0.931   4.290   7.098  0.0962  0.6677 -0.6346
 5257SOL    HW121863   0.867   4.325   7.036 -1.0087  0.8375  0.5741
 5257SOL    HW221864   0.879   4.246   7.165  1.2649  0.4820  0.1867
 5258SOL     OW21865   8.591   9.780   0.384 -0.2961  0.6728  0.7982
 5258SOL    HW121866   8.550   9.706   0.429 -1.4223  1.5440  1.2557
 5258SOL    HW221867   8.684   9.772   0.404 -0.5017 -0.2049  1.4492
 5259SOL     OW21868   5.326   9.876   6.807 -0.3437  0.1375  0.1956
 5259SOL    HW121869   5.318   9.956   6.756 -0.2133 -0.2052 -0.3791
 5259SOL    HW221870   5.246   9.827   6.788 -0.0304 -0.2496 -0.1486
 5260SOL     OW21871   5.759   3.546   0.871 -0.2384  0.5625  0.4236
 5260SOL    HW121872   5.761   3.635   0.907  0.1434  0.5197  0.5072
 5260SOL    HW221873   5.804   3.552   0.787  1.5574  0.0643  1.3011
 5261SOL     OW21874   5.563   2.050   1.179 -0.0360  0.3130 -0.6722
 5261SOL    HW121875   5.568   2.027   1.086 -0.9914  0.3356 -0.7372
 5261SOL    HW221876   5.613   2.132   1.186  2.6386 -1.2064 -0.5937
 5262SOL     OW21877   3.428   7.556   7.914  0.3100  0.1050 -0.2849
 5262SOL    HW121878   3.462   7.612   7.844  0.3617 -0.3922 -0.6570
 5262SOL    HW221879   3.335   7.576   7.918  0.6058  1.4593  0.7245
 5263SOL     OW21880   2.346   2.156   7.886 -0.4331  0.6470  0.1183
 5263SOL    HW121881   2.339   2.164   7.791  0.9448  1.0186  0.0363
 5263SOL    HW221882   2.280   2.090   7.909  1.1221 -1.5734 -1.4338
 5264SOL     OW21883   2.506   5.781   2.013 -0.1916 -0.5073  0.4402
 5264SOL    HW121884   2.535   5.699   2.053  1.6956 -0.2684 -0.3307
 5264SOL    HW221885   2.586   5.833   2.006 -0.8131  0.2382 -1.8240
 5265SOL     OW21886   2.592   2.592   5.749  0.6523  0.8571 -0.4946
 5265SOL    HW121887   2.564   2.509   5.786  0.7328  1.3938  0.8258
 5265SOL    HW221888   2.533   2.606   5.674  0.5877 -0.3278 -0.6715
 5266SOL     OW21889   5.873   7.279   2.581 -0.3221 -0.4333  0.2656
 5266SOL    HW121890   5.809   7.258   2.513  0.5421 -0.1739 -0.6435
 5266SOL    HW221891   5.830   7.252   2.663 -2.4497  1.5731 -0.0782
 5267SOL     OW21892   2.586   6.377   9.797 -0.4203 -0.1610 -0.7956
 5267SOL    HW121893   2.507   6.323   9.805 -1.1312  0.8460 -0.8223
 5267SOL    HW221894   2.592   6.422   9.881  1.7668 -2.3386  0.3337
 5268SOL     OW21895   6.438   3.773   2.355  0.6140 -0.1710 -0.3155
 5268SOL    HW121896   6.503   3.733   2.412  0.5493 -1.3376 -1.0307
 5268SOL    HW221897   6.374   3.703   2.338  0.8880 -0.0315 -2.1848
 5269SOL     OW21898   9.531   8.689   8.638  0.1240 -0.0411  0.2504
 5269SOL    HW121899   9.597   8.641   8.587  0.6363  0.9531 -0.0384
 5269SOL    HW221900   9.451   8.683   8.585 -0.1491 -1.5690  0.7775
 5270SOL     OW21901   4.208  10.092   3.111  0.0248  0.0655 -0.0986
 5270SOL    HW121902   4.138  10.140   3.155  0.8672  1.0781  0.1601
 5270SOL    HW221903   4.199  10.115   3.019  1.0199  1.5395  0.1397
 5271SOL     OW21904   6.667   0.751  10.270 -0.5747 -0.4535  1.3234
 5271SOL    HW121905   6.724   0.750  10.347 -1.3766 -0.2483  1.9353
 5271SOL    HW221906   6.703   0.821  10.215 -0.3366 -0.2089  1.7755
 5272SOL     OW21907   6.339   2.937   0.813 -0.1214 -0.3174 -0.1226
 5272SOL    HW121908   6.371   3.024   0.791 -0.8947 -0.0696 -0.3231
 5272SOL    HW221909   6.347   2.888   0.731 -0.3192 -0.2292 -0.1974
 5273SOL     OW21910   3.221  10.755  10.579  0.1631  0.2160  0.6081
 5273SOL    HW121911   3.278  10.755  10.502  1.2336 -1.6853  1.3401
 5273SOL    HW221912   3.133  10.744  10.544  0.2664  2.3128 -0.4870
 5274SOL     OW21913   0.760  10.156   9.171  0.4618  0.3004 -0.0619
 5274SOL    HW121914   0.710  10.173   9.252 -1.6685  0.9263 -1.4212
 5274SOL    HW221915   0.775  10.061   9.173  2.0485  0.5265  1.8916
 5275SOL     OW21916   3.061   2.075   7.693  0.1225  0.6652 -0.3289
 5275SOL    HW121917   3.003   2.070   7.617  0.1041 -0.3311 -0.2637
 5275SOL    HW221918   3.129   2.010   7.675  0.5280  0.9406  0.1804
 5276SOL     OW21919   3.837   1.846   2.147  0.3891  0.0933 -0.0050
 5276SOL    HW121920   3.880   1.849   2.232 -0.5946 -2.1277  0.6470
 5276SOL    HW221921   3.744   1.861   2.166 -0.0897 -2.0711 -0.4028
 5277SOL     OW21922   6.428   7.473   6.931  0.3730 -0.0682 -0.1177
 5277SOL    HW121923   6.398   7.400   6.877 -2.1244 -0.1656  1.2026
 5277SOL    HW221924   6.410   7.551   6.879 -0.0750 -0.2595 -0.2562
 5278SOL     OW21925   4.803  10.170   8.999  0.0777  0.4653  0.1000
 5278SOL    HW121926   4.838  10.119   9.071  0.9247  0.1013 -0.5518
 5278SOL    HW221927   4.760  10.245   9.041  1.5211  0.8614  0.9591
 5279SOL     OW21928   8.187   3.722   5.535 -0.1233 -0.1483  0.4042
 5279SOL    HW121929   8.209   3.718   5.628 -0.3339  0.8780  0.5045
 5279SOL    HW221930   8.126   3.794   5.527  1.9500  1.6029 -0.9210
 5280SOL     OW21931   2.473   3.340   0.147 -0.5176  0.1594  0.4891
 5280SOL    HW121932   2.488   3.328   0.241 -2.2361  1.7960  1.0136
 5280SOL    HW221933   2.557   3.316   0.107  0.0755 -1.1268  2.3668
 5281SOL     OW21934   7.851   8.267   2.677  0.2203  0.5919 -0.2975
 5281SOL    HW121935   7.823   8.286   2.587  1.0334  1.6118 -0.3540
 5281SOL    HW221936   7.770   8.254   2.725 -0.2995  1.9711 -0.7746
 5282SOL     OW21937   0.195   1.316   5.207 -0.1434 -0.1815 -0.0017
 5282SOL    HW121938   0.221   1.382   5.272 -0.3476 -1.2853  1.2469
 5282SOL    HW221939   0.252   1.333   5.132  0.8241  0.4914  0.8477
 5283SOL     OW21940   8.837   1.971   3.528  0.2416  0.2284 -0.6179
 5283SOL    HW121941   8.756   1.961   3.579  0.8570 -1.9006  0.0492
 5283SOL    HW221942   8.907   1.950   3.590  1.0833 -1.3659 -2.0268
 5284SOL     OW21943   6.798   9.872   2.398 -0.0417  0.0153  0.0975
 5284SOL    HW121944   6.802   9.878   2.302  0.3121  1.7880  0.1891
 5284SOL    HW221945   6.864   9.807   2.421  1.3066  1.0487 -0.7535
 5285SOL     OW21946   9.375   3.968   8.085  0.0354 -0.0911 -0.6643
 5285SOL    HW121947   9.394   4.058   8.111 -0.6778  0.4970 -2.0842
 5285SOL    HW221948   9.425   3.956   8.005  0.4262 -1.1098 -0.2810
 5286SOL     OW21949   9.701   1.109   1.284 -0.0001  0.0475 -0.0963
 5286SOL    HW121950   9.608   1.100   1.265 -0.0784 -3.1197  1.1489
 5286SOL    HW221951   9.719   1.042   1.351  2.8718  1.5585  0.8417
 5287SOL     OW21952   5.873   7.020   9.752  0.5386 -0.6577 -0.2911
 5287SOL    HW121953   5.916   7.105   9.761 -1.8400  0.5408  0.6186
 5287SOL    HW221954   5.852   7.014   9.659  0.8017 -0.2943 -0.3783
 5288SOL     OW21955   3.061   1.338   7.152  0.5009 -0.0342 -0.1602
 5288SOL    HW121956   3.009   1.411   7.186  0.8653  0.2710 -0.2532
 5288SOL    HW221957   3.146   1.346   7.196  2.0530  2.1398 -3.2263
 5289SOL     OW21958   6.961   2.060   2.325  0.0023  0.0383 -0.2613
 5289SOL    HW121959   6.988   1.984   2.274 -0.9987  0.2782 -1.1981
 5289SOL    HW221960   7.042   2.093   2.364  0.6515 -0.7226 -0.9262
 5290SOL     OW21961  10.017   4.042   5.828  0.3677 -0.5263 -0.1601
 5290SOL    HW121962   9.985   4.091   5.903  0.0216 -2.0099  0.7090
 5290SOL    HW221963   9.957   3.968   5.821  0.8916 -0.8545 -1.3922
 5291SOL     OW21964   2.342   8.996   0.643  0.3741 -0.3900  0.0334
 5291SOL    HW121965   2.367   9.085   0.617  0.1719 -0.0708  0.9146
 5291SOL    HW221966   2.248   9.001   0.656  0.3765 -0.7123  0.1750
 5292SOL     OW21967   1.540   7.949   6.668  0.1545 -0.1588 -0.0159
 5292SOL    HW121968   1.469   8.014   6.670 -0.2478 -0.6077  1.0029
 5292SOL    HW221969   1.499   7.871   6.630 -0.2146 -0.7353  1.4759
 5293SOL     OW21970   1.486   4.922  10.276  0.2192  0.3473 -0.1646
 5293SOL    HW121971   1.474   4.964  10.361  1.3816 -2.7826  1.7289
 5293SOL    HW221972   1.531   4.987  10.223  2.2656  1.4345  2.6511
 5294SOL     OW21973   4.463   7.387   9.159  0.2617  0.0127 -0.7607
 5294SOL    HW121974   4.506   7.351   9.081 -0.1172  0.1859 -1.0568
 5294SOL    HW221975   4.403   7.454   9.124  0.2279  0.2223 -0.3036
 5295SOL     OW21976   6.438   7.995   8.871 -0.5804 -0.1252  0.0504
 5295SOL    HW121977   6.458   8.077   8.917  0.3563 -0.2100 -0.1896
 5295SOL    HW221978   6.490   7.999   8.791 -1.8188 -0.2006 -0.7938
 5296SOL     OW21979   5.582   1.891   9.068  0.0364  0.9020  0.3643
 5296SOL    HW121980   5.592   1.985   9.081 -1.9616  1.3997 -1.1051
 5296SOL    HW221981   5.519   1.864   9.135  2.0783  0.1482  2.0788
 5297SOL     OW21982  10.300   4.786   9.578 -0.0181  0.0372 -0.2715
 5297SOL    HW121983  10.225   4.837   9.549 -0.9427 -1.2441 -0.2206
 5297SOL    HW221984  10.317   4.724   9.507  0.5345 -0.1635  0.0243
 5298SOL     OW21985   5.866   7.162   9.017 -0.4931 -0.6585 -0.3133
 5298SOL    HW121986   5.791   7.139   8.962  0.9947  0.4729 -3.0126
 5298SOL    HW221987   5.943   7.138   8.964  1.0520  1.0672  1.0207
 5299SOL     OW21988   2.489   0.311   4.259  0.2721 -0.3839  0.1925
 5299SOL    HW121989   2.538   0.339   4.181  1.2555 -0.3478  0.8067
 5299SOL    HW221990   2.517   0.221   4.273  1.1961  0.0581  1.3167
 5300SOL     OW21991   7.572   5.050  10.506  0.2813 -0.9837  0.2982
 5300SOL    HW121992   7.609   5.106  10.574 -2.6901  2.0028 -0.2808
 5300SOL    HW221993   7.480   5.040  10.531 -0.1374 -2.5853 -1.6206
 5301SOL     OW21994   3.847   3.272   5.745 -0.2683  0.3862  0.1863
 5301SOL    HW121995   3.811   3.304   5.662 -0.5675  0.0661  0.1924
 5301SOL    HW221996   3.913   3.337   5.769  0.4259  0.0439 -0.7353
 5302SOL     OW21997   3.371   6.292   5.446 -0.0015 -0.0694  0.1782
 5302SOL    HW121998   3.360   6.376   5.402  1.3044 -0.0326 -0.0957
 5302SOL    HW221999   3.288   6.246   5.429 -1.8775  2.1258  2.5835
 5303SOL     OW22000   0.691  10.832   3.727 -0.1891  0.1442  0.0926
 5303SOL    HW122001   0.674  10.836   3.633  0.0602 -1.9442 -0.0882
 5303SOL    HW222002   0.604  10.841   3.767 -0.2561  1.4383 -0.2780
 5304SOL     OW22003   4.826   6.860   2.630 -0.0729  0.1682 -0.5174
 5304SOL    HW122004   4.783   6.839   2.713 -0.5633  2.3112 -0.1779
 5304SOL    HW222005   4.916   6.830   2.642 -0.5346 -1.0401  0.1482
 5305SOL     OW22006   6.454   4.733   9.010  0.5579  0.0390  0.3129
 5305SOL    HW122007   6.391   4.661   9.007 -0.6620  1.0362  0.9718
 5305SOL    HW222008   6.534   4.694   9.044  0.5615 -1.4205 -1.2660
 5306SOL     OW22009   1.813   4.742  10.548  0.2033  0.4380 -0.1106
 5306SOL    HW122010   1.799   4.811  10.613  0.5201 -0.5803  1.0748
 5306SOL    HW222011   1.891   4.768  10.500 -0.1625  1.3121 -0.2418
 5307SOL     OW22012   4.320   3.842   5.406  0.0165  0.4026 -0.3835
 5307SOL    HW122013   4.361   3.818   5.323  2.1373  1.1691  0.3753
 5307SOL    HW222014   4.301   3.759   5.449  1.1441  0.0098 -0.6102
 5308SOL     OW22015   1.800   5.427   5.795  0.3427  0.4471 -0.1136
 5308SOL    HW122016   1.764   5.401   5.880  0.1092 -2.9324 -1.0847
 5308SOL    HW222017   1.894   5.410   5.802  0.5157  1.3563 -0.1536
 5309SOL     OW22018   7.921   6.190   6.972 -0.2921 -0.2051 -0.2070
 5309SOL    HW122019   7.954   6.100   6.967  1.3883  0.2747  1.3987
 5309SOL    HW222020   7.966   6.236   6.901  0.2898 -0.2107  0.1572
 5310SOL     OW22021   6.114   8.647   3.500  0.0532  0.0953  0.5914
 5310SOL    HW122022   6.053   8.578   3.524 -0.5769  0.2741 -0.4336
 5310SOL    HW222023   6.162   8.666   3.580 -1.8980  0.6355  1.6906
 5311SOL     OW22024   9.611   2.702   7.160 -0.5420 -0.0457  0.1938
 5311SOL    HW122025   9.651   2.641   7.223 -0.5028 -0.1611  0.0582
 5311SOL    HW222026   9.676   2.710   7.090 -0.1569  0.8625  0.6395
 5312SOL     OW22027   0.640   8.283   9.823  0.3186 -0.2458 -0.1988
 5312SOL    HW122028   0.704   8.267   9.754  1.9170  0.8550  0.9548
 5312SOL    HW222029   0.593   8.362   9.795  0.0032 -0.5974 -0.6700
 5313SOL     OW22030   7.778   2.420   2.975  0.2975 -0.3778  0.3864
 5313SOL    HW122031   7.751   2.437   3.065  2.3874  0.0704  0.9793
 5313SOL    HW222032   7.789   2.507   2.937 -1.4772 -0.5545 -0.6464
 5314SOL     OW22033   3.295   6.724   0.166 -0.5484 -0.3339 -0.3588
 5314SOL    HW122034   3.278   6.718   0.072  0.6912  1.2314 -0.7072
 5314SOL    HW222035   3.241   6.797   0.196  1.4038  1.2183 -0.4809
 5315SOL     OW22036   9.316   8.047   9.026 -0.2278 -0.6021 -0.4358
 5315SOL    HW122037   9.241   8.069   9.080 -0.0716 -0.5925 -0.2204
 5315SOL    HW222038   9.330   8.123   8.971 -1.1574 -1.0930 -1.3756
 5316SOL     OW22039   1.225  10.361   1.280  0.6895 -0.4460  0.3876
 5316SOL    HW122040   1.294  10.303   1.247  2.1360 -0.3275  2.9437
 5316SOL    HW222041   1.186  10.312   1.353  0.5994  0.9743  1.3256
 5317SOL     OW22042   1.555   4.242   8.649  0.3136  0.2342  0.6815
 5317SOL    HW122043   1.518   4.172   8.704  1.0214 -0.5489  0.1852
 5317SOL    HW222044   1.500   4.243   8.571  1.1186 -0.7340  0.0723
 5318SOL     OW22045   1.790   0.877   5.758  0.3632  0.0282  0.5007
 5318SOL    HW122046   1.793   0.973   5.758 -0.5867  0.0694  1.0180
 5318SOL    HW222047   1.814   0.852   5.847  2.3192 -0.3144 -0.0697
 5319SOL     OW22048   5.390  10.923   6.811 -0.5615  0.0075 -0.1437
 5319SOL    HW122049   5.452  10.955   6.876 -0.5639  0.1596 -0.2151
 5319SOL    HW222050   5.339  10.856   6.857  0.3436 -0.8639 -0.3826
 5320SOL     OW22051   0.306   3.079  10.525  0.1267  0.3204  0.0095
 5320SOL    HW122052   0.330   3.172  10.528 -1.4751  0.7371  1.1095
 5320SOL    HW222053   0.292   3.061  10.432  0.7267  1.0896 -0.2428
 5321SOL     OW22054   9.171   9.013   5.453 -0.0545 -0.1842 -0.0791
 5321SOL    HW122055   9.132   8.935   5.413  2.4553 -1.1102 -0.9620
 5321SOL    HW222056   9.223   8.979   5.525  0.7465  0.7184 -0.2112
 5322SOL     OW22057   5.923   8.814   0.929 -0.3536 -0.0477 -0.4699
 5322SOL    HW122058   5.872   8.769   0.997 -0.6061 -0.7122 -1.0877
 5322SOL    HW222059   6.014   8.799   0.954 -0.4480  0.0042 -0.0853
 5323SOL     OW22060   5.924   4.025   1.924 -0.0076  0.6676 -0.9475
 5323SOL    HW122061   5.929   3.936   1.956  1.8391 -0.3467 -3.6929
 5323SOL    HW222062   5.964   4.078   1.993 -0.3099 -0.6925  0.3219
 5324SOL     OW22063   0.696   5.412   0.368 -0.1480 -0.5429 -0.4369
 5324SOL    HW122064   0.636   5.480   0.399  0.1618 -0.3625 -0.2230
 5324SOL    HW222065   0.640   5.336   0.351 -0.4745 -0.2826 -0.5283
 5325SOL     OW22066   4.057  10.045   5.467  0.3015  0.3754  0.5821
 5325SOL    HW122067   4.038  10.056   5.560  1.9666 -0.5775  1.0639
 5325SOL    HW222068   4.105   9.963   5.462 -1.1081 -0.3866 -1.3332
 5326SOL     OW22069   4.084   4.580  10.493  0.4378 -0.4306  0.5764
 5326SOL    HW122070   4.084   4.495  10.449  0.7300  1.2547 -2.9800
 5326SOL    HW222071   3.991   4.600  10.505  0.3111 -0.4198 -0.3606
 5327SOL     OW22072   3.842   3.213   1.931  0.2268 -0.0952  0.4553
 5327SOL    HW122073   3.790   3.248   2.004  1.0606  1.9121  0.1540
 5327SOL    HW222074   3.789   3.141   1.896 -1.3898  0.5654  1.4226
 5328SOL     OW22075   6.084   9.441   0.471  0.1162  0.2485  0.0001
 5328SOL    HW122076   6.159   9.429   0.412  1.5466  0.2309  1.7490
 5328SOL    HW222077   6.019   9.378   0.439  0.3208  1.0998 -2.3046
 5329SOL     OW22078   4.651   8.926   1.239 -0.5030 -0.2446  0.4007
 5329SOL    HW122079   4.671   8.909   1.147  2.1557 -0.7655  0.9743
 5329SOL    HW222080   4.682   9.016   1.254 -1.8843  0.2202  0.5699
 5330SOL     OW22081  10.736   3.797   9.662 -0.1080 -0.2686  0.1386
 5330SOL    HW122082  10.783   3.720   9.631  0.7062  0.7887 -1.3861
 5330SOL    HW222083  10.804   3.859   9.689 -0.7657 -0.5680  2.7608
 5331SOL     OW22084   3.224   4.274   5.700 -0.1665  0.1602  0.3683
 5331SOL    HW122085   3.205   4.324   5.779 -1.8335  0.8539 -0.4371
 5331SOL    HW222086   3.306   4.311   5.667  0.4412 -0.0051  1.6400
 5332SOL     OW22087   3.807   9.270   4.056 -0.2766 -0.3164  0.2679
 5332SOL    HW122088   3.726   9.314   4.031 -0.6454 -1.1940 -0.1218
 5332SOL    HW222089   3.874   9.339   4.052 -1.1466  0.6527  1.5948
 5333SOL     OW22090   6.138   0.407  10.770  0.1704  0.7618 -0.4296
 5333SOL    HW122091   6.092   0.481  10.730  0.1733  0.5280 -0.8694
 5333SOL    HW222092   6.081   0.332  10.757 -0.4368  0.9115  1.1757
 5334SOL     OW22093   7.602   0.239  10.553  0.2390  0.2967 -0.4072
 5334SOL    HW122094   7.675   0.283  10.597  0.1637 -0.2899  0.3124
 5334SOL    HW222095   7.607   0.148  10.581 -0.6483  0.2033 -0.4988
 5335SOL     OW22096   6.392   8.239   5.378 -0.9371  0.5089 -0.0890
 5335SOL    HW122097   6.433   8.291   5.447 -0.5456 -0.3687  0.3557
 5335SOL    HW222098   6.465   8.200   5.331 -1.2332 -0.6178  0.3570
 5336SOL     OW22099   4.981   6.944  10.565  0.0809 -0.4779  0.0575
 5336SOL    HW122100   4.997   6.852  10.540  1.0109 -0.3654  0.1919
 5336SOL    HW222101   4.976   6.990  10.481 -1.3926 -0.7871 -0.0502
 5337SOL     OW22102   7.982   0.629   6.972 -0.0558 -0.1413  0.1441
 5337SOL    HW122103   7.944   0.716   6.987 -1.3318 -0.3636 -1.3756
 5337SOL    HW222104   8.062   0.646   6.923 -0.1209  0.2059  0.1546
 5338SOL     OW22105   7.693   4.954   8.974 -0.3627 -0.1080  0.2371
 5338SOL    HW122106   7.624   4.901   9.015 -0.1453 -0.9734 -0.4758
 5338SOL    HW222107   7.755   4.889   8.941  1.0179  0.6654  1.2202
 5339SOL     OW22108   2.800   2.450   7.461 -0.1497  0.4702 -0.6233
 5339SOL    HW122109   2.849   2.434   7.541  0.8609 -0.3590 -1.3853
 5339SOL    HW222110   2.866   2.479   7.398 -0.8832  0.8123 -1.2480
 5340SOL     OW22111  10.091   1.643   8.768  0.1010  0.4728 -0.4566
 5340SOL    HW122112  10.085   1.611   8.858  1.7907 -0.5599 -0.6739
 5340SOL    HW222113  10.051   1.730   8.772 -2.6120 -0.6975  0.6235
 5341SOL     OW22114   2.774   7.595   3.512  0.1688  0.6882  0.5531
 5341SOL    HW122115   2.710   7.573   3.444  1.6494  1.3726 -1.1366
 5341SOL    HW222116   2.721   7.630   3.584 -1.5566 -1.1718  0.2949
 5342SOL     OW22117   8.548   2.464   6.545  0.1781 -0.0281 -0.0567
 5342SOL    HW122118   8.520   2.379   6.579  1.0046  0.1125  1.0224
 5342SOL    HW222119   8.578   2.445   6.456  1.0958 -1.0320  0.4393
 5343SOL     OW22120   0.827   4.850   0.040  0.2314 -0.0646 -0.2219
 5343SOL    HW122121   0.790   4.762   0.049  0.6270 -0.4005 -1.7508
 5343SOL    HW222122   0.848   4.876   0.130  1.6236 -2.1861  0.1252
 5344SOL     OW22123   8.501   1.906   1.574 -0.8339  0.0747 -0.0686
 5344SOL    HW122124   8.505   1.967   1.501 -0.2105  0.2689  0.1189
 5344SOL    HW222125   8.524   1.958   1.651 -1.6583 -0.0847  0.2990
 5345SOL     OW22126   2.189   4.583   7.247 -0.2950 -0.3876  0.4642
 5345SOL    HW122127   2.250   4.509   7.245 -2.4875 -2.3239 -2.2945
 5345SOL    HW222128   2.107   4.545   7.279 -0.6127  1.7644  2.4497
 5346SOL     OW22129   5.816   9.090  10.187  0.2042 -0.0875 -0.2620
 5346SOL    HW122130   5.771   9.123  10.109 -0.4945  0.0425  0.1945
 5346SOL    HW222131   5.828   8.997  10.170  1.6633  0.2543 -1.3000
 5347SOL     OW22132   5.419   9.515   4.006  0.1928 -0.9175 -0.2973
 5347SOL    HW122133   5.359   9.498   4.079  0.7420 -0.3403  0.3082
 5347SOL    HW222134   5.504   9.528   4.048  0.1871  1.3060 -0.8434
 5348SOL     OW22135   4.942   9.246   0.058 -0.0007 -0.2877 -0.1292
 5348SOL    HW122136   4.987   9.167   0.029  2.7388  0.4965  1.6169
 5348SOL    HW222137   4.925   9.231   0.151  0.4543  1.0866  0.2044
 5349SOL     OW22138   2.361   3.825   1.804 -0.6163  0.0127 -0.4331
 5349SOL    HW122139   2.270   3.799   1.820 -0.3449 -2.2397 -2.1089
 5349SOL    HW222140   2.392   3.764   1.737  2.8813 -0.9256  1.7792
 5350SOL     OW22141  10.037   3.625   7.933 -0.2902 -0.4761  0.5223
 5350SOL    HW122142  10.128   3.615   7.959  0.2110  0.7535 -0.6306
 5350SOL    HW222143  10.008   3.536   7.912  1.5019 -0.6242 -1.7023
 5351SOL     OW22144   7.155   3.248   5.149 -0.4177 -0.3099 -0.0986
 5351SOL    HW122145   7.177   3.189   5.221  0.1859 -1.3970 -1.1252
 5351SOL    HW222146   7.139   3.189   5.075 -0.7172  0.7899 -0.9307
 5352SOL     OW22147   7.228   4.377   4.317  0.6527  0.1569  0.2300
 5352SOL    HW122148   7.259   4.437   4.385  2.1222 -0.7000  0.3648
 5352SOL    HW222149   7.268   4.409   4.237  1.8245 -0.8558  0.3751
 5353SOL     OW22150   3.315  10.922   9.442 -0.3308 -0.2402  0.6133
 5353SOL    HW122151   3.258  10.998   9.426  2.6494  1.9885 -0.2869
 5353SOL    HW222152   3.395  10.941   9.393  0.6078 -4.0075  0.3962
 5354SOL     OW22153   5.700   7.934   2.309  0.0279 -0.8593 -0.3385
 5354SOL    HW122154   5.756   7.871   2.263  0.2673  0.0638 -1.3588
 5354SOL    HW222155   5.666   7.886   2.384  1.9842 -1.5188  0.1692
 5355SOL     OW22156   1.441   0.713   0.850  0.0621  0.0326  0.2217
 5355SOL    HW122157   1.380   0.654   0.805  0.7124  0.1070 -0.7765
 5355SOL    HW222158   1.527   0.692   0.813  0.8407 -0.7660  2.3156
 5356SOL     OW22159   2.693   1.686   1.646  0.3908  0.3219  0.1861
 5356SOL    HW122160   2.742   1.677   1.728 -1.8308 -0.7220  1.4886
 5356SOL    HW222161   2.633   1.612   1.646 -0.3702  0.8733 -1.9297
 5357SOL     OW22162   1.947   2.530   5.435 -0.1239 -0.4605  0.3734
 5357SOL    HW122163   1.888   2.530   5.359 -1.7898 -1.8324  1.5660
 5357SOL    HW222164   1.982   2.619   5.438  0.3382 -0.4788 -2.2166
 5358SOL     OW22165   4.548   7.710   0.560 -0.5384 -0.1280 -0.1824
 5358SOL    HW122166   4.618   7.674   0.505 -0.3081  1.1497 -0.7619
 5358SOL    HW222167   4.581   7.700   0.650  0.0564 -0.2126 -0.4023
 5359SOL     OW22168   4.352  10.862   7.806  0.0291  0.3804  0.3301
 5359SOL    HW122169   4.411  10.860   7.731 -0.9657 -0.4963 -0.4549
 5359SOL    HW222170   4.288  10.930   7.785 -1.9695 -1.7736 -1.0248
 5360SOL     OW22171   8.918   6.421   5.758  0.0463 -0.2134 -0.2507
 5360SOL    HW122172   8.884   6.508   5.778 -1.0753 -0.5466 -0.6762
 5360SOL    HW222173   8.856   6.384   5.696 -0.1458 -1.7908  0.8313
 5361SOL     OW22174   1.063   8.906   4.320  0.5439 -0.4343  0.0843
 5361SOL    HW122175   1.058   8.922   4.226 -0.5708  0.0110  0.2114
 5361SOL    HW222176   0.975   8.925   4.353 -0.0276 -3.6277  0.7576
 5362SOL     OW22177   4.335   7.817   1.781  0.1441  0.1751 -0.2155
 5362SOL    HW122178   4.344   7.805   1.686 -0.8313  1.5622 -0.5134
 5362SOL    HW222179   4.377   7.740   1.819  1.3123  0.0212 -1.7482
 5363SOL     OW22180   8.763   2.780   8.495  0.0779  0.5145 -0.3444
 5363SOL    HW122181   8.708   2.827   8.432 -0.4218 -0.8361 -0.9703
 5363SOL    HW222182   8.845   2.764   8.448  0.0743  0.3801 -0.3064
 5364SOL     OW22183   9.305   5.392   6.036 -0.1719  0.3484 -0.2145
 5364SOL    HW122184   9.242   5.319   6.032 -0.5679  0.5190  1.9460
 5364SOL    HW222185   9.266   5.460   5.980 -1.3951  0.0628  0.2620
 5365SOL     OW22186   9.307   3.169   4.687 -0.1775 -0.0216 -0.5076
 5365SOL    HW122187   9.366   3.188   4.760  0.7366  1.6239 -1.6203
 5365SOL    HW222188   9.237   3.234   4.695 -1.3062 -1.2485  0.1417
 5366SOL     OW22189  10.146   6.498   0.802  0.2252 -0.2746  0.0782
 5366SOL    HW122190  10.095   6.456   0.871 -0.1406  0.2572  0.1340
 5366SOL    HW222191  10.094   6.573   0.775  0.6706 -0.1009 -0.3266
 5367SOL     OW22192   9.137   9.584   1.711 -0.5840 -0.0407 -0.0934
 5367SOL    HW122193   9.196   9.649   1.672 -1.4681 -0.5815 -2.5266
 5367SOL    HW222194   9.186   9.549   1.785  0.1440  2.9584  0.9803
 5368SOL     OW22195   3.032   4.930   1.898  0.2299  0.2537  0.2573
 5368SOL    HW122196   3.057   4.868   1.829  0.6314  0.0303  0.5983
 5368SOL    HW222197   3.011   5.010   1.851 -0.6273 -0.2366 -0.2194
 5369SOL     OW22198   0.957   5.989   0.343  0.5308 -0.1736 -0.0984
 5369SOL    HW122199   0.994   5.902   0.356 -0.6749 -0.5697  0.8556
 5369SOL    HW222200   0.903   5.981   0.265  0.6868 -0.1895 -0.2049
 5370SOL     OW22201   2.505   1.272  10.790  0.4523  0.0882 -0.2805
 5370SOL    HW122202   2.466   1.244  10.873  1.2968  0.9798  0.4396
 5370SOL    HW222203   2.599   1.259  10.802  0.6871  1.2899 -0.6696
 5371SOL     OW22204  10.398   3.537   5.101  0.1044 -0.0494  0.3877
 5371SOL    HW122205  10.438   3.495   5.178 -1.4025  0.1796  1.3390
 5371SOL    HW222206  10.469   3.541   5.037  0.3021 -4.4218  0.0470
 5372SOL     OW22207   8.952   5.319   5.948  0.0460 -0.3889  0.2599
 5372SOL    HW122208   9.017   5.303   5.879 -0.9274 -0.7491 -0.5896
 5372SOL    HW222209   8.933   5.233   5.984  0.9566 -0.1429  1.3791
 5373SOL     OW22210   5.188   9.816   0.713  0.1206 -0.1977  0.2445
 5373SOL    HW122211   5.212   9.800   0.622 -2.8068 -0.1382 -0.6469
 5373SOL    HW222212   5.161   9.907   0.716  1.1818  0.1121  1.4725
 5374SOL     OW22213   2.191   7.122   4.073 -0.4601  0.0408 -0.2451
 5374SOL    HW122214   2.195   7.217   4.062  0.5873  0.1017  0.4621
 5374SOL    HW222215   2.257   7.088   4.012 -2.7073 -0.4819 -2.5582
 5375SOL     OW22216   4.534   5.485   7.257 -0.2422  0.2715 -0.2012
 5375SOL    HW122217   4.493   5.399   7.264  0.0559  0.1798  0.5622
 5375SOL    HW222218   4.461   5.545   7.237 -0.2085 -0.3680 -2.4125
 5376SOL     OW22219   1.905   5.078   1.980  0.5802 -0.7429  0.0880
 5376SOL    HW122220   1.872   5.067   1.890  0.8393  0.2555 -0.1460
 5376SOL    HW222221   1.912   4.989   2.014 -0.4130 -1.0853 -0.5593
 5377SOL     OW22222   8.474   2.277   5.710  0.1377 -0.3388 -0.8330
 5377SOL    HW122223   8.432   2.361   5.725  0.8565  0.0470 -0.9236
 5377SOL    HW222224   8.497   2.277   5.617  1.2675 -0.0894 -0.5691
 5378SOL     OW22225   7.040   9.686   0.551 -0.1932 -0.0480 -0.1810
 5378SOL    HW122226   7.058   9.685   0.645  0.5929  0.0894 -0.3242
 5378SOL    HW222227   7.023   9.595   0.529 -0.0747 -0.1234  0.0378
 5379SOL     OW22228   2.791   9.099   5.400  0.2916 -0.6050  0.2115
 5379SOL    HW122229   2.723   9.134   5.457 -0.3934 -2.0518  0.3407
 5379SOL    HW222230   2.830   9.176   5.358 -0.6345  0.3282  1.0098
 5380SOL     OW22231   6.663   7.955   1.545  0.5872 -0.6286  0.5411
 5380SOL    HW122232   6.579   7.936   1.505  0.2722  1.2061  0.2395
 5380SOL    HW222233   6.724   7.962   1.472  0.4669  0.5301  0.5355
 5381SOL     OW22234   7.366   1.191   3.429 -0.4266 -0.5483  0.6093
 5381SOL    HW122235   7.370   1.168   3.337  1.2488 -0.8993  0.7504
 5381SOL    HW222236   7.309   1.123   3.468 -1.8365  0.0812 -0.2598
 5382SOL     OW22237   8.578   9.243   8.395  0.4044  0.2633  0.4126
 5382SOL    HW122238   8.499   9.251   8.449 -0.9328 -2.3381 -0.9611
 5382SOL    HW222239   8.610   9.154   8.412  0.8796 -0.0425 -1.7848
 5383SOL     OW22240   5.723   6.965   5.666  0.1307 -0.0074 -0.5389
 5383SOL    HW122241   5.655   7.029   5.645 -0.3081  1.3886  4.0222
 5383SOL    HW222242   5.676   6.895   5.713  1.2212 -1.6879 -1.8188
 5384SOL     OW22243   7.712   7.898   0.396  0.2146  0.1006 -0.0738
 5384SOL    HW122244   7.746   7.882   0.308 -1.0863  0.2409 -0.6224
 5384SOL    HW222245   7.623   7.929   0.382  0.4945  1.6234  1.2272
 5385SOL     OW22246   0.264   3.337   4.989 -0.0014  0.0360  0.3699
 5385SOL    HW122247   0.206   3.284   4.934  0.8362  0.1280 -0.6333
 5385SOL    HW222248   0.349   3.293   4.984  0.7062  1.4515 -0.4690
 5386SOL     OW22249   8.665   3.522   1.431  0.4242 -0.5682 -0.2058
 5386SOL    HW122250   8.580   3.567   1.424  0.4179 -0.7147 -1.3229
 5386SOL    HW222251   8.705   3.558   1.510 -0.1449  0.4414 -0.3565
 5387SOL     OW22252   1.471   6.788   9.015  0.3382  0.1804 -0.3147
 5387SOL    HW122253   1.489   6.876   9.047  2.8804 -1.0851  2.1359
 5387SOL    HW222254   1.557   6.750   8.998 -0.7178 -1.5696 -2.2112
 5388SOL     OW22255   1.948   0.237   9.752 -0.0739  0.5126  0.2159
 5388SOL    HW122256   1.946   0.142   9.760 -2.6089  0.5226  0.6096
 5388SOL    HW222257   2.038   0.257   9.726  0.3473 -2.0209 -0.5599
 5389SOL     OW22258   5.572   6.395   3.949 -0.2366 -0.8832 -0.3434
 5389SOL    HW122259   5.613   6.428   3.869 -1.6319 -0.4921 -0.9324
 5389SOL    HW222260   5.500   6.339   3.918 -0.1627 -1.5451  0.6457
 5390SOL     OW22261   7.956   7.173   5.051 -0.1819  0.0942  0.5692
 5390SOL    HW122262   7.984   7.081   5.057  0.0049  0.1486  0.5299
 5390SOL    HW222263   7.890   7.182   5.119 -1.4311 -0.5170 -0.5079
 5391SOL     OW22264   2.201   1.966   9.959 -0.1024  0.0640 -0.2311
 5391SOL    HW122265   2.147   2.028   9.909  0.4614 -0.3837 -1.4338
 5391SOL    HW222266   2.255   1.923   9.893  1.6988  0.4572  0.9202
 5392SOL     OW22267   0.113   5.593   1.297 -0.3578  0.0465 -0.3857
 5392SOL    HW122268   0.112   5.638   1.382  0.5653  0.8788 -0.7921
 5392SOL    HW222269   0.041   5.632   1.248  0.8145  1.6263 -0.9668
 5393SOL     OW22270   2.775   1.504   3.126 -0.3986  0.1238 -0.3067
 5393SOL    HW122271   2.831   1.428   3.142 -0.1347  0.0711 -1.4253
 5393SOL    HW222272   2.827   1.579   3.154  0.0223  0.0308 -0.8297
 5394SOL     OW22273   2.085   8.909   2.269  0.2544  0.2185  0.1601
 5394SOL    HW122274   2.172   8.884   2.300  0.0616 -0.8922 -0.1440
 5394SOL    HW222275   2.075   8.864   2.185 -0.7607  0.0122  0.3737
 5395SOL     OW22276   0.154   8.464   0.633 -0.0099  0.1035  0.1218
 5395SOL    HW122277   0.087   8.442   0.698  0.4705  0.6236  0.8156
 5395SOL    HW222278   0.201   8.538   0.672  0.8901 -0.1822 -0.3910
 5396SOL     OW22279   7.301   0.583   0.638  0.2920 -0.4289 -0.2803
 5396SOL    HW122280   7.318   0.547   0.551  0.9213  0.4835 -0.5519
 5396SOL    HW222281   7.211   0.616   0.633  0.3036 -0.4367 -0.5710
 5397SOL     OW22282   8.042   1.880   2.020 -0.2948  0.8411  0.2616
 5397SOL    HW122283   8.103   1.826   2.070 -1.3624  0.1055  0.8159
 5397SOL    HW222284   8.050   1.967   2.059  2.8802  1.7129 -1.8947
 5398SOL     OW22285   2.036   9.959   0.363 -0.3619  0.0286  0.2031
 5398SOL    HW122286   2.016   9.899   0.434 -0.4636  0.9582  0.9882
 5398SOL    HW222287   1.988   9.925   0.288 -1.5457 -0.0940  0.9875
 5399SOL     OW22288   1.051   7.694   6.570  0.2389 -0.1928  0.2322
 5399SOL    HW122289   0.999   7.762   6.526 -1.4345 -0.4423  1.7232
 5399SOL    HW222290   0.988   7.624   6.589  1.3991 -1.0716  0.9660
 5400SOL     OW22291  10.193   4.759   7.458 -0.5454 -0.0796  0.2237
 5400SOL    HW122292  10.229   4.846   7.472  1.1857 -0.9705  1.6959
 5400SOL    HW222293  10.181   4.723   7.546 -0.6089 -1.5640 -0.3673
 5401SOL     OW22294   5.309   1.034   1.386 -0.2539  0.2303 -0.3635
 5401SOL    HW122295   5.258   0.954   1.373  1.5033 -1.0679  0.3596
 5401SOL    HW222296   5.260   1.082   1.453 -0.5957 -0.9474  0.2728
 5402SOL     OW22297   7.889   5.757   7.364 -0.0325 -0.2491  0.2183
 5402SOL    HW122298   7.978   5.770   7.331  0.2998 -0.9475  0.8269
 5402SOL    HW222299   7.837   5.739   7.285  0.6826 -1.5076  0.0029
 5403SOL     OW22300   3.743   9.692   6.384 -0.3777 -0.2100 -0.8897
 5403SOL    HW122301   3.798   9.715   6.310  3.3738 -1.4658  1.2115
 5403SOL    HW222302   3.717   9.776   6.422  1.0131  0.4741 -1.4019
 5404SOL     OW22303   1.024   3.043   7.259  0.4767  0.4626  0.3276
 5404SOL    HW122304   1.073   3.008   7.333 -0.5100 -0.1312  0.7168
 5404SOL    HW222305   1.066   3.127   7.239  0.6536  0.7105  1.6732
 5405SOL     OW22306   7.632   4.183   5.475 -0.0287 -0.1673 -0.1507
 5405SOL    HW122307   7.683   4.206   5.553 -0.7285  0.9630 -0.0128
 5405SOL    HW222308   7.617   4.266   5.430 -2.9436 -0.1944  0.5559
 5406SOL     OW22309   7.178   5.896   6.400  1.1487 -0.3044  0.1013
 5406SOL    HW122310   7.150   5.891   6.309  2.5453  1.0206 -0.4529
 5406SOL    HW222311   7.114   5.843   6.448 -1.3583  1.3178 -1.2270
 5407SOL     OW22312  10.222   2.183   2.220  0.2290  0.1738  0.1120
 5407SOL    HW122313  10.187   2.129   2.292 -0.1985 -0.4752 -0.5730
 5407SOL    HW222314  10.241   2.121   2.150  0.3569  0.8404 -0.4515
 5408SOL     OW22315   8.455   5.029   6.763 -0.1640  0.4688  0.0048
 5408SOL    HW122316   8.496   5.095   6.707  1.0988 -0.4560 -0.2095
 5408SOL    HW222317   8.529   4.981   6.801 -1.0408 -1.2933 -0.4097
 5409SOL     OW22318   3.554   1.950  10.170  0.5716 -0.3066 -0.3943
 5409SOL    HW122319   3.571   1.858  10.192 -0.0994 -0.3528 -0.0652
 5409SOL    HW222320   3.466   1.950  10.133  0.1152  0.3816  0.6707
 5410SOL     OW22321   9.287   6.527  10.030  0.5275  0.1286  0.0445
 5410SOL    HW122322   9.359   6.569   9.983  1.2486 -0.4556  0.6030
 5410SOL    HW222323   9.280   6.575  10.112  1.6041 -1.0434  0.8494
 5411SOL     OW22324   2.876   5.590   7.801  1.0745  0.2796  0.8900
 5411SOL    HW122325   2.854   5.535   7.877  0.0516  0.4324  0.7310
 5411SOL    HW222326   2.965   5.619   7.817  1.4293 -0.9432  1.2766
 5412SOL     OW22327   1.934  10.788   3.870 -0.0689  0.1634 -0.6055
 5412SOL    HW122328   1.970  10.701   3.852 -0.3064 -0.1710  0.4619
 5412SOL    HW222329   1.840  10.780   3.852 -0.6727 -0.7263  2.4137
 5413SOL     OW22330   7.573   2.285   6.351  0.5080  0.2396 -0.7474
 5413SOL    HW122331   7.478   2.290   6.335  0.2919  1.8428  0.8018
 5413SOL    HW222332   7.584   2.318   6.440  2.5542  0.2225 -0.9617
 5414SOL     OW22333   3.783  10.826   6.154 -0.4626  0.0436 -0.1458
 5414SOL    HW122334   3.785  10.897   6.089  0.2346 -1.1259 -1.4561
 5414SOL    HW222335   3.786  10.746   6.102 -0.1114 -0.9497  1.3441
 5415SOL     OW22336   1.737   7.696   7.452 -0.3441  0.2467  0.3747
 5415SOL    HW122337   1.753   7.746   7.371  0.9995  1.3050  1.2539
 5415SOL    HW222338   1.642   7.699   7.462 -0.6026 -0.3389 -1.4122
 5416SOL     OW22339   6.050   5.788   6.244  0.5796  0.1180  0.6020
 5416SOL    HW122340   6.106   5.745   6.309 -0.9168 -0.0730  1.8238
 5416SOL    HW222341   5.986   5.721   6.219  0.2986  0.6141 -0.0475
 5417SOL     OW22342   7.311   7.096   2.976 -0.8108 -0.3641  0.1860
 5417SOL    HW122343   7.262   7.114   3.056 -0.3263  0.9624  0.2183
 5417SOL    HW222344   7.334   7.183   2.943 -0.4450 -0.9151 -1.0422
 5418SOL     OW22345   4.172   6.827   0.695 -0.2581  0.0310 -0.4964
 5418SOL    HW122346   4.193   6.752   0.750 -1.6433 -0.1241 -0.1446
 5418SOL    HW222347   4.082   6.849   0.717  0.0448  1.6738 -0.7546
 5419SOL     OW22348   5.303   6.936   2.335 -0.1954  0.0258  0.4718
 5419SOL    HW122349   5.236   7.004   2.328 -1.0158 -0.7837  0.4081
 5419SOL    HW222350   5.255   6.855   2.351  0.7879 -0.5057  0.8593
 5420SOL     OW22351   8.389   7.189   1.241  0.5507 -0.1768 -0.1615
 5420SOL    HW122352   8.479   7.156   1.248  0.7161  0.5295  1.4280
 5420SOL    HW222353   8.339   7.115   1.206  1.6106 -0.8069 -0.3909
 5421SOL     OW22354   9.299   9.725  10.848  0.5036  0.1542  0.1917
 5421SOL    HW122355   9.256   9.738  10.933  0.7268  4.2309 -0.1055
 5421SOL    HW222356   9.380   9.680  10.868  0.1356  0.2283  2.0170
 5422SOL     OW22357  10.403   9.243   4.302  0.2643  0.4070  0.5180
 5422SOL    HW122358  10.325   9.228   4.248 -1.4459  1.1515  2.6455
 5422SOL    HW222359  10.415   9.338   4.300  1.5189  0.2472 -0.2756
 5423SOL     OW22360   4.908   2.503   4.292 -1.0985  0.4373 -0.4059
 5423SOL    HW122361   4.877   2.508   4.382  2.6746  1.1459  1.0450
 5423SOL    HW222362   4.977   2.436   4.294 -0.8107  0.5854 -2.7488
 5424SOL     OW22363   1.470   7.646   0.823  0.0662  0.2367  0.0840
 5424SOL    HW122364   1.517   7.718   0.783  1.4332 -0.1262  0.9830
 5424SOL    HW222365   1.509   7.567   0.785 -0.2109 -0.0598  0.4044
 5425SOL     OW22366   8.285   3.461  10.710  0.4138 -0.2735  0.5129
 5425SOL    HW122367   8.338   3.541  10.711 -1.6336  1.1975 -0.2167
 5425SOL    HW222368   8.294   3.429  10.620  1.0932 -0.7948  0.7578
 5426SOL     OW22369   3.920   4.191   6.329  0.1942 -0.1589  0.2522
 5426SOL    HW122370   3.950   4.194   6.238  0.1345  2.2783  0.2716
 5426SOL    HW222371   3.987   4.140   6.374  0.9707 -0.1830 -0.8719
 5427SOL     OW22372   1.310   7.657   2.430 -0.6819  0.2912 -0.0846
 5427SOL    HW122373   1.312   7.574   2.383 -0.3103  0.2557 -0.0119
 5427SOL    HW222374   1.295   7.723   2.362 -0.7202  0.1879 -0.1760
 5428SOL     OW22375   0.507   9.336   8.990  0.0336 -0.6370 -0.1903
 5428SOL    HW122376   0.415   9.350   8.968  0.2434  3.6158  0.7737
 5428SOL    HW222377   0.546   9.304   8.909 -1.8746 -0.2211 -1.3429
 5429SOL     OW22378   4.634   9.870   0.085 -0.1123  0.3672  0.2844
 5429SOL    HW122379   4.624   9.907  -0.003 -0.7372 -0.1505  0.1325
 5429SOL    HW222380   4.545   9.869   0.121 -0.2400 -1.6696 -0.0032
 5430SOL     OW22381   7.456   8.085   0.094  0.0613 -0.2267  0.0532
 5430SOL    HW122382   7.531   8.028   0.077  1.0955  1.0099  0.3377
 5430SOL    HW222383   7.494   8.170   0.114 -1.3605  0.1414  1.4715
 5431SOL     OW22384   4.969   1.669   5.667 -1.1235  0.5729 -0.0306
 5431SOL    HW122385   4.883   1.642   5.637 -0.6390  0.6873 -1.6244
 5431SOL    HW222386   4.990   1.746   5.614  1.0393 -0.9964 -1.6613
 5432SOL     OW22387   3.021   9.673   9.110  0.1088  0.2651  0.1291
 5432SOL    HW122388   2.947   9.687   9.051  0.1589 -0.9086 -0.2319
 5432SOL    HW222389   3.098   9.676   9.053  0.1943 -0.3608  0.2077
 5433SOL     OW22390   2.615   4.642   6.071 -0.0453 -0.4932  0.0939
 5433SOL    HW122391   2.647   4.727   6.104  1.4367 -1.5141  1.4369
 5433SOL    HW222392   2.643   4.639   5.980  0.8276  0.0204  0.3398
 5434SOL     OW22393   5.491   0.446   6.364  0.2353  0.4476 -0.2080
 5434SOL    HW122394   5.548   0.484   6.297 -0.7298  0.8414 -0.8139
 5434SOL    HW222395   5.526   0.357   6.378  1.8766  1.1595  0.4887
 5435SOL     OW22396   6.769   3.052   7.802 -0.2016  0.6211 -0.0487
 5435SOL    HW122397   6.781   3.055   7.896 -2.1252  1.5707  0.1991
 5435SOL    HW222398   6.817   3.128   7.769  3.3834 -1.5175 -0.2974
 5436SOL     OW22399   1.960   2.342   9.686 -0.1315 -0.3131 -0.1099
 5436SOL    HW122400   1.875   2.372   9.654  0.4551  1.6093 -0.0012
 5436SOL    HW222401   2.024   2.394   9.636  0.8926  0.0993  1.5597
 5437SOL     OW22402   7.669   2.898   2.218  0.6100 -0.1962 -0.4412
 5437SOL    HW122403   7.640   2.968   2.276  0.5805 -0.1279 -0.5386
 5437SOL    HW222404   7.725   2.941   2.153  2.4787 -0.5989  0.8439
 5438SOL     OW22405   6.224   7.324   0.320 -0.6938 -0.2113  0.1798
 5438SOL    HW122406   6.302   7.282   0.284 -0.3992  0.4825 -0.0048
 5438SOL    HW222407   6.194   7.383   0.251 -0.9485  0.0812  0.5371
 5439SOL     OW22408   4.856   7.800   1.871 -0.6742  0.8253 -0.1258
 5439SOL    HW122409   4.928   7.863   1.877 -0.8882  1.3536 -2.3501
 5439SOL    HW222410   4.777   7.852   1.885 -0.7298  0.6153  0.3492
 5440SOL     OW22411   6.029   3.346   6.296 -0.0447 -0.6974 -0.3185
 5440SOL    HW122412   5.946   3.311   6.264  0.2857 -0.9611 -0.9031
 5440SOL    HW222413   6.071   3.272   6.340 -1.2287  0.0597  2.3004
 5441SOL     OW22414   7.168   0.368   8.875 -0.1158  0.2431  0.3371
 5441SOL    HW122415   7.240   0.340   8.817 -1.6257 -0.9353 -1.0688
 5441SOL    HW222416   7.210   0.381   8.960  1.7478 -0.5414 -0.3980
 5442SOL     OW22417   5.128   1.084   6.935 -0.1019 -0.3993 -0.0934
 5442SOL    HW122418   5.203   1.143   6.936  0.2031 -0.7905  0.9401
 5442SOL    HW222419   5.069   1.121   6.869  1.6337 -0.8987 -2.0407
 5443SOL     OW22420  10.603   3.654   1.448 -0.2567  0.3470  0.0964
 5443SOL    HW122421  10.672   3.667   1.514  0.9785 -0.2759 -1.0338
 5443SOL    HW222422  10.527   3.698   1.485  0.6542  0.7978  1.5317
 5444SOL     OW22423   1.690   3.889   8.642 -0.1100 -0.2761 -0.0238
 5444SOL    HW122424   1.748   3.813   8.645  0.4394  0.1798  1.8605
 5444SOL    HW222425   1.740   3.960   8.683 -0.7580  1.0254 -1.3855
 5445SOL     OW22426   0.791   6.729   0.155  0.0327 -0.1977 -0.0401
 5445SOL    HW122427   0.832   6.712   0.070  0.2588 -1.2464  0.2609
 5445SOL    HW222428   0.801   6.823   0.168  0.3055 -0.0782 -1.0153
 5446SOL     OW22429   6.110   8.682  10.004 -0.7791 -0.2705 -0.5238
 5446SOL    HW122430   6.099   8.587  10.010  0.1413 -0.4102 -0.7745
 5446SOL    HW222431   6.177   8.693   9.936 -0.2973  0.5139  0.0634
 5447SOL     OW22432   6.470   5.578   3.426 -0.3038  0.2853 -0.2684
 5447SOL    HW122433   6.467   5.512   3.495 -0.9884  1.3511  0.7526
 5447SOL    HW222434   6.401   5.552   3.365  0.3843 -0.7274 -0.6402
 5448SOL     OW22435   6.390   0.060   6.326 -0.4527 -0.8554  0.3200
 5448SOL    HW122436   6.346  -0.006   6.273 -1.6140  0.5295 -0.5337
 5448SOL    HW222437   6.343   0.141   6.306  1.5115  0.4153  0.5897
 5449SOL     OW22438   2.454   4.156   0.365 -0.0766  0.0260  0.1077
 5449SOL    HW122439   2.374   4.108   0.387  0.1405 -0.9107 -1.0454
 5449SOL    HW222440   2.446   4.239   0.412 -1.6815 -0.0777  0.0711
 5450SOL     OW22441   1.742   7.174   5.475  0.1131  0.3468 -0.0271
 5450SOL    HW122442   1.818   7.230   5.488 -1.0118  1.3243  3.3241
 5450SOL    HW222443   1.668   7.234   5.473 -0.9540 -0.8006  1.7449
 5451SOL     OW22444   9.552  10.861   8.203 -0.0801 -0.0933 -0.4465
 5451SOL    HW122445   9.547  10.796   8.133 -0.3252  0.1715 -0.6796
 5451SOL    HW222446   9.639  10.850   8.240 -0.5532 -1.4244  0.3635
 5452SOL     OW22447   4.488   9.279   9.150 -0.0575 -0.0734 -0.5681
 5452SOL    HW122448   4.511   9.349   9.089 -1.1916 -0.0055 -0.9509
 5452SOL    HW222449   4.569   9.231   9.164  0.6595  1.0929 -0.5839
 5453SOL     OW22450   4.682  10.744   7.161  0.0199  0.6151  0.5200
 5453SOL    HW122451   4.600  10.794   7.159 -0.5530 -0.2963 -0.9498
 5453SOL    HW222452   4.750  10.811   7.164 -0.7564  1.3988  1.6735
 5454SOL     OW22453   2.734   8.589   1.957 -0.5562  0.1398  0.5523
 5454SOL    HW122454   2.751   8.584   2.051 -0.0477 -1.5874  0.3945
 5454SOL    HW222455   2.820   8.596   1.917 -0.8011  1.6591  0.2170
 5455SOL     OW22456   0.177   3.092   0.810  0.3509 -0.5030 -0.2256
 5455SOL    HW122457   0.261   3.131   0.834 -0.3236  0.9094 -0.0682
 5455SOL    HW222458   0.135   3.070   0.893  0.1391 -0.2684 -0.2695
 5456SOL     OW22459   9.196   7.916   3.946 -0.2058  0.0098  0.5451
 5456SOL    HW122460   9.117   7.970   3.959  0.1058  0.2490  1.5473
 5456SOL    HW222461   9.189   7.885   3.856  0.0195  2.3939 -0.3834
 5457SOL     OW22462   6.611   7.681  10.707  0.2506  0.1146  0.0531
 5457SOL    HW122463   6.589   7.700  10.616 -0.2765 -0.9746 -0.0600
 5457SOL    HW222464   6.706   7.674  10.708  0.2317 -0.2390 -0.4839
 5458SOL     OW22465  10.608  10.651   9.146 -1.0794 -0.0349 -0.1281
 5458SOL    HW122466  10.556  10.704   9.205 -1.0961 -0.0788 -0.1034
 5458SOL    HW222467  10.545  10.597   9.099 -1.4520  2.2722 -2.5394
 5459SOL     OW22468   1.520   1.241   6.126 -0.3098  0.4851 -0.3535
 5459SOL    HW122469   1.596   1.212   6.176 -1.1941  1.0214  1.3940
 5459SOL    HW222470   1.505   1.173   6.061  0.3066 -0.7414  0.7611
 5460SOL     OW22471   9.499   9.700   0.195  0.0495  0.1891 -0.0236
 5460SOL    HW122472   9.412   9.738   0.209  0.4154  1.4421 -0.9524
 5460SOL    HW222473   9.500   9.676   0.102  1.6643  2.9478 -0.8362
 5461SOL     OW22474   8.629   4.979  10.354 -0.5256  0.6943  0.3841
 5461SOL    HW122475   8.551   4.945  10.399  0.1392 -0.7205  0.4966
 5461SOL    HW222476   8.627   4.937  10.268  0.4424  0.1470  0.6149
 5462SOL     OW22477  10.592   9.108   1.206  0.0906 -0.1391  0.1760
 5462SOL    HW122478  10.651   9.034   1.219  0.9637  0.3295 -0.8617
 5462SOL    HW222479  10.513   9.070   1.168  0.0879 -0.6732  0.7174
 5463SOL     OW22480   2.843   0.015  10.236  0.2582 -0.2454  0.0260
 5463SOL    HW122481   2.777  -0.012  10.300 -1.6940  1.7429 -1.0374
 5463SOL    HW222482   2.926   0.012  10.286 -0.8913 -0.7277  2.0337
 5464SOL     OW22483   2.883   0.219   7.579  0.0007  0.0630  0.4844
 5464SOL    HW122484   2.823   0.172   7.636  0.7498  0.2787  1.4792
 5464SOL    HW222485   2.827   0.261   7.514 -0.9070  0.2179  1.3551
 5465SOL     OW22486   2.247  10.228   6.757  0.0730 -0.2146 -0.9590
 5465SOL    HW122487   2.334  10.261   6.735 -0.3107  1.1828 -0.4790
 5465SOL    HW222488   2.257  10.191   6.845  0.2010 -0.1387 -0.9410
 5466SOL     OW22489   2.738   8.516   5.125  0.1748 -0.3688 -0.3522
 5466SOL    HW122490   2.657   8.515   5.175  1.2411 -2.5357  1.4863
 5466SOL    HW222491   2.759   8.424   5.111  4.0898 -0.1284  2.3885
 5467SOL     OW22492   8.516   6.797   8.708  0.0831 -0.4528  0.2753
 5467SOL    HW122493   8.551   6.830   8.626 -0.4160 -1.2283 -0.2768
 5467SOL    HW222494   8.555   6.710   8.717 -1.3193 -1.1786 -0.1633
 5468SOL     OW22495   6.785   0.249   6.703 -0.1852 -0.2230  0.3892
 5468SOL    HW122496   6.848   0.310   6.740  1.5592 -0.2399 -2.2323
 5468SOL    HW222497   6.701   0.295   6.705  0.1723  0.4327  2.5148
 5469SOL     OW22498   2.543   9.945  10.737  1.0269  0.7316  0.4155
 5469SOL    HW122499   2.596   9.899  10.802  0.6435 -0.1364  0.1265
 5469SOL    HW222500   2.594   9.941  10.656 -0.1301 -1.5163 -0.2759
 5470SOL     OW22501   9.945   3.484  10.676 -0.0329  0.0435  0.1156
 5470SOL    HW122502   9.919   3.525  10.594 -0.4542 -0.5425 -0.0439
 5470SOL    HW222503  10.041   3.482  10.673  0.0662  1.9350  0.5734
 5471SOL     OW22504   6.479   5.929   7.144  0.1480 -0.0204 -0.3179
 5471SOL    HW122505   6.401   5.878   7.164  0.6437 -1.0966 -1.0215
 5471SOL    HW222506   6.450   6.020   7.150 -1.4200 -0.3882 -1.5243
 5472SOL     OW22507   6.120   8.327   1.683 -0.1501 -0.4168  0.4458
 5472SOL    HW122508   6.097   8.355   1.772 -1.1005 -0.3059  0.1810
 5472SOL    HW222509   6.039   8.288   1.650  0.4271 -1.1693 -0.0922
 5473SOL     OW22510   4.371  10.355   9.541 -0.3243 -0.1100  0.9864
 5473SOL    HW122511   4.444  10.414   9.523 -0.6405  0.1266  0.4577
 5473SOL    HW222512   4.294  10.411   9.540 -0.6072 -0.5012  0.6609
 5474SOL     OW22513   2.897   6.453   2.872  0.1217 -0.1836  0.1926
 5474SOL    HW122514   2.935   6.535   2.842  1.1161  0.0562  1.9609
 5474SOL    HW222515   2.972   6.401   2.900 -0.5899 -1.1858  0.2841
 5475SOL     OW22516   8.693   9.259   6.870  0.3305  0.5223  0.1365
 5475SOL    HW122517   8.717   9.286   6.958  1.4805 -1.2674  0.4288
 5475SOL    HW222518   8.600   9.235   6.877  0.6827 -0.6516  1.1727
 5476SOL     OW22519  10.520   2.858   5.737 -0.0189  0.3828  0.2203
 5476SOL    HW122520  10.542   2.943   5.776 -0.6003  0.0949  1.2234
 5476SOL    HW222521  10.470   2.813   5.805 -1.5522  0.0541 -1.0536
 5477SOL     OW22522   0.457   6.036   0.618 -0.0357 -0.1889 -0.1295
 5477SOL    HW122523   0.522   6.078   0.674 -1.7191  2.0627  0.3001
 5477SOL    HW222524   0.501   6.027   0.533  1.1778  0.3150  0.4230
 5478SOL     OW22525   9.258   2.858   7.499 -0.4202  0.4460 -0.3136
 5478SOL    HW122526   9.176   2.814   7.521 -0.5088  0.5211 -0.4952
 5478SOL    HW222527   9.282   2.824   7.413 -0.3888  0.6051 -0.3680
 5479SOL     OW22528   6.685  10.640   5.388 -0.1331  0.4917 -0.0043
 5479SOL    HW122529   6.765  10.681   5.356 -0.4894  1.7703  0.7003
 5479SOL    HW222530   6.710  10.599   5.471 -0.0118  0.1368 -0.2144
 5480SOL     OW22531   1.796   0.716   2.069  0.3315  0.5391 -0.1454
 5480SOL    HW122532   1.825   0.806   2.087  1.3949  0.3229 -0.6606
 5480SOL    HW222533   1.875   0.663   2.080  0.0389 -0.1455 -1.1689
 5481SOL     OW22534   8.593   0.539   0.622  0.0013 -0.3544 -0.6457
 5481SOL    HW122535   8.610   0.628   0.650 -0.7941 -0.2349 -0.5126
 5481SOL    HW222536   8.576   0.491   0.703 -1.4654 -0.1933 -0.8307
 5482SOL     OW22537   6.631   8.859   7.491  0.4002 -0.3090  0.5699
 5482SOL    HW122538   6.565   8.878   7.557 -0.1579  1.2154 -0.3703
 5482SOL    HW222539   6.620   8.928   7.426  2.6678 -0.2186  0.1931
 5483SOL     OW22540   0.357   9.145   3.329  0.3907 -0.1065  0.4420
 5483SOL    HW122541   0.389   9.076   3.387  0.6231  0.1756  0.6498
 5483SOL    HW222542   0.412   9.138   3.251  1.4064  0.7916  1.0538
 5484SOL     OW22543  10.707   3.253  10.714 -0.7599  0.2130 -0.0422
 5484SOL    HW122544  10.764   3.269  10.789 -0.8559  0.4621 -0.0188
 5484SOL    HW222545  10.728   3.324  10.653 -0.7658  0.0791 -0.2017
 5485SOL     OW22546  10.692   8.898   0.537 -0.4371 -0.5722  0.6336
 5485SOL    HW122547  10.767   8.949   0.567  0.4176 -1.1667 -0.3987
 5485SOL    HW222548  10.718   8.807   0.549 -0.2393 -0.8313 -1.3304
 5486SOL     OW22549  10.676   9.584   0.998  0.4100 -0.0595 -0.3888
 5486SOL    HW122550  10.692   9.517   1.065  0.8126  0.3354 -0.0881
 5486SOL    HW222551  10.583   9.576   0.978 -0.2529  1.2859  1.8339
 5487SOL     OW22552   2.480   1.865   1.707 -0.1528 -0.0535  0.0665
 5487SOL    HW122553   2.553   1.803   1.709  0.0408  0.1825  1.0109
 5487SOL    HW222554   2.514   1.942   1.752 -1.0424 -0.0076  0.6726
 5488SOL     OW22555   6.487   1.131   9.131  0.0236  0.4321 -0.1222
 5488SOL    HW122556   6.400   1.126   9.092 -0.4784  1.2048  0.8384
 5488SOL    HW222557   6.543   1.081   9.072 -1.1511 -0.4486 -0.5265
 5489SOL     OW22558   7.857   9.963   5.119  0.1356 -0.1865 -0.2363
 5489SOL    HW122559   7.795   9.894   5.094  0.2465 -0.6130  0.6150
 5489SOL    HW222560   7.940   9.917   5.130 -0.1262 -0.2597  1.9668
 5490SOL     OW22561   5.576   9.504   3.180  0.2829  0.2863  0.0294
 5490SOL    HW122562   5.671   9.504   3.182  0.2822 -0.2911  0.5995
 5490SOL    HW222563   5.552   9.580   3.127  1.0614  0.2491 -0.3760
 5491SOL     OW22564   0.485   0.383   1.467  0.6237  0.2931  0.4485
 5491SOL    HW122565   0.414   0.337   1.512  1.1770 -0.9245  0.1131
 5491SOL    HW222566   0.503   0.330   1.389  3.8724 -1.1711  1.9763
 5492SOL     OW22567   6.289   4.190   1.471  0.6538  0.0689  0.0863
 5492SOL    HW122568   6.366   4.209   1.417  1.4521 -0.3009  1.0629
 5492SOL    HW222569   6.312   4.111   1.520  0.0166  0.4713  1.0817
 5493SOL     OW22570   6.438   9.657   4.057 -0.6630 -0.5415  0.5026
 5493SOL    HW122571   6.458   9.570   4.023  0.0197 -0.6543  1.1550
 5493SOL    HW222572   6.513   9.678   4.113 -1.5591 -0.2107  1.6154
 5494SOL     OW22573   1.935   2.816  10.457  0.9840  0.1423  0.0586
 5494SOL    HW122574   1.997   2.858  10.516  0.9007 -0.5922  0.6787
 5494SOL    HW222575   1.899   2.888  10.406 -0.1845  1.0466  2.0356
 5495SOL     OW22576   5.958   7.402   2.118 -0.3199  0.0420  0.6312
 5495SOL    HW122577   5.875   7.369   2.153  0.2947 -1.6453  0.5823
 5495SOL    HW222578   5.932   7.467   2.052 -1.5525  0.6383  1.6546
 5496SOL     OW22579   0.493   9.735   8.659 -0.4200 -0.0411  0.2359
 5496SOL    HW122580   0.519   9.826   8.645 -1.1941  0.3197  1.0649
 5496SOL    HW222581   0.564   9.698   8.713 -0.1519  0.0968 -0.0208
 5497SOL     OW22582   3.706   2.320   2.299 -0.1441  0.3216 -0.4648
 5497SOL    HW122583   3.667   2.263   2.233  1.2413 -1.0319 -0.1869
 5497SOL    HW222584   3.800   2.317   2.280  0.2127  0.4115  1.1862
 5498SOL     OW22585   7.090   5.656   3.727 -0.2137  0.4965  0.0604
 5498SOL    HW122586   7.015   5.714   3.719 -1.0239  0.0662  3.2856
 5498SOL    HW222587   7.080   5.614   3.813  3.4221  0.0298  0.4421
 5499SOL     OW22588   0.325   9.827   9.587  0.2672  0.1415 -0.0028
 5499SOL    HW122589   0.344   9.752   9.531 -0.0238  0.4584 -0.5255
 5499SOL    HW222590   0.236   9.854   9.564 -0.2618 -0.3633  1.3392
 5500SOL     OW22591  10.928   5.153   8.626  0.4326 -0.2891 -0.1010
 5500SOL    HW122592  11.012   5.189   8.651  2.0579 -4.3389  1.1550
 5500SOL    HW222593  10.885   5.132   8.709 -0.3124 -1.3148 -0.7196
 5501SOL     OW22594   9.542  10.309   0.605 -0.2070  0.2466  0.9216
 5501SOL    HW122595   9.455  10.333   0.573  0.4152  2.4638  0.7574
 5501SOL    HW222596   9.527  10.283   0.696 -1.1758 -0.4713  0.5743
 5502SOL     OW22597   3.612   2.707   0.370 -0.4614  0.2818  0.2077
 5502SOL    HW122598   3.545   2.774   0.381 -0.3156  0.5029 -0.2166
 5502SOL    HW222599   3.695   2.755   0.379 -0.3521 -0.0701  1.2138
 5503SOL     OW22600   8.608   1.728   7.332  0.4022 -0.0108  0.2330
 5503SOL    HW122601   8.694   1.735   7.373  0.6048 -0.9467 -0.0073
 5503SOL    HW222602   8.576   1.818   7.327  1.0310  0.2651  1.0371
 5504SOL     OW22603   3.106   6.193   7.782  0.0726  0.0829 -0.0540
 5504SOL    HW122604   3.015   6.217   7.797  0.2123 -0.4682  2.0281
 5504SOL    HW222605   3.155   6.274   7.799 -0.0202  0.6602 -2.1591
 5505SOL     OW22606   5.458   3.742   8.973  0.1618  0.4525 -0.1442
 5505SOL    HW122607   5.398   3.739   9.048  1.5257  0.6192  0.9817
 5505SOL    HW222608   5.412   3.796   8.908 -0.5250  1.3547  1.0494
 5506SOL     OW22609   1.235   7.296   9.975  0.2706  0.4378  0.1717
 5506SOL    HW122610   1.248   7.214   9.927 -2.0576  1.7533 -3.0966
 5506SOL    HW222611   1.143   7.293  10.002  0.6564  1.2136  1.6566
 5507SOL     OW22612   6.610   2.571   1.638  0.7201  0.0860  0.1458
 5507SOL    HW122613   6.535   2.552   1.582 -0.4043 -1.8888  2.1491
 5507SOL    HW222614   6.686   2.564   1.579 -0.4949  0.1195 -1.5073
 5508SOL     OW22615   5.087   8.246  10.751 -1.2135  0.4171  0.0347
 5508SOL    HW122616   5.139   8.209  10.680  1.1815 -2.0030  2.7213
 5508SOL    HW222617   4.999   8.212  10.736 -0.6169 -0.6256 -1.4080
 5509SOL     OW22618   9.601   2.523   1.599 -0.2521  0.0490 -0.6955
 5509SOL    HW122619   9.675   2.582   1.608  0.1677 -0.2767 -1.8734
 5509SOL    HW222620   9.538   2.552   1.666  1.0466  0.1369  0.5347
 5510SOL     OW22621   6.739   8.364   8.955  0.4899 -0.5483 -0.1530
 5510SOL    HW122622   6.795   8.373   8.878  0.3206 -3.3422 -0.6842
 5510SOL    HW222623   6.792   8.314   9.017  0.1860  0.6470  1.1236
 5511SOL     OW22624   5.014  10.792   9.029  0.2260 -0.2298 -0.1003
 5511SOL    HW122625   4.988  10.702   9.051 -0.6026  0.2598  1.0117
 5511SOL    HW222626   5.075  10.817   9.099 -0.5672  0.5195  0.3338
 5512SOL     OW22627   8.570   5.556  10.562 -0.2153  0.2972 -0.0412
 5512SOL    HW122628   8.521   5.548  10.644 -0.0688 -0.8921 -0.0505
 5512SOL    HW222629   8.611   5.470  10.550 -0.0577  0.5207 -1.2465
 5513SOL     OW22630   3.720   3.356   0.453  0.0029  0.0825 -0.1286
 5513SOL    HW122631   3.816   3.355   0.451  0.0861 -0.0507  1.7632
 5513SOL    HW222632   3.696   3.264   0.463 -0.3599  0.0636 -1.1213
 5514SOL     OW22633   1.316   9.562   0.150  0.3812  0.0556 -0.1889
 5514SOL    HW122634   1.332   9.532   0.240  1.3095 -0.2331 -0.4398
 5514SOL    HW222635   1.277   9.648   0.160  0.3764 -0.0210  0.4954
 5515SOL     OW22636   4.314   6.111   8.630 -0.1643  0.3059  0.0639
 5515SOL    HW122637   4.287   6.165   8.556 -2.3601 -0.4150  0.2843
 5515SOL    HW222638   4.283   6.023   8.609 -1.7607  0.2554  2.2183
 5516SOL     OW22639   7.504  10.100   8.149 -0.1849  0.0199  0.2610
 5516SOL    HW122640   7.594  10.113   8.180  0.0350  0.4870 -0.5447
 5516SOL    HW222641   7.479  10.185   8.112 -0.4269 -0.5348 -0.8780
 5517SOL     OW22642   7.758   8.832   6.019  0.2546  0.6084  0.2729
 5517SOL    HW122643   7.851   8.849   6.011  0.0076  1.6212 -0.6207
 5517SOL    HW222644   7.747   8.740   5.992  1.0756  0.2078  1.2275
 5518SOL     OW22645  10.721   5.223   9.203 -0.3281 -0.1808 -0.1139
 5518SOL    HW122646  10.724   5.172   9.122  0.5809 -1.3516  0.6211
 5518SOL    HW222647  10.790   5.288   9.193 -0.9021  0.3524 -0.6925
 5519SOL     OW22648   1.463   4.772   5.770 -0.2304 -0.1273 -0.2090
 5519SOL    HW122649   1.387   4.779   5.827 -1.1088  1.0498 -1.4485
 5519SOL    HW222650   1.516   4.702   5.808 -1.2404 -0.0278  1.4683
 5520SOL     OW22651   8.008   7.219   2.645  0.1104 -0.4591 -0.0516
 5520SOL    HW122652   8.063   7.231   2.568  1.4354 -0.7607  0.8080
 5520SOL    HW222653   7.918   7.226   2.612  0.6416  1.9371 -1.1943
 5521SOL     OW22654   1.247  10.086   6.864  0.6409 -0.9713 -0.3397
 5521SOL    HW122655   1.183  10.073   6.934 -1.8383  0.2212 -2.2399
 5521SOL    HW222656   1.257  10.000   6.823  0.2077 -1.1492 -0.0696
 5522SOL     OW22657   3.609   8.173   4.270  0.1672  0.8321 -0.0966
 5522SOL    HW122658   3.657   8.142   4.347 -1.3087  1.4555  1.1254
 5522SOL    HW222659   3.674   8.173   4.200  1.5395  0.1507  1.1177
 5523SOL     OW22660   1.306   9.070   5.782  0.1780  0.5677 -0.1037
 5523SOL    HW122661   1.271   8.981   5.784 -1.3646  1.1242 -0.9260
 5523SOL    HW222662   1.368   9.069   5.708 -0.1624  0.2906 -0.3884
 5524SOL     OW22663   8.207   7.368   7.245  0.2043 -0.0009 -0.1215
 5524SOL    HW122664   8.181   7.459   7.260 -0.1176  0.0908 -1.1271
 5524SOL    HW222665   8.188   7.324   7.327 -1.4985  0.4403 -0.2401
 5525SOL     OW22666   8.925   8.655   8.252  0.3182 -0.5272 -0.7579
 5525SOL    HW122667   9.015   8.651   8.220 -0.2886 -0.2384 -2.6254
 5525SOL    HW222668   8.883   8.723   8.198 -0.9645 -0.5058  0.2157
 5526SOL     OW22669   3.531   8.961   8.395  0.0096 -0.0755 -0.0537
 5526SOL    HW122670   3.454   8.966   8.452 -0.8359 -2.3867 -0.8860
 5526SOL    HW222671   3.530   9.044   8.347 -2.9811 -0.6353 -1.1969
 5527SOL     OW22672   0.553  10.075   7.194 -0.1150  0.2982  0.0757
 5527SOL    HW122673   0.539  10.086   7.100  0.4293  1.3452  0.0967
 5527SOL    HW222674   0.547  10.164   7.230  1.0511  0.0971  0.8296
 5528SOL     OW22675   3.597   7.654   1.160 -0.0748 -0.1457 -0.1757
 5528SOL    HW122676   3.511   7.660   1.117  0.3448 -0.1351 -1.0212
 5528SOL    HW222677   3.613   7.741   1.195 -0.0958  0.0457 -0.6334
 5529SOL     OW22678   8.962   4.810   8.296 -0.0166  0.4039  0.2996
 5529SOL    HW122679   8.990   4.879   8.236 -0.7522  1.4468  1.1317
 5529SOL    HW222680   9.032   4.804   8.361  1.3697 -1.5451 -1.2285
 5530SOL     OW22681   3.642  10.345   7.351 -0.4126 -0.0648  0.1861
 5530SOL    HW122682   3.725  10.378   7.383 -0.6477 -0.9695  1.8618
 5530SOL    HW222683   3.665  10.275   7.291  0.0443 -0.1640  0.4730
 5531SOL     OW22684   1.049   1.344   9.851 -0.3294 -0.3114  0.1367
 5531SOL    HW122685   1.007   1.297   9.922 -1.6358  2.4231  1.3174
 5531SOL    HW222686   0.978   1.364   9.790  0.2781 -0.2821 -0.5785
 5532SOL     OW22687   9.455   7.638   0.830 -0.2665 -0.0739 -0.2104
 5532SOL    HW122688   9.430   7.553   0.866  0.1391  0.1903  0.7326
 5532SOL    HW222689   9.496   7.617   0.746 -1.6154 -0.6714 -0.7408
 5533SOL     OW22690   7.595   7.509   9.853  0.4234 -0.2082 -0.0193
 5533SOL    HW122691   7.640   7.444   9.800  3.3672  1.0289  0.7407
 5533SOL    HW222692   7.658   7.533   9.920 -1.1356  2.2288  0.7128
 5534SOL     OW22693   8.595  10.922   1.465 -0.0530  0.6817  0.3251
 5534SOL    HW122694   8.592  11.000   1.408  0.0360  0.5013  0.0728
 5534SOL    HW222695   8.651  10.948   1.537  0.9071  0.4789 -0.3282
 5535SOL     OW22696   6.546   6.023   5.365 -0.1497  0.0561 -0.4645
 5535SOL    HW122697   6.486   6.098   5.372 -0.7375 -0.4887  0.8048
 5535SOL    HW222698   6.603   6.032   5.441  0.1519 -0.4642 -0.6328
 5536SOL     OW22699   6.440   9.035  10.413 -0.4884 -0.2578 -0.8389
 5536SOL    HW122700   6.501   9.015  10.342  0.7986  1.2827 -0.2340
 5536SOL    HW222701   6.496   9.043  10.491 -1.2153  2.4505 -0.4841
 5537SOL     OW22702   9.058   6.672   0.293  0.2928  0.0128  0.5670
 5537SOL    HW122703   8.999   6.664   0.367 -0.8836  0.7499 -0.2569
 5537SOL    HW222704   9.110   6.750   0.312 -0.5422  0.6584  0.2841
 5538SOL     OW22705   9.339   9.510   8.923 -0.0783  0.0414  0.4800
 5538SOL    HW122706   9.309   9.518   9.014  1.7274  1.8880  1.0015
 5538SOL    HW222707   9.426   9.470   8.931  0.4980  1.0823 -0.3219
 5539SOL     OW22708   7.922   3.578   8.393 -0.0892 -0.1138  0.1441
 5539SOL    HW122709   8.017   3.576   8.393 -0.0934 -0.2931  0.6028
 5539SOL    HW222710   7.898   3.611   8.480 -0.5071 -3.2739  1.3407
 5540SOL     OW22711   6.370  10.023   4.488  0.3901  0.4283  0.2738
 5540SOL    HW122712   6.324  10.057   4.565 -0.5993  2.2403 -1.0226
 5540SOL    HW222713   6.391  10.101   4.437 -2.0140 -0.7878 -2.9311
 5541SOL     OW22714   3.224   6.142   0.382 -0.3792  0.3523 -0.0297
 5541SOL    HW122715   3.186   6.221   0.343  0.4990  0.6455 -0.3225
 5541SOL    HW222716   3.211   6.153   0.476 -1.2015  0.3354 -0.1313
 5542SOL     OW22717   7.743   2.294   9.421  0.1244  0.5975 -0.4161
 5542SOL    HW122718   7.782   2.252   9.498  0.7689 -0.4368 -1.2754
 5542SOL    HW222719   7.657   2.252   9.413 -0.1975  1.1518  0.0917
 5543SOL     OW22720   1.242   0.722   6.322  0.4628 -0.9135 -0.0931
 5543SOL    HW122721   1.222   0.684   6.236  0.3237  1.8063 -1.3555
 5543SOL    HW222722   1.156   0.737   6.362  0.3121  0.9723 -1.0075
 5544SOL     OW22723   5.271   9.376   7.979 -0.0678  0.0804 -0.0599
 5544SOL    HW122724   5.273   9.362   7.885 -1.1687 -0.0934 -0.0790
 5544SOL    HW222725   5.300   9.466   7.991  0.5762 -0.0641 -0.5175
 5545SOL     OW22726   3.872   1.145   7.749  0.0678 -0.4950 -0.0452
 5545SOL    HW122727   3.949   1.090   7.762 -0.8363 -1.6651  0.5313
 5545SOL    HW222728   3.798   1.089   7.771 -0.9114  0.8805  0.3279
 5546SOL     OW22729   1.532   2.925   6.528  0.2335 -0.6116 -0.4651
 5546SOL    HW122730   1.611   2.980   6.534 -1.1419  1.5919 -1.4078
 5546SOL    HW222731   1.566   2.838   6.510  2.4674  0.3760 -1.4853
 5547SOL     OW22732   2.226   3.307   4.448 -0.7043 -0.2196  0.2096
 5547SOL    HW122733   2.233   3.388   4.397 -0.3041  0.1105  0.7719
 5547SOL    HW222734   2.264   3.240   4.392  1.5447  0.4717  0.7872
 5548SOL     OW22735   4.585   4.060   8.126  0.3496 -0.4709 -0.4565
 5548SOL    HW122736   4.543   4.057   8.040  0.8330 -0.7419 -0.6876
 5548SOL    HW222737   4.641   4.137   8.123 -1.9862  1.4221  0.7465
 5549SOL     OW22738   5.133   0.668   6.655 -0.1721  0.1591 -0.4348
 5549SOL    HW122739   5.183   0.662   6.574  0.1972  2.0743 -0.3913
 5549SOL    HW222740   5.150   0.585   6.700 -1.0679 -1.3407 -2.6439
 5550SOL     OW22741   7.722   3.381   8.324 -0.1639  0.4139 -0.2196
 5550SOL    HW122742   7.792   3.443   8.345 -0.8544  1.0102  0.4017
 5550SOL    HW222743   7.641   3.431   8.337 -0.7223 -0.4416 -0.3044
 5551SOL     OW22744   1.762   0.327   9.586 -0.4564  0.1193  0.0517
 5551SOL    HW122745   1.682   0.286   9.619 -0.2879  0.5579  1.0281
 5551SOL    HW222746   1.832   0.289   9.640 -0.2251  1.1767  0.5036
 5552SOL     OW22747   4.081  10.843   6.633  0.5476 -0.3957  0.0623
 5552SOL    HW122748   4.148  10.899   6.672 -0.9928  0.3549  1.7824
 5552SOL    HW222749   4.047  10.893   6.559  0.5323  0.0817  0.3911
 5553SOL     OW22750   5.875   0.908   5.578 -0.1388  0.0822  0.1767
 5553SOL    HW122751   5.969   0.896   5.583 -0.2504 -0.8501  0.2392
 5553SOL    HW222752   5.847   0.920   5.669  0.0259  1.3472  0.0783
 5554SOL     OW22753   5.231  10.160   2.459 -0.4717 -0.1658 -0.5778
 5554SOL    HW122754   5.250  10.204   2.542 -0.1010  0.6786 -1.0904
 5554SOL    HW222755   5.142  10.187   2.438  0.0204  1.0145 -1.2725
 5555SOL     OW22756   6.184   0.251   8.109 -0.2922  0.0662 -0.1096
 5555SOL    HW122757   6.091   0.274   8.099 -0.3688 -0.8321 -1.8335
 5555SOL    HW222758   6.225   0.288   8.031  1.2869  2.4912  1.7057
 5556SOL     OW22759   3.573   6.321   8.651  0.3580  0.1979  0.4588
 5556SOL    HW122760   3.562   6.415   8.637  0.7373 -0.0535 -1.9006
 5556SOL    HW222761   3.645   6.314   8.714  0.4482  1.4704  0.5075
 5557SOL     OW22762   0.600   9.155   6.091  0.0469 -0.1196  0.8375
 5557SOL    HW122763   0.684   9.120   6.120 -0.2833 -0.8629  0.9129
 5557SOL    HW222764   0.623   9.225   6.030  0.7509  1.1828  2.5260
 5558SOL     OW22765   6.056   9.699  10.193 -0.0363  0.0150 -0.2565
 5558SOL    HW122766   6.134   9.735  10.236 -0.8477  0.8851  0.5345
 5558SOL    HW222767   6.011   9.651  10.263  0.1057 -1.0045 -0.8617
 5559SOL     OW22768   6.383   5.566  10.339 -0.2802  0.5005  0.2571
 5559SOL    HW122769   6.447   5.634  10.362  0.8857 -0.1390 -0.9629
 5559SOL    HW222770   6.435   5.498  10.296 -1.6859 -0.4006 -0.0725
 5560SOL     OW22771   7.795   7.489   9.636  0.1802  0.4427  0.4499
 5560SOL    HW122772   7.735   7.481   9.562  1.3625 -3.0174 -0.2980
 5560SOL    HW222773   7.851   7.563   9.613  0.8722 -0.8542 -2.5088
 5561SOL     OW22774   2.760   8.462   0.178  0.4805  0.2329 -0.1989
 5561SOL    HW122775   2.673   8.458   0.137 -0.8403 -1.3286  2.4938
 5561SOL    HW222776   2.752   8.530   0.245  0.5932 -1.3025  1.4557
 5562SOL     OW22777   0.956   2.651   3.486  0.5096  0.2475  0.1758
 5562SOL    HW122778   1.043   2.638   3.449  1.0310  2.2372  0.6185
 5562SOL    HW222779   0.971   2.666   3.579 -0.4929 -1.1933  0.6028
 5563SOL     OW22780   7.851   2.267   2.382 -0.2837  0.6417  0.0669
 5563SOL    HW122781   7.819   2.211   2.452 -1.7866  1.2633 -0.0873
 5563SOL    HW222782   7.935   2.300   2.415  0.9321 -2.0622 -0.0808
 5564SOL     OW22783   0.816   7.311   9.625  0.1143 -0.1124 -0.2551
 5564SOL    HW122784   0.759   7.298   9.701  0.2784 -0.6819 -0.2251
 5564SOL    HW222785   0.898   7.268   9.649  0.7232  1.0703 -0.1206
 5565SOL     OW22786   8.463   2.444   9.955  0.0606 -0.6525  0.1442
 5565SOL    HW122787   8.534   2.481   9.903 -1.2304  1.8425  0.0423
 5565SOL    HW222788   8.446   2.358   9.915  0.9972 -0.0051 -1.7384
 5566SOL     OW22789  10.091   3.519   1.320 -0.1692  0.0209  0.4106
 5566SOL    HW122790  10.061   3.608   1.301 -0.0435  0.2303  1.1689
 5566SOL    HW222791  10.053   3.466   1.250  2.1375  1.0734 -1.7916
 5567SOL     OW22792   0.227   4.576   1.461  0.2679  0.1337 -0.5056
 5567SOL    HW122793   0.154   4.621   1.505  1.4013  0.3378  1.2527
 5567SOL    HW222794   0.304   4.601   1.511  1.3081 -1.5871 -1.1747
 5568SOL     OW22795   6.946   9.865   2.985 -0.2660 -0.4092  0.0729
 5568SOL    HW122796   6.907   9.880   2.899  1.2128 -0.0673 -0.5605
 5568SOL    HW222797   6.871   9.863   3.045 -1.1753  1.6479 -0.8882
 5569SOL     OW22798   6.618   1.782   3.257  0.1647  0.1155  0.0703
 5569SOL    HW122799   6.604   1.774   3.352  0.1571  2.0109  0.2611
 5569SOL    HW222800   6.700   1.830   3.249 -0.1638  0.5387 -0.8757
 5570SOL     OW22801  10.328   1.136   0.340  0.0745 -0.4091 -0.0068
 5570SOL    HW122802  10.282   1.098   0.266  0.9953 -0.9413 -0.3268
 5570SOL    HW222803  10.327   1.067   0.407 -0.6681  0.0318  0.4605
 5571SOL     OW22804   3.159  10.743   3.871  0.2018 -0.5400  0.2949
 5571SOL    HW122805   3.077  10.724   3.916  0.1452 -0.8598  0.0614
 5571SOL    HW222806   3.224  10.751   3.941 -0.3766  1.7897  0.6803
 5572SOL     OW22807   6.737   3.335   3.184  0.3784  0.3022  0.2223
 5572SOL    HW122808   6.705   3.267   3.243  0.3317  1.1015  1.1601
 5572SOL    HW222809   6.670   3.404   3.189  1.5814  1.4676  1.2492
 5573SOL     OW22810   9.196   1.704  10.548  0.1883  0.1925 -0.2812
 5573SOL    HW122811   9.243   1.636  10.596  2.8702  0.9241 -1.6777
 5573SOL    HW222812   9.189   1.670  10.459  0.1395  1.0904 -0.6264
 5574SOL     OW22813   4.816  10.628  10.417 -0.6392  0.2906  0.0853
 5574SOL    HW122814   4.875  10.609  10.344 -1.2456  2.2577 -0.9889
 5574SOL    HW222815   4.843  10.567  10.486  1.6609  0.1334 -0.8681
 5575SOL     OW22816   7.766  10.601   3.616 -0.0951 -0.1203  0.0571
 5575SOL    HW122817   7.828  10.552   3.670 -2.5025 -1.8006  1.4573
 5575SOL    HW222818   7.804  10.598   3.528  0.8255 -2.9217  0.4532
 5576SOL     OW22819   5.348   1.094   9.286 -0.5281 -0.1012 -0.3382
 5576SOL    HW122820   5.359   1.137   9.370  2.6590  1.9627 -1.6281
 5576SOL    HW222821   5.279   1.145   9.242 -0.6544  0.1987  0.2065
 5577SOL     OW22822   4.578   8.095   2.313 -0.0465  0.4260 -0.2235
 5577SOL    HW122823   4.532   8.148   2.378  1.4001  1.1333  0.2601
 5577SOL    HW222824   4.605   8.157   2.246 -1.9628 -0.3689 -1.8170
 5578SOL     OW22825   4.849   6.475   2.453  0.0572  0.3978  0.1766
 5578SOL    HW122826   4.830   6.479   2.546 -0.4205  0.3408  0.0829
 5578SOL    HW222827   4.859   6.566   2.426 -1.2355  0.5034 -0.0032
 5579SOL     OW22828   9.758   0.635   5.747  0.3109 -0.2537 -0.0118
 5579SOL    HW122829   9.787   0.718   5.787 -0.1953  0.3584 -0.9028
 5579SOL    HW222830   9.827   0.614   5.685  1.2944 -1.4104  1.3916
 5580SOL     OW22831   6.820   2.662   0.178 -0.3327 -0.3376  0.1258
 5580SOL    HW122832   6.816   2.569   0.201  1.4048 -0.4985 -0.0448
 5580SOL    HW222833   6.800   2.665   0.085 -0.9889 -0.4652  0.2615
 5581SOL     OW22834   5.202   4.531   3.681  0.4768 -0.2636  0.6405
 5581SOL    HW122835   5.179   4.570   3.765 -1.0121  1.2813 -0.3979
 5581SOL    HW222836   5.128   4.474   3.660 -0.3229  1.1439 -0.6121
 5582SOL     OW22837   6.294   7.154   1.474 -0.1856 -0.1137  0.0468
 5582SOL    HW122838   6.225   7.099   1.511 -0.3309 -0.6368 -0.9442
 5582SOL    HW222839   6.276   7.154   1.380  0.9887 -0.0088 -0.1963
 5583SOL     OW22840   2.733   5.488   4.840 -0.0426 -0.1462  0.1780
 5583SOL    HW122841   2.811   5.512   4.891  1.3906 -0.8831 -1.5848
 5583SOL    HW222842   2.713   5.567   4.790 -1.4007  0.5491  1.7353
 5584SOL     OW22843   8.797   2.019   1.168 -0.0891  0.4482 -0.3516
 5584SOL    HW122844   8.870   2.078   1.147  1.0565 -0.9470 -0.4806
 5584SOL    HW222845   8.835   1.955   1.229 -1.5197  0.3309  0.4728
 5585SOL     OW22846   0.085   7.163   1.290 -0.7179 -0.3342  0.0744
 5585SOL    HW122847   0.130   7.170   1.206  2.4256 -0.9824  1.5562
 5585SOL    HW222848   0.075   7.069   1.305 -0.6763 -0.2472  0.6926
 5586SOL     OW22849   3.861   2.230   7.732 -0.6400  0.4772 -0.2191
 5586SOL    HW122850   3.883   2.311   7.686 -0.6500  0.7111  0.1812
 5586SOL    HW222851   3.934   2.215   7.792 -1.6488  1.4101  1.3097
 5587SOL     OW22852   6.998   0.990   2.556 -0.0166 -0.6069  0.7592
 5587SOL    HW122853   6.998   1.061   2.492 -0.2281 -1.9530 -0.7946
 5587SOL    HW222854   7.080   1.001   2.604  3.0914 -2.6017 -3.4018
 5588SOL     OW22855   0.872   6.526   8.739  0.1293  0.3617 -0.7786
 5588SOL    HW122856   0.912   6.554   8.821 -0.6836  1.5627 -0.7796
 5588SOL    HW222857   0.883   6.600   8.680  1.4972 -0.8010 -2.0765
 5589SOL     OW22858   9.289   8.383   2.205 -0.2383  0.0876  0.1484
 5589SOL    HW122859   9.354   8.350   2.144  0.1819 -0.3348  0.8206
 5589SOL    HW222860   9.298   8.479   2.200 -2.2960  0.2775 -2.7167
 5590SOL     OW22861   3.914   3.521   6.649  0.1715 -0.5474 -0.3340
 5590SOL    HW122862   3.893   3.463   6.723  0.8279  1.3368  1.4172
 5590SOL    HW222863   3.984   3.577   6.682 -0.6286  1.4507 -1.8320
 5591SOL     OW22864   0.364   2.424   9.423  0.1299 -0.1152  0.3732
 5591SOL    HW122865   0.323   2.360   9.364  1.0284  0.2837 -0.7140
 5591SOL    HW222866   0.458   2.413   9.409  0.3188  2.6672 -1.2412
 5592SOL     OW22867   3.688   5.968   7.708  0.0776 -0.5568 -0.0349
 5592SOL    HW122868   3.754   5.997   7.772 -2.0275  4.3127  0.3963
 5592SOL    HW222869   3.695   6.032   7.637 -2.0440 -1.8640 -1.5259
 5593SOL     OW22870   6.409   7.423   8.337 -0.2718  0.3568  0.0843
 5593SOL    HW122871   6.363   7.399   8.256  0.8991  0.0427 -0.5238
 5593SOL    HW222872   6.498   7.391   8.323 -0.3945 -1.0283  2.1155
 5594SOL     OW22873   3.563   2.509   3.181  0.4343 -0.2897 -0.1836
 5594SOL    HW122874   3.480   2.546   3.210  0.3708  0.0134 -0.7313
 5594SOL    HW222875   3.614   2.497   3.261 -0.2447 -0.7487  0.1796
 5595SOL     OW22876  10.354   1.504   1.629 -0.0112 -0.5744 -0.2904
 5595SOL    HW122877  10.292   1.452   1.679  2.2865 -1.3157  2.0281
 5595SOL    HW222878  10.395   1.442   1.569  0.0242 -0.5927 -0.2479
 5596SOL     OW22879   7.615   3.280   3.792  0.0817  0.1996 -0.1413
 5596SOL    HW122880   7.648   3.353   3.844  0.0907  0.5145 -0.5892
 5596SOL    HW222881   7.679   3.210   3.807  0.4639  0.5134 -0.2772
 5597SOL     OW22882   1.530   9.931   0.071 -0.7345  0.1401  0.3836
 5597SOL    HW122883   1.590   9.991   0.116 -0.2171 -0.2211  0.1783
 5597SOL    HW222884   1.492   9.984   0.000 -0.5241  0.3183  0.4049
 5598SOL     OW22885   1.361   0.991   2.458 -0.2984  0.3247  0.2488
 5598SOL    HW122886   1.269   0.987   2.431 -0.0894 -0.3224 -0.3977
 5598SOL    HW222887   1.410   0.975   2.378  0.3397 -1.5386  0.9666
 5599SOL     OW22888   1.347   1.664   2.211  0.0667  0.2228 -0.0566
 5599SOL    HW122889   1.397   1.746   2.202 -0.2658  0.2862 -1.6094
 5599SOL    HW222890   1.410   1.595   2.191 -0.2587  0.2641 -1.3068
 5600SOL     OW22891   7.500   8.356   4.204 -0.2389  0.0412 -0.6126
 5600SOL    HW122892   7.477   8.376   4.113  0.3908 -2.7836 -1.5232
 5600SOL    HW222893   7.420   8.373   4.254 -0.4284  2.1870 -1.5356
 5601SOL     OW22894   8.469   7.039   0.701 -0.1119  0.2335 -0.1981
 5601SOL    HW122895   8.458   7.057   0.794  1.2603  0.5422 -0.0714
 5601SOL    HW222896   8.385   7.062   0.662 -0.5862  0.4513  0.9089
 5602SOL     OW22897   3.281   1.195   7.284  0.0065  0.5978 -0.2260
 5602SOL    HW122898   3.348   1.220   7.221  1.2835 -1.7805  0.0544
 5602SOL    HW222899   3.319   1.217   7.369  1.2962 -2.2573  0.0474
 5603SOL     OW22900   3.717  10.774   9.546 -0.5145 -0.5932 -0.0172
 5603SOL    HW122901   3.729  10.679   9.542  1.4023 -0.4576  1.1831
 5603SOL    HW222902   3.624  10.785   9.567 -0.8568 -2.1636 -0.5225
 5604SOL     OW22903   0.063   2.659   1.018  0.3090  0.4626 -0.0057
 5604SOL    HW122904   0.032   2.591   0.959  1.4551  0.9156 -1.1890
 5604SOL    HW222905   0.154   2.673   0.993  1.7275 -1.1096  3.5435
 5605SOL     OW22906   9.654   8.545   6.793 -0.5752 -0.1296  0.5166
 5605SOL    HW122907   9.669   8.570   6.702  0.0320 -1.1770  0.3119
 5605SOL    HW222908   9.732   8.576   6.839 -1.4633  1.5754  0.9481
 5606SOL     OW22909   9.124   2.511   5.141  0.1767 -0.5385  0.2969
 5606SOL    HW122910   9.173   2.565   5.079  0.5042 -1.0039  0.1549
 5606SOL    HW222911   9.068   2.574   5.187 -0.3241 -0.2327 -0.7004
 5607SOL     OW22912   7.036   7.938   6.422  0.3584 -0.4222 -0.0716
 5607SOL    HW122913   7.043   7.843   6.413 -0.1520 -0.4793  0.1155
 5607SOL    HW222914   7.126   7.970   6.410  0.1986 -0.7138 -2.4269
 5608SOL     OW22915   0.192   1.808   0.752  0.2071 -0.1190  0.1619
 5608SOL    HW122916   0.134   1.857   0.811  0.0467 -0.1956  0.0698
 5608SOL    HW222917   0.134   1.744   0.709  0.2311  0.2391 -0.4162
 5609SOL     OW22918   4.404   5.130   4.326  0.1398 -0.7282 -0.0336
 5609SOL    HW122919   4.344   5.169   4.262  0.8162  1.5767  0.6425
 5609SOL    HW222920   4.481   5.106   4.274  0.2292  0.0711 -0.2922
 5610SOL     OW22921   9.853   5.646   7.954  0.2053 -0.2832 -0.0320
 5610SOL    HW122922   9.905   5.723   7.976 -0.1957  0.7804 -2.4865
 5610SOL    HW222923   9.798   5.630   8.031  1.8918  0.4549  1.3929
 5611SOL     OW22924   4.603   3.880   8.752  0.1248 -0.1432  0.7736
 5611SOL    HW122925   4.575   3.794   8.723 -1.3703  0.9913 -1.4550
 5611SOL    HW222926   4.523   3.932   8.754  1.2028  1.6254  0.3739
 5612SOL     OW22927   7.731   0.590   9.925 -0.2832  0.3651 -0.0569
 5612SOL    HW122928   7.769   0.549   9.848 -0.2267 -1.3785  0.8380
 5612SOL    HW222929   7.797   0.653   9.954 -0.7310  1.7991 -1.9511
 5613SOL     OW22930   6.863   2.516   9.879  0.2668 -0.6736 -0.0139
 5613SOL    HW122931   6.838   2.596   9.926 -2.0226  1.1570 -3.8364
 5613SOL    HW222932   6.785   2.461   9.880  0.0901 -0.5086 -1.6608
 5614SOL     OW22933  10.309   8.815   9.078 -0.0047  0.3429  0.1421
 5614SOL    HW122934  10.342   8.727   9.093  0.1953  0.4090  0.0893
 5614SOL    HW222935  10.315   8.827   8.984  1.2962  0.9319  0.2784
 5615SOL     OW22936   9.060   2.148   1.740  0.6557  0.0636 -0.6662
 5615SOL    HW122937   9.097   2.061   1.721 -0.3043 -0.5844  0.2909
 5615SOL    HW222938   9.050   2.149   1.835  0.8150  1.3044 -0.6487
 5616SOL     OW22939   4.116   9.747   4.297  0.1487  0.1833  0.1749
 5616SOL    HW122940   4.089   9.839   4.304 -2.1979 -0.3504 -1.0178
 5616SOL    HW222941   4.074   9.715   4.217  2.7141 -1.3953 -0.6855
 5617SOL     OW22942   8.039   5.945   1.160 -0.6675  0.1293 -0.4014
 5617SOL    HW122943   8.052   6.039   1.150 -2.3914  0.4028 -0.3914
 5617SOL    HW222944   8.025   5.933   1.254  0.0647 -0.2228 -0.3310
 5618SOL     OW22945   2.179   4.789   2.387  0.0422  0.0941  0.7105
 5618SOL    HW122946   2.229   4.775   2.306 -0.0928 -1.9770  0.9356
 5618SOL    HW222947   2.144   4.703   2.409 -1.0031  0.8738  2.2953
 5619SOL     OW22948   3.167  10.258   3.077  0.5138 -0.7869 -0.5255
 5619SOL    HW122949   3.252  10.215   3.084  1.6964  1.4944  0.0242
 5619SOL    HW222950   3.142  10.276   3.168 -0.8911 -1.9996 -0.6438
 5620SOL     OW22951   7.824   1.678   8.743 -0.5222  0.3999  0.0698
 5620SOL    HW122952   7.876   1.610   8.702  1.1027  2.6754 -1.9090
 5620SOL    HW222953   7.812   1.648   8.833  0.7259 -2.1009 -0.5127
 5621SOL     OW22954   3.525   8.345   0.545  0.2515  0.5244  0.2664
 5621SOL    HW122955   3.522   8.303   0.459 -0.6882 -0.1339  0.6012
 5621SOL    HW222956   3.600   8.305   0.589  0.7115  0.8344 -0.2216
 5622SOL     OW22957   0.620  10.741   1.888  0.3126 -0.1601 -0.1912
 5622SOL    HW122958   0.663  10.688   1.955 -0.9037  0.6101  1.2618
 5622SOL    HW222959   0.539  10.771   1.930 -0.6288  0.1148 -2.1192
 5623SOL     OW22960   4.864   9.397   3.994  0.5110  0.2048 -0.4958
 5623SOL    HW122961   4.830   9.457   3.928 -1.4287  0.0001  0.2604
 5623SOL    HW222962   4.869   9.449   4.074  0.5259 -0.1685 -0.2488
 5624SOL     OW22963   1.051   8.867   5.107 -0.1879 -0.3365  0.1031
 5624SOL    HW122964   0.979   8.927   5.088  0.3335 -0.3163 -2.0157
 5624SOL    HW222965   1.130   8.913   5.076  0.8464 -0.2041  2.6844
 5625SOL     OW22966   5.102   0.399   3.544  0.0113  0.2013  0.4047
 5625SOL    HW122967   5.184   0.376   3.589  0.8170  1.0968 -0.5530
 5625SOL    HW222968   5.065   0.315   3.516  1.0618 -0.1631  0.0718
 5626SOL     OW22969   1.320   5.541   6.802 -0.6510 -0.4537 -0.1442
 5626SOL    HW122970   1.338   5.590   6.882 -0.0395 -0.5867 -0.1963
 5626SOL    HW222971   1.372   5.584   6.734 -0.5594 -0.8150 -0.3095
 5627SOL     OW22972   6.602   2.994   5.450 -0.0305  0.1520  0.1110
 5627SOL    HW122973   6.536   2.989   5.381 -1.3098  1.9563  1.1226
 5627SOL    HW222974   6.572   2.933   5.517  0.3771 -0.4435 -0.2399
 5628SOL     OW22975   6.118   2.628  10.635  0.2921  0.4388  0.1445
 5628SOL    HW122976   6.043   2.621  10.576 -1.7256  2.2058  2.3075
 5628SOL    HW222977   6.114   2.548  10.688 -0.1203  0.5638  0.3055
 5629SOL     OW22978  10.025  10.446   2.854  0.1684  0.1091  1.0920
 5629SOL    HW122979   9.939  10.481   2.877 -0.2871 -0.1237 -0.1434
 5629SOL    HW222980  10.032  10.365   2.904 -0.1144  0.3871  1.5901
 5630SOL     OW22981   5.440   6.524   2.903 -0.7509  0.1600 -0.0881
 5630SOL    HW122982   5.461   6.432   2.888 -0.7911  0.0721  0.3780
 5630SOL    HW222983   5.495   6.571   2.840 -0.7537 -0.1812 -0.3511
 5631SOL     OW22984   5.975   0.148   1.694 -0.3112  0.0376  0.1574
 5631SOL    HW122985   5.997   0.240   1.681  1.3731 -0.4858 -1.0706
 5631SOL    HW222986   6.026   0.102   1.627 -1.2405 -1.7728  0.6465
 5632SOL     OW22987   4.928   9.496   7.886  0.0941 -0.0957  0.5954
 5632SOL    HW122988   4.996   9.491   7.819  0.0966  1.5001  0.4340
 5632SOL    HW222989   4.966   9.453   7.963  0.5626 -0.8499 -0.0415
 5633SOL     OW22990   8.077   2.671   1.471  0.1573 -0.0243 -0.4139
 5633SOL    HW122991   7.996   2.711   1.440 -0.6713  0.0727  1.7220
 5633SOL    HW222992   8.063   2.577   1.460  0.2868  0.0422 -1.2181
 5634SOL     OW22993   2.506   1.377   1.349 -0.0378 -0.2015 -0.1488
 5634SOL    HW122994   2.588   1.426   1.347 -0.6055  0.7672 -1.4073
 5634SOL    HW222995   2.446   1.432   1.400 -0.1091 -0.5757  0.1776
 5635SOL     OW22996   3.159   1.374   4.469  0.4280 -0.0242  0.0341
 5635SOL    HW122997   3.150   1.409   4.558  0.6626  0.4999 -0.1473
 5635SOL    HW222998   3.129   1.444   4.412  2.6126  0.6078 -0.4280
 5636SOL     OW22999   0.689   1.768   1.081 -0.2756 -0.3193  0.0454
 5636SOL    HW123000   0.711   1.840   1.141 -0.4391 -1.6816  1.8167
 5636SOL    HW223001   0.754   1.775   1.011  3.5369 -1.8221  3.0702
 5637SOL     OW23002   5.273   7.835   4.493  0.1593  0.0492 -0.4677
 5637SOL    HW123003   5.278   7.865   4.402  0.5120  1.0943 -0.1179
 5637SOL    HW223004   5.183   7.802   4.503  0.2247 -0.3964 -1.2826
 5638SOL     OW23005   5.893   1.704   6.838  0.0040  0.0174  0.3499
 5638SOL    HW123006   5.850   1.771   6.891 -1.3897 -0.2852 -0.3578
 5638SOL    HW223007   5.924   1.639   6.902 -1.1083 -0.0399  0.8632
 5639SOL     OW23008   3.577   8.950   6.835  0.1899 -0.3272 -0.6192
 5639SOL    HW123009   3.656   8.971   6.883  1.2386 -1.5472 -1.7486
 5639SOL    HW223010   3.589   8.860   6.805 -0.8506  0.0302 -2.2724
 5640SOL     OW23011   4.314   3.137   2.883  0.5741 -0.5497 -0.1440
 5640SOL    HW123012   4.382   3.148   2.950  1.3951  0.4980 -1.0914
 5640SOL    HW223013   4.361   3.099   2.809  0.0174 -0.3040 -0.6259
 5641SOL     OW23014   4.104   0.885   4.244  0.2471  0.1834  0.0454
 5641SOL    HW123015   4.148   0.803   4.220 -0.4131 -0.1548 -0.0303
 5641SOL    HW223016   4.121   0.895   4.337 -1.4734 -1.1937  0.5678
 5642SOL     OW23017   8.683  10.547   8.364 -0.2451 -0.1919  0.2213
 5642SOL    HW123018   8.773  10.572   8.345 -0.4900 -0.8369 -2.1595
 5642SOL    HW223019   8.630  10.611   8.316 -0.9046 -2.6819 -2.7220
 5643SOL     OW23020   1.005   6.942   0.484  0.2549 -0.1792 -0.1113
 5643SOL    HW123021   1.084   6.992   0.502  0.9149 -1.9182  2.4098
 5643SOL    HW223022   0.938   7.007   0.465  1.7296  1.4484  0.0970
 5644SOL     OW23023   0.130   5.626   6.586 -0.0524  0.1088 -0.1076
 5644SOL    HW123024   0.147   5.554   6.647 -0.5653  0.2880  0.2525
 5644SOL    HW223025   0.105   5.700   6.642 -1.3630  0.0429 -0.5778
 5645SOL     OW23026   7.262  10.909   9.560  0.3504  0.1535  0.3015
 5645SOL    HW123027   7.250  10.845   9.490  1.7552  0.5736 -0.3601
 5645SOL    HW223028   7.175  10.948   9.572 -1.0712 -3.1549  2.0903
 5646SOL     OW23029   9.054   8.231   3.851 -0.2632 -0.3600  0.3297
 5646SOL    HW123030   8.995   8.171   3.897 -1.8015  0.3890 -0.5856
 5646SOL    HW223031   8.999   8.271   3.783  0.6758  2.1367  0.9510
 5647SOL     OW23032   9.608   2.084  10.482  0.6953  0.2921 -0.4088
 5647SOL    HW123033   9.655   2.168  10.479  1.7697 -0.2654 -0.0100
 5647SOL    HW223034   9.601   2.064  10.575 -0.5513  0.4563 -0.4529
 5648SOL     OW23035   1.704   5.466   6.822 -0.2489 -0.1498 -0.3098
 5648SOL    HW123036   1.710   5.455   6.727  0.0286 -0.9750 -0.2043
 5648SOL    HW223037   1.713   5.560   6.836 -0.1162 -0.0413 -1.0929
 5649SOL     OW23038   5.532   7.529   2.721 -0.3829 -0.1838 -0.4903
 5649SOL    HW123039   5.569   7.451   2.761 -1.5460 -0.5332 -0.0439
 5649SOL    HW223040   5.603   7.567   2.670  0.5043 -0.9358  0.1608
 5650SOL     OW23041   9.770  10.460   9.332 -0.3111 -0.0505  1.0543
 5650SOL    HW123042   9.734  10.457   9.243  1.4995 -1.0753  0.3073
 5650SOL    HW223043   9.788  10.553   9.348  1.1633 -0.0366 -0.4511
 5651SOL     OW23044   5.252   9.070   1.309 -0.6817 -0.0887 -0.1031
 5651SOL    HW123045   5.286   8.982   1.294  1.6512  0.7025  0.2332
 5651SOL    HW223046   5.325   9.119   1.346 -2.2526  1.7130  0.8078
 5652SOL     OW23047   9.268   9.978   1.162  0.3465 -0.2754 -0.0265
 5652SOL    HW123048   9.273   9.993   1.256  2.4159  1.1906 -0.2793
 5652SOL    HW223049   9.207   9.905   1.152 -0.3169 -0.1441  2.3875
 5653SOL     OW23050   6.042   5.893   1.487  0.2546 -0.3516 -0.3143
 5653SOL    HW123051   5.960   5.850   1.513  0.6540 -1.0394 -0.1815
 5653SOL    HW223052   6.022   5.987   1.493 -0.3885 -0.5074  0.1433
 5654SOL     OW23053   8.251  10.369   0.235 -0.1517  0.0747  0.2308
 5654SOL    HW123054   8.254  10.280   0.269  0.2182 -0.0014  0.0141
 5654SOL    HW223055   8.170  10.406   0.270 -0.5213 -0.4827 -0.0175
 5655SOL     OW23056   7.343  10.901   1.812  0.4447  0.0167  0.3331
 5655SOL    HW123057   7.342  10.839   1.885  0.7882 -0.2476  0.1156
 5655SOL    HW223058   7.281  10.865   1.749  0.4705  0.0173  0.3076
 5656SOL     OW23059   5.721   1.839   5.527  0.3141 -0.4816 -0.1723
 5656SOL    HW123060   5.750   1.754   5.494 -1.3485 -0.4434 -1.9133
 5656SOL    HW223061   5.747   1.901   5.458 -1.5575 -0.1223 -0.6069
 5657SOL     OW23062   4.525   9.908   7.567  0.4239 -0.0971  0.0300
 5657SOL    HW123063   4.439   9.909   7.525  0.8688  0.0778 -0.9172
 5657SOL    HW223064   4.564   9.992   7.543  0.4423  0.3090  1.3766
 5658SOL     OW23065   2.903  10.081   0.702  0.5561 -0.0581  0.5924
 5658SOL    HW123066   2.876  10.153   0.758  1.7054 -0.4579  1.7410
 5658SOL    HW223067   2.891  10.003   0.756  0.9092 -0.5507 -0.0219
 5659SOL     OW23068   8.588   7.395  10.434 -0.0788 -0.5257 -0.0384
 5659SOL    HW123069   8.676   7.359  10.422 -0.0608 -0.7593  0.7502
 5659SOL    HW223070   8.587   7.426  10.525 -0.8716 -0.6983  0.0176
 5660SOL     OW23071   3.696   4.883   4.919 -0.1467  0.0450 -0.1362
 5660SOL    HW123072   3.721   4.809   4.974 -0.2076  0.8199  0.9646
 5660SOL    HW223073   3.602   4.890   4.930 -0.1333  0.3190 -0.1946
 5661SOL     OW23074   5.761  10.332   8.726 -0.0466 -0.5103 -0.0554
 5661SOL    HW123075   5.722  10.244   8.723  2.6171 -1.8399  0.7669
 5661SOL    HW223076   5.852  10.318   8.698 -0.0769  2.4037 -2.0345
 5662SOL     OW23077   4.871   8.967   6.885  0.3847 -0.1978 -0.0934
 5662SOL    HW123078   4.777   8.984   6.897  0.1894 -1.1423 -0.2414
 5662SOL    HW223079   4.892   9.007   6.801  0.0390 -0.2639 -0.2117
 5663SOL     OW23080   1.093  10.581   3.672  0.1230 -0.2623 -0.5972
 5663SOL    HW123081   1.163  10.624   3.721 -0.3098  0.8671 -0.9289
 5663SOL    HW223082   1.032  10.551   3.739 -0.4891  1.3112 -0.4074
 5664SOL     OW23083   4.418   3.157   7.331 -0.0129  0.1290 -0.0659
 5664SOL    HW123084   4.438   3.229   7.392 -0.3062  0.1906 -0.0398
 5664SOL    HW223085   4.489   3.095   7.343  0.8664  0.9240 -0.8962
 5665SOL     OW23086   2.549   5.234   5.986  0.1499 -0.2547 -0.2111
 5665SOL    HW123087   2.638   5.258   5.962  0.3659  0.0358  0.8151
 5665SOL    HW223088   2.506   5.317   6.006  0.5067 -0.5471  2.0552
 5666SOL     OW23089   1.202   4.120   4.490 -0.2143  0.0971 -0.3578
 5666SOL    HW123090   1.204   4.131   4.395 -0.5554 -3.5543 -0.9260
 5666SOL    HW223091   1.290   4.143   4.519  0.0095  0.8906 -1.5884
 5667SOL     OW23092   1.734   9.596   6.213 -0.7396 -0.2069  0.2862
 5667SOL    HW123093   1.699   9.674   6.257  0.2677  0.5337 -0.1842
 5667SOL    HW223094   1.699   9.523   6.263  1.7418  0.5724  3.4821
 5668SOL     OW23095   1.854   7.578   9.948  0.0687 -0.0008 -0.3457
 5668SOL    HW123096   1.874   7.654  10.002 -2.1306  0.7181 -0.4264
 5668SOL    HW223097   1.928   7.519   9.960  0.1209  0.5408  2.6866
 5669SOL     OW23098   1.610   6.481   6.534 -0.0401 -0.3460 -0.6642
 5669SOL    HW123099   1.604   6.527   6.618 -1.1252 -1.4293 -0.1112
 5669SOL    HW223100   1.519   6.461   6.511  0.2370  0.0288 -2.1690
 5670SOL     OW23101   1.976   8.811  10.668 -0.3301  0.6726 -0.0459
 5670SOL    HW123102   2.035   8.740  10.693 -0.9558 -0.6714 -2.1706
 5670SOL    HW223103   2.027   8.866  10.609 -0.9933 -0.2698 -1.5670
 5671SOL     OW23104   6.361   1.690   9.238  0.5828  1.1083 -0.1275
 5671SOL    HW123105   6.333   1.605   9.273  0.2298  0.8786 -0.9500
 5671SOL    HW223106   6.406   1.732   9.311  0.2508  0.4535  0.4645
 5672SOL     OW23107   4.935  10.907   7.135  0.0818 -0.1974  0.4321
 5672SOL    HW123108   4.981  10.876   7.213  0.5265  0.4216  0.4240
 5672SOL    HW223109   4.950  11.001   7.134  0.9807 -0.3227 -0.9740
 5673SOL     OW23110   4.194   7.079   2.714 -0.0779 -0.0636 -0.1931
 5673SOL    HW123111   4.162   7.026   2.642 -0.4991  0.2732 -0.2577
 5673SOL    HW223112   4.170   7.169   2.691 -1.3177 -0.0720  0.9352
 5674SOL     OW23113   7.185   6.166   0.620 -0.0018 -0.0883 -0.0752
 5674SOL    HW123114   7.183   6.136   0.711  1.4940  0.0672  0.0369
 5674SOL    HW223115   7.272   6.142   0.589 -0.3838  0.1344 -1.3892
 5675SOL     OW23116   1.061   1.208   6.660  0.2820 -0.3287  0.2359
 5675SOL    HW123117   1.074   1.267   6.735 -0.3329 -2.4903  2.1632
 5675SOL    HW223118   0.967   1.206   6.647  0.2978 -0.9109  0.2074
 5676SOL     OW23119   5.384   5.467   7.887 -0.0733  0.0036  0.2622
 5676SOL    HW123120   5.399   5.443   7.795  0.0689  2.2317 -0.3497
 5676SOL    HW223121   5.290   5.455   7.900 -0.2678  0.6686 -0.4903
 5677SOL     OW23122   0.245   7.629   4.550  0.4646 -0.5684 -0.0129
 5677SOL    HW123123   0.150   7.636   4.558  0.3878  1.4781 -1.8768
 5677SOL    HW223124   0.260   7.547   4.504 -0.2312 -1.8115  1.8643
 5678SOL     OW23125   2.316   2.174   3.804 -0.2166 -0.1674 -0.3880
 5678SOL    HW123126   2.397   2.162   3.854  0.4269 -1.5135 -1.6590
 5678SOL    HW223127   2.346   2.203   3.717 -1.1468  0.0116 -0.6607
 5679SOL     OW23128   6.557   7.355   6.501 -0.4188 -0.2180 -0.3261
 5679SOL    HW123129   6.650   7.370   6.519 -0.3268  3.5727 -2.7563
 5679SOL    HW223130   6.512   7.425   6.547 -1.9606 -1.0542 -0.4920
 5680SOL     OW23131   4.835   2.256   0.143 -0.4252 -0.2733  0.1406
 5680SOL    HW123132   4.830   2.300   0.228  0.9153  0.9016 -0.3681
 5680SOL    HW223133   4.900   2.305   0.093  0.9976 -2.6701 -0.5521
 5681SOL     OW23134   6.630   1.902   9.024  0.3610 -0.2370  0.4701
 5681SOL    HW123135   6.538   1.902   8.996  0.8320  1.8092 -1.2996
 5681SOL    HW223136   6.661   1.814   9.006 -0.5980 -0.2430 -1.2925
 5682SOL     OW23137  10.805  10.390   9.630 -0.3813 -0.1569 -0.2513
 5682SOL    HW123138  10.854  10.461   9.673  0.1065 -0.7396  0.1683
 5682SOL    HW223139  10.785  10.425   9.543 -0.0014  0.4359 -0.1104
 5683SOL     OW23140   6.365   7.208   3.539  0.2640 -0.0151  0.2439
 5683SOL    HW123141   6.405   7.222   3.625  1.3253  0.2082 -0.2663
 5683SOL    HW223142   6.434   7.231   3.476 -0.4360 -0.3334 -0.6690
 5684SOL     OW23143   8.093   9.582   1.276 -0.1495  0.0011  0.7983
 5684SOL    HW123144   8.098   9.676   1.294 -0.2775 -0.1803  1.8363
 5684SOL    HW223145   8.182   9.550   1.292 -0.4988 -0.3368  2.2168
 5685SOL     OW23146   8.684  10.586  10.666 -0.3079 -0.1998 -0.0920
 5685SOL    HW123147   8.630  10.664  10.653 -1.3560 -0.7312  0.9149
 5685SOL    HW223148   8.644  10.540  10.740  0.3537 -1.6388 -0.5742
 5686SOL     OW23149   8.145   7.617   4.594  0.5227  0.0660  0.0890
 5686SOL    HW123150   8.138   7.522   4.587 -1.8606  0.0883  1.0032
 5686SOL    HW223151   8.169   7.632   4.685 -0.5345  0.3344  0.3382
 5687SOL     OW23152   0.503   2.846   7.994 -0.6103 -0.3093  0.3203
 5687SOL    HW123153   0.495   2.795   7.913 -1.5748  0.1896  0.0971
 5687SOL    HW223154   0.422   2.896   8.000  0.3227  1.2645  0.4970
 5688SOL     OW23155   8.560   9.240   6.271 -0.1775 -0.3069  0.0729
 5688SOL    HW123156   8.605   9.243   6.355 -1.2458 -0.9415  0.7020
 5688SOL    HW223157   8.554   9.147   6.250  1.2577 -0.1128 -1.3979
 5689SOL     OW23158  10.536   5.344   8.938  0.4472  0.1965 -0.4658
 5689SOL    HW123159  10.458   5.293   8.918 -0.1910  1.4341 -1.2936
 5689SOL    HW223160  10.609   5.286   8.920 -0.2606 -0.5542 -0.9691
 5690SOL     OW23161   9.766   1.670   8.685 -0.3937 -0.3959 -0.0923
 5690SOL    HW123162   9.782   1.626   8.769 -1.5406 -1.9613 -0.6413
 5690SOL    HW223163   9.732   1.756   8.709  1.2689  0.0013  1.0225
 5691SOL     OW23164   4.517   5.553   2.068 -0.1608 -0.3542 -0.7503
 5691SOL    HW123165   4.468   5.522   1.993 -1.0905  1.4212 -0.9295
 5691SOL    HW223166   4.451   5.572   2.135  0.4753 -0.0676 -0.1799
 5692SOL     OW23167  10.616   1.853  10.862  0.2536  0.0078 -0.0077
 5692SOL    HW123168  10.575   1.826  10.780  0.6068 -0.0022 -0.1867
 5692SOL    HW223169  10.701   1.809  10.861 -0.2522 -1.0516  0.9851
 5693SOL     OW23170  10.448   4.448   0.275 -0.2886 -0.0686 -0.2915
 5693SOL    HW123171  10.490   4.519   0.226 -1.4144  0.8103 -0.0335
 5693SOL    HW223172  10.410   4.391   0.207  0.2130 -0.1671 -0.4905
 5694SOL     OW23173   0.310   0.485   8.799 -0.6569  0.1268  0.6623
 5694SOL    HW123174   0.328   0.552   8.865 -0.6314  1.0733 -0.2718
 5694SOL    HW223175   0.322   0.530   8.715 -1.4208 -0.8428  0.0067
 5695SOL     OW23176   7.772   6.636   3.958 -0.1101 -0.2949  0.4523
 5695SOL    HW123177   7.706   6.705   3.947  1.2655  1.2328  1.3324
 5695SOL    HW223178   7.816   6.632   3.874  0.0058  0.1454  0.4869
 5696SOL     OW23179   8.856   2.616   1.019  0.1740 -0.8525  0.2601
 5696SOL    HW123180   8.860   2.681   1.090 -1.6599  0.2699 -0.5682
 5696SOL    HW223181   8.939   2.625   0.973  0.6759 -0.3734  1.2248
 5697SOL     OW23182   8.742  10.550   5.624  0.1574  0.1765  0.5264
 5697SOL    HW123183   8.831  10.569   5.595  0.5399 -1.0715  0.8044
 5697SOL    HW223184   8.696  10.521   5.545  0.2384  0.0331  0.5313
 5698SOL     OW23185   7.255   6.013   6.806 -0.2048  0.2895 -0.7808
 5698SOL    HW123186   7.217   6.091   6.846 -0.7598 -0.0928 -0.5463
 5698SOL    HW223187   7.286   5.961   6.880  1.8034  1.0841 -1.0075
 5699SOL     OW23188  10.584   1.307   9.886  0.4246 -0.5257 -0.7214
 5699SOL    HW123189  10.608   1.285   9.796  0.9288  0.5936 -0.8784
 5699SOL    HW223190  10.582   1.402   9.888  2.6864 -0.4292  1.0256
 5700SOL     OW23191   8.877   9.656  10.194 -0.6401  0.3187  0.6476
 5700SOL    HW123192   8.922   9.706  10.262  1.1700  1.0988 -1.0217
 5700SOL    HW223193   8.883   9.711  10.116 -2.2423 -0.7479 -0.2710
 5701SOL     OW23194   0.162   3.218   6.763  0.8174 -0.3299  0.1697
 5701SOL    HW123195   0.172   3.124   6.774  0.9080 -0.2589  0.7403
 5701SOL    HW223196   0.091   3.228   6.699  0.9711 -0.7846 -0.0703
 5702SOL     OW23197   8.187   0.296   9.868  0.3179 -0.1096  0.2949
 5702SOL    HW123198   8.249   0.267   9.802  1.2937  0.0044  1.1260
 5702SOL    HW223199   8.232   0.280   9.951 -0.9179 -0.3638  0.9393
 5703SOL     OW23200   1.927   5.704   5.543  0.2559 -0.1459  0.3067
 5703SOL    HW123201   2.009   5.726   5.587  0.7910  0.3748 -0.9243
 5703SOL    HW223202   1.872   5.668   5.613  1.2742  0.1411  1.2892
 5704SOL     OW23203   5.678   8.758  10.815 -0.0453  0.2873 -0.3286
 5704SOL    HW123204   5.697   8.781  10.906 -0.3623 -1.0405  0.0986
 5704SOL    HW223205   5.723   8.675  10.801  1.3224  1.2213 -1.8997
 5705SOL     OW23206   4.582   8.301   1.745 -0.3545  0.4663 -0.5869
 5705SOL    HW123207   4.496   8.288   1.703 -1.4187  2.0720  0.9437
 5705SOL    HW223208   4.566   8.369   1.811  2.0656  0.6208 -0.0828
 5706SOL     OW23209   6.457   2.548   5.287 -0.4117  0.1060  0.3747
 5706SOL    HW123210   6.374   2.512   5.254 -0.1053 -0.3460  0.0924
 5706SOL    HW223211   6.510   2.471   5.307  0.2686  0.4052 -0.2706
 5707SOL     OW23212   2.095   9.310  10.875 -0.7107 -0.1523 -0.6411
 5707SOL    HW123213   2.049   9.258  10.940 -0.5793  2.3522  1.6282
 5707SOL    HW223214   2.030   9.375  10.846 -0.8812 -1.3815 -3.3950
 5708SOL     OW23215   5.357   8.243   7.894  0.3766  0.4015  0.7029
 5708SOL    HW123216   5.420   8.301   7.849  0.3789 -0.2773 -0.2027
 5708SOL    HW223217   5.276   8.294   7.897  0.6164  0.7880  0.6988
 5709SOL     OW23218  10.114   5.531   6.560  0.4083 -0.1543 -0.0390
 5709SOL    HW123219  10.109   5.625   6.581  0.8518 -0.1191 -0.0740
 5709SOL    HW223220  10.031   5.512   6.516  0.4502  0.3003 -0.3250
 5710SOL     OW23221   3.616   5.713   1.016 -0.2807 -0.2211 -0.0842
 5710SOL    HW123222   3.609   5.802   1.052 -0.4996 -0.5959  0.8140
 5710SOL    HW223223   3.648   5.726   0.926 -0.8907  0.8033 -0.1704
 5711SOL     OW23224   3.643   8.605   5.167 -0.1760  0.5143  0.2695
 5711SOL    HW123225   3.666   8.617   5.075 -1.1915  0.9454  0.0611
 5711SOL    HW223226   3.671   8.515   5.187  0.1062  0.4380 -0.4324
 5712SOL     OW23227   1.256   8.069   6.177 -0.3105 -0.4702  0.1031
 5712SOL    HW123228   1.351   8.062   6.182 -0.2056  0.6417  0.0762
 5712SOL    HW223229   1.236   8.052   6.085 -0.0773 -0.2446  0.0072
 5713SOL     OW23230  10.858   9.659  10.096 -0.6134  0.2778 -0.1266
 5713SOL    HW123231  10.788   9.652  10.031 -0.8581 -1.1903  0.2679
 5713SOL    HW223232  10.823   9.618  10.174  0.1501  0.8792  0.5539
 5714SOL     OW23233   8.348   0.256   0.657 -0.2825 -0.2343 -0.9368
 5714SOL    HW123234   8.360   0.278   0.749  0.0218  0.5576 -1.1553
 5714SOL    HW223235   8.258   0.224   0.651 -0.9481  1.4729 -0.6745
 5715SOL     OW23236   0.633   7.952   2.291 -0.2420  0.3644 -0.6290
 5715SOL    HW123237   0.548   7.942   2.249  0.0322  1.1919 -1.4071
 5715SOL    HW223238   0.654   8.045   2.282 -0.0572  0.5325  1.1456
 5716SOL     OW23239   7.687   9.969   3.885  0.1925  0.1035  0.1261
 5716SOL    HW123240   7.721   9.890   3.927 -0.4751  0.1302  0.7268
 5716SOL    HW223241   7.669  10.029   3.958 -0.1833  0.4624 -0.2607
 5717SOL     OW23242   2.553   6.899   7.026 -0.0639  0.0329 -0.3581
 5717SOL    HW123243   2.489   6.858   6.968 -0.6050  1.7807 -1.0506
 5717SOL    HW223244   2.501   6.936   7.097  0.3673 -0.1390  0.0490
 5718SOL     OW23245   9.383   6.015  10.750 -0.6157  0.3212  0.2600
 5718SOL    HW123246   9.382   6.012  10.655 -2.2119  0.0016  0.2719
 5718SOL    HW223247   9.474   5.992  10.773 -0.1344  0.6779 -1.1637
 5719SOL     OW23248   3.195   5.669   1.938  0.4055 -0.5569 -0.4553
 5719SOL    HW123249   3.132   5.627   1.880  0.5613  0.8715 -1.7140
 5719SOL    HW223250   3.266   5.605   1.948 -0.6933 -1.7302  0.0818
 5720SOL     OW23251   9.303   6.220   9.532 -0.5481  0.0551 -0.3846
 5720SOL    HW123252   9.341   6.216   9.620 -1.7775  0.5566  0.1878
 5720SOL    HW223253   9.246   6.296   9.534 -0.5284  0.1239 -1.6595
 5721SOL     OW23254   1.403   1.868   4.697 -0.0602  0.0852 -0.2727
 5721SOL    HW123255   1.478   1.927   4.685  1.3786 -1.7574 -0.7315
 5721SOL    HW223256   1.370   1.890   4.784  1.7114  0.1994  0.4258
 5722SOL     OW23257   1.764   2.259   0.624  0.6543 -0.5729  0.3721
 5722SOL    HW123258   1.844   2.282   0.671  0.6956 -0.5129  0.2706
 5722SOL    HW223259   1.738   2.175   0.661  0.5471 -0.4033  0.6878
 5723SOL     OW23260   2.811   2.866   6.159 -0.2525 -0.0910  0.8239
 5723SOL    HW123261   2.815   2.891   6.251  0.1489 -1.0108  1.0648
 5723SOL    HW223262   2.717   2.863   6.140 -0.3281  1.5617  0.7721
 5724SOL     OW23263   5.318   6.307   9.902 -0.5303 -0.7809 -0.6460
 5724SOL    HW123264   5.306   6.394   9.940  1.7625 -0.4560 -0.5498
 5724SOL    HW223265   5.231   6.284   9.868 -1.6141  0.7739  0.8776
 5725SOL     OW23266   7.692   0.935   5.743 -0.3532  0.0448 -0.5871
 5725SOL    HW123267   7.755   0.983   5.688 -1.0310  0.4969 -0.9806
 5725SOL    HW223268   7.730   0.939   5.831 -1.0139  2.4805 -0.3335
 5726SOL     OW23269   0.745   7.370   1.382 -0.0554  0.3759 -0.4157
 5726SOL    HW123270   0.716   7.449   1.427  0.1260  0.6198 -0.7216
 5726SOL    HW223271   0.780   7.314   1.451  2.4750  1.7365 -0.4944
 5727SOL     OW23272   3.637  10.206   3.835 -0.1139  0.1940  0.3622
 5727SOL    HW123273   3.554  10.188   3.880  0.4684 -0.4771  1.2114
 5727SOL    HW223274   3.649  10.300   3.845 -0.2231  0.1253  1.2302
 5728SOL     OW23275   3.555   4.007   5.838 -0.3351  0.1713  0.0742
 5728SOL    HW123276   3.571   4.099   5.861  0.7070 -0.4156  1.8824
 5728SOL    HW223277   3.517   3.969   5.917 -1.6934 -0.7464 -0.9857
 5729SOL     OW23278   1.745   8.179   9.494  0.4824 -0.2417  0.2351
 5729SOL    HW123279   1.740   8.274   9.493 -0.7331 -0.2937  0.3010
 5729SOL    HW223280   1.692   8.151   9.419  2.8418 -0.8252 -1.3539
 5730SOL     OW23281   3.827   4.321   7.905  0.4473 -0.4915  0.8121
 5730SOL    HW123282   3.913   4.311   7.863  0.3223  0.3833  0.3352
 5730SOL    HW223283   3.846   4.367   7.986  0.2094  1.6894 -0.2998
 5731SOL     OW23284   1.816   4.339  10.442  0.3929  0.5939  0.5615
 5731SOL    HW123285   1.720   4.344  10.444  0.3604 -0.0498  1.1071
 5731SOL    HW223286   1.842   4.400  10.373 -0.5578 -1.0530 -1.3495
 5732SOL     OW23287  10.326   4.507   8.282  0.4136  0.5386  0.4446
 5732SOL    HW123288  10.384   4.579   8.259 -0.5320  1.2446  0.2039
 5732SOL    HW223289  10.376   4.453   8.343  2.0368  0.0467 -1.2367
 5733SOL     OW23290   0.948   8.920   2.158 -0.1003  0.1046 -0.8273
 5733SOL    HW123291   1.013   8.936   2.089 -2.3366  2.7207 -2.5508
 5733SOL    HW223292   0.904   8.839   2.131  2.5907 -2.0312  0.6610
 5734SOL     OW23293   1.196   0.886   3.875  0.4998 -0.1967  0.6097
 5734SOL    HW123294   1.287   0.902   3.852  0.3102 -0.9541 -0.8041
 5734SOL    HW223295   1.171   0.809   3.824 -0.9245 -0.0184  0.9753
 5735SOL     OW23296   9.652   8.582   0.979 -0.1816  0.4056  0.7389
 5735SOL    HW123297   9.710   8.534   0.919  0.6088  0.2915  1.5684
 5735SOL    HW223298   9.708   8.649   1.017 -0.7429  0.6540  1.1387
 5736SOL     OW23299   5.018   8.338   5.577  0.4887 -0.0026 -0.6282
 5736SOL    HW123300   5.021   8.250   5.615  0.3078 -0.5384 -1.8087
 5736SOL    HW223301   5.001   8.324   5.484  2.2494  1.1804 -1.1926
 5737SOL     OW23302   5.109   6.733   0.185 -0.2290 -0.1110  0.4453
 5737SOL    HW123303   5.134   6.823   0.167 -0.0129 -0.1536  0.5306
 5737SOL    HW223304   5.031   6.719   0.132 -0.0975  0.0351  0.2093
 5738SOL     OW23305   6.634   2.066   0.115  0.0765 -0.3644 -0.2039
 5738SOL    HW123306   6.582   2.020   0.181  0.7241 -1.4937 -0.4593
 5738SOL    HW223307   6.708   2.102   0.164  0.5359 -1.1682 -0.2909
 5739SOL     OW23308   5.937   9.836   4.006 -0.1778  0.3295  0.1020
 5739SOL    HW123309   6.025   9.855   4.040 -0.4056 -0.0649  0.9246
 5739SOL    HW223310   5.900   9.774   4.068 -0.6081 -0.4154 -0.8714
 5740SOL     OW23311   5.389   0.627   8.259 -0.8829 -0.1687 -0.5536
 5740SOL    HW123312   5.432   0.655   8.179  0.0815 -0.8485 -0.2911
 5740SOL    HW223313   5.412   0.694   8.324 -1.2380  0.1123 -0.7187
 5741SOL     OW23314   3.275   2.822   4.515 -0.4667 -0.2083  0.2634
 5741SOL    HW123315   3.297   2.911   4.486 -2.9324  1.7428  3.6302
 5741SOL    HW223316   3.201   2.797   4.460 -1.5974  1.1066  1.1338
 5742SOL     OW23317   0.292  10.673   5.021 -1.5980 -0.5308  0.3082
 5742SOL    HW123318   0.289  10.672   5.116 -0.5890  0.2711  0.3594
 5742SOL    HW223319   0.229  10.740   4.995 -1.4679 -0.3553  0.4408
 5743SOL     OW23320   4.251   1.130   1.491  0.1615  0.3727  0.1066
 5743SOL    HW123321   4.263   1.223   1.512  0.5809  0.1884  0.7141
 5743SOL    HW223322   4.323   1.109   1.432 -1.2703  1.0017 -1.9644
 5744SOL     OW23323   9.663  10.452   4.819  0.1595  0.3369 -0.1432
 5744SOL    HW123324   9.608  10.409   4.885 -0.8844  1.7331 -0.0410
 5744SOL    HW223325   9.660  10.393   4.744 -1.3922  0.2670 -0.0775
 5745SOL     OW23326   7.761   8.358   6.132  0.0502  0.1585  0.0463
 5745SOL    HW123327   7.767   8.319   6.219 -0.8036 -1.0863 -0.4159
 5745SOL    HW223328   7.687   8.418   6.136 -0.5642 -0.5777 -0.0487
 5746SOL     OW23329   1.145   4.348   0.630 -0.1486  0.2871  0.2054
 5746SOL    HW123330   1.141   4.274   0.690  0.5505 -0.3372 -0.4908
 5746SOL    HW223331   1.238   4.369   0.624 -0.1775  0.2034 -0.7936
 5747SOL     OW23332   2.012   2.052   4.782  0.7071  0.4392 -0.5853
 5747SOL    HW123333   2.046   2.048   4.692  0.9203  0.0732 -0.4912
 5747SOL    HW223334   2.033   1.966   4.819 -1.2284 -0.2100 -0.8651
 5748SOL     OW23335   7.956   7.029   1.993  0.8035  0.5059 -0.2881
 5748SOL    HW123336   7.912   7.041   2.078 -0.2577  1.2260 -0.9243
 5748SOL    HW223337   7.890   6.987   1.938  1.3794  0.3509 -0.8691
 5749SOL     OW23338   7.650   5.894   9.860 -0.0744  0.2637  0.8698
 5749SOL    HW123339   7.588   5.922   9.927  0.4288 -0.2416  1.5568
 5749SOL    HW223340   7.601   5.900   9.778 -0.7427  0.7391  1.2959
 5750SOL     OW23341   1.679   9.511   6.879  0.0565 -0.2147 -0.1215
 5750SOL    HW123342   1.734   9.586   6.860 -0.7366  0.2858 -0.4687
 5750SOL    HW223343   1.722   9.468   6.953  0.3943  0.6906  0.2118
 5751SOL     OW23344   9.135   3.158  10.705 -0.2622 -0.1742 -0.0188
 5751SOL    HW123345   9.206   3.180  10.766  0.1446  1.0638 -0.8854
 5751SOL    HW223346   9.176   3.162  10.618 -1.1561 -0.4752 -0.4680
 5752SOL     OW23347   3.085   7.512   9.566  0.4195  0.1219 -0.2963
 5752SOL    HW123348   2.999   7.548   9.587 -0.3213 -0.4229 -2.2157
 5752SOL    HW223349   3.091   7.431   9.617 -0.1292  0.2655 -0.0011
 5753SOL     OW23350   8.265   6.667   2.888  0.0103  0.0076 -0.2553
 5753SOL    HW123351   8.248   6.702   2.801  1.5624 -2.3598 -1.6053
 5753SOL    HW223352   8.178   6.647   2.923 -0.7141  2.0703 -0.6823
 5754SOL     OW23353   9.989   7.336   4.215 -0.4102  0.0279  0.5877
 5754SOL    HW123354  10.061   7.273   4.211 -0.2805  0.2479 -0.9251
 5754SOL    HW223355   9.989   7.366   4.306 -1.2201 -2.9662  1.6873
 5755SOL     OW23356   7.342   6.001   1.595 -0.1920 -0.1086  0.4647
 5755SOL    HW123357   7.275   5.934   1.611 -0.1311 -0.1751  0.4392
 5755SOL    HW223358   7.424   5.953   1.590 -0.0012  0.0895  1.5244
 5756SOL     OW23359   8.446   6.091   6.766 -0.3776  1.0534  0.1510
 5756SOL    HW123360   8.387   6.121   6.836 -0.0236  1.2932  0.3500
 5756SOL    HW223361   8.527   6.068   6.811 -0.4203  0.4317 -0.0869
 5757SOL     OW23362   6.165   8.077   3.539  0.6244  0.4204  0.4684
 5757SOL    HW123363   6.164   8.165   3.503 -1.1084  0.2564  0.0293
 5757SOL    HW223364   6.136   8.021   3.467 -0.7511 -0.1842  1.4437
 5758SOL     OW23365  10.744   6.422   4.213 -0.1289  0.6862  0.2699
 5758SOL    HW123366  10.750   6.412   4.308  0.3278  1.6889  0.3558
 5758SOL    HW223367  10.732   6.333   4.180 -2.2974  0.4977  1.4014
 5759SOL     OW23368   2.670   7.209   2.871 -0.5769 -0.2702 -0.4280
 5759SOL    HW123369   2.660   7.194   2.777  2.4820  0.3548 -0.9498
 5759SOL    HW223370   2.744   7.155   2.896 -1.8341 -1.0641  1.8690
 5760SOL     OW23371   1.113   6.224   8.010  0.1987 -0.2526 -0.8754
 5760SOL    HW123372   1.203   6.197   8.029  0.0509  0.9376  2.1701
 5760SOL    HW223373   1.065   6.205   8.090 -1.4425  2.3535 -1.1096
 5761SOL     OW23374   5.627   9.429   7.769 -0.3236  0.0764 -0.0169
 5761SOL    HW123375   5.600   9.339   7.791 -1.4974  0.3543 -0.2715
 5761SOL    HW223376   5.610   9.436   7.676  0.0944  0.4644 -0.0646
 5762SOL     OW23377   6.053   4.796   0.561  0.7693  0.1757  0.1597
 5762SOL    HW123378   6.073   4.806   0.654  0.6343 -0.0438  0.2129
 5762SOL    HW223379   6.033   4.703   0.550 -1.0675  0.5197  0.2800
 5763SOL     OW23380   1.087   0.077   8.552 -0.2018 -0.6210 -0.2682
 5763SOL    HW123381   1.057   0.157   8.509 -1.3486 -1.0720 -0.3358
 5763SOL    HW223382   1.169   0.056   8.508  0.1950  0.5995 -0.1399
 5764SOL     OW23383   0.187   1.921   3.402  0.1188  0.4256  0.4116
 5764SOL    HW123384   0.257   1.983   3.382 -0.5591  0.8525 -0.7548
 5764SOL    HW223385   0.226   1.835   3.386 -0.0447  0.7062 -1.8503
 5765SOL     OW23386   8.692   1.300   1.559  0.4364  0.3442  0.6554
 5765SOL    HW123387   8.766   1.359   1.540 -0.3319  0.4403 -2.7802
 5765SOL    HW223388   8.688   1.242   1.483 -2.8101  0.1354  0.8568
 5766SOL     OW23389   6.568   7.166   3.962 -0.2214  0.1883  0.2879
 5766SOL    HW123390   6.614   7.120   4.032  1.6449  1.6389  0.0849
 5766SOL    HW223391   6.518   7.234   4.006 -0.4097  0.0177  0.3385
 5767SOL     OW23392   6.504   3.847  10.160 -0.2607  0.6381  0.1860
 5767SOL    HW123393   6.421   3.872  10.202 -0.7566  1.2791 -1.1154
 5767SOL    HW223394   6.571   3.865  10.226 -1.1133  0.4636  1.1293
 5768SOL     OW23395   1.983   1.529   8.982  0.0289 -0.1986 -0.3962
 5768SOL    HW123396   1.963   1.490   8.897 -0.7443 -2.0239  0.5436
 5768SOL    HW223397   2.067   1.572   8.970  0.4848 -1.3830 -1.8016
 5769SOL     OW23398   7.756   5.001   4.425 -0.3511 -0.3272  0.2386
 5769SOL    HW123399   7.826   4.935   4.426  0.0016  0.0388  2.2137
 5769SOL    HW223400   7.765   5.048   4.507 -1.3246  1.4624 -0.6215
 5770SOL     OW23401   8.062   6.010   9.039 -0.4033 -0.1144 -0.4607
 5770SOL    HW123402   8.075   6.010   9.134 -3.6120 -0.8950  0.0883
 5770SOL    HW223403   8.014   6.091   9.022 -0.5684 -0.3910 -1.3153
 5771SOL     OW23404   9.430   3.473   1.849 -0.5849  0.1486  0.6015
 5771SOL    HW123405   9.480   3.531   1.906 -0.7986  2.1407 -1.1426
 5771SOL    HW223406   9.494   3.409   1.818  0.3627  1.2247  0.2700
 5772SOL     OW23407   2.257   2.388   3.963  0.2750 -1.0126 -0.4977
 5772SOL    HW123408   2.273   2.326   3.892 -2.1846  0.3078 -2.3704
 5772SOL    HW223409   2.214   2.463   3.920  0.6618  0.8127  2.0699
 5773SOL     OW23410   4.849   7.624   2.273 -0.0441 -0.2651  0.5248
 5773SOL    HW123411   4.889   7.612   2.187  1.0648 -0.1555  1.0026
 5773SOL    HW223412   4.826   7.536   2.302  1.2508 -0.5071  0.8740
 5774SOL     OW23413   9.305   1.586   8.669 -0.4618 -0.1763  0.0984
 5774SOL    HW123414   9.247   1.518   8.703 -0.9317  1.0954  1.9924
 5774SOL    HW223415   9.247   1.644   8.619 -1.4576  2.3311  3.8002
 5775SOL     OW23416   7.711   8.199  10.199  0.6601 -0.3781 -0.3056
 5775SOL    HW123417   7.651   8.131  10.229  1.2111 -0.5160  0.5114
 5775SOL    HW223418   7.680   8.280  10.240  2.3087 -0.8143  2.0114
 5776SOL     OW23419   0.526   9.921  10.104  0.1621  0.6016  0.1054
 5776SOL    HW123420   0.544  10.015  10.098  3.2254  0.1755  1.0674
 5776SOL    HW223421   0.577   9.882  10.033  0.2479 -0.4569  0.7301
 5777SOL     OW23422   8.255  10.386   5.287 -0.2987  0.0679  0.5902
 5777SOL    HW123423   8.161  10.399   5.287 -0.6070 -1.8270  0.4181
 5777SOL    HW223424   8.286  10.434   5.210 -1.1847  0.2961  0.3655
 5778SOL     OW23425   3.610  10.724   8.253  0.2311  0.2161 -0.0373
 5778SOL    HW123426   3.581  10.808   8.288  2.0256  0.9497 -0.2053
 5778SOL    HW223427   3.688  10.745   8.201 -0.1396 -1.3590 -1.3015
 5779SOL     OW23428   7.889   0.069   0.770  0.2159 -0.0685 -0.3173
 5779SOL    HW123429   7.948   0.080   0.844  0.3934 -0.6603 -0.3653
 5779SOL    HW223430   7.881  -0.026   0.760  0.2227  0.0065 -1.0754
 5780SOL     OW23431   0.649   8.259   5.737  0.6659  0.0540  0.5537
 5780SOL    HW123432   0.739   8.282   5.714  1.1040 -0.8618  1.2759
 5780SOL    HW223433   0.629   8.314   5.813 -0.3795  2.2423 -1.1896
 5781SOL     OW23434  10.067   0.099   2.380  0.3094 -0.1340  0.5822
 5781SOL    HW123435   9.999   0.093   2.447 -0.7486  0.0566 -0.4297
 5781SOL    HW223436  10.088   0.008   2.359 -1.1832 -0.2605 -0.5659
 5782SOL     OW23437   7.151  10.748   1.080  0.3746  0.1363 -0.3265
 5782SOL    HW123438   7.083  10.788   1.026 -0.4908 -1.5014 -0.5250
 5782SOL    HW223439   7.103  10.686   1.135  1.5323  0.1012  0.6765
 5783SOL     OW23440   5.074   5.286   1.374  0.6021 -0.0403 -0.2188
 5783SOL    HW123441   5.126   5.209   1.352 -1.7419 -1.7146 -0.2035
 5783SOL    HW223442   5.020   5.258   1.447 -1.5150  1.0761 -1.2810
 5784SOL     OW23443   1.887  10.241   9.141  0.2714 -0.1043  0.3363
 5784SOL    HW123444   1.932  10.216   9.060 -0.2252 -1.4934  0.4527
 5784SOL    HW223445   1.871  10.335   9.132  2.0540  0.1697 -0.2447
 5785SOL     OW23446   0.912   3.210   0.590 -0.1814  0.2051  0.8309
 5785SOL    HW123447   0.997   3.242   0.558  0.2821 -0.9994  0.8187
 5785SOL    HW223448   0.875   3.285   0.637  0.6522  0.9157  0.3889
 5786SOL     OW23449   0.590   1.384   8.656  0.3580 -0.3619  0.1465
 5786SOL    HW123450   0.640   1.463   8.634 -2.1395  1.3867  0.3797
 5786SOL    HW223451   0.622   1.360   8.743 -0.2085  1.6661  0.9865
 5787SOL     OW23452   6.771   1.778  10.034  0.5483  0.1918 -1.1552
 5787SOL    HW123453   6.825   1.739  10.103 -0.0250  0.3576 -0.6113
 5787SOL    HW223454   6.686   1.735  10.042  0.5412  0.0501 -1.9091
 5788SOL     OW23455   3.278   8.187   8.122 -0.1980  0.0560 -0.1492
 5788SOL    HW123456   3.348   8.241   8.157 -0.1572 -0.3761  0.4637
 5788SOL    HW223457   3.297   8.179   8.029 -1.0630  2.3619 -0.5898
 5789SOL     OW23458   8.698   5.308   2.539 -0.0289  0.4958 -0.1778
 5789SOL    HW123459   8.627   5.348   2.488 -0.7522 -2.3973 -1.6349
 5789SOL    HW223460   8.734   5.241   2.482  1.0964 -0.9601  2.0942
 5790SOL     OW23461   0.054   1.925   0.953 -0.1507 -0.6068 -0.0504
 5790SOL    HW123462   0.009   2.008   0.939 -1.4762 -1.1697  0.6838
 5790SOL    HW223463   0.100   1.937   1.036 -1.0254 -0.8685  0.4857
 5791SOL     OW23464  10.748   8.370   5.377 -0.3949  0.0501  0.7679
 5791SOL    HW123465  10.752   8.280   5.409  0.6677 -0.3650 -0.4844
 5791SOL    HW223466  10.838   8.402   5.383 -0.5550  0.6341  0.1034
 5792SOL     OW23467   9.103  10.813   3.199  0.2438 -0.2528  0.2130
 5792SOL    HW123468   9.129  10.732   3.243  1.3607  0.9887  1.9487
 5792SOL    HW223469   9.008  10.817   3.212 -0.0967 -1.9744 -1.2244
 5793SOL     OW23470   2.356   3.340   7.379  0.0515 -0.0435  0.1268
 5793SOL    HW123471   2.359   3.325   7.285 -0.4592  2.2149 -0.3142
 5793SOL    HW223472   2.421   3.281   7.416 -0.7855 -2.0550 -1.4634
 5794SOL     OW23473   2.045   5.191   0.846 -0.3329  0.0575  0.0816
 5794SOL    HW123474   2.044   5.272   0.898 -0.2599  0.2252 -0.1768
 5794SOL    HW223475   2.049   5.221   0.755 -1.2924 -0.2292 -0.0590
 5795SOL     OW23476   2.927   3.530   8.987  0.4273  0.5358  0.6456
 5795SOL    HW123477   2.957   3.448   9.027 -0.1053  0.5104  0.9927
 5795SOL    HW223478   2.855   3.504   8.930  1.7562  0.4385 -1.0751
 5796SOL     OW23479   6.604   5.177   6.648  0.1599 -0.2587 -0.3511
 5796SOL    HW123480   6.612   5.199   6.555 -0.8576  1.8882  0.0089
 5796SOL    HW223481   6.518   5.211   6.673  0.0018 -1.6558  1.1707
 5797SOL     OW23482  10.153   6.896   7.011  0.9806 -0.3416  0.1593
 5797SOL    HW123483  10.236   6.945   7.009  1.5113 -1.1744  0.8089
 5797SOL    HW223484  10.097   6.946   7.071  1.1484  0.0132  0.0258
 5798SOL     OW23485   6.016   6.185   1.459 -0.3483  0.7558 -0.0084
 5798SOL    HW123486   5.981   6.272   1.438 -0.3884  1.0017  1.0059
 5798SOL    HW223487   6.108   6.200   1.479  0.2680  0.1804 -2.1825
 5799SOL     OW23488   0.239   3.532   1.759 -0.2476  0.1624 -0.3737
 5799SOL    HW123489   0.303   3.463   1.742  1.0057  1.2697 -0.3430
 5799SOL    HW223490   0.288   3.614   1.745 -1.5214  1.0514  0.1695
 5800SOL     OW23491   1.278   7.764   8.891 -0.7087 -0.1757  0.0980
 5800SOL    HW123492   1.318   7.684   8.856 -0.2262 -0.7167  1.7727
 5800SOL    HW223493   1.184   7.745   8.891 -0.7232 -0.1671 -0.8314
 5801SOL     OW23494   1.607   8.429   5.578 -0.5205 -0.1733 -0.3605
 5801SOL    HW123495   1.582   8.340   5.553 -1.7603 -0.7017  2.4237
 5801SOL    HW223496   1.684   8.418   5.634  0.0520  0.6505 -0.9504
 5802SOL     OW23497   2.883   0.267   3.170  0.5244  0.6179 -0.6128
 5802SOL    HW123498   2.813   0.265   3.106  0.1443 -0.5689 -0.1926
 5802SOL    HW223499   2.839   0.282   3.254  0.3062 -3.0001  0.1018
 5803SOL     OW23500   6.457   3.207   2.477  0.3837 -0.4888 -0.1579
 5803SOL    HW123501   6.416   3.181   2.560  1.3172  0.4866  0.6327
 5803SOL    HW223502   6.421   3.145   2.413 -0.6543 -1.0209  0.8873
 5804SOL     OW23503   2.807   9.717   7.546 -0.5506  0.3094 -0.1613
 5804SOL    HW123504   2.818   9.732   7.640 -2.5079  1.1220 -0.0132
 5804SOL    HW223505   2.761   9.795   7.514 -1.6178 -0.7871 -1.4211
 5805SOL     OW23506  10.681   1.176   5.854  0.3475  0.0399  0.3597
 5805SOL    HW123507  10.661   1.144   5.766  2.6279  1.0785 -0.6297
 5805SOL    HW223508  10.596   1.190   5.895 -0.7593 -1.5208 -1.2700
 5806SOL     OW23509   2.928   7.455   1.185  0.0261  0.3669  0.1187
 5806SOL    HW123510   3.016   7.493   1.176  0.0184  0.3110 -0.1990
 5806SOL    HW223511   2.930   7.412   1.270  0.5804 -0.3357 -0.2385
 5807SOL     OW23512   6.245   0.839   3.077 -0.5065 -0.3625  0.0974
 5807SOL    HW123513   6.176   0.828   3.142  0.6830 -0.6927  1.3528
 5807SOL    HW223514   6.324   0.857   3.128 -0.4021  4.7987 -1.3666
 5808SOL     OW23515   8.600   3.776   0.118 -0.0202 -0.3535  0.0993
 5808SOL    HW123516   8.691   3.748   0.110  0.4807  1.2150 -0.0738
 5808SOL    HW223517   8.603   3.853   0.175 -0.6929  2.0219 -2.7939
 5809SOL     OW23518   8.341   5.508   7.138  0.0604 -0.1858  0.1487
 5809SOL    HW123519   8.362   5.425   7.095  0.6927  0.2909 -0.4914
 5809SOL    HW223520   8.287   5.555   7.075 -0.6722 -0.2827  0.6889
 5810SOL     OW23521   9.101   8.366   0.188 -0.4017  0.2212 -0.1481
 5810SOL    HW123522   9.146   8.282   0.199 -0.7499  0.2087  1.3111
 5810SOL    HW223523   9.030   8.346   0.126  0.5834 -0.1229 -1.2169
 5811SOL     OW23524   7.833   3.194   1.536  0.2978 -0.0522  0.6654
 5811SOL    HW123525   7.761   3.138   1.566  0.8085 -0.0943  1.8927
 5811SOL    HW223526   7.804   3.227   1.451 -1.2366  0.0483  1.1951
 5812SOL     OW23527   4.159   8.170   9.174  0.2403  0.2526 -0.2746
 5812SOL    HW123528   4.238   8.160   9.227  1.4796 -0.2013 -2.0826
 5812SOL    HW223529   4.087   8.169   9.237  1.4518 -2.2721  1.2450
 5813SOL     OW23530   2.174   1.332   0.223  0.1216  0.5646  0.3675
 5813SOL    HW123531   2.174   1.424   0.197  0.3144  1.3903  3.0387
 5813SOL    HW223532   2.097   1.295   0.180  0.4670  1.7365 -1.3766
 5814SOL     OW23533   7.688  10.083   9.476  0.1114  0.4146  0.4704
 5814SOL    HW123534   7.756  10.016   9.471 -1.2798 -0.9723 -0.6673
 5814SOL    HW223535   7.675  10.112   9.386 -0.5012  0.9732  0.7283
 5815SOL     OW23536  10.265   0.959   4.935 -0.4918  0.2920  0.3380
 5815SOL    HW123537  10.345   1.011   4.949 -0.2560 -0.0079  0.1231
 5815SOL    HW223538  10.206   1.017   4.887  1.3053 -0.8987 -3.7652
 5816SOL     OW23539   4.632   5.162   9.368  0.5322  0.6010 -0.1420
 5816SOL    HW123540   4.594   5.090   9.317 -0.6271 -0.0015  1.4906
 5816SOL    HW223541   4.725   5.139   9.374  0.5205  0.2091 -1.1856
 5817SOL     OW23542   0.656   9.024   7.573 -0.0169  0.1661 -0.3158
 5817SOL    HW123543   0.650   8.929   7.561 -0.2129  0.0939  0.3351
 5817SOL    HW223544   0.728   9.050   7.515  2.5635 -0.8952  2.1621
 5818SOL     OW23545  10.662   2.635   4.104  0.7238  0.7790 -0.1399
 5818SOL    HW123546  10.714   2.570   4.151 -0.6194 -0.1197  0.1698
 5818SOL    HW223547  10.697   2.634   4.015  0.7672 -0.3672 -0.1319
 5819SOL     OW23548   1.949   3.654   6.423  0.0576  0.3618 -0.2673
 5819SOL    HW123549   1.864   3.695   6.442  0.4401  0.4505  1.4429
 5819SOL    HW223550   1.932   3.560   6.429  0.5652  0.3707  2.8317
 5820SOL     OW23551   7.323   5.093   0.896 -0.6047 -0.4433 -0.3606
 5820SOL    HW123552   7.357   5.004   0.905  0.6174  0.1231  1.0238
 5820SOL    HW223553   7.240   5.092   0.943  0.3752 -0.3736  1.4386
 5821SOL     OW23554   1.255   6.551   1.522 -0.3341 -1.1172  0.0602
 5821SOL    HW123555   1.242   6.646   1.527  0.1643 -0.9581 -1.2527
 5821SOL    HW223556   1.336   6.541   1.473  0.4273 -2.2189  1.4582
 5822SOL     OW23557   7.956   7.275  10.503  0.4653 -0.2499  0.1614
 5822SOL    HW123558   8.028   7.332  10.528  1.0963 -0.0905 -1.8144
 5822SOL    HW223559   7.982   7.188  10.533  0.9701 -0.0191  0.3943
 5823SOL     OW23560   4.826   2.963   6.690  0.3526  0.0316  0.4412
 5823SOL    HW123561   4.768   2.891   6.715 -0.5867  0.3621 -0.6670
 5823SOL    HW223562   4.914   2.929   6.701 -0.0058 -2.3070 -2.6067
 5824SOL     OW23563   7.398   2.680   6.448  0.1130 -0.5430  0.1498
 5824SOL    HW123564   7.486   2.681   6.410  0.2146 -0.4187  0.3838
 5824SOL    HW223565   7.386   2.768   6.482  0.1935 -0.7641  0.7800
 5825SOL     OW23566   9.326  10.766   1.056  0.1772  0.0035  0.0677
 5825SOL    HW123567   9.390  10.723   1.112  1.3130 -0.2858 -1.3786
 5825SOL    HW223568   9.241  10.734   1.087  0.4320  2.1886  3.5725
 5826SOL     OW23569   5.245   1.229  10.819 -0.0557 -0.6889 -0.6394
 5826SOL    HW123570   5.229   1.323  10.828 -0.6075 -0.8547  0.3408
 5826SOL    HW223571   5.201   1.204  10.738  0.7135  0.0178 -1.2904
 5827SOL     OW23572   1.137   2.930   2.611 -0.7243 -0.4829  0.1866
 5827SOL    HW123573   1.168   2.868   2.545  1.5440  0.4478  0.2728
 5827SOL    HW223574   1.217   2.958   2.656 -1.8726  1.2402  1.2496
 5828SOL     OW23575   6.077   1.630   2.512  0.4103  0.1349 -0.6603
 5828SOL    HW123576   6.067   1.536   2.503  1.8661  0.0759 -1.7982
 5828SOL    HW223577   6.013   1.667   2.450  0.9539 -0.1289 -1.3865
 5829SOL     OW23578  10.449  10.560   0.680 -0.0120 -0.3315 -0.8878
 5829SOL    HW123579  10.510  10.622   0.720  0.0442  0.0620 -1.5642
 5829SOL    HW223580  10.438  10.492   0.746 -0.7142  0.8009  0.2079
 5830SOL     OW23581   8.159   7.474   5.876 -0.2233 -0.1355 -0.2560
 5830SOL    HW123582   8.068   7.445   5.877  0.1214 -1.2476 -0.2005
 5830SOL    HW223583   8.209   7.399   5.843  0.6555  0.5217 -0.4810
 5831SOL     OW23584   7.455   9.144   0.604  0.0543 -0.2935 -0.8510
 5831SOL    HW123585   7.478   9.171   0.693 -0.6696 -1.1041 -0.4018
 5831SOL    HW223586   7.363   9.116   0.610  0.3854 -1.6178 -1.5509
 5832SOL     OW23587   6.476   1.132   8.446 -0.3941  0.1005  0.0615
 5832SOL    HW123588   6.415   1.068   8.481 -0.6108  0.1428 -0.2382
 5832SOL    HW223589   6.502   1.096   8.361 -0.4848  0.3881 -0.0880
 5833SOL     OW23590  10.177   5.992   0.111 -0.9588  0.1974  0.0615
 5833SOL    HW123591  10.094   6.041   0.113 -0.9202  0.3812 -1.6710
 5833SOL    HW223592  10.244   6.059   0.102 -0.7114 -0.0415  0.1203
 5834SOL     OW23593   8.457  10.683   1.833  0.0371  0.6681 -0.1123
 5834SOL    HW123594   8.542  10.679   1.877 -0.8306 -1.7081  1.5794
 5834SOL    HW223595   8.399  10.724   1.896 -0.8580 -1.2622  0.4079
 5835SOL     OW23596   7.458   7.664   5.814 -0.1149  0.3123  0.6527
 5835SOL    HW123597   7.460   7.690   5.906  0.5621  1.4395  0.3443
 5835SOL    HW223598   7.467   7.569   5.815  0.4751  0.3721  1.7280
 5836SOL     OW23599   3.261  10.808   3.146  0.2813  0.2233 -0.2061
 5836SOL    HW123600   3.236  10.774   3.232 -0.0477  0.3433 -0.2539
 5836SOL    HW223601   3.244  10.735   3.086 -3.2331  1.3064 -0.7757
 5837SOL     OW23602   5.624   0.386   4.299 -0.0467  0.5189  0.1795
 5837SOL    HW123603   5.714   0.407   4.274 -0.5264  1.0326 -1.2696
 5837SOL    HW223604   5.630   0.357   4.390  1.4522  1.4372  0.4150
 5838SOL     OW23605   3.275   4.718   3.988 -0.0974 -0.2683  0.1354
 5838SOL    HW123606   3.306   4.669   3.912  2.0525 -0.5166  1.1081
 5838SOL    HW223607   3.223   4.655   4.038  0.6244 -0.8755  0.1427
 5839SOL     OW23608   7.752   6.567   8.035 -0.3708  0.3005 -0.5061
 5839SOL    HW123609   7.748   6.472   8.024 -0.8960  0.3742 -1.0058
 5839SOL    HW223610   7.793   6.599   7.954  0.6387  0.4377  0.0343
 5840SOL     OW23611   7.626   7.151   8.234  0.4129  0.5432  0.2357
 5840SOL    HW123612   7.671   7.084   8.286  0.9877 -1.4052 -2.5492
 5840SOL    HW223613   7.689   7.174   8.166 -0.3374  2.9022  0.2542
 5841SOL     OW23614   3.166   1.739   1.285  0.0512 -0.4446  0.0700
 5841SOL    HW123615   3.108   1.663   1.278  0.2279 -0.4381 -2.5485
 5841SOL    HW223616   3.116   1.804   1.334 -1.4424 -1.0902 -0.5377
 5842SOL     OW23617   5.812   5.090   3.998 -0.3943 -0.1319 -0.2523
 5842SOL    HW123618   5.731   5.041   3.984  0.5369 -2.4011  1.7075
 5842SOL    HW223619   5.790   5.156   4.064 -0.9418  0.2170 -0.7661
 5843SOL     OW23620   3.208   4.810   6.002  0.1568  0.5717  0.5267
 5843SOL    HW123621   3.173   4.895   6.030  1.3037  1.0114  0.6888
 5843SOL    HW223622   3.155   4.785   5.927 -0.0490  1.5403  0.3449
 5844SOL     OW23623   8.869   1.289   9.340 -0.1940  0.0230 -0.1154
 5844SOL    HW123624   8.914   1.275   9.256  3.2020  0.6590  1.4459
 5844SOL    HW223625   8.890   1.210   9.391 -0.3148  0.6368  0.8996
 5845SOL     OW23626   4.252   7.104   8.685  0.7449  0.2434 -0.0631
 5845SOL    HW123627   4.249   7.148   8.600  0.7820 -1.2797 -0.8846
 5845SOL    HW223628   4.336   7.058   8.686  0.1439 -0.9048  0.1720
 5846SOL     OW23629   6.087   5.972   7.006 -0.5899 -0.1933  0.1191
 5846SOL    HW123630   6.158   6.015   7.054 -0.5332  0.0268 -0.1592
 5846SOL    HW223631   6.044   6.043   6.958 -1.2470 -0.2647  0.5962
 5847SOL     OW23632   3.521   1.955   1.384 -0.0911 -0.0089  0.6465
 5847SOL    HW123633   3.537   1.964   1.478  0.1078  1.1879  0.5181
 5847SOL    HW223634   3.604   1.977   1.344 -0.5551  0.8895  0.1498
 5848SOL     OW23635   3.143   4.307  10.165  0.0321  0.2367 -0.5561
 5848SOL    HW123636   3.122   4.385  10.114  2.4366  0.5613 -1.1469
 5848SOL    HW223637   3.115   4.234  10.110  1.9522  0.5979 -2.0890
 5849SOL     OW23638   7.027   8.750   4.312  0.3839 -0.3620  0.3382
 5849SOL    HW123639   7.004   8.812   4.381  1.6495  0.7650 -0.2018
 5849SOL    HW223640   6.958   8.762   4.245  0.2444 -0.0417  0.5378
 5850SOL     OW23641   6.597   6.105   1.120  0.7569 -0.3627  0.4963
 5850SOL    HW123642   6.537   6.173   1.088  1.0333  0.4293  1.5665
 5850SOL    HW223643   6.556   6.076   1.202 -0.1882 -2.6639 -0.6974
 5851SOL     OW23644  10.487   3.050   1.465 -0.0930 -0.2288 -0.0345
 5851SOL    HW123645  10.484   3.110   1.539 -0.9315  1.3293 -1.2768
 5851SOL    HW223646  10.548   2.981   1.493 -0.8757 -0.0514  2.3211
 5852SOL     OW23647   0.966   4.832   6.604  0.8200 -0.1066  0.3489
 5852SOL    HW123648   0.971   4.926   6.591  0.3213  0.1903  2.0578
 5852SOL    HW223649   0.981   4.820   6.698 -2.3330 -1.4178  0.8131
 5853SOL     OW23650  10.256   8.338   9.045  0.4445  0.2208 -0.3161
 5853SOL    HW123651  10.304   8.342   9.127 -2.4203 -1.5492  1.6356
 5853SOL    HW223652  10.286   8.256   9.004  2.7604  1.6864 -1.7884
 5854SOL     OW23653   4.710   7.360   3.227 -0.0073  0.3451 -0.0165
 5854SOL    HW123654   4.781   7.332   3.285  0.5440 -1.4901 -1.4770
 5854SOL    HW223655   4.642   7.294   3.238 -0.7386  1.0798 -0.0075
 5855SOL     OW23656  10.002   8.808   8.986 -0.5455  0.7520  0.0578
 5855SOL    HW123657   9.987   8.878   9.050  0.4663  1.0127  0.0220
 5855SOL    HW223658  10.074   8.758   9.023  0.8528  1.5906 -1.4116
 5856SOL     OW23659   0.618   1.162   2.485  1.2848 -0.8211 -0.2283
 5856SOL    HW123660   0.552   1.230   2.502  1.6693  0.0438 -2.0075
 5856SOL    HW223661   0.576   1.081   2.515 -0.1265 -0.1283 -0.2295
 5857SOL     OW23662   2.284   9.787   2.021  0.3167 -0.2975  0.7160
 5857SOL    HW123663   2.211   9.741   2.062 -0.1148  0.4862  0.8399
 5857SOL    HW223664   2.305   9.858   2.082  1.4611 -0.7578  0.8870
 5858SOL     OW23665   3.910   0.584   9.269 -0.6575 -0.6699  0.4377
 5858SOL    HW123666   3.919   0.489   9.262 -2.7757 -0.8997  0.2898
 5858SOL    HW223667   3.853   0.598   9.345 -1.5884  0.3894 -0.4164
 5859SOL     OW23668  10.570   4.451   9.283 -0.0913 -0.5502 -0.7794
 5859SOL    HW123669  10.550   4.378   9.224  0.6162 -1.3114 -0.1076
 5859SOL    HW223670  10.659   4.477   9.260 -0.4714  0.3506 -1.2587
 5860SOL     OW23671  10.189   2.474   8.115 -0.4823 -0.1454 -0.2354
 5860SOL    HW123672  10.259   2.527   8.076  0.3795 -1.5480 -0.6482
 5860SOL    HW223673  10.141   2.439   8.040 -0.2619 -0.9709  0.0073
 5861SOL     OW23674   3.659   1.283   6.517 -0.2162  0.1560  0.0580
 5861SOL    HW123675   3.735   1.237   6.553 -0.3860  0.9007  1.4314
 5861SOL    HW223676   3.635   1.346   6.585 -0.2810  1.9461 -1.5386
 5862SOL     OW23677   3.586   1.743   5.427 -0.0534 -0.0983 -0.2239
 5862SOL    HW123678   3.614   1.653   5.445 -1.9002 -0.9147 -1.1476
 5862SOL    HW223679   3.543   1.771   5.507 -1.4813 -0.9047 -0.6811
 5863SOL     OW23680   2.565   6.159   8.404  0.5934  0.0662 -0.2807
 5863SOL    HW123681   2.504   6.132   8.473  0.4187 -0.4997 -0.6531
 5863SOL    HW223682   2.511   6.204   8.340  0.2693 -1.7624 -1.3622
 5864SOL     OW23683   5.397   7.541   9.928  0.4752 -0.1980 -0.3743
 5864SOL    HW123684   5.319   7.597   9.928 -0.1502 -0.9967 -2.1284
 5864SOL    HW223685   5.449   7.573  10.002 -0.1412  2.2517 -0.9141
 5865SOL     OW23686   1.736   2.257   3.353 -0.5577  0.6469 -0.6535
 5865SOL    HW123687   1.741   2.254   3.257  3.2269  2.5668 -0.7008
 5865SOL    HW223688   1.730   2.350   3.374  0.9504  0.4451  0.9294
 5866SOL     OW23689   1.706   9.642  10.914  0.7817 -0.2891  0.0412
 5866SOL    HW123690   1.677   9.732  10.900 -0.5440 -0.8178 -0.8267
 5866SOL    HW223691   1.660   9.613  10.993 -0.5353 -0.8881 -0.9155
 5867SOL     OW23692   0.364   6.459   2.087 -0.3116 -0.0858  0.6971
 5867SOL    HW123693   0.431   6.422   2.144  2.3355  0.3140 -1.9125
 5867SOL    HW223694   0.372   6.553   2.098  1.8240  0.1441 -1.7436
 5868SOL     OW23695   1.136   5.743   5.934  0.1271 -0.1249  0.2703
 5868SOL    HW123696   1.134   5.715   5.842 -0.9338 -1.4532  0.6509
 5868SOL    HW223697   1.152   5.837   5.930 -0.6432 -0.0174 -1.3245
 5869SOL     OW23698   3.648   4.917  10.189 -0.1646  0.3840 -0.5247
 5869SOL    HW123699   3.647   4.939  10.282 -1.1094 -1.4127 -0.0733
 5869SOL    HW223700   3.558   4.929  10.159  0.1403  1.0033 -1.2392
 5870SOL     OW23701   8.128   5.547   2.275 -0.0125  0.1668 -0.0536
 5870SOL    HW123702   8.095   5.493   2.346 -1.1177  0.0595 -0.6323
 5870SOL    HW223703   8.053   5.560   2.217  1.3689 -1.7433 -2.4754
 5871SOL     OW23704   7.779   6.861  10.757 -0.3744 -0.1906 -0.1012
 5871SOL    HW123705   7.836   6.934  10.731 -2.3164  1.3641 -0.2324
 5871SOL    HW223706   7.804   6.844  10.848  0.5249  0.2367 -0.2522
 5872SOL     OW23707   4.355   5.275   2.314 -0.2627 -0.3135 -0.8121
 5872SOL    HW123708   4.385   5.218   2.385  1.3479  1.7901  0.3233
 5872SOL    HW223709   4.399   5.242   2.236  5.4392  2.4616  0.6979
 5873SOL     OW23710   5.394   8.652   0.581 -0.1370 -0.3011  0.5086
 5873SOL    HW123711   5.371   8.571   0.626  0.1219  0.3769  1.9238
 5873SOL    HW223712   5.317   8.673   0.528 -0.5207 -1.0303  0.7700
 5874SOL     OW23713   9.006   2.428  10.370  0.2074 -0.9328  0.0499
 5874SOL    HW123714   9.031   2.384  10.289  1.4724 -1.5481  0.7392
 5874SOL    HW223715   9.011   2.521  10.350  2.3191 -1.0275 -0.1111
 5875SOL     OW23716   4.867   6.857  10.180  0.5392 -0.1292 -0.2651
 5875SOL    HW123717   4.804   6.846  10.109  0.7345 -1.6448 -0.2344
 5875SOL    HW223718   4.932   6.789  10.166  0.7251 -0.2960  1.1989
 5876SOL     OW23719   5.255   5.672   9.311 -0.5005 -0.1957  0.1898
 5876SOL    HW123720   5.299   5.611   9.369 -0.6567  0.3100  0.8545
 5876SOL    HW223721   5.161   5.659   9.328 -0.5706 -0.4257 -0.3461
 5877SOL     OW23722   5.262   8.096   5.421  0.3700 -0.1461 -0.2695
 5877SOL    HW123723   5.342   8.069   5.375 -0.1541  0.5311 -1.5998
 5877SOL    HW223724   5.294   8.133   5.503  1.2932 -1.7307  0.1480
 5878SOL     OW23725   7.938   2.711  10.258  0.1012 -0.7571 -0.5176
 5878SOL    HW123726   7.864   2.693  10.200 -1.3715  0.8692  0.7373
 5878SOL    HW223727   7.982   2.786  10.217 -0.7677  0.2055  0.2607
 5879SOL     OW23728   6.005   0.665   1.178 -0.7323 -1.0670 -0.7252
 5879SOL    HW123729   5.915   0.655   1.148 -1.5536  1.7697  0.5106
 5879SOL    HW223730   6.049   0.715   1.109 -1.1555  0.7195  0.2418
 5880SOL     OW23731   5.001   1.733   7.355 -0.4006 -0.2187 -0.0647
 5880SOL    HW123732   5.084   1.779   7.342 -1.1383  1.4206  0.7819
 5880SOL    HW223733   4.974   1.707   7.267  1.3271 -1.4328 -0.3000
 5881SOL     OW23734   5.857   0.287  10.421 -0.6854 -0.1947  0.5569
 5881SOL    HW123735   5.815   0.343  10.487  0.0260  1.3070 -0.2061
 5881SOL    HW223736   5.890   0.348  10.355 -0.0889 -1.5533 -0.4587
 5882SOL     OW23737   6.863   5.074   6.294 -0.2939  0.8499  0.5479
 5882SOL    HW123738   6.781   5.115   6.265 -0.5709  1.4777  2.1441
 5882SOL    HW223739   6.920   5.079   6.218 -1.1939  1.8697 -0.0893
 5883SOL     OW23740   2.564   4.496   7.023 -0.2791  0.1690  0.4612
 5883SOL    HW123741   2.556   4.402   7.004 -0.9129 -0.4417  3.1974
 5883SOL    HW223742   2.481   4.533   6.995 -0.6352 -0.4094  0.7195
 5884SOL     OW23743   5.310   9.636   8.967 -0.3319 -0.1632 -0.3579
 5884SOL    HW123744   5.232   9.665   9.014 -0.5846  0.1420 -0.9656
 5884SOL    HW223745   5.351   9.716   8.935  0.0198 -0.3468 -0.3704
 5885SOL     OW23746   5.456   5.553   6.764 -0.0386  0.2331  0.4464
 5885SOL    HW123747   5.419   5.636   6.794  1.6158  0.3869  2.1987
 5885SOL    HW223748   5.498   5.575   6.681  1.2966  1.4279  1.4037
 5886SOL     OW23749   0.442   9.296   9.258 -0.3325  0.1598 -0.1051
 5886SOL    HW123750   0.382   9.360   9.298 -1.7655 -0.8022 -0.6512
 5886SOL    HW223751   0.459   9.330   9.171 -2.0989 -0.7732 -0.8604
 5887SOL     OW23752   5.576   0.020   9.602 -0.5575 -0.2779  0.5956
 5887SOL    HW123753   5.502   0.060   9.556 -0.2886 -0.0618  0.3397
 5887SOL    HW223754   5.537  -0.039   9.666 -0.9499 -1.3634 -0.5889
 5888SOL     OW23755   6.252   4.253   9.638  0.1978 -0.3163  0.1072
 5888SOL    HW123756   6.242   4.273   9.731  2.6453 -0.6462  0.5091
 5888SOL    HW223757   6.208   4.169   9.626 -0.6855  0.0319  0.8023
 5889SOL     OW23758   5.330   8.474   1.840  0.5259  0.2141 -0.6813
 5889SOL    HW123759   5.368   8.526   1.770  0.1382  0.5497 -0.6468
 5889SOL    HW223760   5.382   8.495   1.917  1.5560 -0.8729 -1.0574
 5890SOL     OW23761   9.339   4.672   0.789  0.3668 -0.4044  0.4826
 5890SOL    HW123762   9.250   4.637   0.783  0.9112 -2.3593  2.5057
 5890SOL    HW223763   9.379   4.651   0.705 -0.7052 -0.6284  0.0184
 5891SOL     OW23764   2.648   6.624   6.397 -0.0734 -0.1871 -0.0623
 5891SOL    HW123765   2.585   6.553   6.392  1.2651 -1.3992 -0.1961
 5891SOL    HW223766   2.594   6.703   6.401 -1.7413 -1.2672  3.3926
 5892SOL     OW23767   3.999   1.746  10.659  0.7518  0.0256 -0.1228
 5892SOL    HW123768   3.918   1.714  10.697  0.3865  0.4438 -0.5412
 5892SOL    HW223769   4.068   1.696  10.703  0.2277 -0.9558 -0.4051
 5893SOL     OW23770   4.507   6.151   1.171  0.7455 -0.3542  0.6983
 5893SOL    HW123771   4.571   6.129   1.103  0.3787 -1.1880  0.6090
 5893SOL    HW223772   4.432   6.095   1.152  0.4968 -0.3389  1.5854
 5894SOL     OW23773   5.831   4.650  10.447 -0.1679  0.4132  0.4031
 5894SOL    HW123774   5.901   4.600  10.489 -0.0866 -0.3925 -0.6182
 5894SOL    HW223775   5.752   4.600  10.465 -0.2317  0.4357  0.1971
 5895SOL     OW23776   8.906   2.099   6.560 -0.0323  0.1450 -0.0510
 5895SOL    HW123777   8.906   2.187   6.523  1.0357  0.3560  0.3920
 5895SOL    HW223778   8.909   2.041   6.484  0.3554  0.5247 -0.3332
 5896SOL     OW23779   4.212   3.032   8.429 -0.8438  0.1761  0.0102
 5896SOL    HW123780   4.212   3.127   8.440  1.0116  0.1878  0.1464
 5896SOL    HW223781   4.278   3.000   8.491  1.1195 -0.8656 -2.4540
 5897SOL     OW23782   2.404   9.226   1.293 -0.4317  0.0168 -0.2885
 5897SOL    HW123783   2.484   9.214   1.242 -0.7528 -2.1203 -0.3826
 5897SOL    HW223784   2.432   9.221   1.384 -0.5021 -1.3678 -0.3232
 5898SOL     OW23785   9.381  10.395   9.648  0.9765  0.0678 -0.4546
 5898SOL    HW123786   9.290  10.386   9.618  1.2683  1.2964 -1.8463
 5898SOL    HW223787   9.377  10.459   9.718  0.4966 -1.6261  1.1418
 5899SOL     OW23788   3.727   2.015  10.842 -0.3151  1.0395 -0.0489
 5899SOL    HW123789   3.765   2.077  10.779  0.2097  1.1394  0.3577
 5899SOL    HW223790   3.794   2.007  10.910  0.3131 -1.1966 -0.8672
 5900SOL     OW23791   8.401   0.680   0.411 -0.0354 -0.0214 -0.4766
 5900SOL    HW123792   8.452   0.600   0.423  0.8013  0.3834 -1.1600
 5900SOL    HW223793   8.456   0.734   0.354 -0.7521  0.8870 -0.3224
 5901SOL     OW23794   9.606   4.544   8.092 -0.2998  1.1925  0.3770
 5901SOL    HW123795   9.611   4.567   7.999  0.2721 -0.7732 -0.1398
 5901SOL    HW223796   9.536   4.479   8.097 -0.5185  1.4831  1.3917
 5902SOL     OW23797  10.543   6.321   8.990 -0.0953  0.1696 -0.0677
 5902SOL    HW123798  10.473   6.317   8.924 -0.3612 -3.2600  0.2527
 5902SOL    HW223799  10.497   6.309   9.073  0.5418  1.6595  0.5270
 5903SOL     OW23800   4.793   5.927   2.233 -0.0908  0.0581  0.0267
 5903SOL    HW123801   4.759   5.838   2.246 -0.1612 -0.1163 -1.2275
 5903SOL    HW223802   4.858   5.938   2.303  0.4382 -1.2613 -0.2165
 5904SOL     OW23803   2.410   9.879   5.259 -0.2686  0.3356 -0.5558
 5904SOL    HW123804   2.471   9.948   5.286  1.0263 -1.1369  0.4382
 5904SOL    HW223805   2.383   9.838   5.341 -1.1496 -0.2323 -1.1231
 5905SOL     OW23806   7.343   8.703  10.914 -0.0973 -0.0887  0.5203
 5905SOL    HW123807   7.307   8.615  10.922 -1.9812  0.6029  0.0076
 5905SOL    HW223808   7.354   8.732  11.005  1.2690 -1.0787  0.7214
 5906SOL     OW23809   0.916   0.868   9.639  0.0647  0.1665 -0.4410
 5906SOL    HW123810   0.869   0.862   9.722 -1.2553  1.1967 -1.0798
 5906SOL    HW223811   0.989   0.927   9.657 -0.6258  0.9536 -0.1785
 5907SOL     OW23812   2.245   7.681   8.912  0.0115 -0.1398 -0.2439
 5907SOL    HW123813   2.189   7.633   8.851  0.0510 -0.0608 -0.3428
 5907SOL    HW223814   2.208   7.770   8.914 -0.5027 -0.3581  0.4888
 5908SOL     OW23815   0.840   9.845   8.464  0.1740 -0.1767  0.0492
 5908SOL    HW123816   0.791   9.895   8.529  0.5237 -0.1968  0.3285
 5908SOL    HW223817   0.931   9.859   8.486  0.3005 -0.1023 -0.4992
 5909SOL     OW23818   3.582   2.217  10.099 -0.0865 -0.0123 -0.1824
 5909SOL    HW123819   3.560   2.253  10.185 -0.6637 -0.9650  0.0856
 5909SOL    HW223820   3.584   2.122  10.112 -3.1204 -0.4296 -1.8261
 5910SOL     OW23821   7.559   3.328   1.788  0.3556  0.3312  1.0438
 5910SOL    HW123822   7.473   3.336   1.829 -0.2092  0.8036 -0.2056
 5910SOL    HW223823   7.542   3.285   1.705  1.3358  0.4466  0.7745
 5911SOL     OW23824   1.043   3.338   9.621 -0.0948 -0.0988  0.3963
 5911SOL    HW123825   1.104   3.397   9.576  1.4410 -0.3211  2.0309
 5911SOL    HW223826   0.957   3.363   9.588  0.7799  0.9227 -1.2743
 5912SOL     OW23827   0.023   3.235   5.241  1.0014  0.2461  0.1161
 5912SOL    HW123828   0.036   3.149   5.200  1.3681 -1.4908  3.5374
 5912SOL    HW223829  -0.062   3.264   5.209  0.9234 -1.3233 -1.2250
 5913SOL     OW23830   1.067   8.893   1.569 -0.2091 -0.3073  0.0574
 5913SOL    HW123831   1.100   8.836   1.638  0.2238  0.3745  0.4345
 5913SOL    HW223832   1.080   8.982   1.604  1.8209  0.1589 -1.6585
 5914SOL     OW23833   8.270   8.570   6.440 -0.0895  0.3129  0.8307
 5914SOL    HW123834   8.309   8.657   6.446  1.4474 -0.1798 -1.2687
 5914SOL    HW223835   8.270   8.549   6.347  1.8269 -2.8648  1.3721
 5915SOL     OW23836   5.521   9.850   2.230  0.2717  0.7816 -0.2486
 5915SOL    HW123837   5.574   9.771   2.230 -0.5764  0.1867  0.5348
 5915SOL    HW223838   5.534   9.888   2.143  1.3150  0.2156 -0.3516
 5916SOL     OW23839   4.026   0.927   7.835  0.4337  0.6286 -0.2508
 5916SOL    HW123840   4.103   0.903   7.887  0.5792  0.9371 -0.3239
 5916SOL    HW223841   3.952   0.918   7.895  0.4948  0.0794 -0.2512
 5917SOL     OW23842   6.811   7.878   5.689  0.5012  0.1250 -0.0439
 5917SOL    HW123843   6.764   7.857   5.769  0.1294  1.2050  0.0373
 5917SOL    HW223844   6.819   7.974   5.690  1.1016  0.0986 -0.9489
 5918SOL     OW23845   4.748   7.928   6.244  0.2164  0.1500 -0.1848
 5918SOL    HW123846   4.669   7.874   6.240 -0.3806  1.0278 -0.4237
 5918SOL    HW223847   4.793   7.899   6.323  0.7622 -1.8527 -1.1450
 5919SOL     OW23848   1.850   2.925   1.928 -0.2640  0.8101  0.3733
 5919SOL    HW123849   1.808   2.840   1.913  1.5919  0.1290 -1.3099
 5919SOL    HW223850   1.937   2.904   1.960  0.7214  1.9955 -1.3751
 5920SOL     OW23851   7.600   0.501   0.557 -0.3066 -0.6851  0.2541
 5920SOL    HW123852   7.538   0.461   0.497 -1.3419  0.5088  0.4680
 5920SOL    HW223853   7.642   0.428   0.602  0.5452 -1.6064 -1.9364
 5921SOL     OW23854   7.262   5.772  10.452 -0.1757  0.3360  0.2520
 5921SOL    HW123855   7.272   5.864  10.475  1.7974 -0.3110  2.4267
 5921SOL    HW223856   7.219   5.733  10.529  0.7095 -0.8529  0.1747
 5922SOL     OW23857   2.335   0.803   3.271  0.3035  0.1515 -0.2187
 5922SOL    HW123858   2.425   0.833   3.286 -0.0147  0.5542  1.0299
 5922SOL    HW223859   2.301   0.785   3.359 -1.0985  0.7804 -0.6033
 5923SOL     OW23860   0.775   4.075   3.433 -0.8335 -0.0326 -0.2375
 5923SOL    HW123861   0.781   4.015   3.359 -0.3393 -0.5288  0.1956
 5923SOL    HW223862   0.841   4.142   3.416 -1.6658  0.6300 -0.9264
 5924SOL     OW23863  10.288  10.798   1.233 -0.0868 -0.5474 -0.1704
 5924SOL    HW123864  10.289  10.716   1.184  3.7230 -0.9190  0.2312
 5924SOL    HW223865  10.238  10.779   1.312  1.7313 -2.9653  0.5075
 5925SOL     OW23866   4.704   9.804   0.701 -0.1113  0.2808 -0.4460
 5925SOL    HW123867   4.734   9.794   0.791 -1.1654  0.5127 -0.0544
 5925SOL    HW223868   4.678   9.716   0.674 -1.5765  0.5017  0.1472
 5926SOL     OW23869   0.691   9.490   7.701 -0.1578 -0.0454  0.0486
 5926SOL    HW123870   0.617   9.546   7.722 -1.0192 -1.2459  0.3323
 5926SOL    HW223871   0.721   9.520   7.615  2.2435  3.7297  1.9253
 5927SOL     OW23872  10.161   3.527   0.567 -0.1441 -0.3080 -0.3094
 5927SOL    HW123873  10.178   3.544   0.475  1.2463 -2.9766 -0.6543
 5927SOL    HW223874  10.233   3.470   0.594 -1.3981 -0.9149  1.9997
 5928SOL     OW23875   7.512   2.891  10.920 -0.6552 -0.5196  0.5741
 5928SOL    HW123876   7.420   2.914  10.911 -0.6736 -0.7944  0.0549
 5928SOL    HW223877   7.538   2.861  10.833  0.0261 -0.0778  0.6259
 5929SOL     OW23878   4.864   7.914   8.567 -0.0158  0.4276 -0.4477
 5929SOL    HW123879   4.819   7.957   8.639  0.6803  1.0986 -0.4023
 5929SOL    HW223880   4.803   7.918   8.494 -0.3945  0.4875 -0.1314
 5930SOL     OW23881   5.640   6.314   7.489 -0.9931  0.8259  0.5586
 5930SOL    HW123882   5.684   6.232   7.509  2.0400  2.1012 -0.2539
 5930SOL    HW223883   5.577   6.291   7.421 -1.9647 -1.1835  2.0431
 5931SOL     OW23884   4.748   3.083   1.402  0.0768  0.1411 -0.4580
 5931SOL    HW123885   4.712   3.171   1.395 -0.7285 -0.1938 -0.7189
 5931SOL    HW223886   4.772   3.073   1.494 -1.1838  0.1360 -0.1112
 5932SOL     OW23887   2.156   5.527   9.615 -0.1798 -0.0031 -0.1392
 5932SOL    HW123888   2.184   5.584   9.543 -0.7690 -0.2731 -0.5887
 5932SOL    HW223889   2.237   5.509   9.663  0.2603  0.0240 -0.8416
 5933SOL     OW23890   3.454   6.879   2.892 -0.3802 -0.3090 -0.4338
 5933SOL    HW123891   3.539   6.847   2.922 -0.7964 -1.7511 -0.7090
 5933SOL    HW223892   3.451   6.854   2.799 -1.1882 -0.4782 -0.3694
 5934SOL     OW23893   8.832   8.067   5.774  0.3780 -0.2169  0.2551
 5934SOL    HW123894   8.757   8.103   5.727 -0.1317 -1.7848 -0.2005
 5934SOL    HW223895   8.853   7.986   5.726  1.7918 -0.2643  0.9153
 5935SOL     OW23896   5.925   8.197   6.306  0.1055  0.6664 -0.8026
 5935SOL    HW123897   5.911   8.262   6.375 -0.1999 -0.1925 -0.0385
 5935SOL    HW223898   6.000   8.146   6.336 -2.2684 -2.1537  0.8294
 5936SOL     OW23899   5.235   7.594  10.913 -0.2383 -0.0013 -0.2801
 5936SOL    HW123900   5.226   7.660  10.844  1.5312  1.6211  0.9506
 5936SOL    HW223901   5.218   7.641  10.994  1.4832 -0.9179  0.6762
 5937SOL     OW23902  10.030  10.270   7.263 -0.3993 -0.0719  0.0630
 5937SOL    HW123903  10.076  10.268   7.347  2.1080  0.5292 -1.1966
 5937SOL    HW223904   9.960  10.205   7.273  0.8251 -1.2066  2.0625
 5938SOL     OW23905   4.044  10.002   1.166  0.5338 -0.5946  0.1544
 5938SOL    HW123906   4.016   9.986   1.256  1.6474 -0.9722  0.4394
 5938SOL    HW223907   3.990  10.076   1.137  0.5272 -0.1435  1.2878
 5939SOL     OW23908   9.575   2.311   5.120  0.0076  0.1191 -0.1390
 5939SOL    HW123909   9.501   2.276   5.168 -0.2194 -2.2105 -1.9922
 5939SOL    HW223910   9.548   2.399   5.094 -1.6893 -0.3172  0.0464
 5940SOL     OW23911   1.005   8.315   5.129 -0.2535 -0.3539  0.5090
 5940SOL    HW123912   0.974   8.260   5.057 -0.1783 -0.8936  0.8806
 5940SOL    HW223913   0.975   8.403   5.107 -0.9470 -0.6528  0.2329
 5941SOL     OW23914   9.346   2.841  10.855 -0.4422  0.2584 -0.9554
 5941SOL    HW123915   9.358   2.928  10.817  1.1066  0.6625  0.3762
 5941SOL    HW223916   9.302   2.858  10.939  1.8538  0.0520  0.3743
 5942SOL     OW23917   9.798  10.741   1.993  0.1898 -0.2454  0.1781
 5942SOL    HW123918   9.835  10.704   2.073  0.5937 -1.2200 -0.4329
 5942SOL    HW223919   9.857  10.813   1.970 -0.0641  0.1931  0.8742
 5943SOL     OW23920   5.164   3.885   4.056 -0.2054  0.2201  0.1397
 5943SOL    HW123921   5.232   3.945   4.086  0.4119 -1.3775  2.1733
 5943SOL    HW223922   5.170   3.887   3.961  1.8339  1.0723  0.2427
 5944SOL     OW23923   2.640   0.390   4.065 -0.3491 -0.0615 -0.5155
 5944SOL    HW123924   2.686   0.461   4.109  1.8248 -0.3928 -2.0898
 5944SOL    HW223925   2.652   0.408   3.972 -2.6913 -0.6922 -0.9895
 5945SOL     OW23926   6.301   9.636   5.121  0.2426  0.0946 -0.3004
 5945SOL    HW123927   6.280   9.678   5.037 -0.0796 -1.7265 -1.1766
 5945SOL    HW223928   6.393   9.660   5.137  0.8514 -0.8924 -2.0529
 5946SOL     OW23929   3.004   7.175   4.699 -0.0115  0.4725  0.5365
 5946SOL    HW123930   3.004   7.260   4.743 -0.2517  0.6474  0.2050
 5946SOL    HW223931   2.986   7.112   4.769  1.0304  0.6009  0.9357
 5947SOL     OW23932   5.112   7.968   8.351  0.4339  0.1950  0.0803
 5947SOL    HW123933   5.094   7.991   8.442  1.6395  2.3487 -0.1559
 5947SOL    HW223934   5.069   7.884   8.339  2.1211 -1.3470  3.3078
 5948SOL     OW23935   6.590   0.670   2.434 -0.4011  0.0044 -0.3238
 5948SOL    HW123936   6.570   0.611   2.506  0.0528 -0.9582 -0.9592
 5948SOL    HW223937   6.645   0.738   2.472 -0.1672 -0.4969  0.2388
 5949SOL     OW23938   1.193   0.999  10.072  0.4739  0.6665  0.2553
 5949SOL    HW123939   1.213   1.027   9.982  1.1710 -0.2041  0.1182
 5949SOL    HW223940   1.116   0.943  10.062  0.7452  0.3047  0.1419
 5950SOL     OW23941   4.567   0.653   1.768 -0.2769 -0.1232 -0.0985
 5950SOL    HW123942   4.519   0.661   1.685 -2.4297  0.2560  1.0936
 5950SOL    HW223943   4.649   0.700   1.753 -0.3001 -0.6473 -2.2068
 5951SOL     OW23944   6.454   7.744   2.322  0.0165 -0.4898 -0.2261
 5951SOL    HW123945   6.373   7.782   2.355  0.6310  0.1261  0.6023
 5951SOL    HW223946   6.473   7.672   2.382 -0.1786 -0.9589 -0.7195
 5952SOL     OW23947   8.916  10.055   5.849 -0.1668  0.3792  0.1451
 5952SOL    HW123948   8.981  10.078   5.914  1.2174 -0.0761 -1.0261
 5952SOL    HW223949   8.941  10.105   5.771 -1.2604  0.2471 -0.3109
 5953SOL     OW23950   5.057   6.347   3.608  0.0621 -0.5985  0.5715
 5953SOL    HW123951   4.980   6.327   3.555 -0.9284 -0.1545  1.7972
 5953SOL    HW223952   5.123   6.375   3.544 -0.2092 -2.5895 -0.6758
 5954SOL     OW23953   3.969  10.341   0.128  0.3221  0.4587  0.3028
 5954SOL    HW123954   3.954  10.406   0.060  1.1402 -0.7158 -1.0426
 5954SOL    HW223955   3.883  10.328   0.168 -0.2275  0.9873 -0.6593
 5955SOL     OW23956   8.266  10.701   9.163  0.5681 -0.5391  0.0062
 5955SOL    HW123957   8.264  10.762   9.237 -0.5379  0.2424 -0.6342
 5955SOL    HW223958   8.207  10.630   9.188 -0.2938  0.0346 -0.3624
 5956SOL     OW23959   9.524   7.959   8.384 -0.2579 -0.0222  0.1917
 5956SOL    HW123960   9.565   7.916   8.309  0.2063  0.7739 -0.0222
 5956SOL    HW223961   9.487   7.888   8.435 -1.5439 -0.5092 -1.3471
 5957SOL     OW23962   9.210   8.924   8.302 -0.4872 -0.2433 -0.6311
 5957SOL    HW123963   9.155   8.978   8.359 -1.1680 -2.0901  0.5718
 5957SOL    HW223964   9.300   8.945   8.328 -0.7291  0.3768 -0.2672
 5958SOL     OW23965   9.300  10.673  10.436 -0.2463 -0.3497 -0.1405
 5958SOL    HW123966   9.305  10.733  10.361 -0.8663 -1.5122 -1.1666
 5958SOL    HW223967   9.224  10.617  10.416  0.7384 -1.9539  0.3694
 5959SOL     OW23968  10.599   9.080   1.700 -0.6700 -0.1540  1.3518
 5959SOL    HW123969  10.549   9.006   1.665 -1.2964  0.4929  0.8453
 5959SOL    HW223970  10.537   9.125   1.758 -0.5635  0.4313  1.0206
 5960SOL     OW23971   8.333  10.671   5.948 -0.0352  0.2439 -0.4415
 5960SOL    HW123972   8.258  10.729   5.932  0.8337  1.7386  0.6556
 5960SOL    HW223973   8.372  10.659   5.861 -0.0811  1.5411 -0.6628
 5961SOL     OW23974   5.953   5.080   2.830  0.0539 -0.1917 -0.5642
 5961SOL    HW123975   5.894   5.129   2.771  1.0228  0.4363 -1.0442
 5961SOL    HW223976   5.924   5.104   2.918  0.8720  1.7493 -0.7826
 5962SOL     OW23977   7.164   9.503   8.156 -0.5030 -0.1690 -0.6727
 5962SOL    HW123978   7.182   9.444   8.229 -1.3960  2.1969  1.6254
 5962SOL    HW223979   7.249   9.543   8.137 -0.7317  1.3696  1.2069
 5963SOL     OW23980  10.152   4.702   7.724 -0.2746 -0.2369  0.0330
 5963SOL    HW123981  10.113   4.635   7.780 -1.0410 -1.2846 -1.6597
 5963SOL    HW223982  10.160   4.779   7.780  0.6824 -1.7385  2.0568
 5964SOL     OW23983   7.808   8.497   8.540  0.1170  0.0066 -0.1496
 5964SOL    HW123984   7.860   8.430   8.585  2.4385  1.7162 -0.1131
 5964SOL    HW223985   7.763   8.544   8.610 -0.0011 -0.2964 -0.0201
 5965SOL     OW23986   2.800   7.784   3.146 -0.5588 -0.3031 -0.1459
 5965SOL    HW123987   2.730   7.721   3.161  0.2733 -1.1401  0.3078
 5965SOL    HW223988   2.871   7.755   3.204  1.3211 -1.2885 -2.7858
 5966SOL     OW23989   9.062   9.790   2.881 -0.5658  0.2894  0.4139
 5966SOL    HW123990   8.999   9.861   2.892 -1.7491 -0.7571  0.7249
 5966SOL    HW223991   9.054   9.765   2.789  2.6410  2.9988 -0.7728
 5967SOL     OW23992   7.565   6.976   9.207  0.6528 -0.0014 -0.0979
 5967SOL    HW123993   7.557   6.881   9.199 -2.9151 -0.1901  2.9564
 5967SOL    HW223994   7.488   7.010   9.162  2.6205  1.6824 -2.4015
 5968SOL     OW23995   5.156   5.210   6.361 -0.1767  0.3142  0.1075
 5968SOL    HW123996   5.148   5.118   6.386  1.5852 -0.5404 -2.1350
 5968SOL    HW223997   5.211   5.249   6.429 -0.9726 -0.2397  1.0998
 5969SOL     OW23998   6.467   0.672   7.463 -0.3594  0.0945  0.1092
 5969SOL    HW123999   6.441   0.742   7.404 -1.4084 -0.2729  0.1206
 5969SOL    HW224000   6.556   0.649   7.434 -0.6101  0.3478 -0.9217
 5970SOL     OW24001   7.368   2.556   0.825 -0.0646  0.7622  0.3221
 5970SOL    HW124002   7.407   2.493   0.765 -1.0050 -1.6037  2.0497
 5970SOL    HW224003   7.437   2.575   0.888 -0.8001 -1.4442  1.8953
 5971SOL     OW24004   8.562   8.945   6.283 -0.4196  0.2572  0.2336
 5971SOL    HW124005   8.509   8.866   6.279  0.2696 -0.2805  1.3076
 5971SOL    HW224006   8.640   8.919   6.332 -0.0970  1.5540  0.4347
 5972SOL     OW24007  10.137   2.435   9.328 -0.2591  0.6321 -0.3795
 5972SOL    HW124008  10.116   2.459   9.419  0.0863  0.6118 -0.2917
 5972SOL    HW224009  10.182   2.511   9.293  0.5586  0.2479 -0.1983
 5973SOL     OW24010   1.528   5.170   5.656  0.5265 -0.2386 -0.0423
 5973SOL    HW124011   1.563   5.156   5.568  2.5313  1.2931  0.4428
 5973SOL    HW224012   1.576   5.108   5.711  0.3346 -0.1690  0.2050
 5974SOL     OW24013   3.100   2.699   6.510  0.2613  0.4746 -0.5187
 5974SOL    HW124014   3.067   2.639   6.443 -0.1018  1.5519 -1.3372
 5974SOL    HW224015   3.021   2.739   6.547  0.5361  1.4208 -0.9190
 5975SOL     OW24016   4.100   2.499   9.623 -0.0869 -0.3858 -0.3067
 5975SOL    HW124017   4.174   2.468   9.570  0.9634  0.3676  0.6627
 5975SOL    HW224018   4.028   2.441   9.599  1.1411 -1.9820 -0.3663
 5976SOL     OW24019   7.036   1.167   4.148 -0.3240  0.1805  0.3481
 5976SOL    HW124020   6.963   1.227   4.135 -2.1116 -2.0306 -0.6570
 5976SOL    HW224021   7.113   1.223   4.152 -1.9150  2.5393  0.1557
 5977SOL     OW24022   0.409   9.766   4.796  1.3506  0.1287  0.6029
 5977SOL    HW124023   0.393   9.697   4.859  2.1258  0.3010  0.9929
 5977SOL    HW224024   0.339   9.756   4.731  0.2603  0.2446  1.7210
 5978SOL     OW24025   2.587   3.136   0.839  0.2292 -0.3861  0.6437
 5978SOL    HW124026   2.523   3.077   0.878 -1.1844  0.6977  0.0530
 5978SOL    HW224027   2.600   3.205   0.905 -0.5256  0.2929  0.1076
 5979SOL     OW24028   2.839   4.655   4.658  0.5017  0.7360  1.3130
 5979SOL    HW124029   2.925   4.685   4.630  1.2478  0.7744  3.4382
 5979SOL    HW224030   2.780   4.728   4.638  1.4584  1.7761  2.1543
 5980SOL     OW24031   3.926   3.400   1.271 -0.0036  0.1212 -0.1083
 5980SOL    HW124032   3.906   3.399   1.365 -2.9139 -0.3287 -0.6555
 5980SOL    HW224033   4.022   3.408   1.268  0.4436 -2.0683  2.8981
 5981SOL     OW24034   2.035   2.977   5.740 -0.5555  1.1681  0.1668
 5981SOL    HW124035   2.124   2.995   5.770 -0.4911  1.3540 -0.1369
 5981SOL    HW224036   1.982   2.979   5.820 -0.0046 -0.8603  0.6344
 5982SOL     OW24037   3.170   8.991   3.290  0.7703  0.2090  0.2692
 5982SOL    HW124038   3.210   8.922   3.343  0.7324  0.4197  0.5803
 5982SOL    HW224039   3.086   9.007   3.332 -0.5314 -1.5720 -1.5180
 5983SOL     OW24040   5.014   0.325   8.526  0.1416 -0.0134 -0.0281
 5983SOL    HW124041   5.061   0.243   8.538 -0.4580 -0.4215 -0.4069
 5983SOL    HW224042   5.064   0.372   8.459 -0.2151 -0.6248 -0.7303
 5984SOL     OW24043   3.410   5.202   1.180  0.5517  0.2196 -0.4085
 5984SOL    HW124044   3.466   5.132   1.213 -1.1458 -0.1497  1.9027
 5984SOL    HW224045   3.421   5.273   1.243 -1.2474  0.2749 -0.1051
 5985SOL     OW24046   8.828   1.190   6.475 -0.3795 -0.5505  0.3052
 5985SOL    HW124047   8.742   1.228   6.456  0.1948  2.2567  2.6202
 5985SOL    HW224048   8.846   1.216   6.566  3.3785 -0.0752 -0.4197
 5986SOL     OW24049  10.874   2.284  10.860  0.2758 -0.5432  0.3122
 5986SOL    HW124050  10.828   2.353  10.813  0.3845 -0.9014 -0.3396
 5986SOL    HW224051  10.911   2.229  10.791  2.9824  0.5463  0.7772
 5987SOL     OW24052   5.010   9.839   7.958 -0.4459 -0.3183 -0.6880
 5987SOL    HW124053   4.915   9.828   7.952 -0.5740 -1.3915  2.0471
 5987SOL    HW224054   5.022   9.923   8.002 -0.1010 -0.0003 -1.3752
 5988SOL     OW24055   8.527   8.961   3.001 -0.0805  0.2013  0.4847
 5988SOL    HW124056   8.567   8.891   3.054 -2.2121 -1.2823  0.2388
 5988SOL    HW224057   8.568   8.952   2.915 -0.9974 -1.4471  0.1680
 5989SOL     OW24058   5.961   0.136   7.738 -0.3104  0.1902 -0.1098
 5989SOL    HW124059   5.879   0.113   7.695  0.4348 -1.3199 -0.7786
 5989SOL    HW224060   5.989   0.216   7.692 -0.9093  0.1558 -0.5556
 5990SOL     OW24061   1.686   7.141   2.816  0.1022  0.0069 -0.1914
 5990SOL    HW124062   1.779   7.161   2.825 -0.0492  0.4849  0.3808
 5990SOL    HW224063   1.653   7.137   2.906 -0.3963 -0.3176 -0.3830
 5991SOL     OW24064   9.279   3.652   6.285  0.2858 -0.2315  0.3628
 5991SOL    HW124065   9.369   3.619   6.293  0.1054 -0.6859  0.5636
 5991SOL    HW224066   9.279   3.701   6.203  1.1220  1.1042  1.1352
 5992SOL     OW24067   3.711   1.741   3.592  0.0043 -0.3737 -0.3763
 5992SOL    HW124068   3.758   1.824   3.601 -0.1245 -0.2232 -1.0421
 5992SOL    HW224069   3.712   1.724   3.497  0.3672 -1.3243 -0.2072
 5993SOL     OW24070   4.027   2.117   6.132 -0.2293 -0.0800  0.2022
 5993SOL    HW124071   4.098   2.124   6.068  0.2985  0.6812  0.8466
 5993SOL    HW224072   3.984   2.202   6.130  0.4347  0.3217  1.5716
 5994SOL     OW24073   1.214   7.580   3.088  0.1847 -0.6205 -0.1345
 5994SOL    HW124074   1.152   7.601   3.159  1.5995  0.5720  0.8015
 5994SOL    HW224075   1.255   7.499   3.116  1.5258  0.4039  1.0236
 5995SOL     OW24076   1.840   8.180   4.064  0.2974  0.0289 -0.1342
 5995SOL    HW124077   1.829   8.163   4.157  1.7499 -0.1237  0.0330
 5995SOL    HW224078   1.893   8.107   4.032  1.4718  1.0877 -0.6717
 5996SOL     OW24079   3.456   1.518   5.176 -0.2457 -0.2739 -0.2123
 5996SOL    HW124080   3.430   1.438   5.222 -1.7311 -0.5115 -1.3894
 5996SOL    HW224081   3.404   1.587   5.216  0.2631 -0.0628  0.0944
 5997SOL     OW24082   9.540   2.518   2.724  0.1577  0.0927 -0.3189
 5997SOL    HW124083   9.587   2.580   2.779  0.7194 -0.1149 -0.5540
 5997SOL    HW224084   9.604   2.493   2.657 -0.4863  0.2720 -1.0069
 5998SOL     OW24085   9.061   1.050   9.428 -0.1706  0.1588 -0.0073
 5998SOL    HW124086   9.154   1.070   9.426 -0.0123 -0.5972 -0.7772
 5998SOL    HW224087   9.055   0.967   9.476 -0.7674  1.6727  2.6965
 5999SOL     OW24088   8.568   5.976   7.261  0.0850 -0.0751 -0.4558
 5999SOL    HW124089   8.513   6.051   7.237 -0.0578 -0.6960 -2.2166
 5999SOL    HW224090   8.524   5.901   7.223  0.3526 -1.0519  1.0936
 6000SOL     OW24091   1.462   9.766   1.964  0.2253 -1.1665  0.1590
 6000SOL    HW124092   1.484   9.689   1.911  0.5919 -1.0947  0.2079
 6000SOL    HW224093   1.400   9.815   1.910 -0.1862 -1.6084  0.2198
 6001SOL     OW24094   6.579   0.107   3.838  0.3015  0.4901 -0.6803
 6001SOL    HW124095   6.672   0.111   3.861  0.4525 -2.2477 -0.4587
 6001SOL    HW224096   6.544   0.192   3.864  2.4265  1.0302  0.6567
 6002SOL     OW24097   3.844   8.757  10.748  0.2098  0.0947 -0.3726
 6002SOL    HW124098   3.769   8.766  10.807  0.9489  1.0253  0.4550
 6002SOL    HW224099   3.863   8.663  10.748  0.7944  0.1622  1.6730
 6003SOL     OW24100   6.349  10.424   4.801  0.3206  0.1460  0.3583
 6003SOL    HW124101   6.423  10.475   4.832  0.5790  0.2296 -0.3835
 6003SOL    HW224102   6.388  10.360   4.741 -0.2233  0.3235 -0.1933
 6004SOL     OW24103   9.509   0.728   8.026 -0.0552  0.6465 -0.0910
 6004SOL    HW124104   9.531   0.726   8.119 -2.2664  0.3332  0.4929
 6004SOL    HW224105   9.471   0.815   8.012  0.7459  0.8838 -0.8348
 6005SOL     OW24106   6.511   9.119   1.557  0.0596  0.2779  0.0254
 6005SOL    HW124107   6.552   9.148   1.475  0.2924  1.7001  0.6149
 6005SOL    HW224108   6.551   9.173   1.625 -0.4039 -0.6155  1.0512
 6006SOL     OW24109   2.581   1.182  10.060  0.2467 -0.4612  0.2133
 6006SOL    HW124110   2.511   1.129  10.097  1.7432 -1.9313  1.0244
 6006SOL    HW224111   2.553   1.272  10.075 -1.7134 -0.9944  0.0070
 6007SOL     OW24112   5.627   3.972   8.030 -0.7565 -0.1211  0.0739
 6007SOL    HW124113   5.537   3.939   8.022 -1.5967  1.6052  1.7109
 6007SOL    HW224114   5.651   3.957   8.121  1.8028 -3.1656 -0.9129
 6008SOL     OW24115  10.683   5.236   8.433 -0.1422 -0.0611 -0.2705
 6008SOL    HW124116  10.614   5.292   8.469  0.7633  0.4756  0.6481
 6008SOL    HW224117  10.745   5.224   8.505  1.2706  0.3304 -1.3825
 6009SOL     OW24118   7.512   0.115   1.986 -0.2706  0.3506  0.0623
 6009SOL    HW124119   7.490   0.093   2.076 -0.1976 -0.2100 -0.0503
 6009SOL    HW224120   7.444   0.073   1.934 -0.6888  1.2254 -0.1091
 6010SOL     OW24121   2.363   9.543   7.196 -0.0489  0.0021  0.4530
 6010SOL    HW124122   2.414   9.462   7.199  0.4936  0.2971 -0.4574
 6010SOL    HW224123   2.423   9.609   7.162 -0.5307  0.7670  1.0267
 6011SOL     OW24124   1.622   2.152   2.369  0.1002 -1.0854 -0.0300
 6011SOL    HW124125   1.640   2.185   2.280  0.4952 -1.4465 -0.0842
 6011SOL    HW224126   1.697   2.096   2.389 -0.3809 -1.6427  0.2198
 6012SOL     OW24127   8.046   8.867   6.325 -0.3548  0.8190 -0.1793
 6012SOL    HW124128   8.098   8.861   6.406  0.3244  1.8550 -0.5080
 6012SOL    HW224129   7.956   8.874   6.355 -0.2922 -0.6150  0.4250
 6013SOL     OW24130   6.368  10.245   2.658 -0.1634 -0.0524 -0.4079
 6013SOL    HW124131   6.361  10.287   2.744 -0.7308  0.7780 -0.8442
 6013SOL    HW224132   6.305  10.292   2.603  1.5276  0.7173 -1.7831
 6014SOL     OW24133   9.505   0.560   5.263 -0.1998  0.5601  0.0574
 6014SOL    HW124134   9.560   0.606   5.326  0.1111 -0.0738  0.2518
 6014SOL    HW224135   9.449   0.504   5.317  0.1832 -0.1085 -0.2318
 6015SOL     OW24136   8.327   2.242   7.964 -0.2205 -0.4253 -0.2448
 6015SOL    HW124137   8.353   2.264   8.053 -2.9795  2.8365 -0.0224
 6015SOL    HW224138   8.275   2.162   7.973 -0.4375 -0.1575  1.0668
 6016SOL     OW24139   5.562   0.527   2.414 -0.2762 -0.0958  0.0684
 6016SOL    HW124140   5.476   0.512   2.453 -0.7734 -0.7430 -1.2130
 6016SOL    HW224141   5.550   0.505   2.321  1.0945  0.4771 -0.2671
 6017SOL     OW24142   5.998   7.579   3.407  0.4380 -0.5352 -0.3658
 6017SOL    HW124143   5.975   7.653   3.464 -1.5263 -1.5198  0.1882
 6017SOL    HW224144   6.025   7.620   3.325 -1.1408  0.8197 -0.2638
 6018SOL     OW24145   4.404   1.606   7.805  0.0762 -0.4113 -0.2131
 6018SOL    HW124146   4.331   1.666   7.820  0.3759  0.1005 -0.7313
 6018SOL    HW224147   4.364   1.519   7.802 -0.3990 -0.2117  0.2895
 6019SOL     OW24148   3.157   8.877   4.107  0.0492  0.1007 -0.1012
 6019SOL    HW124149   3.181   8.817   4.037  0.2959  1.2716 -1.0485
 6019SOL    HW224150   3.239   8.890   4.156 -0.3010 -1.3421  0.9337
 6020SOL     OW24151   5.207   7.208   3.713  0.0452 -0.1932  0.2508
 6020SOL    HW124152   5.193   7.295   3.677  1.0932  0.0735  0.4708
 6020SOL    HW224153   5.120   7.181   3.743  0.0045  1.5559  1.9153
 6021SOL     OW24154   5.585   3.516   2.360 -0.3414  0.0732 -1.0138
 6021SOL    HW124155   5.576   3.435   2.311 -0.8554  0.3031 -1.3111
 6021SOL    HW224156   5.495   3.547   2.372 -0.1776  0.3971 -0.5611
 6022SOL     OW24157   1.448   1.021   8.703  0.5721  0.4066  0.1204
 6022SOL    HW124158   1.401   0.958   8.758  1.0905  0.7904  1.0247
 6022SOL    HW224159   1.467   0.973   8.623  0.1668 -0.2989  0.4368
 6023SOL     OW24160   0.586   2.552   7.754  0.0443  0.1315 -0.2853
 6023SOL    HW124161   0.558   2.524   7.667 -0.7923  2.8107 -0.9464
 6023SOL    HW224162   0.517   2.520   7.813 -1.5041  1.7026 -1.1677
 6024SOL     OW24163   4.901   1.802   1.009  0.3213  0.2208  0.2414
 6024SOL    HW124164   4.837   1.772   1.074 -0.3513 -2.2512 -1.4173
 6024SOL    HW224165   4.849   1.855   0.947  0.4317  0.4016  0.3022
 6025SOL     OW24166   8.928   1.416   8.231 -0.5604  0.4205  0.1743
 6025SOL    HW124167   9.012   1.442   8.194 -1.3767  0.7618 -1.5376
 6025SOL    HW224168   8.898   1.345   8.174 -1.0297 -0.3180  1.3130
 6026SOL     OW24169   5.061   7.565   9.454 -0.3099 -0.3048 -0.5009
 6026SOL    HW124170   5.081   7.658   9.454  1.5658 -0.5139  3.1752
 6026SOL    HW224171   4.965   7.560   9.454 -0.4476  1.6575  0.2656
 6027SOL     OW24172   4.886   2.960   5.319  0.1161  0.5007  0.0930
 6027SOL    HW124173   4.897   2.900   5.245  0.9418  1.9865 -1.0581
 6027SOL    HW224174   4.830   3.030   5.285  1.0200  1.5259  0.6353
 6028SOL     OW24175   8.841   5.669   7.545  0.2613 -0.2070 -0.0691
 6028SOL    HW124176   8.885   5.665   7.460 -0.4712 -0.5511 -0.4355
 6028SOL    HW224177   8.762   5.720   7.529  0.3477  0.1214  0.5140
 6029SOL     OW24178  10.268   7.323   0.625  0.2797 -0.1515  0.6794
 6029SOL    HW124179  10.354   7.366   0.625  0.0112  0.4008  0.1876
 6029SOL    HW224180  10.283   7.240   0.670  1.1346 -0.1838  0.3545
 6030SOL     OW24181   9.286   9.915   5.847 -0.1575 -0.3140 -0.0860
 6030SOL    HW124182   9.329   9.905   5.932 -1.5005  0.2511  0.6965
 6030SOL    HW224183   9.225   9.988   5.860 -1.1071 -0.8719 -1.2392
 6031SOL     OW24184   3.465   8.728   4.878 -0.0729  0.7740  0.2264
 6031SOL    HW124185   3.475   8.644   4.924 -1.1120  1.1994  1.2788
 6031SOL    HW224186   3.410   8.708   4.803  0.1297  0.4208  0.1684
 6032SOL     OW24187   6.386   6.732   7.450  0.2206  0.1347 -0.2952
 6032SOL    HW124188   6.383   6.781   7.533 -2.2803 -1.9155  0.9450
 6032SOL    HW224189   6.399   6.800   7.384 -0.4624  2.1963  1.5395
 6033SOL     OW24190   1.654   7.434   8.969 -0.1005 -0.2332 -0.4293
 6033SOL    HW124191   1.636   7.353   8.921 -2.1981 -0.7558  1.1191
 6033SOL    HW224192   1.671   7.406   9.059 -0.9203  1.0511  0.1549
 6034SOL     OW24193   1.601   6.805   5.055  0.5144 -0.2156  0.3076
 6034SOL    HW124194   1.607   6.806   4.960  0.3926 -1.6732  0.2734
 6034SOL    HW224195   1.547   6.882   5.076  2.8577  1.7758 -0.5784
 6035SOL     OW24196   8.045   5.357   2.430 -0.2194  0.2240  0.3079
 6035SOL    HW124197   7.983   5.332   2.498  2.3392  0.6555  3.0276
 6035SOL    HW224198   8.055   5.278   2.377 -2.1142 -0.2167  0.5310
 6036SOL     OW24199   9.955   9.059   4.828 -0.1508  0.0345  0.2646
 6036SOL    HW124200   9.911   8.993   4.881 -0.3735  1.0944  1.4466
 6036SOL    HW224201   9.978   9.014   4.747 -2.6198 -0.8225 -0.0486
 6037SOL     OW24202   2.072   2.260  10.861  0.3367 -0.0822  0.2997
 6037SOL    HW124203   2.121   2.288  10.938  0.1238 -1.3953  0.9477
 6037SOL    HW224204   1.983   2.289  10.878  0.6439  1.2695 -0.3325
 6038SOL     OW24205  10.077   5.820   6.599 -0.4246 -0.5495  0.6165
 6038SOL    HW124206  10.029   5.857   6.673  0.1107 -0.9190  1.1638
 6038SOL    HW224207  10.144   5.886   6.578 -0.3005 -0.6309  0.7500
 6039SOL     OW24208   0.553   5.364  10.137 -0.4114 -0.6640 -0.3541
 6039SOL    HW124209   0.627   5.321  10.094  0.3712  0.1070  0.1882
 6039SOL    HW224210   0.492   5.293  10.157  0.6380 -1.4633  0.0939
 6040SOL     OW24211   3.182   0.256   2.808 -0.2452  0.3040  0.4922
 6040SOL    HW124212   3.195   0.162   2.814 -0.5978  0.2606  0.6089
 6040SOL    HW224213   3.175   0.285   2.899 -0.3956  0.4039  0.4493
 6041SOL     OW24214   7.379   9.841   4.395 -0.0104  0.5431  0.4884
 6041SOL    HW124215   7.469   9.808   4.395 -0.2653 -0.1872  1.6172
 6041SOL    HW224216   7.389   9.936   4.381  0.9340  0.4783  0.6276
 6042SOL     OW24217   5.649   7.883   1.535 -0.1716  0.1303  0.0948
 6042SOL    HW124218   5.587   7.811   1.519  1.4700 -1.5045  0.7619
 6042SOL    HW224219   5.615   7.927   1.613 -1.2156  0.1353 -0.3383
 6043SOL     OW24220   4.490  10.466  10.562 -0.2748 -0.1291  0.8447
 6043SOL    HW124221   4.536  10.510  10.633 -1.6788  1.1001  1.0366
 6043SOL    HW224222   4.551  10.397  10.533  1.6638  1.4147  1.0483
 6044SOL     OW24223   2.849   0.643   7.807  0.2140  0.0712 -0.5033
 6044SOL    HW124224   2.781   0.581   7.783 -0.2897 -0.2213  1.5491
 6044SOL    HW224225   2.929   0.607   7.768 -0.4034 -0.7807 -1.0160
 6045SOL     OW24226   0.235   8.075   5.684  0.3195  0.2913  0.3447
 6045SOL    HW124227   0.226   8.044   5.774 -1.3933 -1.5168 -0.3842
 6045SOL    HW224228   0.324   8.049   5.658 -0.5321 -2.8653  0.2569
 6046SOL     OW24229   5.728   8.077  10.148 -0.2415 -0.0926 -0.0239
 6046SOL    HW124230   5.775   8.061  10.229 -0.1902  2.0268  0.4246
 6046SOL    HW224231   5.777   8.028  10.082  0.7709 -0.4030  0.9306
 6047SOL     OW24232   3.029   6.436   4.714  0.7039 -0.4121  0.2484
 6047SOL    HW124233   2.976   6.372   4.761  2.3156 -1.5328  0.6149
 6047SOL    HW224234   3.049   6.503   4.779 -0.7217  0.3514 -0.0540
 6048SOL     OW24235   4.249   2.899   7.929 -0.5631 -0.5366  0.0760
 6048SOL    HW124236   4.309   2.825   7.922 -1.8075 -1.5860  0.2155
 6048SOL    HW224237   4.301   2.969   7.969  1.5241 -0.2977 -2.7978
 6049SOL     OW24238   5.555   7.851   0.934 -0.5225 -0.2371 -0.1316
 6049SOL    HW124239   5.485   7.787   0.933 -0.8069  0.0723 -1.1511
 6049SOL    HW224240   5.556   7.885   1.023 -1.5306 -0.3962 -0.0546
 6050SOL     OW24241   1.608   0.679   1.640 -0.1186 -0.2315  0.1326
 6050SOL    HW124242   1.635   0.771   1.636 -1.2437  0.0790 -1.2367
 6050SOL    HW224243   1.537   0.673   1.576 -0.5557 -1.8966  0.7406
 6051SOL     OW24244  10.754   4.939  10.700  0.2759 -0.8037 -0.1275
 6051SOL    HW124245  10.824   5.001  10.681 -1.1796  0.3923 -1.9486
 6051SOL    HW224246  10.799   4.863  10.737  2.0742  1.4036  2.6087
 6052SOL     OW24247   6.627   8.867   3.505  0.1043  0.3939 -0.6467
 6052SOL    HW124248   6.558   8.818   3.549  0.4527 -3.0078 -3.4737
 6052SOL    HW224249   6.689   8.889   3.575 -1.4956 -0.7480  1.2206
 6053SOL     OW24250   3.987   7.350   6.876  0.2541  0.6111  0.0552
 6053SOL    HW124251   3.933   7.428   6.887  0.6588  1.0294 -0.8072
 6053SOL    HW224252   3.975   7.325   6.785 -1.8575 -1.8630  0.8997
 6054SOL     OW24253   9.859   6.011   9.087 -0.4530  0.5461 -0.7390
 6054SOL    HW124254   9.817   5.994   9.002  0.8346 -0.8328 -1.1455
 6054SOL    HW224255   9.881   5.924   9.120 -2.2234  0.9555  1.7372
 6055SOL     OW24256   8.016   2.295   8.988 -0.8496  0.0319  0.7112
 6055SOL    HW124257   8.039   2.382   8.956 -1.1855  0.2191  0.9692
 6055SOL    HW224258   7.997   2.308   9.081 -1.9870 -0.1036  0.5104
 6056SOL     OW24259   2.519   3.974   1.614 -0.1974 -0.1951  1.2153
 6056SOL    HW124260   2.476   3.968   1.528 -0.1696  0.9065  1.1091
 6056SOL    HW224261   2.448   3.957   1.677 -0.2301 -0.9454  0.9871
 6057SOL     OW24262   8.724  10.416   6.975  0.2334  0.5438 -0.2234
 6057SOL    HW124263   8.662  10.356   6.933 -0.1551  0.7178  0.0940
 6057SOL    HW224264   8.733  10.382   7.064 -1.6112  2.1427  0.6260
 6058SOL     OW24265   3.800   5.574   0.494  0.2292  0.4428 -0.1133
 6058SOL    HW124266   3.784   5.646   0.556  1.2881  1.4444 -0.9645
 6058SOL    HW224267   3.769   5.496   0.540  3.0895  0.7550  2.7284
 6059SOL     OW24268   4.327   6.463   4.232  0.2154 -0.1495  0.2567
 6059SOL    HW124269   4.350   6.430   4.145 -0.0319  0.6755 -0.1304
 6059SOL    HW224270   4.367   6.400   4.293  0.6146 -0.5874 -0.4435
 6060SOL     OW24271   8.308   0.434   3.432 -0.1587 -0.0713  0.6201
 6060SOL    HW124272   8.301   0.402   3.342  4.0073 -2.1673  0.7752
 6060SOL    HW224273   8.271   0.364   3.485 -0.8287  0.2763  0.6154
 6061SOL     OW24274   5.500   5.218   0.432 -0.4101 -0.1164  0.2588
 6061SOL    HW124275   5.595   5.216   0.442 -0.3995  0.4981  0.3362
 6061SOL    HW224276   5.484   5.179   0.346 -0.2100 -1.7033  0.9187
 6062SOL     OW24277   4.666   5.459   8.294 -0.1103  0.5555  0.0348
 6062SOL    HW124278   4.574   5.436   8.304 -0.1922  0.1350 -1.3638
 6062SOL    HW224279   4.709   5.376   8.271  0.3118  1.0201 -0.9570
 6063SOL     OW24280   0.015   2.436   5.810 -0.4798 -0.0039  0.2048
 6063SOL    HW124281   0.004   2.381   5.733 -1.1832  1.2436 -0.6357
 6063SOL    HW224282  -0.042   2.512   5.793  1.8564  1.9093  0.3955
 6064SOL     OW24283   9.811  10.316   5.164  0.0917  0.0434 -0.1172
 6064SOL    HW124284   9.756  10.305   5.242  0.8194  0.5643  0.4917
 6064SOL    HW224285   9.803  10.233   5.117 -1.3024  0.1581 -0.1212
 6065SOL     OW24286   5.185   8.702   3.721  0.0214  0.1623  0.3964
 6065SOL    HW124287   5.260   8.695   3.780  0.4306  4.0041  0.5695
 6065SOL    HW224288   5.217   8.758   3.650 -2.1499  0.3396 -0.4998
 6066SOL     OW24289   6.462   7.966   7.019 -0.1272  0.0736  0.3472
 6066SOL    HW124290   6.492   7.964   7.109 -1.2173 -1.8441  0.7264
 6066SOL    HW224291   6.375   7.924   7.022  0.3703 -1.2438 -1.7610
 6067SOL     OW24292   9.051   6.532   5.335 -0.0430  0.2105 -0.2545
 6067SOL    HW124293   9.038   6.447   5.293  1.1416  0.0938 -0.4205
 6067SOL    HW224294   8.963   6.565   5.351 -0.6330 -2.0559  1.8868
 6068SOL     OW24295   2.159   5.895   1.548  0.0622 -0.1180 -0.6359
 6068SOL    HW124296   2.109   5.857   1.476 -2.1073 -0.5955  1.0053
 6068SOL    HW224297   2.109   5.873   1.626  1.3682  1.8971  0.8824
 6069SOL     OW24298   4.040   1.497   9.391  0.1973  0.2316  0.0966
 6069SOL    HW124299   4.123   1.452   9.375  0.1297  0.3016 -0.4713
 6069SOL    HW224300   4.057   1.587   9.364 -0.2168  0.1280 -0.5485
 6070SOL     OW24301   3.137   6.976   9.277  0.2943  0.4244 -0.2846
 6070SOL    HW124302   3.139   6.973   9.182  2.8267 -0.5306 -0.2811
 6070SOL    HW224303   3.190   7.052   9.300  0.2564  0.2637  0.3570
 6071SOL     OW24304   3.636   4.829   9.255  0.2628 -0.7075 -0.3800
 6071SOL    HW124305   3.583   4.859   9.329 -0.9524  0.2014 -1.5795
 6071SOL    HW224306   3.722   4.866   9.270 -0.6629  1.7445 -0.7460
 6072SOL     OW24307   5.846   1.250   6.427  0.1769  0.0802  0.1613
 6072SOL    HW124308   5.752   1.260   6.410  0.1399  0.5196  0.5960
 6072SOL    HW224309   5.854   1.168   6.475  0.0179  0.0242  0.0907
 6073SOL     OW24310   3.195   7.540   3.092  0.3677  0.0083  0.0256
 6073SOL    HW124311   3.253   7.568   3.163 -2.9283  1.1452  2.5224
 6073SOL    HW224312   3.175   7.620   3.044  0.4730 -0.3038 -0.5553
 6074SOL     OW24313   2.393   5.937   4.394  0.1064 -0.4689 -0.1761
 6074SOL    HW124314   2.370   5.968   4.482 -1.3113 -1.4556 -0.1594
 6074SOL    HW224315   2.330   5.980   4.336  0.1034 -0.9278 -0.5192
 6075SOL     OW24316   6.531   0.374   6.729  0.1637 -0.1017 -0.3715
 6075SOL    HW124317   6.573   0.460   6.724  0.5372 -0.2682 -0.1380
 6075SOL    HW224318   6.454   0.381   6.672  1.3377 -0.2592 -2.0404
 6076SOL     OW24319   9.209   6.401   5.732 -0.0401  0.0140 -0.7393
 6076SOL    HW124320   9.200   6.467   5.663 -0.9666  0.3766 -0.2803
 6076SOL    HW224321   9.124   6.400   5.776  1.3988  2.0391  2.4054
 6077SOL     OW24322  10.303  10.565   9.277 -0.7614 -0.1212 -0.4093
 6077SOL    HW124323  10.256  10.484   9.258 -1.2985 -0.1667  1.0431
 6077SOL    HW224324  10.335  10.555   9.366 -0.9605  1.3301 -0.1419
 6078SOL     OW24325   7.606   1.714   9.211  0.2881  0.0062  0.1519
 6078SOL    HW124326   7.624   1.779   9.144  1.6127 -1.1285 -0.6605
 6078SOL    HW224327   7.584   1.634   9.162 -0.2017 -0.4541  1.0920
 6079SOL     OW24328   8.385   0.175   8.313  0.1434 -0.5477  0.7516
 6079SOL    HW124329   8.442   0.241   8.274 -0.1402 -0.5744  0.2905
 6079SOL    HW224330   8.349   0.128   8.239 -0.5945 -0.4348  1.0357
 6080SOL     OW24331   7.545   8.973  10.350  0.0768 -0.2382  0.5313
 6080SOL    HW124332   7.485   8.997  10.280 -1.9167  0.3373  2.3501
 6080SOL    HW224333   7.568   9.056  10.392  1.7426 -0.5063  0.2544
 6081SOL     OW24334   2.544   8.371   3.265 -0.2862  0.5941 -0.2554
 6081SOL    HW124335   2.467   8.398   3.313  0.1027  0.9097  0.1993
 6081SOL    HW224336   2.552   8.434   3.194 -0.4978  0.5009 -0.3638
 6082SOL     OW24337   7.054   5.207   9.271 -0.3314  0.2850  0.3931
 6082SOL    HW124338   7.124   5.222   9.334  0.8348 -0.0164 -0.7761
 6082SOL    HW224339   6.975   5.203   9.323  0.3251  2.0434  1.6287
 6083SOL     OW24340   1.938   4.504   9.794  0.8348  0.0908 -0.9167
 6083SOL    HW124341   2.008   4.494   9.730  0.4877  0.9678 -1.4379
 6083SOL    HW224342   1.900   4.416   9.803  1.1316 -0.1092 -1.6194
 6084SOL     OW24343   0.858   1.669   2.087  0.2414  0.0369  1.0599
 6084SOL    HW124344   0.904   1.604   2.140  0.7934  0.0698  0.6281
 6084SOL    HW224345   0.774   1.682   2.132 -0.3706 -1.8182  0.5192
 6085SOL     OW24346   9.333   9.081   7.147 -0.5649  0.1708  0.2045
 6085SOL    HW124347   9.402   9.067   7.082 -0.6945 -0.2685  0.1635
 6085SOL    HW224348   9.254   9.099   7.096 -0.5720  0.2729  0.2497
 6086SOL     OW24349   5.436  10.212   1.458 -0.2203 -0.7557 -0.0824
 6086SOL    HW124350   5.442  10.176   1.369  1.8971  1.3259 -0.8639
 6086SOL    HW224351   5.527  10.233   1.481 -0.9146  0.1550  1.9830
 6087SOL     OW24352   2.991   7.539   5.781  0.3608  0.0045  0.0163
 6087SOL    HW124353   2.970   7.603   5.849 -3.5630 -1.8468  0.8483
 6087SOL    HW224354   3.059   7.484   5.819 -0.8591 -0.2107  2.0154
 6088SOL     OW24355   5.327   5.064   7.255  0.3105 -0.4467 -0.2072
 6088SOL    HW124356   5.396   5.107   7.204  0.8564 -1.8154 -0.6540
 6088SOL    HW224357   5.369   5.040   7.337 -0.0056 -0.1279  0.0557
 6089SOL     OW24358   3.452   8.171   9.511 -0.5571 -0.1467  0.1970
 6089SOL    HW124359   3.363   8.197   9.485 -0.6175  1.1634  1.5841
 6089SOL    HW224360   3.491   8.252   9.544  1.5849 -0.4237 -1.4709
 6090SOL     OW24361   4.562   3.377   1.720 -0.1356  0.0773 -0.5015
 6090SOL    HW124362   4.601   3.459   1.749  0.5915 -0.3676 -0.1868
 6090SOL    HW224363   4.483   3.403   1.673 -0.4129  0.9048  0.3859
 6091SOL     OW24364   3.107   4.254   4.958  0.5720 -0.6545 -0.7073
 6091SOL    HW124365   3.201   4.259   4.942  1.4007  0.9413  3.4501
 6091SOL    HW224366   3.091   4.163   4.984  0.5228 -1.3715 -3.0241
 6092SOL     OW24367   7.565   3.632   8.381 -0.1014  0.4000  0.0855
 6092SOL    HW124368   7.577   3.710   8.327 -3.1889  1.0308  0.1302
 6092SOL    HW224369   7.479   3.598   8.355 -0.1939 -1.2003  2.2495
 6093SOL     OW24370   9.209  10.591   2.111 -0.4402 -0.1020 -0.0505
 6093SOL    HW124371   9.213  10.616   2.019 -4.0677 -0.0674 -0.3220
 6093SOL    HW224372   9.187  10.498   2.110 -0.3268 -0.1490  0.7886
 6094SOL     OW24373  10.131   0.021   8.359  0.6952  0.2899  0.3088
 6094SOL    HW124374  10.116   0.114   8.342  2.6927  0.4840 -0.6796
 6094SOL    HW224375  10.094  -0.024   8.284  0.4944  0.3589  0.3675
 6095SOL     OW24376   1.227   7.006   1.107 -0.0173  0.1801  0.2854
 6095SOL    HW124377   1.184   7.001   1.022  0.8400  1.7718 -0.2911
 6095SOL    HW224378   1.298   7.069   1.094 -0.0695  0.7200  2.2623
 6096SOL     OW24379   9.618   3.983   1.482 -0.1582  0.0018  0.2571
 6096SOL    HW124380   9.640   3.905   1.430  0.5386  0.5169 -0.2536
 6096SOL    HW224381   9.529   3.967   1.513  1.0848 -2.4863  2.9390
 6097SOL     OW24382   8.179  10.263   9.025  0.0407  0.0078 -0.0369
 6097SOL    HW124383   8.093  10.222   9.016 -0.3658  0.7440  0.3977
 6097SOL    HW224384   8.175  10.307   9.110  0.4544  0.9591 -0.5059
 6098SOL     OW24385   8.312   2.264  10.571  0.4009  0.4598 -0.1412
 6098SOL    HW124386   8.219   2.285  10.564 -0.0916 -0.8990  1.4377
 6098SOL    HW224387   8.347   2.330  10.630  0.3186  0.6481 -0.3005
 6099SOL     OW24388   7.586   7.704   5.303 -0.0532 -0.4478  1.3096
 6099SOL    HW124389   7.559   7.735   5.389 -0.3173 -1.3606  1.5729
 6099SOL    HW224390   7.569   7.777   5.244  1.7435  0.8283  2.2701
 6100SOL     OW24391   7.564  10.005   8.697  0.2814 -0.1922  0.2351
 6100SOL    HW124392   7.613  10.086   8.691 -0.9477  0.5739  0.0837
 6100SOL    HW224393   7.540   9.998   8.790  0.6262 -0.5329  0.2999
 6101SOL     OW24394   7.493  10.017   1.793  0.5572  0.2566 -0.1299
 6101SOL    HW124395   7.471   9.967   1.714  0.3145 -0.4300  0.3698
 6101SOL    HW224396   7.468  10.107   1.772 -0.2449 -0.0574 -0.5397
 6102SOL     OW24397   3.119   0.808   9.730 -0.2036 -0.0570 -0.4151
 6102SOL    HW124398   3.115   0.782   9.638  0.3894 -0.2945 -0.3807
 6102SOL    HW224399   3.028   0.824   9.755 -0.3656  0.0473 -1.0540
 6103SOL     OW24400   9.182   8.481   3.285  0.1109 -0.2076  0.5664
 6103SOL    HW124401   9.087   8.479   3.278  0.0730 -3.2494  0.7307
 6103SOL    HW224402   9.212   8.502   3.196 -0.7164 -1.0858  0.0606
 6104SOL     OW24403   6.771  10.852   1.065  0.1363 -0.1672  0.4881
 6104SOL    HW124404   6.696  10.906   1.041  0.2737 -0.4366 -0.6055
 6104SOL    HW224405   6.809  10.896   1.141 -1.9483 -0.7988  1.9995
 6105SOL     OW24406   5.858   8.670   0.451  0.5021  0.2520 -0.2325
 6105SOL    HW124407   5.793   8.667   0.380 -1.4818  1.4112  1.4316
 6105SOL    HW224408   5.865   8.580   0.481 -1.6231  0.3125  0.6024
 6106SOL     OW24409   6.282   6.294   2.948  0.0675  0.4893 -1.0178
 6106SOL    HW124410   6.217   6.280   2.879  0.0362 -0.8736 -0.7420
 6106SOL    HW224411   6.361   6.252   2.915 -0.0084 -0.3816 -0.1548
 6107SOL     OW24412   6.918   1.664  10.576 -0.5154  0.0876 -0.0122
 6107SOL    HW124413   6.966   1.600  10.523  0.3589  0.4524  0.3090
 6107SOL    HW224414   6.831   1.627  10.586 -0.6358 -0.1113 -1.4951
 6108SOL     OW24415   6.304   8.763   6.748 -0.1807 -0.5383 -0.1959
 6108SOL    HW124416   6.309   8.848   6.705  2.1051 -1.2555 -1.5103
 6108SOL    HW224417   6.250   8.709   6.690  1.4400 -0.9928 -1.3590
 6109SOL     OW24418   7.217   8.818   8.849 -0.0045  0.8006 -0.2296
 6109SOL    HW124419   7.289   8.828   8.911 -1.1312  0.6674  1.1702
 6109SOL    HW224420   7.257   8.829   8.763  1.5977  1.1283  0.5197
 6110SOL     OW24421   6.038   0.862   0.581 -0.1897 -0.3504  0.1939
 6110SOL    HW124422   5.982   0.863   0.657 -1.7521 -2.1967 -0.8620
 6110SOL    HW224423   5.991   0.914   0.515 -1.5099 -3.0936 -1.1742
 6111SOL     OW24424   9.203   0.754   4.878  0.5613  0.3827  0.4330
 6111SOL    HW124425   9.205   0.848   4.896 -0.3615  0.1682  1.8963
 6111SOL    HW224426   9.113   0.738   4.849  0.6002 -0.1199  0.5889
 6112SOL     OW24427   6.400   7.189  10.361 -0.0344 -0.1626 -0.0955
 6112SOL    HW124428   6.398   7.283  10.381  2.9445  0.4266 -1.9120
 6112SOL    HW224429   6.466   7.154  10.422 -0.3241 -0.8781 -0.1833
 6113SOL     OW24430   4.395   9.992   1.456 -0.6060 -0.2524  0.3561
 6113SOL    HW124431   4.307  10.027   1.439 -0.5959 -0.4923 -0.2249
 6113SOL    HW224432   4.381   9.898   1.472 -0.4757 -0.2646  0.4027
 6114SOL     OW24433   6.124   0.044   9.136 -0.6172  0.2432 -0.0349
 6114SOL    HW124434   6.114   0.028   9.042  1.7869 -0.4616 -0.2437
 6114SOL    HW224435   6.158  -0.038   9.171  0.6916  1.1811  1.0002
 6115SOL     OW24436   9.158   3.161   9.016  0.4446 -0.5394  0.0455
 6115SOL    HW124437   9.176   3.079   9.062  1.2485 -0.7479 -0.6203
 6115SOL    HW224438   9.123   3.134   8.931 -3.6749 -0.1706  1.4068
 6116SOL     OW24439   6.636   5.266   7.884  0.2842  0.3278 -0.3383
 6116SOL    HW124440   6.698   5.197   7.859 -0.1087 -0.3830  0.6343
 6116SOL    HW224441   6.682   5.347   7.862  1.3161 -0.2038 -0.2138
 6117SOL     OW24442   0.527   6.611   7.862  0.0042  0.0514  0.2517
 6117SOL    HW124443   0.478   6.568   7.792  0.4373  1.0534 -0.7072
 6117SOL    HW224444   0.618   6.588   7.844  0.3215  1.8677 -0.7008
 6118SOL     OW24445   4.778   7.287   1.944 -0.2188  0.0967  0.5227
 6118SOL    HW124446   4.803   7.230   2.017  2.6326 -1.3259 -1.3554
 6118SOL    HW224447   4.820   7.371   1.964  0.4166 -0.2358  0.6065
 6119SOL     OW24448   1.233   8.490   8.635 -0.3233 -0.5983  0.1414
 6119SOL    HW124449   1.315   8.456   8.671  0.0824 -2.4613 -2.3056
 6119SOL    HW224450   1.165   8.455   8.693  0.4465 -1.3141  0.6340
 6120SOL     OW24451   0.695   9.554   6.310 -0.1958  0.6057 -0.3557
 6120SOL    HW124452   0.690   9.561   6.214  0.3353 -0.0423 -0.4424
 6120SOL    HW224453   0.781   9.590   6.331 -0.7933  1.8612  0.0093
 6121SOL     OW24454   0.924   4.904   1.073 -0.1057  0.1214  0.9437
 6121SOL    HW124455   0.997   4.845   1.055 -0.0677  0.4231  0.0429
 6121SOL    HW224456   0.965   4.986   1.099 -0.1466 -0.0010  1.4062
 6122SOL     OW24457   8.360   1.730  10.309 -0.4922  0.8035 -0.7639
 6122SOL    HW124458   8.398   1.643  10.312  0.8175  1.2677 -2.4419
 6122SOL    HW224459   8.393   1.774  10.388  0.5201  0.4316 -0.9726
 6123SOL     OW24460   1.654  10.204   1.558 -0.8459 -0.4324 -0.3238
 6123SOL    HW124461   1.652  10.285   1.608  1.3781 -0.3163 -0.2885
 6123SOL    HW224462   1.630  10.136   1.620  0.7175 -0.1470  0.6581
 6124SOL     OW24463   0.946   2.295   2.963  0.6218  0.0280 -0.0901
 6124SOL    HW124464   0.966   2.384   2.990  0.8299 -0.3143  0.9173
 6124SOL    HW224465   0.856   2.299   2.931  1.2092  0.9454 -1.7256
 6125SOL     OW24466   1.661  10.030   2.010 -0.6665  0.8307  0.1017
 6125SOL    HW124467   1.617   9.993   1.934  0.5308  0.8676 -0.6289
 6125SOL    HW224468   1.690   9.954   2.061 -1.8826  0.8077  0.7829
 6126SOL     OW24469   8.728   0.499   4.303  0.6125 -0.5650 -0.2606
 6126SOL    HW124470   8.822   0.518   4.313  1.0229 -2.2273 -0.6714
 6126SOL    HW224471   8.723   0.404   4.302 -1.1237 -0.5048 -0.0512
 6127SOL     OW24472  10.916   7.237   6.452 -0.2379 -0.2079 -0.2054
 6127SOL    HW124473  10.913   7.143   6.434  2.4381 -0.5557  0.6588
 6127SOL    HW224474  10.938   7.242   6.545  0.5026  1.2253 -0.4304
 6128SOL     OW24475   6.628   6.772   5.795  0.0840 -0.7692 -0.0749
 6128SOL    HW124476   6.534   6.757   5.799 -0.3536  1.7656  0.8968
 6128SOL    HW224477   6.644   6.806   5.707 -0.3376  1.0225  0.5095
 6129SOL     OW24478   0.985   7.685   0.905 -0.1305  0.0919  0.1043
 6129SOL    HW124479   0.971   7.775   0.935  1.0400 -0.4197  2.4749
 6129SOL    HW224480   1.070   7.688   0.861 -1.4532  0.6697 -2.5815
 6130SOL     OW24481   5.634   8.487   4.852  0.3120  0.2204 -0.0560
 6130SOL    HW124482   5.668   8.484   4.941 -0.0312  1.1551  0.1265
 6130SOL    HW224483   5.648   8.578   4.824  2.8157 -0.6513 -1.9425
 6131SOL     OW24484   8.334   2.017   4.649  0.4937 -0.4268  0.0766
 6131SOL    HW124485   8.362   2.017   4.557 -0.7431  2.4477 -0.4174
 6131SOL    HW224486   8.391   2.082   4.691 -0.3728 -0.1283  0.8086
 6132SOL     OW24487   9.441   9.003   5.069  0.5132  1.1016 -0.4812
 6132SOL    HW124488   9.403   9.055   4.999 -1.6562  0.6329  0.2936
 6132SOL    HW224489   9.429   9.055   5.148 -0.5396  0.0275  0.1062
 6133SOL     OW24490   6.308  10.471   1.522 -0.4376 -0.1010  0.1033
 6133SOL    HW124491   6.391  10.455   1.567  0.0057 -0.7474 -0.9038
 6133SOL    HW224492   6.316  10.422   1.440 -1.9941 -0.5291  0.1860
 6134SOL     OW24493   7.747  10.634   2.039  0.8298  0.6972 -0.4308
 6134SOL    HW124494   7.797  10.557   2.012  2.1571  1.6725 -0.8889
 6134SOL    HW224495   7.794  10.666   2.116  0.5207  1.2597 -0.4754
 6135SOL     OW24496   2.089   6.861   0.143 -0.2517  0.2042  0.4896
 6135SOL    HW124497   2.014   6.816   0.106 -1.0158  1.6389  0.2082
 6135SOL    HW224498   2.106   6.934   0.082  1.2107  0.0584  0.6800
 6136SOL     OW24499   5.315   3.605   8.440  0.3095 -0.6249 -0.1299
 6136SOL    HW124500   5.356   3.526   8.406  3.3247  1.6559 -2.3663
 6136SOL    HW224501   5.243   3.622   8.379  0.9730 -0.5770 -0.9226
 6137SOL     OW24502   6.073   9.835   6.243  0.2806  0.1976 -0.0315
 6137SOL    HW124503   5.984   9.869   6.233 -0.2392 -0.6074  1.5199
 6137SOL    HW224504   6.080   9.764   6.179 -1.7104 -2.5316  2.5010
 6138SOL     OW24505   5.318   1.831   5.765  0.7872  0.1064  0.3992
 6138SOL    HW124506   5.268   1.781   5.829  1.0372  0.0118  0.5224
 6138SOL    HW224507   5.252   1.879   5.715  0.5616 -0.1466  0.4479
 6139SOL     OW24508   3.183   9.302   3.760  0.2562 -0.2232  0.1205
 6139SOL    HW124509   3.116   9.353   3.805  0.1760 -0.4483  0.2535
 6139SOL    HW224510   3.160   9.308   3.667  1.9131  2.5160 -0.2288
 6140SOL     OW24511   0.313   3.920   6.302  0.5887 -0.6097 -0.5098
 6140SOL    HW124512   0.311   3.831   6.267  1.1663 -1.5225  1.5766
 6140SOL    HW224513   0.283   3.910   6.393  1.0956  1.2524 -0.1025
 6141SOL     OW24514   0.825   7.755   8.679  0.2361 -0.2733 -0.0334
 6141SOL    HW124515   0.731   7.765   8.692  0.4858  0.4357  1.5295
 6141SOL    HW224516   0.852   7.692   8.747  0.9253 -0.2689 -0.2934
 6142SOL     OW24517   9.490  10.143   5.225  0.0129 -0.6768 -0.6045
 6142SOL    HW124518   9.503  10.094   5.144 -0.7656 -1.6802 -0.1509
 6142SOL    HW224519   9.423  10.093   5.272  0.7694 -0.3611  0.8541
 6143SOL     OW24520   9.469  10.668   5.868 -1.0567  0.2218  0.0624
 6143SOL    HW124521   9.511  10.732   5.811  0.3415 -1.7468 -1.2750
 6143SOL    HW224522   9.386  10.648   5.824 -0.0541 -1.1747 -1.3219
 6144SOL     OW24523   6.317   4.934   1.840  0.0008  0.5007 -0.1456
 6144SOL    HW124524   6.271   4.870   1.785  1.5571 -0.6941 -0.1384
 6144SOL    HW224525   6.319   5.014   1.787 -0.6857  0.1039 -0.7917
 6145SOL     OW24526   4.499   8.200   3.474 -0.3315 -0.5485  0.0974
 6145SOL    HW124527   4.531   8.141   3.405  0.8813 -0.3102  0.4233
 6145SOL    HW224528   4.462   8.274   3.428  0.0202 -0.6207 -0.3060
 6146SOL     OW24529   8.009   5.033   5.932 -0.4517  0.0447 -0.7096
 6146SOL    HW124530   8.029   5.026   5.839 -1.5567  1.0904 -1.0444
 6146SOL    HW224531   7.978   4.946   5.956 -0.0582 -0.2627 -1.2884
 6147SOL     OW24532   6.287  10.133   4.715 -0.0661  0.0555 -0.1631
 6147SOL    HW124533   6.201  10.159   4.682 -0.4246  1.4293  1.7367
 6147SOL    HW224534   6.272  10.112   4.807  1.5559 -0.1871  0.0710
 6148SOL     OW24535   4.966   5.640   7.017 -0.7724  0.0440  0.2123
 6148SOL    HW124536   4.879   5.657   7.054 -0.1900 -1.0089  2.2358
 6148SOL    HW224537   5.012   5.592   7.086  1.3746  0.4225 -0.8749
 6149SOL     OW24538   3.227  10.559   6.413  0.1054  0.0887  0.3814
 6149SOL    HW124539   3.188  10.561   6.326 -1.9426 -1.2498  1.1780
 6149SOL    HW224540   3.276  10.477   6.416 -1.6486 -0.9982  1.1279
 6150SOL     OW24541   3.863   6.135   3.502 -0.0426 -0.1832 -0.2966
 6150SOL    HW124542   3.820   6.165   3.582 -0.4395 -1.1943 -0.1118
 6150SOL    HW224543   3.901   6.051   3.525 -0.6748 -0.7764 -1.3098
 6151SOL     OW24544   2.240   2.953  10.134  0.0113 -0.1432  0.2892
 6151SOL    HW124545   2.166   2.926  10.080  0.0800  0.4841 -0.1355
 6151SOL    HW224546   2.253   2.881  10.195 -0.0034 -0.9231 -0.5996
 6152SOL     OW24547   2.025   9.431   3.243  0.0468 -0.4734  0.2987
 6152SOL    HW124548   1.966   9.393   3.179  1.1869 -1.6731 -0.0766
 6152SOL    HW224549   2.111   9.394   3.222  0.4361 -1.0119  2.5919
 6153SOL     OW24550   2.253   0.682   1.945  0.1515  0.4289  0.2492
 6153SOL    HW124551   2.318   0.643   1.887  0.3455  0.1823  0.6276
 6153SOL    HW224552   2.300   0.752   1.990 -0.1074  0.8850 -0.1863
 6154SOL     OW24553   4.175   0.806   8.310 -0.0454  0.4843  0.5839
 6154SOL    HW124554   4.241   0.773   8.371  2.0253 -0.8183 -2.1350
 6154SOL    HW224555   4.106   0.740   8.312  1.3141 -1.0625 -0.4414
 6155SOL     OW24556   8.013   1.770   6.527 -0.1699  0.4211 -0.6448
 6155SOL    HW124557   8.012   1.676   6.514  0.8800  0.3827 -0.5523
 6155SOL    HW224558   7.948   1.786   6.595 -0.0296 -0.2913 -0.3378
 6156SOL     OW24559   2.973   4.589   5.198  0.2325 -0.5538  0.1274
 6156SOL    HW124560   2.904   4.545   5.148  0.2332 -1.2719  0.7336
 6156SOL    HW224561   2.947   4.681   5.200  1.0144 -0.2104 -2.4940
 6157SOL     OW24562   6.047   0.807   4.347  0.3157 -0.1203  0.1040
 6157SOL    HW124563   6.073   0.899   4.352  1.2330 -0.3824  0.4247
 6157SOL    HW224564   6.039   0.779   4.438 -0.5419 -0.2068  0.0087
 6158SOL     OW24565   6.872   8.201   9.137  0.3863 -0.6219 -0.3914
 6158SOL    HW124566   6.964   8.175   9.129 -0.1912 -3.4243  0.9251
 6158SOL    HW224567   6.870   8.261   9.211  1.0460 -1.2727  0.1652
 6159SOL     OW24568   7.457   1.294   2.616 -0.4660 -0.1094  0.3070
 6159SOL    HW124569   7.542   1.260   2.642 -0.4160  1.5455  2.6128
 6159SOL    HW224570   7.476   1.377   2.571 -0.8170  0.3499  0.9735
 6160SOL     OW24571   4.588   3.626   4.505 -0.5541  0.1609 -0.2381
 6160SOL    HW124572   4.500   3.601   4.477 -0.9073  1.5155 -0.4052
 6160SOL    HW224573   4.579   3.716   4.536  0.3199 -0.4404  1.9805
 6161SOL     OW24574   4.949   9.702   6.290  0.1468  0.7061  0.1065
 6161SOL    HW124575   4.914   9.719   6.203 -0.4323  0.5616  0.3042
 6161SOL    HW224576   5.006   9.626   6.280 -0.3797  0.3252 -0.0404
 6162SOL     OW24577   7.022   8.201   5.022 -0.1873  0.1991 -0.4223
 6162SOL    HW124578   6.954   8.143   4.987 -0.6439 -0.4789  1.4915
 6162SOL    HW224579   7.003   8.286   4.982 -2.6008  0.1826  0.5020
 6163SOL     OW24580   3.749   7.534   9.302 -0.0747  0.4829 -0.3760
 6163SOL    HW124581   3.784   7.484   9.229  2.0370 -1.0625  1.5333
 6163SOL    HW224582   3.792   7.620   9.295 -0.4417  0.6034 -1.3013
 6164SOL     OW24583   3.660   1.002   5.325  0.0701  0.2380 -0.3562
 6164SOL    HW124584   3.577   0.957   5.334  1.0294 -1.8642 -1.3234
 6164SOL    HW224585   3.719   0.957   5.386  0.9896  0.3573 -1.1195
 6165SOL     OW24586   0.529   1.021   9.813 -0.1913 -0.1452 -0.1821
 6165SOL    HW124587   0.600   0.963   9.784  0.5414  1.1069 -1.0167
 6165SOL    HW224588   0.513   0.996   9.904  2.1913  0.3161  0.4353
 6166SOL     OW24589   5.104   3.247   8.404 -0.1625 -0.0442 -1.0193
 6166SOL    HW124590   5.125   3.249   8.498 -2.2347 -1.0526 -0.4876
 6166SOL    HW224591   5.119   3.337   8.375  1.9801 -0.0397 -0.1016
 6167SOL     OW24592   1.633   7.042   6.732  0.0174 -0.3407  0.7777
 6167SOL    HW124593   1.653   7.132   6.759  0.7261 -0.4662  0.6919
 6167SOL    HW224594   1.598   7.000   6.811  1.2742 -0.4649  1.2831
 6168SOL     OW24595   8.078  10.509   9.199 -0.2972 -0.0350  0.3849
 6168SOL    HW124596   7.993  10.509   9.244 -0.6028  0.3272 -0.1751
 6168SOL    HW224597   8.135  10.457   9.255 -0.9000 -0.3082  0.7546
 6169SOL     OW24598   9.695   6.769   5.536  0.0875 -0.4391 -0.1645
 6169SOL    HW124599   9.670   6.693   5.483  0.2305 -1.6177  1.3947
 6169SOL    HW224600   9.753   6.734   5.603  1.2528  1.2849 -0.1865
 6170SOL     OW24601   4.482   8.666   5.068 -0.2372 -0.5429 -0.4811
 6170SOL    HW124602   4.573   8.648   5.046  0.1927 -1.6902  1.9251
 6170SOL    HW224603   4.439   8.678   4.983  1.9571 -0.8205 -1.7092
 6171SOL     OW24604   7.121   3.488   9.429 -0.1081 -0.0256 -0.1290
 6171SOL    HW124605   7.119   3.517   9.521 -0.7570 -0.9949  0.1812
 6171SOL    HW224606   7.060   3.547   9.385  0.8661  1.0167 -0.1351
 6172SOL     OW24607   1.941   1.405   5.735  0.9564 -0.5384 -0.6145
 6172SOL    HW124608   1.893   1.454   5.802  0.6164 -1.2268 -0.3444
 6172SOL    HW224609   1.984   1.473   5.683 -0.3877  0.1015 -0.9351
 6173SOL     OW24610   9.982  10.139   6.316  0.7624 -0.1017  0.6038
 6173SOL    HW124611  10.045  10.068   6.300  1.3890  0.5284  0.1936
 6173SOL    HW224612  10.016  10.213   6.265 -1.7355 -0.4949 -1.8729
 6174SOL     OW24613   4.255   8.413   9.497  0.4152  0.4192 -0.4718
 6174SOL    HW124614   4.252   8.483   9.432  0.2808  0.5173 -0.3616
 6174SOL    HW224615   4.343   8.419   9.535  0.8578 -0.2905 -1.3535
 6175SOL     OW24616   9.676   6.039   0.810 -0.2450 -0.2768 -0.2792
 6175SOL    HW124617   9.714   6.004   0.890  0.2207 -1.3048 -0.9275
 6175SOL    HW224618   9.581   6.038   0.826 -0.1991 -1.1377  0.0093
 6176SOL     OW24619   6.890   5.184   6.550 -0.2540 -0.3332  0.6463
 6176SOL    HW124620   6.798   5.174   6.578 -1.5488  2.9363 -1.7784
 6176SOL    HW224621   6.897   5.129   6.472 -1.0859  1.3270 -0.6869
 6177SOL     OW24622   8.856   1.095   8.037 -0.2336  0.8014  0.0023
 6177SOL    HW124623   8.845   1.030   7.967  1.0997 -0.0664  0.5624
 6177SOL    HW224624   8.828   1.050   8.116 -1.3285  1.6431  0.1218
 6178SOL     OW24625   2.473   1.696   4.317  0.1432  0.6250 -0.5336
 6178SOL    HW124626   2.525   1.615   4.316 -1.1453 -0.2681  0.7056
 6178SOL    HW224627   2.388   1.671   4.281  0.5492  2.1214 -2.7410
 6179SOL     OW24628   6.970   9.081   2.029  0.4751  0.3358 -0.1081
 6179SOL    HW124629   6.950   8.988   2.032 -1.0536  0.6742  1.4461
 6179SOL    HW224630   7.060   9.085   1.995  0.0802 -1.5859 -1.5841
 6180SOL     OW24631   2.571   2.314   5.818 -0.2702  0.0078  0.2366
 6180SOL    HW124632   2.530   2.300   5.903 -1.2466  0.7129 -0.1034
 6180SOL    HW224633   2.660   2.281   5.829 -0.1878  0.6369  1.7169
 6181SOL     OW24634   9.428   1.801   8.040  0.1332  0.3663  0.3772
 6181SOL    HW124635   9.495   1.808   7.971  1.1383 -0.6948  1.2063
 6181SOL    HW224636   9.360   1.863   8.013  1.0215  0.8120 -0.9738
 6182SOL     OW24637   8.776   7.994   0.647  0.3094  0.3085 -0.4498
 6182SOL    HW124638   8.819   8.050   0.712  1.2333 -1.6218  0.6962
 6182SOL    HW224639   8.846   7.970   0.587  0.1617 -0.4026 -0.3470
 6183SOL     OW24640   0.306  10.555   7.232 -0.8582 -0.2933 -0.4661
 6183SOL    HW124641   0.345  10.632   7.273 -2.6245  0.1656  0.4718
 6183SOL    HW224642   0.225  10.588   7.191 -0.0884 -1.0834 -2.8187
 6184SOL     OW24643   0.492   7.060   8.064 -0.1166 -0.1264  0.1333
 6184SOL    HW124644   0.494   7.069   7.968  1.4341 -0.4067  0.1235
 6184SOL    HW224645   0.465   7.146   8.095 -2.0839 -0.4177 -0.5725
 6185SOL     OW24646   4.963   1.528   6.478 -0.1448  0.3163 -0.2254
 6185SOL    HW124647   4.984   1.464   6.409  1.7603  1.5169 -0.8280
 6185SOL    HW224648   4.997   1.489   6.558  2.0647  0.9844 -0.7626
 6186SOL     OW24649   0.273   7.487   1.064 -0.0302  0.1352 -0.4527
 6186SOL    HW124650   0.278   7.538   0.983  0.9506  1.3604  0.3530
 6186SOL    HW224651   0.181   7.460   1.069 -0.2337  0.5454 -1.6630
 6187SOL     OW24652   9.526   4.573   9.934  0.5294 -0.4451  0.3873
 6187SOL    HW124653   9.546   4.614  10.019  0.6977 -0.2488  0.2521
 6187SOL    HW224654   9.546   4.641   9.870  2.5803 -1.3077  0.0276
 6188SOL     OW24655   5.428   1.316   8.951 -0.2239 -0.3065  0.3617
 6188SOL    HW124656   5.487   1.241   8.952 -1.7397 -1.5534  0.6763
 6188SOL    HW224657   5.351   1.286   8.999 -0.5353  1.7561  1.2603
 6189SOL     OW24658   7.559   6.443   6.298  0.5027 -0.5665  0.0880
 6189SOL    HW124659   7.587   6.370   6.354  2.2177  1.4935  2.1186
 6189SOL    HW224660   7.632   6.454   6.236  0.7815  0.1039  0.5261
 6190SOL     OW24661  10.093   0.933   6.206  0.0430 -0.0948 -0.5610
 6190SOL    HW124662  10.162   0.867   6.199 -1.0419 -1.1910 -1.3326
 6190SOL    HW224663  10.021   0.889   6.252 -0.8747  0.3788 -1.4950
 6191SOL     OW24664   5.356   4.421   5.542 -0.3153 -0.0434  0.1965
 6191SOL    HW124665   5.397   4.347   5.585  1.3373  0.7011 -0.0297
 6191SOL    HW224666   5.347   4.394   5.450  1.6573  0.5310 -0.2092
 6192SOL     OW24667   5.931   8.979   7.475 -0.3160 -0.4902  0.4299
 6192SOL    HW124668   5.940   9.005   7.383 -1.2876 -0.8346  0.2272
 6192SOL    HW224669   5.921   9.062   7.522  2.1328 -0.1595  0.5073
 6193SOL     OW24670   9.773   1.841   0.046  0.1998 -0.7620 -0.1966
 6193SOL    HW124671   9.711   1.769   0.036  0.4287 -1.0096  0.1606
 6193SOL    HW224672   9.859   1.799   0.053  0.2421 -0.5186  0.9849
 6194SOL     OW24673   6.623   6.760   4.074  0.3746 -0.6563 -0.3280
 6194SOL    HW124674   6.537   6.725   4.100  0.5253 -1.9645 -1.5043
 6194SOL    HW224675   6.611   6.786   3.982  1.1580 -0.5460 -0.3993
 6195SOL     OW24676   0.586   3.963   1.664  0.4129  0.4778  0.2716
 6195SOL    HW124677   0.563   4.053   1.689  0.4348  0.3158  0.8855
 6195SOL    HW224678   0.667   3.945   1.712 -0.8794 -0.7304  2.1456
 6196SOL     OW24679   1.265   7.076   1.494 -0.0855 -0.2677 -0.3830
 6196SOL    HW124680   1.208   7.144   1.457 -0.6155 -0.0670  0.7749
 6196SOL    HW224681   1.277   7.102   1.585  2.0760 -0.1682 -0.6463
 6197SOL     OW24682   3.215   1.906   2.198 -0.3412 -0.0887  0.0969
 6197SOL    HW124683   3.231   1.822   2.154 -1.3396 -0.8191  1.0656
 6197SOL    HW224684   3.274   1.967   2.154 -0.3801 -1.0438 -1.3923
 6198SOL     OW24685  10.581   0.689   9.663 -0.1429  0.2195  0.2164
 6198SOL    HW124686  10.523   0.650   9.598  0.4332 -2.6575  1.3108
 6198SOL    HW224687  10.521   0.725   9.729 -0.7558 -1.3339  0.5604
 6199SOL     OW24688   8.043   1.143  10.562  0.3458  0.2484 -0.3380
 6199SOL    HW124689   8.120   1.117  10.613  0.6881 -1.7110 -1.7140
 6199SOL    HW224690   7.970   1.095  10.602  0.2329  0.3885 -0.3743
 6200SOL     OW24691   9.627   0.485   2.069 -0.1512  0.5044 -0.3360
 6200SOL    HW124692   9.644   0.579   2.068 -0.2569  0.5214 -1.9627
 6200SOL    HW224693   9.572   0.472   2.147  1.0819  1.5339  0.7635
 6201SOL     OW24694  10.070   3.796  10.216  0.0094  0.4619  1.0596
 6201SOL    HW124695  10.010   3.781  10.143  1.7837 -1.0520 -0.2003
 6201SOL    HW224696  10.015   3.831  10.286 -2.0705  0.3828 -0.4394
 6202SOL     OW24697   1.635   9.965   9.837  0.1177 -0.4535 -0.1129
 6202SOL    HW124698   1.572  10.013   9.782  1.7227  1.0748 -0.7061
 6202SOL    HW224699   1.630   9.875   9.806 -1.7949 -0.3960 -0.1118
 6203SOL     OW24700  10.540   4.295   7.631 -0.4072 -0.0541 -0.4529
 6203SOL    HW124701  10.595   4.320   7.557  1.0342  1.0090  0.8974
 6203SOL    HW224702  10.602   4.266   7.698 -1.7333 -2.0035  0.0025
 6204SOL     OW24703   4.945   5.944   8.519 -0.4647  0.1705 -0.2799
 6204SOL    HW124704   4.939   6.028   8.565  1.8918 -0.6780  1.7602
 6204SOL    HW224705   4.995   5.964   8.440  0.2781  0.6775  0.3027
 6205SOL     OW24706   4.190   2.286   2.753 -0.3021  0.0141  0.3936
 6205SOL    HW124707   4.139   2.275   2.673 -1.9437 -1.3394  1.5506
 6205SOL    HW224708   4.131   2.330   2.813 -0.3991 -2.0765  1.9417
 6206SOL     OW24709   5.972   0.056   4.901 -0.3626  0.4462  0.0027
 6206SOL    HW124710   5.882   0.076   4.926 -1.0122 -0.8330 -1.2037
 6206SOL    HW224711   5.979   0.089   4.811 -0.2066 -1.0169 -0.5474
 6207SOL     OW24712   4.940   3.840  10.341 -0.0413 -0.0498  0.2705
 6207SOL    HW124713   4.989   3.921  10.355  1.5026 -0.7884 -0.6012
 6207SOL    HW224714   4.879   3.861  10.271  0.3510  0.3533  0.0456
 6208SOL     OW24715  10.609   6.038   5.436  0.3553  0.0348 -0.4929
 6208SOL    HW124716  10.643   5.964   5.387 -0.1013 -0.6938  0.2630
 6208SOL    HW224717  10.615   6.011   5.528 -0.1716  0.7718 -0.2291
 6209SOL     OW24718   1.339   1.238   5.722 -0.1499  0.2743 -0.3563
 6209SOL    HW124719   1.327   1.329   5.749  1.3100  0.8756 -1.5505
 6209SOL    HW224720   1.364   1.243   5.630 -1.6512 -1.4715 -0.9312
 6210SOL     OW24721   9.752   7.792   2.399  0.0039 -0.7136 -0.1236
 6210SOL    HW124722   9.824   7.730   2.389  1.4077  1.1661 -3.0916
 6210SOL    HW224723   9.699   7.755   2.469  3.8989 -2.1356  2.4335
 6211SOL     OW24724   6.221   6.735   0.822 -0.5267 -0.0494  0.1212
 6211SOL    HW124725   6.126   6.739   0.810 -0.4041  0.2999 -0.8166
 6211SOL    HW224726   6.242   6.813   0.871 -0.6428  0.2506 -0.2991
 6212SOL     OW24727   3.372   4.022  10.331 -0.2901  0.0991  0.1726
 6212SOL    HW124728   3.336   4.106  10.304  0.5275  0.3273 -0.2412
 6212SOL    HW224729   3.405   4.036  10.420 -1.4290 -0.1786  0.6464
 6213SOL     OW24730   3.643   1.293   3.308  0.3006 -0.2101  0.0308
 6213SOL    HW124731   3.608   1.205   3.296  1.0373 -0.3479 -1.2245
 6213SOL    HW224732   3.709   1.283   3.377  0.0249 -0.5360  0.2517
 6214SOL     OW24733   4.444   0.512   4.675  0.0180 -0.1165  0.2455
 6214SOL    HW124734   4.463   0.480   4.763  0.3637 -1.0970 -0.1687
 6214SOL    HW224735   4.382   0.449   4.640  2.3125 -1.6370 -1.3552
 6215SOL     OW24736   3.119   2.913   2.847 -0.6091 -0.0228 -0.2194
 6215SOL    HW124737   3.061   2.872   2.782 -0.0110  2.3119 -2.3860
 6215SOL    HW224738   3.162   2.984   2.799  2.4804 -0.3035  1.8538
 6216SOL     OW24739   9.872   1.394   2.074 -0.2647  0.2393  0.7366
 6216SOL    HW124740   9.922   1.455   2.127 -1.1404  0.7620  0.9864
 6216SOL    HW224741   9.788   1.387   2.118 -1.2940  1.2458 -0.9315
 6217SOL     OW24742   0.126  10.471   1.004  0.2466  0.6307 -0.4008
 6217SOL    HW124743   0.145  10.397   1.063  1.0369 -1.1647 -2.7172
 6217SOL    HW224744   0.209  10.486   0.958 -0.3834  1.8203 -1.1895
 6218SOL     OW24745  10.173   8.408   4.671 -0.4924  0.8544 -0.2064
 6218SOL    HW124746  10.117   8.350   4.722 -2.0450  0.3957 -2.3046
 6218SOL    HW224747  10.230   8.449   4.736 -0.4873 -1.6998  1.5489
 6219SOL     OW24748   4.717   7.003   2.409  0.5560  0.1383 -0.2951
 6219SOL    HW124749   4.633   6.984   2.365  0.3041  0.9387 -0.1783
 6219SOL    HW224750   4.710   6.960   2.494  0.1667  0.3967 -0.1953
 6220SOL     OW24751   9.821   2.447   8.792  0.0892  0.0216 -0.4685
 6220SOL    HW124752   9.727   2.427   8.798  0.1684 -0.0252  1.2437
 6220SOL    HW224753   9.829   2.535   8.828  0.4798  0.8655 -2.5198
 6221SOL     OW24754   3.433   2.587   2.546 -0.8172 -0.7014 -0.8691
 6221SOL    HW124755   3.476   2.672   2.553 -1.3012 -0.5771  1.4723
 6221SOL    HW224756   3.443   2.563   2.454  1.3642  0.7928 -1.1063
 6222SOL     OW24757   5.371   6.061   4.963 -0.5160 -0.4570 -0.0894
 6222SOL    HW124758   5.315   5.983   4.966 -0.6132 -0.3843 -0.0386
 6222SOL    HW224759   5.459   6.026   4.950 -0.3346 -0.6769  1.5477
 6223SOL     OW24760   3.547   5.725   7.876  0.3635 -0.7135 -0.2062
 6223SOL    HW124761   3.560   5.811   7.838 -0.6637 -0.1837  0.5620
 6223SOL    HW224762   3.553   5.664   7.802 -1.5691  0.2670 -1.2545
 6224SOL     OW24763   4.499   2.750   6.729  0.1793 -0.0352  0.6873
 6224SOL    HW124764   4.580   2.718   6.769  0.0817 -0.4821  0.5335
 6224SOL    HW224765   4.505   2.724   6.637 -0.5632 -0.9308  0.8772
 6225SOL     OW24766   0.874   0.559   4.376  0.1724  0.3218  0.0384
 6225SOL    HW124767   0.929   0.509   4.436 -0.5310 -0.6291 -0.0949
 6225SOL    HW224768   0.936   0.616   4.329  0.9133 -0.0013  0.5993
 6226SOL     OW24769   7.683   5.874   3.713  0.2409 -0.4317 -0.1289
 6226SOL    HW124770   7.603   5.853   3.664 -0.1304  0.0213  0.2753
 6226SOL    HW224771   7.678   5.969   3.727  1.4377 -0.1983 -1.1350
 6227SOL     OW24772   1.112   9.541   2.625 -0.5204  0.5532  0.6116
 6227SOL    HW124773   1.187   9.483   2.614 -1.1931  0.0441 -2.0870
 6227SOL    HW224774   1.098   9.579   2.539 -2.9456  1.1702  1.1985
 6228SOL     OW24775  10.505   7.621   7.869 -0.2391  0.1672  0.5004
 6228SOL    HW124776  10.565   7.606   7.942 -0.1478 -1.7106  0.0971
 6228SOL    HW224777  10.472   7.534   7.847 -0.2697  0.6766 -1.6988
 6229SOL     OW24778   4.088   1.062   0.551 -0.0333 -0.2043  0.4172
 6229SOL    HW124779   4.138   0.982   0.565  0.2559  0.1169  1.3281
 6229SOL    HW224780   4.021   1.038   0.487  1.8920 -0.3887 -1.6644
 6230SOL     OW24781   1.481   3.127   3.855  0.3599 -0.7306 -0.3690
 6230SOL    HW124782   1.514   3.049   3.811  1.4283 -0.1565 -0.6461
 6230SOL    HW224783   1.477   3.103   3.947 -0.1932 -1.3930 -0.5635
 6231SOL     OW24784   8.530  10.043   0.245 -0.0069  0.5308  0.1678
 6231SOL    HW124785   8.549   9.956   0.280 -1.1435  0.4070  0.5026
 6231SOL    HW224786   8.555  10.038   0.153  0.1645 -0.0725  0.2430
 6232SOL     OW24787   1.417  10.017   0.539  0.1166 -0.1631  0.2466
 6232SOL    HW124788   1.332  10.010   0.582 -0.4723  1.5771 -0.5296
 6232SOL    HW224789   1.403  10.082   0.470  1.3666 -1.8100 -1.6709
 6233SOL     OW24790   5.561   4.290   8.512  0.2232 -0.1508  0.0715
 6233SOL    HW124791   5.499   4.257   8.577  1.0928  0.3433  1.1862
 6233SOL    HW224792   5.556   4.385   8.520  1.0634 -0.1044  0.1298
 6234SOL     OW24793   7.821   3.817   6.355 -0.3292 -0.1548 -0.1976
 6234SOL    HW124794   7.862   3.806   6.269  2.0412  1.3404  0.6443
 6234SOL    HW224795   7.794   3.909   6.357 -2.9528 -0.8535 -0.3361
 6235SOL     OW24796   8.169   0.048   2.761  0.3985  0.1479  0.1838
 6235SOL    HW124797   8.203  -0.007   2.831 -0.2564 -0.4443  0.0390
 6235SOL    HW224798   8.168  -0.008   2.684  1.1254  0.7964 -0.3203
 6236SOL     OW24799   0.018   5.638   7.053 -0.0991 -0.1821 -0.3527
 6236SOL    HW124800   0.027   5.687   7.135 -0.7075  1.5971 -1.3095
 6236SOL    HW224801   0.062   5.555   7.070 -0.1507  0.1769  1.7522
 6237SOL     OW24802   0.844   6.310  10.387 -0.2177 -0.4486 -0.6883
 6237SOL    HW124803   0.762   6.271  10.354 -0.3981 -0.2475 -0.4798
 6237SOL    HW224804   0.877   6.245  10.449 -0.8802  0.0203  0.1889
 6238SOL     OW24805   7.457   9.327   2.474 -0.2216 -0.3526 -0.0946
 6238SOL    HW124806   7.412   9.247   2.501  0.4113 -1.3527 -1.8730
 6238SOL    HW224807   7.512   9.300   2.401 -0.7142  1.8856 -1.3687
 6239SOL     OW24808   4.692   9.240   7.955  0.6175 -0.2390  0.6349
 6239SOL    HW124809   4.664   9.202   7.872  1.1030 -0.6958  0.6739
 6239SOL    HW224810   4.776   9.282   7.935  1.1171 -1.0102  1.0552
 6240SOL     OW24811   0.553   8.542   4.782 -0.4981 -0.1958 -0.0869
 6240SOL    HW124812   0.597   8.626   4.794 -0.0791 -0.2237 -1.2988
 6240SOL    HW224813   0.495   8.556   4.707 -1.8417 -0.4542  0.8649
 6241SOL     OW24814   2.724   5.217   4.834 -0.4538  0.0160  0.5374
 6241SOL    HW124815   2.819   5.206   4.839 -0.6674 -1.5087  1.6989
 6241SOL    HW224816   2.711   5.311   4.843  0.9114  0.1825  1.0403
 6242SOL     OW24817   1.255   9.685   9.255  0.0025  0.2805  0.7668
 6242SOL    HW124818   1.310   9.709   9.180  0.9309  0.6905  1.5546
 6242SOL    HW224819   1.279   9.595   9.276 -0.9820 -0.1860 -0.0327
 6243SOL     OW24820   4.692   5.949   9.558 -0.0905  0.1603  0.1324
 6243SOL    HW124821   4.617   6.009   9.561  0.7280  1.3798 -1.6584
 6243SOL    HW224822   4.768   6.004   9.574  0.5756 -0.6846 -0.0516
 6244SOL     OW24823   7.682   9.234   8.138 -0.5414  0.2077 -0.1244
 6244SOL    HW124824   7.621   9.300   8.171 -0.0930  0.4943  0.1567
 6244SOL    HW224825   7.754   9.285   8.100  0.6253 -0.0591  1.5877
 6245SOL     OW24826   4.643   5.417   6.250  0.2363 -0.2068 -0.8101
 6245SOL    HW124827   4.663   5.461   6.333 -0.6375  0.1832 -0.8013
 6245SOL    HW224828   4.548   5.407   6.250  0.3210 -1.2000 -1.2746
 6246SOL     OW24829   0.146   7.603   3.436  0.8619 -0.2745  0.5370
 6246SOL    HW124830   0.100   7.530   3.478  0.2885 -0.7598 -0.8464
 6246SOL    HW224831   0.238   7.586   3.452  0.6592 -0.3453  1.7152
 6247SOL     OW24832   8.422   0.086   3.973 -0.1449  0.2933  0.6540
 6247SOL    HW124833   8.351   0.068   3.910  1.0064  1.7213 -1.1693
 6247SOL    HW224834   8.411   0.178   3.996  1.4067  0.7059 -0.1110
 6248SOL     OW24835   6.079   4.126   9.990  0.1764 -0.7437 -0.2176
 6248SOL    HW124836   6.089   4.136  10.085 -0.8651 -1.8276  0.0278
 6248SOL    HW224837   6.152   4.071   9.964 -0.2337 -1.4899  0.1739
 6249SOL     OW24838   6.204   9.704   8.736 -0.2845 -0.3310 -0.3221
 6249SOL    HW124839   6.278   9.646   8.754  0.2597  0.0796 -1.1463
 6249SOL    HW224840   6.227   9.746   8.653 -0.8785  0.7214  0.0324
 6250SOL     OW24841  10.494   3.579   7.794 -0.1243  0.1864 -0.0317
 6250SOL    HW124842  10.414   3.606   7.839 -0.1219 -0.6478  0.4894
 6250SOL    HW224843  10.488   3.619   7.708 -0.6164  0.9715  0.3576
 6251SOL     OW24844   9.137   0.331   7.651  0.5171  0.0693  0.0325
 6251SOL    HW124845   9.046   0.320   7.679  0.9465  0.4377  1.6362
 6251SOL    HW224846   9.161   0.244   7.617  0.2366 -0.7095  1.6946
 6252SOL     OW24847   9.025  10.654   0.215 -0.9757 -0.1458 -0.1718
 6252SOL    HW124848   8.960  10.719   0.239 -1.1415  0.1020 -1.2367
 6252SOL    HW224849   8.989  10.612   0.136  0.5292  0.5928 -1.3103
 6253SOL     OW24850   9.609   3.226   8.016  0.3211 -0.0018  0.0843
 6253SOL    HW124851   9.616   3.232   8.111 -0.2388 -0.8435  0.1877
 6253SOL    HW224852   9.537   3.284   7.993 -0.4059 -0.7900  0.3227
 6254SOL     OW24853   4.914   9.566   6.790 -0.6737  0.1529  0.0323
 6254SOL    HW124854   4.915   9.473   6.813  1.8758  0.2269  0.4777
 6254SOL    HW224855   5.002   9.597   6.811 -1.5343  2.7531  0.1407
 6255SOL     OW24856   4.251   6.732   1.700  0.2558 -0.4754  0.5473
 6255SOL    HW124857   4.300   6.654   1.728 -0.9665 -0.7432  2.0671
 6255SOL    HW224858   4.274   6.742   1.607  2.1562 -1.3277  0.8689
 6256SOL     OW24859   5.913   2.684   8.541 -0.5250  0.0931  0.3021
 6256SOL    HW124860   5.913   2.622   8.468 -0.9128  0.3611  0.0698
 6256SOL    HW224861   5.990   2.739   8.526 -0.0585 -0.4625  0.6272
 6257SOL     OW24862   1.040   9.995   9.007 -0.3395 -0.0342  0.6762
 6257SOL    HW124863   1.033   9.925   9.072  0.5835 -1.1467 -0.3487
 6257SOL    HW224864   1.118   9.972   8.956 -0.5212  1.2781 -0.2508
 6258SOL     OW24865  10.619   9.222   7.024 -0.2297 -0.3261  0.0617
 6258SOL    HW124866  10.536   9.268   7.011  0.0260 -0.0180 -0.5225
 6258SOL    HW224867  10.633   9.223   7.119  0.0191  1.2533  0.0348
 6259SOL     OW24868   4.240   8.522   1.759 -0.2378  0.1845 -0.5344
 6259SOL    HW124869   4.162   8.493   1.806  0.4032 -0.3234  0.2438
 6259SOL    HW224870   4.313   8.498   1.816  0.5644 -0.3041 -1.7258
 6260SOL     OW24871   2.635   1.583   0.096  0.3011 -0.5413 -0.3275
 6260SOL    HW124872   2.639   1.498   0.140 -1.3521 -0.6329 -0.2613
 6260SOL    HW224873   2.625   1.646   0.168 -1.2970 -0.5900 -0.4630
 6261SOL     OW24874   7.779   1.041   8.712 -0.0673 -0.4371 -0.3560
 6261SOL    HW124875   7.808   0.977   8.647 -2.0665 -1.6021 -0.1930
 6261SOL    HW224876   7.683   1.042   8.703 -0.2917  0.4096  1.6371
 6262SOL     OW24877   6.555   2.509   2.269 -0.0458 -0.4205 -0.2811
 6262SOL    HW124878   6.640   2.472   2.244 -0.4885 -0.2353 -2.1834
 6262SOL    HW224879   6.500   2.433   2.286  0.5120 -0.5436  1.1690
 6263SOL     OW24880   2.772   9.529   9.925  0.2839 -0.3680  0.0210
 6263SOL    HW124881   2.812   9.600   9.875  0.0709 -0.1641  0.1383
 6263SOL    HW224882   2.699   9.571   9.971  0.4882 -0.5526  0.5141
 6264SOL     OW24883   8.927   1.063   0.297 -0.3097  0.7978 -0.1406
 6264SOL    HW124884   8.974   0.981   0.313 -0.3609  0.7265 -0.3577
 6264SOL    HW224885   8.987   1.114   0.241  0.2789  1.4274  1.0236
 6265SOL     OW24886   3.340   1.764   1.500  0.4496 -0.2150  0.2393
 6265SOL    HW124887   3.402   1.813   1.447  1.1916 -2.2502 -0.8949
 6265SOL    HW224888   3.279   1.726   1.437  1.1163 -2.3689  0.8040
 6266SOL     OW24889   3.121   3.852   7.452 -0.1025  0.2448 -0.0609
 6266SOL    HW124890   3.199   3.813   7.412 -0.0048  0.8065 -0.4330
 6266SOL    HW224891   3.141   3.858   7.545  0.4996  0.8222 -0.2185
 6267SOL     OW24892   2.833   6.463   6.106 -0.0671 -0.2594 -0.5275
 6267SOL    HW124893   2.896   6.520   6.150 -2.3257  0.4962  2.0356
 6267SOL    HW224894   2.786   6.520   6.045  0.0565 -0.2356 -0.6000
 6268SOL     OW24895   5.802   9.927   6.272 -0.1915  0.2635  0.2193
 6268SOL    HW124896   5.721   9.896   6.233 -0.3298 -0.5098  1.0838
 6268SOL    HW224897   5.784   9.929   6.366  0.4624  1.0821  0.3370
 6269SOL     OW24898   1.861   2.582   2.128  0.8918 -0.8773  0.4396
 6269SOL    HW124899   1.870   2.500   2.178  1.9853 -0.7669  0.4660
 6269SOL    HW224900   1.869   2.651   2.193  0.7895 -0.7469  0.3138
 6270SOL     OW24901   4.787   0.638   2.813 -0.0803 -0.4112  0.0973
 6270SOL    HW124902   4.762   0.562   2.761 -1.1077 -0.3547  0.4929
 6270SOL    HW224903   4.878   0.621   2.839  0.3214 -0.6149 -1.3805
 6271SOL     OW24904  10.625   7.602   6.548 -0.1684  0.3386 -0.2191
 6271SOL    HW124905  10.534   7.606   6.520 -0.1701 -2.7448 -0.9511
 6271SOL    HW224906  10.628   7.530   6.611  1.6543  0.8401  0.3278
 6272SOL     OW24907   1.387   8.616   7.238 -0.2971 -0.1424 -0.6295
 6272SOL    HW124908   1.336   8.681   7.188 -0.2429  0.7506  0.4368
 6272SOL    HW224909   1.440   8.669   7.298  1.2559 -1.0888 -1.0934
 6273SOL     OW24910   1.911  10.618   4.826 -0.2138  0.0487 -0.3148
 6273SOL    HW124911   1.984  10.560   4.848  0.6852  1.1717 -0.2111
 6273SOL    HW224912   1.944  10.706   4.845 -0.9189  0.7431 -2.0621
 6274SOL     OW24913   2.379   9.462   2.627  0.5354 -0.6506 -0.3858
 6274SOL    HW124914   2.326   9.445   2.705  0.7568 -0.6356 -0.2303
 6274SOL    HW224915   2.319   9.505   2.566  0.3853 -0.5766 -0.1881
 6275SOL     OW24916   5.687   2.705   6.399  0.3174  0.5207 -0.5753
 6275SOL    HW124917   5.595   2.697   6.424 -0.1765  2.2003 -1.7018
 6275SOL    HW224918   5.724   2.764   6.463  0.7151 -0.4082  0.0691
 6276SOL     OW24919  10.842   4.596  10.186  0.0718 -0.3680  0.5728
 6276SOL    HW124920  10.899   4.608  10.110 -1.5615  2.3753 -0.3574
 6276SOL    HW224921  10.862   4.507  10.217  2.1717 -0.8685 -1.8629
 6277SOL     OW24922   5.102   2.354  10.545  0.3258 -0.0746 -0.1349
 6277SOL    HW124923   5.157   2.324  10.473  2.0097 -0.2184  1.1484
 6277SOL    HW224924   5.014   2.326  10.521  1.0828 -1.5772 -1.3543
 6278SOL     OW24925  10.617   7.825   8.831 -0.4573  0.7524  0.4071
 6278SOL    HW124926  10.631   7.734   8.856 -0.2970 -0.0632 -2.3443
 6278SOL    HW224927  10.544   7.854   8.886 -0.5597 -1.0574  1.2746
 6279SOL     OW24928   5.390   6.258   9.577  0.0791 -0.3039  0.3953
 6279SOL    HW124929   5.299   6.281   9.595  0.1841  0.3366  0.1427
 6279SOL    HW224930   5.406   6.294   9.490  1.1092  1.1846  1.1646
 6280SOL     OW24931   0.539   1.842   0.107 -0.9618  0.5592  0.1947
 6280SOL    HW124932   0.462   1.805   0.063 -1.4091  0.5182  0.9955
 6280SOL    HW224933   0.585   1.889   0.037 -2.6945  2.1598  0.0203
 6281SOL     OW24934   3.306   8.779   9.468  0.3347  0.3536  0.6836
 6281SOL    HW124935   3.227   8.800   9.518  0.2113  0.4312  0.4570
 6281SOL    HW224936   3.376   8.826   9.513  0.2553  0.2766  0.8911
 6282SOL     OW24937   1.875   7.757   3.543 -0.1406 -0.2822 -0.3638
 6282SOL    HW124938   1.897   7.850   3.555  0.3664 -0.3805 -0.5385
 6282SOL    HW224939   1.878   7.744   3.449  1.6025 -0.9092 -0.2574
 6283SOL     OW24940   8.894   5.065   6.065 -0.0161  0.3587  0.8353
 6283SOL    HW124941   8.911   4.971   6.072  0.1960  0.4017  0.9232
 6283SOL    HW224942   8.803   5.071   6.036  0.3153  0.1030 -0.3254
 6284SOL     OW24943   4.761   8.980   5.500 -0.1004  0.4622  0.2236
 6284SOL    HW124944   4.816   9.014   5.429 -0.4068 -0.4296 -0.4619
 6284SOL    HW224945   4.680   9.031   5.493  0.0440  0.6962  0.2345
 6285SOL     OW24946   1.876  10.166   7.593  0.7518  0.3464  0.1441
 6285SOL    HW124947   1.817  10.156   7.519 -0.3864 -0.4393  1.1162
 6285SOL    HW224948   1.906  10.077   7.612  1.3678  0.5927  0.3705
 6286SOL     OW24949  10.161   4.348  10.409 -0.9176 -0.6158  0.3657
 6286SOL    HW124950  10.205   4.329  10.491 -0.6082 -0.0243  0.3461
 6286SOL    HW224951  10.081   4.295  10.411 -2.3027  1.3771  2.2614
 6287SOL     OW24952   2.064  10.929   4.107  0.3649  0.2674  0.1333
 6287SOL    HW124953   2.100  11.003   4.056  0.0460 -0.0462 -0.5638
 6287SOL    HW224954   2.024  10.872   4.041  0.0523 -0.2171  0.7337
 6288SOL     OW24955   0.379   5.376   7.789 -0.4445  0.0700 -0.1756
 6288SOL    HW124956   0.320   5.302   7.806 -1.0353 -0.1021 -2.5902
 6288SOL    HW224957   0.333   5.452   7.823 -1.8779 -0.1320 -1.5581
 6289SOL     OW24958   6.915   6.152   6.098  0.0272  0.0096  0.0242
 6289SOL    HW124959   6.920   6.220   6.166 -1.0303  0.0530  0.0873
 6289SOL    HW224960   6.918   6.200   6.015  1.4356 -0.0516  0.0144
 6290SOL     OW24961   6.673   3.599   2.903  0.3363  0.3949 -0.3933
 6290SOL    HW124962   6.649   3.669   2.964  1.0029 -0.7143  1.2015
 6290SOL    HW224963   6.769   3.601   2.900  0.6844 -2.7529  2.6650
 6291SOL     OW24964   2.311   3.816  10.768  0.0083 -0.5247  0.3250
 6291SOL    HW124965   2.329   3.850  10.856 -1.6547  0.9562  0.1492
 6291SOL    HW224966   2.398   3.809  10.728  0.6256  3.3699  0.5139
 6292SOL     OW24967   4.598   5.754   7.970 -0.3617  0.4188  0.1522
 6292SOL    HW124968   4.553   5.735   8.052  1.8967 -0.1769  1.3435
 6292SOL    HW224969   4.574   5.681   7.912  1.1233 -1.4285  1.6910
 6293SOL     OW24970   5.808   1.167   0.160  0.5414 -0.4399 -0.0829
 6293SOL    HW124971   5.741   1.230   0.184  0.5359 -0.5914  0.3008
 6293SOL    HW224972   5.879   1.220   0.123  1.2130 -0.0278  1.6885
 6294SOL     OW24973   6.970   6.641   7.107 -0.7062  0.0037 -0.4871
 6294SOL    HW124974   6.906   6.605   7.045 -0.5005  0.8151 -1.1929
 6294SOL    HW224975   6.916   6.678   7.177 -0.9971  0.1606 -0.7871
 6295SOL     OW24976   0.724   4.170   7.213 -0.8071  0.4179  0.2481
 6295SOL    HW124977   0.704   4.100   7.276 -1.6566  0.5106  0.0827
 6295SOL    HW224978   0.640   4.194   7.176 -0.3827  0.7777 -0.5010
 6296SOL     OW24979   2.819  10.163   5.604  0.0957 -0.2785  0.4137
 6296SOL    HW124980   2.789  10.249   5.635 -1.0910 -0.6968  0.4662
 6296SOL    HW224981   2.853  10.180   5.516 -0.1279  0.2424  0.4234
 6297SOL     OW24982   6.346   3.128   7.544  0.5812  0.2338  0.1118
 6297SOL    HW124983   6.376   3.214   7.573 -0.8238  0.6754  0.3586
 6297SOL    HW224984   6.298   3.093   7.619  0.2916 -0.3198 -0.3243
 6298SOL     OW24985   8.410   8.172   6.953  0.0835  0.1122 -0.5524
 6298SOL    HW124986   8.371   8.224   7.023  0.4325  0.7080 -0.7912
 6298SOL    HW224987   8.457   8.236   6.899  0.5880 -0.4605 -0.8068
 6299SOL     OW24988   6.873   7.095   7.193  0.2391  0.1107  0.5398
 6299SOL    HW124989   6.798   7.154   7.201  0.3128  0.3335 -0.3009
 6299SOL    HW224990   6.949   7.152   7.205  0.3287  0.3220 -0.9120
 6300SOL     OW24991   5.235   0.037   3.762 -0.0398  0.1947  0.7306
 6300SOL    HW124992   5.190   0.118   3.735  0.3414  0.6413  1.4128
 6300SOL    HW224993   5.258   0.052   3.854  0.6133 -0.4311  0.6740
 6301SOL     OW24994   8.761   2.211   9.613 -0.1219 -0.0477  0.4877
 6301SOL    HW124995   8.766   2.197   9.518  0.4460  1.2153  0.3055
 6301SOL    HW224996   8.713   2.293   9.622 -0.3455 -0.2620  1.3105
 6302SOL     OW24997   8.215   7.693   0.371  0.2690 -0.6477 -1.0136
 6302SOL    HW124998   8.190   7.779   0.338  1.9340  0.3083  0.0825
 6302SOL    HW224999   8.277   7.711   0.442 -0.3481 -2.7138  0.1547
 6303SOL     OW25000   4.983   5.917   4.794 -0.5092 -0.0132  0.2240
 6303SOL    HW125001   4.924   5.843   4.778  0.5716 -0.7351 -0.4723
 6303SOL    HW225002   5.070   5.878   4.798  0.0498  1.1937  0.1072
 6304SOL     OW25003   1.687   3.954   9.387 -0.2686  0.0308  0.5743
 6304SOL    HW125004   1.731   3.928   9.468  1.4384  1.2320  0.0774
 6304SOL    HW225005   1.734   3.907   9.318 -3.6779 -3.5781  0.3328
 6305SOL     OW25006   1.516   4.411   9.529 -0.2876  0.3466 -0.5017
 6305SOL    HW125007   1.523   4.487   9.471 -1.1477  0.3511 -0.6068
 6305SOL    HW225008   1.437   4.366   9.501 -0.3777  0.0053  0.2720
 6306SOL     OW25009   2.919   2.735  10.109 -0.5546  0.7118  0.2224
 6306SOL    HW125010   3.000   2.731  10.057 -0.3875  1.9265  0.3535
 6306SOL    HW225011   2.907   2.828  10.126 -3.0510  0.7765 -1.4343
 6307SOL     OW25012   8.609   6.948   8.480  0.0636  0.4419  0.8168
 6307SOL    HW125013   8.625   7.028   8.530  1.2199  0.1879  0.8665
 6307SOL    HW225014   8.638   6.970   8.391 -3.8443  1.6055 -0.3962
 6308SOL     OW25015   9.798   8.110   4.533  0.6356 -0.0664 -0.8102
 6308SOL    HW125016   9.737   8.183   4.521 -0.3641 -1.0341 -1.7576
 6308SOL    HW225017   9.847   8.106   4.451 -0.4625 -1.4808 -1.4254
 6309SOL     OW25018   8.069   5.969   5.994 -0.1167 -0.0149  0.3121
 6309SOL    HW125019   8.026   5.934   5.915 -0.6976 -0.6145  0.8835
 6309SOL    HW225020   8.088   6.060   5.972  1.2526 -0.5941 -1.1491
 6310SOL     OW25021   4.557  10.567   0.463 -0.3891 -0.0632 -0.0094
 6310SOL    HW125022   4.509  10.607   0.535  1.5900  0.7211  0.9365
 6310SOL    HW225023   4.545  10.473   0.476 -0.8675  0.0949  0.7553
 6311SOL     OW25024   1.836   4.963   0.813  1.1226 -0.5391 -0.2697
 6311SOL    HW125025   1.910   5.012   0.851  2.0687 -0.9249 -1.5583
 6311SOL    HW225026   1.875   4.882   0.780 -0.2395 -1.6871  0.8107
 6312SOL     OW25027   2.243   0.234   4.602  0.1979 -0.0483 -0.1398
 6312SOL    HW125028   2.196   0.154   4.580  1.5290 -1.3414  1.3947
 6312SOL    HW225029   2.335   0.211   4.593  0.7071  0.5005  2.6636
 6313SOL     OW25030  10.078   6.879   5.733  0.7412  0.0277 -0.1995
 6313SOL    HW125031  10.143   6.840   5.674  0.3246  0.1519 -0.7488
 6313SOL    HW225032  10.129   6.928   5.797  1.2107 -0.3233 -0.3030
 6314SOL     OW25033   6.058   1.269   0.449 -0.0822 -0.2311  0.6556
 6314SOL    HW125034   5.965   1.257   0.431 -0.2022 -0.1190  1.1721
 6314SOL    HW225035   6.064   1.269   0.545  0.3986  0.1499  0.6315
 6315SOL     OW25036   9.842   7.839   9.537  0.3419 -0.1966  0.4618
 6315SOL    HW125037   9.800   7.915   9.578 -0.6504 -0.5707  0.1870
 6315SOL    HW225038   9.769   7.781   9.516  0.8110 -0.0606 -1.7687
 6316SOL     OW25039   8.049   1.139  10.885 -0.2709 -0.0113 -0.1877
 6316SOL    HW125040   8.098   1.061  10.910 -1.9698 -0.6360  1.5118
 6316SOL    HW225041   7.971   1.105  10.841  0.2392  0.9010 -1.8889
 6317SOL     OW25042   7.028  10.382   0.551  0.5082  0.0994  0.1165
 6317SOL    HW125043   6.984  10.413   0.630  0.7508  0.0393  0.2768
 6317SOL    HW225044   7.040  10.288   0.565 -0.7398 -0.1899 -0.6179
 6318SOL     OW25045   5.422   2.216   9.184 -0.2317  0.6523 -0.1465
 6318SOL    HW125046   5.371   2.255   9.112  0.3795 -1.1670 -1.6512
 6318SOL    HW225047   5.357   2.166   9.234 -0.5068  1.2252  0.0892
 6319SOL     OW25048  10.656   9.860   8.134 -0.7033 -0.4457  0.2228
 6319SOL    HW125049  10.723   9.808   8.089 -0.3121  0.7069 -0.5792
 6319SOL    HW225050  10.579   9.853   8.078  0.3805  2.7308 -1.9694
 6320SOL     OW25051   4.110   4.910   7.527  0.2374  0.4779 -0.7870
 6320SOL    HW125052   4.173   4.909   7.600  0.3120 -0.2878 -0.8532
 6320SOL    HW225053   4.079   5.001   7.524 -1.4810  0.0790  1.6627
 6321SOL     OW25054   2.854   3.083   9.311  0.4543  0.0804 -0.1118
 6321SOL    HW125055   2.790   3.017   9.283  0.9418 -0.2693 -0.4291
 6321SOL    HW225056   2.888   3.049   9.394 -0.2981  0.6408  0.4476
 6322SOL     OW25057   6.728   1.813   0.487  0.2589  0.5190 -0.2644
 6322SOL    HW125058   6.685   1.789   0.405  1.2231 -0.4752 -0.5072
 6322SOL    HW225059   6.793   1.743   0.501  1.7851  1.9539  0.0705
 6323SOL     OW25060   0.023   2.585   3.444 -0.8085 -0.2333 -0.2242
 6323SOL    HW125061  -0.032   2.596   3.367  0.0972  1.8618 -0.6354
 6323SOL    HW225062   0.101   2.638   3.425 -0.2904 -0.1799  1.8742
 6324SOL     OW25063   0.966   5.158   9.449 -0.3206  0.1863 -0.2639
 6324SOL    HW125064   1.053   5.169   9.410  0.0154  0.2588  0.4909
 6324SOL    HW225065   0.943   5.067   9.428  0.6587 -0.3625  0.9320
 6325SOL     OW25066   1.307   3.272   8.489 -0.2024  0.0916  0.4787
 6325SOL    HW125067   1.319   3.365   8.509 -0.9280  0.2425  0.2347
 6325SOL    HW225068   1.315   3.266   8.394 -0.3984 -0.0535  0.4701
 6326SOL     OW25069   8.567  10.307   9.829 -0.1215 -0.1027 -0.0846
 6326SOL    HW125070   8.640  10.255   9.794 -0.4097 -0.5819  0.0136
 6326SOL    HW225071   8.489  10.262   9.797 -0.3768  0.3439 -0.0920
 6327SOL     OW25072   6.862   1.806   6.787 -0.1193 -0.0618 -0.1728
 6327SOL    HW125073   6.816   1.832   6.707  0.2637  1.2703 -0.0017
 6327SOL    HW225074   6.793   1.795   6.852 -0.4068 -0.8268 -0.6004
 6328SOL     OW25075   5.250   0.706   1.650  0.3205 -0.4295  0.7843
 6328SOL    HW125076   5.318   0.644   1.623  1.5845  0.9521  0.6599
 6328SOL    HW225077   5.200   0.660   1.716  0.9390 -1.7367  0.3703
 6329SOL     OW25078   3.221   2.742   0.520 -0.0925  0.0119  0.0270
 6329SOL    HW125079   3.291   2.709   0.575  0.6104  0.8620 -0.3335
 6329SOL    HW225080   3.181   2.664   0.482 -0.0133 -0.5266  1.0405
 6330SOL     OW25081   5.602   9.528  10.852  0.8505  0.3544  0.2591
 6330SOL    HW125082   5.539   9.591  10.818 -0.9538 -0.4764  1.8882
 6330SOL    HW225083   5.649   9.496  10.774 -0.3217  1.4256 -0.9326
 6331SOL     OW25084   8.397   2.850   7.726 -0.9023 -0.1609 -0.2968
 6331SOL    HW125085   8.442   2.888   7.801 -2.5281 -0.5489  0.9088
 6331SOL    HW225086   8.380   2.759   7.751  0.1205 -0.8474 -1.8771
 6332SOL     OW25087   5.858   4.851   2.667 -0.1910 -0.3099 -0.2927
 6332SOL    HW125088   5.848   4.774   2.611 -1.3552 -0.8214  0.5682
 6332SOL    HW225089   5.780   4.904   2.648  0.4353  0.5078 -0.6319
 6333SOL     OW25090   0.288   8.429   7.086  0.2770  0.7104 -0.1062
 6333SOL    HW125091   0.261   8.367   7.018  1.1546  0.0406  0.1273
 6333SOL    HW225092   0.279   8.379   7.168  1.8575  0.5662  0.0063
 6334SOL     OW25093   9.317   1.917   1.050 -0.3269 -0.2373 -0.2078
 6334SOL    HW125094   9.306   1.957   1.137 -0.0370 -1.4791  0.4219
 6334SOL    HW225095   9.401   1.951   1.019 -0.4388  0.2276 -0.0258
 6335SOL     OW25096   6.712   6.554   3.826 -0.7245  0.2368  0.2524
 6335SOL    HW125097   6.718   6.527   3.918 -0.1568 -1.5203 -0.2710
 6335SOL    HW225098   6.654   6.489   3.786 -0.1035  0.3554 -0.8525
 6336SOL     OW25099   4.782   7.736   7.963  0.5719  0.2583  0.0774
 6336SOL    HW125100   4.777   7.737   7.867  1.2913 -0.7950  0.0087
 6336SOL    HW225101   4.709   7.791   7.991 -2.0952 -2.3881 -1.0346
 6337SOL     OW25102   5.878   8.176   1.723 -0.0406 -0.0555 -0.2677
 6337SOL    HW125103   5.879   8.165   1.627  0.1054  0.7683 -0.3680
 6337SOL    HW225104   5.785   8.176   1.746 -0.0734 -0.3872 -0.3892
 6338SOL     OW25105   4.921  10.284   3.659  0.2559 -0.0842 -0.3864
 6338SOL    HW125106   4.956  10.289   3.749 -1.2108 -0.3492  0.2205
 6338SOL    HW225107   4.902  10.375   3.637  1.1836  0.0504 -0.6771
 6339SOL     OW25108   5.803   1.785  10.913 -0.3985  0.4885 -0.1060
 6339SOL    HW125109   5.763   1.858  10.961  1.4280  0.8453  0.9582
 6339SOL    HW225110   5.749   1.709  10.935 -1.3469  1.2072  0.1028
 6340SOL     OW25111   7.258   6.361   2.601 -0.0185  0.5379 -0.5369
 6340SOL    HW125112   7.295   6.340   2.687  1.0222  1.5897 -0.7020
 6340SOL    HW225113   7.202   6.286   2.581  2.1858 -1.2793 -0.3507
 6341SOL     OW25114   8.394   8.298   8.258 -0.3523 -0.0970 -0.5856
 6341SOL    HW125115   8.369   8.321   8.347 -0.0434  1.3318 -0.8420
 6341SOL    HW225116   8.489   8.303   8.257 -0.3779  0.3957 -1.1146
 6342SOL     OW25117  10.870   4.949   8.439 -0.0447 -0.5163 -0.2925
 6342SOL    HW125118  10.876   5.025   8.496  1.3369 -1.3407  0.7039
 6342SOL    HW225119  10.919   4.974   8.360  0.7828 -0.5217  0.2128
 6343SOL     OW25120   6.339   9.194   5.709 -0.3169  0.5956  0.2879
 6343SOL    HW125121   6.421   9.171   5.751 -1.5909 -1.1244  1.9797
 6343SOL    HW225122   6.353   9.175   5.616  1.0514 -0.0073  0.5987
 6344SOL     OW25123   3.235   5.683   9.075 -0.4481  0.4180  0.6593
 6344SOL    HW125124   3.196   5.598   9.094 -3.2915  1.0588 -1.6473
 6344SOL    HW225125   3.286   5.669   8.995  0.5819  0.5381  1.2749
 6345SOL     OW25126   7.977   8.933   3.318  0.1035  0.2035  0.8063
 6345SOL    HW125127   8.012   8.995   3.383  2.3943 -1.0089  0.8511
 6345SOL    HW225128   8.026   8.952   3.238  0.9006 -1.5081  0.8366
 6346SOL     OW25129   3.985   6.149   2.523 -0.5413 -0.0236  0.2183
 6346SOL    HW125130   4.065   6.189   2.488 -0.6770 -2.1454 -2.8396
 6346SOL    HW225131   4.017   6.083   2.584 -0.2188  1.9804  2.3718
 6347SOL     OW25132   5.757   2.137   4.364 -0.1082  0.2728 -0.6302
 6347SOL    HW125133   5.806   2.191   4.303 -0.3011  0.9143 -0.2356
 6347SOL    HW225134   5.756   2.050   4.325  1.8157  0.0978 -0.3913
 6348SOL     OW25135   0.901   2.592   7.332  0.1280  0.0818 -0.0578
 6348SOL    HW125136   0.963   2.628   7.268 -0.9255  1.9375 -0.0883
 6348SOL    HW225137   0.848   2.530   7.282  0.3625  0.3050 -0.5894
 6349SOL     OW25138   8.534   0.283   0.257 -0.1183  0.7827  0.0765
 6349SOL    HW125139   8.600   0.239   0.202 -0.7290 -1.3407  0.9483
 6349SOL    HW225140   8.519   0.367   0.213  1.4627  0.3474 -1.4222
 6350SOL     OW25141   2.859   9.427   4.685  0.0678 -0.5186  0.2212
 6350SOL    HW125142   2.906   9.506   4.714  0.3535 -1.0247  1.1784
 6350SOL    HW225143   2.910   9.355   4.721 -0.1858 -1.1558 -0.6613
 6351SOL     OW25144   9.985   8.102   6.729 -0.3458  0.2315  0.4012
 6351SOL    HW125145   9.897   8.108   6.767 -0.3780 -0.8915  0.5302
 6351SOL    HW225146  10.007   8.009   6.732  1.6235  0.6789  2.0958
 6352SOL     OW25147   6.797   3.356   0.423  0.2703  0.0795  0.6788
 6352SOL    HW125148   6.715   3.378   0.378  0.8042  1.5034  0.3310
 6352SOL    HW225149   6.860   3.421   0.390  1.1865 -0.1221  1.9712
 6353SOL     OW25150   9.099   6.865   6.122 -0.3316  0.9634 -0.0609
 6353SOL    HW125151   9.057   6.794   6.072  0.6413 -0.0489  0.5176
 6353SOL    HW225152   9.176   6.888   6.070 -0.3331  1.2068  0.0431
 6354SOL     OW25153   5.416   0.421   8.898  0.2133 -0.1030 -0.0267
 6354SOL    HW125154   5.424   0.513   8.874  0.6331  0.0307  0.5934
 6354SOL    HW225155   5.425   0.421   8.994 -1.3867 -0.6043  0.1644
 6355SOL     OW25156   2.525  10.575   5.369  0.4669 -0.2576  0.0055
 6355SOL    HW125157   2.604  10.554   5.418  1.8709 -0.7569 -2.3081
 6355SOL    HW225158   2.479  10.492   5.360  1.5582 -0.7413 -1.6570
 6356SOL     OW25159   5.097   9.168   5.797 -0.3437  0.2059 -0.4159
 6356SOL    HW125160   5.151   9.110   5.744  0.4560  1.3776 -0.9499
 6356SOL    HW225161   5.008   9.137   5.785  0.1068 -1.1751 -0.2990
 6357SOL     OW25162   5.327   6.183   5.651 -0.3080  0.5650 -0.1935
 6357SOL    HW125163   5.383   6.186   5.574 -0.4177  0.1469 -0.2900
 6357SOL    HW225164   5.350   6.101   5.694 -0.8291  0.4038 -0.2197
 6358SOL     OW25165   3.678   0.878   1.280 -0.7352  0.5357  0.1379
 6358SOL    HW125166   3.731   0.941   1.329 -0.6037 -0.3359  1.1592
 6358SOL    HW225167   3.711   0.883   1.191  0.6826  0.4159  0.6380
 6359SOL     OW25168   3.650   4.496   3.760  0.2564 -0.3523  0.0510
 6359SOL    HW125169   3.691   4.572   3.800  0.0541 -0.7475  1.0449
 6359SOL    HW225170   3.560   4.524   3.741  0.7801  0.3259 -1.5837
 6360SOL     OW25171   4.493  10.016   3.137  0.1436 -0.1306 -0.1099
 6360SOL    HW125172   4.412  10.063   3.121  0.8215  0.8288 -0.7959
 6360SOL    HW225173   4.469   9.924   3.126 -1.1117  0.0468  0.8929
 6361SOL     OW25174   7.854   5.528   7.074  0.1240 -0.4826  0.1532
 6361SOL    HW125175   7.827   5.489   6.991  1.4072 -1.2434  0.0655
 6361SOL    HW225176   7.843   5.458   7.138  1.7411 -0.7976  0.1219
 6362SOL     OW25177   3.557   8.570   2.399 -0.2590  0.3028  0.5453
 6362SOL    HW125178   3.525   8.642   2.346  3.3797  0.5722 -1.6129
 6362SOL    HW225179   3.545   8.599   2.489 -2.9953  1.5607 -0.1280
 6363SOL     OW25180   4.523   8.373   4.891 -0.1906 -0.2088 -0.0796
 6363SOL    HW125181   4.611   8.409   4.902 -0.4428  0.6121 -0.6366
 6363SOL    HW225182   4.534   8.278   4.896  0.8713 -0.1515 -1.1734
 6364SOL     OW25183   4.783   7.868   9.860  0.1964  0.3475  0.1030
 6364SOL    HW125184   4.784   7.964   9.856 -0.1821  0.4098  1.1100
 6364SOL    HW225185   4.832   7.847   9.939 -0.9856 -0.2016  0.7251
 6365SOL     OW25186   9.888   0.192   7.050  0.1046  0.6787 -0.0996
 6365SOL    HW125187   9.839   0.259   7.098 -0.7543  0.5023 -0.7067
 6365SOL    HW225188   9.956   0.241   7.003 -0.8929  1.2169 -1.0169
 6366SOL     OW25189   7.762   8.537   1.048  0.6041  0.2318 -0.3559
 6366SOL    HW125190   7.775   8.460   0.993  0.0290  0.5123 -0.9059
 6366SOL    HW225191   7.844   8.586   1.042  1.5865 -1.1112  1.2894
 6367SOL     OW25192   7.987   6.330   5.696  0.0352 -0.4358  0.1503
 6367SOL    HW125193   7.978   6.400   5.761  1.1901  1.5242 -1.6709
 6367SOL    HW225194   7.900   6.289   5.692 -0.5322  0.5505  1.6420
 6368SOL     OW25195   9.584   1.996  10.783  0.5969 -0.3250 -0.1208
 6368SOL    HW125196   9.644   1.966  10.852 -0.3680  0.6874  1.2173
 6368SOL    HW225197   9.541   1.916  10.753  1.7953 -0.9213 -0.3234
 6369SOL     OW25198   4.586   3.750   3.552 -0.3535  0.8659  0.1821
 6369SOL    HW125199   4.590   3.751   3.648  0.7798  2.1526  0.1643
 6369SOL    HW225200   4.535   3.829   3.530 -0.4866  0.6527 -0.2800
 6370SOL     OW25201   5.888   1.411  10.569  0.5743  0.0052  0.0268
 6370SOL    HW125202   5.878   1.505  10.586  0.6570 -0.0996  0.6917
 6370SOL    HW225203   5.865   1.401  10.477 -0.1504  0.5749  0.1335
 6371SOL     OW25204   7.803   7.453  10.283 -0.2109  0.3448  0.0244
 6371SOL    HW125205   7.876   7.487  10.335 -0.6578  0.6323  0.4736
 6371SOL    HW225206   7.805   7.358  10.297 -0.5645  0.4574  0.8881
 6372SOL     OW25207   6.607   7.636   6.353  0.6814 -0.5884  0.1908
 6372SOL    HW125208   6.644   7.677   6.431 -0.4844 -0.2224  0.5845
 6372SOL    HW225209   6.668   7.658   6.283 -0.2418  2.6567  0.2026
 6373SOL     OW25210   8.059   9.053   1.435  0.0915 -0.4548 -0.0034
 6373SOL    HW125211   7.978   9.087   1.473 -1.5173 -2.4529 -1.3861
 6373SOL    HW225212   8.058   9.086   1.344 -0.0934 -1.8898 -0.5415
 6374SOL     OW25213   7.598   5.818   5.529  0.3064  0.4213 -0.1391
 6374SOL    HW125214   7.505   5.830   5.509  0.8735  1.6068 -2.3900
 6374SOL    HW225215   7.617   5.885   5.596 -0.5086 -0.0673  0.5984
 6375SOL     OW25216   1.396   0.660   2.221  0.1481 -0.1343  0.5127
 6375SOL    HW125217   1.324   0.615   2.177 -2.0817  1.5368  2.2309
 6375SOL    HW225218   1.383   0.640   2.314 -0.8409  3.6565  1.3563
 6376SOL     OW25219   4.973   7.216   1.230  0.8435 -0.2543 -0.2103
 6376SOL    HW125220   5.036   7.272   1.186 -0.0370 -0.5359 -1.9708
 6376SOL    HW225221   4.921   7.179   1.158 -1.5942  0.3043  1.1537
 6377SOL     OW25222   3.915   6.692   8.154  0.1612  0.3087 -0.2059
 6377SOL    HW125223   3.994   6.742   8.132  1.3015 -1.0914  0.5221
 6377SOL    HW225224   3.898   6.713   8.246 -0.1298  0.3468 -0.2663
 6378SOL     OW25225   0.498   4.079   7.550 -0.3196  0.0466 -0.8383
 6378SOL    HW125226   0.538   4.031   7.622 -0.8414  0.3646 -0.3236
 6378SOL    HW225227   0.535   4.040   7.471 -0.7860 -1.2553 -0.4412
 6379SOL     OW25228   3.481   7.778   9.089 -0.5107  0.0540  0.0572
 6379SOL    HW125229   3.410   7.761   9.152 -1.3336 -0.5828 -1.0179
 6379SOL    HW225230   3.504   7.691   9.055  0.6857  0.2727  0.2621
 6380SOL     OW25231   1.197   3.375  10.244 -0.3332  0.4004 -0.3531
 6380SOL    HW125232   1.138   3.381  10.169 -0.8551 -0.6117 -0.0406
 6380SOL    HW225233   1.226   3.284  10.246  0.5626  0.6808  0.0133
 6381SOL     OW25234   7.952   4.038   8.441  0.2574 -0.2048 -0.1850
 6381SOL    HW125235   7.996   3.957   8.467 -0.0078 -0.8259 -1.5943
 6381SOL    HW225236   7.929   4.025   8.349 -0.2745  1.2648 -0.2895
 6382SOL     OW25237   5.083   5.072   4.565 -0.0144  0.2242 -0.1380
 6382SOL    HW125238   5.089   5.149   4.508 -3.0298  1.1774  0.6362
 6382SOL    HW225239   5.051   5.106   4.648 -0.2105 -1.7190  0.6365
 6383SOL     OW25240   4.626   3.268   5.444 -0.0518  0.7883  0.3518
 6383SOL    HW125241   4.629   3.360   5.419 -0.0244  0.9241  0.8552
 6383SOL    HW225242   4.692   3.259   5.512 -0.9105  0.6795  1.1920
 6384SOL     OW25243   5.183   4.799   8.530  0.4924  0.0694  0.1447
 6384SOL    HW125244   5.118   4.814   8.598 -0.5831 -1.6835 -0.4135
 6384SOL    HW225245   5.159   4.860   8.460 -0.7664 -0.7218 -0.1537
 6385SOL     OW25246   2.065   0.063   3.750 -0.0467 -0.0250 -0.5436
 6385SOL    HW125247   2.008   0.007   3.804  0.3534 -0.8200 -0.9368
 6385SOL    HW225248   2.006   0.100   3.684 -0.5344  0.9162  0.3667
 6386SOL     OW25249   8.026   2.084   0.300  0.1967  0.3893 -0.1133
 6386SOL    HW125250   7.975   2.006   0.321  1.2282 -0.1445  0.4888
 6386SOL    HW225251   7.968   2.157   0.320 -0.4459 -0.2040  0.2350
 6387SOL     OW25252   2.075  10.476   6.292  0.6643  0.3754 -0.0036
 6387SOL    HW125253   2.130  10.547   6.327 -0.2684  1.2174 -0.2101
 6387SOL    HW225254   2.095  10.474   6.198 -0.9826  1.9433 -0.4348
 6388SOL     OW25255   4.894   8.154   6.089 -0.2156 -0.1913 -0.5867
 6388SOL    HW125256   4.862   8.142   5.999 -0.8514  0.7806 -0.5045
 6388SOL    HW225257   4.848   8.087   6.140  1.3277 -1.8061 -1.2199
 6389SOL     OW25258   2.929   6.875   3.434  0.4771 -0.3655 -0.0852
 6389SOL    HW125259   3.012   6.863   3.480  1.1124 -0.4853 -1.2220
 6389SOL    HW225260   2.943   6.951   3.378  0.0910 -0.8361 -0.8417
 6390SOL     OW25261   4.333   3.089   9.098 -0.1766 -0.0646  0.0294
 6390SOL    HW125262   4.245   3.089   9.061 -0.4258 -0.9373  0.5929
 6390SOL    HW225263   4.343   3.003   9.138  1.9911 -1.1019 -2.4577
 6391SOL     OW25264   3.125   1.155  10.058  0.2433  0.2078 -0.0957
 6391SOL    HW125265   3.176   1.083  10.097  0.7546 -0.2324 -1.4950
 6391SOL    HW225266   3.126   1.136   9.964  2.0835  3.0813 -0.7930
 6392SOL     OW25267  10.192   8.383   8.234  0.0540  0.4633 -0.0001
 6392SOL    HW125268  10.140   8.455   8.198 -1.5765 -1.1582 -1.0831
 6392SOL    HW225269  10.128   8.329   8.280  0.9757 -1.0473 -0.4362
 6393SOL     OW25270   7.849   5.020   9.159 -0.5647 -0.0379 -0.5585
 6393SOL    HW125271   7.779   4.992   9.100 -0.1955 -3.8153  0.4900
 6393SOL    HW225272   7.844   4.959   9.233  3.1956  0.0631  0.0116
 6394SOL     OW25273   5.199   2.366   4.324  0.0587  0.0845 -0.0885
 6394SOL    HW125274   5.161   2.287   4.285  0.7848  0.3761 -1.4382
 6394SOL    HW225275   5.255   2.333   4.395 -1.1820 -0.4649  0.6720
 6395SOL     OW25276   6.725   3.243   5.467  0.0651 -0.3219 -0.1632
 6395SOL    HW125277   6.715   3.288   5.383  0.6954 -0.0051 -0.0796
 6395SOL    HW225278   6.699   3.153   5.450 -1.4349  0.1144 -0.2840
 6396SOL     OW25279   3.922   2.689   3.893 -0.6867 -0.2249 -0.3418
 6396SOL    HW125280   3.907   2.747   3.968 -0.3588 -0.2046 -0.2924
 6396SOL    HW225281   3.961   2.610   3.931 -0.9583 -0.4024 -0.4328
 6397SOL     OW25282   4.066   8.078   0.085 -0.3548  0.1188  0.4573
 6397SOL    HW125283   4.158   8.086   0.106  0.0747 -2.0581 -0.3039
 6397SOL    HW225284   4.040   7.993   0.122 -2.3626  1.1799  1.6592
 6398SOL     OW25285   1.717   7.741   8.375  0.0197 -0.2774 -0.2724
 6398SOL    HW125286   1.783   7.810   8.371  0.6536 -0.7336  1.3965
 6398SOL    HW225287   1.647   7.772   8.317  1.3707  0.5417 -1.5514
 6399SOL     OW25288   1.189   8.633   7.795  0.0560  0.9403 -0.0022
 6399SOL    HW125289   1.149   8.718   7.815  0.8002  0.6315  3.4881
 6399SOL    HW225290   1.240   8.649   7.716 -2.2541  2.8617 -1.2590
 6400SOL     OW25291   8.499   1.343   8.750 -0.7667 -0.8041 -0.4227
 6400SOL    HW125292   8.497   1.265   8.806  1.2649 -0.0996  0.7375
 6400SOL    HW225293   8.574   1.330   8.693 -0.2288  0.3934 -0.0267
 6401SOL     OW25294   2.719   9.873   7.314  0.0372  0.2117 -0.1766
 6401SOL    HW125295   2.675   9.811   7.256 -0.4539 -0.0317  0.4425
 6401SOL    HW225296   2.812   9.863   7.294 -0.0985 -0.1544 -0.6394
 6402SOL     OW25297   2.009   2.510   2.981 -0.1174 -0.2942 -0.2315
 6402SOL    HW125298   1.972   2.584   3.030  0.8319 -0.1403  0.2847
 6402SOL    HW225299   2.084   2.481   3.034 -0.1405 -1.2757 -0.7059
 6403SOL     OW25300   4.548   6.843   2.604  0.0939  0.1502  0.7249
 6403SOL    HW125301   4.477   6.852   2.540 -0.3097  0.7938  1.2504
 6403SOL    HW225302   4.526   6.763   2.653  0.3932 -0.3340  0.0848
 6404SOL     OW25303   4.167   7.205   0.355  0.1626  0.1945  0.6910
 6404SOL    HW125304   4.244   7.187   0.409 -0.7623 -1.5082  1.5133
 6404SOL    HW225305   4.182   7.154   0.275  0.8172  1.5196 -0.0795
 6405SOL     OW25306   4.831  10.757   5.933 -0.4196 -0.2274  0.1061
 6405SOL    HW125307   4.760  10.717   5.882 -0.5775  0.6630 -0.3989
 6405SOL    HW225308   4.794  10.771   6.020 -0.5361 -0.6894  0.1294
 6406SOL     OW25309   1.386   5.046  10.538 -0.0664  0.1272  0.0867
 6406SOL    HW125310   1.292   5.042  10.552  0.0144 -0.5641  0.5138
 6406SOL    HW225311   1.422   5.069  10.624  0.3882 -3.5072  1.0581
 6407SOL     OW25312   5.651   0.655  10.542  0.0263 -0.1196  0.1884
 6407SOL    HW125313   5.743   0.679  10.532  0.2494 -0.3186  1.5099
 6407SOL    HW225314   5.634   0.663  10.636 -1.8851  1.8992 -0.2446
 6408SOL     OW25315   3.724   5.700  10.433 -0.1589 -0.0054 -0.2848
 6408SOL    HW125316   3.680   5.685  10.517 -1.2911  0.0922 -0.8446
 6408SOL    HW225317   3.787   5.628  10.426 -1.3622 -1.1026 -0.2106
 6409SOL     OW25318   3.259   5.335   4.602 -0.2688  0.3114 -0.4097
 6409SOL    HW125319   3.285   5.426   4.588  2.3165 -0.3915 -0.5767
 6409SOL    HW225320   3.163   5.339   4.609 -0.2294  3.0292 -0.2990
 6410SOL     OW25321   0.750   5.802   9.591  0.3820 -0.2501  0.4226
 6410SOL    HW125322   0.771   5.783   9.682 -0.0495 -0.0368  0.5725
 6410SOL    HW225323   0.660   5.836   9.594 -0.0578 -1.2942 -0.2055
 6411SOL     OW25324   6.016   8.749   1.826 -0.3975 -0.4784  0.2349
 6411SOL    HW125325   6.080   8.805   1.782  0.3779 -2.0799 -0.8071
 6411SOL    HW225326   6.057   8.727   1.910 -0.3651 -0.0998  0.3184
 6412SOL     OW25327   2.608   9.910  10.272 -0.9969  0.1819  0.3932
 6412SOL    HW125328   2.645   9.869  10.350 -2.8502 -0.5367  0.9666
 6412SOL    HW225329   2.574   9.994  10.303  0.2969  0.9480 -0.1779
 6413SOL     OW25330   8.969   5.243   6.786  0.1290  0.4247  0.6325
 6413SOL    HW125331   8.964   5.327   6.832  0.8689  1.3827 -0.9468
 6413SOL    HW225332   8.978   5.267   6.694  2.2449 -1.3476  0.3034
 6414SOL     OW25333   0.695  10.375   8.987 -0.3721 -0.1618  0.5403
 6414SOL    HW125334   0.682  10.296   8.934 -1.3650 -0.0508  0.6061
 6414SOL    HW225335   0.735  10.343   9.068 -0.8312 -0.6057  0.5937
 6415SOL     OW25336   6.547   2.479  10.296  0.0995 -0.3678  0.3491
 6415SOL    HW125337   6.459   2.443  10.283  0.5624 -1.4431  0.0343
 6415SOL    HW225338   6.602   2.402  10.309  0.9599  0.3068  0.7744
 6416SOL     OW25339   1.291   8.933   6.187 -0.2405 -0.2051  0.1968
 6416SOL    HW125340   1.249   8.859   6.143 -0.1111 -0.2885  0.2148
 6416SOL    HW225341   1.218   8.991   6.210 -0.3095 -0.1473 -0.1536
 6417SOL     OW25342   2.514   6.331   3.499 -0.2140  0.0645 -0.3670
 6417SOL    HW125343   2.567   6.252   3.485 -2.2397 -1.3713 -0.4379
 6417SOL    HW225344   2.501   6.334   3.593 -0.6320 -0.0354 -0.4207
 6418SOL     OW25345   6.867   6.278   9.786 -0.4664  0.5593 -0.0459
 6418SOL    HW125346   6.832   6.357   9.828  2.1956 -0.0264  3.7689
 6418SOL    HW225347   6.954   6.304   9.755 -0.2957 -0.3917 -0.3920
 6419SOL     OW25348   8.786   7.756   1.177  0.1064  0.2993  0.8989
 6419SOL    HW125349   8.771   7.797   1.262  1.3445  2.9799 -0.0569
 6419SOL    HW225350   8.872   7.788   1.149 -0.1876 -0.6189 -1.2979
 6420SOL     OW25351   9.102   2.825  10.571 -0.4755 -0.2120  0.7721
 6420SOL    HW125352   9.189   2.852  10.543 -0.9911  1.0340  0.2962
 6420SOL    HW225353   9.063   2.904  10.607 -1.6757 -0.5753  0.3121
 6421SOL     OW25354   8.230   7.486   8.260 -0.5090  0.3209  0.0375
 6421SOL    HW125355   8.151   7.514   8.305 -1.3579 -0.0022 -1.1802
 6421SOL    HW225356   8.295   7.553   8.279 -1.1769  0.7618  0.7889
 6422SOL     OW25357   8.124   3.411   6.392  0.3554 -0.2504 -0.0387
 6422SOL    HW125358   8.207   3.457   6.400  0.4517 -0.2752 -0.8863
 6422SOL    HW225359   8.145   3.320   6.412  0.2237 -0.0132  1.3219
 6423SOL     OW25360   6.776   7.788   6.516  0.1697 -0.1574 -0.2487
 6423SOL    HW125361   6.858   7.756   6.480  0.4464  0.1621  0.0923
 6423SOL    HW225362   6.761   7.872   6.472 -0.1590 -0.3855 -0.5751
 6424SOL     OW25363   4.066   3.003   2.919 -0.5172  0.0915 -0.2285
 6424SOL    HW125364   4.073   2.917   2.962 -1.8441 -0.0163 -0.2093
 6424SOL    HW225365   4.150   3.045   2.939  1.1257 -2.0377 -2.1652
 6425SOL     OW25366   1.241   9.539   4.918  0.3623  0.1513 -0.2334
 6425SOL    HW125367   1.265   9.631   4.926 -0.4026  0.5233 -1.9215
 6425SOL    HW225368   1.249   9.519   4.825  0.8571 -1.6002  0.1386
 6426SOL     OW25369   5.100   6.708   9.348 -0.2460  0.2265  0.5743
 6426SOL    HW125370   5.172   6.732   9.405 -0.4030 -0.4399  1.0721
 6426SOL    HW225371   5.043   6.653   9.403 -1.0550  0.6265  0.1525
 6427SOL     OW25372   4.588   1.326   4.936 -0.2030  0.3876 -0.3846
 6427SOL    HW125373   4.638   1.260   4.889  0.0597 -0.7304  1.3604
 6427SOL    HW225374   4.654   1.376   4.984 -0.6390 -0.6023  1.3202
 6428SOL     OW25375   2.289   8.726   7.170 -0.2542 -0.0871 -0.0572
 6428SOL    HW125376   2.360   8.671   7.137  0.4764  0.2342  0.9291
 6428SOL    HW225377   2.242   8.755   7.091  0.2405 -0.9204 -0.6695
 6429SOL     OW25378   5.682   0.567   6.619 -0.2036 -0.0894 -0.3893
 6429SOL    HW125379   5.615   0.517   6.664 -0.1800  0.8673  0.7696
 6429SOL    HW225380   5.722   0.506   6.558 -1.0475 -1.1040  0.0636
 6430SOL     OW25381   6.425   6.041   2.590 -0.2239  0.2078 -0.2209
 6430SOL    HW125382   6.335   6.074   2.590  0.0021  0.8613  0.3302
 6430SOL    HW225383   6.434   5.995   2.507  0.0026  3.1536 -1.9776
 6431SOL     OW25384  10.071   6.316   6.616  0.3770  0.1908  0.4547
 6431SOL    HW125385  10.007   6.254   6.648 -0.1197  0.7215  0.5099
 6431SOL    HW225386  10.026   6.401   6.618  0.9968  0.5346  0.2686
 6432SOL     OW25387   5.737   7.324   9.505  0.6930 -0.1617 -0.1335
 6432SOL    HW125388   5.707   7.291   9.420  1.5139 -1.8959  0.1954
 6432SOL    HW225389   5.829   7.297   9.510  0.1611 -1.9130  2.1038
 6433SOL     OW25390   1.827   6.312   4.696  0.1833  0.7041 -0.4902
 6433SOL    HW125391   1.733   6.304   4.710  0.3823  1.0828  1.3283
 6433SOL    HW225392   1.854   6.383   4.755  1.7090  0.1657 -0.4942
 6434SOL     OW25393   1.230   0.391   7.637  0.7635  0.2902  0.4506
 6434SOL    HW125394   1.249   0.439   7.557  2.2843 -0.1625  0.5132
 6434SOL    HW225395   1.196   0.306   7.607 -0.4527  0.7996  0.3292
 6435SOL     OW25396   8.734   5.518   4.712  0.2530  0.0815 -0.0427
 6435SOL    HW125397   8.732   5.614   4.712 -2.1648  0.1001 -0.5430
 6435SOL    HW225398   8.825   5.496   4.698  0.6711  2.3192 -1.3172
 6436SOL     OW25399   0.676   6.284   7.765 -0.2612 -0.5945 -0.4879
 6436SOL    HW125400   0.709   6.371   7.788 -1.1893  0.0699 -1.5682
 6436SOL    HW225401   0.731   6.224   7.816  1.6415  0.5087 -1.1155
 6437SOL     OW25402   2.056   0.718   4.390  0.8184  0.2169 -0.1709
 6437SOL    HW125403   1.984   0.695   4.331 -1.5065  2.0203  1.7948
 6437SOL    HW225404   2.077   0.636   4.435  0.3094 -0.4305 -1.0680
 6438SOL     OW25405   5.106   9.044  10.862 -0.3327 -0.5804 -0.5656
 6438SOL    HW125406   5.088   8.974  10.799  0.5905 -1.0081 -0.3661
 6438SOL    HW225407   5.168   9.005  10.924 -0.7544  0.0272  0.2603
 6439SOL     OW25408   7.165   7.222   2.604 -0.2979 -0.4607 -0.8003
 6439SOL    HW125409   7.107   7.299   2.601 -0.0894 -0.3179 -1.1404
 6439SOL    HW225410   7.248   7.256   2.636  0.3696 -0.1788 -2.7580
 6440SOL     OW25411   1.074   6.872   8.795 -0.2551 -0.1265  0.2622
 6440SOL    HW125412   1.053   6.904   8.883 -0.0461  0.1943  0.1984
 6440SOL    HW225413   1.169   6.884   8.788 -0.4276  0.9899 -0.4487
 6441SOL     OW25414   4.627   2.122   4.528  0.1698 -0.1854 -0.0689
 6441SOL    HW125415   4.561   2.181   4.563  0.2425 -0.2109  0.1154
 6441SOL    HW225416   4.684   2.103   4.602  1.3224  1.1017 -0.5770
 6442SOL     OW25417   4.422   9.641   0.436 -0.0171  0.0076  0.2620
 6442SOL    HW125418   4.441   9.559   0.482  1.4319 -0.4769 -1.0921
 6442SOL    HW225419   4.451   9.709   0.496 -1.9216 -0.3735  1.7231
 6443SOL     OW25420   5.592   3.854   7.098  0.1030 -0.0229 -1.1408
 6443SOL    HW125421   5.546   3.878   7.179  1.3444  1.2250 -0.7634
 6443SOL    HW225422   5.536   3.789   7.057 -1.0625  0.0729  0.2234
 6444SOL     OW25423   0.608   3.680   7.370  0.3633  0.0554  0.8867
 6444SOL    HW125424   0.531   3.667   7.425 -1.7834 -0.9850 -2.0638
 6444SOL    HW225425   0.654   3.596   7.371 -0.9769 -0.7540 -0.5911
 6445SOL     OW25426   5.328   8.246   7.261  0.1420  0.1062  0.2573
 6445SOL    HW125427   5.326   8.162   7.215 -1.3560  0.5288 -0.5245
 6445SOL    HW225428   5.309   8.224   7.352 -0.3145 -0.4078  0.0472
 6446SOL     OW25429  10.918   5.173  10.079  0.1703 -0.5856 -0.4312
 6446SOL    HW125430  10.968   5.111  10.026  0.3318  0.1371 -1.1487
 6446SOL    HW225431  10.834   5.128  10.095  0.2056 -0.9062 -1.1052
 6447SOL     OW25432   6.167   8.956   4.005  0.3361  0.2167 -0.2402
 6447SOL    HW125433   6.256   8.958   4.041 -0.0123  1.2299  0.5880
 6447SOL    HW225434   6.131   8.873   4.036  1.0402 -0.2738 -0.7100
 6448SOL     OW25435   4.940   4.004   9.958  0.0008  0.2089 -0.0916
 6448SOL    HW125436   4.905   4.045  10.037 -0.0289 -0.0554  0.0348
 6448SOL    HW225437   4.919   4.066   9.888  0.7710  0.8382  0.2248
 6449SOL     OW25438   7.220   7.019   7.851  0.5319 -0.2200 -0.4135
 6449SOL    HW125439   7.212   7.105   7.893  0.6907 -0.2822 -0.2546
 6449SOL    HW225440   7.130   6.987   7.845  0.4495  0.0532 -0.6765
 6450SOL     OW25441   6.426   8.099   3.668 -0.0712  0.2353 -0.1470
 6450SOL    HW125442   6.340   8.118   3.632  0.0028 -0.8132 -0.9195
 6450SOL    HW225443   6.469   8.044   3.603  0.0521 -1.7789  1.5107
 6451SOL     OW25444   5.318   1.318   4.074 -0.6204 -0.1212 -0.5178
 6451SOL    HW125445   5.250   1.252   4.081 -0.7057  0.0716  0.5793
 6451SOL    HW225446   5.278   1.388   4.021 -1.5599  0.3198  0.7244
 6452SOL     OW25447   9.108   6.169   0.398  0.0272 -0.3402 -0.1937
 6452SOL    HW125448   9.049   6.225   0.448 -0.9576 -1.9248  0.5041
 6452SOL    HW225449   9.107   6.204   0.309  1.3104  2.1631  0.6644
 6453SOL     OW25450   3.110   3.018   0.096 -0.3842  0.2504  0.5151
 6453SOL    HW125451   3.115   2.979   0.183 -0.3256 -1.0329 -0.0454
 6453SOL    HW225452   3.017   3.031   0.081 -0.3950  0.4718  0.7639
 6454SOL     OW25453   3.988   4.802   5.938  0.2722 -0.3099  0.1071
 6454SOL    HW125454   4.030   4.806   6.024  0.1162 -1.4807  0.2483
 6454SOL    HW225455   3.905   4.757   5.954 -0.9030  1.6063 -0.2378
 6455SOL     OW25456   1.089   9.687   9.827 -0.2312 -0.2641 -0.2394
 6455SOL    HW125457   1.064   9.595   9.833  0.5180 -0.4278  0.4792
 6455SOL    HW225458   1.106   9.714   9.917 -1.3312  0.8477 -0.3304
 6456SOL     OW25459   9.877   9.858   8.999  0.1717  0.4893 -0.3437
 6456SOL    HW125460   9.956   9.806   8.988 -0.4663 -1.3335  2.5178
 6456SOL    HW225461   9.901   9.926   9.062 -0.5130 -0.0573  0.5210
 6457SOL     OW25462   9.396   8.355   9.201 -0.1726  0.3434  0.0164
 6457SOL    HW125463   9.397   8.307   9.118  0.8776 -2.2067  1.3878
 6457SOL    HW225464   9.480   8.402   9.202  0.3388 -0.5582  0.1284
 6458SOL     OW25465  10.792   1.489   7.007  0.1764 -0.0762  0.1360
 6458SOL    HW125466  10.711   1.444   7.033 -0.0681 -0.6535 -1.4788
 6458SOL    HW225467  10.861   1.445   7.056 -0.3209 -0.6891  0.3069
 6459SOL     OW25468   5.704   1.225   9.985  0.1242  0.2478  0.7237
 6459SOL    HW125469   5.690   1.238   9.891  1.7220  1.0503  0.5638
 6459SOL    HW225470   5.626   1.179  10.015 -1.1543  1.3955 -0.6941
 6460SOL     OW25471   9.013   6.643   6.901  0.7291 -0.5583 -0.0686
 6460SOL    HW125472   9.048   6.609   6.818  0.6946 -0.9530  0.0776
 6460SOL    HW225473   8.937   6.695   6.875  0.3626 -1.1649 -0.2424
 6461SOL     OW25474   4.556  10.279   0.370 -0.1377  0.0887  0.3396
 6461SOL    HW125475   4.584  10.341   0.303 -1.5011 -0.2629 -0.5850
 6461SOL    HW225476   4.637  10.255   0.416  0.5808  1.6250 -0.0526
 6462SOL     OW25477   2.233   7.390   5.070  0.2809  0.6505  0.3438
 6462SOL    HW125478   2.236   7.303   5.030  1.5045  1.6528 -1.9538
 6462SOL    HW225479   2.141   7.405   5.090 -1.4270  1.6160 -6.1580
 6463SOL     OW25480  10.008   4.536   7.923  0.0025  0.1354 -0.3889
 6463SOL    HW125481   9.959   4.588   7.987 -0.0184  1.4683 -1.4548
 6463SOL    HW225482  10.057   4.473   7.976 -0.1240  1.1110  0.9343
 6464SOL     OW25483   1.029   9.751   4.420  0.2141 -0.3232 -0.1140
 6464SOL    HW125484   0.937   9.771   4.437  0.4560  0.4686  0.3350
 6464SOL    HW225485   1.064   9.722   4.504  0.6892  0.6934  0.0597
 6465SOL     OW25486   4.288   1.854   4.557 -0.0078  0.5554 -0.3120
 6465SOL    HW125487   4.212   1.799   4.575  0.1892 -0.0107 -1.1572
 6465SOL    HW225488   4.363   1.798   4.574  0.2730  1.3054  1.1665
 6466SOL     OW25489   4.257   0.194   9.990  0.1465 -0.0311  0.0180
 6466SOL    HW125490   4.272   0.101   9.970 -2.1514 -0.3454 -0.5631
 6466SOL    HW225491   4.279   0.202  10.082 -2.2381 -1.8712  0.8563
 6467SOL     OW25492   1.769   4.146   3.096  0.3209  0.7090 -0.3392
 6467SOL    HW125493   1.849   4.114   3.054 -1.1177 -0.5016 -2.3367
 6467SOL    HW225494   1.737   4.214   3.037 -0.6458  0.4640 -0.1158
 6468SOL     OW25495   8.401   0.171   0.038  0.1383  0.4137 -0.2176
 6468SOL    HW125496   8.464   0.231  -0.003 -0.0596 -0.0023 -1.1483
 6468SOL    HW225497   8.385   0.104  -0.028  1.2552 -1.3717  1.2121
 6469SOL     OW25498   9.188   5.811  10.460  0.1951 -0.2096  0.1339
 6469SOL    HW125499   9.121   5.866  10.503 -0.9162  0.2086 -2.0089
 6469SOL    HW225500   9.261   5.871  10.444 -0.0809  0.0675 -0.0990
 6470SOL     OW25501  10.706   1.039   2.177 -0.0211  0.1123  0.5465
 6470SOL    HW125502  10.629   1.081   2.215 -0.1791  0.0756  0.2749
 6470SOL    HW225503  10.705   0.950   2.213 -1.2601 -0.5504 -0.9845
 6471SOL     OW25504   6.900   4.064   8.875  0.3890  0.1117  0.0881
 6471SOL    HW125505   6.857   4.007   8.811 -0.3240 -0.5678  1.1394
 6471SOL    HW225506   6.938   4.004   8.939 -0.5143  0.7886  1.3060
 6472SOL     OW25507   9.129   6.502   9.092  0.0011 -0.7883 -0.5643
 6472SOL    HW125508   9.214   6.534   9.062  0.0622 -0.6439 -0.2487
 6472SOL    HW225509   9.072   6.507   9.016 -0.4906  1.7946 -0.0943
 6473SOL     OW25510   6.548   3.304   8.987  0.2369  0.5616 -0.2903
 6473SOL    HW125511   6.583   3.265   8.907 -1.3762  1.1221 -1.3358
 6473SOL    HW225512   6.554   3.235   9.053  1.1816 -0.0649 -1.0135
 6474SOL     OW25513   3.559   8.404   1.445 -0.1730 -0.3797 -0.5835
 6474SOL    HW125514   3.595   8.457   1.516 -2.6843  0.5552  0.1015
 6474SOL    HW225515   3.559   8.315   1.480  2.2112 -0.5691 -0.9649
 6475SOL     OW25516   7.413   2.511   9.346 -0.0515  0.9649 -0.5084
 6475SOL    HW125517   7.392   2.603   9.362 -0.6068  1.0370 -1.5736
 6475SOL    HW225518   7.406   2.501   9.251  2.3559  0.3758 -0.6816
 6476SOL     OW25519   7.757   4.082   5.130  0.4538  0.0735  0.0862
 6476SOL    HW125520   7.667   4.080   5.162  0.6846  0.9377  0.8137
 6476SOL    HW225521   7.791   4.167   5.157  1.0050  0.4048 -1.5562
 6477SOL     OW25522   9.248   8.029   2.928  0.1121 -0.1385  0.3783
 6477SOL    HW125523   9.156   8.012   2.950  0.3148 -2.3655 -0.3258
 6477SOL    HW225524   9.251   8.123   2.912 -2.3279 -0.1986 -0.8384
 6478SOL     OW25525   3.802   5.072   1.420  0.5432 -0.6246 -0.5320
 6478SOL    HW125526   3.888   5.034   1.438  0.3855 -0.9403 -0.4391
 6478SOL    HW225527   3.795   5.145   1.481  0.5243 -0.9324 -0.1606
 6479SOL     OW25528   7.217   0.759   5.453  0.4075  0.2397 -0.2147
 6479SOL    HW125529   7.123   0.767   5.438  0.3315  0.6309  0.4488
 6479SOL    HW225530   7.235   0.816   5.528  0.9273 -0.8928  0.5524
 6480SOL     OW25531   1.756   3.951   0.034 -0.5219  0.0501 -0.5596
 6480SOL    HW125532   1.682   3.929  -0.022 -0.8607 -1.1092  0.3065
 6480SOL    HW225533   1.810   3.872   0.035  1.0820  1.0746 -1.6700
 6481SOL     OW25534   4.912  10.536   8.625 -0.4781 -0.5460  0.1056
 6481SOL    HW125535   4.891  10.619   8.670 -0.4630 -0.5006  0.0280
 6481SOL    HW225536   4.832  10.484   8.633 -0.6366 -0.3554 -0.2268
 6482SOL     OW25537   6.058   6.933   2.812  0.1823 -0.1794 -0.0440
 6482SOL    HW125538   6.081   6.864   2.750  2.4273 -0.3118  0.8632
 6482SOL    HW225539   6.057   6.890   2.897  0.1636  0.6258  0.3694
 6483SOL     OW25540   2.957   0.297   0.828 -0.0213  0.7201  0.2402
 6483SOL    HW125541   2.969   0.293   0.922  0.6543  1.6766  0.2098
 6483SOL    HW225542   2.867   0.328   0.816 -1.0256 -1.8717  0.5185
 6484SOL     OW25543   7.530   2.385   6.600 -0.3891  0.0221 -0.0939
 6484SOL    HW125544   7.510   2.469   6.643 -0.2237 -0.0089  0.0422
 6484SOL    HW225545   7.584   2.338   6.663  0.4414  0.2595 -0.6110
 6485SOL     OW25546   7.736  10.270   5.070 -0.0388  0.0283 -0.2371
 6485SOL    HW125547   7.779  10.330   5.131 -2.4020  2.1737 -0.5320
 6485SOL    HW225548   7.688  10.209   5.126 -0.0757  0.3415  0.0789
 6486SOL     OW25549   7.518   2.304   4.503 -0.0892  0.0632 -0.3844
 6486SOL    HW125550   7.443   2.360   4.526 -0.4680  0.1035 -1.6638
 6486SOL    HW225551   7.533   2.252   4.582 -1.7844 -0.2905 -0.2578
 6487SOL     OW25552   6.105   0.597  10.492 -0.1400 -0.1997 -0.6813
 6487SOL    HW125553   6.076   0.618  10.404  0.3075 -0.7906 -0.9742
 6487SOL    HW225554   6.187   0.548  10.480  0.4777  0.6168  0.0990
 6488SOL     OW25555   1.698   9.179   3.924  0.4022 -0.0519 -0.0417
 6488SOL    HW125556   1.670   9.234   3.997 -2.6048  1.4553 -2.1241
 6488SOL    HW225557   1.779   9.221   3.893  0.4959  0.6131  1.0507
 6489SOL     OW25558   2.844   2.623   1.676  0.1277 -0.6483 -0.1513
 6489SOL    HW125559   2.777   2.691   1.671  0.7635 -0.0722 -3.6177
 6489SOL    HW225560   2.905   2.655   1.742 -1.5406  0.1672  1.0928
 6490SOL     OW25561   5.159   3.590   4.863  0.2502  0.1201 -0.1018
 6490SOL    HW125562   5.117   3.671   4.833  3.0505  1.8168  0.2522
 6490SOL    HW225563   5.196   3.612   4.948  1.5192 -1.3689 -0.2263
 6491SOL     OW25564   8.029   6.794  10.362 -0.2390  0.0709 -0.0308
 6491SOL    HW125565   8.082   6.869  10.335  0.1206  0.7457  2.3339
 6491SOL    HW225566   7.967   6.782  10.290  1.2162  1.1109 -1.5352
 6492SOL     OW25567   2.203   4.450   2.637 -0.2855  0.0875  0.6355
 6492SOL    HW125568   2.299   4.449   2.629 -0.4285  0.8144 -2.4456
 6492SOL    HW225569   2.183   4.372   2.688  1.8629 -1.7687 -1.1080
 6493SOL     OW25570   4.873   4.588   2.533  0.1402 -0.0550  0.1098
 6493SOL    HW125571   4.946   4.555   2.586  0.4987  0.5543  0.0111
 6493SOL    HW225572   4.888   4.683   2.530  0.3602 -0.1209 -1.4417
 6494SOL     OW25573   0.823   8.725   9.840  0.2463 -0.2041  0.2842
 6494SOL    HW125574   0.782   8.727   9.926 -0.8367 -0.6709 -0.2102
 6494SOL    HW225575   0.754   8.698   9.780  0.6133  1.3898 -0.9440
 6495SOL     OW25576   0.091   1.440  10.731  0.0026 -0.2694  0.7084
 6495SOL    HW125577  -0.004   1.449  10.740 -0.1699 -1.2805  0.0460
 6495SOL    HW225578   0.111   1.474  10.644 -0.1368 -2.4497 -0.2311
 6496SOL     OW25579   8.974  10.890   4.072 -0.4511 -0.0871  0.7194
 6496SOL    HW125580   9.005  10.941   3.997 -2.0872  0.4915  0.3991
 6496SOL    HW225581   8.884  10.867   4.050 -0.4701 -1.2122  1.8545
 6497SOL     OW25582   0.134  10.911   6.988  0.2993  0.2917 -0.6137
 6497SOL    HW125583   0.179  10.850   6.930 -0.9726 -1.0498 -0.2508
 6497SOL    HW225584   0.077  10.856   7.042 -0.6257  1.7656 -0.0140
 6498SOL     OW25585  10.258   0.717   6.921 -0.1135  0.0269 -0.2783
 6498SOL    HW125586  10.223   0.703   6.833 -0.0123  0.8778 -0.4691
 6498SOL    HW225587  10.337   0.662   6.925 -0.0011  0.1448 -0.7990
 6499SOL     OW25588   1.547   2.070   8.433 -0.4444 -0.0485  0.5007
 6499SOL    HW125589   1.516   1.991   8.477 -0.5076 -0.1138  0.3383
 6499SOL    HW225590   1.549   2.136   8.502  0.9394 -0.5384  0.9516
 6500SOL     OW25591   4.910   1.722   3.343  0.7213  0.4854 -0.0295
 6500SOL    HW125592   4.931   1.724   3.249  0.4041 -0.3387 -0.1279
 6500SOL    HW225593   4.814   1.724   3.346  0.6721 -0.9816  0.2043
 6501SOL     OW25594   2.679   9.547   5.218 -0.3862 -0.2971 -0.1351
 6501SOL    HW125595   2.733   9.496   5.158  1.1200  1.4526 -0.3664
 6501SOL    HW225596   2.741   9.578   5.285 -1.0749  1.6910 -0.3438
 6502SOL     OW25597  10.768   7.991   6.512 -0.5771  0.0218 -0.3367
 6502SOL    HW125598  10.858   7.959   6.506  0.1962  1.5569  1.7776
 6502SOL    HW225599  10.773   8.064   6.574 -3.4686 -0.5258  0.6841
 6503SOL     OW25600   0.155  10.726   1.811 -0.3201 -0.0126 -0.8287
 6503SOL    HW125601   0.067  10.722   1.848  0.5408 -2.1599  1.1792
 6503SOL    HW225602   0.141  10.716   1.716 -2.2070 -0.7541 -0.5160
 6504SOL     OW25603   6.668   5.402   7.283  0.1210 -0.1107  0.1988
 6504SOL    HW125604   6.605   5.350   7.233 -0.0896  2.1720 -2.1057
 6504SOL    HW225605   6.750   5.392   7.236  0.3920  0.5544  0.5178
 6505SOL     OW25606   8.614   5.971   6.952  0.1531 -0.2289  0.1368
 6505SOL    HW125607   8.590   6.039   7.016 -2.0507 -0.4154 -0.4147
 6505SOL    HW225608   8.692   5.931   6.989 -1.2731 -0.6520  3.0217
 6506SOL     OW25609  10.287   3.555   1.499 -0.0830 -0.1347 -0.6666
 6506SOL    HW125610  10.265   3.647   1.514  0.2124 -0.0716 -0.6179
 6506SOL    HW225611  10.229   3.528   1.429 -0.9140 -0.2074  0.0332
 6507SOL     OW25612   4.354   5.564   0.596  0.2214  0.1315 -0.1950
 6507SOL    HW125613   4.313   5.494   0.545  1.3023 -0.7869  0.1427
 6507SOL    HW225614   4.356   5.639   0.536 -2.1938  0.3363 -0.1088
 6508SOL     OW25615   4.357   4.512   5.575  0.6647  0.1459  0.3560
 6508SOL    HW125616   4.374   4.559   5.657 -0.7747  3.2478 -0.9587
 6508SOL    HW225617   4.435   4.528   5.522  0.7539 -0.1585  0.3942
 6509SOL     OW25618   7.254   8.927   2.434 -0.1453 -0.4274  0.0528
 6509SOL    HW125619   7.260   8.846   2.485 -0.5817 -0.6910 -0.3097
 6509SOL    HW225620   7.231   8.898   2.346 -0.0979  0.0786 -0.1275
 6510SOL     OW25621   9.856  10.728  10.878 -0.0142 -0.0993 -0.6110
 6510SOL    HW125622   9.920  10.694  10.815 -0.9344 -0.1850 -1.5271
 6510SOL    HW225623   9.776  10.680  10.859  0.2237 -1.8342  2.1878
 6511SOL     OW25624   2.864   9.972   5.258  0.1502 -0.1455  0.2470
 6511SOL    HW125625   2.921  10.045   5.279 -0.9432  0.8279 -0.0408
 6511SOL    HW225626   2.776  10.010   5.254 -0.2906 -1.1861 -1.2859
 6512SOL     OW25627   0.388  10.545   2.055 -0.6743 -0.0889 -0.3793
 6512SOL    HW125628   0.389  10.638   2.033 -1.9314 -0.3733 -1.8432
 6512SOL    HW225629   0.479  10.516   2.045 -0.4490  0.7688 -0.8826
 6513SOL     OW25630   7.202   2.741   8.182 -0.0015  0.3173 -0.2205
 6513SOL    HW125631   7.277   2.767   8.236  0.1719  1.6765 -1.0746
 6513SOL    HW225632   7.126   2.774   8.230  0.0857  0.6612 -0.3163
 6514SOL     OW25633   4.725   6.449   6.756 -0.1049 -0.5207 -0.0355
 6514SOL    HW125634   4.750   6.416   6.670 -0.8932 -0.2476 -0.3745
 6514SOL    HW225635   4.673   6.378   6.795  0.1803 -0.6103  0.1875
 6515SOL     OW25636   4.508  10.465   3.710  0.7431 -0.1203 -0.2896
 6515SOL    HW125637   4.515  10.497   3.620  1.6089  0.4120 -0.0518
 6515SOL    HW225638   4.565  10.523   3.760 -2.3071  1.8130  1.2195
 6516SOL     OW25639   7.080   8.769   1.645 -0.0857  0.3651  0.3405
 6516SOL    HW125640   7.104   8.677   1.640  3.3577  1.1983 -1.7005
 6516SOL    HW225641   7.091   8.802   1.556 -0.6623  2.8671  1.1003
 6517SOL     OW25642   9.576   9.834   1.477  0.3575  0.4098 -0.0540
 6517SOL    HW125643   9.573   9.843   1.382  1.2803  1.1739 -0.0343
 6517SOL    HW225644   9.542   9.917   1.511  0.4163  0.3059  0.2678
 6518SOL     OW25645   9.025   7.658  10.833 -0.0699  0.1561  0.2420
 6518SOL    HW125646   9.093   7.622  10.777 -0.0979  0.7941 -0.2061
 6518SOL    HW225647   8.969   7.708  10.774  0.8496  2.2538  1.0519
 6519SOL     OW25648   4.275   2.962   3.605  0.1901  0.0376  0.3317
 6519SOL    HW125649   4.362   2.986   3.637  0.5275 -1.3517  0.5273
 6519SOL    HW225650   4.281   2.868   3.587 -1.6843 -0.4169  1.7321
 6520SOL     OW25651   4.577   7.794   4.921  0.0512 -0.0959  0.0823
 6520SOL    HW125652   4.532   7.712   4.897 -0.5346  0.5400 -1.0611
 6520SOL    HW225653   4.656   7.795   4.867  1.5073 -1.1901  2.0627
 6521SOL     OW25654   5.911   0.350   2.527 -0.4357  0.2717  0.1289
 6521SOL    HW125655   5.990   0.381   2.484 -0.2766  0.0323  0.2498
 6521SOL    HW225656   5.863   0.303   2.458  0.7410 -1.8186  0.6671
 6522SOL     OW25657   6.629   3.251   5.025 -0.3883  0.6656  0.4238
 6522SOL    HW125658   6.701   3.268   4.964 -0.4404 -2.8656 -0.8648
 6522SOL    HW225659   6.655   3.297   5.105  2.0777  1.5357 -0.7598
 6523SOL     OW25660   6.312   8.736   3.376  0.0487 -0.4024 -0.1089
 6523SOL    HW125661   6.238   8.728   3.436  0.2123  1.2174  0.3417
 6523SOL    HW225662   6.356   8.651   3.382 -0.1595 -0.4288  1.7801
 6524SOL     OW25663   9.700   9.687   8.643  0.3958  0.1576  0.7834
 6524SOL    HW125664   9.709   9.731   8.558 -0.1183 -0.3095  0.4824
 6524SOL    HW225665   9.754   9.609   8.635  0.0495 -0.0796  0.7514
 6525SOL     OW25666   3.202   9.759   8.893 -0.3196 -0.2490 -0.0472
 6525SOL    HW125667   3.265   9.827   8.916  3.4437 -3.7190  1.0913
 6525SOL    HW225668   3.204   9.756   8.797 -0.0238  0.7801 -0.0815
 6526SOL     OW25669   5.635   6.978  10.845  0.3034  0.2213  0.9141
 6526SOL    HW125670   5.627   7.063  10.889 -0.5717  0.8481 -0.4089
 6526SOL    HW225671   5.709   6.936  10.889  2.3429  2.6321  0.0208
 6527SOL     OW25672   7.064   9.594   5.697 -0.0891  0.1519  0.1400
 6527SOL    HW125673   7.025   9.680   5.715 -0.0997 -0.3037  2.7296
 6527SOL    HW225674   7.024   9.567   5.614 -0.7758  2.2342 -0.2773
 6528SOL     OW25675  10.233   8.491   4.342 -0.3491  0.4050 -0.4435
 6528SOL    HW125676  10.316   8.459   4.307 -0.2416  0.3742 -0.1654
 6528SOL    HW225677  10.224   8.446   4.427 -0.9961 -0.1390 -0.7894
 6529SOL     OW25678   6.250   8.665   4.812 -0.0450  0.3488 -0.3728
 6529SOL    HW125679   6.297   8.746   4.831 -1.3504  0.8144  1.1052
 6529SOL    HW225680   6.253   8.657   4.717  0.7801  1.7080 -0.4864
 6530SOL     OW25681   1.185  10.626   0.868 -0.1102  0.3665 -0.1225
 6530SOL    HW125682   1.197  10.716   0.836 -0.3439  0.5676  0.3494
 6530SOL    HW225683   1.273  10.596   0.889 -0.0083  0.4115 -0.4775
 6531SOL     OW25684   6.492   3.672   6.238 -0.3823  0.1277 -0.1663
 6531SOL    HW125685   6.495   3.695   6.331 -0.3746 -1.3548  0.2155
 6531SOL    HW225686   6.420   3.610   6.231 -1.6215  1.6458 -1.5035
 6532SOL     OW25687   0.660   7.922   7.158 -0.0451 -0.6796 -0.2146
 6532SOL    HW125688   0.668   7.966   7.243 -1.7408  1.0981 -0.8898
 6532SOL    HW225689   0.644   7.830   7.180  0.4351 -0.4142  1.3576
 6533SOL     OW25690   6.007   8.103   0.063  0.3774  0.0345 -0.1581
 6533SOL    HW125691   5.949   8.042   0.109 -0.6172  0.2412 -1.1026
 6533SOL    HW225692   5.963   8.187   0.070  1.8990  0.7639  1.4059
 6534SOL     OW25693   7.514   5.059   0.642  0.7198 -0.3562 -0.1433
 6534SOL    HW125694   7.572   5.087   0.712  0.6009 -0.1527 -0.1246
 6534SOL    HW225695   7.548   5.102   0.564  0.3937  0.0447 -0.0725
 6535SOL     OW25696   8.073   5.413   3.719  0.0651 -0.6796 -0.4305
 6535SOL    HW125697   8.029   5.328   3.712  1.7336 -1.5910 -0.4577
 6535SOL    HW225698   8.058   5.455   3.634 -0.3498 -1.1492 -0.5935
 6536SOL     OW25699   9.496   6.503   5.151 -0.4242  0.2759  0.1686
 6536SOL    HW125700   9.565   6.560   5.118 -0.9177  0.8898  0.1782
 6536SOL    HW225701   9.502   6.424   5.098 -1.4367  1.3614 -1.6763
 6537SOL     OW25702   6.886   5.447   7.126 -0.1744 -0.3478  0.6300
 6537SOL    HW125703   6.970   5.409   7.152  0.7205  1.6764  0.9254
 6537SOL    HW225704   6.890   5.449   7.030 -0.2811 -1.1066  0.6110
 6538SOL     OW25705   9.763   9.999  10.413  0.3768  0.6066  0.5942
 6538SOL    HW125706   9.695   9.932  10.400 -0.5958  1.7572 -0.5242
 6538SOL    HW225707   9.840   9.963  10.369  0.2038 -0.2816  1.0002
 6539SOL     OW25708   2.544   0.368   9.402  0.0547  0.3825 -0.2710
 6539SOL    HW125709   2.560   0.318   9.323 -1.2727 -0.9265  0.2367
 6539SOL    HW225710   2.496   0.308   9.459  2.0800  0.8330  2.0779
 6540SOL     OW25711   6.380   2.827  10.895  0.1129  0.0411 -0.0190
 6540SOL    HW125712   6.449   2.889  10.918  0.8083  0.2184 -2.2781
 6540SOL    HW225713   6.425   2.743  10.885  0.1183  0.2007 -1.7067
 6541SOL     OW25714  10.781   1.561   0.704  0.1258  0.6077 -0.0406
 6541SOL    HW125715  10.780   1.479   0.654 -1.8559 -0.2841  1.3172
 6541SOL    HW225716  10.779   1.630   0.637  1.4700 -0.4060 -1.2088
 6542SOL     OW25717   5.488   7.701   4.006  0.0442 -0.1021 -0.3769
 6542SOL    HW125718   5.483   7.628   3.944  0.0150 -0.0130 -0.4791
 6542SOL    HW225719   5.405   7.747   3.996  0.1143  0.0194 -0.4038
 6543SOL     OW25720   4.643  10.489   6.521 -0.4458  0.4280  0.4402
 6543SOL    HW125721   4.588  10.505   6.598 -4.9399  0.0219 -2.2928
 6543SOL    HW225722   4.635  10.395   6.506  1.4561  0.2870  0.1434
 6544SOL     OW25723   1.775  10.360   9.634 -0.9194  0.2405 -0.2206
 6544SOL    HW125724   1.776  10.416   9.712 -1.1956  1.3220 -0.9793
 6544SOL    HW225725   1.684  10.361   9.605 -0.7453  0.1364 -0.7751
 6545SOL     OW25726   8.850   0.800   8.583 -0.4208  0.1637 -0.4772
 6545SOL    HW125727   8.905   0.727   8.609 -0.6057 -0.4186 -1.6951
 6545SOL    HW225728   8.763   0.762   8.570 -0.8141  0.8262  0.0604
 6546SOL     OW25729   0.053   2.994   4.009  0.4450  0.6006 -0.5152
 6546SOL    HW125730   0.020   2.958   3.927  1.7158  0.9674 -1.2152
 6546SOL    HW225731   0.010   2.943   4.077  0.5166 -0.7279 -1.4443
 6547SOL     OW25732   4.307   9.079   0.921 -0.6580 -0.2892  0.3786
 6547SOL    HW125733   4.213   9.096   0.930 -0.4042  0.8475  1.1936
 6547SOL    HW225734   4.334   9.131   0.846 -0.4172  0.6043  1.0697
 6548SOL     OW25735   1.176   7.918   4.468 -0.3468 -0.3112  0.2666
 6548SOL    HW125736   1.189   7.894   4.376 -0.2479 -0.6025  0.3550
 6548SOL    HW225737   1.247   7.875   4.515 -0.2183  0.0904  0.4438
 6549SOL     OW25738   2.757   2.927   4.316 -0.0688 -0.1309  0.5728
 6549SOL    HW125739   2.688   2.915   4.250 -1.0460 -0.7169  1.6723
 6549SOL    HW225740   2.772   2.840   4.352  2.9509 -0.4838 -1.2286
 6550SOL     OW25741   7.205  10.736   0.240  0.6955 -0.8494  0.0764
 6550SOL    HW125742   7.184  10.723   0.332  0.3028  1.8803  0.4557
 6550SOL    HW225743   7.295  10.767   0.240  0.7748 -1.0679 -0.4969
 6551SOL     OW25744   0.668   1.292   5.313 -0.3008 -0.1897  0.0892
 6551SOL    HW125745   0.611   1.226   5.274 -0.5943 -0.1240  0.3944
 6551SOL    HW225746   0.750   1.246   5.330 -1.2987 -1.2497  2.6823
 6552SOL     OW25747   2.328   2.047   2.518 -0.2379  0.0085 -0.2875
 6552SOL    HW125748   2.331   1.952   2.504 -0.0485 -0.3703  1.9758
 6552SOL    HW225749   2.280   2.058   2.600 -3.0072  2.0897 -2.0055
 6553SOL     OW25750  10.175   0.809   7.935 -0.5355  0.3150  0.1125
 6553SOL    HW125751  10.150   0.856   7.855 -1.1708  1.0161  0.6980
 6553SOL    HW225752  10.116   0.844   8.001  0.9713  0.8539  1.2243
 6554SOL     OW25753   1.359   9.591   1.527 -0.2145  0.1862 -0.1918
 6554SOL    HW125754   1.290   9.643   1.487 -1.4433 -0.1813  1.3618
 6554SOL    HW225755   1.354   9.506   1.482 -0.2675  0.4031 -0.5982
 6555SOL     OW25756   5.191  10.847   6.169  0.1705 -0.1671  0.5577
 6555SOL    HW125757   5.104  10.809   6.181  0.4870 -1.5834 -1.1519
 6555SOL    HW225758   5.241  10.815   6.244 -0.9158  1.2737  1.9679
 6556SOL     OW25759   8.800   0.260   5.283  0.3484 -0.3842 -0.0978
 6556SOL    HW125760   8.847   0.294   5.359 -0.0993 -0.2131  0.1050
 6556SOL    HW225761   8.824   0.318   5.211  1.7982 -1.2919 -0.4066
 6557SOL     OW25762   4.769   9.472   4.582  0.3194  0.1616 -0.6094
 6557SOL    HW125763   4.702   9.436   4.641  1.8236  0.1309  1.1444
 6557SOL    HW225764   4.801   9.550   4.627  0.8181  0.7003 -1.8710
 6558SOL     OW25765   6.279   6.003   5.463 -1.1530 -0.3332  0.0796
 6558SOL    HW125766   6.341   5.956   5.408 -3.2774 -1.3780 -1.5793
 6558SOL    HW225767   6.282   5.958   5.547 -0.5617 -1.1492 -0.3748
 6559SOL     OW25768   2.640   6.067   3.505 -0.5205 -0.2120  0.5265
 6559SOL    HW125769   2.624   6.036   3.594 -1.6968 -1.6076 -0.1295
 6559SOL    HW225770   2.701   6.003   3.468  1.1359  1.1655  0.7436
 6560SOL     OW25771   6.071   9.512   0.835 -0.5355 -0.1417  0.5782
 6560SOL    HW125772   6.151   9.501   0.887 -0.9982 -0.1792  1.2977
 6560SOL    HW225773   6.060   9.428   0.791  0.6206  0.3473 -0.6975
 6561SOL     OW25774   0.138  10.279   7.911 -0.0644 -0.1107  0.1311
 6561SOL    HW125775   0.213  10.220   7.917  1.1040  1.3890  0.8913
 6561SOL    HW225776   0.153  10.330   7.831 -0.5560 -0.1437  0.0089
 6562SOL     OW25777   5.278   6.692   7.966  0.5378 -0.6824  0.1055
 6562SOL    HW125778   5.336   6.616   7.971 -0.7820 -1.6693  3.9177
 6562SOL    HW225779   5.195   6.656   7.934  0.3460 -0.5112  0.4126
 6563SOL     OW25780   4.756  10.290   6.779  0.3680  0.4519  0.0914
 6563SOL    HW125781   4.682  10.252   6.732 -0.4301  1.0679  0.8105
 6563SOL    HW225782   4.729  10.289   6.871  1.5778 -0.0192  0.4549
 6564SOL     OW25783  10.915   0.786   6.687  0.1076  0.1096 -0.0655
 6564SOL    HW125784  10.997   0.819   6.724  0.9797 -1.6155 -0.3143
 6564SOL    HW225785  10.853   0.786   6.759  0.0051  2.3181 -0.0904
 6565SOL     OW25786   0.385   9.385   3.606 -0.7458  0.2280 -0.0054
 6565SOL    HW125787   0.451   9.446   3.639 -0.3320 -1.0809  1.6572
 6565SOL    HW225788   0.426   9.345   3.530  0.1772 -0.1806  0.6950
 6566SOL     OW25789  10.283   9.269   0.445 -0.3983 -0.3723  0.1491
 6566SOL    HW125790  10.334   9.328   0.501 -1.7155  0.1835  0.8110
 6566SOL    HW225791  10.348   9.228   0.388  0.9207 -0.4441  1.6173
 6567SOL     OW25792   0.873   0.461   7.751 -0.0753  0.5379  0.4435
 6567SOL    HW125793   0.954   0.491   7.709  0.1741 -0.8111 -0.0631
 6567SOL    HW225794   0.902   0.420   7.832 -0.2541  0.1325  0.3043
 6568SOL     OW25795   8.955   7.004   3.172 -0.0135  0.6121  0.0897
 6568SOL    HW125796   8.963   6.971   3.082 -1.4210 -0.5599  0.3518
 6568SOL    HW225797   9.044   7.030   3.196  0.1937  2.2073 -2.0777
 6569SOL     OW25798   3.066   9.529   8.254 -0.2904  0.0962  0.5267
 6569SOL    HW125799   3.145   9.526   8.307 -0.1503 -2.2872  0.2779
 6569SOL    HW225800   2.994   9.515   8.316 -0.2073 -1.4897  0.3143
 6570SOL     OW25801   7.175   3.793   1.162  0.4551  0.7237  0.0505
 6570SOL    HW125802   7.230   3.780   1.084  1.1582  0.5064  0.5662
 6570SOL    HW225803   7.219   3.862   1.211  0.7205  0.0108  0.8570
 6571SOL     OW25804   2.475   9.061   0.347 -0.3194  0.2741 -0.3927
 6571SOL    HW125805   2.533   9.055   0.423  1.2932 -0.6535 -1.6443
 6571SOL    HW225806   2.452   9.154   0.342  0.2931  0.4969  0.6764
 6572SOL     OW25807   1.143   1.491   4.423  0.0480  0.0474  0.0218
 6572SOL    HW125808   1.208   1.440   4.473 -1.4892  1.8971  4.4075
 6572SOL    HW225809   1.150   1.579   4.459 -3.0985  0.9264 -1.2556
 6573SOL     OW25810   8.691   0.913   8.781  0.0232 -0.5069  0.4684
 6573SOL    HW125811   8.689   0.972   8.706 -1.3396 -2.4540 -1.1400
 6573SOL    HW225812   8.778   0.872   8.777 -0.8115 -2.2321 -1.4812
 6574SOL     OW25813   0.646   2.315   2.310  0.2336 -0.5270  0.0881
 6574SOL    HW125814   0.686   2.312   2.223 -1.0814 -1.4956 -0.5225
 6574SOL    HW225815   0.702   2.259   2.364  0.4301 -0.8207 -0.4107
 6575SOL     OW25816  10.684   1.845   8.978  0.1718 -0.3545 -0.3488
 6575SOL    HW125817  10.599   1.809   8.951 -0.8939  0.9182  1.1373
 6575SOL    HW225818  10.678   1.852   9.073  2.2432 -0.9015 -0.1402
 6576SOL     OW25819   6.510   1.210   6.500 -0.4689 -0.0895  0.2835
 6576SOL    HW125820   6.495   1.129   6.452  0.5308  0.5418 -1.1369
 6576SOL    HW225821   6.448   1.273   6.462  0.8643  0.6285 -0.8002
 6577SOL     OW25822   2.881   6.285   1.673 -0.1516  0.0389  0.2561
 6577SOL    HW125823   2.864   6.239   1.755 -1.0365  0.0541  0.0967
 6577SOL    HW225824   2.944   6.230   1.627 -1.2265 -1.0722  0.0512
 6578SOL     OW25825   2.962   7.108   0.099 -0.1201 -0.6236  0.1016
 6578SOL    HW125826   2.885   7.067   0.139  0.2929 -0.2005  1.3691
 6578SOL    HW225827   2.929   7.149   0.019 -1.1893 -0.5478  0.5704
 6579SOL     OW25828   5.109   4.005   8.959  0.4575 -0.1402  0.6072
 6579SOL    HW125829   5.085   3.928   9.011 -0.3803  0.7072  1.5299
 6579SOL    HW225830   5.078   4.079   9.011 -1.0886  0.7428 -1.4114
 6580SOL     OW25831   4.210   7.088   5.942  0.0533 -0.1743  0.0843
 6580SOL    HW125832   4.179   7.097   5.852 -1.3358  0.6840  0.6256
 6580SOL    HW225833   4.133   7.104   5.996  1.3585  1.8101  1.5047
 6581SOL     OW25834   5.642   2.587   3.658 -0.0549 -0.0174 -0.0780
 6581SOL    HW125835   5.599   2.566   3.741  1.3003  1.4065  1.0515
 6581SOL    HW225836   5.571   2.611   3.600 -0.9278  0.7387  1.2473
 6582SOL     OW25837   9.685   4.514  10.244 -0.6936 -0.6483  0.5388
 6582SOL    HW125838   9.770   4.558  10.250 -0.9743 -0.1212  0.7136
 6582SOL    HW225839   9.622   4.585  10.227 -0.9493 -1.1728 -0.8320
 6583SOL     OW25840  10.190   9.538   0.657 -0.3408 -0.2355  0.4428
 6583SOL    HW125841  10.199   9.632   0.673  1.1485 -0.4179  0.8985
 6583SOL    HW225842  10.169   9.531   0.564 -0.1834  0.5363  0.3441
 6584SOL     OW25843   6.155   5.245   1.953  0.2539 -0.0108 -0.6352
 6584SOL    HW125844   6.144   5.340   1.949 -2.5844 -0.1983  0.4802
 6584SOL    HW225845   6.218   5.231   2.024 -1.6815  1.0338  1.4303
 6585SOL     OW25846   0.458   5.418   9.381  0.3220 -0.3785 -0.1169
 6585SOL    HW125847   0.538   5.366   9.391  0.2775 -0.4341 -0.0421
 6585SOL    HW225848   0.483   5.490   9.323  0.8450  0.4781  1.1211
 6586SOL     OW25849   3.920   3.824   7.676 -0.0110  0.2141 -0.5661
 6586SOL    HW125850   3.958   3.797   7.592  2.8099 -0.5919  0.8281
 6586SOL    HW225851   3.988   3.877   7.717 -1.4144  0.7920  1.1429
 6587SOL     OW25852   6.262   2.967   4.747  0.4826 -0.2378 -0.1514
 6587SOL    HW125853   6.328   2.954   4.815  0.1207 -3.5821 -0.2782
 6587SOL    HW225854   6.178   2.954   4.793  0.0667  0.5763 -0.6589
 6588SOL     OW25855   9.404   7.961   9.300 -0.0452  0.1542  0.0949
 6588SOL    HW125856   9.396   8.038   9.356 -2.0586  0.1315 -0.0820
 6588SOL    HW225857   9.330   7.967   9.240  1.1154 -0.6897 -1.5090
 6589SOL     OW25858   2.259   4.818   4.836 -0.9710  0.2935 -0.0217
 6589SOL    HW125859   2.183   4.872   4.856  0.5043  2.5914 -0.1534
 6589SOL    HW225860   2.297   4.858   4.758 -0.4157 -1.7087 -0.8513
 6590SOL     OW25861   7.002   0.726   4.024 -0.0367  0.0665  0.2684
 6590SOL    HW125862   7.047   0.798   4.068  0.8370 -0.9224  1.0245
 6590SOL    HW225863   6.924   0.710   4.077  0.8937 -0.9700  1.3551
 6591SOL     OW25864   1.106   0.545   8.450  0.2300 -0.3305  0.1134
 6591SOL    HW125865   1.177   0.607   8.429  1.6823 -1.3826  1.6374
 6591SOL    HW225866   1.078   0.570   8.538  0.0745 -1.1535  0.3049
 6592SOL     OW25867   8.884   6.887   4.569  0.1999 -1.0613 -0.1005
 6592SOL    HW125868   8.859   6.826   4.500  2.2554  0.5943 -2.4601
 6592SOL    HW225869   8.933   6.834   4.632  1.3079 -2.0195 -1.7056
 6593SOL     OW25870   0.724   7.344   5.925  0.3048 -0.0543  0.2589
 6593SOL    HW125871   0.660   7.297   5.977  0.2188  1.1697  1.3190
 6593SOL    HW225872   0.716   7.435   5.954 -0.1549  0.8077 -2.2998
 6594SOL     OW25873   1.062   4.444   6.105  0.5082 -0.3088  0.1710
 6594SOL    HW125874   1.057   4.507   6.033 -1.0913  0.1362  0.6376
 6594SOL    HW225875   1.099   4.494   6.177 -2.3237  0.6934  1.0619
 6595SOL     OW25876   2.136   2.153   2.775  0.4774  0.0418 -0.2364
 6595SOL    HW125877   2.213   2.207   2.793  0.5523 -0.0034 -0.4190
 6595SOL    HW225878   2.064   2.199   2.817  0.5108  0.3819 -0.5549
 6596SOL     OW25879   7.745   0.003   6.886 -0.1959 -0.1851 -0.2630
 6596SOL    HW125880   7.702  -0.064   6.939  2.3149 -0.9363  0.9787
 6596SOL    HW225881   7.765  -0.041   6.803  2.2650 -1.3837  0.8789
 6597SOL     OW25882   3.334   4.936   1.986 -0.0329  0.2637  0.4332
 6597SOL    HW125883   3.372   4.872   1.926  1.1560  0.5132  0.8903
 6597SOL    HW225884   3.311   5.010   1.931  2.6962  1.2281  0.4394
 6598SOL     OW25885   2.855   4.838   1.493 -0.2740 -0.7305  0.6849
 6598SOL    HW125886   2.862   4.876   1.406 -1.4343  0.4112  1.0560
 6598SOL    HW225887   2.795   4.763   1.482  0.8722 -1.6143  0.2264
 6599SOL     OW25888   3.684   6.594   3.071  0.4230  0.1606  0.5613
 6599SOL    HW125889   3.673   6.686   3.049  1.0562  0.2794  0.7367
 6599SOL    HW225890   3.751   6.593   3.139  2.7684 -0.6767 -1.6209
 6600SOL     OW25891   6.209   9.613   3.870 -0.2394 -0.0025  0.9468
 6600SOL    HW125892   6.293   9.628   3.828 -1.0176 -0.1140 -0.7398
 6600SOL    HW225893   6.145   9.657   3.813 -1.6632 -2.5931  0.3864
 6601SOL     OW25894   2.483   1.051   5.876 -0.0216 -0.2105  0.0131
 6601SOL    HW125895   2.543   1.032   5.949  0.2216 -0.6300 -0.2922
 6601SOL    HW225896   2.487   1.146   5.866  0.7133 -0.2484 -0.1008
 6602SOL     OW25897   6.279   3.320  10.829 -0.5049  0.1706  0.4986
 6602SOL    HW125898   6.220   3.280  10.893 -3.3481  0.4777 -1.6898
 6602SOL    HW225899   6.332   3.247  10.796 -0.1598 -0.2770  1.9722
 6603SOL     OW25900   5.895   6.574   2.902 -0.0966 -0.0210  0.4579
 6603SOL    HW125901   5.910   6.532   2.987  1.7004  1.5885  1.0148
 6603SOL    HW225902   5.915   6.666   2.918 -0.3461  0.4212 -1.5829
 6604SOL     OW25903   2.629  10.698   5.111 -0.2290  0.2015  0.3311
 6604SOL    HW125904   2.624  10.676   5.018  0.5530  0.8288  0.1256
 6604SOL    HW225905   2.597  10.620   5.156 -1.0360  0.0531 -0.4748
 6605SOL     OW25906   6.819   4.867   4.997 -0.1988  0.3630 -0.5064
 6605SOL    HW125907   6.780   4.860   4.910  1.8336  2.4076 -1.6730
 6605SOL    HW225908   6.773   4.940   5.039  0.6392  1.1540 -0.9363
 6606SOL     OW25909   3.556   4.113   4.518  0.4122  0.1556 -0.1635
 6606SOL    HW125910   3.521   4.046   4.577  0.8348 -0.5238 -0.6637
 6606SOL    HW225911   3.499   4.189   4.531 -0.2640 -0.4007  0.2023
 6607SOL     OW25912  10.184   4.373   8.066  0.1629 -0.2569  0.1421
 6607SOL    HW125913  10.253   4.422   8.108 -0.6756  1.1134 -0.0243
 6607SOL    HW225914  10.227   4.327   7.993  1.3169 -1.3940  1.4843
 6608SOL     OW25915   9.672   2.694   4.821 -0.2609  0.1977 -0.7221
 6608SOL    HW125916   9.618   2.616   4.839 -0.8273  0.4170 -1.4260
 6608SOL    HW225917   9.686   2.692   4.727 -1.5261  1.7222 -0.9954
 6609SOL     OW25918   8.547   3.016   5.240  0.1068 -0.4516  0.2203
 6609SOL    HW125919   8.619   3.007   5.178 -0.5369  0.5783 -0.7105
 6609SOL    HW225920   8.471   3.037   5.186 -0.3628  1.0369  1.4055
 6610SOL     OW25921   4.802   1.992  10.550 -0.4397 -0.0228  0.1739
 6610SOL    HW125922   4.792   1.984  10.455 -1.5987 -1.5926  0.3924
 6610SOL    HW225923   4.757   2.074  10.572 -1.5485 -0.4416 -0.4583
 6611SOL     OW25924   6.407   0.751   5.890  0.0854  0.2418 -0.6681
 6611SOL    HW125925   6.332   0.693   5.873  0.4811 -0.9721  1.4050
 6611SOL    HW225926   6.413   0.755   5.985  1.8324  1.4248 -0.7895
 6612SOL     OW25927   0.283  10.851   8.187 -0.1321  0.4431 -0.3025
 6612SOL    HW125928   0.352  10.785   8.197 -1.5060 -1.3320 -1.6995
 6612SOL    HW225929   0.299  10.889   8.101 -0.4046  0.6160 -0.2766
 6613SOL     OW25930   7.096   5.979   2.218 -0.1275  0.6424  0.2463
 6613SOL    HW125931   7.004   5.999   2.201  0.4277  3.1015 -0.2326
 6613SOL    HW225932   7.094   5.894   2.261 -2.6992  1.0647  1.1569
 6614SOL     OW25933   3.814   7.991   7.863  0.3382 -0.3774  0.2703
 6614SOL    HW125934   3.725   8.007   7.895  0.4472  1.2572 -0.1131
 6614SOL    HW225935   3.838   8.073   7.819  1.7817 -1.0358 -0.2246
 6615SOL     OW25936   4.551   8.855   2.504  0.2454  0.3332 -0.6182
 6615SOL    HW125937   4.519   8.775   2.462 -0.7401  0.9290 -1.0598
 6615SOL    HW225938   4.505   8.857   2.589  1.7012 -0.5114  0.2256
 6616SOL     OW25939  10.781   9.627   7.521  0.6049 -0.6375 -0.2959
 6616SOL    HW125940  10.778   9.661   7.432 -1.3263  0.5750  0.1707
 6616SOL    HW225941  10.832   9.691   7.570 -1.1821  0.5395  0.1220
 6617SOL     OW25942   9.271   1.941   7.222  0.4430  0.0457  0.7701
 6617SOL    HW125943   9.367   1.942   7.213  0.3241 -1.1906 -1.5910
 6617SOL    HW225944   9.245   2.030   7.201  0.9941 -0.1592 -0.9553
 6618SOL     OW25945   8.057   9.254   4.333 -0.0075 -0.1043  0.2794
 6618SOL    HW125946   8.019   9.233   4.248  0.3194 -0.7281  0.2802
 6618SOL    HW225947   8.023   9.186   4.391 -0.4098  0.4439  0.7061
 6619SOL     OW25948   9.301   7.467   9.573  0.0260 -0.0205  0.4380
 6619SOL    HW125949   9.222   7.497   9.618 -0.6777 -0.7555 -0.3019
 6619SOL    HW225950   9.279   7.471   9.480  0.1241 -2.1902  0.2872
 6620SOL     OW25951   0.494   0.456   8.131  0.0696 -0.1854 -0.2440
 6620SOL    HW125952   0.416   0.447   8.186  0.4210 -2.2625  0.0017
 6620SOL    HW225953   0.468   0.519   8.063 -1.9910 -1.1455 -0.4374
 6621SOL     OW25954   4.627   0.908   9.986 -0.4101  0.2449  0.4693
 6621SOL    HW125955   4.580   0.988   9.959 -2.7586 -1.2900 -0.3786
 6621SOL    HW225956   4.683   0.887   9.911  0.0280  0.9419  0.5943
 6622SOL     OW25957   7.658   3.621   7.750  0.3092  0.3306 -0.3270
 6622SOL    HW125958   7.577   3.571   7.760  0.2843 -0.0078 -1.9758
 6622SOL    HW225959   7.725   3.566   7.791 -0.1139  0.1509  0.1440
 6623SOL     OW25960   2.185  10.682   6.449  0.7321  0.2359  1.2164
 6623SOL    HW125961   2.223  10.757   6.403  1.1051  0.1373  1.3618
 6623SOL    HW225962   2.131  10.721   6.518  0.8092  0.3707  1.2013
 6624SOL     OW25963   4.567   6.796   3.391 -0.1800  0.0530 -0.5091
 6624SOL    HW125964   4.541   6.732   3.457 -1.1809 -0.9927 -1.8584
 6624SOL    HW225965   4.657   6.773   3.368 -0.3636 -0.5627 -0.6192
 6625SOL     OW25966   3.995   6.207   4.268  0.3295  0.6621 -0.2227
 6625SOL    HW125967   3.940   6.180   4.194  1.8628 -1.3261 -0.7150
 6625SOL    HW225968   4.022   6.296   4.245 -1.8802  1.3720 -0.3828
 6626SOL     OW25969   9.389   0.202   2.193 -0.3639  0.0693  0.0635
 6626SOL    HW125970   9.307   0.158   2.216 -0.2261 -0.4412 -0.4045
 6626SOL    HW225971   9.455   0.133   2.194  0.0167  0.4297  0.1846
 6627SOL     OW25972   2.763   8.504   9.430  0.5733  0.2431 -0.5642
 6627SOL    HW125973   2.709   8.426   9.443  1.7009 -0.3835  0.6739
 6627SOL    HW225974   2.753   8.526   9.337 -1.7623  0.1704 -0.3924
 6628SOL     OW25975   8.901   4.047  10.271 -0.7962  0.0877 -0.2450
 6628SOL    HW125976   8.927   4.081  10.185 -1.5789  0.3403 -0.3869
 6628SOL    HW225977   8.817   4.088  10.289 -0.7697 -0.1766  0.5273
 6629SOL     OW25978  10.420   6.201   3.388  0.0192  0.0660 -0.1287
 6629SOL    HW125979  10.438   6.288   3.353  1.3058 -0.2183 -0.2320
 6629SOL    HW225980  10.489   6.186   3.452 -1.0538 -0.2994  0.9877
 6630SOL     OW25981   3.956   3.527   4.857  0.1745 -0.0445 -0.2439
 6630SOL    HW125982   3.955   3.470   4.934 -2.3113 -2.8302 -2.1333
 6630SOL    HW225983   3.962   3.467   4.783  1.9646  2.4844 -2.3437
 6631SOL     OW25984   3.088  10.227   6.393 -0.0956 -0.4957 -0.0816
 6631SOL    HW125985   3.181  10.248   6.398 -0.3184  0.5941 -0.3093
 6631SOL    HW225986   3.086  10.135   6.365  0.9434  0.4485 -3.7842
 6632SOL     OW25987   3.395  10.356   9.574 -0.0801 -0.3567 -0.5524
 6632SOL    HW125988   3.344  10.311   9.642 -0.4698  0.4643 -0.2826
 6632SOL    HW225989   3.361  10.320   9.492 -1.9553  0.9921 -0.4334
 6633SOL     OW25990   1.249   5.036   4.696  0.5160 -0.2131 -0.5432
 6633SOL    HW125991   1.284   5.121   4.670  2.2704 -1.4796 -2.6113
 6633SOL    HW225992   1.323   4.991   4.737 -0.1275 -1.0890 -0.3082
 6634SOL     OW25993   9.168   5.449   8.182  0.6318 -0.0252  0.3529
 6634SOL    HW125994   9.093   5.392   8.201  0.5518  0.0145  0.1583
 6634SOL    HW225995   9.243   5.403   8.220  0.6519 -0.5278 -0.2733
 6635SOL     OW25996   2.625   0.051  10.444  0.2274 -0.4359 -0.3496
 6635SOL    HW125997   2.614   0.099  10.526  0.7017 -1.1814  0.1679
 6635SOL    HW225998   2.542   0.004  10.432  0.0112 -0.0192 -0.5120
 6636SOL     OW25999   7.416   6.956   8.689 -0.4257  0.0830  0.3263
 6636SOL    HW126000   7.338   6.975   8.638 -0.6264  1.0953  0.9782
 6636SOL    HW226001   7.482   7.016   8.656 -0.6537  0.9914  1.4422
 6637SOL     OW26002   8.706   6.232  10.048 -0.4671 -0.5870  0.2100
 6637SOL    HW126003   8.716   6.257  10.140 -3.0509  0.5993  0.2683
 6637SOL    HW226004   8.697   6.137  10.049 -0.9336 -0.5413  1.2459
 6638SOL     OW26005   6.566   8.785   4.414 -0.5741  0.2624 -0.1756
 6638SOL    HW126006   6.607   8.739   4.487  2.6681  0.6286 -1.5946
 6638SOL    HW226007   6.557   8.718   4.346  0.9531  0.8947 -1.0508
 6639SOL     OW26008   9.435   3.372   1.505  0.0399 -0.2193  0.0313
 6639SOL    HW126009   9.482   3.330   1.433  0.1266 -1.4220  0.7676
 6639SOL    HW226010   9.502   3.426   1.548  0.3903 -0.7564  0.1727
 6640SOL     OW26011  10.633   7.351  10.230 -0.0462 -0.1076 -0.4280
 6640SOL    HW126012  10.616   7.320  10.319 -0.5668 -1.4950 -0.9886
 6640SOL    HW226013  10.569   7.421  10.217  0.1315  0.2039  0.3319
 6641SOL     OW26014   1.542  10.669   2.174 -0.5111 -0.3655  0.0946
 6641SOL    HW126015   1.520  10.576   2.177  1.0530 -0.7372  0.5190
 6641SOL    HW226016   1.635  10.671   2.153 -0.6522  1.1313 -0.5042
 6642SOL     OW26017   3.569  10.554  10.411 -0.1949  0.0092 -0.9325
 6642SOL    HW126018   3.567  10.487  10.479 -1.2901  0.8836 -0.0589
 6642SOL    HW226019   3.662  10.575  10.401 -0.0502  0.2138  0.6668
 6643SOL     OW26020  10.051   1.546   3.147  0.5570  0.2426 -0.3902
 6643SOL    HW126021  10.129   1.519   3.197  0.6850  1.0662 -0.1387
 6643SOL    HW226022  10.034   1.471   3.089  0.3118 -0.8006  0.9726
 6644SOL     OW26023   1.299   4.315  10.548  0.2114 -0.3328  0.1375
 6644SOL    HW126024   1.257   4.232  10.523  1.1551 -0.2222 -2.0305
 6644SOL    HW226025   1.226   4.374  10.565 -0.4752 -1.4501  1.3232
 6645SOL     OW26026   9.216   4.323   5.973 -0.1871 -0.1733  0.2364
 6645SOL    HW126027   9.209   4.262   6.046  0.7807 -1.7974 -0.9630
 6645SOL    HW226028   9.147   4.297   5.912  1.0984 -1.0634 -0.9217
 6646SOL     OW26029   5.280   1.429   1.802  0.3168 -0.5733 -0.0276
 6646SOL    HW126030   5.237   1.351   1.836 -1.6501 -0.0573 -1.1395
 6646SOL    HW226031   5.349   1.395   1.745 -1.9696 -1.7001 -2.3860
 6647SOL     OW26032   5.435   8.628   3.808 -0.0485 -0.8129 -0.0762
 6647SOL    HW126033   5.412   8.536   3.818 -1.2493 -0.5505 -0.2823
 6647SOL    HW226034   5.451   8.639   3.715  0.7159 -0.9432  0.0350
 6648SOL     OW26035   1.364   1.618   3.161 -0.3419  0.4653  0.2705
 6648SOL    HW126036   1.413   1.624   3.243  0.7314  1.1305 -0.3929
 6648SOL    HW226037   1.379   1.528   3.131 -0.6545  0.2515  0.7415
 6649SOL     OW26038   8.656   2.732   6.292 -0.1249  0.0315  0.4904
 6649SOL    HW126039   8.740   2.769   6.316  0.5241 -0.2131 -1.2734
 6649SOL    HW226040   8.592   2.780   6.345  1.1001  0.1501  1.9293
 6650SOL     OW26041   5.469   8.638   3.538  0.1106  0.8560  0.0038
 6650SOL    HW126042   5.547   8.691   3.524 -1.1988  2.6563 -0.8535
 6650SOL    HW226043   5.455   8.593   3.454  1.0106 -0.6794  0.6166
 6651SOL     OW26044   9.853  10.657   4.802  0.2110  0.0101 -0.5756
 6651SOL    HW126045   9.799  10.585   4.836 -0.5527  0.8615  0.0609
 6651SOL    HW226046   9.921  10.669   4.868 -0.3059  0.5810 -0.1385
 6652SOL     OW26047   0.498   8.604   5.454  0.0972 -0.1332  0.3073
 6652SOL    HW126048   0.478   8.655   5.376  0.9174 -2.6893 -1.7256
 6652SOL    HW226049   0.414   8.567   5.482 -0.0458 -0.0647 -0.0311
 6653SOL     OW26050   6.988   4.488   1.066 -0.6401 -0.1052 -0.4032
 6653SOL    HW126051   7.057   4.445   1.118  0.8178  1.9373 -0.5307
 6653SOL    HW226052   6.998   4.449   0.979  1.9683  1.6844 -1.0356
 6654SOL     OW26053   0.969   4.660   8.956 -0.3569 -0.0429 -0.0830
 6654SOL    HW126054   0.940   4.746   8.925  0.5810  0.6167  0.7701
 6654SOL    HW226055   0.906   4.637   9.024  0.1602  0.6335  0.6486
 6655SOL     OW26056   3.423   3.114   4.113  0.4850 -0.0142 -0.4223
 6655SOL    HW126057   3.512   3.145   4.098 -0.7849  3.2930 -2.2662
 6655SOL    HW226058   3.381   3.184   4.163 -2.0928  0.6093 -3.1554
 6656SOL     OW26059   6.652   6.397   0.434 -0.1099  0.1917 -0.0731
 6656SOL    HW126060   6.571   6.354   0.460  0.3942 -1.9899 -1.7461
 6656SOL    HW226061   6.721   6.336   0.461  0.7087  0.2989 -1.7879
 6657SOL     OW26062   9.078   9.267   7.033 -0.2632 -0.0450  0.8029
 6657SOL    HW126063   9.051   9.338   7.092 -1.7959 -0.8566  1.1193
 6657SOL    HW226064   9.058   9.187   7.080 -1.8064 -0.7273 -0.8938
 6658SOL     OW26065   1.007   3.325  10.045  0.6328 -0.5769  0.1292
 6658SOL    HW126066   0.924   3.329  10.091  0.7538  1.1180  0.2442
 6658SOL    HW226067   0.987   3.353   9.956  1.3071  1.3702  0.5431
 6659SOL     OW26068   0.136  10.248   4.851  0.0832 -0.4876  0.0521
 6659SOL    HW126069   0.202  10.274   4.786 -1.3539 -0.1072 -1.3070
 6659SOL    HW226070   0.160  10.159   4.875  1.0041 -0.4069 -0.5122
 6660SOL     OW26071   2.559   2.791   6.092 -0.1673 -0.5098  0.3816
 6660SOL    HW126072   2.505   2.869   6.101  0.5683 -0.0139  0.5596
 6660SOL    HW226073   2.498   2.723   6.060 -0.5475  0.4350 -0.9887
 6661SOL     OW26074   1.012   1.017   5.976 -0.3484 -0.0879 -0.2659
 6661SOL    HW126075   1.053   1.074   6.041 -1.7499  0.1303  0.4695
 6661SOL    HW226076   0.934   0.983   6.020 -0.5426 -1.0993 -1.3449
 6662SOL     OW26077   0.946   1.198   3.331 -0.1764 -0.0868 -0.5596
 6662SOL    HW126078   0.878   1.233   3.274 -1.0188 -0.5048  0.1659
 6662SOL    HW226079   1.022   1.254   3.315 -1.3026  1.7745  0.1795
 6663SOL     OW26080   5.847   8.126   2.510  0.0167 -0.4699 -0.3374
 6663SOL    HW126081   5.868   8.033   2.503  0.2728 -0.3769 -0.8559
 6663SOL    HW226082   5.926   8.166   2.546 -0.8305 -0.7491  2.0239
 6664SOL     OW26083   5.050   9.504   2.656  0.5625  0.6781  0.3527
 6664SOL    HW126084   5.144   9.502   2.670  0.9699 -0.4537 -2.0262
 6664SOL    HW226085   5.039   9.550   2.573 -0.9398  0.4346  0.3830
 6665SOL     OW26086   1.455   4.018   4.192 -0.0971  0.5161 -0.4850
 6665SOL    HW126087   1.454   3.927   4.221 -2.3669  0.7576  0.4687
 6665SOL    HW226088   1.531   4.056   4.234  0.9804 -0.9453 -1.0183
 6666SOL     OW26089   9.111   2.888   6.640  0.4424 -0.4390  0.0841
 6666SOL    HW126090   9.034   2.927   6.681  0.0090 -0.7226 -0.4478
 6666SOL    HW226091   9.087   2.796   6.628  0.5837 -0.3687 -0.7582
 6667SOL     OW26092   5.732   5.181   3.717  0.2494  0.9120 -0.2377
 6667SOL    HW126093   5.684   5.098   3.720 -0.8154  1.4931  3.7929
 6667SOL    HW226094   5.816   5.161   3.758 -0.4235  1.9784  1.7496
 6668SOL     OW26095   4.232   5.557  10.367 -0.2091 -0.4153 -0.6189
 6668SOL    HW126096   4.189   5.630  10.410  0.3054  0.5798 -1.7226
 6668SOL    HW226097   4.190   5.552  10.281  2.0790  0.8901 -1.9270
 6669SOL     OW26098   7.458   8.770   1.744  0.0966 -0.2922  0.0988
 6669SOL    HW126099   7.453   8.763   1.649 -1.3399 -2.7912  0.2586
 6669SOL    HW226100   7.462   8.679   1.774 -0.4608  0.3889  2.4621
 6670SOL     OW26101   6.746   7.114   5.230 -0.2426  0.1867  0.2163
 6670SOL    HW126102   6.833   7.080   5.249 -0.8086 -0.1545  2.5206
 6670SOL    HW226103   6.761   7.202   5.194  1.0269  0.0384  0.3436
 6671SOL     OW26104   3.394   9.562   9.030 -0.0341 -0.6034 -0.7371
 6671SOL    HW126105   3.371   9.506   9.104  0.4838 -0.5270 -0.5094
 6671SOL    HW226106   3.311   9.594   8.997 -0.2495 -0.0908  0.2522
 6672SOL     OW26107   2.828   1.318   1.097 -0.4428  0.3197  0.1319
 6672SOL    HW126108   2.798   1.386   1.037 -1.9147  0.1573  0.6524
 6672SOL    HW226109   2.868   1.252   1.039 -1.8519  0.1534 -0.7005
 6673SOL     OW26110   9.997   0.329   1.475 -0.0839  0.7271 -0.1087
 6673SOL    HW126111  10.015   0.404   1.418 -0.2834  1.4967  0.8255
 6673SOL    HW226112   9.934   0.362   1.539 -1.8767 -0.8214 -0.9739
 6674SOL     OW26113   9.767   3.687  10.221 -0.0537  0.0986  0.1077
 6674SOL    HW126114   9.771   3.599  10.184 -1.0307  0.6960 -1.5310
 6674SOL    HW226115   9.675   3.711  10.216 -0.0654  0.6503  2.0218
 6675SOL     OW26116   4.723   0.177   4.049 -0.0025 -0.5974 -0.1787
 6675SOL    HW126117   4.727   0.092   4.005  0.6992 -1.0267  0.6880
 6675SOL    HW226118   4.644   0.172   4.103  0.6760 -1.1980  0.8089
 6676SOL     OW26119   1.356   8.324   7.664 -0.1100  0.5456  0.0030
 6676SOL    HW126120   1.346   8.414   7.633  0.9646  0.8992  0.6425
 6676SOL    HW226121   1.272   8.282   7.644 -1.3399  2.2045  1.3804
 6677SOL     OW26122  10.796   9.520   5.147  0.4644  0.8917 -0.8699
 6677SOL    HW126123  10.715   9.505   5.197  2.3262 -0.1961  2.0739
 6677SOL    HW226124  10.799   9.446   5.085  0.2619 -0.3911  0.5756
 6678SOL     OW26125   7.285   4.227   8.165 -0.0565 -0.4928 -0.0315
 6678SOL    HW126126   7.378   4.241   8.183 -0.2746  1.1958 -0.0261
 6678SOL    HW226127   7.277   4.235   8.070  0.1315 -3.1260 -0.3494
 6679SOL     OW26128   4.247   3.981   9.561  0.0156  0.3195  0.5132
 6679SOL    HW126129   4.172   3.935   9.523  0.9964 -0.7406 -0.1849
 6679SOL    HW226130   4.212   4.067   9.586 -1.4058 -0.1216  0.1379
 6680SOL     OW26131   4.976   8.468   2.662 -0.6218 -0.2497  0.3739
 6680SOL    HW126132   4.923   8.538   2.699 -0.2712  0.0529  0.3125
 6680SOL    HW226133   5.050   8.513   2.621  0.0139 -0.6980  1.0062
 6681SOL     OW26134   7.674  10.433  10.924 -0.1626  0.3565  0.5236
 6681SOL    HW126135   7.679  10.415  10.831 -0.8973  0.6782  0.4122
 6681SOL    HW226136   7.749  10.386  10.962 -1.9696 -3.0655  0.2936
 6682SOL     OW26137   6.639   8.139   0.709  0.0700  0.1051  0.6188
 6682SOL    HW126138   6.545   8.135   0.731  0.1111  0.2341  0.8244
 6682SOL    HW226139   6.643   8.113   0.617 -0.0464 -1.0233  0.9141
 6683SOL     OW26140   2.593   9.586   2.935  0.5217  0.0207  0.0558
 6683SOL    HW126141   2.545   9.668   2.926  2.6015  1.2359 -0.5528
 6683SOL    HW226142   2.676   9.601   2.890  1.7092 -1.7947  1.4831
 6684SOL     OW26143   4.690   0.906   5.189  0.3832 -0.4139 -0.1011
 6684SOL    HW126144   4.681   0.999   5.170  1.4594 -0.1950  0.3668
 6684SOL    HW226145   4.647   0.895   5.275  1.7682  0.0157  0.6767
 6685SOL     OW26146   1.049   4.616   0.556 -0.3975  0.0328  0.3240
 6685SOL    HW126147   1.130   4.652   0.592 -0.9040  0.9883  0.5430
 6685SOL    HW226148   1.056   4.521   0.570 -0.0932  0.2687  1.9380
 6686SOL     OW26149   5.110   0.934   5.072 -0.8699 -0.3933 -0.6494
 6686SOL    HW126150   5.123   0.968   5.161  0.4738 -1.2937 -0.4731
 6686SOL    HW226151   5.027   0.972   5.044 -0.7519  0.8378  0.5483
 6687SOL     OW26152   5.159  10.838   0.583 -0.0394  0.3991 -0.6382
 6687SOL    HW126153   5.104  10.761   0.566  0.4692 -0.4698  1.3600
 6687SOL    HW226154   5.162  10.845   0.678  1.0156  2.1382 -0.7476
 6688SOL     OW26155   9.232   6.875   0.943 -0.5264  0.2455  0.2571
 6688SOL    HW126156   9.185   6.900   1.022  0.8935  0.7611  0.9733
 6688SOL    HW226157   9.170   6.820   0.894 -2.3469  2.0079  0.4753
 6689SOL     OW26158   4.234   2.410   7.761 -0.6147 -0.2438  0.2632
 6689SOL    HW126159   4.141   2.391   7.772 -0.6185 -1.0381 -0.9420
 6689SOL    HW226160   4.236   2.483   7.698 -0.4182 -0.4391  0.0416
 6690SOL     OW26161   6.640   9.173   7.888 -0.0647  0.1806 -0.1975
 6690SOL    HW126162   6.679   9.177   7.975  0.3690  0.8569 -0.4138
 6690SOL    HW226163   6.635   9.080   7.868 -0.6058  0.0021  0.7413
 6691SOL     OW26164   1.197   8.469   2.369 -0.1073  0.4475 -0.1880
 6691SOL    HW126165   1.163   8.556   2.391  0.2075  0.7738 -0.9808
 6691SOL    HW226166   1.121   8.422   2.335 -0.0200  0.8132 -0.9041
 6692SOL     OW26167   6.408   0.922  10.669  0.3314 -0.0608  0.3511
 6692SOL    HW126168   6.332   0.916  10.726  0.4747  0.7971  0.6629
 6692SOL    HW226169   6.426   0.832  10.642 -0.1595 -0.3954  1.1050
 6693SOL     OW26170   1.187   9.071   2.048 -0.0525  0.3974  0.3438
 6693SOL    HW126171   1.132   9.124   2.105 -0.8383  1.3371 -1.2282
 6693SOL    HW226172   1.175   9.108   1.961  0.6230 -1.3775 -0.5604
 6694SOL     OW26173   7.861   5.578   1.276 -0.7441  0.0448  0.4465
 6694SOL    HW126174   7.925   5.520   1.236 -0.7497  0.4253 -0.1197
 6694SOL    HW226175   7.780   5.526   1.279 -0.2836 -0.6387  1.6928
 6695SOL     OW26176   4.169  10.067   0.551 -0.2987 -0.0331  0.0747
 6695SOL    HW126177   4.193   9.986   0.595  1.0914  0.6664  0.7026
 6695SOL    HW226178   4.213  10.136   0.602  2.6186  0.7345 -3.0820
 6696SOL     OW26179   5.798   2.988   2.634  0.0466 -0.1734  0.2559
 6696SOL    HW126180   5.723   2.990   2.575 -0.4960  0.1108  0.9377
 6696SOL    HW226181   5.805   2.897   2.661 -1.1164  0.0849  1.5024
 6697SOL     OW26182  10.137   7.412   6.243  0.4506 -0.4056  0.0302
 6697SOL    HW126183  10.113   7.504   6.251  0.2755 -0.5206  1.0166
 6697SOL    HW226184  10.213   7.412   6.185  0.3972  0.3513 -0.0501
 6698SOL     OW26185   7.467   1.770   8.477  0.2735  0.0489  0.9934
 6698SOL    HW126186   7.438   1.861   8.468  0.8537  0.4184  2.5898
 6698SOL    HW226187   7.403   1.730   8.537 -1.0194 -1.1391 -1.0431
 6699SOL     OW26188   3.699   5.145   4.598 -0.1238  0.3082 -0.1621
 6699SOL    HW126189   3.751   5.076   4.557 -0.4015 -1.5439  2.3670
 6699SOL    HW226190   3.734   5.152   4.687 -2.1360  1.2066  0.6344
 6700SOL     OW26191   0.274   2.368   8.753 -0.2538  0.2423  0.1823
 6700SOL    HW126192   0.281   2.426   8.676  0.0959  1.2447  0.9509
 6700SOL    HW226193   0.364   2.342   8.772 -0.3955 -0.4764 -0.0754
 6701SOL     OW26194  10.812   0.513   7.029  0.3763 -0.0856  0.3596
 6701SOL    HW126195  10.817   0.522   6.934 -1.5866 -1.2211  0.0874
 6701SOL    HW226196  10.835   0.599   7.062  2.2371  0.0258 -1.0687
 6702SOL     OW26197   2.059   6.705   8.947  0.3256 -0.3359  0.1902
 6702SOL    HW126198   2.050   6.723   9.040 -1.1005  0.6733 -0.1064
 6702SOL    HW226199   1.970   6.685   8.918  0.6104  0.1396 -1.0852
 6703SOL     OW26200   9.095   9.005   4.571 -0.3268 -0.8954  0.6554
 6703SOL    HW126201   9.118   9.021   4.662  1.4092 -0.1757  0.1452
 6703SOL    HW226202   9.125   8.916   4.554  0.6124 -0.5674  0.4696
 6704SOL     OW26203   3.274   7.346   3.580  0.5724 -0.2673 -0.0909
 6704SOL    HW126204   3.200   7.298   3.616 -0.5118  1.0670 -0.4836
 6704SOL    HW226205   3.268   7.333   3.486 -0.1212  1.1272 -0.2629
 6705SOL     OW26206   9.781   1.011   3.659 -0.0368  0.3477 -0.2607
 6705SOL    HW126207   9.818   1.052   3.581  0.7521 -0.1575 -0.1587
 6705SOL    HW226208   9.786   0.917   3.642  0.8290  0.2034  0.7020
 6706SOL     OW26209   2.504   7.125   8.362 -0.6740 -0.4922 -0.5798
 6706SOL    HW126210   2.554   7.200   8.393  1.7035 -1.0538 -2.7172
 6706SOL    HW226211   2.443   7.105   8.434  1.6565  0.7230  1.9181
 6707SOL     OW26212   3.881   2.623   7.778  0.1916  0.9201 -0.2795
 6707SOL    HW126213   3.878   2.543   7.830 -2.3105  0.7322 -0.5586
 6707SOL    HW226214   3.888   2.592   7.687 -0.3255  1.0216 -0.3573
 6708SOL     OW26215   9.737   2.254   4.246 -0.1358 -0.2902 -0.0608
 6708SOL    HW126216   9.696   2.189   4.189  0.2244  1.1078 -2.0448
 6708SOL    HW226217   9.669   2.321   4.258 -0.1748 -0.5217  1.1313
 6709SOL     OW26218   7.726   9.317   6.391  0.1981  0.2475 -0.1399
 6709SOL    HW126219   7.632   9.334   6.397  0.2706  0.2111  2.4234
 6709SOL    HW226220   7.766   9.404   6.398  0.3640  0.1651 -0.0667
 6710SOL     OW26221   3.734   6.472   5.805 -0.3334  0.0728 -0.0724
 6710SOL    HW126222   3.791   6.541   5.771  1.1935 -0.4030  1.3586
 6710SOL    HW226223   3.700   6.428   5.727  1.4101  0.2695 -1.0019
 6711SOL     OW26224   5.904   7.871   2.546  0.2695  0.0639 -1.0464
 6711SOL    HW126225   5.999   7.859   2.552  0.3030  0.5864 -0.4404
 6711SOL    HW226226   5.869   7.783   2.561  0.6599 -0.1380 -1.2980
 6712SOL     OW26227   1.661   7.935   2.281  0.6112 -0.4701  0.1379
 6712SOL    HW126228   1.741   7.938   2.334  1.0896 -1.8318 -0.4808
 6712SOL    HW226229   1.637   7.843   2.278 -1.5720  0.0114  1.1240
 6713SOL     OW26230   5.818   6.714   4.073 -0.4162 -0.1591  0.0379
 6713SOL    HW126231   5.848   6.702   4.164 -0.4783  0.4297  0.1393
 6713SOL    HW226232   5.887   6.674   4.021 -0.6614 -1.0221  0.3638
 6714SOL     OW26233  10.713   7.541   4.700 -0.2190  0.6459  0.0458
 6714SOL    HW126234  10.720   7.632   4.726  2.0049  1.2818 -2.2994
 6714SOL    HW226235  10.701   7.544   4.605  1.9887 -1.4187 -0.4307
 6715SOL     OW26236   7.142  10.418   7.444 -0.5517  0.2427 -0.8999
 6715SOL    HW126237   7.155  10.323   7.440 -0.2754  0.2352 -0.1402
 6715SOL    HW226238   7.208  10.454   7.385 -0.3820 -0.0268 -0.8780
 6716SOL     OW26239   2.678   0.745  10.232 -0.1439  0.0265  0.0398
 6716SOL    HW126240   2.763   0.774  10.198 -0.1042  0.5010  0.5161
 6716SOL    HW226241   2.638   0.697  10.160  0.0846  0.7083 -0.5494
 6717SOL     OW26242   4.727   9.968   1.874 -0.1085  0.1329  0.3060
 6717SOL    HW126243   4.631   9.967   1.872 -0.1578  2.0073 -0.0669
 6717SOL    HW226244   4.748  10.024   1.948  0.7340 -0.8561  0.8358
 6718SOL     OW26245   0.549   5.847  10.035 -0.2333 -0.0441 -0.3458
 6718SOL    HW126246   0.503   5.855   9.951  0.2671  0.4471 -0.5756
 6718SOL    HW226247   0.534   5.930  10.079  0.1653 -0.0013 -0.2870
 6719SOL     OW26248   5.901   7.780  10.319  0.1292  0.0635 -0.4191
 6719SOL    HW126249   5.950   7.759  10.398 -1.6830 -1.1671  0.4561
 6719SOL    HW226250   5.947   7.732  10.250  0.4495 -0.6563  0.2747
 6720SOL     OW26251   5.194   0.197   3.152 -0.5523 -0.1243 -0.4491
 6720SOL    HW126252   5.272   0.143   3.163  0.1398  0.9078 -0.0632
 6720SOL    HW226253   5.144   0.155   3.082 -0.1000 -1.3104 -0.0670
 6721SOL     OW26254   8.056   2.642   8.437 -0.4106 -0.5427 -0.2987
 6721SOL    HW126255   8.132   2.679   8.393 -0.4930 -0.5395 -0.4427
 6721SOL    HW226256   8.054   2.683   8.523 -1.5653  1.2293 -1.1039
 6722SOL     OW26257   0.499   1.471   4.148 -0.1417 -0.1095 -0.3215
 6722SOL    HW126258   0.414   1.443   4.115 -0.3595  0.9829 -0.7517
 6722SOL    HW226259   0.501   1.565   4.131  1.1571 -0.1192 -0.3216
 6723SOL     OW26260   8.693  10.287   2.069  0.1189  0.3476  0.0341
 6723SOL    HW126261   8.768  10.344   2.085  1.1528 -0.5378 -1.4137
 6723SOL    HW226262   8.697  10.223   2.140 -0.0266  1.0275  0.6749
 6724SOL     OW26263   5.486   2.285   2.644 -0.2087  0.5821 -0.5623
 6724SOL    HW126264   5.412   2.334   2.610 -1.5297 -0.3907  0.7899
 6724SOL    HW226265   5.509   2.225   2.574 -1.0387  0.5470 -0.8117
 6725SOL     OW26266   5.654   3.392   0.597 -0.0437  0.4517  0.3245
 6725SOL    HW126267   5.619   3.309   0.566 -0.1726  0.2471  1.0043
 6725SOL    HW226268   5.661   3.382   0.692 -0.8297  1.4863  0.5225
 6726SOL     OW26269   2.371   9.616   9.775  0.5004 -0.8822  0.1590
 6726SOL    HW126270   2.409   9.703   9.790 -1.0215 -0.1731  0.1153
 6726SOL    HW226271   2.301   9.610   9.840 -0.5621 -1.3379 -0.9925
 6727SOL     OW26272   1.609  10.736   1.630 -0.1099 -0.4008  0.4737
 6727SOL    HW126273   1.677  10.771   1.573 -0.7942  0.4558  0.1722
 6727SOL    HW226274   1.553  10.684   1.573 -0.9281  0.6466  0.3096
 6728SOL     OW26275   3.890   9.326   2.775 -0.5218 -0.2662  0.2259
 6728SOL    HW126276   3.933   9.242   2.792 -0.0430 -0.2381 -0.7982
 6728SOL    HW226277   3.951   9.391   2.810  0.4179 -0.2130 -1.4217
 6729SOL     OW26278   4.100   0.367   7.600  0.2565 -0.5457 -0.1701
 6729SOL    HW126279   4.143   0.351   7.516  2.7440  0.7942  0.7388
 6729SOL    HW226280   4.104   0.463   7.611  0.5618 -0.7228  1.7015
 6730SOL     OW26281   6.937   2.721   2.369 -0.4458 -0.6136 -0.2156
 6730SOL    HW126282   6.925   2.627   2.360  0.5260 -0.5729 -2.6701
 6730SOL    HW226283   6.905   2.758   2.287  5.7793  0.3857 -2.8069
 6731SOL     OW26284   0.609   6.115   7.160 -0.5505 -0.1347  0.1004
 6731SOL    HW126285   0.658   6.055   7.105  1.0472 -2.2012  3.4474
 6731SOL    HW226286   0.662   6.194   7.164 -0.3715 -0.2035 -0.7282
 6732SOL     OW26287   4.820   3.425   2.869  0.9925  0.0154  0.1494
 6732SOL    HW126288   4.832   3.334   2.896 -0.7938 -0.6075 -1.0014
 6732SOL    HW226289   4.898   3.444   2.816  0.1130 -1.8126 -1.9669
 6733SOL     OW26290   4.707   7.809   0.031  0.0395 -0.1951 -0.4902
 6733SOL    HW126291   4.659   7.766  -0.039 -0.0460 -0.8546 -0.0307
 6733SOL    HW226292   4.752   7.738   0.077  0.4100  0.2744 -0.1175
 6734SOL     OW26293   1.221   7.542   0.730  0.0347 -0.3826 -0.0582
 6734SOL    HW126294   1.173   7.623   0.742  0.0463  0.0468 -2.4169
 6734SOL    HW226295   1.310   7.562   0.759 -0.2485  0.0615  0.5127
 6735SOL     OW26296   3.872  10.557   7.382 -0.2113 -0.1801  0.4978
 6735SOL    HW126297   3.965  10.558   7.359 -0.0218 -1.1698  1.1374
 6735SOL    HW226298   3.865  10.613   7.459 -0.0670 -0.4186  0.6874
 6736SOL     OW26299   8.810  10.194   7.741  0.1850 -0.6791 -0.6189
 6736SOL    HW126300   8.846  10.106   7.736 -1.6703 -1.7420  2.3662
 6736SOL    HW226301   8.843  10.230   7.823 -1.2661  0.3278 -0.4255
 6737SOL     OW26302   2.809   7.560   8.024 -0.7276  0.5542  0.3027
 6737SOL    HW126303   2.777   7.478   8.062 -0.3650  0.8429  1.2604
 6737SOL    HW226304   2.856   7.533   7.945 -0.8984 -0.1289  0.4270
 6738SOL     OW26305   0.497   3.357   8.737  0.7373  0.4960  0.7142
 6738SOL    HW126306   0.471   3.265   8.731 -0.8573  0.9400  0.4959
 6738SOL    HW226307   0.564   3.368   8.669 -1.0005  0.1202 -1.1327
 6739SOL     OW26308   6.050   9.854   8.176 -0.0389  0.0309  0.0616
 6739SOL    HW126309   6.043   9.870   8.082  0.1226 -0.7166 -0.0897
 6739SOL    HW226310   6.143   9.840   8.191 -0.2995 -2.4406 -0.1524
 6740SOL     OW26311   6.998   1.445   3.103  0.4415 -0.0279  0.0394
 6740SOL    HW126312   6.962   1.509   3.041  1.1247 -0.1575 -0.5041
 6740SOL    HW226313   6.964   1.361   3.073 -0.3970  0.0562  0.7114
 6741SOL     OW26314   4.427   5.644   0.162  0.1271 -0.7379  0.2218
 6741SOL    HW126315   4.467   5.557   0.168  1.3548 -0.1990  0.2017
 6741SOL    HW226316   4.394   5.649   0.072 -0.0847 -1.2379  0.2689
 6742SOL     OW26317   8.736   4.291   8.531 -0.0126 -0.0192  0.1925
 6742SOL    HW126318   8.662   4.352   8.530 -1.9365 -2.2019 -1.1768
 6742SOL    HW226319   8.785   4.312   8.452 -1.8659 -1.4563 -1.4525
 6743SOL     OW26320   4.468  10.222   9.056 -0.6576  0.3136 -0.0876
 6743SOL    HW126321   4.417  10.163   9.111 -0.0510  0.3186  0.4881
 6743SOL    HW226322   4.544  10.246   9.109  0.7812 -0.9331 -1.4829
 6744SOL     OW26323   9.464   3.537   9.893 -0.1783  0.1062 -0.1560
 6744SOL    HW126324   9.377   3.521   9.856 -0.6667  0.5960  0.7281
 6744SOL    HW226325   9.451   3.528   9.988  0.9690 -0.8424 -0.0651
 6745SOL     OW26326   5.008   4.718   3.522  0.8999 -0.3352 -0.0757
 6745SOL    HW126327   5.075   4.661   3.560 -0.3567 -0.5038  2.0878
 6745SOL    HW226328   5.051   4.759   3.447  2.8279 -1.7678  0.1599
 6746SOL     OW26329   6.224   4.783   2.108  0.5270  0.5837 -0.1781
 6746SOL    HW126330   6.162   4.855   2.097 -0.1503  0.0592  0.1403
 6746SOL    HW226331   6.238   4.750   2.019 -2.2357 -1.3998 -0.0102
 6747SOL     OW26332   4.459   3.364  10.466 -0.2118 -0.4531 -0.4982
 6747SOL    HW126333   4.388   3.419  10.431  0.1086 -1.4778 -2.9421
 6747SOL    HW226334   4.536   3.421  10.465 -0.5773  0.0698  0.2973
 6748SOL     OW26335   3.756   4.632   2.721  0.7112 -0.3247 -0.3639
 6748SOL    HW126336   3.680   4.573   2.719 -0.7842  1.3373  2.1460
 6748SOL    HW226337   3.827   4.579   2.757 -0.5645 -0.7318  1.7102
 6749SOL     OW26338   3.844   5.414   7.461 -0.7985 -0.2302  0.0693
 6749SOL    HW126339   3.807   5.328   7.483  1.8056 -0.8868  2.4729
 6749SOL    HW226340   3.903   5.397   7.388  0.6476 -0.8486  1.3111
 6750SOL     OW26341   3.654   2.431   6.277  0.2017 -0.2416 -0.2618
 6750SOL    HW126342   3.689   2.418   6.365 -0.8054 -0.4059  0.1265
 6750SOL    HW226343   3.728   2.415   6.219  0.8591 -0.2014  0.5534
 6751SOL     OW26344   3.993   9.217   5.268 -0.0756  0.2316  0.1811
 6751SOL    HW126345   3.957   9.206   5.180  0.6954  1.0399 -0.2549
 6751SOL    HW226346   4.071   9.161   5.269 -0.8625 -0.8885  0.8494
 6752SOL     OW26347   2.275   7.785   4.722 -0.7178  0.4228 -0.2927
 6752SOL    HW126348   2.248   7.789   4.814 -0.9999 -0.0266 -0.3514
 6752SOL    HW226349   2.273   7.876   4.693  1.0396  0.7936  0.6036
 6753SOL     OW26350   1.097   1.327   2.584 -0.5111  0.2423 -0.3220
 6753SOL    HW126351   1.151   1.375   2.522 -0.4540  2.1701  1.1413
 6753SOL    HW226352   1.151   1.251   2.608  1.3084  1.7390  0.5546
 6754SOL     OW26353   7.618   9.355   0.008 -0.0210 -0.7483 -0.5577
 6754SOL    HW126354   7.714   9.362   0.004 -0.0235  0.6280  0.9728
 6754SOL    HW226355   7.599   9.340   0.100 -1.3474  0.6834 -0.5536
 6755SOL     OW26356   0.338   6.868   7.257  0.3649 -0.2277 -0.1368
 6755SOL    HW126357   0.379   6.864   7.171  0.4060  1.5598 -0.2380
 6755SOL    HW226358   0.249   6.835   7.243  1.3261 -3.0496 -0.1433
 6756SOL     OW26359   2.528   6.073   6.700 -0.2680  0.6533  0.3243
 6756SOL    HW126360   2.620   6.051   6.688 -0.6305 -0.8904  0.1408
 6756SOL    HW226361   2.496   6.093   6.612 -0.6593 -1.2371 -0.0043
 6757SOL     OW26362   3.184   1.772   4.598 -0.0421 -0.0498  0.1542
 6757SOL    HW126363   3.115   1.838   4.611 -0.6280 -0.4435 -0.8271
 6757SOL    HW226364   3.140   1.689   4.616  0.2596 -0.2817 -0.1911
 6758SOL     OW26365   2.966   4.209   5.840 -0.2479 -0.0439  0.8840
 6758SOL    HW126366   2.986   4.118   5.817  1.0442  0.8394 -2.0092
 6758SOL    HW226367   3.040   4.236   5.895  0.0946 -0.3612  0.5879
 6759SOL     OW26368   2.705   4.675   9.651 -0.5694 -0.3676  0.3908
 6759SOL    HW126369   2.624   4.624   9.641  0.6709 -2.3987  0.0182
 6759SOL    HW226370   2.723   4.675   9.745 -1.7130  1.3481  0.6496
 6760SOL     OW26371   0.909   9.597   2.408 -0.4424 -0.2934  0.4108
 6760SOL    HW126372   0.871   9.684   2.397 -0.1568 -0.2737 -0.4599
 6760SOL    HW226373   0.891   9.552   2.325  0.7409 -0.5511  0.2851
 6761SOL     OW26374  10.714   4.416  10.823  0.6849 -0.1272 -0.0242
 6761SOL    HW126375  10.783   4.477  10.798  0.1629  0.8199  0.7487
 6761SOL    HW226376  10.637   4.471  10.838 -0.0951 -1.0944 -0.3121
 6762SOL     OW26377   6.152   1.331  10.559 -0.2799  0.2142  0.4157
 6762SOL    HW126378   6.065   1.365  10.580  0.1425  0.6600  1.5637
 6762SOL    HW226379   6.183   1.292  10.641  0.6417  0.1711  0.0640
 6763SOL     OW26380   6.949   9.401  10.822  0.4458 -0.0295 -0.2496
 6763SOL    HW126381   6.878   9.384  10.884  0.2115  0.7723 -0.2828
 6763SOL    HW226382   6.928   9.487  10.785  1.9997  0.7304  0.5218
 6764SOL     OW26383   5.365   2.708   1.002  0.0140 -0.0364  0.1178
 6764SOL    HW126384   5.447   2.703   1.052  0.1017 -1.6108 -0.1221
 6764SOL    HW226385   5.314   2.775   1.047  0.1604 -1.2451  2.2383
 6765SOL     OW26386   1.973   0.303   4.315 -0.3799  0.1357 -0.1294
 6765SOL    HW126387   2.063   0.320   4.288 -0.3115 -0.7849 -0.5246
 6765SOL    HW226388   1.972   0.210   4.338 -0.9178  0.4273  1.1488
 6766SOL     OW26389   7.778   0.834   1.509  0.3675 -0.0562  0.2047
 6766SOL    HW126390   7.728   0.772   1.456  0.0983 -1.0410  1.5516
 6766SOL    HW226391   7.736   0.919   1.493 -0.5662 -0.5638 -0.0971
 6767SOL     OW26392   1.943   1.360  10.792 -0.1859  0.5064  0.4287
 6767SOL    HW126393   1.852   1.339  10.773  0.6126 -1.6282 -1.4801
 6767SOL    HW226394   1.961   1.440  10.743 -0.7928  0.4320  0.0841
 6768SOL     OW26395   7.819   1.335   4.088 -0.0802 -0.0903 -0.0221
 6768SOL    HW126396   7.793   1.270   4.024 -1.6287  1.4898 -1.0933
 6768SOL    HW226397   7.750   1.333   4.154  0.4430 -0.2876  0.5305
 6769SOL     OW26398   6.974   9.661   2.479  0.1442  0.3638 -0.1768
 6769SOL    HW126399   6.967   9.650   2.384  0.7069  0.6796 -0.2623
 6769SOL    HW226400   6.986   9.572   2.512 -1.6930  0.0681 -0.2273
 6770SOL     OW26401   8.321   9.810   2.492 -0.0257  0.3991 -0.2697
 6770SOL    HW126402   8.281   9.833   2.576 -0.8664  0.0952 -0.5809
 6770SOL    HW226403   8.340   9.717   2.499 -0.3358  0.3164 -0.5089
 6771SOL     OW26404   3.198   8.548   7.391 -0.0460 -0.1746  0.1337
 6771SOL    HW126405   3.253   8.479   7.430  1.2569 -0.6104 -2.2804
 6771SOL    HW226406   3.251   8.627   7.397  0.1598 -0.2417 -0.6616
 6772SOL     OW26407   4.837   2.058   3.913  0.3400  0.0461 -0.5036
 6772SOL    HW126408   4.875   2.050   3.825  0.9440 -1.5036 -0.1286
 6772SOL    HW226409   4.810   2.150   3.919 -0.1998  0.0702 -2.5084
 6773SOL     OW26410   2.022   5.815   8.933  0.0402  0.0664 -0.2233
 6773SOL    HW126411   2.024   5.742   8.994  1.9302  0.1896 -0.0806
 6773SOL    HW226412   1.958   5.876   8.970 -0.3436 -0.7750  0.5228
 6774SOL     OW26413   8.067   2.356   3.082 -0.2696 -0.5486 -0.2679
 6774SOL    HW126414   7.993   2.404   3.046  0.9649  2.5860  1.0858
 6774SOL    HW226415   8.140   2.377   3.023 -0.1163 -2.6717 -0.9348
 6775SOL     OW26416   4.701   4.323   5.006 -0.2454  0.0175 -0.4559
 6775SOL    HW126417   4.702   4.246   5.063  1.5492 -0.0526 -0.5324
 6775SOL    HW226418   4.708   4.288   4.918  1.9019  0.2494 -0.4339
 6776SOL     OW26419   9.517   3.287   2.977 -0.1238 -0.3720 -0.0660
 6776SOL    HW126420   9.583   3.316   3.041 -1.1751 -2.9293  2.3935
 6776SOL    HW226421   9.453   3.358   2.974  1.6423  1.2603 -0.9504
 6777SOL     OW26422   0.922   0.594   0.999 -0.4138 -0.1535  0.2419
 6777SOL    HW126423   0.975   0.554   1.068 -0.9111 -0.8344  0.2423
 6777SOL    HW226424   0.963   0.678   0.982  0.3018 -0.4127  0.6723
 6778SOL     OW26425   4.879   5.548   5.215 -0.8028  0.0077  0.2264
 6778SOL    HW126426   4.908   5.580   5.131 -3.1488  0.7126 -0.4050
 6778SOL    HW226427   4.885   5.624   5.274  2.5120 -0.9077  1.2768
 6779SOL     OW26428   9.391   9.693   6.871  0.1056 -0.2747  0.5890
 6779SOL    HW126429   9.382   9.785   6.896 -0.0695 -0.3389  0.7685
 6779SOL    HW226430   9.484   9.673   6.882  0.2415  0.0264  0.0387
 6780SOL     OW26431   7.971   2.982   7.128 -0.2537 -0.0589 -0.2441
 6780SOL    HW126432   8.006   3.049   7.070  0.6327  0.0360  0.3857
 6780SOL    HW226433   7.879   3.007   7.141 -0.9945 -1.0122 -2.9355
 6781SOL     OW26434   0.243   8.554   5.942  0.2427 -0.0095 -0.4805
 6781SOL    HW126435   0.332   8.588   5.931  0.3431  0.0519  0.4629
 6781SOL    HW226436   0.254   8.459   5.946  0.2824  0.0058 -0.2209
 6782SOL     OW26437   1.037   8.726   3.098  0.2445  0.0623 -0.0467
 6782SOL    HW126438   1.077   8.732   3.184  1.1976 -1.5893 -0.3379
 6782SOL    HW226439   1.109   8.739   3.036 -0.2342  0.1694 -0.5989
 6783SOL     OW26440   8.725   9.336   2.987  0.4409 -0.2839  0.1454
 6783SOL    HW126441   8.814   9.371   2.994  0.5751 -0.9056  1.9784
 6783SOL    HW226442   8.727   9.281   2.909  1.4812  0.1790 -0.1800
 6784SOL     OW26443   9.785   8.871  10.782 -0.2124 -0.6836  0.4695
 6784SOL    HW126444   9.741   8.891  10.700  0.8085 -0.7718 -0.1259
 6784SOL    HW226445   9.737   8.920  10.849 -1.1743 -0.7784 -0.1503
 6785SOL     OW26446   8.828   5.581   5.960 -0.6173 -0.3276 -0.1393
 6785SOL    HW126447   8.857   5.636   5.887  1.5673  0.8261  1.4766
 6785SOL    HW226448   8.834   5.492   5.928  0.8516  0.1317 -1.2144
 6786SOL     OW26449   1.660   6.922   5.351 -0.0171  0.1272  0.3491
 6786SOL    HW126450   1.651   6.939   5.257  0.5777 -1.1819  0.0455
 6786SOL    HW226451   1.646   7.008   5.391 -1.3639  0.5217 -0.8506
 6787SOL     OW26452   6.561   1.795   7.364 -0.4257 -0.2578  0.3558
 6787SOL    HW126453   6.599   1.807   7.451  0.2917 -0.0196  0.0179
 6787SOL    HW226454   6.590   1.708   7.338  2.1678  0.8934 -0.9779
 6788SOL     OW26455   8.540   6.633   6.468  0.4941 -0.4695 -0.2212
 6788SOL    HW126456   8.449   6.662   6.456  1.1177  1.5096 -0.3877
 6788SOL    HW226457   8.551   6.626   6.563  0.0424 -1.2333 -0.2125
 6789SOL     OW26458   9.406   1.422  10.162  0.3722  0.3328 -0.3685
 6789SOL    HW126459   9.451   1.493  10.118 -0.5629  2.3107  1.6319
 6789SOL    HW226460   9.476   1.368  10.200  1.0832  0.5232 -1.3896
 6790SOL     OW26461   8.564   1.509  10.270  0.8942 -0.3182 -0.4088
 6790SOL    HW126462   8.495   1.458  10.226 -0.1435  0.7954 -0.1099
 6790SOL    HW226463   8.605   1.446  10.330  0.2391 -1.0385 -0.6899
 6791SOL     OW26464   4.607  10.052   6.752 -0.0019  0.4898 -0.5267
 6791SOL    HW126465   4.565  10.069   6.836 -1.5586 -0.5063 -1.0497
 6791SOL    HW226466   4.536  10.060   6.688  0.1204 -2.9719 -1.2925
 6792SOL     OW26467   7.412   1.154   3.956  0.4906  0.0457 -0.1508
 6792SOL    HW126468   7.404   1.221   4.024  0.3213  0.0258 -0.1522
 6792SOL    HW226469   7.423   1.203   3.875  1.3820  0.0704 -0.0250
 6793SOL     OW26470   5.706   0.297   3.810  0.8238 -0.3449  0.0845
 6793SOL    HW126471   5.777   0.237   3.832 -0.1533 -1.4451  0.3496
 6793SOL    HW226472   5.750   0.376   3.778  2.1531 -0.9731  0.2982
 6794SOL     OW26473   7.715   9.430   7.461  0.2998  0.0715 -0.7568
 6794SOL    HW126474   7.727   9.514   7.417 -1.4272 -0.1318 -1.7050
 6794SOL    HW226475   7.801   9.410   7.500  0.0700  3.6246  2.0518
 6795SOL     OW26476   2.197   1.388   4.400 -0.7059  0.1714  0.2328
 6795SOL    HW126477   2.151   1.317   4.356  0.3535 -0.0679 -0.5011
 6795SOL    HW226478   2.283   1.353   4.421 -0.2143  1.1786 -0.0085
 6796SOL     OW26479   4.420  10.652   0.108 -0.2050 -0.2928  0.2442
 6796SOL    HW126480   4.392  10.562   0.121 -2.2885 -0.0381 -1.8495
 6796SOL    HW226481   4.346  10.705   0.140 -0.6398  0.5224 -1.9340
 6797SOL     OW26482   3.403   4.290  10.627  0.0234 -0.0361 -0.6787
 6797SOL    HW126483   3.448   4.360  10.580 -1.1536  1.1120 -0.1453
 6797SOL    HW226484   3.311   4.299  10.604 -0.2804 -0.8413  0.1079
 6798SOL     OW26485   2.332   3.698   5.614 -0.0537 -0.4437  0.4925
 6798SOL    HW126486   2.409   3.653   5.648 -0.5477 -0.4457  1.6757
 6798SOL    HW226487   2.309   3.651   5.534  1.9445  0.3847 -0.6205
 6799SOL     OW26488   7.991   6.890   4.684  0.3885  0.1811 -0.3554
 6799SOL    HW126489   8.086   6.892   4.695  0.4562  0.3170 -0.9584
 6799SOL    HW226490   7.977   6.890   4.590 -0.2529  2.5109 -0.3273
 6800SOL     OW26491   7.013   5.452   6.112 -0.3841  0.1597  0.0805
 6800SOL    HW126492   6.929   5.497   6.117  0.7616  2.4566 -0.0170
 6800SOL    HW226493   7.077   5.516   6.145  1.4568 -1.1411 -0.7614
 6801SOL     OW26494   7.764   5.826  10.500  0.3361  0.2936  0.2458
 6801SOL    HW126495   7.701   5.760  10.474  0.3209  0.4236 -0.0568
 6801SOL    HW226496   7.847   5.797  10.461  0.2194  0.7257 -0.3361
 6802SOL     OW26497   2.359   6.310  10.472 -0.6310  0.0314 -0.0058
 6802SOL    HW126498   2.320   6.325  10.386 -0.1058 -2.0206 -0.6756
 6802SOL    HW226499   2.286   6.282  10.527 -0.7399 -0.1025 -0.2151
 6803SOL     OW26500   3.997   6.107   3.179 -0.1476 -0.1905  0.0740
 6803SOL    HW126501   3.906   6.105   3.150  0.3876  0.3094 -1.7977
 6803SOL    HW226502   4.007   6.027   3.230 -1.2087 -1.1579 -1.1395
 6804SOL     OW26503   1.877   0.650   4.177 -0.2407 -0.0847  0.5738
 6804SOL    HW126504   1.929   0.688   4.107 -0.9455  0.3265  0.2680
 6804SOL    HW226505   1.863   0.559   4.149 -0.9246  0.2080 -0.0581
 6805SOL     OW26506   0.523   6.676   5.564  0.5586 -0.0214  0.0133
 6805SOL    HW126507   0.499   6.590   5.530 -1.8795  0.2476  0.8602
 6805SOL    HW226508   0.471   6.686   5.643  0.3874  2.4164 -0.3133
 6806SOL     OW26509   8.733   6.585   8.441  0.0102  0.2115  0.2151
 6806SOL    HW126510   8.803   6.647   8.422  0.1634 -0.1309 -0.3438
 6806SOL    HW226511   8.653   6.629   8.413  0.0998  0.2276 -0.0143
 6807SOL     OW26512   9.802   8.689   1.736  0.0701 -0.0978  0.1640
 6807SOL    HW126513   9.772   8.635   1.663 -1.1545 -0.2002  0.7213
 6807SOL    HW226514   9.775   8.778   1.712  0.1563 -0.0527  0.2358
 6808SOL     OW26515   4.624   3.069   0.510  0.3900  0.0527 -0.7292
 6808SOL    HW126516   4.585   3.013   0.443 -1.3894  0.4980 -0.1158
 6808SOL    HW226517   4.694   3.015   0.547  0.5055 -0.7195 -1.9853
 6809SOL     OW26518   5.372   6.858   8.152 -0.0089 -0.3461 -0.6516
 6809SOL    HW126519   5.293   6.909   8.173 -1.0721 -2.6415  1.4555
 6809SOL    HW226520   5.339   6.787   8.096  0.9648 -0.2692 -1.3476
 6810SOL     OW26521   4.644   8.560   9.314  0.7953 -0.2230  0.9549
 6810SOL    HW126522   4.670   8.476   9.352  0.8146 -0.2854  0.8039
 6810SOL    HW226523   4.548   8.558   9.319  0.8221  0.2284  1.9900
 6811SOL     OW26524   4.637   2.329   8.468  0.0387  0.0104  0.3380
 6811SOL    HW126525   4.655   2.260   8.404 -0.9672  0.8053 -0.8347
 6811SOL    HW226526   4.576   2.289   8.530  1.6938 -1.0447  1.3539
 6812SOL     OW26527   7.606  10.049   4.377  0.1404  0.2482  0.0635
 6812SOL    HW126528   7.650  10.126   4.413  0.0684 -1.2933  3.9140
 6812SOL    HW226529   7.671   9.978   4.387 -1.0720 -0.8851  0.1411
 6813SOL     OW26530   6.320   5.730   4.716 -0.3421  0.0893 -0.1383
 6813SOL    HW126531   6.304   5.737   4.622 -2.2513  1.0475  0.2094
 6813SOL    HW226532   6.259   5.662   4.745  0.0576 -0.0228  0.4544
 6814SOL     OW26533   1.354   6.964   5.218 -0.0346 -0.2594  0.2660
 6814SOL    HW126534   1.371   7.047   5.175  0.5653 -0.2416  0.5294
 6814SOL    HW226535   1.297   6.916   5.157  0.7957 -0.2385 -0.5399
 6815SOL     OW26536   7.757   2.932   1.264 -0.2420  0.3255 -0.0044
 6815SOL    HW126537   7.796   2.851   1.298  1.3879  1.1445  0.1763
 6815SOL    HW226538   7.828   2.974   1.216 -1.2304  1.3892 -0.5771
 6816SOL     OW26539   1.872  10.070   5.627 -0.0436  0.3229 -0.1124
 6816SOL    HW126540   1.963  10.096   5.641  0.7920 -0.0057 -3.7559
 6816SOL    HW226541   1.879   9.986   5.581 -2.0899  0.8456 -1.5235
 6817SOL     OW26542   2.318   5.490   9.003  0.1290  0.1596  0.1695
 6817SOL    HW126543   2.254   5.465   8.937  1.7835  0.6122 -1.6863
 6817SOL    HW226544   2.354   5.406   9.034  0.1113 -0.0253 -0.3017
 6818SOL     OW26545   3.350   3.568   6.717 -0.2309 -0.1130 -0.2855
 6818SOL    HW126546   3.310   3.545   6.800  0.5236 -1.9754 -0.3895
 6818SOL    HW226547   3.413   3.636   6.738 -1.5145  0.9414  0.2921
 6819SOL     OW26548   8.390   2.845   5.422 -0.3997 -0.4810 -0.2515
 6819SOL    HW126549   8.449   2.916   5.396 -0.6220 -0.1759  0.0642
 6819SOL    HW226550   8.350   2.816   5.340  0.9108 -1.3590 -0.6077
 6820SOL     OW26551   6.771   0.183   2.101 -0.1124 -0.0372 -0.8408
 6820SOL    HW126552   6.706   0.139   2.155 -1.0168  1.6595 -0.4659
 6820SOL    HW226553   6.852   0.135   2.117 -1.1920 -2.0447 -1.1293
 6821SOL     OW26554   2.411   6.310  10.074 -0.0332  0.2173  0.3628
 6821SOL    HW126555   2.334   6.346  10.118 -0.0849  0.0974  0.3696
 6821SOL    HW226556   2.382   6.227  10.038 -0.5257  1.1368 -1.5222
 6822SOL     OW26557   7.966   9.182   6.479  0.8811 -0.2827 -0.0328
 6822SOL    HW126558   8.014   9.134   6.411  0.1793 -0.4586 -0.4271
 6822SOL    HW226559   7.885   9.209   6.435  0.7535  0.2533  0.5274
 6823SOL     OW26560   0.163   0.541   7.357 -0.0475 -0.3312 -0.0136
 6823SOL    HW126561   0.114   0.475   7.309 -3.0756 -0.6212  3.0846
 6823SOL    HW226562   0.241   0.496   7.389 -0.4007 -1.4488 -0.6922
 6824SOL     OW26563   2.296   2.582   2.812  0.0438  0.1736 -1.0164
 6824SOL    HW126564   2.313   2.671   2.778 -1.8447 -0.3391 -3.6112
 6824SOL    HW226565   2.274   2.596   2.904 -0.6194  2.4733 -1.4457
 6825SOL     OW26566   1.116   1.457   1.010 -0.4097 -0.1020 -0.1243
 6825SOL    HW126567   1.050   1.495   1.069  0.6660 -2.0906  2.5945
 6825SOL    HW226568   1.071   1.385   0.967 -0.5029 -0.2971  0.2982
 6826SOL     OW26569   2.597  10.722   0.513  0.7427  0.4291  0.3847
 6826SOL    HW126570   2.683  10.764   0.510  1.7074 -1.4270  0.1754
 6826SOL    HW226571   2.609  10.641   0.463 -1.3720  0.5142 -0.3224
 6827SOL     OW26572   5.702   7.714   0.324 -0.3885  0.0313  0.3302
 6827SOL    HW126573   5.625   7.665   0.296 -1.0954  0.6557  1.1289
 6827SOL    HW226574   5.737   7.664   0.397 -0.2820 -0.0363  0.2323
 6828SOL     OW26575   8.875   9.414   1.020  0.0315 -0.2993  0.2106
 6828SOL    HW126576   8.903   9.467   1.094  1.2011  0.0017 -0.4103
 6828SOL    HW226577   8.954   9.407   0.965 -0.0205 -2.8057  0.3470
 6829SOL     OW26578  10.429   9.444   1.050  0.1922  0.1369 -0.5840
 6829SOL    HW126579  10.415   9.354   1.021  1.7801 -1.1984  2.3070
 6829SOL    HW226580  10.343   9.486   1.041 -0.3877 -1.3556 -2.8055
 6830SOL     OW26581   3.770   1.263   3.569 -0.5429  0.1334 -0.1418
 6830SOL    HW126582   3.822   1.199   3.618 -2.4988 -1.2473  0.2541
 6830SOL    HW226583   3.737   1.324   3.636 -1.7036 -0.6729  0.0592
 6831SOL     OW26584  10.855   8.879   5.013 -0.3555 -0.1365 -0.2814
 6831SOL    HW126585  10.813   8.920   4.937 -1.3287  1.4836  1.0617
 6831SOL    HW226586  10.870   8.951   5.074 -0.2904 -1.4942  1.3866
 6832SOL     OW26587   6.793   0.751   2.131 -0.0136 -0.1071 -0.2739
 6832SOL    HW126588   6.805   0.657   2.122 -2.2349 -0.4668 -0.0526
 6832SOL    HW226589   6.781   0.765   2.225 -0.1786  0.3439 -0.3592
 6833SOL     OW26590   2.371   2.267   2.087 -0.5641 -0.1503 -0.0260
 6833SOL    HW126591   2.321   2.243   2.165 -0.6905  0.0901 -0.0322
 6833SOL    HW226592   2.306   2.308   2.029 -0.8090 -1.6670 -0.8871
 6834SOL     OW26593  10.282  10.465   3.309 -0.0633 -0.6371 -0.2658
 6834SOL    HW126594  10.375  10.487   3.301 -0.1246 -0.2323  0.1077
 6834SOL    HW226595  10.237  10.536   3.262 -0.2231 -0.3633  0.2878
 6835SOL     OW26596   3.941   3.607   4.138 -0.1069  0.0807  0.3774
 6835SOL    HW126597   3.957   3.613   4.044  1.6664 -1.0226  0.5720
 6835SOL    HW226598   3.964   3.694   4.172  0.4419  0.1042 -0.0505
 6836SOL     OW26599   4.875   4.725   1.013 -0.5189  0.4786  0.0819
 6836SOL    HW126600   4.970   4.730   1.005 -0.4698 -0.9149 -0.3651
 6836SOL    HW226601   4.860   4.678   1.095 -0.7830 -0.5669 -0.5489
 6837SOL     OW26602   1.637   6.972   8.521 -0.3689 -0.5066 -0.2810
 6837SOL    HW126603   1.682   6.946   8.441 -0.3311  0.6175 -0.6460
 6837SOL    HW226604   1.564   6.911   8.529 -1.3387  0.3661 -2.0800
 6838SOL     OW26605   3.234   2.163   1.239  0.2156  0.3804 -0.0488
 6838SOL    HW126606   3.281   2.102   1.182  0.4027 -0.3607  0.8875
 6838SOL    HW226607   3.193   2.224   1.178 -0.1039 -0.7559 -1.0148
 6839SOL     OW26608   1.508   9.481   6.659 -0.3035 -0.1514 -0.3994
 6839SOL    HW126609   1.552   9.510   6.739 -0.4264  0.8752 -0.6919
 6839SOL    HW226610   1.459   9.403   6.685  0.1479 -0.1795  0.3794
 6840SOL     OW26611   2.725   4.388   5.093  0.0351  0.4573  0.2027
 6840SOL    HW126612   2.732   4.327   5.020  2.9082  0.4806  0.3367
 6840SOL    HW226613   2.712   4.473   5.051  0.5643  0.3263 -0.2416
 6841SOL     OW26614   4.222   9.055   1.635 -0.4452  0.6710  0.2698
 6841SOL    HW126615   4.244   8.973   1.680 -1.3053  0.0672 -0.3931
 6841SOL    HW226616   4.277   9.121   1.678  1.2529 -0.4623 -0.0536
 6842SOL     OW26617   2.328   4.035  10.099 -0.2356 -0.0547 -0.0760
 6842SOL    HW126618   2.249   4.007  10.055 -0.0718 -0.5683 -0.0481
 6842SOL    HW226619   2.394   3.970  10.075  0.1921  0.3888 -0.1362
 6843SOL     OW26620   2.010   6.691   6.634  0.1210 -0.0427 -0.3312
 6843SOL    HW126621   1.923   6.731   6.628 -0.9648 -1.5549  2.9151
 6843SOL    HW226622   2.039   6.685   6.543 -1.5558  3.7379 -1.3429
 6844SOL     OW26623   4.329   0.162   2.467  0.5808 -0.2389  0.1696
 6844SOL    HW126624   4.309   0.098   2.399  1.4268  0.5239 -0.8255
 6844SOL    HW226625   4.422   0.149   2.487  0.4085 -0.2791  1.0018
 6845SOL     OW26626   1.251   9.092   7.309  0.3908  0.3100  0.0738
 6845SOL    HW126627   1.279   9.100   7.218 -0.5621  0.3905 -0.2251
 6845SOL    HW226628   1.332   9.085   7.359  0.9294  0.5497 -0.7536
 6846SOL     OW26629  10.259   9.070   7.024  0.0192 -0.2299  0.0321
 6846SOL    HW126630  10.315   9.144   7.046  0.4104 -0.9454  1.6074
 6846SOL    HW226631  10.254   9.019   7.105 -2.1739 -0.6820 -0.3424
 6847SOL     OW26632   4.168   7.825   6.951 -0.1056  0.0934  0.5653
 6847SOL    HW126633   4.132   7.903   6.993 -1.7535  1.2343 -2.6566
 6847SOL    HW226634   4.228   7.860   6.885 -0.0827 -1.4259 -0.2488
 6848SOL     OW26635   5.974   5.921   4.054  0.0603  0.0726 -0.1626
 6848SOL    HW126636   5.885   5.887   4.041 -1.1613  2.7310  0.4458
 6848SOL    HW226637   5.965   5.979   4.130  2.9084 -1.3921  1.4436
 6849SOL     OW26638   8.789   2.356   3.970  0.2656 -0.9105  0.0964
 6849SOL    HW126639   8.823   2.410   4.042 -0.5227 -1.5569  0.9793
 6849SOL    HW226640   8.847   2.374   3.897 -0.4115  1.7688  0.0985
 6850SOL     OW26641   3.648   2.023   0.325  0.3104  0.2679  0.4327
 6850SOL    HW126642   3.592   2.098   0.345  0.7233  1.1032 -1.3339
 6850SOL    HW226643   3.715   2.058   0.266 -1.1612 -2.0125 -2.8755
 6851SOL     OW26644   6.909   5.462   5.084  0.9290  0.2779  1.0459
 6851SOL    HW126645   6.968   5.529   5.049  1.3989 -0.2313  0.8522
 6851SOL    HW226646   6.928   5.384   5.033 -0.4003  0.2725  0.5170
 6852SOL     OW26647   8.314   0.228   8.579  0.3164  0.0105 -0.0635
 6852SOL    HW126648   8.340   0.222   8.487  2.5600 -1.4736  0.5865
 6852SOL    HW226649   8.318   0.321   8.599  1.0429  0.2275 -1.1430
 6853SOL     OW26650   3.468   6.620   3.814  0.4527 -0.3316 -0.2982
 6853SOL    HW126651   3.549   6.569   3.820  0.5663 -0.1689 -0.4681
 6853SOL    HW226652   3.400   6.553   3.801  0.5925 -0.4486 -0.4407
 6854SOL     OW26653   5.723   1.958   5.796 -0.0926  0.2844  0.2165
 6854SOL    HW126654   5.744   2.043   5.758  0.9050  0.0429  0.1851
 6854SOL    HW226655   5.721   1.898   5.722  0.9374 -0.0220  0.4243
 6855SOL     OW26656   9.468   8.749   4.055 -0.2714 -0.0500  0.0179
 6855SOL    HW126657   9.485   8.716   3.967  0.3757  0.6090 -0.1123
 6855SOL    HW226658   9.420   8.678   4.098 -2.5855  0.4771 -1.5437
 6856SOL     OW26659   0.605   1.778   6.115 -0.4863  0.1407  0.0631
 6856SOL    HW126660   0.606   1.760   6.021  0.7472  0.9491 -0.0976
 6856SOL    HW226661   0.610   1.873   6.121  0.0319  0.0682  0.9449
 6857SOL     OW26662   0.247   7.987   0.525  0.0939  0.5804  0.2009
 6857SOL    HW126663   0.278   8.057   0.467  0.1212  0.5869  0.2236
 6857SOL    HW226664   0.238   7.911   0.468 -0.3001  0.7002  0.0964
 6858SOL     OW26665   3.569   8.003   1.219  0.6436 -0.2713 -0.6852
 6858SOL    HW126666   3.628   8.071   1.251  1.3333 -1.5116  0.8379
 6858SOL    HW226667   3.584   8.001   1.125  0.2812  1.9354 -0.8415
 6859SOL     OW26668   8.496  10.125   7.758  0.9349 -0.0959  0.3232
 6859SOL    HW126669   8.414  10.171   7.741  0.8642 -0.3874 -0.1494
 6859SOL    HW226670   8.538  10.175   7.828 -0.3953 -0.8885  1.7248
 6860SOL     OW26671  10.380   8.642   5.823  0.3456 -0.2091  0.1011
 6860SOL    HW126672  10.320   8.711   5.851  1.8382  0.9137  0.6564
 6860SOL    HW226673  10.342   8.562   5.859 -1.3037  0.3333 -0.3565
 6861SOL     OW26674   0.765  10.182  10.186  0.1503 -0.0956  0.0118
 6861SOL    HW126675   0.804  10.252  10.239 -0.2646  0.2990 -0.1946
 6861SOL    HW226676   0.678  10.215  10.163  0.1142 -0.4987 -0.4544
 6862SOL     OW26677   1.652   6.782   5.836 -0.7037  0.1860  0.0680
 6862SOL    HW126678   1.599   6.798   5.914  1.1407 -0.7303  1.6054
 6862SOL    HW226679   1.603   6.717   5.786 -0.3829 -1.8802  2.2559
 6863SOL     OW26680   5.483   5.434   9.678  0.6186  0.1980 -0.4612
 6863SOL    HW126681   5.482   5.492   9.754 -0.8811  2.1639 -1.8559
 6863SOL    HW226682   5.575   5.410   9.667  1.2377  1.9838  0.4604
 6864SOL     OW26683   4.606   6.552   8.859 -0.0253  0.7435  0.6682
 6864SOL    HW126684   4.696   6.548   8.825 -0.4346  0.6170 -0.4424
 6864SOL    HW226685   4.561   6.480   8.816 -0.3943  0.0704  2.1023
 6865SOL     OW26686   7.679   3.790   0.677 -0.2960  0.4445 -0.3346
 6865SOL    HW126687   7.594   3.758   0.706 -0.9791  1.1384 -1.4604
 6865SOL    HW226688   7.658   3.858   0.613  1.0859 -0.6846 -2.0980
 6866SOL     OW26689   3.084   3.096   8.906 -0.0651  0.1376  0.1817
 6866SOL    HW126690   3.043   3.019   8.867  0.7392 -0.6893  0.9291
 6866SOL    HW226691   3.178   3.079   8.901  0.2028  1.6998 -0.8990
 6867SOL     OW26692   1.451   1.587   7.383  0.0604 -0.3356  0.2086
 6867SOL    HW126693   1.443   1.680   7.360 -0.5182 -0.4420 -0.0211
 6867SOL    HW226694   1.467   1.588   7.478  0.5590  0.0190  0.1263
 6868SOL     OW26695  10.718   8.585  10.461  0.6631 -0.4902  0.3573
 6868SOL    HW126696  10.758   8.662  10.500 -1.9503  1.3474 -0.3360
 6868SOL    HW226697  10.666   8.547  10.532  0.9163 -0.8922  0.3356
 6869SOL     OW26698   9.600   8.928   9.884 -1.2160 -0.3370 -0.2391
 6869SOL    HW126699   9.524   8.972   9.924 -0.1237  1.3727  0.0937
 6869SOL    HW226700   9.608   8.969   9.798 -1.1289 -1.0621 -0.5739
 6870SOL     OW26701   0.073   4.941   9.956 -0.0168  0.5016 -0.7816
 6870SOL    HW126702   0.086   4.848   9.975  0.0175  0.2008 -2.1462
 6870SOL    HW226703   0.072   4.945   9.860 -0.6963  1.8205 -0.7315
 6871SOL     OW26704   8.775   4.616   6.654  0.1639  0.2570 -0.1328
 6871SOL    HW126705   8.685   4.590   6.636 -0.2586  1.9229 -0.5430
 6871SOL    HW226706   8.816   4.622   6.567  0.6674 -0.4092  0.0448
 6872SOL     OW26707   9.733   1.320   8.566  0.0324 -0.1386  1.1049
 6872SOL    HW126708   9.655   1.337   8.619 -0.0130  1.7894  0.4797
 6872SOL    HW226709   9.715   1.236   8.524 -0.6141 -0.9279  2.8492
 6873SOL     OW26710   1.204   4.070  10.511  0.3726 -0.4698 -0.2271
 6873SOL    HW126711   1.288   4.045  10.473  0.5560  0.9427 -0.7937
 6873SOL    HW226712   1.166   3.987  10.541  1.6947 -1.1993 -0.4927
 6874SOL     OW26713   9.615  10.156   8.995  0.6762  0.1348  0.3938
 6874SOL    HW126714   9.611  10.077   9.049  1.9240  0.1036  0.4703
 6874SOL    HW226715   9.542  10.147   8.934 -0.6656  0.0938  1.9391
 6875SOL     OW26716   8.262   4.992   6.579  0.2265  0.3212 -0.2140
 6875SOL    HW126717   8.260   4.897   6.565  1.2238  0.4126 -1.0663
 6875SOL    HW226718   8.339   5.006   6.633  0.2216  0.6696 -0.2968
 6876SOL     OW26719   1.738   8.879   5.098  0.1630 -0.3939 -0.5348
 6876SOL    HW126720   1.704   8.792   5.122  0.4113 -0.7555 -1.4503
 6876SOL    HW226721   1.661   8.934   5.092  0.0909 -0.2209  1.2646
 6877SOL     OW26722   9.102   3.167   9.715 -0.1089  0.1123  0.1969
 6877SOL    HW126723   9.109   3.217   9.634 -1.7767 -0.9476 -0.6503
 6877SOL    HW226724   9.023   3.200   9.757 -1.2550 -1.7599 -0.3877
 6878SOL     OW26725   2.570   9.269   5.595 -0.0076 -0.2469  0.3128
 6878SOL    HW126726   2.500   9.287   5.658 -1.6742  0.1195 -1.5331
 6878SOL    HW226727   2.621   9.350   5.592 -0.7281  0.2117  0.2272
 6879SOL     OW26728   6.282   1.026   5.960 -0.2420 -0.2516 -0.0360
 6879SOL    HW126729   6.214   0.960   5.950 -0.1354 -0.2092 -1.1154
 6879SOL    HW226730   6.305   1.023   6.053 -1.9633 -0.0033  0.4193
 6880SOL     OW26731   9.225   9.494   7.439 -0.2336  0.1095  0.0107
 6880SOL    HW126732   9.267   9.408   7.446  1.7073  1.0542  0.7401
 6880SOL    HW226733   9.286   9.547   7.388 -1.5352  1.0031 -0.6831
 6881SOL     OW26734   8.382   8.852   0.949 -1.1366  0.0242 -0.4498
 6881SOL    HW126735   8.453   8.856   1.014 -1.2212  1.1779 -0.3968
 6881SOL    HW226736   8.303   8.839   1.000 -1.1221  0.2036 -0.3818
 6882SOL     OW26737   6.625   0.988   9.596 -0.5761 -0.9196  0.1938
 6882SOL    HW126738   6.538   1.000   9.633 -1.5172  2.2924 -2.5423
 6882SOL    HW226739   6.685   1.028   9.659 -1.2383 -1.7141  1.3489
 6883SOL     OW26740   4.681   7.530   0.253 -0.3840  0.5583 -0.1449
 6883SOL    HW126741   4.734   7.610   0.251 -1.2231  1.1285 -2.3047
 6883SOL    HW226742   4.743   7.461   0.231 -0.3532  1.1681 -2.2415
 6884SOL     OW26743   0.990   9.615   1.687  0.3647  0.7263 -0.3138
 6884SOL    HW126744   1.020   9.564   1.762  1.4281  2.8604  0.7855
 6884SOL    HW226745   1.067   9.622   1.630 -0.1163  0.1039 -1.0591
 6885SOL     OW26746   7.135   7.109   1.483 -0.6995  0.4691 -0.3498
 6885SOL    HW126747   7.046   7.141   1.498 -1.4027 -1.5109 -0.0531
 6885SOL    HW226748   7.153   7.132   1.392 -1.3761  1.1828 -0.3191
 6886SOL     OW26749   7.379   2.983   7.808 -0.3400  0.6114  0.0923
 6886SOL    HW126750   7.335   3.065   7.787  2.4249  1.6425 -2.3452
 6886SOL    HW226751   7.388   2.984   7.903 -2.0570  2.1679  0.2897
 6887SOL     OW26752   2.697   0.710   6.293  0.4030 -0.2636 -0.2462
 6887SOL    HW126753   2.738   0.703   6.207  0.7091 -1.5685 -0.0124
 6887SOL    HW226754   2.768   0.734   6.352 -0.0794  2.2068 -0.5483
 6888SOL     OW26755   1.303   3.023   8.088  0.5840  0.2006  0.1179
 6888SOL    HW126756   1.371   3.044   8.024  1.6627  0.6802  1.3755
 6888SOL    HW226757   1.311   3.091   8.154  0.2986 -0.9307  1.3615
 6889SOL     OW26758  10.667   9.904   9.749  0.1200 -0.6845 -0.3698
 6889SOL    HW126759  10.572   9.904   9.754  0.0785 -0.5871 -1.0510
 6889SOL    HW226760  10.691   9.997   9.753  0.1728 -0.6996 -0.3448
 6890SOL     OW26761   0.489   0.394   3.376  0.4223 -0.1649  0.0682
 6890SOL    HW126762   0.494   0.389   3.471  1.9691 -0.6927 -0.0063
 6890SOL    HW226763   0.441   0.475   3.358 -2.4309 -1.4259  1.2727
 6891SOL     OW26764   5.076  10.353  10.072 -0.2694 -0.0174  0.7947
 6891SOL    HW126765   5.148  10.317  10.124  0.9054  2.3371  0.9496
 6891SOL    HW226766   5.105  10.345   9.981 -0.2624 -0.0261  0.7976
 6892SOL     OW26767   9.106   2.086   5.405 -0.3361 -0.3865 -0.2489
 6892SOL    HW126768   9.025   2.133   5.382 -0.2978 -0.6549 -0.9501
 6892SOL    HW226769   9.095   1.999   5.367 -0.6889 -1.1959  1.5966
 6893SOL     OW26770   2.424  10.382   2.716 -0.5577  0.0328 -0.0287
 6893SOL    HW126771   2.409  10.290   2.736  1.0306 -0.7469 -2.0340
 6893SOL    HW226772   2.519  10.390   2.714 -0.6712  1.4473 -0.9752
 6894SOL     OW26773   2.576   6.627   5.411  0.6965 -0.1501 -0.0057
 6894SOL    HW126774   2.594   6.590   5.497  0.1968 -0.2061  0.0758
 6894SOL    HW226775   2.515   6.699   5.427  0.4510 -0.2825 -0.3273
 6895SOL     OW26776   7.893   7.918   7.765  0.2815  0.3514  0.6975
 6895SOL    HW126777   7.982   7.919   7.728  0.2131  3.1229  0.3649
 6895SOL    HW226778   7.907   7.938   7.858  0.0101  1.3544  0.5346
 6896SOL     OW26779   9.057   5.516   7.445 -0.1968  0.1806 -0.5526
 6896SOL    HW126780   9.096   5.602   7.430  0.4578  0.1635  0.9127
 6896SOL    HW226781   9.002   5.528   7.522 -0.9848 -0.4633 -0.9930
 6897SOL     OW26782   1.484   9.816   3.977 -0.3053 -0.5382 -0.2242
 6897SOL    HW126783   1.456   9.822   3.886 -2.3354  0.3462  0.3840
 6897SOL    HW226784   1.426   9.750   4.015 -0.3526  0.0206  0.7048
 6898SOL     OW26785   5.934   8.448   4.373  0.4167 -0.0271 -0.1417
 6898SOL    HW126786   5.911   8.417   4.460 -3.4879 -0.8122 -1.2722
 6898SOL    HW226787   5.936   8.368   4.319  0.3297  0.6816 -1.2181
 6899SOL     OW26788  10.113   4.473   6.944 -0.0601 -0.6000 -0.5370
 6899SOL    HW126789  10.040   4.526   6.913  1.5347  2.1877  0.1879
 6899SOL    HW226790  10.158   4.445   6.865 -0.3772 -0.0688 -0.9056
 6900SOL     OW26791   6.619   9.107   2.834 -0.2207  0.0770  0.5992
 6900SOL    HW126792   6.538   9.100   2.884  0.2019  0.7893  1.4116
 6900SOL    HW226793   6.688   9.090   2.897  0.2429 -1.8289 -0.3574
 6901SOL     OW26794   4.201   6.824   9.964  0.1213  0.1998 -0.1424
 6901SOL    HW126795   4.190   6.918   9.976 -0.5549  0.1022  0.1082
 6901SOL    HW226796   4.131   6.799   9.903  2.0350  0.2929 -2.5182
 6902SOL     OW26797   1.641   3.316   5.211 -0.3342 -0.1149 -0.1908
 6902SOL    HW126798   1.676   3.258   5.144 -0.5638 -0.0644 -0.3558
 6902SOL    HW226799   1.566   3.359   5.169 -0.7641 -0.4272  0.2420
 6903SOL     OW26800   0.913   0.616   5.761 -0.0019 -0.6007 -0.0197
 6903SOL    HW126801   0.819   0.604   5.747  0.1085 -2.1239  0.2678
 6903SOL    HW226802   0.920   0.638   5.854 -0.0792 -0.4236 -0.0556
 6904SOL     OW26803   4.574   7.993   0.205  0.1571 -0.0307  0.5817
 6904SOL    HW126804   4.612   7.916   0.162  0.1276  0.4771 -0.3906
 6904SOL    HW226805   4.586   7.977   0.298 -0.2571 -1.4178  0.4154
 6905SOL     OW26806  10.354   0.482  10.344 -0.2336 -0.1919 -0.6027
 6905SOL    HW126807  10.428   0.510  10.397 -0.8358  0.4565 -0.0944
 6905SOL    HW226808  10.392   0.424  10.278  0.7645  0.3677 -0.5266
 6906SOL     OW26809   7.067   6.815   9.686  0.6913 -0.4694 -0.0504
 6906SOL    HW126810   7.161   6.822   9.672  0.7078 -2.3280 -1.1491
 6906SOL    HW226811   7.039   6.905   9.707  2.3496  0.5356 -1.8815
 6907SOL     OW26812   4.702  10.830   0.474  0.9050 -0.5717 -0.7160
 6907SOL    HW126813   4.705  10.799   0.565  0.8691 -0.9417 -0.8382
 6907SOL    HW226814   4.703  10.750   0.422 -0.5083 -0.4152 -1.0233
 6908SOL     OW26815   0.742   9.974   7.464  0.0552  0.5082 -0.3141
 6908SOL    HW126816   0.681   9.961   7.391 -0.6860 -0.3616  0.4312
 6908SOL    HW226817   0.790   9.891   7.470  0.7012  0.8729 -0.3291
 6909SOL     OW26818   1.805   2.137   4.925  0.0782 -0.0220  0.3912
 6909SOL    HW126819   1.879   2.139   4.864  1.5793 -0.1939  2.1146
 6909SOL    HW226820   1.773   2.227   4.927 -0.2723 -0.1096 -0.9655
 6910SOL     OW26821   7.913   7.057   7.019 -0.3867 -0.3359 -0.2719
 6910SOL    HW126822   7.891   7.024   6.932  0.0789  0.3765 -0.6704
 6910SOL    HW226823   7.951   7.143   7.003 -0.9658  0.1148  0.6933
 6911SOL     OW26824   7.698   3.832   5.230  0.3296  0.2097 -0.0561
 6911SOL    HW126825   7.603   3.825   5.231  0.4833 -2.9515  1.1834
 6911SOL    HW226826   7.716   3.900   5.164 -2.7299  0.8916 -0.3251
 6912SOL     OW26827   6.632   6.031   4.778 -0.1473  0.3259 -0.0513
 6912SOL    HW126828   6.601   5.940   4.773  0.4732  0.1180 -0.2549
 6912SOL    HW226829   6.722   6.027   4.745  0.4010  0.7677  1.3175
 6913SOL     OW26830   0.171   9.349   7.039 -0.4203  0.3588 -0.1058
 6913SOL    HW126831   0.156   9.297   7.117 -1.2180  0.1281 -0.3980
 6913SOL    HW226832   0.097   9.327   6.981 -1.3404  2.5543  0.1542
 6914SOL     OW26833   2.806   1.588  10.698  0.4464 -0.0862 -0.2400
 6914SOL    HW126834   2.738   1.543  10.649 -0.2030  0.7462 -0.1375
 6914SOL    HW226835   2.761   1.662  10.739  0.8185 -1.0443  2.0950
 6915SOL     OW26836   9.252  10.036   1.447  0.1455 -0.1824 -0.6168
 6915SOL    HW126837   9.186  10.105   1.460  0.7624  0.1915  0.6813
 6915SOL    HW226838   9.332  10.072   1.485  0.5060 -1.5896  0.0071
 6916SOL     OW26839   4.300   8.515   0.243  0.2096 -0.1310 -0.1977
 6916SOL    HW126840   4.359   8.534   0.316 -0.6115 -0.3794  0.5327
 6916SOL    HW226841   4.215   8.499   0.283 -0.1224 -0.8837 -1.1601
 6917SOL     OW26842   5.347   1.565   2.102  0.2264  0.4388  0.2736
 6917SOL    HW126843   5.288   1.501   2.142 -0.6908  1.2382  0.2387
 6917SOL    HW226844   5.380   1.521   2.024 -0.9924  0.2768 -0.1707
 6918SOL     OW26845   5.345   6.257   4.737  0.4194 -0.4234  0.2409
 6918SOL    HW126846   5.333   6.226   4.827  0.7502 -0.2145  0.3566
 6918SOL    HW226847   5.436   6.285   4.733  0.5509 -0.9060 -0.3060
 6919SOL     OW26848   3.469   5.003   2.821 -0.0856  0.4926  0.3120
 6919SOL    HW126849   3.417   4.936   2.777  0.9769 -0.2686  0.1663
 6919SOL    HW226850   3.536   4.953   2.868  1.2435  1.4859 -0.4669
 6920SOL     OW26851   5.078   2.908   8.640 -0.5419 -0.8035 -0.4509
 6920SOL    HW126852   5.012   2.973   8.663  0.3490 -0.2135  0.5195
 6920SOL    HW226853   5.157   2.959   8.623 -0.3102 -1.4964 -1.5908
 6921SOL     OW26854   7.899   9.485   1.423  0.1345  0.4160  0.2360
 6921SOL    HW126855   7.846   9.564   1.426 -0.4866  0.0609 -1.0117
 6921SOL    HW226856   7.963   9.501   1.354 -0.9363 -0.7206 -1.0647
 6922SOL     OW26857   0.410   1.220   3.888  0.2722 -0.1031  0.0228
 6922SOL    HW126858   0.433   1.167   3.964  0.4848 -0.1217 -0.0535
 6922SOL    HW226859   0.372   1.300   3.924 -0.1332 -0.3424  0.1378
 6923SOL     OW26860   3.183   6.800   8.535  0.1948  0.5134  0.0514
 6923SOL    HW126861   3.216   6.760   8.615  0.6959  1.9872  0.6160
 6923SOL    HW226862   3.088   6.797   8.544  0.2238 -0.2988  0.1861
 6924SOL     OW26863   6.445   9.705   3.202 -0.3014  0.0642 -0.1253
 6924SOL    HW126864   6.499   9.630   3.230 -0.2466 -0.2062 -0.9274
 6924SOL    HW226865   6.355   9.673   3.207 -0.4386  0.6467  1.6103
 6925SOL     OW26866   2.852   5.752   5.969  0.0195  0.3335  0.0577
 6925SOL    HW126867   2.939   5.725   5.940  0.0769  1.5440 -1.0040
 6925SOL    HW226868   2.815   5.798   5.894 -0.9231  1.2087  1.0160
 6926SOL     OW26869   5.420   5.339   2.843  0.6374 -0.2211 -0.1420
 6926SOL    HW126870   5.349   5.379   2.892  1.6166  0.6700  0.6008
 6926SOL    HW226871   5.449   5.407   2.783  0.9543 -0.5266 -0.3404
 6927SOL     OW26872   1.397   3.550   1.378  0.2978  0.0321  0.4329
 6927SOL    HW126873   1.321   3.591   1.420  0.1885  0.4560 -0.1688
 6927SOL    HW226874   1.381   3.560   1.284  0.2241 -1.4866  0.2622
 6928SOL     OW26875   2.151   5.732   0.713 -0.5525 -0.8014  0.1132
 6928SOL    HW126876   2.194   5.646   0.708 -1.1312 -1.1411  0.8911
 6928SOL    HW226877   2.096   5.727   0.790 -0.7841  0.1954  0.0228
 6929SOL     OW26878   5.513   6.629  10.060  0.5803 -0.2850  0.0407
 6929SOL    HW126879   5.436   6.675  10.026  0.2563  1.5320  2.8801
 6929SOL    HW226880   5.560   6.599   9.982 -1.2183  1.5724 -1.8734
 6930SOL     OW26881   9.064   4.659   2.774 -0.1662 -0.3050  0.3294
 6930SOL    HW126882   9.049   4.748   2.807  2.1048  0.3931 -0.2866
 6930SOL    HW226883   9.024   4.659   2.687  0.5718  0.4369 -0.0271
 6931SOL     OW26884   6.300   4.249   0.702 -0.0199 -0.3884 -0.4676
 6931SOL    HW126885   6.363   4.320   0.717  0.9305 -0.9384 -1.6596
 6931SOL    HW226886   6.315   4.189   0.774 -0.0556  0.0856 -0.0568
 6932SOL     OW26887   9.106  10.679   8.550  0.3694 -0.2049  0.4319
 6932SOL    HW126888   9.129  10.653   8.639  1.5467 -0.9800 -0.0795
 6932SOL    HW226889   9.152  10.761   8.536  2.1858 -1.2966 -0.2737
 6933SOL     OW26890   8.978  10.101  10.149  0.2257 -0.4522 -0.1286
 6933SOL    HW126891   9.071  10.108  10.172  0.3952  1.0534 -1.1200
 6933SOL    HW226892   8.965  10.170  10.084 -1.5470 -0.7926 -0.1655
 6934SOL     OW26893   0.209   1.988  10.917  0.0924 -0.0641 -0.1274
 6934SOL    HW126894   0.232   2.005  10.826  1.1258  0.6020  0.2315
 6934SOL    HW226895   0.129   2.037  10.932  0.9469  1.4107 -0.1835
 6935SOL     OW26896   3.082  10.532   9.789 -0.3430 -0.0408 -0.3253
 6935SOL    HW126897   3.027  10.555   9.864 -0.8859 -1.5754 -0.2090
 6935SOL    HW226898   3.020  10.524   9.716  0.0615  0.5591 -0.7451
 6936SOL     OW26899   0.164   4.065   8.240 -0.3859  0.0943 -0.4937
 6936SOL    HW126900   0.113   4.000   8.288 -0.7704  1.1473  0.5912
 6936SOL    HW226901   0.238   4.085   8.297 -0.9663  1.5228 -0.1857
 6937SOL     OW26902  10.095   4.675   6.199 -0.3299 -0.1598 -0.0785
 6937SOL    HW126903  10.078   4.600   6.256  1.1660 -0.2042  0.3645
 6937SOL    HW226904  10.170   4.647   6.146  0.7136  1.2403  0.5910
 6938SOL     OW26905   4.561   9.644   1.303 -0.0041  0.1280 -0.0704
 6938SOL    HW126906   4.653   9.622   1.286 -0.1767  0.1326 -1.1093
 6938SOL    HW226907   4.532   9.685   1.222 -0.9452  0.0629  0.2298
 6939SOL     OW26908   4.243   2.798   4.236 -0.4075 -0.3940  0.1661
 6939SOL    HW126909   4.180   2.807   4.308 -1.0882 -2.5342 -0.0925
 6939SOL    HW226910   4.325   2.831   4.272 -1.1976  0.5245  1.2138
 6940SOL     OW26911   2.787  10.760   9.011  0.3407 -0.1495 -0.0659
 6940SOL    HW126912   2.738  10.842   9.013 -2.2787 -1.6068  0.5379
 6940SOL    HW226913   2.748  10.707   9.080  3.4733 -1.1638  1.1157
 6941SOL     OW26914   4.982   4.903   2.197  0.1676 -0.1859  0.4590
 6941SOL    HW126915   4.898   4.863   2.176  0.5881 -0.4918 -0.7381
 6941SOL    HW226916   4.963   4.997   2.205 -0.0835 -0.0669 -1.1421
 6942SOL     OW26917  10.510   7.380  10.758 -0.0400  0.0052  0.3205
 6942SOL    HW126918  10.556   7.329  10.825  0.2769 -0.5170 -0.2819
 6942SOL    HW226919  10.489   7.462  10.801  0.8573 -0.0125  0.8249
 6943SOL     OW26920   3.965   8.529   3.899 -0.1152  0.4236  0.2878
 6943SOL    HW126921   4.006   8.459   3.848 -1.2568  0.6405 -0.9719
 6943SOL    HW226922   4.007   8.609   3.868 -0.3006  0.4906  0.2117
 6944SOL     OW26923   4.831   7.721   1.605 -0.0246 -0.4188  0.2612
 6944SOL    HW126924   4.849   7.742   1.696  1.3696 -0.4911  0.0263
 6944SOL    HW226925   4.894   7.652   1.583 -0.8445 -0.9448 -0.5496
 6945SOL     OW26926   0.126   7.037   8.006  0.3704  0.0367  0.0797
 6945SOL    HW126927   0.158   6.947   8.021 -0.2842 -0.5502 -1.8002
 6945SOL    HW226928   0.134   7.079   8.092 -1.3280 -2.4413  1.5952
 6946SOL     OW26929   7.224  10.038  10.040 -0.5504 -0.2664  0.3719
 6946SOL    HW126930   7.276  10.115  10.023 -0.7730 -0.2339 -0.1849
 6946SOL    HW226931   7.204  10.002   9.953 -1.8536 -0.0017  0.5327
 6947SOL     OW26932   6.445   9.109   8.545  0.2628 -0.0675  0.1305
 6947SOL    HW126933   6.403   9.193   8.527 -0.6199 -0.3467  0.8085
 6947SOL    HW226934   6.509   9.098   8.475 -0.5325  0.5542 -0.7039
 6948SOL     OW26935   9.717   1.612  10.109  0.9584  0.3538  0.5051
 6948SOL    HW126936   9.670   1.632  10.190  1.1842  1.2893  0.4206
 6948SOL    HW226937   9.805   1.588  10.138  1.1721  1.1318  0.5218
 6949SOL     OW26938   4.285   2.550   7.317 -0.3627 -0.2478  0.1094
 6949SOL    HW126939   4.238   2.512   7.391 -1.5000  0.4677 -0.2155
 6949SOL    HW226940   4.237   2.519   7.240 -0.4152  0.6267 -0.2238
 6950SOL     OW26941  10.534   9.406   8.714 -0.0687  0.4294 -0.6333
 6950SOL    HW126942  10.563   9.493   8.741 -1.5829  1.9921 -3.6342
 6950SOL    HW226943  10.452   9.392   8.762  0.7211  0.0843  0.6901
 6951SOL     OW26944   3.631   4.734   5.635  0.1505 -0.1013 -0.6990
 6951SOL    HW126945   3.559   4.752   5.695 -0.1699 -0.0796 -1.0837
 6951SOL    HW226946   3.655   4.820   5.599 -0.8402 -0.3028 -1.9255
 6952SOL     OW26947   0.980   0.669   8.669 -0.4151 -0.6741 -0.2415
 6952SOL    HW126948   0.909   0.696   8.728  0.6626 -0.4031  0.9853
 6952SOL    HW226949   1.060   0.682   8.721  0.5404 -0.8805 -1.6216
 6953SOL     OW26950   8.707   9.264  10.256 -0.4298 -0.4262  0.1375
 6953SOL    HW126951   8.796   9.275  10.223 -0.9090  1.2219 -0.6988
 6953SOL    HW226952   8.718   9.252  10.350  0.5928  2.2109  0.4312
 6954SOL     OW26953   8.870   1.942   7.943  0.3687 -0.2880 -0.5531
 6954SOL    HW126954   8.818   1.867   7.914  1.0150 -0.1600 -2.1380
 6954SOL    HW226955   8.887   1.992   7.863  0.9454  0.9268  0.2953
 6955SOL     OW26956   3.925   2.686   9.384 -0.0540 -0.4251 -0.2454
 6955SOL    HW126957   3.904   2.628   9.457  2.0498 -0.9549  0.0014
 6955SOL    HW226958   4.016   2.711   9.399 -0.4398  1.7437 -1.1818
 6956SOL     OW26959   4.838   6.101   2.900  0.3010 -1.1541 -0.2415
 6956SOL    HW126960   4.786   6.181   2.909  2.4474  0.2053  0.8454
 6956SOL    HW226961   4.778   6.031   2.926 -0.7190  0.4354  2.0979
 6957SOL     OW26962   6.744   8.269   8.223  0.5186 -0.2670 -0.2599
 6957SOL    HW126963   6.690   8.320   8.283  0.1694 -0.4100 -0.4534
 6957SOL    HW226964   6.685   8.205   8.185  1.4910 -2.6890  2.0418
 6958SOL     OW26965   7.304   5.942   5.810 -0.1256 -0.4758 -0.1315
 6958SOL    HW126966   7.225   5.976   5.851 -1.5066 -1.3011 -1.9650
 6958SOL    HW226967   7.296   5.847   5.819  0.1099 -0.6132 -1.3023
 6959SOL     OW26968  10.813  10.214   1.774 -0.0789 -0.8745 -0.3723
 6959SOL    HW126969  10.771  10.186   1.693  0.3274 -0.1461 -0.8438
 6959SOL    HW226970  10.753  10.186   1.843 -2.0003  1.2161 -1.0623
 6960SOL     OW26971   6.199   1.463   9.827  0.2193  0.2835  0.4816
 6960SOL    HW126972   6.204   1.462   9.731 -2.5054  1.3714  0.2543
 6960SOL    HW226973   6.110   1.436   9.847  0.5109  0.7992  2.6915
 6961SOL     OW26974   9.907   5.053   9.013 -0.6419 -0.4463  0.2385
 6961SOL    HW126975   9.952   5.028   9.094 -0.7580 -2.3896 -0.2305
 6961SOL    HW226976   9.825   5.092   9.042 -0.7131 -1.1744  1.0811
 6962SOL     OW26977   9.150   0.516   9.790  0.2692  0.3639  0.5289
 6962SOL    HW126978   9.063   0.536   9.824  0.0971 -1.4804  1.2999
 6962SOL    HW226979   9.210   0.531   9.863  0.5606  1.1878  0.1358
 6963SOL     OW26980   7.377   5.102   4.692  0.3167 -0.5470  0.0847
 6963SOL    HW126981   7.317   5.168   4.728  0.5087 -0.5412  0.3888
 6963SOL    HW226982   7.331   5.019   4.704  0.4370 -0.5587  0.4555
 6964SOL     OW26983   5.220   7.521  10.222  0.3413  0.3187  0.5247
 6964SOL    HW126984   5.301   7.570  10.207  0.9377 -0.5732  0.7457
 6964SOL    HW226985   5.164   7.544  10.148  1.4162 -0.3042 -0.5268
 6965SOL     OW26986   9.919   3.452   8.214 -0.3150 -0.0008 -0.3314
 6965SOL    HW126987   9.946   3.438   8.123  0.8686  0.5887 -0.0837
 6965SOL    HW226988   9.857   3.381   8.231 -0.9820  0.1941 -1.7642
 6966SOL     OW26989  10.320   5.923  10.653 -0.2127  0.3454  0.1553
 6966SOL    HW126990  10.382   5.965  10.713  1.5488 -0.8376 -0.7425
 6966SOL    HW226991  10.366   5.920  10.569 -1.5381 -0.4879 -0.5729
 6967SOL     OW26992   3.436   0.610   7.971  0.2185 -0.4784  0.4004
 6967SOL    HW126993   3.423   0.608   7.876  1.9352  0.4620  0.0884
 6967SOL    HW226994   3.359   0.655   8.005  0.6066  1.2525 -0.8323
 6968SOL     OW26995  10.654   5.622   6.106  0.7892 -0.1452 -0.2291
 6968SOL    HW126996  10.710   5.699   6.105  0.5715  0.0122 -0.4602
 6968SOL    HW226997  10.652   5.595   6.198  0.8941  0.1047 -0.1529
 6969SOL     OW26998   5.260   5.716   7.311 -0.1380  0.0042  0.9340
 6969SOL    HW126999   5.228   5.629   7.286 -2.0796  0.6424  0.9836
 6969SOL    HW227000   5.289   5.756   7.229 -0.3465 -0.2781  0.7214
 6970SOL     OW27001   3.725   7.927   3.134 -0.6950 -0.2072 -0.1286
 6970SOL    HW127002   3.756   7.926   3.044  0.0485  1.7802  0.0436
 6970SOL    HW227003   3.803   7.906   3.186 -0.5737  0.7938  0.1211
 6971SOL     OW27004   0.136  10.372  10.316 -0.1646  0.1890  0.2265
 6971SOL    HW127005   0.176  10.293  10.282  0.5559  0.7009 -0.1494
 6971SOL    HW227006   0.196  10.442  10.290  1.0030  0.5237  3.4169
 6972SOL     OW27007  10.694   6.076   5.116  0.0586 -0.8790 -0.1476
 6972SOL    HW127008  10.673   5.993   5.159 -0.8710  0.1207  1.4565
 6972SOL    HW227009  10.638   6.078   5.039 -0.9467 -1.1548  0.5465
 6973SOL     OW27010   7.796   7.631   3.503 -0.6377  0.4602 -0.0259
 6973SOL    HW127011   7.854   7.563   3.469 -1.1038  0.5977 -1.1308
 6973SOL    HW227012   7.733   7.583   3.557  0.1507  0.2506  0.7531
 6974SOL     OW27013   1.552   2.635   8.367 -0.0927 -0.3508  0.1950
 6974SOL    HW127014   1.468   2.680   8.364  0.5855  1.1724  1.7575
 6974SOL    HW227015   1.531   2.542   8.359 -2.0065 -0.0515  1.2152
 6975SOL     OW27016   8.134   7.874   5.620  0.3901 -0.3689 -0.0794
 6975SOL    HW127017   8.136   7.838   5.531 -2.0602  0.4134 -0.5292
 6975SOL    HW227018   8.224   7.905   5.635  1.1123 -1.4040 -1.8642
 6976SOL     OW27019  10.524   3.605   8.151 -0.5434  0.0083  0.0937
 6976SOL    HW127020  10.524   3.700   8.153 -0.9685 -0.0039  1.3253
 6976SOL    HW227021  10.580   3.579   8.224 -0.9646 -0.6872  0.1781
 6977SOL     OW27022   2.048   9.812   6.579 -0.1607  0.3668 -0.6974
 6977SOL    HW127023   2.113   9.882   6.586  0.1621  0.2795 -2.3982
 6977SOL    HW227024   2.008   9.825   6.493 -2.3571  0.3577  0.2525
 6978SOL     OW27025   9.239   4.609   9.840  0.1315  0.3947  0.2384
 6978SOL    HW127026   9.316   4.637   9.890 -0.4511  0.1309  1.2998
 6978SOL    HW227027   9.185   4.561   9.902 -1.4578  1.5592 -0.1722
 6979SOL     OW27028   4.428   4.850   2.882 -0.7381  0.6438 -0.0578
 6979SOL    HW127029   4.343   4.824   2.917 -0.9002 -0.4642 -1.2090
 6979SOL    HW227030   4.490   4.787   2.920 -0.8051 -0.0738 -1.0929
 6980SOL     OW27031   4.617   2.076   4.268  0.4810 -0.1711 -0.3446
 6980SOL    HW127032   4.526   2.106   4.259  0.7436  0.3343 -1.5087
 6980SOL    HW227033   4.638   2.091   4.360  0.2463  2.3172 -0.6302
 6981SOL     OW27034   1.783   8.872   4.735 -0.0628 -0.0743  0.0454
 6981SOL    HW127035   1.752   8.895   4.823 -0.3393  1.2784 -0.3824
 6981SOL    HW227036   1.828   8.951   4.705 -1.5197  0.1180 -1.7288
 6982SOL     OW27037   1.900   2.383   4.605  0.4262  0.1215  0.3078
 6982SOL    HW127038   1.861   2.372   4.692  1.5620  0.9608  0.9368
 6982SOL    HW227039   1.969   2.448   4.617  1.0619 -0.2614 -1.0824
 6983SOL     OW27040   2.759   4.937   8.548 -0.1803  0.5437  0.2450
 6983SOL    HW127041   2.687   4.998   8.531 -1.3182 -1.0205 -0.8834
 6983SOL    HW227042   2.776   4.895   8.464 -0.7893 -2.0575  1.3057
 6984SOL     OW27043   4.888   3.414   9.528  0.5551  0.3179 -0.7591
 6984SOL    HW127044   4.874   3.497   9.574 -0.4718 -0.0549 -0.3516
 6984SOL    HW227045   4.870   3.347   9.594 -0.8432 -0.2286 -1.6347
 6985SOL     OW27046   8.256   8.288   6.495 -0.0254  0.0656 -0.4888
 6985SOL    HW127047   8.240   8.374   6.455 -0.7112  1.0590  1.7615
 6985SOL    HW227048   8.285   8.308   6.584  3.1062 -1.9930 -0.8932
 6986SOL     OW27049   6.731   9.941   0.789  0.1750  0.0252 -0.1444
 6986SOL    HW127050   6.650   9.900   0.819  0.1604 -0.0452 -0.2773
 6986SOL    HW227051   6.799   9.876   0.807  0.4781  0.7793  1.6070
 6987SOL     OW27052   8.043   5.140   4.873 -0.3501 -0.0431  0.2557
 6987SOL    HW127053   8.108   5.210   4.874 -0.5195  0.1305 -0.1892
 6987SOL    HW227054   8.066   5.083   4.946  0.5018 -0.1710 -0.0957
 6988SOL     OW27055  10.593   3.354   8.658  0.1126 -0.1626  0.5328
 6988SOL    HW127056  10.688   3.356   8.667  0.2448 -1.2497 -0.4014
 6988SOL    HW227057  10.574   3.270   8.616 -1.0283  1.1910 -1.8618
 6989SOL     OW27058   3.887   9.063   8.704 -0.3750 -0.0884 -0.2105
 6989SOL    HW127059   3.916   9.036   8.617  1.6465  0.5177  0.2208
 6989SOL    HW227060   3.966   9.064   8.757 -1.5665 -0.5828  1.7132
 6990SOL     OW27061   6.195   5.667   1.364  0.0909  0.4714  0.7556
 6990SOL    HW127062   6.128   5.736   1.367  0.3703  0.7987 -0.1552
 6990SOL    HW227063   6.153   5.591   1.404 -0.2501  1.1346  1.7035
 6991SOL     OW27064   7.139   8.814   3.507 -0.0390  0.3637 -0.4023
 6991SOL    HW127065   7.231   8.813   3.534  0.1754 -0.6975 -1.1152
 6991SOL    HW227066   7.093   8.768   3.577 -0.0085  0.7670 -0.1150
 6992SOL     OW27067   0.312  10.020   1.963 -0.5343 -0.1483 -0.1917
 6992SOL    HW127068   0.261  10.086   1.915 -0.0963  1.6415  1.6480
 6992SOL    HW227069   0.385   9.999   1.905 -0.1135  1.8306 -0.4564
 6993SOL     OW27070   0.298   8.012   4.958 -0.4022 -0.1512  0.4524
 6993SOL    HW127071   0.305   8.072   4.884  2.1625 -0.3302  0.4601
 6993SOL    HW227072   0.244   7.941   4.925  0.6889 -0.2461 -1.3195
 6994SOL     OW27073   7.430   3.514   3.732 -0.2983  0.1875 -0.3573
 6994SOL    HW127074   7.514   3.506   3.686  0.0224 -0.0864  0.2625
 6994SOL    HW227075   7.418   3.429   3.774 -1.6081 -0.3042 -1.6187
 6995SOL     OW27076   4.463   3.466   7.155  0.3571  0.3271 -0.2894
 6995SOL    HW127077   4.410   3.455   7.234 -1.2193  2.8654 -0.8780
 6995SOL    HW227078   4.512   3.385   7.148  0.7510  0.0527  3.4259
 6996SOL     OW27079   9.744   7.647   1.458 -0.3690  0.0690 -0.6151
 6996SOL    HW127080   9.713   7.736   1.476 -0.1423  0.3101 -1.3982
 6996SOL    HW227081   9.671   7.590   1.483 -0.0435  0.3700  1.1677
 6997SOL     OW27082   1.889   5.318   7.249 -0.1047 -0.2041 -0.1179
 6997SOL    HW127083   1.916   5.313   7.341  1.1589 -1.8046 -0.5311
 6997SOL    HW227084   1.907   5.230   7.214  3.3142  1.3708 -2.9058
 6998SOL     OW27085   6.272   4.395   9.865 -0.2856  0.1403 -0.2509
 6998SOL    HW127086   6.303   4.485   9.853 -0.6034  0.0556 -1.9445
 6998SOL    HW227087   6.350   4.341   9.857 -0.3034  0.1802 -0.7405
 6999SOL     OW27088   8.793   4.277   6.491  0.0975  0.1732  0.0985
 6999SOL    HW127089   8.718   4.336   6.482 -0.3384 -0.4721 -0.6980
 6999SOL    HW227090   8.815   4.280   6.584 -0.4674  0.9186  0.2172
 7000SOL     OW27091   5.242   5.565   1.436  0.1213 -0.0922 -0.6688
 7000SOL    HW127092   5.180   5.572   1.363  0.3357 -1.0987 -0.9580
 7000SOL    HW227093   5.193   5.520   1.505 -0.4102  1.7348  0.2161
 7001SOL     OW27094   8.062   3.225   9.913 -0.4376  0.4530  0.6197
 7001SOL    HW127095   8.149   3.219   9.952 -0.4719 -1.3531  0.4944
 7001SOL    HW227096   8.059   3.313   9.875  0.8289  1.0187  1.7448
 7002SOL     OW27097   3.524   5.584   2.395  0.0742  0.5893 -0.4219
 7002SOL    HW127098   3.498   5.533   2.318 -1.3015 -1.1988  1.1484
 7002SOL    HW227099   3.464   5.659   2.396 -0.8396 -0.1318 -0.3282
 7003SOL     OW27100   4.603   2.279  10.153  0.0977 -0.3980 -0.0683
 7003SOL    HW127101   4.558   2.290  10.070 -0.6077 -0.9139  0.2324
 7003SOL    HW227102   4.545   2.223  10.205  1.2940 -1.4750  0.1692
 7004SOL     OW27103   4.226   1.324   3.615  0.0932  0.4737 -0.6502
 7004SOL    HW127104   4.205   1.410   3.578 -1.9473  1.1764  1.8093
 7004SOL    HW227105   4.306   1.298   3.570  0.0464  3.0163 -2.4868
 7005SOL     OW27106   3.774   8.507   9.352  0.1623  0.2520  0.8541
 7005SOL    HW127107   3.737   8.422   9.328  0.8934  0.2499 -0.3978
 7005SOL    HW227108   3.850   8.485   9.406  0.2461  0.1078  0.6808
 7006SOL     OW27109   9.039   9.101   4.287 -0.3823 -0.5248  0.1979
 7006SOL    HW127110   9.061   9.047   4.362 -0.2766 -0.9167 -0.1113
 7006SOL    HW227111   9.081   9.057   4.213  1.0608  0.8182  0.1553
 7007SOL     OW27112   9.919   8.284  10.026 -0.5580 -0.0922  0.1765
 7007SOL    HW127113   9.946   8.352  10.088 -0.5467  0.0223  0.0451
 7007SOL    HW227114   9.849   8.237  10.071 -1.7125  1.0503 -0.3919
 7008SOL     OW27115   5.288   4.680   6.251 -0.6117 -0.0791 -0.0468
 7008SOL    HW127116   5.280   4.770   6.283  2.9735  0.1802  0.5620
 7008SOL    HW227117   5.245   4.627   6.317 -1.8246  1.1008  0.1464
 7009SOL     OW27118   1.027   3.985   5.110 -0.0948  0.1169  0.0439
 7009SOL    HW127119   1.007   3.898   5.076 -1.6199  0.4084  0.1361
 7009SOL    HW227120   0.945   4.034   5.102  0.7926  1.6330 -0.2391
 7010SOL     OW27121   2.005   1.249   4.236 -0.2206 -0.0519 -0.5701
 7010SOL    HW127122   1.984   1.292   4.153 -1.0672 -0.8482 -0.7759
 7010SOL    HW227123   2.001   1.156   4.218  0.1677 -0.2404  0.2339
 7011SOL     OW27124   0.526   1.868   4.767 -0.1301  0.4531  0.6098
 7011SOL    HW127125   0.544   1.786   4.720  0.1905  0.5712  0.5228
 7011SOL    HW227126   0.581   1.933   4.723  1.2536  0.3041  2.0314
 7012SOL     OW27127   1.276   3.546   8.004 -0.6165 -0.0011  0.0646
 7012SOL    HW127128   1.303   3.630   7.966 -1.2444  0.5703  0.8274
 7012SOL    HW227129   1.199   3.521   7.953 -1.4857  0.7873  0.9322
 7013SOL     OW27130   6.377   2.281   1.540 -0.2943  0.2488  0.2539
 7013SOL    HW127131   6.332   2.319   1.465  0.7034 -0.5266 -0.7826
 7013SOL    HW227132   6.348   2.333   1.614  0.3824  2.5251 -0.9666
 7014SOL     OW27133   1.631   7.330   0.442  0.0467 -0.2232  0.3204
 7014SOL    HW127134   1.654   7.271   0.370 -1.4189  0.3286 -0.6578
 7014SOL    HW227135   1.605   7.411   0.398  3.3788  1.7450  1.6503
 7015SOL     OW27136  10.219  10.400   5.606  0.5194 -0.4678 -0.2234
 7015SOL    HW127137  10.165  10.478   5.610  0.2055 -0.7166  0.8178
 7015SOL    HW227138  10.205  10.365   5.518  0.3856  0.4387 -0.5714
 7016SOL     OW27139   7.714  10.012   5.916  0.1616 -0.2362 -0.0892
 7016SOL    HW127140   7.712   9.993   6.010  0.0408 -0.1564 -0.0753
 7016SOL    HW227141   7.705  10.107   5.910 -2.5890 -0.4379 -0.2732
 7017SOL     OW27142   3.071   2.546   0.825 -0.5401  0.0390 -0.1174
 7017SOL    HW127143   3.131   2.501   0.765 -1.4133  1.7082 -2.4020
 7017SOL    HW227144   3.128   2.592   0.887  0.3976 -1.5362  0.2320
 7018SOL     OW27145   1.074   1.212   7.365  0.5423  0.0584  0.3950
 7018SOL    HW127146   1.045   1.167   7.286 -1.0376  0.2839  0.8107
 7018SOL    HW227147   1.076   1.305   7.340 -0.5496  0.1948  0.7643
 7019SOL     OW27148   6.264   1.702   2.247 -0.5409  0.1042  0.0882
 7019SOL    HW127149   6.294   1.668   2.331  0.1001 -0.1442 -0.2327
 7019SOL    HW227150   6.307   1.787   2.239 -0.5164  0.0800 -0.0363
 7020SOL     OW27151   1.745   4.515   0.901  0.1320  0.1683  0.2985
 7020SOL    HW127152   1.816   4.459   0.870  0.2366  0.0801  0.6938
 7020SOL    HW227153   1.778   4.552   0.983 -0.0301  0.6209  0.1656
 7021SOL     OW27154   7.791   2.097   6.435  0.3286 -0.6262 -0.6714
 7021SOL    HW127155   7.699   2.070   6.443  0.3951 -0.7166 -0.1913
 7021SOL    HW227156   7.803   2.112   6.341 -1.0539  2.3983 -0.5012
 7022SOL     OW27157   8.191   4.506   6.445  0.3001  0.3066  0.5887
 7022SOL    HW127158   8.179   4.418   6.479  2.6596 -0.2712  0.1308
 7022SOL    HW227159   8.129   4.560   6.495 -0.6601 -1.4697  1.3992
 7023SOL     OW27160  10.651  10.805   3.806 -0.1061 -0.1471 -0.9519
 7023SOL    HW127161  10.589  10.875   3.825  0.4278  0.4649 -1.4057
 7023SOL    HW227162  10.728  10.827   3.858 -0.0944 -0.6400 -0.7574
 7024SOL     OW27163   8.579   6.217   7.060 -0.4238  0.2740 -0.2707
 7024SOL    HW127164   8.510   6.281   7.040  0.7044  1.8754  0.7516
 7024SOL    HW227165   8.606   6.238   7.149  1.5183 -0.1756 -0.7063
 7025SOL     OW27166   1.334   0.165   2.815 -0.3335 -0.4843 -0.0903
 7025SOL    HW127167   1.320   0.091   2.875  1.3385 -0.6189  0.1635
 7025SOL    HW227168   1.245   0.191   2.790 -1.0074 -1.7567  0.8104
 7026SOL     OW27169  10.896   5.703  10.716 -0.7013 -0.9409  0.4131
 7026SOL    HW127170  10.916   5.615  10.745  0.8381 -0.3475  1.2950
 7026SOL    HW227171  10.919   5.759  10.790 -0.7971  0.2636 -0.4335
 7027SOL     OW27172   7.195   9.943   5.866 -0.2354  0.0083  0.4174
 7027SOL    HW127173   7.212  10.027   5.824 -0.0055 -0.0737  0.3500
 7027SOL    HW227174   7.102   9.927   5.850 -1.2145  1.8624  3.2351
 7028SOL     OW27175   3.728   7.970   8.731  0.0937  0.1538  0.3745
 7028SOL    HW127176   3.792   7.919   8.780  0.9348  2.4614  1.8333
 7028SOL    HW227177   3.645   7.952   8.776  0.1120 -0.8773  0.0444
 7029SOL     OW27178   8.906   1.622  10.412  0.1135 -0.3456  0.1227
 7029SOL    HW127179   8.938   1.660  10.494  1.1984 -1.3098  0.1651
 7029SOL    HW227180   8.811   1.638  10.414  0.1557 -0.1264  1.4374
 7030SOL     OW27181   5.898   6.364   1.877 -0.5217 -0.3032 -0.1415
 7030SOL    HW127182   5.963   6.433   1.868 -1.2962  0.3430 -0.9514
 7030SOL    HW227183   5.919   6.322   1.961 -0.3606  1.2643  0.6411
 7031SOL     OW27184   2.266   6.769   7.083  1.0587  0.0579 -0.5387
 7031SOL    HW127185   2.284   6.687   7.037  1.7868 -0.0605 -0.0548
 7031SOL    HW227186   2.323   6.766   7.160  0.1548  0.4368  0.1590
 7032SOL     OW27187   8.467   3.380   7.963 -0.0118  0.3456  0.0054
 7032SOL    HW127188   8.534   3.312   7.957  0.0975  0.4586 -0.0645
 7032SOL    HW227189   8.388   3.334   7.991  0.0645  0.1923 -0.0301
 7033SOL     OW27190   4.160   6.904   2.321  0.3309  1.3264  0.7254
 7033SOL    HW127191   4.112   6.982   2.350 -0.2018  0.6883  1.6265
 7033SOL    HW227192   4.102   6.831   2.344  0.4303  0.7010 -0.8828
 7034SOL     OW27193   4.779   9.581   0.462  0.0353  0.2963 -0.1897
 7034SOL    HW127194   4.725   9.584   0.541  0.5646  0.3738  0.1710
 7034SOL    HW227195   4.837   9.506   0.475  1.6560  1.6325  0.5102
 7035SOL     OW27196   2.646   2.699   3.268  0.0303  0.1766  0.3935
 7035SOL    HW127197   2.560   2.685   3.228  0.8377 -0.3210 -1.2566
 7035SOL    HW227198   2.637   2.663   3.356 -1.0991 -1.0423 -0.1750
 7036SOL     OW27199   6.339   2.679   4.887 -0.1358 -0.2840 -0.8429
 7036SOL    HW127200   6.332   2.693   4.981 -0.4891  0.8487 -1.0275
 7036SOL    HW227201   6.251   2.693   4.854  0.1570  0.1510 -1.4473
 7037SOL     OW27202   7.139   2.293   4.448 -0.3085 -0.3656 -0.4470
 7037SOL    HW127203   7.049   2.314   4.473  0.2464  2.7733 -0.7309
 7037SOL    HW227204   7.193   2.329   4.519  0.8469  0.8674 -1.8836
 7038SOL     OW27205   2.367   0.349   7.168  0.0156 -0.2985 -0.1546
 7038SOL    HW127206   2.354   0.415   7.100 -0.8010 -0.0480  0.2352
 7038SOL    HW227207   2.452   0.309   7.147  0.3668  0.6431 -0.5826
 7039SOL     OW27208   3.548   5.577   0.031  0.1301  0.7464 -0.1687
 7039SOL    HW127209   3.471   5.633   0.044  0.1165  0.7290 -0.1738
 7039SOL    HW227210   3.566   5.542   0.119 -0.0766  0.4803 -0.2300
 7040SOL     OW27211  10.047   2.940   2.840 -0.7214  0.8865 -0.2186
 7040SOL    HW127212   9.993   2.875   2.795  1.4227  0.6294 -2.6288
 7040SOL    HW227213  10.121   2.890   2.875 -1.7235  1.2811  2.7177
 7041SOL     OW27214   5.382   7.466   3.815 -0.4334  0.4639  0.1072
 7041SOL    HW127215   5.329   7.540   3.787 -0.1222  1.0498  1.0250
 7041SOL    HW227216   5.329   7.421   3.881 -1.4888 -1.3588 -1.8612
 7042SOL     OW27217  10.516  10.879   5.299  0.7536  0.4294 -0.0900
 7042SOL    HW127218  10.504  10.850   5.389  1.1574  1.6962  0.3926
 7042SOL    HW227219  10.428  10.876   5.261  0.2698  1.5810  0.8932
 7043SOL     OW27220   9.395   7.811   8.913 -0.5355  0.2163 -0.2258
 7043SOL    HW127221   9.376   7.873   8.983  1.2851  0.7128 -0.1109
 7043SOL    HW227222   9.413   7.728   8.959  0.5430  0.5131 -0.0750
 7044SOL     OW27223   4.993   5.098   1.673 -0.4920  0.4416 -0.2526
 7044SOL    HW127224   4.919   5.122   1.618 -0.8440 -0.0159  0.0125
 7044SOL    HW227225   4.967   5.124   1.761 -0.3443  0.2743 -0.1570
 7045SOL     OW27226   4.837   5.178   0.815  0.3224  0.3610  0.0846
 7045SOL    HW127227   4.762   5.216   0.860  1.4683  0.9008  1.6395
 7045SOL    HW227228   4.807   5.165   0.725 -0.9176  2.6585  0.0880
 7046SOL     OW27229   6.271   3.151   1.272  0.5789 -0.0176  0.7224
 7046SOL    HW127230   6.275   3.139   1.177  1.6724  0.9805  0.6243
 7046SOL    HW227231   6.219   3.230   1.284 -1.0097 -1.0642  1.0633
 7047SOL     OW27232   6.431   8.481   3.917 -0.3259  0.1195 -0.1076
 7047SOL    HW127233   6.468   8.450   3.833 -0.0459  1.6662 -0.5805
 7047SOL    HW227234   6.460   8.416   3.981  0.1438 -0.6559 -1.0783
 7048SOL     OW27235   4.587  10.477   1.250 -0.5896  0.6456  0.3554
 7048SOL    HW127236   4.567  10.391   1.214 -0.1385  0.9127 -0.5798
 7048SOL    HW227237   4.683  10.480   1.253 -0.6078  0.4566  2.0587
 7049SOL     OW27238   3.480   3.249   9.213  0.5645 -0.1550  0.1646
 7049SOL    HW127239   3.422   3.239   9.289  1.0746 -0.7062  0.4935
 7049SOL    HW227240   3.524   3.333   9.227  1.8547 -0.9656  1.3534
 7050SOL     OW27241   5.958   2.913   3.338 -0.0575 -0.0561  0.4633
 7050SOL    HW127242   5.958   2.858   3.259 -2.3307  0.5231  0.0119
 7050SOL    HW227243   6.037   2.966   3.329 -0.1324 -0.1676 -1.3299
 7051SOL     OW27244   7.891   7.819   6.532 -0.3982 -0.3522  0.1011
 7051SOL    HW127245   7.880   7.733   6.574  0.0478 -1.0256 -1.1007
 7051SOL    HW227246   7.864   7.805   6.442  0.7694  0.4809 -0.4034
 7052SOL     OW27247   0.828   9.233  10.556  0.3758  0.4342  0.4064
 7052SOL    HW127248   0.793   9.254  10.469  1.3563 -1.1374 -0.4132
 7052SOL    HW227249   0.876   9.311  10.582 -1.0276  1.4267  0.1513
 7053SOL     OW27250   5.294   8.040   9.018  0.7577 -0.1523 -0.5560
 7053SOL    HW127251   5.289   7.945   9.027 -0.5357 -0.1527 -1.0521
 7053SOL    HW227252   5.375   8.056   8.970 -0.3944 -1.2303 -3.0467
 7054SOL     OW27253   4.713   3.896   4.526  0.7554 -0.3463  0.0255
 7054SOL    HW127254   4.752   3.952   4.594  1.1077  1.6672 -1.7343
 7054SOL    HW227255   4.626   3.934   4.511  0.4778 -1.0885 -0.3076
 7055SOL     OW27256   1.002   3.950   2.162 -0.1625  0.4698  0.2321
 7055SOL    HW127257   0.960   4.021   2.114  1.2765  1.0901 -0.1683
 7055SOL    HW227258   0.929   3.897   2.196 -1.2341  1.2480 -0.7776
 7056SOL     OW27259   7.486   8.073  10.022 -0.2480 -0.2641  0.2322
 7056SOL    HW127260   7.551   8.021   9.975 -0.3326  0.5492 -0.8158
 7056SOL    HW227261   7.512   8.164  10.006 -0.5597  0.0452  1.3776
 7057SOL     OW27262   4.198  10.027   5.012 -0.6011  0.0176 -0.1087
 7057SOL    HW127263   4.122   9.969   5.012 -0.0681 -0.7140 -0.9341
 7057SOL    HW227264   4.227  10.027   4.920  0.5783  0.0355  0.2517
 7058SOL     OW27265  10.362   5.595   0.573  0.2875 -0.4869  0.1965
 7058SOL    HW127266  10.388   5.541   0.498  0.2015 -1.0059  0.5356
 7058SOL    HW227267  10.426   5.574   0.641 -0.3176 -0.9038  0.6501
 7059SOL     OW27268   1.768   3.945   6.952 -0.5261  0.5695 -0.2400
 7059SOL    HW127269   1.812   4.013   7.003 -2.0375  1.0192  0.5321
 7059SOL    HW227270   1.770   3.978   6.862  0.5913  0.6206 -0.2069
 7060SOL     OW27271   9.207   6.322  10.199 -0.2764 -0.6154  0.2334
 7060SOL    HW127272   9.272   6.360  10.141 -0.7362 -0.5015 -0.2164
 7060SOL    HW227273   9.123   6.353  10.164 -0.6195 -1.4976  0.2608
 7061SOL     OW27274   1.854   9.709   5.994  0.3092  0.0425 -0.2947
 7061SOL    HW127275   1.799   9.677   6.065 -0.1367  1.0385 -0.1715
 7061SOL    HW227276   1.812   9.678   5.914 -1.0254  1.6134 -0.2498
 7062SOL     OW27277   3.925   7.651   0.694  0.0312 -0.3050 -0.1178
 7062SOL    HW127278   3.917   7.556   0.687  1.9757 -0.4105 -1.5899
 7062SOL    HW227279   4.010   7.665   0.734  1.3460  0.7763 -3.0233
 7063SOL     OW27280   7.020  10.804   2.316  0.0272 -0.1546  0.3819
 7063SOL    HW127281   7.068  10.783   2.236 -0.9427  0.3780 -0.3680
 7063SOL    HW227282   6.929  10.787   2.294 -0.1619 -0.9905  1.7205
 7064SOL     OW27283   8.503   4.578   6.625 -0.7411  0.0139 -0.1867
 7064SOL    HW127284   8.527   4.515   6.557  0.9702 -0.1429  0.5027
 7064SOL    HW227285   8.418   4.548   6.657 -1.3601 -0.1885 -1.9010
 7065SOL     OW27286   8.189   2.443   2.843  0.3097  0.0876 -0.3868
 7065SOL    HW127287   8.280   2.436   2.814  0.3845 -0.4764 -0.0021
 7065SOL    HW227288   8.184   2.531   2.881  0.2190  0.8616 -2.0510
 7066SOL     OW27289   1.693   0.343   1.359  0.1092 -0.1162 -0.2841
 7066SOL    HW127290   1.741   0.302   1.431  1.6087 -0.3369 -1.3737
 7066SOL    HW227291   1.713   0.436   1.367  0.8804 -0.2286 -0.8400
 7067SOL     OW27292   6.853   6.069   6.802 -0.1890  0.1304  0.3696
 7067SOL    HW127293   6.922   6.118   6.846 -0.6979  0.4986  0.7575
 7067SOL    HW227294   6.799   6.035   6.873  0.0568 -0.8592  0.1055
 7068SOL     OW27295   6.532   3.728   6.533 -0.0725  0.0772 -0.2056
 7068SOL    HW127296   6.466   3.700   6.596  0.3957 -1.1148 -0.2248
 7068SOL    HW227297   6.603   3.664   6.542 -0.0314 -0.1671 -1.9994
 7069SOL     OW27298   5.049   4.420   6.975 -0.7751 -0.0178  0.1986
 7069SOL    HW127299   5.069   4.509   7.004 -1.6202  0.0120  0.7277
 7069SOL    HW227300   4.957   4.423   6.950 -0.8097 -0.7378  0.2094
 7070SOL     OW27301   1.306   6.066   1.029 -0.1066 -0.1454 -0.3952
 7070SOL    HW127302   1.224   6.077   0.980 -0.0511 -1.1147 -0.7086
 7070SOL    HW227303   1.362   6.137   0.998 -0.1210 -0.6609 -1.6411
 7071SOL     OW27304   5.314   0.916   5.373  0.1859  0.2178 -0.2129
 7071SOL    HW127305   5.312   0.961   5.458 -0.4333 -0.7136  0.2883
 7071SOL    HW227306   5.229   0.871   5.368  0.7547 -0.8328 -0.7199
 7072SOL     OW27307   9.450   0.438   9.737  0.2394 -0.0108 -0.2323
 7072SOL    HW127308   9.462   0.436   9.832  0.3780 -1.3423 -0.2501
 7072SOL    HW227309   9.527   0.392   9.703  0.4621  0.9264 -1.0358
 7073SOL     OW27310   3.987  10.810   9.721 -0.0663 -0.2130  0.2895
 7073SOL    HW127311   3.998  10.743   9.789  0.3123  0.8781  1.3385
 7073SOL    HW227312   3.916  10.777   9.666 -0.1857 -1.2618  1.0350
 7074SOL     OW27313   3.739   6.545   6.799 -0.2958  0.3077 -0.4508
 7074SOL    HW127314   3.646   6.524   6.799  0.0021 -1.0461 -0.1186
 7074SOL    HW227315   3.744   6.632   6.838 -1.3359  0.0073  0.3754
 7075SOL     OW27316   8.361   2.910   3.885 -0.3364  0.2475 -0.3025
 7075SOL    HW127317   8.378   3.002   3.906 -0.6002  0.3039 -0.3291
 7075SOL    HW227318   8.448   2.869   3.882 -0.2833  0.2441  0.8462
 7076SOL     OW27319   9.587   1.656   2.922 -0.1857 -0.4879  0.5371
 7076SOL    HW127320   9.510   1.713   2.916 -1.2232 -1.9596 -1.4348
 7076SOL    HW227321   9.552   1.569   2.940  0.8288 -1.4225 -1.5918
 7077SOL     OW27322   7.528   5.414   0.742  0.0247 -0.3561  0.5630
 7077SOL    HW127323   7.443   5.384   0.710 -0.3894 -0.0463  1.3246
 7077SOL    HW227324   7.555   5.346   0.804  0.4357 -0.5592  0.1616
 7078SOL     OW27325   5.122   4.269   5.628 -0.0311  0.0664  0.0317
 7078SOL    HW127326   5.209   4.294   5.661  0.6911  0.2191 -1.8899
 7078SOL    HW227327   5.084   4.219   5.700  1.9183 -0.5825  0.6876
 7079SOL     OW27328   8.708   5.517   0.775 -0.3645 -0.5267 -0.2099
 7079SOL    HW127329   8.734   5.520   0.867  2.5639 -1.2854 -0.9147
 7079SOL    HW227330   8.691   5.608   0.751  1.3370 -0.0097  0.4686
 7080SOL     OW27331   7.047  10.128   4.568  0.2412  0.0977 -0.5220
 7080SOL    HW127332   7.111  10.127   4.498 -0.4064  0.6759 -1.1371
 7080SOL    HW227333   6.970  10.084   4.531  0.0749 -0.0668  0.0052
 7081SOL     OW27334   8.417   0.235   2.485  0.1492  0.0568 -0.0533
 7081SOL    HW127335   8.393   0.238   2.578 -4.0646 -0.2899 -0.9252
 7081SOL    HW227336   8.448   0.323   2.465 -0.8309  0.7490  1.2923
 7082SOL     OW27337   3.553   2.700   4.482 -0.1121  0.2086 -0.3500
 7082SOL    HW127338   3.513   2.682   4.567 -0.6085 -0.5888 -0.7495
 7082SOL    HW227339   3.491   2.758   4.438  0.3772  1.0264  0.0126
 7083SOL     OW27340   0.965   0.875   5.087  0.3235 -0.3725 -0.6358
 7083SOL    HW127341   0.977   0.853   5.180  3.3636 -2.0013 -1.2865
 7083SOL    HW227342   0.895   0.817   5.057 -1.0675  0.5371  0.6891
 7084SOL     OW27343   6.456   9.116   3.694  0.1565  0.3977 -0.7640
 7084SOL    HW127344   6.405   9.100   3.615  1.2276  1.9247 -1.8095
 7084SOL    HW227345   6.494   9.202   3.682  1.6637 -0.0024  0.7039
 7085SOL     OW27346   1.243   6.786   2.608  0.5358 -0.1425 -0.3019
 7085SOL    HW127347   1.236   6.856   2.672 -1.7692  0.7586 -1.4090
 7085SOL    HW227348   1.217   6.707   2.656 -0.1304  0.3458  0.1716
 7086SOL     OW27349   5.056   0.609   2.894  0.1679  0.6948  0.0007
 7086SOL    HW127350   5.121   0.632   2.960  0.6663 -0.4614 -0.0698
 7086SOL    HW227351   5.058   0.513   2.890 -0.8600  0.6877 -0.6835
 7087SOL     OW27352   5.052   1.349   7.952 -0.2023  0.4423 -0.3029
 7087SOL    HW127353   5.050   1.292   7.876 -0.2026  0.9126 -0.6587
 7087SOL    HW227354   5.017   1.432   7.921 -1.8950  0.1193  0.6549
 7088SOL     OW27355   7.175   8.290   7.396  0.7721 -0.1815 -0.0755
 7088SOL    HW127356   7.227   8.311   7.474  1.9164 -2.9068  0.0077
 7088SOL    HW227357   7.176   8.371   7.345  4.3054  0.2796  0.4239
 7089SOL     OW27358   5.685   0.276   6.524 -0.2645  0.3153  0.7075
 7089SOL    HW127359   5.593   0.260   6.548 -0.3115 -2.4691 -0.8708
 7089SOL    HW227360   5.693   0.239   6.436  2.0797  1.7470  0.2446
 7090SOL     OW27361   9.562   6.272   6.697 -0.1681  0.1030  0.2783
 7090SOL    HW127362   9.551   6.365   6.680  1.5099  0.0496 -1.5853
 7090SOL    HW227363   9.493   6.230   6.645 -0.7879  0.2746  0.9470
 7091SOL     OW27364   6.192   2.998   9.020 -0.3751  0.0667 -0.0121
 7091SOL    HW127365   6.245   2.932   8.974 -0.0364  1.4973 -1.8243
 7091SOL    HW227366   6.120   3.017   8.960 -0.6736  1.0565  0.6373
 7092SOL     OW27367   8.977   1.449   4.418 -0.4612 -0.9732 -0.6583
 7092SOL    HW127368   8.937   1.433   4.333 -0.5794 -0.1443 -0.7694
 7092SOL    HW227369   8.905   1.444   4.480 -0.4420 -1.1739 -0.6497
 7093SOL     OW27370   4.163   8.938   4.438 -0.6922 -0.2531 -0.2692
 7093SOL    HW127371   4.178   9.032   4.448  1.0375 -0.7357  3.4360
 7093SOL    HW227372   4.234   8.908   4.381 -0.7953  0.5414 -0.8341
 7094SOL     OW27373   6.139   8.466   0.480 -0.3280 -0.1205 -0.1247
 7094SOL    HW127374   6.125   8.407   0.554  0.8815 -1.7790 -1.1543
 7094SOL    HW227375   6.198   8.534   0.515  1.4142 -1.6804  0.1132
 7095SOL     OW27376   7.389   3.461   8.177 -0.3875  0.6383 -0.2406
 7095SOL    HW127377   7.331   3.525   8.218  0.7396  1.0277  0.8290
 7095SOL    HW227378   7.333   3.410   8.119 -1.7656  1.0775  0.6649
 7096SOL     OW27379   6.686   9.297   0.599 -0.0014  0.2634 -0.3012
 7096SOL    HW127380   6.643   9.370   0.555  0.8266  1.1431  0.3057
 7096SOL    HW227381   6.713   9.238   0.528 -0.6612  0.5450 -0.7948
 7097SOL     OW27382   7.261   0.524   1.069 -0.6504  0.0412 -0.1258
 7097SOL    HW127383   7.192   0.581   1.035 -1.2189 -0.7286 -0.2836
 7097SOL    HW227384   7.253   0.444   1.018  0.9582  0.2637 -0.7763
 7098SOL     OW27385   6.052   4.558   2.584 -0.2492  0.2701  0.4011
 7098SOL    HW127386   6.004   4.619   2.528  1.1811  0.0352 -1.1769
 7098SOL    HW227387   6.142   4.591   2.583 -0.0908  0.0112  2.2804
 7099SOL     OW27388   3.578   1.478   9.433 -0.1384 -0.1020 -0.1304
 7099SOL    HW127389   3.563   1.531   9.512  1.2939  1.8208 -1.0558
 7099SOL    HW227390   3.599   1.391   9.466 -1.6180  0.1038  1.5078
 7100SOL     OW27391   9.540   8.564  10.716  0.3229  0.4059  0.2191
 7100SOL    HW127392   9.632   8.564  10.745  0.5041  0.1155 -0.3422
 7100SOL    HW227393   9.516   8.472  10.713 -0.3329  0.5090  1.3868
 7101SOL     OW27394   0.336   0.548   9.496  0.0700  0.1658 -0.0552
 7101SOL    HW127395   0.291   0.503   9.424  1.4330  0.4320 -1.1265
 7101SOL    HW227396   0.411   0.591   9.454  0.4105  1.0671  1.3971
 7102SOL     OW27397   5.090   1.721   0.633 -0.1572  0.4878  0.0847
 7102SOL    HW127398   5.178   1.686   0.639 -0.7732 -1.4287 -1.2200
 7102SOL    HW227399   5.098   1.812   0.661  2.2882  0.4510 -0.3495
 7103SOL     OW27400   5.970   9.317  10.550  0.4798  0.0167  0.7991
 7103SOL    HW127401   6.010   9.239  10.587 -0.3212  0.6678  3.1959
 7103SOL    HW227402   5.897   9.284  10.497  0.4201 -0.8659  1.4216
 7104SOL     OW27403   2.862   4.218   4.582  0.6523  0.5083  0.3088
 7104SOL    HW127404   2.935   4.260   4.536  1.7849  0.2526  1.8124
 7104SOL    HW227405   2.903   4.150   4.635 -1.0385 -2.0947 -1.4686
 7105SOL     OW27406  10.357   6.363   6.066  0.1065 -0.5498  0.1984
 7105SOL    HW127407  10.303   6.418   6.008 -0.5020 -1.5010 -0.1589
 7105SOL    HW227408  10.311   6.366   6.150  0.3682 -0.0866  0.3291
 7106SOL     OW27409   2.121  10.652   4.458  0.2709  0.1704 -0.6766
 7106SOL    HW127410   2.030  10.655   4.485  0.1534 -1.3799 -0.7922
 7106SOL    HW227411   2.121  10.597   4.379  1.2501  0.4328 -0.8729
 7107SOL     OW27412   6.330   7.983   4.942 -0.2956 -0.1410 -0.1135
 7107SOL    HW127413   6.262   7.934   4.897 -1.1515 -0.3991  1.3961
 7107SOL    HW227414   6.283   8.038   5.004  0.8948 -0.8229  1.4593
 7108SOL     OW27415   5.676   1.133   8.953 -0.0900 -0.2436 -0.1650
 7108SOL    HW127416   5.659   1.199   9.021  1.7326  0.5332 -0.3875
 7108SOL    HW227417   5.711   1.058   9.002  0.5301  0.0441 -0.1509
 7109SOL     OW27418   5.763   3.237  10.260 -0.4586 -0.0155  0.5148
 7109SOL    HW127419   5.754   3.282  10.176 -1.6142 -1.2100 -0.0367
 7109SOL    HW227420   5.733   3.148  10.243  1.9747 -1.1138  1.5240
 7110SOL     OW27421   7.025   7.678   9.276  0.4985 -0.2862  0.0407
 7110SOL    HW127422   7.071   7.666   9.358 -1.0469 -1.4935  0.7905
 7110SOL    HW227423   6.937   7.707   9.302  0.5320  1.1339 -1.2797
 7111SOL     OW27424   9.181   2.665   7.022  0.1133 -0.1117  0.1233
 7111SOL    HW127425   9.218   2.591   6.974  1.2618  1.8452 -2.2986
 7111SOL    HW227426   9.156   2.727   6.953  1.1560  2.5862  2.0041
 7112SOL     OW27427   9.783   7.649   5.478  0.0919  0.1458 -0.2385
 7112SOL    HW127428   9.710   7.604   5.436 -2.4124  1.9945  1.8108
 7112SOL    HW227429   9.788   7.734   5.436  0.2706  0.4766  0.4283
 7113SOL     OW27430  10.782   1.668  10.634 -0.6150  0.4209  0.1867
 7113SOL    HW127431  10.832   1.709  10.706 -1.9978 -0.3684  1.6471
 7113SOL    HW227432  10.849   1.626  10.580  0.3608 -0.3137  1.8934
 7114SOL     OW27433   2.330   6.122   5.262 -0.1260 -0.0411  0.1942
 7114SOL    HW127434   2.413   6.147   5.305 -0.9201  1.8655  0.7465
 7114SOL    HW227435   2.285   6.069   5.327 -0.7281  1.7023  1.2839
 7115SOL     OW27436   6.008   8.079   8.891 -0.3589  0.1033 -0.2262
 7115SOL    HW127437   6.004   8.038   8.977  0.4620 -0.0124 -0.2299
 7115SOL    HW227438   6.058   8.017   8.837 -0.7007  0.2602 -0.7347
 7116SOL     OW27439   8.182   2.590   6.755  0.0909 -0.1216 -0.0508
 7116SOL    HW127440   8.171   2.495   6.751 -1.1387  0.0436 -2.0683
 7116SOL    HW227441   8.123   2.619   6.824 -0.8395 -0.7073 -0.5723
 7117SOL     OW27442   1.560   8.444   1.060 -0.1505  0.4630  0.0012
 7117SOL    HW127443   1.499   8.518   1.065 -0.4082  0.1781  1.6833
 7117SOL    HW227444   1.579   8.435   0.967  0.2174  2.9162 -0.2296
 7118SOL     OW27445   5.158  10.310   4.269  0.4037 -0.7753 -0.0167
 7118SOL    HW127446   5.216  10.266   4.332 -0.3307 -1.6762  0.0580
 7118SOL    HW227447   5.086  10.249   4.257  0.0204 -0.1561 -0.9603
 7119SOL     OW27448   4.022  10.041   7.117 -0.2569 -0.3020 -0.1899
 7119SOL    HW127449   4.006  10.134   7.104  0.5564 -0.2507 -0.9379
 7119SOL    HW227450   4.113  10.036   7.147 -0.3647 -0.8365  0.0653
 7120SOL     OW27451   0.305   5.662  10.612  0.0505 -0.2644 -0.0472
 7120SOL    HW127452   0.307   5.673  10.517 -2.5514 -0.8831 -0.2434
 7120SOL    HW227453   0.382   5.609  10.632  1.7028  1.4594 -1.5272
 7121SOL     OW27454   1.747   6.970  10.266 -0.0922  0.0006 -0.1714
 7121SOL    HW127455   1.697   7.026  10.206  1.0856  2.3367  0.8736
 7121SOL    HW227456   1.788   7.032  10.327  0.7524 -2.0987  1.5153
 7122SOL     OW27457   2.283   0.335   8.891  0.1954 -0.6609  0.3095
 7122SOL    HW127458   2.302   0.303   8.979 -0.5789 -2.4701 -0.1319
 7122SOL    HW227459   2.356   0.392   8.870  0.2517  0.0620  2.2300
 7123SOL     OW27460   9.267   1.540   4.152  0.3993  0.1136 -0.1569
 7123SOL    HW127461   9.310   1.462   4.189 -1.6571 -1.8958 -1.7087
 7123SOL    HW227462   9.306   1.549   4.064 -0.1709  0.1472 -0.4074
 7124SOL     OW27463   7.798   8.050   4.468  0.1413 -0.2458  0.4291
 7124SOL    HW127464   7.760   7.991   4.532  0.0257 -0.3422  0.2707
 7124SOL    HW227465   7.727   8.108   4.442  0.3275  0.1546  0.8022
 7125SOL     OW27466   1.980  10.503   5.547  0.0543  0.1505  0.0918
 7125SOL    HW127467   2.071  10.519   5.573  0.2889 -0.0504 -0.5803
 7125SOL    HW227468   1.986  10.463   5.460 -0.7265  1.9585 -0.8743
 7126SOL     OW27469   2.553   4.878   4.267  0.2285  0.3313  0.6851
 7126SOL    HW127470   2.562   4.784   4.282 -1.1473  0.3138  1.5307
 7126SOL    HW227471   2.635   4.904   4.224  0.5710 -1.2645  0.3355
 7127SOL     OW27472   0.505   8.087   9.069 -0.0827 -0.1711  0.5216
 7127SOL    HW127473   0.452   8.155   9.111  0.1009  0.4841 -0.2517
 7127SOL    HW227474   0.593   8.101   9.103  0.0769  0.3946 -0.0958
 7128SOL     OW27475   3.221   6.345   9.719 -0.6233 -0.2064  0.6056
 7128SOL    HW127476   3.216   6.433   9.757  0.6215 -0.2813  1.0027
 7128SOL    HW227477   3.208   6.286   9.794 -0.5468 -0.3572  0.5003
 7129SOL     OW27478  10.454   2.883   6.170 -0.1621  0.3227  0.0168
 7129SOL    HW127479  10.525   2.825   6.143 -0.3333 -0.6271  1.4725
 7129SOL    HW227480  10.445   2.867   6.264  0.2821  3.2782  0.6525
 7130SOL     OW27481   1.983   2.630  10.187 -0.4133  0.2980 -0.2857
 7130SOL    HW127482   1.974   2.618  10.282 -0.2840  1.5396 -0.0979
 7130SOL    HW227483   2.073   2.661  10.176 -0.4892  0.3323 -0.7969
 7131SOL     OW27484   3.659   2.395   4.629 -0.0801  0.2778  0.3598
 7131SOL    HW127485   3.595   2.426   4.693  0.0667  0.7282  0.2906
 7131SOL    HW227486   3.610   2.390   4.546 -0.4027 -0.7913  0.5973
 7132SOL     OW27487   0.727   2.406   9.771  0.0509  0.3524 -0.6577
 7132SOL    HW127488   0.728   2.411   9.866  0.0635  1.5021 -0.7075
 7132SOL    HW227489   0.707   2.314   9.752  0.4305  0.0303  0.4421
 7133SOL     OW27490   4.632   0.381   0.155 -0.5576 -0.8062  0.0577
 7133SOL    HW127491   4.596   0.318   0.218 -0.6653 -0.5023  0.3021
 7133SOL    HW227492   4.644   0.461   0.205 -1.8234 -0.1791 -0.6148
 7134SOL     OW27493   6.860  10.640   9.432 -1.0093  0.1790 -0.3763
 7134SOL    HW127494   6.822  10.557   9.404 -1.2247  0.2979 -0.4408
 7134SOL    HW227495   6.797  10.706   9.402 -0.9049  0.3537 -0.2099
 7135SOL     OW27496   7.640   8.708   3.527 -0.4034  0.6168 -0.5365
 7135SOL    HW127497   7.708   8.640   3.531  0.2506  1.2960  2.6402
 7135SOL    HW227498   7.569   8.674   3.581 -1.0135  1.5092 -0.7699
 7136SOL     OW27499   0.602   7.630   6.502 -0.1596 -0.4874  0.0137
 7136SOL    HW127500   0.627   7.696   6.438 -2.1822 -1.1322 -1.5415
 7136SOL    HW227501   0.607   7.675   6.586 -1.5211  1.6969 -1.0050
 7137SOL     OW27502   4.512  10.729   8.412 -0.1989  0.6562  0.2356
 7137SOL    HW127503   4.497  10.822   8.397  0.2862  0.7628  0.4080
 7137SOL    HW227504   4.492  10.716   8.504  1.5002  0.9593  0.6762
 7138SOL     OW27505   0.632   7.262   8.959  0.0928 -0.1311 -0.2544
 7138SOL    HW127506   0.703   7.237   8.900 -1.3187  1.6752 -2.9446
 7138SOL    HW227507   0.668   7.334   9.010  0.3218  0.7054 -1.5246
 7139SOL     OW27508   7.816   2.976   2.546  0.0615  0.3131  0.6013
 7139SOL    HW127509   7.902   2.948   2.514 -0.2814  0.5793 -0.6041
 7139SOL    HW227510   7.835   3.020   2.629  0.8101 -1.8220  1.6428
 7140SOL     OW27511   2.953   8.855   9.666 -0.6997  0.2462  0.0360
 7140SOL    HW127512   2.891   8.895   9.727 -0.9171 -0.6663  0.4339
 7140SOL    HW227513   3.000   8.929   9.628 -2.2177  0.9965 -0.4959
 7141SOL     OW27514   6.386   4.854   4.602 -0.2640 -0.0759 -0.0121
 7141SOL    HW127515   6.391   4.950   4.608  0.9281 -0.1264  0.0860
 7141SOL    HW227516   6.395   4.835   4.509  0.6059 -0.1264  0.0720
 7142SOL     OW27517   8.317   8.098   7.469  0.0776 -0.2552 -0.1832
 7142SOL    HW127518   8.396   8.134   7.510  0.8113 -2.0308  0.0739
 7142SOL    HW227519   8.256   8.088   7.542 -0.6913  1.7685 -0.4923
 7143SOL     OW27520   2.128   2.379   3.304  0.0250 -0.0472 -0.4068
 7143SOL    HW127521   2.046   2.342   3.337  0.4472 -0.8283 -0.2228
 7143SOL    HW227522   2.145   2.331   3.223  1.3931 -1.4297  0.6280
 7144SOL     OW27523   1.855  10.230   1.360  0.6227  0.2546 -0.3516
 7144SOL    HW127524   1.826  10.207   1.272  0.5263 -2.1532  0.2377
 7144SOL    HW227525   1.781  10.207   1.416  1.3077  0.1285  0.5165
 7145SOL     OW27526   4.136   4.076   6.482  0.4866  0.4644  0.3232
 7145SOL    HW127527   4.209   4.119   6.526  0.3894 -0.1340  1.0895
 7145SOL    HW227528   4.157   3.983   6.487 -0.2781  0.2977  0.4513
 7146SOL     OW27529   1.707   6.481   8.378 -0.5623  0.3405  0.1906
 7146SOL    HW127530   1.736   6.572   8.389 -1.1893  0.6135 -0.3643
 7146SOL    HW227531   1.753   6.433   8.447 -0.7101  1.1802  0.8908
 7147SOL     OW27532   6.776   8.138   2.575  0.8166 -0.5088  0.3704
 7147SOL    HW127533   6.775   8.076   2.502  0.9392 -0.2713  0.1597
 7147SOL    HW227534   6.840   8.205   2.547 -0.2634  0.4097 -0.0039
 7148SOL     OW27535   7.052   9.956   4.087  0.4429  0.2722  0.4139
 7148SOL    HW127536   7.056   9.890   4.156 -1.3096 -0.1307  0.1742
 7148SOL    HW227537   7.111   9.923   4.019 -0.4663 -1.1105  0.2707
 7149SOL     OW27538   6.472   1.248   1.070 -0.7201 -0.6955 -0.1685
 7149SOL    HW127539   6.455   1.272   1.161 -0.5605  0.8028 -0.4923
 7149SOL    HW227540   6.388   1.265   1.025 -0.4034 -0.0430 -0.5349
 7150SOL     OW27541   6.874   0.618   0.671 -0.7464 -0.2117 -0.0801
 7150SOL    HW127542   6.791   0.650   0.708 -1.2026 -0.5900 -0.7457
 7150SOL    HW227543   6.848   0.547   0.613 -0.0895  0.5069 -1.3056
 7151SOL     OW27544   0.755   8.180   9.169 -0.3796  0.7781 -0.3562
 7151SOL    HW127545   0.808   8.134   9.235  0.4579  1.1347 -0.7647
 7151SOL    HW227546   0.815   8.195   9.096 -1.3198  0.3233 -1.2492
 7152SOL     OW27547   1.170   4.549   7.316 -0.3420 -0.4458  0.3987
 7152SOL    HW127548   1.233   4.616   7.341 -1.1213  0.3104  0.3652
 7152SOL    HW227549   1.170   4.551   7.220 -0.6530 -0.2234  0.4041
 7153SOL     OW27550   3.228   6.749   5.274 -0.2102 -0.2585 -0.5725
 7153SOL    HW127551   3.275   6.738   5.191 -1.0603  0.0434 -1.1029
 7153SOL    HW227552   3.205   6.842   5.276 -1.5770 -0.5830 -0.7539
 7154SOL     OW27553   4.464   1.349   2.764  0.4464  0.1138 -0.0119
 7154SOL    HW127554   4.442   1.434   2.724 -1.1713 -0.5958 -0.7304
 7154SOL    HW227555   4.449   1.363   2.857  2.3850  1.2335  0.1886
 7155SOL     OW27556   4.446   3.687  10.417  0.0754 -0.6371  0.6383
 7155SOL    HW127557   4.514   3.633  10.457  0.2990 -0.3160  0.6947
 7155SOL    HW227558   4.472   3.777  10.438  2.6129 -0.0632 -3.8462
 7156SOL     OW27559   6.640   1.097  10.447  0.1911 -0.2394 -0.1444
 7156SOL    HW127560   6.560   1.132  10.486 -0.3679 -1.2249 -0.3534
 7156SOL    HW227561   6.667   1.027  10.507 -0.5043 -1.5623 -1.3080
 7157SOL     OW27562   3.887   1.869   6.118  0.3949 -0.6537 -0.5037
 7157SOL    HW127563   3.824   1.925   6.072 -1.9178 -0.7112  2.3249
 7157SOL    HW227564   3.949   1.930   6.157 -0.8493 -0.1265  0.7528
 7158SOL     OW27565   2.576   6.856   0.703 -0.4671 -0.1116 -0.5149
 7158SOL    HW127566   2.587   6.951   0.696 -0.3353 -0.1349 -0.6293
 7158SOL    HW227567   2.529   6.843   0.785 -1.7320  0.1573 -1.1605
 7159SOL     OW27568   8.359   1.533   2.802 -0.6770  0.2662 -0.6820
 7159SOL    HW127569   8.349   1.628   2.816 -1.1471 -0.0069  1.0336
 7159SOL    HW227570   8.402   1.526   2.717  0.7522  2.0769 -0.1730
 7160SOL     OW27571   0.739   7.068   1.506 -0.6510 -0.2270 -0.3692
 7160SOL    HW127572   0.649   7.085   1.478 -1.0299 -0.0138  0.8807
 7160SOL    HW227573   0.748   7.118   1.587  0.1593 -1.2938  0.2232
 7161SOL     OW27574   7.971  10.459   5.228 -0.1663  0.3283  0.2778
 7161SOL    HW127575   7.890  10.507   5.241  0.3931  1.3590  0.0482
 7161SOL    HW227576   8.034  10.525   5.199  1.3955  0.0057  2.6852
 7162SOL     OW27577   1.228   5.252   9.592  0.4691  0.0174  0.7271
 7162SOL    HW127578   1.265   5.222   9.509  2.1874 -0.1955  1.5365
 7162SOL    HW227579   1.168   5.182   9.618  1.1673 -0.6946  0.4620
 7163SOL     OW27580   2.937   2.428   7.721 -0.3432 -0.6964  0.1162
 7163SOL    HW127581   3.029   2.439   7.741 -0.5911 -0.5746  1.2918
 7163SOL    HW227582   2.896   2.510   7.749 -0.8820 -0.9796  0.1713
 7164SOL     OW27583   1.404   2.798   1.980  1.2454  0.3810 -0.1442
 7164SOL    HW127584   1.374   2.712   1.950 -0.0167  0.2048  1.4692
 7164SOL    HW227585   1.468   2.778   2.049  0.2799  0.7051  0.8663
 7165SOL     OW27586   6.115   5.086   7.691  0.2341  0.5376 -0.4556
 7165SOL    HW127587   6.210   5.086   7.687  0.2047  0.6994 -1.3833
 7165SOL    HW227588   6.089   5.007   7.644 -0.0765  0.1016  0.4317
 7166SOL     OW27589   8.230   7.449  10.757 -0.6283 -0.0293 -0.4964
 7166SOL    HW127590   8.284   7.501  10.698  0.2595  0.0119  0.3142
 7166SOL    HW227591   8.162   7.509  10.787 -0.2105  0.3747 -0.3448
 7167SOL     OW27592  10.476   8.453   2.886  0.5282 -0.7494 -0.1524
 7167SOL    HW127593  10.528   8.533   2.889  1.1955 -1.1948  0.7784
 7167SOL    HW227594  10.512   8.404   2.812  0.2408 -0.2831 -0.6081
 7168SOL     OW27595   6.096   7.805   3.672  0.0664 -0.6522 -0.5558
 7168SOL    HW127596   6.162   7.740   3.698 -0.4210 -0.0988  2.3401
 7168SOL    HW227597   6.113   7.880   3.728 -0.1132  1.3540 -3.0532
 7169SOL     OW27598   6.518   7.961   7.319  0.9387 -0.7942 -0.3968
 7169SOL    HW127599   6.430   7.927   7.302  0.2697  1.1730 -1.2782
 7169SOL    HW227600   6.548   7.915   7.397 -1.7537 -0.0555  1.2102
 7170SOL     OW27601   0.119   0.774   8.689 -0.1207  0.7065 -0.5873
 7170SOL    HW127602   0.113   0.767   8.594 -0.8147  1.4222 -0.6024
 7170SOL    HW227603   0.107   0.684   8.720  0.8627  0.3507 -1.1978
 7171SOL     OW27604   0.579   0.459   8.397  0.0890  0.1532 -0.5046
 7171SOL    HW127605   0.534   0.388   8.442  1.1066 -0.0356  0.2545
 7171SOL    HW227606   0.552   0.451   8.306 -0.1474 -0.9454 -0.3476
 7172SOL     OW27607   5.587   7.843   7.106  0.1219  0.0028  0.5728
 7172SOL    HW127608   5.630   7.909   7.051 -2.0104  1.2985  0.3850
 7172SOL    HW227609   5.650   7.827   7.177  2.2417 -0.5152 -1.3043
 7173SOL     OW27610   0.512   1.899   3.892  0.1755  0.7168  0.3861
 7173SOL    HW127611   0.440   1.837   3.889  0.4525  0.0857  3.2509
 7173SOL    HW227612   0.584   1.856   3.846 -0.5190  0.2488 -0.2710
 7174SOL     OW27613   2.888   6.134   5.625 -0.4892 -0.5512  0.3425
 7174SOL    HW127614   2.865   6.195   5.694 -3.8060  1.8204 -2.4728
 7174SOL    HW227615   2.827   6.061   5.636  0.5369 -1.2967  1.1942
 7175SOL     OW27616   2.000   5.117   4.660 -0.2814  0.1985 -0.1203
 7175SOL    HW127617   1.986   5.059   4.735 -0.8160  0.7203  0.1891
 7175SOL    HW227618   1.980   5.062   4.584 -0.2102 -0.1915  0.1367
 7176SOL     OW27619   8.373   0.833   8.772 -0.1245  0.0655  0.4602
 7176SOL    HW127620   8.343   0.756   8.821 -0.1630  0.1867  0.6296
 7176SOL    HW227621   8.460   0.810   8.741  1.0125  0.9119  2.7331
 7177SOL     OW27622   5.410   1.458   8.315  0.2660 -0.7002  0.0940
 7177SOL    HW127623   5.422   1.520   8.387 -1.5406 -0.8680  0.5926
 7177SOL    HW227624   5.426   1.509   8.236 -0.5591  0.2466  0.5247
 7178SOL     OW27625   0.469   2.912   8.577 -0.2929  0.2250  0.4107
 7178SOL    HW127626   0.565   2.921   8.579 -0.2734  0.3771 -0.7152
 7178SOL    HW227627   0.455   2.817   8.574 -0.2372  0.1347  1.8882
 7179SOL     OW27628   8.582  10.526   3.444 -0.3159 -0.8219 -0.0339
 7179SOL    HW127629   8.648  10.591   3.468 -0.9500  0.0857 -0.6576
 7179SOL    HW227630   8.591  10.457   3.509  1.3901 -0.8330 -0.2350
 7180SOL     OW27631   3.385  10.774   5.491  0.0096 -0.4290  0.2521
 7180SOL    HW127632   3.328  10.829   5.437  1.8531 -0.1871 -1.5521
 7180SOL    HW227633   3.327  10.742   5.560 -2.1959  0.1853 -1.1780
 7181SOL     OW27634   4.976   0.904   9.018  0.7939 -0.5570  0.6737
 7181SOL    HW127635   4.908   0.836   9.025 -0.2601  0.4932  1.0008
 7181SOL    HW227636   4.979   0.942   9.105  1.4663 -0.2657  0.5211
 7182SOL     OW27637   4.196   3.155   6.062  0.3210 -0.1886 -0.4132
 7182SOL    HW127638   4.129   3.146   6.130  0.1771  0.3733 -0.4792
 7182SOL    HW227639   4.248   3.075   6.069 -0.2698 -0.5673 -0.2657
 7183SOL     OW27640   0.529   0.203   1.002 -0.3458  0.0806 -0.3998
 7183SOL    HW127641   0.599   0.174   1.060 -0.8100  0.1777  0.2174
 7183SOL    HW227642   0.498   0.122   0.960 -0.8744 -0.1694  0.4626
 7184SOL     OW27643   0.024   1.935   9.264  0.4045 -0.1559  1.0411
 7184SOL    HW127644  -0.031   1.930   9.342 -1.5943  0.3218 -0.2405
 7184SOL    HW227645   0.082   1.860   9.270 -1.4870 -1.6530  1.7413
 7185SOL     OW27646  10.391   5.585  10.854  0.4158 -0.3255  0.4776
 7185SOL    HW127647  10.446   5.563  10.778  0.0330 -0.1946  0.1586
 7185SOL    HW227648  10.448   5.640  10.909  0.2625  0.7481 -0.3861
 7186SOL     OW27649   6.016   5.438   8.750 -0.4972  0.1232 -0.3896
 7186SOL    HW127650   6.042   5.465   8.662 -3.5031 -0.7654 -1.6832
 7186SOL    HW227651   6.060   5.354   8.764  1.0852  0.9248 -0.4293
 7187SOL     OW27652   7.157   9.131  10.423  0.3704  0.8013 -0.5545
 7187SOL    HW127653   7.193   9.051  10.460  1.9246  1.6542 -0.1540
 7187SOL    HW227654   7.097   9.164  10.490  0.5166  0.5263 -0.2860
 7188SOL     OW27655   9.972   1.660   0.011 -0.1378 -0.0893  0.0917
 7188SOL    HW127656  10.017   1.576   0.024 -1.7509 -0.6916  2.5797
 7188SOL    HW227657   9.896   1.638  -0.044  0.6762  0.2470 -1.2069
 7189SOL     OW27658   3.122  10.383   3.911 -0.6454  0.6389 -0.2833
 7189SOL    HW127659   3.111  10.440   3.835  2.2535 -1.2018 -2.2759
 7189SOL    HW227660   3.057  10.313   3.899 -1.6617  1.4766  0.1656
 7190SOL     OW27661   9.230   3.565   2.129  0.1040  0.2888 -0.1389
 7190SOL    HW127662   9.252   3.611   2.210  0.1386 -0.8209  0.4992
 7190SOL    HW227663   9.255   3.626   2.059 -0.5693  1.5382  0.6885
 7191SOL     OW27664   5.543   1.565   2.286 -0.4022 -0.2835 -0.4399
 7191SOL    HW127665   5.523   1.484   2.334 -4.6421  0.7670  0.0026
 7191SOL    HW227666   5.477   1.568   2.216 -1.1202  3.1976  0.2058
 7192SOL     OW27667   7.884   6.175   2.355 -0.4724  0.1097 -0.0857
 7192SOL    HW127668   7.910   6.094   2.400  0.6096 -1.0129 -2.5205
 7192SOL    HW227669   7.943   6.242   2.389  1.5990 -1.1170 -1.0672
 7193SOL     OW27670   4.278   2.607   1.386  0.2831  0.1878  0.6105
 7193SOL    HW127671   4.319   2.654   1.458  0.5839 -0.4473  0.8636
 7193SOL    HW227672   4.242   2.528   1.427  1.7410 -0.9268 -0.1533
 7194SOL     OW27673   0.792   2.626   9.389  0.6303  0.3427 -0.0893
 7194SOL    HW127674   0.720   2.662   9.439  2.4525  1.8598  1.6181
 7194SOL    HW227675   0.850   2.701   9.372  2.7321 -1.0947  0.3079
 7195SOL     OW27676   5.946   7.238   0.863 -0.6474 -0.2406  0.0342
 7195SOL    HW127677   5.927   7.320   0.910  1.9668  0.4255  0.1219
 7195SOL    HW227678   5.885   7.175   0.899 -2.9315  1.6970 -0.2039
 7196SOL     OW27679  10.007   2.740  10.914 -0.0179  0.3087  0.2195
 7196SOL    HW127680  10.050   2.654  10.910  0.3974  0.5250  0.0037
 7196SOL    HW227681   9.950   2.734  10.990  0.7492  0.1838  0.7957
 7197SOL     OW27682   5.958  10.753   2.953 -0.3647 -0.5471 -0.7006
 7197SOL    HW127683   5.973  10.734   2.860  1.9756 -0.0453 -0.4777
 7197SOL    HW227684   5.930  10.669   2.990  1.2615 -1.4377 -1.3900
 7198SOL     OW27685   6.307   6.935   0.991 -0.2421 -0.1802  0.2702
 7198SOL    HW127686   6.253   7.012   0.975 -0.2995 -0.5727 -1.6518
 7198SOL    HW227687   6.397   6.965   0.978 -0.1792 -0.1487  0.7700
 7199SOL     OW27688   6.556   4.348  10.180  0.4687  0.5640 -0.2261
 7199SOL    HW127689   6.461   4.348  10.165  0.2606 -1.8551  0.7981
 7199SOL    HW227690   6.573   4.434  10.220 -1.3851  0.7825  0.1910
 7200SOL     OW27691  10.775   1.628   6.340  0.0095 -0.5892 -0.4745
 7200SOL    HW127692  10.812   1.683   6.409  0.6627 -0.1899 -1.1311
 7200SOL    HW227693  10.695   1.674   6.312 -0.6411 -1.1062  0.4775
 7201SOL     OW27694   8.121   8.833   1.554  0.6533  0.3923 -0.2692
 7201SOL    HW127695   8.095   8.918   1.518 -2.6408 -0.9757 -1.5321
 7201SOL    HW227696   8.041   8.798   1.593  1.0080 -3.2668 -2.2851
 7202SOL     OW27697   4.137  10.652  10.835  0.1843  0.3580  0.5010
 7202SOL    HW127698   4.203  10.589  10.806 -0.1313  0.5359 -0.6514
 7202SOL    HW227699   4.138  10.720  10.768 -0.9617  0.5103  0.6239
 7203SOL     OW27700   2.014   3.301   1.194  0.1333  0.1998 -0.0740
 7203SOL    HW127701   1.932   3.329   1.235 -0.9772 -2.8518  0.0908
 7203SOL    HW227702   2.007   3.330   1.103  0.5606  3.0511  0.7116
 7204SOL     OW27703   3.121   9.954   6.907  0.0809  0.1522 -0.2284
 7204SOL    HW127704   3.158   9.890   6.967  1.0152  0.7958 -0.1012
 7204SOL    HW227705   3.180  10.030   6.912 -0.4011  0.6180 -1.1758
 7205SOL     OW27706   1.039  10.905   6.215 -0.0600  0.1101 -0.1173
 7205SOL    HW127707   1.018  10.911   6.308  0.4442  0.5029 -0.0206
 7205SOL    HW227708   1.036  10.995   6.184 -3.2382 -0.2646 -1.2007
 7206SOL     OW27709   9.457   0.429   3.981 -0.2032  0.1539 -0.3926
 7206SOL    HW127710   9.398   0.447   3.907  1.0353 -1.3890 -1.8421
 7206SOL    HW227711   9.460   0.334   3.986  2.2997  0.1525 -0.5459
 7207SOL     OW27712  10.431   9.955   3.638  0.0308  0.0001  0.2072
 7207SOL    HW127713  10.439   9.895   3.712  0.4921  1.3655  1.3034
 7207SOL    HW227714  10.416  10.041   3.678 -0.2725  0.6830 -1.3022
 7208SOL     OW27715   3.752   2.411   6.537 -0.1945 -0.3687  0.0011
 7208SOL    HW127716   3.816   2.420   6.608 -0.4430 -0.2381  0.2101
 7208SOL    HW227717   3.680   2.361   6.576 -0.6014  0.2242  0.0267
 7209SOL     OW27718   6.809   0.525   3.896 -0.0082 -0.2353 -0.8203
 7209SOL    HW127719   6.840   0.600   3.845  1.6143 -1.5455 -1.8463
 7209SOL    HW227720   6.850   0.536   3.982  1.0981 -0.4909 -1.3058
 7210SOL     OW27721   9.438   0.722   9.732  0.0015 -0.0991  1.0939
 7210SOL    HW127722   9.472   0.633   9.745 -1.6595 -0.9814 -0.2246
 7210SOL    HW227723   9.405   0.748   9.818 -0.4977 -1.2282  1.2638
 7211SOL     OW27724   2.747   5.957   5.810 -0.0096  0.2126 -0.1801
 7211SOL    HW127725   2.813   6.004   5.862 -0.6225 -1.0695  1.8900
 7211SOL    HW227726   2.666   5.968   5.860 -0.1852 -2.9339  0.4011
 7212SOL     OW27727   9.904   3.335   8.848  0.0460 -0.0432  0.0661
 7212SOL    HW127728   9.989   3.338   8.805 -0.2160  0.4093 -0.4243
 7212SOL    HW227729   9.849   3.281   8.791  0.0589 -0.5069  0.4860
 7213SOL     OW27730   6.092   3.015   3.594  0.1477  0.4322 -0.0782
 7213SOL    HW127731   6.008   3.018   3.640  0.1159 -0.7436 -0.0149
 7213SOL    HW227732   6.104   2.922   3.572  1.7685  0.4606  0.5501
 7214SOL     OW27733   7.455   4.202   7.362 -0.0339  0.4017 -0.2493
 7214SOL    HW127734   7.368   4.220   7.398  1.1808  0.4324  3.0392
 7214SOL    HW227735   7.476   4.281   7.312 -1.7576  0.4759 -0.9520
 7215SOL     OW27736   4.602  10.727   6.835 -0.0249  0.4461 -0.1420
 7215SOL    HW127737   4.527  10.709   6.892  0.5569 -0.3323  0.3914
 7215SOL    HW227738   4.677  10.725   6.894  0.5532 -0.0561 -0.8833
 7216SOL     OW27739   5.388   1.856   0.678 -0.5326  0.4628 -0.1006
 7216SOL    HW127740   5.402   1.845   0.772  0.6255  1.6138 -0.1003
 7216SOL    HW227741   5.317   1.921   0.672 -1.4247 -0.4737 -0.0592
 7217SOL     OW27742   4.887   6.485   0.394  0.4934  0.1598  0.6099
 7217SOL    HW127743   4.889   6.453   0.484 -1.7979  0.4638  0.8118
 7217SOL    HW227744   4.980   6.493   0.370  1.2905 -4.1010  1.3952
 7218SOL     OW27745   8.412   7.943  10.444  0.1387 -0.2178  0.0140
 7218SOL    HW127746   8.416   8.025  10.493  1.1438 -0.1846 -0.0955
 7218SOL    HW227747   8.500   7.907  10.450  0.1405 -0.4884 -1.2996
 7219SOL     OW27748   1.806   9.260   6.277  0.4175  0.3842  0.1644
 7219SOL    HW127749   1.766   9.251   6.191  1.9462  0.2963 -0.5756
 7219SOL    HW227750   1.744   9.311   6.328 -0.4892  0.4786 -1.0018
 7220SOL     OW27751   4.129   0.491   6.433 -1.1160 -0.1340  0.0319
 7220SOL    HW127752   4.110   0.567   6.378  0.2925  0.2449  0.0389
 7220SOL    HW227753   4.212   0.512   6.476 -0.7308 -1.6468  0.0861
 7221SOL     OW27754   5.145   5.476   4.644  0.8092  0.3360  0.1027
 7221SOL    HW127755   5.172   5.392   4.609  0.7068 -0.3831  1.6495
 7221SOL    HW227756   5.196   5.541   4.596  1.9612 -0.7025 -0.0974
 7222SOL     OW27757   4.840   8.357   6.695  0.2024  0.2855 -0.6324
 7222SOL    HW127758   4.870   8.393   6.778 -0.6611 -1.2508  0.4134
 7222SOL    HW227759   4.844   8.430   6.633  0.7110  1.5066  0.7919
 7223SOL     OW27760   6.801   5.680   7.356 -0.7449  0.5287 -0.3862
 7223SOL    HW127761   6.892   5.707   7.365 -0.2228 -1.6423  2.1215
 7223SOL    HW227762   6.804   5.606   7.295 -0.2299 -1.6128  2.0872
 7224SOL     OW27763   9.940  10.219   1.827  0.6739  0.0843  0.3353
 7224SOL    HW127764   9.973  10.129   1.831  0.5005  0.0504  2.9256
 7224SOL    HW227765   9.949  10.244   1.735  0.6573 -2.5859 -0.4769
 7225SOL     OW27766  10.447   5.673   9.705 -0.3820  0.1655 -0.1848
 7225SOL    HW127767  10.495   5.741   9.657 -0.9586  0.8996  0.2481
 7225SOL    HW227768  10.471   5.592   9.661 -1.5110  0.8795 -2.3066
 7226SOL     OW27769   1.404   0.234   3.326 -0.0844 -0.1555  0.3629
 7226SOL    HW127770   1.406   0.149   3.282 -0.1268  1.0160 -2.0700
 7226SOL    HW227771   1.312   0.253   3.339 -0.0608 -0.9934  2.1352
 7227SOL     OW27772   0.654   4.226   7.906  0.6813  0.2430  0.0452
 7227SOL    HW127773   0.644   4.139   7.945 -0.5499  0.7612  0.9476
 7227SOL    HW227774   0.749   4.238   7.901  0.8774 -0.7325  0.8952
 7228SOL     OW27775   2.018   0.582   1.515 -0.5518  0.5473 -0.1813
 7228SOL    HW127776   2.069   0.572   1.434 -1.1974  0.2932 -0.5681
 7228SOL    HW227777   2.043   0.506   1.568  2.7054  2.5563  1.5109
 7229SOL     OW27778   4.325   3.210   6.829  0.8292  0.3716  0.0180
 7229SOL    HW127779   4.244   3.215   6.880  0.8861  0.6311  0.0854
 7229SOL    HW227780   4.385   3.160   6.884 -0.0859 -2.0856 -1.1067
 7230SOL     OW27781   0.396   8.002   9.510  0.5409  0.1351  0.1751
 7230SOL    HW127782   0.417   8.027   9.600  0.5386  1.6774 -0.2216
 7230SOL    HW227783   0.405   8.083   9.460  0.3883 -0.6592 -1.1965
 7231SOL     OW27784   2.138   5.357   5.464 -0.2680 -0.4818 -0.4308
 7231SOL    HW127785   2.171   5.279   5.420 -1.4575 -1.4819  0.3667
 7231SOL    HW227786   2.192   5.365   5.543 -1.3746 -1.6675  0.4822
 7232SOL     OW27787   4.947  10.161   4.596 -0.3558 -0.6835  0.4530
 7232SOL    HW127788   5.022  10.179   4.539 -0.2578 -0.0799  0.7613
 7232SOL    HW227789   4.880  10.222   4.566 -0.0567  0.1519  1.4561
 7233SOL     OW27790   6.818   1.490   1.453 -0.4824 -0.4565  0.1024
 7233SOL    HW127791   6.818   1.395   1.463 -1.0839 -0.4314  0.3720
 7233SOL    HW227792   6.786   1.523   1.537  0.3644  0.0157  0.2465
 7234SOL     OW27793   4.514   5.063   1.204 -0.2755 -0.2423 -0.4169
 7234SOL    HW127794   4.438   5.103   1.162  0.4789  0.5896 -1.0189
 7234SOL    HW227795   4.557   5.136   1.249 -0.7082 -0.9937  1.2869
 7235SOL     OW27796   0.137  10.822   0.860 -0.0635  0.4471  0.0834
 7235SOL    HW127797   0.042  10.835   0.867 -0.2117 -0.4740 -0.0732
 7235SOL    HW227798   0.147  10.767   0.782  0.5132 -0.3381  0.7001
 7236SOL     OW27799   5.290   2.101   0.311 -0.5955  0.2330 -0.0628
 7236SOL    HW127800   5.220   2.080   0.250 -0.3146 -1.3008  0.1009
 7236SOL    HW227801   5.362   2.041   0.288  0.5246  1.4755  0.0438
 7237SOL     OW27802   0.674   7.523   3.756 -0.3171  0.1765 -0.0509
 7237SOL    HW127803   0.637   7.502   3.670 -2.7157  1.2687  0.6355
 7237SOL    HW227804   0.722   7.605   3.742 -1.9158  1.1429 -0.1137
 7238SOL     OW27805   7.730   6.284   4.790 -0.1333 -0.0021  0.0731
 7238SOL    HW127806   7.753   6.252   4.877 -0.8249  0.6317  0.4954
 7238SOL    HW227807   7.727   6.205   4.736  0.7113 -0.3551  0.5173
 7239SOL     OW27808   7.558   3.364   3.496 -0.4066  0.2125 -0.6172
 7239SOL    HW127809   7.486   3.301   3.491 -0.4717  0.2357 -0.0692
 7239SOL    HW227810   7.609   3.335   3.571  0.1778  0.1810 -1.0208
 7240SOL     OW27811   8.102   2.500  10.318  0.3219  0.4754  0.1976
 7240SOL    HW127812   8.177   2.525  10.264 -0.1428  2.2426  0.3067
 7240SOL    HW227813   8.058   2.582  10.338 -1.2239 -0.4415  0.7781
 7241SOL     OW27814   5.664   2.245  10.801 -0.1076  0.0991 -0.0972
 7241SOL    HW127815   5.725   2.278  10.735  0.3090 -2.2819 -1.0333
 7241SOL    HW227816   5.588   2.216  10.751 -0.1892 -0.8625  0.5550
 7242SOL     OW27817   0.910   2.190   6.574  0.1098  0.3638 -0.2136
 7242SOL    HW127818   0.909   2.147   6.488  1.2495  1.9773 -1.1134
 7242SOL    HW227819   0.941   2.123   6.634 -0.2610 -0.6836 -1.1576
 7243SOL     OW27820   5.274   1.638  10.007  0.2100 -0.2743 -0.2296
 7243SOL    HW127821   5.269   1.696   9.931  0.0542 -0.4938 -0.3931
 7243SOL    HW227822   5.216   1.565   9.984 -2.2901  1.0807  1.3537
 7244SOL     OW27823   7.792   8.800   2.921 -0.0894 -0.4341  0.1429
 7244SOL    HW127824   7.822   8.802   2.831 -1.4089  1.5603 -0.3301
 7244SOL    HW227825   7.708   8.754   2.918 -0.0572 -0.5111  0.3831
 7245SOL     OW27826   9.896   1.777   9.085  0.5998 -0.0939  0.6821
 7245SOL    HW127827   9.953   1.745   9.154  1.5995 -1.7286 -0.8105
 7245SOL    HW227828   9.955   1.804   9.015 -0.3801 -2.2144 -1.0763
 7246SOL     OW27829   4.498   3.652   8.628  0.2326 -0.6135 -0.1585
 7246SOL    HW127830   4.504   3.588   8.557 -1.5677 -0.3066 -0.6368
 7246SOL    HW227831   4.414   3.634   8.670 -1.0958  2.3166 -1.2795
 7247SOL     OW27832   2.856  10.325   4.936 -0.3606 -0.5064  0.6218
 7247SOL    HW127833   2.860  10.247   4.880 -1.1887  0.0243 -0.2182
 7247SOL    HW227834   2.885  10.397   4.879 -0.8546 -0.0090  0.9821
 7248SOL     OW27835   1.290   1.195  10.450  0.6483 -0.1920  0.1319
 7248SOL    HW127836   1.279   1.288  10.471  0.4241  0.2395 -1.6758
 7248SOL    HW227837   1.305   1.152  10.534  0.0639  1.3797  1.0696
 7249SOL     OW27838  10.540   2.078   8.044  0.0428 -0.6825 -0.1802
 7249SOL    HW127839  10.537   2.163   8.087  0.3869 -0.2218 -1.0404
 7249SOL    HW227840  10.574   2.018   8.111 -0.1596 -0.1386  0.4145
 7250SOL     OW27841   2.975  10.908   0.047 -0.0378 -0.1992  0.0796
 7250SOL    HW127842   3.055  10.898  -0.004  0.3628 -2.9554  1.0900
 7250SOL    HW227843   2.919  10.964  -0.007  2.0344  0.7585 -1.2319
 7251SOL     OW27844   9.607   7.168   2.798  0.0494 -0.4306  0.4807
 7251SOL    HW127845   9.663   7.241   2.771  0.6533 -1.6245 -1.7587
 7251SOL    HW227846   9.667   7.100   2.826 -0.5055 -0.1714  2.4255
 7252SOL     OW27847   2.451   2.313   9.150  0.5792 -0.6087 -0.0218
 7252SOL    HW127848   2.370   2.325   9.199 -0.0053  0.0478 -1.1117
 7252SOL    HW227849   2.479   2.401   9.127 -1.6800 -0.8291 -4.7731
 7253SOL     OW27850   2.882   3.098   1.494  0.3425  0.0813 -0.0419
 7253SOL    HW127851   2.853   3.012   1.465 -0.6977 -0.0873  1.4118
 7253SOL    HW227852   2.862   3.156   1.421  1.3620 -0.9238 -1.1759
 7254SOL     OW27853   0.858   2.848   8.185 -0.2682  0.0881  0.4760
 7254SOL    HW127854   0.831   2.924   8.133  0.7315  0.5114  0.5563
 7254SOL    HW227855   0.935   2.814   8.140  0.8741  0.7054  1.8646
 7255SOL     OW27856   3.331   9.082  10.150 -0.1429 -0.2459  0.2876
 7255SOL    HW127857   3.369   9.071  10.063 -1.2115 -3.6418  0.0842
 7255SOL    HW227858   3.392   9.036  10.208 -1.2582 -1.2823  0.6986
 7256SOL     OW27859   1.043   0.433   1.192 -0.1285  0.1368 -0.3922
 7256SOL    HW127860   0.988   0.365   1.155 -0.7477 -0.7980  2.0597
 7256SOL    HW227861   1.117   0.386   1.231 -0.6691  0.8035  1.5298
 7257SOL     OW27862  10.331   3.610   6.487 -0.2099 -0.7248  0.5326
 7257SOL    HW127863  10.284   3.557   6.551 -1.3419 -0.1170  0.2252
 7257SOL    HW227864  10.264   3.666   6.448  1.0321  1.5243  1.3977
 7258SOL     OW27865   8.474   1.742   2.246  0.2321  0.1865  0.8509
 7258SOL    HW127866   8.380   1.727   2.231  0.4517  0.1070 -0.5898
 7258SOL    HW227867   8.517   1.688   2.180  1.2807  0.8184  1.0048
 7259SOL     OW27868  10.328   6.976   6.155 -0.0229 -0.1912  0.1461
 7259SOL    HW127869  10.339   6.891   6.113 -1.2119 -0.6163  0.6497
 7259SOL    HW227870  10.392   7.033   6.112  1.7081 -1.6312  0.6767
 7260SOL     OW27871   5.539   6.064   8.845 -0.1590  0.4342  0.2278
 7260SOL    HW127872   5.593   6.140   8.866 -0.7426  0.9403 -0.0432
 7260SOL    HW227873   5.451   6.090   8.873 -0.9934  1.1350 -2.6644
 7261SOL     OW27874   3.325   1.007   1.732  0.0090 -0.4662 -0.0459
 7261SOL    HW127875   3.329   0.937   1.797  0.3748 -0.6141 -0.2196
 7261SOL    HW227876   3.321   0.961   1.648  0.3801 -0.2838 -0.1664
 7262SOL     OW27877   2.652   6.327  10.485  0.3781 -0.6803 -0.6011
 7262SOL    HW127878   2.622   6.417  10.471  0.1788 -0.8101 -1.0165
 7262SOL    HW227879   2.586   6.272  10.441  0.9460 -0.9919 -1.0717
 7263SOL     OW27880   3.864   1.297   8.525 -0.0285 -0.1891  0.4367
 7263SOL    HW127881   3.943   1.284   8.473  0.1590  1.0993  0.3777
 7263SOL    HW227882   3.886   1.264   8.612 -0.0962 -1.6586 -0.0772
 7264SOL     OW27883   3.980   6.465   9.791  0.4001 -0.1546  0.6535
 7264SOL    HW127884   3.903   6.517   9.815  0.0164 -0.2239 -0.4079
 7264SOL    HW227885   4.038   6.526   9.746 -0.3196 -0.7374 -1.1530
 7265SOL     OW27886  10.479   0.190   0.021  0.2701  0.1989 -0.0267
 7265SOL    HW127887  10.521   0.146   0.095  1.1953  1.7438  0.4050
 7265SOL    HW227888  10.551   0.223  -0.032 -0.3686  1.3596 -0.2140
 7266SOL     OW27889   0.237   7.286   1.504  0.4201 -0.3976 -0.3623
 7266SOL    HW127890   0.165   7.302   1.566  0.1419  0.9019 -0.9976
 7266SOL    HW227891   0.194   7.255   1.425  0.6437 -0.5122 -0.4393
 7267SOL     OW27892   3.916   1.350   8.204  0.1464  0.1505 -0.3287
 7267SOL    HW127893   3.934   1.327   8.113  0.4359  0.9850 -0.4908
 7267SOL    HW227894   3.828   1.316   8.220 -0.4184  1.0625 -1.3210
 7268SOL     OW27895   6.252   4.493   3.589  0.3660 -0.2879 -0.6248
 7268SOL    HW127896   6.308   4.439   3.644 -1.3210 -1.4144  0.0803
 7268SOL    HW227897   6.241   4.575   3.638 -0.3863 -0.9340  0.3081
 7269SOL     OW27898   0.984   8.333   0.497  0.0898  0.2124 -0.3124
 7269SOL    HW127899   0.952   8.265   0.438  0.1302 -1.1280  1.1675
 7269SOL    HW227900   1.077   8.341   0.475  0.2652 -0.7779  0.0377
 7270SOL     OW27901  10.398   1.008   1.878 -0.4010  0.1572  0.6452
 7270SOL    HW127902  10.387   0.925   1.923  0.6587  0.2666  1.1222
 7270SOL    HW227903  10.458   0.989   1.806  0.8120  0.7462  1.4757
 7271SOL     OW27904   1.790   2.484   7.649 -0.6010 -0.3858 -0.7725
 7271SOL    HW127905   1.781   2.479   7.554  0.0173 -0.1236 -0.8486
 7271SOL    HW227906   1.877   2.521   7.663 -0.6020 -0.6233 -0.1010
 7272SOL     OW27907   7.275   6.731   7.979 -0.4000 -0.2615 -0.2733
 7272SOL    HW127908   7.299   6.678   8.055  0.8797  1.0756  0.2900
 7272SOL    HW227909   7.223   6.672   7.925 -0.3935 -1.5894  1.0985
 7273SOL     OW27910   1.692   8.660   9.063 -0.0651  0.2616 -0.1865
 7273SOL    HW127911   1.698   8.738   9.120  0.3837 -0.0536  0.2065
 7273SOL    HW227912   1.613   8.675   9.011 -0.0321  0.9437 -0.0558
 7274SOL     OW27913   5.473   1.986   5.921  0.2975 -0.5378  0.2988
 7274SOL    HW127914   5.563   1.969   5.892  0.2731 -2.3625  1.1995
 7274SOL    HW227915   5.418   1.944   5.855  0.0264  1.2307 -0.6745
 7275SOL     OW27916   6.251   5.942   7.543  0.3975 -0.4751 -0.3916
 7275SOL    HW127917   6.158   5.949   7.520  0.2410 -1.9310 -0.3126
 7275SOL    HW227918   6.295   6.008   7.489 -0.7816  0.9467  0.3145
 7276SOL     OW27919   1.543   3.342   5.973 -0.8385 -0.1902 -0.2539
 7276SOL    HW127920   1.591   3.421   5.947  0.6651 -1.1302 -0.4182
 7276SOL    HW227921   1.530   3.293   5.892  2.2036 -2.2160  0.3128
 7277SOL     OW27922   0.317   5.919   6.407 -0.4150  0.6685 -0.0278
 7277SOL    HW127923   0.261   5.853   6.367 -0.3493  0.4658  0.2101
 7277SOL    HW227924   0.346   5.880   6.489  1.8714 -0.1512 -1.1407
 7278SOL     OW27925   3.719   2.269   8.582  0.0994 -0.5154  0.1971
 7278SOL    HW127926   3.732   2.175   8.596 -0.9622 -0.6891  0.1336
 7278SOL    HW227927   3.734   2.281   8.488 -1.0440 -0.8750 -0.0500
 7279SOL     OW27928  10.288   8.907   4.341 -0.4244 -0.1182  0.5711
 7279SOL    HW127929  10.274   8.951   4.256  1.6971  1.8843  1.1372
 7279SOL    HW227930  10.257   8.818   4.327 -0.1789  0.1325 -2.3367
 7280SOL     OW27931   6.468   3.123   4.615 -0.5641  1.0733  0.0817
 7280SOL    HW127932   6.394   3.073   4.651  0.2681  0.6254  1.2286
 7280SOL    HW227933   6.483   3.193   4.679  0.6888  0.5147  0.4182
 7281SOL     OW27934   3.238  10.598   0.829 -0.4315  0.5242 -0.2816
 7281SOL    HW127935   3.238  10.694   0.823  1.3355  0.6017  0.3714
 7281SOL    HW227936   3.217  10.580   0.921 -0.2047  0.3116 -0.2690
 7282SOL     OW27937   0.227   9.904   3.470 -0.7636  0.0167 -0.0195
 7282SOL    HW127938   0.294   9.926   3.405 -1.6460  1.4462 -0.4931
 7282SOL    HW227939   0.223   9.980   3.528 -1.8019 -0.1347  0.1388
 7283SOL     OW27940   8.945   4.250   0.683  0.3892 -0.4941  0.7066
 7283SOL    HW127941   9.033   4.283   0.665  0.7007 -1.0509  1.1716
 7283SOL    HW227942   8.952   4.209   0.769 -0.1100 -1.3111  0.3680
 7284SOL     OW27943   8.546  10.079   3.408  0.0414 -0.5468 -0.0993
 7284SOL    HW127944   8.523  10.159   3.360  0.8050 -0.9890 -1.2427
 7284SOL    HW227945   8.615  10.106   3.469  0.6653 -0.4212 -0.8479
 7285SOL     OW27946   8.935   8.711   7.759  0.1008  0.0109  0.1522
 7285SOL    HW127947   9.003   8.774   7.784  0.5508 -0.6999  0.7279
 7285SOL    HW227948   8.863   8.729   7.819  0.4827 -0.4708  0.7538
 7286SOL     OW27949   3.974   5.393   0.380  0.2990  0.0088 -0.2058
 7286SOL    HW127950   3.974   5.489   0.383  1.0858 -0.0012  0.4159
 7286SOL    HW227951   4.067   5.369   0.385  0.1828 -0.7678 -1.2953
 7287SOL     OW27952   7.986   6.317   0.219  0.3877 -0.0595  0.7903
 7287SOL    HW127953   7.921   6.317   0.149 -0.9370  1.0304  1.9655
 7287SOL    HW227954   8.001   6.410   0.237  2.0844 -0.2996  0.7421
 7288SOL     OW27955   7.634   8.515   4.968  0.0539 -0.5250  0.0068
 7288SOL    HW127956   7.580   8.595   4.968 -0.5308 -0.9102  0.0080
 7288SOL    HW227957   7.617   8.475   4.883  1.3702  0.0141 -0.5356
 7289SOL     OW27958   1.807   6.739  10.380 -0.3126 -0.3363 -0.4565
 7289SOL    HW127959   1.892   6.774  10.406 -1.5905  2.7238  0.0058
 7289SOL    HW227960   1.767   6.808  10.327 -2.2042 -2.0124 -1.3665
 7290SOL     OW27961   1.050   7.615   4.567 -1.0291 -0.0173 -0.0289
 7290SOL    HW127962   1.021   7.621   4.476 -1.6872 -1.2545  0.0747
 7290SOL    HW227963   1.129   7.562   4.565 -1.5470 -0.8211  0.1955
 7291SOL     OW27964   5.886   7.817   1.409 -0.3875 -0.0912  0.0301
 7291SOL    HW127965   5.820   7.854   1.467 -2.0804 -1.2083 -1.0905
 7291SOL    HW227966   5.841   7.745   1.365  1.5989 -0.8932 -0.7866
 7292SOL     OW27967   0.238  10.819   7.678 -0.3945  0.4289 -0.4854
 7292SOL    HW127968   0.332  10.808   7.662 -0.0779  1.3914  0.5612
 7292SOL    HW227969   0.211  10.888   7.617 -0.0857  1.1942  0.2248
 7293SOL     OW27970   8.828   1.526   5.874  0.1043 -0.6231 -0.2770
 7293SOL    HW127971   8.802   1.523   5.782  0.3494 -1.8837 -0.3165
 7293SOL    HW227972   8.747   1.513   5.923 -0.2545  1.3298 -0.2440
 7294SOL     OW27973   5.264   1.818   7.285 -0.0870 -0.3827  0.2220
 7294SOL    HW127974   5.335   1.868   7.326 -0.1785  1.4349 -1.6811
 7294SOL    HW227975   5.290   1.812   7.193 -1.7683 -0.8829 -0.2447
 7295SOL     OW27976   1.635   2.979   8.903 -0.8911 -0.4576 -0.0300
 7295SOL    HW127977   1.594   2.953   8.821  1.8734  0.9447 -2.0200
 7295SOL    HW227978   1.729   2.977   8.885 -0.2278  1.8494  2.4523
 7296SOL     OW27979   1.172   5.438   0.848 -0.1102 -0.2020  0.1264
 7296SOL    HW127980   1.265   5.418   0.831 -0.1001  1.6616 -2.7716
 7296SOL    HW227981   1.128   5.353   0.839  0.8688 -0.5302 -3.1536
 7297SOL     OW27982   9.289   8.182  10.612  0.2958  0.0463 -0.6138
 7297SOL    HW127983   9.316   8.133  10.690  0.6225 -0.2407 -0.9105
 7297SOL    HW227984   9.265   8.269  10.646  0.8453  0.0609 -0.2502
 7298SOL     OW27985   1.321   1.309   7.814  0.1100  0.3061 -0.6044
 7298SOL    HW127986   1.331   1.347   7.726  0.0852 -1.5829 -1.4735
 7298SOL    HW227987   1.246   1.250   7.806  0.4788 -0.3450  0.5347
 7299SOL     OW27988   4.950   0.258   5.753  0.5666 -0.3857  0.2288
 7299SOL    HW127989   4.908   0.213   5.680  2.6029 -1.1689 -0.5318
 7299SOL    HW227990   4.965   0.190   5.819  1.6953 -0.4130 -0.0273
 7300SOL     OW27991   9.820   7.475   8.272  0.0407  0.2673 -0.2279
 7300SOL    HW127992   9.761   7.535   8.316  0.3904 -0.7267  1.7452
 7300SOL    HW227993   9.766   7.430   8.207 -1.1922 -0.0239  0.9516
 7301SOL     OW27994   5.633   7.401   8.341 -0.4605 -0.0565 -0.0234
 7301SOL    HW127995   5.623   7.367   8.252 -0.7707 -1.9851  0.6982
 7301SOL    HW227996   5.652   7.494   8.330 -0.5225 -0.2598 -2.0941
 7302SOL     OW27997  10.528   9.290   0.722 -0.4930 -0.1465  0.6840
 7302SOL    HW127998  10.520   9.335   0.638  1.3248 -0.0191  0.5293
 7302SOL    HW227999  10.621   9.298   0.744 -0.8860 -0.4231  2.5777
 7303SOL     OW28000   6.883  10.129   9.861  0.1893  0.7634  0.3685
 7303SOL    HW128001   6.927  10.188   9.799  0.1183  0.2258 -0.2157
 7303SOL    HW228002   6.888  10.173   9.945  1.9666  0.6856  0.3568
 7304SOL     OW28003   0.848   9.251   6.556 -0.1101  0.2591  0.5657
 7304SOL    HW128004   0.891   9.206   6.630 -2.1822  1.0293  2.3242
 7304SOL    HW228005   0.765   9.205   6.545 -0.7777  1.5182  0.1548
 7305SOL     OW28006   9.031   1.933   4.811  0.1656  0.6100 -0.1798
 7305SOL    HW128007   9.056   1.847   4.844 -1.4430 -0.4755 -1.6068
 7305SOL    HW228008   9.092   1.994   4.853  1.0824 -1.1599  1.1880
 7306SOL     OW28009   8.959   9.997   8.673  0.0532  0.1685 -0.2298
 7306SOL    HW128010   8.939   9.978   8.581 -0.1687  1.5841 -0.4981
 7306SOL    HW228011   9.051  10.023   8.672  0.4329 -1.0643  0.1772
 7307SOL     OW28012  10.494   7.318   5.590 -0.0209 -0.1783  0.5442
 7307SOL    HW128013  10.419   7.328   5.532  0.0669  0.6130  0.5462
 7307SOL    HW228014  10.566   7.291   5.532  0.0734  0.6360  0.2692
 7308SOL     OW28015   0.871   8.090   0.381  0.4859 -0.1960  0.4078
 7308SOL    HW128016   0.789   8.062   0.422 -0.1004  0.3528 -0.3491
 7308SOL    HW228017   0.888   8.023   0.315  0.4340 -0.1025  0.2990
 7309SOL     OW28018   1.109   5.878   6.672  0.8263 -0.2249 -0.2635
 7309SOL    HW128019   1.050   5.951   6.693  0.3162  0.1477 -2.7325
 7309SOL    HW228020   1.052   5.802   6.670  1.1253 -0.5066  0.9644
 7310SOL     OW28021   8.952   3.788   1.265 -0.2130  0.3556  0.3028
 7310SOL    HW128022   8.933   3.814   1.175 -1.0661  2.1872  0.9610
 7310SOL    HW228023   8.977   3.696   1.259  2.0954  1.0413 -2.0823
 7311SOL     OW28024   2.403   5.817   7.113  0.4175  0.2789  0.1739
 7311SOL    HW128025   2.432   5.758   7.183  1.1873  1.0069  0.4873
 7311SOL    HW228026   2.472   5.884   7.108 -0.2906  0.9886 -0.3631
 7312SOL     OW28027   6.820   1.252   7.945 -0.1994  0.1444  0.3904
 7312SOL    HW128028   6.845   1.167   7.982  1.2611  0.6161  0.5396
 7312SOL    HW228029   6.889   1.270   7.880 -0.2700  1.4037  0.6565
 7313SOL     OW28030   3.210   6.625   9.012  0.6377 -0.2558 -0.0260
 7313SOL    HW128031   3.286   6.572   8.989  1.3114  0.6232  0.0850
 7313SOL    HW228032   3.213   6.630   9.108 -0.4461 -1.4668  0.0814
 7314SOL     OW28033   5.016  10.879   7.767 -0.0663 -0.0299 -0.0653
 7314SOL    HW128034   5.086  10.814   7.771  0.1682  0.2014 -0.4115
 7314SOL    HW228035   4.968  10.867   7.849  0.8092  0.2965  0.5145
 7315SOL     OW28036   8.572   2.001   3.240  0.0451  0.0637  0.5938
 7315SOL    HW128037   8.583   2.095   3.252  1.3813 -0.1708  1.4035
 7315SOL    HW228038   8.607   1.983   3.152  0.2800  0.2568  0.6471
 7316SOL     OW28039   1.719   3.206   8.213  0.5875 -0.1277 -0.1205
 7316SOL    HW128040   1.646   3.151   8.242 -0.2147  1.0418  0.1460
 7316SOL    HW228041   1.798   3.156   8.237 -0.1022 -1.4960 -0.5861
 7317SOL     OW28042   0.981   2.535   6.690  0.1691 -0.0392  0.3730
 7317SOL    HW128043   0.914   2.535   6.621  1.9339  1.6775 -1.4711
 7317SOL    HW228044   1.052   2.483   6.654  1.2844  1.2085  0.7180
 7318SOL     OW28045   9.831   4.943  10.838 -0.5447 -0.4336 -0.2231
 7318SOL    HW128046   9.863   5.020  10.790 -1.7534  0.7503  0.7831
 7318SOL    HW228047   9.849   4.869  10.780  2.0202  0.3837 -0.6051
 7319SOL     OW28048   5.035   3.661   1.565 -0.8812 -0.2049  0.0799
 7319SOL    HW128049   4.968   3.602   1.530 -0.7883 -0.0685 -0.3421
 7319SOL    HW228050   4.991   3.746   1.570 -1.5725 -0.6422  2.3954
 7320SOL     OW28051   7.486   9.082   6.273  0.3488 -0.4847 -0.1051
 7320SOL    HW128052   7.502   9.078   6.367  0.9550  2.0887 -0.0222
 7320SOL    HW228053   7.409   9.137   6.264 -0.5533 -1.8413 -1.1054
 7321SOL     OW28054   3.382   3.949   4.663  0.2535  0.4954 -0.7710
 7321SOL    HW128055   3.386   3.855   4.680  0.2405  0.5369 -0.5288
 7321SOL    HW228056   3.388   3.989   4.750 -0.6235  0.6973 -0.7961
 7322SOL     OW28057   6.721   0.852   6.567 -0.8349 -0.3555  0.5323
 7322SOL    HW128058   6.792   0.803   6.525  0.5467  2.0173 -0.1054
 7322SOL    HW228059   6.760   0.889   6.645 -1.7412 -0.0180  0.8406
 7323SOL     OW28060   1.707   4.349   1.708  0.5050  0.1112  0.1112
 7323SOL    HW128061   1.675   4.305   1.786  0.7430  0.0487  0.1755
 7323SOL    HW228062   1.766   4.417   1.741 -0.8310  1.3510  0.0856
 7324SOL     OW28063   5.824   9.009   9.306  0.5036  0.0198 -0.0307
 7324SOL    HW128064   5.758   9.042   9.244  0.7107  2.9730  1.1582
 7324SOL    HW228065   5.905   9.007   9.255  0.2329  0.1342 -0.4791
 7325SOL     OW28066   2.744   1.799   5.837  0.4889  0.0818 -0.2617
 7325SOL    HW128067   2.751   1.812   5.931  0.2186 -0.7476 -0.1196
 7325SOL    HW228068   2.799   1.723   5.818 -2.0794 -1.9017 -0.2301
 7326SOL     OW28069   8.282  10.279   4.493 -0.0043 -0.3238 -0.3864
 7326SOL    HW128070   8.282  10.208   4.557 -0.4529 -0.6712 -0.7683
 7326SOL    HW228071   8.263  10.236   4.410 -0.8286  0.3146 -0.5410
 7327SOL     OW28072  10.729   1.037   6.665  0.1933 -0.4375  0.1288
 7327SOL    HW128073  10.776   0.954   6.675 -0.4192 -0.8538 -0.4111
 7327SOL    HW228074  10.798   1.102   6.651  0.6504 -0.9327  0.0414
 7328SOL     OW28075   2.641   4.643   5.759  0.1169  0.3647  0.8648
 7328SOL    HW128076   2.675   4.559   5.790 -2.0902  0.5480  4.2725
 7328SOL    HW228077   2.705   4.707   5.789  1.2718  0.0518 -0.8192
 7329SOL     OW28078   6.552  10.528   0.487 -0.0594  0.0816 -0.4704
 7329SOL    HW128079   6.531  10.443   0.447 -0.5899 -0.9638  1.8975
 7329SOL    HW228080   6.540  10.591   0.415 -1.7863 -1.5884 -1.7631
 7330SOL     OW28081   2.169   0.356  10.111  0.3476 -0.1950  0.8376
 7330SOL    HW128082   2.185   0.264  10.091  1.1428  0.4880 -2.0839
 7330SOL    HW228083   2.102   0.383  10.049  4.3616  2.5941 -2.9085
 7331SOL     OW28084   1.314   1.078   1.277 -0.2525 -0.3888 -0.0085
 7331SOL    HW128085   1.254   1.055   1.348 -1.8386 -0.3320 -1.2979
 7331SOL    HW228086   1.383   1.129   1.320 -0.5925 -1.2627  1.6518
 7332SOL     OW28087   0.727   5.689   0.221 -0.2437 -0.1203 -1.0337
 7332SOL    HW128088   0.691   5.778   0.218  0.0967 -0.0110 -2.5484
 7332SOL    HW228089   0.654   5.635   0.251 -0.4356  0.6559 -0.0157
 7333SOL     OW28090   7.670   5.455  10.088 -0.4879  0.4051  0.4069
 7333SOL    HW128091   7.705   5.376  10.129 -0.7011 -0.6422 -1.3511
 7333SOL    HW228092   7.740   5.487  10.032 -0.6871  1.0267  0.4978
 7334SOL     OW28093   0.436   5.904   8.639  0.5388 -0.5002  0.5892
 7334SOL    HW128094   0.480   5.842   8.698 -0.1666 -0.0590  1.6034
 7334SOL    HW228095   0.471   5.883   8.553  1.6607 -1.1178  1.1648
 7335SOL     OW28096   9.810   1.227   9.460  0.2671 -0.0052  0.2514
 7335SOL    HW128097   9.841   1.252   9.547  1.6120  0.4278 -0.3061
 7335SOL    HW228098   9.889   1.229   9.406 -0.9416  2.6344 -1.6225
 7336SOL     OW28099   4.967   4.837   0.756  0.1145 -0.8545 -0.0949
 7336SOL    HW128100   4.999   4.809   0.670  1.1534 -0.4338  0.1488
 7336SOL    HW228101   4.872   4.832   0.748  0.1680 -0.1616 -1.4999
 7337SOL     OW28102   4.133   7.674   5.973  0.1978 -0.3251  0.1326
 7337SOL    HW128103   4.085   7.722   6.041  0.7048 -0.9407  0.9425
 7337SOL    HW228104   4.099   7.709   5.891 -3.4650 -2.3718  0.5584
 7338SOL     OW28105   7.752   1.508   8.259 -0.1411  0.4138 -0.1414
 7338SOL    HW128106   7.711   1.593   8.273 -0.7878  0.1845 -0.6106
 7338SOL    HW228107   7.683   1.453   8.223  0.8824  0.3674 -2.1912
 7339SOL     OW28108   6.872   3.113   6.318  0.3236  0.0239 -0.6179
 7339SOL    HW128109   6.951   3.061   6.307  1.3976  1.3619  0.4561
 7339SOL    HW228110   6.826   3.072   6.391  2.2759  1.7588  1.7466
 7340SOL     OW28111   5.632   1.071   5.063 -0.0569  0.1878 -0.0652
 7340SOL    HW128112   5.575   1.084   5.138 -0.5170  0.4788 -0.4640
 7340SOL    HW228113   5.586   1.112   4.990  0.6458  0.4035 -0.3957
 7341SOL     OW28114   2.688   4.572   0.036  0.0426 -0.3590 -0.7895
 7341SOL    HW128115   2.778   4.543   0.054 -0.0439 -0.9978 -1.3514
 7341SOL    HW228116   2.634   4.518   0.093 -0.0834 -0.9806 -1.4832
 7342SOL     OW28117   6.771   9.001   0.880  0.5955 -0.5256  0.1272
 7342SOL    HW128118   6.730   8.918   0.857 -2.2817  0.2480  1.9914
 7342SOL    HW228119   6.832   8.980   0.950  1.0793 -1.2472 -0.4960
 7343SOL     OW28120   0.213   9.679  10.533 -0.1588  0.2451 -0.6583
 7343SOL    HW128121   0.292   9.727  10.508 -0.8679  1.2405 -1.0082
 7343SOL    HW228122   0.162   9.740  10.585  0.1195 -0.9918  1.1860
 7344SOL     OW28123   4.753   5.262   4.797 -0.4592 -0.1565 -0.3015
 7344SOL    HW128124   4.828   5.208   4.823 -1.1257 -0.5287  0.8963
 7344SOL    HW228125   4.680   5.230   4.851 -0.8431  2.0080  0.5454
 7345SOL     OW28126  10.339   7.155   9.798  0.0592 -0.4648 -0.3268
 7345SOL    HW128127  10.294   7.235   9.823  0.5592  0.1023 -1.1761
 7345SOL    HW228128  10.309   7.090   9.861 -0.7061  0.2754  0.0981
 7346SOL     OW28129   4.892   7.288   8.530  0.2335  0.3491 -0.3096
 7346SOL    HW128130   4.880   7.195   8.511 -1.3304  0.5086 -0.2165
 7346SOL    HW228131   4.915   7.327   8.445 -0.8735  0.1452 -0.7149
 7347SOL     OW28132   9.185   2.162   9.473 -0.8795 -0.4259 -0.8388
 7347SOL    HW128133   9.113   2.111   9.511 -0.9627 -0.3583 -0.9038
 7347SOL    HW228134   9.162   2.253   9.492 -1.4348 -0.3217 -1.9114
 7348SOL     OW28135   6.566   1.479   2.315  0.1103  0.0906  0.3624
 7348SOL    HW128136   6.501   1.505   2.380  0.7951 -0.5719  1.3394
 7348SOL    HW228137   6.574   1.384   2.326  1.1014  0.1364  0.1337
 7349SOL     OW28138  10.037   1.497   9.655 -0.4964 -0.5977 -0.0418
 7349SOL    HW128139  10.026   1.502   9.750 -0.1536  1.7828 -0.0539
 7349SOL    HW228140   9.958   1.537   9.619  0.8001  1.5987 -0.6064
 7350SOL     OW28141   2.609   4.628   1.486  0.4453  0.4407  0.0525
 7350SOL    HW128142   2.558   4.579   1.422  0.9791  0.1541 -0.1619
 7350SOL    HW228143   2.558   4.708   1.502  0.3451  0.5615 -0.7968
 7351SOL     OW28144   2.328  10.382   2.126 -0.2854 -0.1699  0.2184
 7351SOL    HW128145   2.311  10.328   2.203  0.3111  0.2136  0.6332
 7351SOL    HW228146   2.283  10.338   2.055  0.3300 -1.3105  0.5088
 7352SOL     OW28147   9.608   4.206   7.130  0.4368 -0.1386 -0.1533
 7352SOL    HW128148   9.604   4.189   7.224 -0.5158  0.0615 -0.1478
 7352SOL    HW228149   9.549   4.141   7.091 -0.3833  0.7570 -0.4578
 7353SOL     OW28150   7.450   3.630   4.683 -0.0667  0.1461 -0.2315
 7353SOL    HW128151   7.522   3.655   4.625 -0.9418  2.3141 -0.4489
 7353SOL    HW228152   7.460   3.535   4.693  1.4218  0.0469 -2.1197
 7354SOL     OW28153   1.532   2.215   1.739  0.2644  0.1212  0.0042
 7354SOL    HW128154   1.470   2.234   1.669  0.3370 -0.0431 -0.1057
 7354SOL    HW228155   1.495   2.137   1.782  0.6611 -0.2902 -0.3856
 7355SOL     OW28156   7.773   7.733   7.180  0.2508  0.2506  0.0174
 7355SOL    HW128157   7.801   7.692   7.263  1.8824 -0.8777 -1.0136
 7355SOL    HW228158   7.678   7.738   7.187  0.2938 -0.4086  1.6993
 7356SOL     OW28159   7.876   8.277   9.990  0.1323  0.0185  0.1714
 7356SOL    HW128160   7.939   8.322  10.047  1.8107 -1.1230 -0.6832
 7356SOL    HW228161   7.813   8.238  10.051  0.5686  0.7416  1.1088
 7357SOL     OW28162   4.984   5.516   6.435 -0.0865  0.0521  0.4469
 7357SOL    HW128163   5.034   5.525   6.516  0.0909 -1.6195  0.5489
 7357SOL    HW228164   5.042   5.468   6.376 -0.3138  1.0229 -0.6105
 7358SOL     OW28165   6.389   5.823  10.709  0.3341 -0.0215 -0.4470
 7358SOL    HW128166   6.372   5.916  10.694 -0.8078 -0.3274 -1.2354
 7358SOL    HW228167   6.309   5.791  10.751  1.2435 -0.3880  1.0665
 7359SOL     OW28168   2.336   3.669   0.800  0.0463  0.2422 -0.1659
 7359SOL    HW128169   2.403   3.609   0.768 -0.3338 -0.4910  0.3775
 7359SOL    HW228170   2.308   3.630   0.883 -1.1825  0.4354 -0.4802
 7360SOL     OW28171   3.269  10.402   0.434 -0.0531  0.1223 -0.8649
 7360SOL    HW128172   3.292  10.495   0.424 -0.1655  0.1568 -0.8027
 7360SOL    HW228173   3.190  10.391   0.381 -0.8755  0.4005  0.2687
 7361SOL     OW28174   5.653   8.505   7.499  0.0042  0.3264 -0.0295
 7361SOL    HW128175   5.604   8.481   7.420  0.7415 -0.0729 -0.3675
 7361SOL    HW228176   5.693   8.589   7.477 -0.1987  0.4618  0.1081
 7362SOL     OW28177   3.479  10.594   3.711  0.4528  0.6335  0.2347
 7362SOL    HW128178   3.550  10.645   3.671  2.1886 -2.3828 -0.8233
 7362SOL    HW228179   3.523  10.531   3.768 -1.4223 -0.8340  0.1734
 7363SOL     OW28180   2.205   1.414   2.841  0.0051 -0.3413  0.7643
 7363SOL    HW128181   2.191   1.503   2.873  0.8136  1.4042 -3.1875
 7363SOL    HW228182   2.301   1.405   2.837  0.0121  0.0837 -2.1366
 7364SOL     OW28183   1.218   9.673   4.261  0.6259  0.2431  0.2982
 7364SOL    HW128184   1.154   9.716   4.318 -0.5337 -1.2924  0.2313
 7364SOL    HW228185   1.171   9.654   4.181  0.3456 -3.0006  1.0801
 7365SOL     OW28186   7.422  10.196   3.277 -0.3521  0.3061 -0.2937
 7365SOL    HW128187   7.495  10.256   3.293  0.3023 -0.2583 -1.0891
 7365SOL    HW228188   7.457  10.131   3.216 -1.1970 -0.6017  0.1628
 7366SOL     OW28189   6.690   0.620  10.616 -0.3715 -0.3917 -0.0124
 7366SOL    HW128190   6.748   0.655  10.547 -0.5723 -0.1259 -0.0479
 7366SOL    HW228191   6.748   0.607  10.691 -0.1724 -0.5745 -0.1958
 7367SOL     OW28192   7.354   4.537   7.468 -0.3886 -0.2399  0.1141
 7367SOL    HW128193   7.379   4.586   7.546  1.4646 -1.0484  0.0899
 7367SOL    HW228194   7.331   4.450   7.501 -0.4826 -0.3138 -0.1430
 7368SOL     OW28195   1.503  10.422   6.258 -1.1346 -0.5627 -0.3169
 7368SOL    HW128196   1.563  10.433   6.183 -1.2906  0.9643 -0.2639
 7368SOL    HW228197   1.549  10.363   6.317  0.0944  0.1263 -0.5415
 7369SOL     OW28198   8.600   8.642  10.784  0.1704  0.0012 -0.8999
 7369SOL    HW128199   8.540   8.626  10.857 -0.6913 -0.5027 -1.6749
 7369SOL    HW228200   8.584   8.733  10.759 -2.0835 -0.7635 -2.5977
 7370SOL     OW28201   3.060   8.971   3.018  0.8306 -0.3241  0.0815
 7370SOL    HW128202   3.098   9.047   2.975  1.4540  0.1761  1.4244
 7370SOL    HW228203   3.123   8.950   3.088  0.0519 -1.3040  0.5167
 7371SOL     OW28204   6.816   5.792   8.066  1.0973 -0.3329 -0.6968
 7371SOL    HW128205   6.762   5.726   8.022  0.1271 -0.3507  0.4635
 7371SOL    HW228206   6.766   5.815   8.145  1.9459  0.9820 -0.5151
 7372SOL     OW28207   9.590   7.971   5.102 -0.4206 -0.3833  0.3300
 7372SOL    HW128208   9.501   7.985   5.070 -0.5956 -2.5645 -0.3100
 7372SOL    HW228209   9.587   7.885   5.144  0.9281  0.3907  2.1389
 7373SOL     OW28210  10.503   9.604   6.693 -0.7722  0.5905 -0.1165
 7373SOL    HW128211  10.476   9.651   6.614 -0.6931  1.3182  0.2806
 7373SOL    HW228212  10.598   9.595   6.685 -0.9254 -0.6850 -0.8184
 7374SOL     OW28213   0.130   1.350   6.417 -0.4819 -0.4139 -0.0033
 7374SOL    HW128214   0.083   1.369   6.335 -0.4286 -1.9661 -0.4153
 7374SOL    HW228215   0.194   1.420   6.424 -2.7907  1.7934  0.5606
 7375SOL     OW28216   0.398   7.804   9.959 -0.2781 -0.1373 -0.7821
 7375SOL    HW128217   0.432   7.739   9.897  0.5005 -0.0690 -0.4358
 7375SOL    HW228218   0.334   7.757  10.011  1.1098 -0.9774  0.2509
 7376SOL     OW28219   4.352   7.316   1.572  0.4855 -0.0123  0.9213
 7376SOL    HW128220   4.295   7.363   1.511  0.8362 -0.8913 -0.1123
 7376SOL    HW228221   4.416   7.272   1.516  1.1681 -0.3801  1.9654
 7377SOL     OW28222   3.828   1.340   6.292 -0.2374  0.1654  0.3357
 7377SOL    HW128223   3.751   1.355   6.348 -0.6820 -1.4438  0.1991
 7377SOL    HW228224   3.852   1.427   6.262 -0.4776  0.9950  2.3870
 7378SOL     OW28225   1.433   8.371   4.807  0.1552  0.3023  0.7590
 7378SOL    HW128226   1.371   8.315   4.853 -1.4032  0.3929 -1.0876
 7378SOL    HW228227   1.383   8.449   4.783  0.8729  0.2643 -1.0384
 7379SOL     OW28228   2.536   7.070   2.231  0.0575  0.2269  0.2415
 7379SOL    HW128229   2.468   7.060   2.297 -0.6652 -2.6302 -0.7695
 7379SOL    HW228230   2.618   7.057   2.278 -0.2963  0.3832  0.9117
 7380SOL     OW28231  10.428   8.640   3.709  0.0512 -0.4130  0.0299
 7380SOL    HW128232  10.442   8.595   3.626 -0.3147  2.3389 -1.6661
 7380SOL    HW228233  10.516   8.668   3.736 -0.1315  2.1281 -1.6486
 7381SOL     OW28234   1.383   2.835   5.802  0.5295  0.1603  0.0549
 7381SOL    HW128235   1.379   2.856   5.708  1.1783  1.9043  0.3747
 7381SOL    HW228236   1.295   2.804   5.823  0.4381 -0.4706 -1.1691
 7382SOL     OW28237  10.267  10.794   9.120  0.2594  0.1978 -0.2962
 7382SOL    HW128238  10.287  10.726   9.185 -0.1951 -1.0801 -1.4469
 7382SOL    HW228239  10.172  10.803   9.123  0.1156 -0.7287 -1.5937
 7383SOL     OW28240   0.930   8.966   0.378 -0.4908 -0.0748  0.5603
 7383SOL    HW128241   0.902   8.886   0.333 -1.9424 -1.4633  3.6410
 7383SOL    HW228242   0.922   9.035   0.312 -2.1898 -1.9765 -1.3745
 7384SOL     OW28243   0.718   9.274   7.341 -0.0495 -0.4410 -0.4233
 7384SOL    HW128244   0.660   9.200   7.325 -1.4146  0.7103 -0.9838
 7384SOL    HW228245   0.798   9.253   7.292 -0.4046 -1.5203 -0.5662
 7385SOL     OW28246  10.678   3.339   3.203 -0.4827  0.7640 -0.7357
 7385SOL    HW128247  10.682   3.427   3.165 -0.8909  0.7191 -0.8830
 7385SOL    HW228248  10.613   3.345   3.272 -0.5731  0.5573 -0.8006
 7386SOL     OW28249   7.457   3.969   0.598  0.7462  0.1437  0.0477
 7386SOL    HW128250   7.471   4.029   0.671  1.3304 -0.7328  0.6642
 7386SOL    HW228251   7.432   4.026   0.525 -0.5658  0.9756  1.0950
 7387SOL     OW28252   6.397   8.175   3.944  0.2627 -0.0225 -0.5293
 7387SOL    HW128253   6.422   8.137   3.860  1.1217 -0.0632 -0.2697
 7387SOL    HW228254   6.430   8.113   4.009  2.6884  1.6176 -0.0416
 7388SOL     OW28255   9.882   7.694  10.232 -0.3074 -0.2235  0.2737
 7388SOL    HW128256   9.955   7.744  10.267 -0.4805  0.3265 -0.1398
 7388SOL    HW228257   9.913   7.663  10.146 -0.2090 -0.8115  0.5147
 7389SOL     OW28258   2.632   8.248   2.484 -0.1019 -0.0964  0.3470
 7389SOL    HW128259   2.683   8.324   2.455 -1.7710  0.6093 -0.9453
 7389SOL    HW228260   2.634   8.188   2.410 -1.5646  0.2056  0.0231
 7390SOL     OW28261   0.031   2.776   0.459  0.3035  1.0697 -0.0312
 7390SOL    HW128262   0.097   2.777   0.528  0.0324  0.8202  0.2339
 7390SOL    HW228263  -0.042   2.826   0.496  0.9717  2.8084 -0.9539
 7391SOL     OW28264   0.763   8.341   7.948 -0.6670  0.3615  0.5736
 7391SOL    HW128265   0.809   8.368   8.028  0.8075  1.4189 -0.5841
 7391SOL    HW228266   0.819   8.370   7.877 -1.6757 -1.0700 -0.8683
 7392SOL     OW28267   8.345   1.099   1.558 -0.6522  0.7348 -0.2385
 7392SOL    HW128268   8.345   1.014   1.514 -1.4936  0.7893 -0.3647
 7392SOL    HW228269   8.397   1.085   1.637 -0.9608  0.0421 -0.1499
 7393SOL     OW28270   2.134   5.376   4.878  0.2483 -0.3534  0.2981
 7393SOL    HW128271   2.219   5.367   4.834  1.1013  0.3169  1.7654
 7393SOL    HW228272   2.121   5.292   4.921 -0.4827 -0.9298 -0.9911
 7394SOL     OW28273   6.340  10.922   3.750  0.4135 -0.1445 -0.0614
 7394SOL    HW128274   6.425  10.958   3.776  0.7984  0.3148 -1.7795
 7394SOL    HW228275   6.291  10.997   3.718  0.2519 -0.7376 -1.2648
 7395SOL     OW28276   1.879   9.422   1.799  0.5299  0.5626  0.1673
 7395SOL    HW128277   1.877   9.327   1.802 -1.3882  0.5743  0.8274
 7395SOL    HW228278   1.847   9.444   1.711  0.1915  0.6038  0.3011
 7396SOL     OW28279   4.572   6.941   7.219  1.3486 -0.8758 -0.4119
 7396SOL    HW128280   4.639   6.971   7.280  0.5978  1.0757 -0.4713
 7396SOL    HW228281   4.492   6.985   7.247  0.6817 -1.0209 -1.9544
 7397SOL     OW28282   1.561   1.341   6.515 -0.4356  0.2734  0.0974
 7397SOL    HW128283   1.572   1.436   6.504  0.8040  0.1088 -0.1963
 7397SOL    HW228284   1.627   1.317   6.580 -0.4989 -0.4563 -0.1011
 7398SOL     OW28285   7.117   1.413   8.466 -0.3844 -0.3205 -0.1126
 7398SOL    HW128286   7.042   1.403   8.525 -0.7508 -2.1458 -0.8128
 7398SOL    HW228287   7.082   1.462   8.391 -1.0191 -1.5125 -0.6192
 7399SOL     OW28288   7.509   2.334   0.692 -0.0656 -0.1915  0.1262
 7399SOL    HW128289   7.592   2.321   0.646 -0.9479  1.0266 -1.9719
 7399SOL    HW228290   7.529   2.315   0.784  2.5498  0.1369 -0.2902
 7400SOL     OW28291   4.558   5.202   9.636 -0.4093 -0.3283 -0.5477
 7400SOL    HW128292   4.585   5.170   9.550 -0.2061 -0.0665 -0.5847
 7400SOL    HW228293   4.528   5.125   9.683 -0.2108 -0.5230 -0.7390
 7401SOL     OW28294   3.676   2.395   3.405 -0.0279 -0.4515  0.1201
 7401SOL    HW128295   3.679   2.308   3.366 -2.5436 -0.5290 -0.0598
 7401SOL    HW228296   3.765   2.410   3.438  1.0177 -2.2080 -1.6680
 7402SOL     OW28297   6.495   7.207   1.856  0.2976 -0.0464  0.2765
 7402SOL    HW128298   6.407   7.233   1.880 -1.0353 -1.2423 -2.8147
 7402SOL    HW228299   6.532   7.168   1.936 -1.6635  1.1000  1.8137
 7403SOL     OW28300   6.123   0.343   9.140  0.4997  0.0853 -0.0021
 7403SOL    HW128301   6.149   0.355   9.049 -1.4990  0.7421 -0.5243
 7403SOL    HW228302   6.095   0.251   9.146 -0.9235  0.4675 -0.4947
 7404SOL     OW28303   1.720  10.650   2.483 -0.3341  0.4591  0.0650
 7404SOL    HW128304   1.647  10.674   2.539  0.4420  2.0958  0.4569
 7404SOL    HW228305   1.768  10.733   2.469  1.9382 -0.6836  0.5665
 7405SOL     OW28306   5.938   0.933   6.400 -0.3611 -0.5557  0.4725
 7405SOL    HW128307   6.012   0.921   6.459 -0.7908  1.7321  1.5656
 7405SOL    HW228308   5.976   0.969   6.320 -0.1495 -0.6974  0.5083
 7406SOL     OW28309  10.335   4.191   8.442  0.1876  0.3104 -0.1578
 7406SOL    HW128310  10.385   4.264   8.478  0.0109  0.0066  0.7182
 7406SOL    HW228311  10.297   4.147   8.518 -0.1594 -0.3721 -0.7093
 7407SOL     OW28312   5.318   5.930   6.149 -0.7014 -0.6805  1.0263
 7407SOL    HW128313   5.397   5.983   6.137 -0.3859 -1.2442  0.5937
 7407SOL    HW228314   5.246   5.987   6.122 -0.2623 -0.8782 -0.6434
 7408SOL     OW28315  10.541   2.365   1.730 -0.5762  0.1570 -0.5118
 7408SOL    HW128316  10.569   2.300   1.794 -0.6438 -0.0114 -0.6527
 7408SOL    HW228317  10.597   2.440   1.746 -0.1589 -0.1155 -0.6817
 7409SOL     OW28318   3.863   6.759   6.944 -0.5108  0.1203  0.1474
 7409SOL    HW128319   3.883   6.745   7.036 -3.1957  0.7815  0.9212
 7409SOL    HW228320   3.945   6.792   6.906  0.8450 -0.8205  2.0982
 7410SOL     OW28321   3.528   2.542   9.275 -0.6070 -0.1762 -0.3067
 7410SOL    HW128322   3.622   2.525   9.275 -0.6521 -0.4305 -1.0393
 7410SOL    HW228323   3.498   2.513   9.189 -1.5691 -1.3520  0.3845
 7411SOL     OW28324   2.817   9.008   3.399  0.1251  0.0576  0.4432
 7411SOL    HW128325   2.750   9.077   3.399 -0.6702 -0.6946  1.4003
 7411SOL    HW228326   2.856   9.012   3.486 -2.3803 -2.9644  1.8884
 7412SOL     OW28327   3.555   9.635   9.751 -0.4022  0.0999 -0.2988
 7412SOL    HW128328   3.504   9.689   9.812 -0.4615  1.6525 -1.6390
 7412SOL    HW228329   3.599   9.699   9.694  1.8850 -1.2171 -0.1393
 7413SOL     OW28330  10.633   8.959   2.483 -0.2166 -0.0515 -0.3291
 7413SOL    HW128331  10.641   9.047   2.518 -1.2232 -0.5906  1.3836
 7413SOL    HW228332  10.715   8.944   2.436 -0.1017  1.8242 -0.8096
 7414SOL     OW28333   0.964   9.306   8.952  0.7268 -0.1036 -0.2933
 7414SOL    HW128334   0.892   9.250   8.923  0.3249  0.1663  0.1651
 7414SOL    HW228335   0.987   9.272   9.038  1.1316 -0.1718 -0.4284
 7415SOL     OW28336   3.649   9.818   9.589 -0.3752  0.7170 -0.3588
 7415SOL    HW128337   3.634   9.814   9.495 -1.4389  1.4454 -0.2338
 7415SOL    HW228338   3.744   9.828   9.597 -0.1146 -0.7383 -1.2903
 7416SOL     OW28339   1.531   7.006   4.680  0.3666  0.1155 -0.6766
 7416SOL    HW128340   1.514   6.912   4.677  0.5044  0.0064  1.0806
 7416SOL    HW228341   1.561   7.028   4.591  0.2866 -1.4809 -1.1217
 7417SOL     OW28342   0.571   9.993   4.102  0.2002 -0.0442  0.7007
 7417SOL    HW128343   0.535   9.970   4.187 -0.4036 -1.3140  0.1286
 7417SOL    HW228344   0.499  10.036   4.056  0.3845  0.2303  0.6669
 7418SOL     OW28345   0.855  10.451   3.467 -0.0795  0.1163 -0.3890
 7418SOL    HW128346   0.833  10.363   3.438  0.4404  0.0940 -0.7542
 7418SOL    HW228347   0.796  10.470   3.539 -0.3286 -0.4533 -0.4449
 7419SOL     OW28348   5.338   6.507   7.522 -0.7605 -0.7854 -0.3608
 7419SOL    HW128349   5.349   6.492   7.428  1.8206 -0.4427 -0.1861
 7419SOL    HW228350   5.389   6.586   7.541 -1.1808 -0.8683  1.3459
 7420SOL     OW28351   2.686   2.528   9.944  0.2217 -0.9685  0.4068
 7420SOL    HW128352   2.729   2.490  10.021  0.9129  0.2804  0.6672
 7420SOL    HW228353   2.756   2.576   9.899 -0.9119  1.3253  0.9636
 7421SOL     OW28354   4.938   4.321   8.915 -0.2233  0.0008 -0.0328
 7421SOL    HW128355   4.890   4.317   8.998 -0.1340 -0.7920 -0.0136
 7421SOL    HW228356   4.870   4.339   8.850 -0.6211 -1.3857 -0.0404
 7422SOL     OW28357   7.772   5.208   9.563  0.3082 -0.0501  0.4252
 7422SOL    HW128358   7.741   5.137   9.618  1.3294 -1.2731 -0.5172
 7422SOL    HW228359   7.704   5.218   9.496  1.4154 -2.1475 -1.1355
 7423SOL     OW28360   9.905   8.692   2.720 -0.3497  0.5384  0.3293
 7423SOL    HW128361   9.966   8.698   2.647 -1.1432 -0.3573 -0.4360
 7423SOL    HW228362   9.944   8.627   2.779 -0.8915 -0.6164 -0.5342
 7424SOL     OW28363   6.786   4.597  10.892 -0.1641 -0.5978 -0.4172
 7424SOL    HW128364   6.833   4.621  10.971 -1.4009 -1.2850  0.5598
 7424SOL    HW228365   6.852   4.554  10.837  0.4226 -1.2685  0.7729
 7425SOL     OW28366  10.262   8.923   3.827 -0.2008  0.4508 -0.3478
 7425SOL    HW128367  10.176   8.952   3.857 -0.1832  0.8953 -0.7150
 7425SOL    HW228368  10.255   8.828   3.822 -1.5274  0.6019 -2.9142
 7426SOL     OW28369   7.381   9.001   1.402 -0.1982 -0.4823  0.0697
 7426SOL    HW128370   7.427   9.039   1.477  0.1316  1.3951 -1.0219
 7426SOL    HW228371   7.394   8.907   1.411  4.1856 -0.1259 -0.3069
 7427SOL     OW28372   2.257   8.779   3.397  0.0138  0.0034  0.4363
 7427SOL    HW128373   2.263   8.810   3.307 -2.7949  0.4700  0.3180
 7427SOL    HW228374   2.329   8.717   3.406 -0.0116 -0.5587 -2.3497
 7428SOL     OW28375   9.278   6.699   0.662  0.5498 -0.2689 -0.2357
 7428SOL    HW128376   9.184   6.707   0.678  0.4142 -1.1646 -0.4911
 7428SOL    HW228377   9.287   6.617   0.612  1.4769 -0.2574 -0.1159
 7429SOL     OW28378   1.048  10.828   8.022  0.0174 -0.3981  0.6569
 7429SOL    HW128379   1.083  10.844   8.110 -0.9628  0.3257  0.9348
 7429SOL    HW228380   0.973  10.887   8.016 -1.0443 -1.7656  0.0054
 7430SOL     OW28381   8.200   1.355   0.021 -0.0227  0.6615  0.3506
 7430SOL    HW128382   8.190   1.401   0.104  1.2964 -0.5156  1.1973
 7430SOL    HW228383   8.127   1.293   0.019 -1.6433  2.4751 -0.6667
 7431SOL     OW28384  10.053   6.453   4.520  0.1128 -0.5230  0.1036
 7431SOL    HW128385  10.108   6.441   4.597  0.5891 -2.0381 -0.4300
 7431SOL    HW228386  10.114   6.482   4.452 -0.4197  1.5236  0.4298
 7432SOL     OW28387   3.502   9.084   2.155 -0.5387 -0.3587 -0.2985
 7432SOL    HW128388   3.411   9.074   2.127 -0.8222 -1.3820  0.8693
 7432SOL    HW228389   3.507   9.172   2.191 -0.5271  0.4447 -2.1724
 7433SOL     OW28390   7.984   9.540   6.195  0.2949 -0.4543 -0.1259
 7433SOL    HW128391   8.073   9.525   6.162  0.6711 -0.3147  0.7973
 7433SOL    HW228392   7.996   9.601   6.268 -0.5556 -0.4960  0.0544
 7434SOL     OW28393   9.987   9.125   7.353  0.1481  0.5641 -0.0935
 7434SOL    HW128394   9.966   9.126   7.260  1.7765 -1.1972 -0.5454
 7434SOL    HW228395  10.079   9.152   7.357  0.8125 -1.6273  0.7174
 7435SOL     OW28396   3.023   5.341   2.901  0.1746  0.7633  0.2220
 7435SOL    HW128397   3.052   5.405   2.835  0.0396  0.0654 -0.5309
 7435SOL    HW228398   2.967   5.281   2.852 -1.6354  1.4175  1.4087
 7436SOL     OW28399   5.217   9.811   3.998  0.3610 -0.2892  0.1774
 7436SOL    HW128400   5.170   9.738   4.037  0.5979 -1.9036 -2.2882
 7436SOL    HW228401   5.308   9.780   3.993  0.9631  1.1847  1.2502
 7437SOL     OW28402   1.506   5.758   5.061  0.2496 -0.0159 -0.3999
 7437SOL    HW128403   1.499   5.668   5.030 -0.1948 -0.7225  1.5688
 7437SOL    HW228404   1.585   5.760   5.115  0.2742  0.7761 -0.4463
 7438SOL     OW28405   7.168   6.414   1.149  0.3064 -0.3735  0.0816
 7438SOL    HW128406   7.134   6.383   1.065  0.0475 -0.5921  0.2641
 7438SOL    HW228407   7.165   6.337   1.206  0.9720 -0.3531  0.1444
 7439SOL     OW28408   7.852   1.254   8.206 -0.9169  0.1649 -0.3647
 7439SOL    HW128409   7.944   1.273   8.186 -0.5436  0.7537  1.6419
 7439SOL    HW228410   7.814   1.338   8.229 -1.5572 -0.2671  0.2138
 7440SOL     OW28411   4.859   7.901   0.337 -0.8048 -0.4575  0.1656
 7440SOL    HW128412   4.917   7.973   0.311 -1.1662 -1.1037 -2.7783
 7440SOL    HW228413   4.776   7.944   0.359  0.2420  0.3390  3.0187
 7441SOL     OW28414  10.216  10.370   8.033 -0.6201  0.0641  0.0166
 7441SOL    HW128415  10.268  10.388   7.954  2.0330  0.0711  1.6546
 7441SOL    HW228416  10.159  10.447   8.042 -0.0114  0.6810 -1.1488
 7442SOL     OW28417   1.400   8.848   8.462  0.1211  0.2312 -0.2402
 7442SOL    HW128418   1.344   8.835   8.538  0.3993  1.3872  0.1759
 7442SOL    HW228419   1.432   8.938   8.470 -0.0921  0.4873 -1.8911
 7443SOL     OW28420   8.824   2.097   8.905 -0.2532  0.1273  0.4039
 7443SOL    HW128421   8.796   2.065   8.819  0.2201 -0.3233  0.4102
 7443SOL    HW228422   8.864   2.183   8.887  0.3397 -0.2078  0.0898
 7444SOL     OW28423   3.225   2.287   7.613  0.0596 -0.5345  0.9482
 7444SOL    HW128424   3.221   2.378   7.644 -2.2865 -0.2719  0.0724
 7444SOL    HW228425   3.143   2.248   7.644 -0.5179 -1.3927 -1.4453
 7445SOL     OW28426   4.897   8.492   3.014 -0.0385  0.5192 -0.5091
 7445SOL    HW128427   4.991   8.475   3.019  0.1518  1.7251  0.2486
 7445SOL    HW228428   4.887   8.550   2.938 -0.5224 -1.7088 -2.2417
 7446SOL     OW28429   1.260   9.720   7.731 -0.2687  0.5586 -0.0192
 7446SOL    HW128430   1.281   9.804   7.771 -0.9221  0.4738  0.5276
 7446SOL    HW228431   1.272   9.656   7.801  2.7579 -0.1961 -1.0711
 7447SOL     OW28432   9.730   7.220   2.428  0.1632  0.1738 -0.6092
 7447SOL    HW128433   9.815   7.225   2.383  1.4242  1.4624  1.6998
 7447SOL    HW228434   9.728   7.131   2.465  0.7833  0.2992 -0.2453
 7448SOL     OW28435   9.766   0.212   6.554  0.3902  0.1420  0.0941
 7448SOL    HW128436   9.691   0.263   6.585  0.8036 -0.3474  2.0534
 7448SOL    HW228437   9.794   0.162   6.631  2.8303  0.4419 -0.5021
 7449SOL     OW28438   6.861  10.882  10.301  0.0566  0.4815 -0.1807
 7449SOL    HW128439   6.774  10.907  10.270 -0.2280  0.4237  0.5647
 7449SOL    HW228440   6.855  10.788  10.315  0.0104  0.5918  0.5796
 7450SOL     OW28441   4.970   4.644   4.049  0.1243  0.2179  0.5853
 7450SOL    HW128442   4.895   4.671   4.102 -1.3378  1.8316 -2.0756
 7450SOL    HW228443   4.932   4.586   3.982  2.1384 -3.0463  2.0262
 7451SOL     OW28444   7.819   8.086   7.219 -0.0354  0.5254 -0.1185
 7451SOL    HW128445   7.893   8.057   7.164 -0.7096 -0.7183 -0.4112
 7451SOL    HW228446   7.751   8.111   7.156 -1.0691 -1.5692  0.0723
 7452SOL     OW28447   7.339   5.219   9.059  0.1197 -0.0683 -0.6656
 7452SOL    HW128448   7.281   5.145   9.073 -0.4502  0.5375  0.3246
 7452SOL    HW228449   7.281   5.290   9.030  0.3988  0.4570  0.0330
 7453SOL     OW28450   3.752   8.304   6.735 -0.6812 -0.4208  0.0103
 7453SOL    HW128451   3.708   8.274   6.815 -1.5736  2.2989  0.6325
 7453SOL    HW228452   3.698   8.267   6.664 -0.3427 -2.1957  0.6253
 7454SOL     OW28453   1.890   3.005   4.584  0.6026 -0.3232 -0.2526
 7454SOL    HW128454   1.879   2.956   4.666  1.2431 -0.4661 -0.2438
 7454SOL    HW228455   1.981   3.035   4.587  0.0493  1.4103  0.0358
 7455SOL     OW28456   4.548   7.570   7.780  0.5842 -0.5629  0.6153
 7455SOL    HW128457   4.569   7.658   7.748 -1.1872 -0.2118  0.3191
 7455SOL    HW228458   4.564   7.513   7.705 -1.7675  0.0252 -0.4410
 7456SOL     OW28459   5.858   8.840   5.266  0.7951  0.2142  0.3026
 7456SOL    HW128460   5.943   8.841   5.311  0.1835 -0.6769  1.5215
 7456SOL    HW228461   5.798   8.884   5.326  0.3323  0.6369 -0.4514
 7457SOL     OW28462   5.656   5.046  10.482  0.1867 -0.2622 -0.4338
 7457SOL    HW128463   5.720   5.048  10.411  0.0177  0.8604 -0.5737
 7457SOL    HW228464   5.572   5.062  10.439  0.1098  0.6454  0.0450
 7458SOL     OW28465   0.544   2.058   9.822 -0.4483  0.0942  0.5320
 7458SOL    HW128466   0.490   1.986   9.788  1.2642 -0.5533 -0.9472
 7458SOL    HW228467   0.612   2.014   9.873 -0.0131  0.7454  0.5241
 7459SOL     OW28468   0.310   4.719   7.485  0.4720 -0.4753 -0.1797
 7459SOL    HW128469   0.361   4.641   7.505  0.3142 -0.5302  0.0174
 7459SOL    HW228470   0.348   4.753   7.405  0.3508 -0.9274 -0.4343
 7460SOL     OW28471   5.819   1.307   7.077 -0.8945  0.6019 -0.1329
 7460SOL    HW128472   5.879   1.322   7.004 -0.6024 -0.4107 -0.1192
 7460SOL    HW228473   5.869   1.251   7.137 -1.9945 -0.6176 -0.3280
 7461SOL     OW28474  10.327  10.898   7.484 -0.2718 -0.4059 -0.3394
 7461SOL    HW128475  10.350  10.922   7.574 -0.8288  0.4709 -0.4189
 7461SOL    HW228476  10.359  10.971   7.430 -0.8600 -0.4291 -0.7322
 7462SOL     OW28477   8.806   9.718   2.556  0.5259  0.2802 -0.6150
 7462SOL    HW128478   8.877   9.687   2.613 -1.4605  0.3786  2.0872
 7462SOL    HW228479   8.785   9.642   2.502 -0.1969 -1.2613  1.6726
 7463SOL     OW28480   5.055   5.913  10.686 -0.3791  0.0817  0.0933
 7463SOL    HW128481   5.056   5.967  10.766 -1.5798  0.1522  0.0792
 7463SOL    HW228482   5.132   5.856  10.695 -0.1780  0.4732  1.0272
 7464SOL     OW28483   6.908   6.319   3.950 -0.4803 -0.3128  0.1926
 7464SOL    HW128484   6.925   6.355   3.862 -1.4099 -0.7804 -0.1960
 7464SOL    HW228485   6.987   6.338   3.999  0.3200 -0.6025 -0.9314
 7465SOL     OW28486   3.566   0.269   0.939 -0.3003 -0.3501 -0.6033
 7465SOL    HW128487   3.642   0.235   0.892  0.1084  0.5234 -0.6035
 7465SOL    HW228488   3.601   0.339   0.994 -0.9768 -0.5042  0.0391
 7466SOL     OW28489   9.513   7.823   7.338 -0.3919  0.6679 -0.1547
 7466SOL    HW128490   9.578   7.892   7.326 -1.1992  1.5184  0.2600
 7466SOL    HW228491   9.437   7.867   7.375 -1.2538 -0.2893 -0.7222
 7467SOL     OW28492   1.898  10.602   7.225  0.5032  0.2733  0.1293
 7467SOL    HW128493   1.945  10.539   7.280  0.8412  1.5927  1.4182
 7467SOL    HW228494   1.914  10.687   7.267 -1.3938  1.0142 -0.5353
 7468SOL     OW28495   4.857   0.144   0.152 -0.3116 -0.2955  0.3477
 7468SOL    HW128496   4.919   0.098   0.208  0.6060  1.1767  0.5835
 7468SOL    HW228497   4.773   0.137   0.199 -0.0394 -1.0508  0.7417
 7469SOL     OW28498   1.850   5.093   7.462 -0.1296 -0.2685 -0.3828
 7469SOL    HW128499   1.783   5.031   7.493 -1.2091  0.5883 -0.9066
 7469SOL    HW228500   1.870   5.064   7.373  0.7583 -0.9553  0.0255
 7470SOL     OW28501   5.087   0.696   2.629 -0.1535 -0.3265  0.2668
 7470SOL    HW128502   5.079   0.665   2.719  1.9090  1.2828  1.0947
 7470SOL    HW228503   5.005   0.740   2.611  0.3561  1.6879  2.3990
 7471SOL     OW28504  10.809   1.600   8.204  0.0274  0.0563  0.7375
 7471SOL    HW128505  10.804   1.526   8.144 -1.0770  0.3061  0.4942
 7471SOL    HW228506  10.843   1.563   8.285  0.0327 -0.6073  0.4388
 7472SOL     OW28507   3.061   2.027   3.899  0.2485 -0.3509 -0.0660
 7472SOL    HW128508   3.141   2.009   3.851 -0.3891 -0.8122 -0.9851
 7472SOL    HW228509   3.079   1.995   3.988  2.0054  1.9780  0.5029
 7473SOL     OW28510   9.928   3.102   0.668 -0.1689  0.3674 -0.1492
 7473SOL    HW128511   9.953   3.185   0.628  0.4457  0.4344  0.3587
 7473SOL    HW228512   9.858   3.125   0.729  0.7616  0.7054  0.8235
 7474SOL     OW28513   6.913   7.929   6.170  0.0287 -0.7052  0.0387
 7474SOL    HW128514   6.988   7.977   6.135 -1.4016  0.7876 -1.1153
 7474SOL    HW228515   6.916   7.944   6.264  1.1495 -0.6431  0.0052
 7475SOL     OW28516   0.844   3.483   3.265 -0.6710 -0.2002  0.3934
 7475SOL    HW128517   0.749   3.485   3.263 -0.6451  0.4773 -0.5754
 7475SOL    HW228518   0.868   3.422   3.195 -0.4198 -2.9218  2.6255
 7476SOL     OW28519   6.757   2.631  10.837  0.2587 -0.2755 -0.2295
 7476SOL    HW128520   6.670   2.623  10.875 -0.1772 -1.9963 -1.4442
 7476SOL    HW228521   6.752   2.581  10.755  1.2113  2.9574 -2.4874
 7477SOL     OW28522   8.153   6.017   9.305  0.1842  0.2731 -0.0800
 7477SOL    HW128523   8.217   5.950   9.331  0.0064  0.2337  0.2537
 7477SOL    HW228524   8.172   6.091   9.362  1.0554  0.8918 -1.1296
 7478SOL     OW28525   6.699   4.447   3.588 -0.4016  0.1187 -0.0987
 7478SOL    HW128526   6.719   4.418   3.677 -1.3799 -1.0963 -0.2431
 7478SOL    HW228527   6.679   4.540   3.597 -1.0025 -0.1000  1.0458
 7479SOL     OW28528   7.462   5.972   8.542 -0.2622  0.4289 -0.1822
 7479SOL    HW128529   7.477   5.904   8.608 -1.2862  1.7472  1.5028
 7479SOL    HW228530   7.500   6.051   8.580 -0.3476  1.1123 -1.4612
 7480SOL     OW28531   4.805   3.024   0.946  0.2833 -0.0499 -0.4948
 7480SOL    HW128532   4.795   3.014   1.041  0.3928 -4.4855 -0.7276
 7480SOL    HW228533   4.729   3.074   0.919 -1.1336 -0.8276  1.7314
 7481SOL     OW28534   3.182   0.755  10.879 -0.2986 -0.1382 -0.2474
 7481SOL    HW128535   3.217   0.843  10.863 -1.1078 -0.1408 -2.4325
 7481SOL    HW228536   3.103   0.770  10.930  0.0167  0.3268  0.1173
 7482SOL     OW28537   2.344  10.346   5.027  0.0017 -0.4633 -0.4497
 7482SOL    HW128538   2.329  10.271   4.970 -1.8666 -0.5774  0.1247
 7482SOL    HW228539   2.291  10.417   4.990 -0.7785 -0.3701  0.7766
 7483SOL     OW28540   1.859  10.863   5.280 -0.4930 -0.3846 -0.9520
 7483SOL    HW128541   1.866  10.938   5.221 -0.9003 -0.4967 -1.1420
 7483SOL    HW228542   1.905  10.890   5.359 -1.4712  0.4301 -0.6469
 7484SOL     OW28543   5.303   2.956   5.130  0.2680  0.3126  0.1212
 7484SOL    HW128544   5.250   3.021   5.084  0.3493  1.6878  1.8877
 7484SOL    HW228545   5.256   2.873   5.116 -1.9752  1.3659  0.9924
 7485SOL     OW28546   9.844   0.496   1.585 -0.0971 -0.2124 -0.3689
 7485SOL    HW128547   9.864   0.584   1.552 -2.0157  0.7317  0.8546
 7485SOL    HW228548   9.778   0.510   1.653 -0.1479 -2.5805  0.1442
 7486SOL     OW28549   3.305   2.026   0.391 -0.4318 -0.0009 -0.5215
 7486SOL    HW128550   3.368   2.081   0.437 -0.5819 -0.8361  0.7279
 7486SOL    HW228551   3.359   1.961   0.346 -0.3801 -1.4037  1.4462
 7487SOL     OW28552   7.538   2.462   4.792  0.0012  0.8386  0.2093
 7487SOL    HW128553   7.544   2.556   4.808  1.9579  0.6594  0.7900
 7487SOL    HW228554   7.619   2.441   4.745  0.8129 -0.9224  2.2234
 7488SOL     OW28555   9.101   1.734   8.539 -0.1482  0.2925  0.4919
 7488SOL    HW128556   9.032   1.676   8.507  1.7155 -1.8509  0.0801
 7488SOL    HW228557   9.140   1.772   8.460  0.6854 -0.4224  0.5447
 7489SOL     OW28558  10.453   4.217   7.179  0.1632  0.3546 -0.0761
 7489SOL    HW128559  10.432   4.243   7.090  1.4867 -0.7624 -0.7622
 7489SOL    HW228560  10.533   4.265   7.200 -0.5218  1.1441  0.7842
 7490SOL     OW28561   3.094   6.944  10.333 -0.5954  0.1011 -0.1310
 7490SOL    HW128562   3.079   7.016  10.273  0.2945  0.4688  0.0622
 7490SOL    HW228563   3.008   6.903  10.345 -1.2173  1.4644  0.1833
 7491SOL     OW28564   3.372  10.289   5.079 -0.1064 -0.1049 -0.1798
 7491SOL    HW128565   3.301  10.298   5.015 -0.4946 -2.0756 -0.0946
 7491SOL    HW228566   3.370  10.370   5.129 -1.8688  0.1612 -0.6237
 7492SOL     OW28567   1.005   9.465   6.563  0.3297 -0.8100 -0.4332
 7492SOL    HW128568   0.938   9.398   6.573  0.2965 -0.8063 -0.6333
 7492SOL    HW228569   1.069   9.446   6.632 -1.1443  0.7096  1.4757
 7493SOL     OW28570   2.078   2.664   8.274 -0.0802  0.5830  0.0100
 7493SOL    HW128571   2.005   2.661   8.337  0.7771  1.9181  1.1262
 7493SOL    HW228572   2.147   2.711   8.320  1.7386 -1.1576 -0.7969
 7494SOL     OW28573  10.809   0.179   5.546 -0.4065 -0.2738 -0.6089
 7494SOL    HW128574  10.837   0.096   5.508  1.4849 -0.3051  0.7187
 7494SOL    HW228575  10.866   0.244   5.504  0.1739 -0.0426  0.5034
 7495SOL     OW28576   9.865   4.091   0.145 -0.1213  0.1066  0.4472
 7495SOL    HW128577   9.948   4.134   0.163  0.0597 -0.2992  0.5920
 7495SOL    HW228578   9.860   4.021   0.210  0.4091 -1.2173 -0.8882
 7496SOL     OW28579   1.676   4.407   8.025  0.0980  0.7654 -0.0881
 7496SOL    HW128580   1.710   4.488   8.062  0.3767  1.0695 -0.9651
 7496SOL    HW228581   1.751   4.347   8.026 -0.1691  0.4362  0.7706
 7497SOL     OW28582   3.175   1.314   8.323  0.4205  0.2728  0.0424
 7497SOL    HW128583   3.264   1.299   8.357 -0.4038  0.2970  2.4126
 7497SOL    HW228584   3.119   1.307   8.400 -1.6333  0.5017 -1.3602
 7498SOL     OW28585   2.703   9.230  10.589  0.0115 -0.0032 -0.2117
 7498SOL    HW128586   2.627   9.222  10.531 -0.8856 -0.4415  0.9761
 7498SOL    HW228587   2.678   9.182  10.668  0.5494  1.9207  1.1884
 7499SOL     OW28588   0.827   3.358   0.154 -0.2460  0.1660 -0.0776
 7499SOL    HW128589   0.759   3.382   0.217 -0.9146 -2.0049  0.1221
 7499SOL    HW228590   0.782   3.304   0.089  1.2077 -1.0855 -0.1037
 7500SOL     OW28591   7.606   2.958   6.024 -0.2258 -0.3519  0.1302
 7500SOL    HW128592   7.640   3.046   6.007  0.0747 -0.3249  0.8409
 7500SOL    HW228593   7.547   2.940   5.951  1.9287 -0.7356 -1.6285
 7501SOL     OW28594   6.862   2.461   3.437 -0.1385 -0.0555  0.4919
 7501SOL    HW128595   6.938   2.467   3.380 -1.6916 -3.7514 -2.3923
 7501SOL    HW228596   6.807   2.536   3.412  0.9002  0.5249 -0.0890
 7502SOL     OW28597   9.983   1.882   2.420  0.0122 -0.0191 -0.4927
 7502SOL    HW128598   9.923   1.899   2.493 -1.2783  1.8952 -1.8982
 7502SOL    HW228599   9.928   1.884   2.342  1.5664 -0.5749 -1.6600
 7503SOL     OW28600   6.627   4.715  10.533  0.0603 -0.1096  0.5414
 7503SOL    HW128601   6.632   4.804  10.568  0.7623 -0.6905  2.0504
 7503SOL    HW228602   6.718   4.690  10.517 -0.1471 -0.4632 -0.1180
 7504SOL     OW28603   2.032   3.873   5.006  0.1418  0.2688 -0.1796
 7504SOL    HW128604   1.941   3.862   5.033  0.1324  2.5226  1.0019
 7504SOL    HW228605   2.083   3.846   5.083  0.2943  2.2900  0.4829
 7505SOL     OW28606   5.504   3.847   2.940 -0.4177 -0.0876  0.0501
 7505SOL    HW128607   5.553   3.813   2.865 -1.3613  0.5655 -0.8729
 7505SOL    HW228608   5.530   3.790   3.013  2.6016  0.9104 -0.1021
 7506SOL     OW28609   5.807   2.242   1.890 -0.1308 -0.0916  0.0868
 7506SOL    HW128610   5.762   2.186   1.827 -0.8053 -0.6727  1.0660
 7506SOL    HW228611   5.896   2.252   1.855  0.1976 -2.2834  0.1910
 7507SOL     OW28612   9.636   3.887   9.969 -0.1903 -0.3397  0.4030
 7507SOL    HW128613   9.610   3.795   9.964  0.2431 -0.4059 -2.9936
 7507SOL    HW228614   9.554   3.934   9.986 -0.4772 -1.2742  1.7474
 7508SOL     OW28615   4.785   8.041   7.022 -0.0560  0.8554  0.1327
 7508SOL    HW128616   4.802   7.970   6.961 -0.0745  0.6208  0.3942
 7508SOL    HW228617   4.817   8.008   7.106  1.0244  1.6158  0.0330
 7509SOL     OW28618   5.811   1.505   2.049 -0.0550 -0.3326 -0.0725
 7509SOL    HW128619   5.808   1.451   2.128 -1.2196  0.4574  0.4607
 7509SOL    HW228620   5.858   1.584   2.077 -1.2579  0.3437  0.1263
 7510SOL     OW28621   3.130   9.891   5.775 -0.1555 -0.0786 -0.0597
 7510SOL    HW128622   3.178   9.876   5.856  0.2779  0.7314 -0.1555
 7510SOL    HW228623   3.051   9.839   5.783  0.2480 -0.5991  0.5565
 7511SOL     OW28624   8.131   9.841   9.711  0.0022  0.3853 -0.3758
 7511SOL    HW128625   8.110   9.876   9.624  0.3220 -0.6796 -0.8965
 7511SOL    HW228626   8.047   9.841   9.756 -0.3825 -0.0753 -1.0661
 7512SOL     OW28627  10.623   2.502   6.539  0.3060 -0.7402  0.2972
 7512SOL    HW128628  10.709   2.497   6.498  0.1054  0.3309 -0.2814
 7512SOL    HW228629  10.572   2.433   6.496 -0.3762  1.2894 -2.5193
 7513SOL     OW28630   0.850   7.848   2.933  0.5087 -0.1957  0.2818
 7513SOL    HW128631   0.829   7.844   2.840  0.0423  1.2944  0.3027
 7513SOL    HW228632   0.810   7.769   2.970 -0.5177 -0.0897 -0.5572
 7514SOL     OW28633   8.839   2.702   9.987 -0.0309 -0.2633 -0.2921
 7514SOL    HW128634   8.759   2.740  10.024  0.4611  0.9247 -0.4048
 7514SOL    HW228635   8.848   2.744   9.902  1.0320  0.0506 -0.0298
 7515SOL     OW28636   3.399   6.175   2.029  0.0077 -0.2554 -0.2896
 7515SOL    HW128637   3.405   6.085   1.997 -0.6113 -0.4390  0.0922
 7515SOL    HW228638   3.411   6.229   1.951  0.2571 -0.6679 -0.5432
 7516SOL     OW28639  10.617  10.877   8.639  0.2920 -0.0119 -0.3184
 7516SOL    HW128640  10.709  10.858   8.656  0.9691  3.9931  1.6477
 7516SOL    HW228641  10.573  10.862   8.723 -1.0872 -2.4519 -1.3794
 7517SOL     OW28642   4.868   3.127   5.961  0.2294  0.5688 -0.1339
 7517SOL    HW128643   4.819   3.169   5.891  0.0932  1.5452  0.5375
 7517SOL    HW228644   4.940   3.187   5.979  1.4371 -0.6207 -0.7839
 7518SOL     OW28645   0.878   3.648   1.518  0.3874 -0.4029 -0.4148
 7518SOL    HW128646   0.831   3.601   1.588 -0.0118 -0.4031 -0.6784
 7518SOL    HW228647   0.825   3.632   1.440  0.5637  0.0123 -0.6180
 7519SOL     OW28648  10.872   4.981   7.124  0.5680 -0.0576 -0.1012
 7519SOL    HW128649  10.896   4.985   7.032 -0.5336 -0.1058 -0.4129
 7519SOL    HW228650  10.818   4.901   7.131  1.2259 -0.4476  0.7324
 7520SOL     OW28651   5.858  10.259   7.022 -0.2733 -0.0765  0.6049
 7520SOL    HW128652   5.831  10.169   7.003 -1.3163  0.3879 -0.1980
 7520SOL    HW228653   5.794  10.314   6.977 -0.1513  1.0851  1.7741
 7521SOL     OW28654   8.397   2.947  10.015  0.0373  0.3514  0.1056
 7521SOL    HW128655   8.403   3.042  10.000 -0.6984  0.2877 -0.6524
 7521SOL    HW228656   8.314   2.922   9.974  0.5511 -0.7387 -0.2791
 7522SOL     OW28657   6.992   3.743   7.766  0.0820 -0.1723 -0.4253
 7522SOL    HW128658   7.008   3.669   7.709 -1.3818  0.5076 -1.7856
 7522SOL    HW228659   6.897   3.744   7.779 -0.0169  1.8072 -0.9532
 7523SOL     OW28660   1.783   9.117   0.332  0.2767  0.3255  0.2176
 7523SOL    HW128661   1.781   9.028   0.369  1.7680  0.1610 -0.0577
 7523SOL    HW228662   1.691   9.144   0.331 -0.0353 -0.5127  1.9730
 7524SOL     OW28663   4.081   5.822   5.362  0.4214  0.6585  0.3455
 7524SOL    HW128664   3.992   5.856   5.374 -0.6118 -0.9781 -1.9131
 7524SOL    HW228665   4.103   5.781   5.445  0.6633  4.2316  2.2719
 7525SOL     OW28666   8.185   1.651   8.137  0.4847 -0.2017 -0.5094
 7525SOL    HW128667   8.128   1.634   8.212 -0.0457  0.8729 -0.6440
 7525SOL    HW228668   8.265   1.602   8.156  0.4312  0.1910  0.8534
 7526SOL     OW28669   8.177   1.713   0.350 -0.0056  0.5107 -0.1679
 7526SOL    HW128670   8.247   1.671   0.400 -0.1315  0.1478 -0.2934
 7526SOL    HW228671   8.220   1.746   0.271 -0.2004 -0.9037 -0.9040
 7527SOL     OW28672   2.090   5.589   2.235 -0.4622  0.3140  0.3645
 7527SOL    HW128673   2.099   5.585   2.330 -0.2357  0.1149  0.3363
 7527SOL    HW228674   2.035   5.513   2.213 -2.7721  1.8254  0.5895
 7528SOL     OW28675   9.171   6.336   5.021  0.2671 -0.2152 -0.3120
 7528SOL    HW128676   9.238   6.316   4.956  0.9047 -2.7621  1.0269
 7528SOL    HW228677   9.219   6.351   5.103 -0.5995  1.7579 -0.0833
 7529SOL     OW28678   9.611   6.775   6.681 -0.1404  0.5241 -0.0835
 7529SOL    HW128679   9.635   6.830   6.755  2.9542 -1.3055  0.4206
 7529SOL    HW228680   9.668   6.805   6.610 -0.2758 -0.3053 -0.5503
 7530SOL     OW28681   2.480   5.489   2.819  0.3306  0.1197 -0.0239
 7530SOL    HW128682   2.495   5.583   2.828 -3.5049  1.0547 -1.3603
 7530SOL    HW228683   2.433   5.465   2.899  1.9316 -0.9021  0.6545
 7531SOL     OW28684   0.208   1.677   9.757  0.0630 -0.2323  0.4324
 7531SOL    HW128685   0.208   1.696   9.663 -0.3832  0.4236  0.5592
 7531SOL    HW228686   0.128   1.627   9.772  0.7009 -1.3204  0.2792
 7532SOL     OW28687   9.218   6.014   5.201 -0.3927 -0.1587 -0.1200
 7532SOL    HW128688   9.210   5.966   5.119  0.0158  0.0947 -0.3132
 7532SOL    HW228689   9.286   6.079   5.184  0.3088 -0.6637  0.6945
 7533SOL     OW28690   4.944   7.143   2.502  0.2029 -0.4983  0.0058
 7533SOL    HW128691   4.879   7.075   2.481 -0.2097  0.1858 -1.0221
 7533SOL    HW228692   5.017   7.126   2.443  0.5927 -0.7322  0.5486
 7534SOL     OW28693   8.614   6.147   8.352 -0.3952  0.5072  0.2447
 7534SOL    HW128694   8.667   6.217   8.313  1.5176 -0.4787  0.9279
 7534SOL    HW228695   8.602   6.175   8.443 -2.6485  1.5641 -0.3016
 7535SOL     OW28696   9.357  10.348  10.072  0.1133  0.9749 -0.1789
 7535SOL    HW128697   9.428  10.379  10.015 -0.8909  1.5778 -1.1550
 7535SOL    HW228698   9.301  10.425  10.083 -0.4298  0.4893  0.5151
 7536SOL     OW28699   6.688   3.120   8.791  0.1219  0.4431 -0.5306
 7536SOL    HW128700   6.679   3.117   8.696 -1.3152  0.8066 -0.4321
 7536SOL    HW228701   6.764   3.066   8.810 -0.8580 -1.4619 -1.7303
 7537SOL     OW28702   6.757   0.682   7.635 -0.0757 -0.0968 -0.0713
 7537SOL    HW128703   6.839   0.643   7.663  0.4615  0.3042 -1.0397
 7537SOL    HW228704   6.761   0.773   7.667 -1.2760 -0.7330  2.0888
 7538SOL     OW28705   4.509  10.236  10.788 -0.2973 -0.1954 -0.1071
 7538SOL    HW128706   4.477  10.205  10.703  1.3533 -1.5067 -0.2804
 7538SOL    HW228707   4.595  10.196  10.798  0.1138  1.0092  1.6023
 7539SOL     OW28708   3.735   2.289   1.558  0.5307 -0.0011  0.0672
 7539SOL    HW128709   3.693   2.375   1.558  0.1309 -0.1592  1.6380
 7539SOL    HW228710   3.774   2.281   1.471 -1.7463  0.6204 -1.1069
 7540SOL     OW28711   2.106   9.370   4.493 -0.1711 -0.4973  0.3221
 7540SOL    HW128712   2.097   9.411   4.407  0.2263 -1.1876 -0.0576
 7540SOL    HW228713   2.125   9.278   4.474  1.7714 -0.2928  1.1286
 7541SOL     OW28714   7.097   6.607   0.034 -0.3573  0.0161 -0.1001
 7541SOL    HW128715   7.026   6.549   0.062 -0.1962 -0.0567  0.1617
 7541SOL    HW228716   7.058   6.695   0.038 -0.7044 -0.1000 -0.8324
 7542SOL     OW28717   3.234   6.395   5.112  0.6475 -0.1329 -0.2325
 7542SOL    HW128718   3.271   6.417   5.026  1.5213 -0.7595 -0.0249
 7542SOL    HW228719   3.222   6.300   5.109 -1.0940  0.0582 -0.3430
 7543SOL     OW28720   9.199   0.784   5.446  0.4143  0.2579 -0.2862
 7543SOL    HW128721   9.263   0.713   5.449 -0.2264 -0.3855 -1.3069
 7543SOL    HW228722   9.177   0.801   5.537 -0.3793 -1.7385 -0.0661
 7544SOL     OW28723   7.406   8.621   1.184 -1.1065  0.5683 -0.4678
 7544SOL    HW128724   7.463   8.570   1.127  0.4009  1.2512  0.3603
 7544SOL    HW228725   7.375   8.693   1.129 -1.6905 -0.1557 -1.0993
 7545SOL     OW28726   6.064  10.212   6.481  0.2181  0.4644 -0.7699
 7545SOL    HW128727   6.120  10.280   6.519  2.8616 -0.7241 -2.2288
 7545SOL    HW228728   6.068  10.228   6.387 -1.2591 -0.1929 -0.9651
 7546SOL     OW28729   1.473   6.792   6.541  0.2161  0.4567 -0.1845
 7546SOL    HW128730   1.529   6.779   6.464  1.0864  0.5779  0.4219
 7546SOL    HW228731   1.428   6.875   6.523  0.4257  0.4935 -0.5601
 7547SOL     OW28732   7.144   7.743   9.543 -0.6104  0.2271  0.2708
 7547SOL    HW128733   7.187   7.684   9.604 -0.4009 -0.8058 -0.8412
 7547SOL    HW228734   7.187   7.828   9.557  0.2693 -0.2788  0.6860
 7548SOL     OW28735   4.903   6.117   8.745  0.1005  0.2519 -0.1496
 7548SOL    HW128736   4.858   6.046   8.790 -0.0644 -0.1431 -0.9313
 7548SOL    HW228737   4.942   6.169   8.816 -2.6864  1.3950  0.6684
 7549SOL     OW28738   5.833   3.485   5.385 -0.8731 -0.0354  0.7458
 7549SOL    HW128739   5.769   3.439   5.331 -1.9950  0.7787  1.3444
 7549SOL    HW228740   5.848   3.428   5.460 -0.8254 -0.2622  0.5643
 7550SOL     OW28741  10.595   3.436  10.480  0.1336  0.3195  0.1150
 7550SOL    HW128742  10.541   3.359  10.460 -0.9702  1.2188 -0.4977
 7550SOL    HW228743  10.554   3.474  10.558  0.2451  0.6708  0.0052
 7551SOL     OW28744   2.532   3.210   0.408  0.1637 -0.0093 -0.5041
 7551SOL    HW128745   2.575   3.138   0.361 -0.6025 -1.9299  1.5682
 7551SOL    HW228746   2.599   3.245   0.466 -0.2760 -1.2392  0.7999
 7552SOL     OW28747   9.321  10.456   9.127  0.2737  0.7717  0.6898
 7552SOL    HW128748   9.402  10.412   9.152 -0.3982 -0.7313  0.3056
 7552SOL    HW228749   9.347  10.512   9.053  0.9343  0.2267  0.4995
 7553SOL     OW28750   3.746   2.872   1.314  0.8821  0.2802  0.2161
 7553SOL    HW128751   3.779   2.830   1.234 -0.3992  1.1761 -0.8150
 7553SOL    HW228752   3.680   2.812   1.347  0.5390  0.4842 -0.0920
 7554SOL     OW28753   5.929  10.358   4.287  0.5368 -0.0993  0.0877
 7554SOL    HW128754   5.841  10.381   4.258  0.5914  0.2315  0.1764
 7554SOL    HW228755   5.924  10.266   4.312  0.6503 -0.6243 -1.6698
 7555SOL     OW28756   0.774  10.546   1.150 -0.3311  0.1258  0.5378
 7555SOL    HW128757   0.804  10.457   1.168 -0.6402  0.4043  2.6276
 7555SOL    HW228758   0.839  10.603   1.192  0.1268  0.9342 -1.1782
 7556SOL     OW28759  10.815   2.365   2.657  0.5174  0.3970 -0.3821
 7556SOL    HW128760  10.762   2.309   2.599  0.6055  1.2645 -1.3389
 7556SOL    HW228761  10.888   2.394   2.601  1.0026  0.6800  0.3860
 7557SOL     OW28762   5.070   9.251   4.683  0.2154 -0.5341 -0.1146
 7557SOL    HW128763   5.006   9.244   4.612  1.6600 -2.7654 -1.3023
 7557SOL    HW228764   5.073   9.345   4.703  0.6957  0.4380 -3.9365
 7558SOL     OW28765   0.982   8.812   1.052  0.0490  0.0383 -0.1275
 7558SOL    HW128766   1.067   8.852   1.039  1.2720 -1.6139  1.9952
 7558SOL    HW228767   0.929   8.880   1.095  0.6338  0.7541 -0.5330
 7559SOL     OW28768  10.870   5.692   2.781 -0.1190 -0.1820  0.0271
 7559SOL    HW128769  10.819   5.736   2.849  0.6452 -0.2299  0.6404
 7559SOL    HW228770  10.961   5.702   2.808  0.1500 -0.9260 -0.5545
 7560SOL     OW28771  10.809   9.371   7.205 -0.4915  0.2972  0.3056
 7560SOL    HW128772  10.789   9.451   7.155 -0.4505  1.6749  2.3918
 7560SOL    HW228773  10.903   9.378   7.223 -0.2566 -0.8105 -0.4152
 7561SOL     OW28774   4.423   1.498   0.206  0.0270  0.1137  0.0860
 7561SOL    HW128775   4.448   1.585   0.237  0.8782  0.1821 -0.7766
 7561SOL    HW228776   4.351   1.514   0.144 -0.8487  0.0665  1.0535
 7562SOL     OW28777   4.891   7.312   0.783 -0.4615 -0.1655 -0.3249
 7562SOL    HW128778   4.945   7.360   0.721 -1.4372 -0.9096 -1.8009
 7562SOL    HW228779   4.845   7.247   0.730  0.0119 -2.0444  1.4233
 7563SOL     OW28780   7.153   7.428   8.502 -0.1926 -0.2261 -0.1109
 7563SOL    HW128781   7.160   7.519   8.531 -2.0191  0.0617 -0.3965
 7563SOL    HW228782   7.059   7.408   8.512  0.0287 -1.7825 -0.9128
 7564SOL     OW28783   0.226   9.032   5.229  0.1933 -0.1689 -0.6819
 7564SOL    HW128784   0.267   8.945   5.230 -0.3984 -0.4717  1.1937
 7564SOL    HW228785   0.221   9.057   5.321 -0.2584  1.5899 -1.1437
 7565SOL     OW28786   0.705   1.463   9.888 -0.1065  0.1121 -0.3489
 7565SOL    HW128787   0.701   1.425   9.800 -1.0904 -1.8015  0.4494
 7565SOL    HW228788   0.615   1.493   9.905  0.0671  0.4234  0.0173
 7566SOL     OW28789   9.498   0.711   4.867  0.3587  0.2894 -0.4805
 7566SOL    HW128790   9.473   0.750   4.783 -1.5920 -1.2331 -0.6959
 7566SOL    HW228791   9.417   0.713   4.919  1.2666  0.2487  0.9849
 7567SOL     OW28792   3.735   4.771   1.182 -0.1284 -0.2739  0.8631
 7567SOL    HW128793   3.692   4.692   1.147  1.1045 -1.0496  1.0568
 7567SOL    HW228794   3.740   4.756   1.276  3.0812 -1.5573  0.6150
 7568SOL     OW28795   7.211   9.244   9.759 -0.5129  0.2850 -0.2794
 7568SOL    HW128796   7.124   9.282   9.752  0.5028  2.9959  0.6723
 7568SOL    HW228797   7.237   9.227   9.669 -1.1121  1.7211 -0.7521
 7569SOL     OW28798   2.171   6.583   6.112  0.1621 -0.1078 -0.4897
 7569SOL    HW128799   2.261   6.615   6.112  0.5204 -0.7732 -3.5541
 7569SOL    HW228800   2.126   6.640   6.050 -1.2399 -0.5265  0.1135
 7570SOL     OW28801   4.438  10.926   7.148 -0.1758 -0.1436  0.2034
 7570SOL    HW128802   4.377  10.998   7.131 -0.3819 -0.5115 -0.6429
 7570SOL    HW228803   4.393  10.871   7.212 -0.5702 -0.2121 -0.1316
 7571SOL     OW28804   9.200   1.221   0.502 -0.6349  0.3961 -0.2642
 7571SOL    HW128805   9.187   1.256   0.591  0.6867 -1.8695  0.9136
 7571SOL    HW228806   9.174   1.129   0.509  0.7878 -0.1679 -1.8759
 7572SOL     OW28807   2.965   6.689   2.704  0.0365  0.2316 -0.0895
 7572SOL    HW128808   2.957   6.760   2.768  0.6140  1.1587 -1.0233
 7572SOL    HW228809   3.058   6.686   2.684  0.2748 -1.8358  1.0668
 7573SOL     OW28810   8.714   3.391   0.025 -0.0411 -0.2963  0.3660
 7573SOL    HW128811   8.643   3.415   0.084 -0.8003  0.0142 -0.6351
 7573SOL    HW228812   8.751   3.475  -0.003 -1.3412 -0.2834 -1.5246
 7574SOL     OW28813   0.542   6.101  10.533  0.7262  0.6078  0.4260
 7574SOL    HW128814   0.498   6.018  10.514  3.8148 -0.9701 -0.6521
 7574SOL    HW228815   0.476   6.168  10.516 -1.3600 -1.5361 -0.5409
 7575SOL     OW28816   7.281   1.836   3.207 -0.2443  0.0507 -0.2863
 7575SOL    HW128817   7.237   1.839   3.122 -1.3433  0.9449  0.2857
 7575SOL    HW228818   7.234   1.899   3.261  1.3758  0.6060  0.5586
 7576SOL     OW28819   9.464   9.990  10.241  0.0754  0.4064 -0.1782
 7576SOL    HW128820   9.513   9.995  10.159  0.2855  1.1029 -0.0199
 7576SOL    HW228821   9.501   9.915  10.287 -1.1862 -1.0442 -1.4395
 7577SOL     OW28822   5.396   5.213   1.762  0.3145 -0.2438  0.1485
 7577SOL    HW128823   5.427   5.274   1.695  0.4016 -0.9348 -0.4486
 7577SOL    HW228824   5.320   5.256   1.800 -0.0724 -0.0915 -0.7792
 7578SOL     OW28825   9.806   9.828   5.362 -0.0603 -0.1488 -0.0652
 7578SOL    HW128826   9.744   9.819   5.290  0.5625  0.1511 -0.6441
 7578SOL    HW228827   9.752   9.819   5.441 -0.7218 -0.6474 -0.5597
 7579SOL     OW28828   6.228   8.850  10.637  0.6818 -1.0713 -0.1979
 7579SOL    HW128829   6.316   8.889  10.633  0.2188  0.0206 -0.0694
 7579SOL    HW228830   6.210   8.842  10.731 -0.1229  0.5376 -0.1904
 7580SOL     OW28831  10.842   5.380   9.846  0.7455 -0.2579 -0.8133
 7580SOL    HW128832  10.755   5.416   9.862  1.1065 -0.0780  0.8646
 7580SOL    HW228833  10.872   5.351   9.932  2.3128 -0.3906 -1.3866
 7581SOL     OW28834   0.104   7.976   6.597 -0.7224 -0.0556  0.0175
 7581SOL    HW128835   0.147   7.921   6.531  1.0063  1.5780 -0.2787
 7581SOL    HW228836   0.114   7.927   6.679  2.1893  0.4545  0.0496
 7582SOL     OW28837   6.932   0.128   9.886  0.5829  0.6832  0.5079
 7582SOL    HW128838   6.948   0.159   9.975 -0.0702 -0.8826  1.2242
 7582SOL    HW228839   6.851   0.172   9.860 -0.4091 -0.4217  1.5530
 7583SOL     OW28840   1.523   9.946   5.970  0.1559  0.3239  0.0773
 7583SOL    HW128841   1.561   9.955   5.883  0.5679  1.3590  0.3524
 7583SOL    HW228842   1.483   9.859   5.970  1.8920 -0.5124 -0.4662
 7584SOL     OW28843   9.925   7.438  10.041  0.0170  0.0237 -0.2453
 7584SOL    HW128844   9.954   7.512   9.988  1.1558  0.5709  1.0532
 7584SOL    HW228845   9.921   7.364   9.980 -0.3992  0.9830 -1.4106
 7585SOL     OW28846   2.270   2.564  10.113 -0.0526 -0.2262 -0.2277
 7585SOL    HW128847   2.249   2.486  10.166  1.6027 -1.0941 -0.7876
 7585SOL    HW228848   2.292   2.631  10.177  1.2584 -1.0629  0.2388
 7586SOL     OW28849   4.763   1.857   5.789  0.3709  0.2997 -0.3522
 7586SOL    HW128850   4.725   1.919   5.851  1.0161  0.4468 -0.0928
 7586SOL    HW228851   4.848   1.895   5.767  0.7086 -0.4207 -0.3014
 7587SOL     OW28852   6.004   8.322   7.082  0.5912 -0.0134 -0.4894
 7587SOL    HW128853   6.034   8.401   7.126  0.4035  0.2676 -0.8700
 7587SOL    HW228854   5.914   8.341   7.056  0.4922 -0.4057 -0.4487
 7588SOL     OW28855   8.328   6.342   4.398  0.5823  0.1832 -0.1733
 7588SOL    HW128856   8.358   6.331   4.307  0.6471 -1.2259 -0.0117
 7588SOL    HW228857   8.263   6.272   4.409  0.2274  0.6456  0.7342
 7589SOL     OW28858   3.436   8.518   7.208  0.2919 -0.6339  0.1749
 7589SOL    HW128859   3.440   8.424   7.225 -3.1627 -0.6425  1.6636
 7589SOL    HW228860   3.343   8.537   7.202  0.7973  3.0359  1.8315
 7590SOL     OW28861   9.599   7.855  10.921  0.3487 -0.0358  0.0403
 7590SOL    HW128862   9.624   7.910  10.846  1.0864 -0.8168 -0.3208
 7590SOL    HW228863   9.616   7.766  10.890  1.0071 -0.3532  1.2597
 7591SOL     OW28864   7.854   4.551   8.592 -0.8662 -0.2365 -0.0705
 7591SOL    HW128865   7.848   4.610   8.667  1.9437 -1.0127  0.9272
 7591SOL    HW228866   7.898   4.603   8.524 -2.0712  0.0080 -0.6912
 7592SOL     OW28867   2.051   2.406   3.687 -0.4800  0.0356 -0.4745
 7592SOL    HW128868   1.997   2.351   3.631  0.6577 -0.5612 -1.0326
 7592SOL    HW228869   2.033   2.374   3.776  0.2110 -1.3354 -0.7900
 7593SOL     OW28870   5.899   6.093   5.223 -0.7624 -0.0429  0.4934
 7593SOL    HW128871   5.847   6.158   5.270 -1.5380 -0.0706 -0.2825
 7593SOL    HW228872   5.846   6.014   5.226  1.2281 -1.4186  3.5072
 7594SOL     OW28873   2.664   4.884   4.604  0.2772 -0.3899 -0.6047
 7594SOL    HW128874   2.710   4.962   4.573 -0.3265 -0.7463 -2.5461
 7594SOL    HW228875   2.585   4.880   4.549 -0.8572 -1.1103  1.0178
 7595SOL     OW28876   1.956  10.419   8.465  0.4441 -0.6245  0.6865
 7595SOL    HW128877   1.988  10.499   8.423  0.8803 -0.0526  2.0413
 7595SOL    HW228878   2.024  10.354   8.446 -0.6327 -1.1624 -1.7286
 7596SOL     OW28879   4.582   8.452   8.308  0.2261 -0.0533  0.2438
 7596SOL    HW128880   4.654   8.504   8.273 -0.8341  0.8431 -0.7045
 7596SOL    HW228881   4.542   8.509   8.375 -1.1576  0.5621 -1.0464
 7597SOL     OW28882   1.549   1.497   7.136 -0.2304 -0.9179  0.2471
 7597SOL    HW128883   1.465   1.486   7.092 -0.5916 -0.3144  0.7805
 7597SOL    HW228884   1.527   1.524   7.225  0.5388  0.5599  0.0241
 7598SOL     OW28885  10.909  10.199   6.704 -0.2816  0.3893  0.1094
 7598SOL    HW128886  10.845  10.134   6.674  0.1067  0.8163 -1.7398
 7598SOL    HW228887  10.991  10.151   6.707 -0.3352  0.3240  0.6144
 7599SOL     OW28888  10.359   0.997   4.085 -0.1361 -0.1970 -0.0182
 7599SOL    HW128889  10.306   1.076   4.074  1.5806  1.2585  1.4997
 7599SOL    HW228890  10.299   0.932   4.121 -1.9765 -0.1762 -2.7259
 7600SOL     OW28891   8.666  10.404   3.767  0.8033 -0.2540 -0.5448
 7600SOL    HW128892   8.629  10.483   3.805  0.3182 -0.3257 -0.8693
 7600SOL    HW228893   8.760  10.422   3.761  0.8837 -0.2167  0.6287
 7601SOL     OW28894   4.566   6.891   1.502  0.0973 -0.1464  0.2825
 7601SOL    HW128895   4.631   6.829   1.535 -0.4364  0.3442  2.3646
 7601SOL    HW228896   4.615   6.948   1.443  1.3504 -0.3506  1.0949
 7602SOL     OW28897   1.647   5.052   6.421  0.2249  0.3346  0.8833
 7602SOL    HW128898   1.688   5.068   6.336 -0.5972 -1.1341  0.1594
 7602SOL    HW228899   1.638   4.957   6.425 -0.5166  0.4383  2.2620
 7603SOL     OW28900   2.335   8.728   9.853  0.8070  0.3079 -1.1149
 7603SOL    HW128901   2.425   8.729   9.821  1.1265  2.7501 -0.4075
 7603SOL    HW228902   2.331   8.653   9.912  1.6403 -1.2363 -2.9063
 7604SOL     OW28903   5.558   9.902   2.856 -0.1187  0.1938  0.2638
 7604SOL    HW128904   5.537   9.979   2.909  2.0019  1.2984 -0.4174
 7604SOL    HW228905   5.518   9.921   2.771  0.7413  0.7622 -0.0274
 7605SOL     OW28906   6.865   8.686   4.949 -0.4549  0.2094  0.5147
 7605SOL    HW128907   6.891   8.737   5.026 -1.6571 -0.9796  1.7953
 7605SOL    HW228908   6.769   8.692   4.948 -0.7237 -2.5156  1.1661
 7606SOL     OW28909   3.893   2.461   7.564 -0.3324 -0.2648  0.4893
 7606SOL    HW128910   3.821   2.435   7.506 -0.0207 -0.2698  0.0995
 7606SOL    HW228911   3.972   2.437   7.515 -0.0679 -0.2687  0.9194
 7607SOL     OW28912  10.819   2.627   9.908 -0.0008  0.3244 -0.3179
 7607SOL    HW128913  10.878   2.552   9.910 -0.8955 -0.3951  0.2084
 7607SOL    HW228914  10.738   2.595   9.949 -0.2194  1.7390  0.4171
 7608SOL     OW28915   0.638   7.821   6.329 -0.5217 -0.4501  0.3352
 7608SOL    HW128916   0.565   7.856   6.280  0.4283 -0.7025 -1.3248
 7608SOL    HW228917   0.711   7.820   6.267  0.3101 -2.3086  1.2532
 7609SOL     OW28918   0.224   0.098   2.307  0.4248  0.0590 -0.2254
 7609SOL    HW128919   0.280   0.142   2.371  0.8936  0.4523 -0.8891
 7609SOL    HW228920   0.236   0.005   2.324  0.1863  0.1690  0.5540
 7610SOL     OW28921   2.646   0.465   7.800 -0.0425 -0.1206  0.3169
 7610SOL    HW128922   2.588   0.449   7.874  0.3248  0.3630  0.7133
 7610SOL    HW228923   2.665   0.378   7.765  1.9039 -0.6473  2.4180
 7611SOL     OW28924   0.530   9.456   0.151  0.2317 -0.4474  0.0670
 7611SOL    HW128925   0.592   9.508   0.101  0.3008 -1.1630 -0.6136
 7611SOL    HW228926   0.470   9.520   0.190 -0.1766  0.1017 -1.3990
 7612SOL     OW28927   3.602   6.434  10.004 -0.0571 -0.6797 -0.7700
 7612SOL    HW128928   3.616   6.346   9.968 -1.2402 -0.6097 -1.4369
 7612SOL    HW228929   3.508   6.446  10.001 -0.0773 -0.0989  1.0754
 7613SOL     OW28930   9.863   8.168   2.460  0.6460  0.1573 -0.1846
 7613SOL    HW128931   9.768   8.166   2.474  0.4765 -0.7637 -1.3552
 7613SOL    HW228932   9.900   8.152   2.547 -0.2657  0.4085  0.2649
 7614SOL     OW28933   7.868   4.250   0.692  1.1408  0.3497  0.2267
 7614SOL    HW128934   7.828   4.289   0.770 -0.1614  0.5145 -0.4901
 7614SOL    HW228935   7.877   4.323   0.631 -0.1674 -0.2007 -0.6726
 7615SOL     OW28936  10.064   5.725   6.348  0.3055 -0.0148 -0.0604
 7615SOL    HW128937  10.061   5.805   6.295  1.3817  1.0250  1.3700
 7615SOL    HW228938  10.040   5.754   6.436  0.0458 -1.4155  0.3514
 7616SOL     OW28939   6.779   9.345   5.506 -0.0022  0.4720  0.5630
 7616SOL    HW128940   6.719   9.368   5.436 -0.1228  0.5696  0.6974
 7616SOL    HW228941   6.864   9.378   5.477  0.0531  0.0483  0.2260
 7617SOL     OW28942  10.290   5.539   6.311 -0.5395  0.5450 -0.3648
 7617SOL    HW128943  10.230   5.519   6.383 -0.3995 -0.9189 -0.6120
 7617SOL    HW228944  10.235   5.582   6.245 -0.4408  2.9737  1.0140
 7618SOL     OW28945   3.219   2.483   6.651  0.4109  0.4239  0.1479
 7618SOL    HW128946   3.288   2.453   6.591 -2.2518 -1.3279 -2.3193
 7618SOL    HW228947   3.174   2.553   6.603  0.1252  1.1726  1.4736
 7619SOL     OW28948   7.726   1.569   3.729  0.1712 -0.0348  0.0803
 7619SOL    HW128949   7.785   1.497   3.750 -0.3118 -0.1028  1.2654
 7619SOL    HW228950   7.681   1.588   3.811 -0.4492  0.9408 -0.4669
 7620SOL     OW28951   8.756   8.361   5.695  0.2346  0.4278 -0.0503
 7620SOL    HW128952   8.769   8.322   5.609 -0.3271 -1.8082  0.7968
 7620SOL    HW228953   8.826   8.425   5.704  1.7567 -0.9916 -1.2388
 7621SOL     OW28954  10.579   8.278   2.680  0.3153 -0.0344 -0.3815
 7621SOL    HW128955  10.520   8.268   2.605 -0.2508  0.4586 -0.0030
 7621SOL    HW228956  10.655   8.326   2.645 -1.5276  3.5659  0.1261
 7622SOL     OW28957   7.902   7.755   1.910  0.3032 -0.3296  0.6501
 7622SOL    HW128958   7.915   7.733   2.003  1.5211 -1.9261  0.1424
 7622SOL    HW228959   7.830   7.699   1.882  0.3430 -0.2926  0.4770
 7623SOL     OW28960   6.623   6.491   4.320 -0.3941 -0.0332  0.3559
 7623SOL    HW128961   6.596   6.400   4.335  0.1461 -0.7261 -2.3630
 7623SOL    HW228962   6.548   6.531   4.275 -0.0807  0.4499  0.2589
 7624SOL     OW28963   2.830  10.823   4.538  0.2297  0.0261 -0.6819
 7624SOL    HW128964   2.802  10.905   4.578 -2.3410 -2.0475  2.1863
 7624SOL    HW228965   2.802  10.830   4.447  2.0116  3.0579 -1.1472
 7625SOL     OW28966   2.006   4.350   4.492  0.4571  0.8921 -0.0912
 7625SOL    HW128967   2.031   4.305   4.573 -1.9835 -0.0379  0.2377
 7625SOL    HW228968   1.992   4.279   4.429 -0.3091  1.4275 -0.5273
 7626SOL     OW28969   8.147   0.242   7.185  0.6436 -0.0735  0.3152
 7626SOL    HW128970   8.134   0.151   7.158  0.7133 -0.0508  0.2050
 7626SOL    HW228971   8.074   0.289   7.144  0.1237 -0.2151  1.0631
 7627SOL     OW28972   8.999   3.064   7.180 -0.2340  0.2021  0.1889
 7627SOL    HW128973   9.031   3.043   7.093 -0.8285  1.3340 -0.3197
 7627SOL    HW228974   9.050   3.140   7.208 -0.0748 -0.1223  0.8160
 7628SOL     OW28975  10.630  10.546   1.928 -0.8272  0.1360  0.1325
 7628SOL    HW128976  10.598  10.566   1.840  0.8094  0.4683 -0.4215
 7628SOL    HW228977  10.591  10.461   1.949 -3.1948  1.1291  0.1282
 7629SOL     OW28978   6.886   8.690   2.519  0.2515 -0.0809 -0.0740
 7629SOL    HW128979   6.872   8.774   2.475 -0.9538 -0.8730 -1.2643
 7629SOL    HW228980   6.932   8.637   2.454  0.8759 -0.4058  0.6256
 7630SOL     OW28981   1.679   0.588   6.406  0.3143 -0.1579 -0.0490
 7630SOL    HW128982   1.685   0.679   6.432 -0.7455 -0.1400  0.1553
 7630SOL    HW228983   1.620   0.588   6.331  1.5682 -0.4872 -1.0711
 7631SOL     OW28984   9.123  10.860   5.571 -0.5528 -0.1871  0.1769
 7631SOL    HW128985   9.068  10.818   5.505  0.0036  0.0119 -0.4258
 7631SOL    HW228986   9.065  10.921   5.616 -0.9544 -0.3793 -0.0815
 7632SOL     OW28987  10.225   6.240   8.142  0.1596 -0.3058  0.5240
 7632SOL    HW128988  10.253   6.251   8.233 -0.3253 -1.1020  0.7871
 7632SOL    HW228989  10.167   6.315   8.126 -1.5245 -1.3031  1.6142
 7633SOL     OW28990   3.501   9.919   5.842  0.0547  0.1900  0.3583
 7633SOL    HW128991   3.512   9.908   5.747 -2.7376  0.5073 -0.0713
 7633SOL    HW228992   3.591   9.920   5.876  1.1208 -1.5313 -2.0707
 7634SOL     OW28993   1.006   4.810   7.649 -0.1122 -0.1467 -0.3462
 7634SOL    HW128994   0.944   4.881   7.630 -0.6699 -0.8987 -1.4383
 7634SOL    HW228995   1.065   4.809   7.573  0.2558 -0.4717 -0.0604
 7635SOL     OW28996   7.788   7.598   0.746 -0.6025 -0.3487 -0.1444
 7635SOL    HW128997   7.867   7.597   0.693 -1.2660  1.3032 -1.2564
 7635SOL    HW228998   7.722   7.639   0.690 -1.3764  1.3816  1.8982
 7636SOL     OW28999   9.441   5.603   7.508 -0.1508  0.4692 -0.1465
 7636SOL    HW129000   9.491   5.672   7.464  0.7432 -1.3758 -2.1925
 7636SOL    HW229001   9.428   5.537   7.441  0.8773 -2.3590  2.2448
 7637SOL     OW29002   8.654  10.156   5.721  0.2124 -0.5049 -0.1764
 7637SOL    HW129003   8.663  10.156   5.626  0.8463  0.9359 -0.1402
 7637SOL    HW229004   8.740  10.129   5.753  0.5002  0.5353 -0.0167
 7638SOL     OW29005   6.681   2.660   0.436  0.2275 -0.4878  0.0377
 7638SOL    HW129006   6.728   2.666   0.353  0.1503 -2.9275 -0.2596
 7638SOL    HW229007   6.685   2.567   0.459 -1.5856 -0.2218  1.6793
 7639SOL     OW29008   8.400   7.386   0.028 -0.2282  0.4047  0.3055
 7639SOL    HW129009   8.341   7.444  -0.020 -0.5773 -1.0931 -1.1826
 7639SOL    HW229010   8.473   7.370  -0.032 -0.0169 -0.4791  0.7696
 7640SOL     OW29011   9.086   4.765   8.934 -0.1497 -0.3950 -0.3506
 7640SOL    HW129012   9.115   4.788   9.023 -0.8905 -0.1145 -0.1690
 7640SOL    HW229013   9.087   4.670   8.933  0.6059 -0.3945 -0.2995
 7641SOL     OW29014   1.293   9.916  10.556 -0.0302  0.4963 -0.2688
 7641SOL    HW129015   1.368   9.915  10.617  0.7108  1.1630 -1.1364
 7641SOL    HW229016   1.231   9.976  10.598  0.3537  0.7345 -0.0222
 7642SOL     OW29017   4.547   9.534   6.167  0.3522  0.7123 -0.4714
 7642SOL    HW129018   4.513   9.454   6.129 -1.0601  1.1919 -0.2998
 7642SOL    HW229019   4.549   9.517   6.262 -0.0806  0.9188 -0.4232
 7643SOL     OW29020  10.300   1.466  10.329 -0.1173 -0.0395  0.3594
 7643SOL    HW129021  10.337   1.451  10.242 -0.2403 -1.1553  0.4930
 7643SOL    HW229022  10.240   1.393  10.343  1.2280 -0.8868  2.0963
 7644SOL     OW29023   1.684   3.038   9.751  0.3655  0.1631 -0.4330
 7644SOL    HW129024   1.726   3.101   9.692  0.1181 -1.8134 -2.8812
 7644SOL    HW229025   1.592   3.038   9.725  0.0740 -0.1473  0.5506
 7645SOL     OW29026   0.065   7.831   3.300 -0.6641  0.1370  0.2431
 7645SOL    HW129027   0.103   7.770   3.363 -0.8145  0.4766  0.6726
 7645SOL    HW229028  -0.022   7.850   3.334  0.0425  2.0489  1.1666
 7646SOL     OW29029   6.880   2.359   2.088  0.0819  0.1069 -0.7040
 7646SOL    HW129030   6.794   2.387   2.056 -0.0397  0.6577  0.0773
 7646SOL    HW229031   6.908   2.292   2.026 -0.6364  0.3640 -1.3210
 7647SOL     OW29032   3.229   9.645   1.924 -0.0062 -0.1184 -0.5249
 7647SOL    HW129033   3.248   9.713   1.859  0.9593  0.6992  0.5593
 7647SOL    HW229034   3.156   9.679   1.975  1.1766  0.6910  0.7310
 7648SOL     OW29035   2.850   6.291   3.477  0.0945 -0.0323 -0.8401
 7648SOL    HW129036   2.840   6.337   3.394 -0.0695 -1.0372 -1.3869
 7648SOL    HW229037   2.774   6.233   3.482 -1.2644  1.7414  1.1701
 7649SOL     OW29038   7.307   8.924   8.602 -0.7286  0.2560  0.0548
 7649SOL    HW129039   7.374   8.987   8.574  0.3279 -0.4667  0.8558
 7649SOL    HW229040   7.225   8.973   8.600 -0.0722  1.3769 -0.2389
 7650SOL     OW29041  10.086   8.997   5.531 -0.1107 -0.0462 -0.0422
 7650SOL    HW129042   9.996   8.978   5.557  0.2422 -0.0633  1.2305
 7650SOL    HW229043  10.126   8.911   5.519 -0.1877 -0.0382 -0.3916
 7651SOL     OW29044   6.082   3.002   4.965 -0.0821  0.3704 -0.5576
 7651SOL    HW129045   6.090   3.008   5.060  1.9936  0.5409 -0.6888
 7651SOL    HW229046   5.988   3.008   4.948 -0.6831 -1.5760  1.5900
 7652SOL     OW29047   4.972   5.111   4.819 -0.4563 -0.3175 -0.2012
 7652SOL    HW129048   4.939   5.021   4.815  0.0050 -0.4712 -0.5485
 7652SOL    HW229049   5.013   5.118   4.905 -1.6286 -0.0329  0.3686
 7653SOL     OW29050   9.195   2.759   8.703 -0.0247 -0.1771 -0.4384
 7653SOL    HW129051   9.221   2.668   8.714 -2.8499 -1.2883 -2.2065
 7653SOL    HW229052   9.116   2.769   8.755 -1.6844  0.2463 -2.8880
 7654SOL     OW29053   3.202   9.188   0.310 -0.0801 -0.5306 -0.3573
 7654SOL    HW129054   3.259   9.253   0.352  0.3831 -1.3204  0.2492
 7654SOL    HW229055   3.248   9.164   0.229 -1.7958  2.3232 -2.3993
 7655SOL     OW29056   4.152   4.600   7.076 -0.1824  0.4454  0.0643
 7655SOL    HW129057   4.170   4.685   7.117 -0.2274  0.1226  0.7724
 7655SOL    HW229058   4.072   4.569   7.118 -0.5394  0.3539 -0.6739
 7656SOL     OW29059   5.906   1.515   0.291 -0.6366  0.2570 -0.2323
 7656SOL    HW129060   5.945   1.558   0.215 -2.8232  0.5691 -1.2649
 7656SOL    HW229061   5.948   1.557   0.366 -0.2578  1.7884 -1.2519
 7657SOL     OW29062  10.671   1.756   5.296  0.3210 -0.2851 -0.0560
 7657SOL    HW129063  10.654   1.670   5.259  0.6492 -0.8415  1.0693
 7657SOL    HW229064  10.746   1.789   5.246  0.9345 -1.1356  0.2884
 7658SOL     OW29065   3.118  10.241   5.679 -0.3051 -0.2517  0.2716
 7658SOL    HW129066   3.091  10.329   5.704  0.5342  0.0718  0.0822
 7658SOL    HW229067   3.036  10.197   5.655 -0.8548  0.1160  1.4316
 7659SOL     OW29068   1.000   7.447   8.398 -0.8635  0.0101 -0.5938
 7659SOL    HW129069   1.067   7.451   8.330  0.6016  0.5577  0.8135
 7659SOL    HW229070   0.965   7.535   8.404 -0.8237  0.0201 -0.4956
 7660SOL     OW29071   4.528   6.319   8.698 -0.1006 -0.0547  0.4340
 7660SOL    HW129072   4.444   6.283   8.669 -0.3170 -0.0821  1.0739
 7660SOL    HW229073   4.592   6.251   8.676 -0.3995 -0.5098  0.9405
 7661SOL     OW29074   0.097   9.629   9.487 -0.2120 -0.2608  0.0472
 7661SOL    HW129075   0.007   9.627   9.521 -0.5024  3.1881 -0.1230
 7661SOL    HW229076   0.089   9.676   9.404  1.8312  0.9820  0.4969
 7662SOL     OW29077   6.177   0.177   4.223 -0.6775  0.0761  0.3694
 7662SOL    HW129078   6.184   0.170   4.318  0.8457  2.5253  0.5224
 7662SOL    HW229079   6.247   0.121   4.189  1.1488  1.9000  0.9025
 7663SOL     OW29080   3.162   6.187   3.360  0.1482  0.0476  0.1657
 7663SOL    HW129081   3.249   6.152   3.341  1.5493  2.8157  0.9660
 7663SOL    HW229082   3.163   6.205   3.454 -1.2637  0.2339  0.1686
 7664SOL     OW29083   3.003   9.263   4.056  0.1405 -0.5029 -0.0134
 7664SOL    HW129084   3.014   9.186   4.001 -0.7060 -0.5210 -0.1734
 7664SOL    HW229085   3.048   9.333   4.009 -1.0996 -0.3733 -1.0730
 7665SOL     OW29086   8.678   2.927   6.065  0.0812 -0.4613  0.3149
 7665SOL    HW129087   8.628   2.996   6.108 -2.1060 -0.7026 -1.6722
 7665SOL    HW229088   8.639   2.846   6.097  0.7586 -0.7368  0.4693
 7666SOL     OW29089   7.453   4.822   1.025  0.5107  0.1430  0.1423
 7666SOL    HW129090   7.455   4.729   1.005 -1.2762  0.6173 -2.7937
 7666SOL    HW229091   7.369   4.835   1.070  0.1077  0.4959 -0.6868
 7667SOL     OW29092  10.487   9.678   7.705  0.8310  0.1835 -0.0218
 7667SOL    HW129093  10.580   9.657   7.708  0.7007 -0.8233 -1.7477
 7667SOL    HW229094  10.481   9.755   7.649  0.3578 -2.2569 -3.6398
 7668SOL     OW29095   5.202   6.918   1.334 -0.0253 -0.5632 -0.3056
 7668SOL    HW129096   5.134   6.865   1.292 -1.2815  0.6471  0.1004
 7668SOL    HW229097   5.241   6.968   1.262 -0.2170 -0.5810 -0.4235
 7669SOL     OW29098   0.532   1.246   7.443  0.3465  0.6988 -0.0547
 7669SOL    HW129099   0.596   1.276   7.508  1.6412 -2.6925  0.4661
 7669SOL    HW229100   0.454   1.225   7.495  0.2075  1.1118 -0.0956
 7670SOL     OW29101   5.165  10.382   1.746  0.2108  0.6256  0.5240
 7670SOL    HW129102   5.213  10.309   1.709  0.5035  1.4211 -0.7064
 7670SOL    HW229103   5.187  10.380   1.840  2.2752  0.6841  0.0926
 7671SOL     OW29104   6.367   1.141   4.635  0.6277 -0.1593  0.3320
 7671SOL    HW129105   6.425   1.152   4.711  2.3642 -1.4568 -0.7291
 7671SOL    HW229106   6.324   1.226   4.626  2.9911  1.1876  0.7297
 7672SOL     OW29107   5.530   7.995   6.302  0.5137 -0.2922 -0.3899
 7672SOL    HW129108   5.503   7.924   6.360 -1.8160 -0.6449 -1.7804
 7672SOL    HW229109   5.500   8.074   6.345  0.2514 -0.4193 -0.3374
 7673SOL     OW29110  10.483   6.115   7.788 -0.0513  0.1882  0.5322
 7673SOL    HW129111  10.568   6.109   7.746 -0.2320 -0.7309  0.2770
 7673SOL    HW229112  10.423   6.070   7.728 -0.8618  1.4590  0.3469
 7674SOL     OW29113   9.194   7.636   4.618 -0.2763  0.2246 -0.5560
 7674SOL    HW129114   9.216   7.693   4.691 -0.1147  1.1035 -1.2613
 7674SOL    HW229115   9.173   7.552   4.658  2.4253 -0.1368  0.3090
 7675SOL     OW29116   7.325   7.586   0.137 -0.3406  0.0755 -0.4197
 7675SOL    HW129117   7.313   7.576   0.232 -2.7809  0.9974 -0.5657
 7675SOL    HW229118   7.420   7.578   0.124 -0.0070 -0.7606  1.9947
 7676SOL     OW29119   5.306   4.696   3.482 -0.2823 -0.5499 -0.2377
 7676SOL    HW129120   5.266   4.651   3.556  0.8086  0.8488  1.2719
 7676SOL    HW229121   5.386   4.648   3.465 -0.2299 -0.5102 -0.1032
 7677SOL     OW29122   7.389   0.541   6.625 -0.2463 -0.4285  0.2388
 7677SOL    HW129123   7.380   0.595   6.704  1.1603 -0.5973  0.5398
 7677SOL    HW229124   7.331   0.582   6.561 -3.0865 -1.4880  1.9330
 7678SOL     OW29125   4.590   8.080   1.299  0.0736 -0.6777 -0.1043
 7678SOL    HW129126   4.684   8.086   1.281  0.4472  0.2576  1.8576
 7678SOL    HW229127   4.585   8.037   1.384 -1.1568  0.8978  0.6728
 7679SOL     OW29128   1.833   9.374   7.104 -0.3568  0.3109 -0.1550
 7679SOL    HW129129   1.837   9.420   7.187  0.3157 -0.9168  0.5321
 7679SOL    HW229130   1.917   9.393   7.062  0.0367 -0.4682  0.2523
 7680SOL     OW29131   3.632   1.230   9.229  0.0074 -0.0945  0.1746
 7680SOL    HW129132   3.555   1.259   9.278 -0.4068  0.9830 -1.0479
 7680SOL    HW229133   3.706   1.263   9.279 -0.3806  0.1541  0.5908
 7681SOL     OW29134  10.240   1.660   0.441  0.2064 -0.0998 -0.4116
 7681SOL    HW129135  10.155   1.626   0.413 -0.5743  1.2779  0.1722
 7681SOL    HW229136  10.278   1.590   0.493 -1.3848 -0.1217  0.8203
 7682SOL     OW29137   0.837   2.228  10.355 -0.0709 -0.0622  0.4509
 7682SOL    HW129138   0.881   2.286  10.417  0.2144 -1.6685  1.8190
 7682SOL    HW229139   0.816   2.150  10.406  1.3012 -2.0048 -1.7580
 7683SOL     OW29140   7.933   4.004   0.589  0.0542 -0.0036 -0.4521
 7683SOL    HW129141   7.920   4.096   0.610 -0.4580 -0.2528  0.3877
 7683SOL    HW229142   7.900   3.994   0.500  0.3061  0.6599 -0.6249
 7684SOL     OW29143   0.647  10.160   4.321 -0.4477  0.3229  0.6346
 7684SOL    HW129144   0.675  10.121   4.404 -1.4626 -0.2692  0.7184
 7684SOL    HW229145   0.636  10.086   4.262  1.4960  0.8382 -0.4475
 7685SOL     OW29146   0.595   0.202   1.914 -0.1165  0.4870 -0.4086
 7685SOL    HW129147   0.530   0.134   1.931 -1.0300  1.6283  0.8827
 7685SOL    HW229148   0.654   0.164   1.849 -1.2389 -1.1121 -0.5310
 7686SOL     OW29149   6.196   6.708   8.271 -0.0186  0.4774 -0.0185
 7686SOL    HW129150   6.115   6.707   8.220  1.0803  1.5693 -1.9019
 7686SOL    HW229151   6.168   6.698   8.362 -2.0861 -1.3091 -0.7923
 7687SOL     OW29152   8.547   1.732   5.377 -0.2274  0.2365  0.7909
 7687SOL    HW129153   8.487   1.661   5.400 -0.4876  0.4286  0.7018
 7687SOL    HW229154   8.525   1.803   5.438 -2.3319  1.5252 -1.3004
 7688SOL     OW29155   0.112   7.820   8.049 -0.3976 -0.8158  0.2605
 7688SOL    HW129156   0.187   7.823   7.989 -0.6381 -2.3907 -0.1690
 7688SOL    HW229157   0.145   7.856   8.131  0.8143 -1.3987  0.0465
 7689SOL     OW29158   0.908   0.823   3.248  0.5800 -0.0394 -0.0150
 7689SOL    HW129159   0.918   0.882   3.322  2.4126 -1.2441  0.7979
 7689SOL    HW229160   0.917   0.879   3.171  0.4054  0.9912  0.6959
 7690SOL     OW29161   1.141   8.331   6.645  0.1844 -0.4352 -0.2116
 7690SOL    HW129162   1.085   8.370   6.712  1.9519  0.9759  0.5632
 7690SOL    HW229163   1.153   8.402   6.581  2.7623  0.1296  0.7727
 7691SOL     OW29164   6.294   5.310   6.918  0.0605  0.1689 -0.2679
 7691SOL    HW129165   6.319   5.329   6.827 -0.2224  0.0661 -0.3673
 7691SOL    HW229166   6.377   5.315   6.966  0.5744 -1.8052 -0.8520
 7692SOL     OW29167   0.790   9.238   8.271 -0.3882  0.0842  0.0245
 7692SOL    HW129168   0.833   9.228   8.186  1.1093 -0.0147  0.7635
 7692SOL    HW229169   0.737   9.159   8.281  1.1779 -0.9821  0.1428
 7693SOL     OW29170   8.047   2.433   7.892 -0.4421 -0.5495 -0.5773
 7693SOL    HW129171   8.025   2.342   7.914  0.2471 -0.3672  0.9824
 7693SOL    HW229172   7.982   2.458   7.827  0.6945 -2.8460 -2.7421
 7694SOL     OW29173   2.699   1.028   5.187 -0.6174 -0.3573 -0.0750
 7694SOL    HW129174   2.617   0.986   5.210 -0.2614 -2.6670 -2.5428
 7694SOL    HW229175   2.679   1.080   5.109 -0.1507  0.8275  0.5599
 7695SOL     OW29176   5.005   5.458   5.578 -0.0324  0.3469  0.1755
 7695SOL    HW129177   5.025   5.471   5.671 -1.7915  0.8171  0.5206
 7695SOL    HW229178   4.911   5.475   5.571 -0.7101 -3.1349 -1.0611
 7696SOL     OW29179   2.778   9.904   3.878  0.3597 -0.1902 -0.3023
 7696SOL    HW129180   2.751   9.960   3.951 -0.3633 -0.3138 -0.4624
 7696SOL    HW229181   2.697   9.890   3.828  0.7810 -0.3868 -0.9341
 7697SOL     OW29182   8.466   6.603  10.474  0.0638  0.4048 -0.0027
 7697SOL    HW129183   8.384   6.589  10.522  0.6636  0.0122  0.9180
 7697SOL    HW229184   8.533   6.561  10.527  0.7939  0.2334 -1.0375
 7698SOL     OW29185   2.170  10.546   0.341 -0.2248 -0.6282 -0.2120
 7698SOL    HW129186   2.086  10.504   0.324  0.1684 -2.3116  1.6975
 7698SOL    HW229187   2.154  10.602   0.418  0.3238 -0.7293 -0.0183
 7699SOL     OW29188  10.429   1.658   1.325  0.0523 -0.0004  0.2310
 7699SOL    HW129189  10.445   1.647   1.231 -1.1452  1.2773 -0.1441
 7699SOL    HW229190  10.512   1.690   1.360  0.5030 -0.4755 -0.3807
 7700SOL     OW29191   5.380   0.404   5.320 -0.3929 -0.6182  0.9154
 7700SOL    HW129192   5.475   0.407   5.310 -0.2292 -1.6329  1.9624
 7700SOL    HW229193   5.360   0.476   5.379 -0.5141  0.7268 -0.6914
 7701SOL     OW29194   7.558   0.535   6.009 -0.3222  0.1418  0.1153
 7701SOL    HW129195   7.637   0.579   6.041  1.1219 -2.4337  0.3754
 7701SOL    HW229196   7.511   0.603   5.960  0.6542  2.4869  2.1600
 7702SOL     OW29197  10.634   7.664   8.118  0.3212  0.3352 -0.1221
 7702SOL    HW129198  10.580   7.729   8.164 -0.2336 -0.8818  1.0153
 7702SOL    HW229199  10.662   7.603   8.187  1.8617  0.0502 -0.9611
 7703SOL     OW29200   8.309   9.373   6.871 -0.5317  0.1219  0.4731
 7703SOL    HW129201   8.247   9.415   6.812  0.5352  0.8056 -0.2183
 7703SOL    HW229202   8.383   9.434   6.873  0.4710 -1.0651  0.5745
 7704SOL     OW29203   7.660   2.957   8.280 -0.4324 -0.7449  0.1003
 7704SOL    HW129204   7.692   2.878   8.236  2.1840 -0.1035  0.7215
 7704SOL    HW229205   7.659   2.935   8.373 -0.5444 -0.3162  0.2032
 7705SOL     OW29206   9.484   5.132   0.924  0.2052  0.1427 -0.7315
 7705SOL    HW129207   9.414   5.075   0.891 -0.4016  0.3419  0.1893
 7705SOL    HW229208   9.533   5.077   0.986  0.0551  0.4016 -0.3803
 7706SOL     OW29209   2.456   0.583   9.713  0.1782 -0.0054 -0.5805
 7706SOL    HW129210   2.418   0.497   9.699  0.6392 -0.4414  0.6782
 7706SOL    HW229211   2.409   0.618   9.789  0.1546  0.7545 -0.9320
 7707SOL     OW29212   2.142   9.817   4.830 -0.3890  0.3148 -0.5760
 7707SOL    HW129213   2.236   9.804   4.819  0.0313  1.8284  0.8563
 7707SOL    HW229214   2.110   9.733   4.861  0.6665  0.0724 -0.1038
 7708SOL     OW29215   6.241   2.250   9.505 -0.4824  0.1696  0.5656
 7708SOL    HW129216   6.285   2.186   9.562 -1.2596 -0.8651  0.0351
 7708SOL    HW229217   6.251   2.214   9.417 -1.0610  0.7111  0.2761
 7709SOL     OW29218   0.289   7.338   6.570  0.6541  0.3175 -0.5760
 7709SOL    HW129219   0.286   7.284   6.649 -0.6979  1.7513  0.4089
 7709SOL    HW229220   0.380   7.336   6.542  0.7508 -2.0279 -0.2967
 7710SOL     OW29221   0.643   1.932  10.777  0.2112 -0.1254  0.0929
 7710SOL    HW129222   0.721   1.916  10.829 -1.3040  1.5462  3.1287
 7710SOL    HW229223   0.611   1.845  10.754  2.7155 -0.8520 -1.0293
 7711SOL     OW29224  10.767   2.880  10.627  0.4207  0.0631  0.0426
 7711SOL    HW129225  10.774   2.795  10.583  1.3732  0.8589 -1.4247
 7711SOL    HW229226  10.857   2.902  10.650  0.0704  0.2643  1.2436
 7712SOL     OW29227   5.020   4.839   7.858  0.3576  0.3454 -0.8890
 7712SOL    HW129228   5.114   4.831   7.879  0.4624  1.4676 -0.8772
 7712SOL    HW229229   4.987   4.750   7.866  1.3289  0.0048 -0.4033
 7713SOL     OW29230   1.890   1.400   3.445  0.3197  0.0746 -0.4370
 7713SOL    HW129231   1.854   1.312   3.434 -0.6900  0.5106 -0.8180
 7713SOL    HW229232   1.895   1.435   3.356  1.8746 -0.0119 -0.4171
 7714SOL     OW29233   0.659   3.223   0.012  0.9241  0.2919  0.2439
 7714SOL    HW129234   0.648   3.152   0.075  0.6253 -0.4815 -0.6504
 7714SOL    HW229235   0.580   3.220  -0.041  1.2814  0.7654 -0.3215
 7715SOL     OW29236   7.097   4.093   8.298 -0.1574  0.7178 -0.3593
 7715SOL    HW129237   7.174   4.114   8.246 -0.5369  0.5761 -0.9938
 7715SOL    HW229238   7.051   4.176   8.310 -1.1012  0.4740 -1.9600
 7716SOL     OW29239   9.971   4.532   4.526  0.2783 -0.0837  0.1637
 7716SOL    HW129240   9.981   4.626   4.538  0.6411  0.0581 -1.1157
 7716SOL    HW229241   9.877   4.517   4.531  0.0960  0.5598 -0.9557
 7717SOL     OW29242   9.880   0.794   3.516  0.9610  1.3625 -0.1878
 7717SOL    HW129243   9.815   0.794   3.446  1.2884  1.2399 -0.4957
 7717SOL    HW229244   9.950   0.737   3.484  0.1318 -0.5057  1.1743
 7718SOL     OW29245  10.567  10.413   4.841 -0.0149  0.1224 -0.3575
 7718SOL    HW129246  10.637  10.453   4.790  0.5509  0.6986  0.8392
 7718SOL    HW229247  10.487  10.456   4.811  0.3257  0.5451 -0.6542
 7719SOL     OW29248   0.121   2.837   5.699 -0.7564  0.3001 -0.2410
 7719SOL    HW129249   0.049   2.774   5.700 -0.0135 -0.5658  1.2026
 7719SOL    HW229250   0.200   2.784   5.709  0.0995  1.2586 -1.5382
 7720SOL     OW29251   5.520   3.864   4.057  0.0332 -0.3069 -0.2062
 7720SOL    HW129252   5.465   3.928   4.102  1.1743 -0.5756  1.6781
 7720SOL    HW229253   5.516   3.786   4.112  1.4354 -0.6818 -0.6020
 7721SOL     OW29254   0.997   4.416   2.316  0.3721  0.1169  0.3839
 7721SOL    HW129255   1.052   4.350   2.273  1.2001  0.0900  1.4371
 7721SOL    HW229256   1.038   4.500   2.293  0.0686  0.1859  0.0879
 7722SOL     OW29257  10.517   0.397   7.817  0.1632  0.5718 -0.2811
 7722SOL    HW129258  10.427   0.409   7.846 -0.3573  1.8161 -2.2563
 7722SOL    HW229259  10.570   0.424   7.892 -1.0919  0.7977  0.5518
 7723SOL     OW29260   5.927  10.493  10.283 -0.1084  0.1161 -0.4492
 7723SOL    HW129261   5.996  10.477  10.219  0.8277  0.6488  0.3805
 7723SOL    HW229262   5.915  10.588  10.282  0.8162  0.2962  1.0001
 7724SOL     OW29263   7.832   6.764   2.842 -0.3680  0.3107  0.1293
 7724SOL    HW129264   7.774   6.740   2.914 -1.5799  0.6762 -0.6930
 7724SOL    HW229265   7.873   6.846   2.871  1.3507 -0.9707  1.5745
 7725SOL     OW29266   4.234   0.942   6.209  0.6950  0.7556  0.2563
 7725SOL    HW129267   4.157   0.929   6.264  0.7100  2.2480  0.6615
 7725SOL    HW229268   4.280   0.858   6.212 -1.8227 -0.7954 -1.5105
 7726SOL     OW29269   5.637   2.753   6.739 -0.1991  0.2586  0.5002
 7726SOL    HW129270   5.730   2.770   6.747 -0.2249  0.4850  0.3291
 7726SOL    HW229271   5.597   2.840   6.734 -0.1825  0.1807 -2.1079
 7727SOL     OW29272   0.760   1.463   4.054 -0.9601  0.2060  0.0937
 7727SOL    HW129273   0.730   1.461   3.963 -0.3890 -1.0421 -0.0825
 7727SOL    HW229274   0.680   1.453   4.106 -1.2771  0.8325 -0.2601
 7728SOL     OW29275   2.132   4.938   0.159 -0.4044 -0.0825  0.1192
 7728SOL    HW129276   2.211   4.913   0.112 -1.0116 -0.5231 -0.6797
 7728SOL    HW229277   2.093   4.855   0.187 -0.8520  0.1026  0.0599
 7729SOL     OW29278   7.818   8.727   5.410 -0.4758  0.0632  0.2814
 7729SOL    HW129279   7.795   8.657   5.350  1.0485 -0.9067  0.7676
 7729SOL    HW229280   7.856   8.795   5.355 -0.9706  0.0456 -0.0788
 7730SOL     OW29281   0.068   9.986   2.569  0.3229 -0.4902  0.1069
 7730SOL    HW129282  -0.027  10.001   2.574 -0.1368 -3.1453  1.9327
 7730SOL    HW229283   0.105  10.047   2.632 -0.1549  0.5266 -0.5732
 7731SOL     OW29284   2.493   9.734   8.085  0.1198 -0.1110  0.3756
 7731SOL    HW129285   2.466   9.701   8.170 -1.0822 -0.0358  0.0325
 7731SOL    HW229286   2.562   9.798   8.105 -1.4558  1.3246  1.4519
 7732SOL     OW29287   2.055   7.594   8.557  0.0311 -0.1275 -0.5848
 7732SOL    HW129288   2.078   7.533   8.627 -3.8959  0.0392  1.1244
 7732SOL    HW229289   2.032   7.538   8.483  0.5022 -0.4896 -0.4625
 7733SOL     OW29290   3.744   2.406   4.142 -0.3388 -0.3342 -0.4336
 7733SOL    HW129291   3.800   2.482   4.124 -0.8883  0.5174  1.2743
 7733SOL    HW229292   3.656   2.442   4.145 -1.2450 -1.8136 -4.0675
 7734SOL     OW29293  10.293   6.149   7.366  0.2952 -0.3873  0.7320
 7734SOL    HW129294  10.274   6.241   7.382 -2.9649 -0.6488 -0.7006
 7734SOL    HW229295  10.322   6.146   7.275  0.9879 -0.7220  0.9590
 7735SOL     OW29296   6.653   6.869   3.484 -0.1752 -0.0946 -0.6129
 7735SOL    HW129297   6.711   6.796   3.506 -1.1770 -0.3023  1.7071
 7735SOL    HW229298   6.657   6.927   3.561 -3.3585 -0.3989 -0.0801
 7736SOL     OW29299   9.988   2.627   4.989 -0.6304  0.4692 -0.5146
 7736SOL    HW129300   9.949   2.617   4.903 -0.1388 -1.5665 -0.5635
 7736SOL    HW229301   9.929   2.580   5.048 -0.0219  0.2769 -0.0446
 7737SOL     OW29302   1.347   0.733   1.805  0.0188 -0.5375  0.1445
 7737SOL    HW129303   1.412   0.696   1.864 -0.5095 -1.5498  0.1044
 7737SOL    HW229304   1.263   0.700   1.837 -0.3842 -0.1202 -0.4520
 7738SOL     OW29305  10.661   4.170  10.884  0.0748 -0.2548  0.1420
 7738SOL    HW129306  10.686   4.259  10.858  0.2451 -0.4166 -0.2544
 7738SOL    HW229307  10.738   4.135  10.927  0.1393 -0.3403 -0.0385
 7739SOL     OW29308   5.194   5.101   5.510  0.4144 -0.2963  0.4235
 7739SOL    HW129309   5.183   5.030   5.573  0.2586 -0.0733  0.6490
 7739SOL    HW229310   5.257   5.160   5.550 -2.2715  1.7065  2.0535
 7740SOL     OW29311   4.671   0.091   7.288 -0.2075  0.1954 -0.3988
 7740SOL    HW129312   4.576   0.077   7.293 -0.1417  0.0783  1.2191
 7740SOL    HW229313   4.707   0.027   7.350  1.0057 -0.2982 -1.5657
 7741SOL     OW29314   7.163   9.889   0.263 -0.2406 -0.1310 -0.2472
 7741SOL    HW129315   7.075   9.858   0.283 -0.3523  1.2439  1.6321
 7741SOL    HW229316   7.154   9.983   0.252  1.4204  0.6293  3.4883
 7742SOL     OW29317   9.856   0.689   8.792 -0.1650  0.1319 -0.3097
 7742SOL    HW129318   9.790   0.703   8.860  0.7193  0.7286  0.4424
 7742SOL    HW229319   9.930   0.742   8.819  0.4493 -0.1398 -1.4071
 7743SOL     OW29320  10.368   6.658   6.855  0.1333 -0.5651 -0.1975
 7743SOL    HW129321  10.353   6.753   6.860 -0.7333 -0.7041  0.0551
 7743SOL    HW229322  10.428   6.647   6.782 -1.3773  0.0223 -1.5821
 7744SOL     OW29323   5.594   3.173   6.506  0.0885 -0.4623 -0.4950
 7744SOL    HW129324   5.522   3.144   6.449 -1.2883 -0.3273  1.0975
 7744SOL    HW229325   5.560   3.163   6.595  1.4300  1.2067  0.2705
 7745SOL     OW29326   0.992   8.087   4.625  0.0588  0.0537 -0.3240
 7745SOL    HW129327   1.052   8.018   4.597 -0.9037 -0.4968 -1.0970
 7745SOL    HW229328   0.997   8.152   4.555 -0.2438  0.0050 -0.3915
 7746SOL     OW29329   0.391   3.517  10.910 -0.0776 -0.2456  0.1999
 7746SOL    HW129330   0.354   3.590  10.861 -0.8460  0.1157  1.2685
 7746SOL    HW229331   0.428   3.558  10.989  0.3967 -0.8997  0.3271
 7747SOL     OW29332   6.341   2.190   6.196  0.1270  0.7804  0.0489
 7747SOL    HW129333   6.335   2.144   6.280 -1.7991  2.2688  0.8049
 7747SOL    HW229334   6.389   2.130   6.139 -1.8429 -1.9472  1.0713
 7748SOL     OW29335   7.578   9.655   4.333 -0.1582  0.9760  0.0739
 7748SOL    HW129336   7.549   9.565   4.345 -0.9321  1.3879  1.5312
 7748SOL    HW229337   7.602   9.661   4.240 -3.0808  0.1007 -0.8476
 7749SOL     OW29338   4.002   5.850   4.847 -0.3305 -0.7044  0.0992
 7749SOL    HW129339   3.935   5.886   4.788 -0.4758 -1.1224  0.0022
 7749SOL    HW229340   3.952   5.793   4.906 -0.0059 -1.3847 -0.2681
 7750SOL     OW29341   4.634   7.646   8.899  0.4069 -0.0693  0.4241
 7750SOL    HW129342   4.712   7.653   8.954  0.9927 -0.9091 -0.2740
 7750SOL    HW229343   4.666   7.607   8.817 -0.6021  0.3430 -0.1771
 7751SOL     OW29344   1.010   3.611   0.907 -0.5318  0.5401  0.2042
 7751SOL    HW129345   0.994   3.701   0.934  1.2854  0.7288  0.7675
 7751SOL    HW229346   0.981   3.558   0.981 -3.1543  0.4945 -0.7616
 7752SOL     OW29347  10.035   5.774   7.310  0.0820  0.1444  0.1044
 7752SOL    HW129348  10.001   5.860   7.332 -0.2675  0.3379 -1.1055
 7752SOL    HW229349  10.079   5.744   7.389  1.0056  1.8166  0.2597
 7753SOL     OW29350   6.557   2.125   9.191  0.5739 -0.0248 -0.5878
 7753SOL    HW129351   6.560   2.192   9.122  1.6929 -0.8564 -1.3896
 7753SOL    HW229352   6.587   2.045   9.148 -1.1947 -1.1869  0.2184
 7754SOL     OW29353  10.561   0.429   9.946 -0.0346 -0.1520 -0.5096
 7754SOL    HW129354  10.623   0.496   9.974  0.6004 -0.5556 -0.9323
 7754SOL    HW229355  10.534   0.386  10.028 -0.2823  0.4628 -0.2587
 7755SOL     OW29356   2.399   7.398   3.833 -0.1814  0.1216 -0.3344
 7755SOL    HW129357   2.430   7.327   3.777  2.3838  1.4922 -0.7830
 7755SOL    HW229358   2.445   7.386   3.916  1.9520  2.3000 -1.0737
 7756SOL     OW29359   8.756   3.673   1.666  0.1140 -0.0451 -0.1399
 7756SOL    HW129360   8.674   3.641   1.704 -0.1610  1.7429  0.8977
 7756SOL    HW229361   8.808   3.702   1.741  1.2569 -0.1328 -0.8666
 7757SOL     OW29362  10.197   8.974   7.732  0.4841  0.2686 -0.0717
 7757SOL    HW129363  10.267   8.994   7.669  2.0463  1.1487  1.8283
 7757SOL    HW229364  10.227   8.893   7.775 -0.1920  0.0824  0.0565
 7758SOL     OW29365   4.936   8.776   3.826  0.5324  0.6601  0.0109
 7758SOL    HW129366   4.962   8.839   3.893 -2.3937  1.6063  0.4008
 7758SOL    HW229367   5.018   8.741   3.793  2.1710  0.0048  4.1421
 7759SOL     OW29368  10.131   2.402   5.514 -0.2027  0.1371  0.3593
 7759SOL    HW129369  10.168   2.452   5.586  0.9725 -0.9048  0.5291
 7759SOL    HW229370  10.127   2.463   5.441  0.7523  0.6044  0.6839
 7760SOL     OW29371   0.236  10.218   4.347 -0.1720 -0.6423 -0.2697
 7760SOL    HW129372   0.278  10.298   4.377  0.3153 -1.6085  1.7514
 7760SOL    HW229373   0.142  10.238   4.348 -0.0688 -0.1731  0.4903
 7761SOL     OW29374   5.879   2.520   8.786 -0.1472 -0.9081 -0.0886
 7761SOL    HW129375   5.965   2.536   8.825 -0.8488  1.3500  0.6550
 7761SOL    HW229376   5.882   2.566   8.702 -0.5322 -1.1066 -0.2127
 7762SOL     OW29377   3.270   3.824   0.094  0.2562  0.3518 -0.2616
 7762SOL    HW129378   3.230   3.886   0.155  1.3132  0.1278  0.6963
 7762SOL    HW229379   3.356   3.805   0.132  1.5127  1.2128 -2.4973
 7763SOL     OW29380   9.428   3.469   0.443  0.0558  0.1176  0.2721
 7763SOL    HW129381   9.408   3.455   0.351  3.7856 -0.7471 -0.5550
 7763SOL    HW229382   9.521   3.491   0.445  0.1420  0.0604  3.8514
 7764SOL     OW29383   8.006   5.635   5.453  0.0317 -0.6996 -0.3453
 7764SOL    HW129384   7.995   5.542   5.431  2.7218 -1.4497  0.9917
 7764SOL    HW229385   8.013   5.636   5.548  0.5648  0.8074 -0.3768
 7765SOL     OW29386   4.447   0.627   7.453 -0.4958  0.5789  0.0135
 7765SOL    HW129387   4.537   0.602   7.434 -0.7874 -0.2237 -0.3653
 7765SOL    HW229388   4.407   0.549   7.491 -1.1243  0.8057 -0.1595
 7766SOL     OW29389   5.588   2.468   6.071  0.2256  0.5872  0.8310
 7766SOL    HW129390   5.683   2.459   6.071  0.2102  0.4158  1.0295
 7766SOL    HW229391   5.556   2.391   6.119 -0.0522  0.2246  0.0873
 7767SOL     OW29392   5.530   0.179   3.223 -0.6490 -0.7401  0.4133
 7767SOL    HW129393   5.529   0.117   3.297  0.3871 -1.3595 -0.0636
 7767SOL    HW229394   5.487   0.132   3.152  1.7034 -1.6933 -0.4937
 7768SOL     OW29395   7.435   2.769   8.323  0.9897 -0.2125 -0.5491
 7768SOL    HW129396   7.440   2.696   8.385  0.4444 -0.1915 -0.4761
 7768SOL    HW229397   7.482   2.738   8.246  0.0834 -0.9483 -0.8171
 7769SOL     OW29398   1.884   0.753   2.805 -0.6481  0.2050  0.4553
 7769SOL    HW129399   1.919   0.679   2.855  0.4050  0.5882  0.3196
 7769SOL    HW229400   1.791   0.753   2.824 -0.7472 -1.3878  0.1812
 7770SOL     OW29401   4.494   0.232   3.327 -0.2214 -0.0569 -0.4854
 7770SOL    HW129402   4.549   0.287   3.271  0.3366 -0.5616 -0.4393
 7770SOL    HW229403   4.414   0.219   3.276 -0.4052  0.8691 -0.4597
 7771SOL     OW29404   8.941   7.923   4.385 -0.0431 -0.8347  0.1416
 7771SOL    HW129405   8.908   7.898   4.472 -0.7359 -1.6306 -0.3336
 7771SOL    HW229406   8.882   7.994   4.357  0.7668  0.0848  0.7029
 7772SOL     OW29407   9.156   7.617   3.009  0.0585 -0.5777  0.1020
 7772SOL    HW129408   9.177   7.530   2.976  0.7355 -0.8800  1.2536
 7772SOL    HW229409   9.070   7.606   3.051  1.6252 -1.6368  3.3422
 7773SOL     OW29410   3.371   7.252   5.092 -0.0699  0.5676 -0.0857
 7773SOL    HW129411   3.342   7.339   5.067  0.4843  0.7973  0.0437
 7773SOL    HW229412   3.300   7.218   5.147 -0.9358  0.3585 -1.2888
 7774SOL     OW29413   6.609   9.951   5.910 -0.4639  0.2704 -0.6714
 7774SOL    HW129414   6.694   9.926   5.873  0.2039  1.3604  0.0654
 7774SOL    HW229415   6.571   9.868   5.940  1.8975  0.0472  2.1470
 7775SOL     OW29416   4.955   7.218   9.766 -0.0477 -0.5678 -0.2820
 7775SOL    HW129417   5.028   7.261   9.810 -0.9203 -0.9773  1.6914
 7775SOL    HW229418   4.919   7.159   9.832 -2.1085 -0.4529 -1.2251
 7776SOL     OW29419   3.492   9.218   7.647  0.5447 -0.4957 -0.2356
 7776SOL    HW129420   3.553   9.170   7.703 -0.1065  0.5448  1.4158
 7776SOL    HW229421   3.431   9.260   7.707 -0.3242  0.5026 -1.7411
 7777SOL     OW29422   7.800   0.613   6.128  0.2326  0.7459  0.7253
 7777SOL    HW129423   7.851   0.545   6.172 -0.9269 -0.0159  0.9494
 7777SOL    HW229424   7.731   0.635   6.191 -1.4582 -0.3561 -0.6292
 7778SOL     OW29425  10.396   1.423   9.331  0.0728  0.1430  0.3101
 7778SOL    HW129426  10.408   1.457   9.419 -0.7155  1.8153 -0.1881
 7778SOL    HW229427  10.301   1.412   9.322  0.2751 -3.0455  0.6865
 7779SOL     OW29428   7.423   0.163   9.621 -0.0577 -0.0470 -0.0011
 7779SOL    HW129429   7.360   0.098   9.591  0.6602 -0.2423 -1.1592
 7779SOL    HW229430   7.440   0.217   9.544  0.8012  0.3118  0.4286
 7780SOL     OW29431   1.638   2.484   8.706 -0.1254  0.8111 -0.8317
 7780SOL    HW129432   1.651   2.579   8.705 -0.0282  0.8261  0.3047
 7780SOL    HW229433   1.627   2.462   8.798 -0.3595 -0.2626 -1.0974
 7781SOL     OW29434   2.764   0.178   0.258 -0.1882 -0.9852  0.3939
 7781SOL    HW129435   2.856   0.170   0.233 -0.3580 -0.8449 -0.2837
 7781SOL    HW229436   2.731   0.088   0.256 -0.2186 -0.9667  0.0439
 7782SOL     OW29437   4.547   1.111   9.615 -0.8901  1.0736  0.2929
 7782SOL    HW129438   4.534   1.016   9.610  1.5481  0.7135 -0.3158
 7782SOL    HW229439   4.511   1.144   9.534 -0.4915  0.4772 -0.1360
 7783SOL     OW29440   5.557   3.783   2.142  0.2960 -0.1882 -0.1894
 7783SOL    HW129441   5.470   3.817   2.120 -0.1197 -1.1191 -0.0025
 7783SOL    HW229442   5.612   3.861   2.146  0.4718  0.1317 -4.6146
 7784SOL     OW29443   7.104   2.973   6.551 -0.1757  0.3658 -0.1655
 7784SOL    HW129444   7.018   3.012   6.537  0.2692  1.3632 -0.2282
 7784SOL    HW229445   7.122   2.988   6.644 -1.3585 -2.5805  0.6357
 7785SOL     OW29446   9.805   9.471   5.343  0.2751  0.1375  0.1164
 7785SOL    HW129447   9.878   9.477   5.280  0.5453 -2.3763  0.0983
 7785SOL    HW229448   9.740   9.533   5.310  0.5855 -0.7853 -2.4540
 7786SOL     OW29449   3.180   8.501   4.940  0.2159 -0.1032  0.0477
 7786SOL    HW129450   3.275   8.497   4.950  0.1458 -0.2382  0.7489
 7786SOL    HW229451   3.155   8.583   4.982 -0.0729 -0.5493  0.7633
 7787SOL     OW29452   6.760   8.209   6.067  0.3600 -0.1760  0.3957
 7787SOL    HW129453   6.695   8.227   6.000  0.6553  0.0318  0.1581
 7787SOL    HW229454   6.820   8.146   6.026  0.6188  0.0558  0.4069
 7788SOL     OW29455  10.269   9.024   4.111  0.3375 -0.1416  0.0226
 7788SOL    HW129456  10.178   9.050   4.096 -0.1495  0.0186  2.8128
 7788SOL    HW229457  10.302   9.003   4.023 -1.7395  1.7771 -1.3483
 7789SOL     OW29458  10.545   3.128   3.027  0.0052 -0.1277 -0.0341
 7789SOL    HW129459  10.516   3.217   3.045 -0.0687 -0.3068  0.7656
 7789SOL    HW229460  10.625   3.118   3.078  0.6406 -0.1455 -1.0178
 7790SOL     OW29461   6.683   8.211   4.739  0.1440  0.1137  0.3791
 7790SOL    HW129462   6.642   8.212   4.825  0.0092  1.1467  0.3253
 7790SOL    HW229463   6.614   8.182   4.679 -0.2392  0.9116  0.4185
 7791SOL     OW29464  10.386   6.111   5.256 -0.2007 -0.2265 -0.3920
 7791SOL    HW129465  10.464   6.059   5.275  0.4459  0.5258 -0.9649
 7791SOL    HW229466  10.345   6.124   5.342  0.4103 -0.4438 -0.0587
 7792SOL     OW29467   4.216   4.028   5.700  0.1131  0.2089  0.7163
 7792SOL    HW129468   4.287   3.964   5.690 -1.2281 -1.1009 -0.9452
 7792SOL    HW229469   4.149   3.982   5.750 -0.4515  0.6572  0.3862
 7793SOL     OW29470   6.418   3.998   7.637 -0.0599  0.1626  0.0979
 7793SOL    HW129471   6.370   4.077   7.610  1.7506  1.6904  1.0594
 7793SOL    HW229472   6.422   3.944   7.558 -1.3698  1.0149 -0.5877
 7794SOL     OW29473   4.531   3.332   6.164  0.3403 -0.3933  0.1214
 7794SOL    HW129474   4.568   3.360   6.248  0.7762 -1.2292  0.2173
 7794SOL    HW229475   4.549   3.238   6.160 -2.5480 -1.0345  0.5519
 7795SOL     OW29476   9.694   8.811   4.760 -0.0421  0.2491  0.3431
 7795SOL    HW129477   9.691   8.724   4.800  0.3253  0.2897  0.4583
 7795SOL    HW229478   9.703   8.871   4.834 -1.1573  0.4505  0.3329
 7796SOL     OW29479   6.580   6.678   0.496 -0.3228  0.6683  0.0346
 7796SOL    HW129480   6.611   6.588   0.486  1.5046  1.0635  1.6191
 7796SOL    HW229481   6.625   6.727   0.428 -0.1877  0.6345  0.0993
 7797SOL     OW29482   5.722   2.267   8.789 -0.0778  0.2322  0.1209
 7797SOL    HW129483   5.747   2.359   8.777 -1.1575  0.6394  0.8194
 7797SOL    HW229484   5.801   2.226   8.826  0.1237  1.0948  0.6964
 7798SOL     OW29485   8.853   4.145   7.426 -0.2460  0.3550 -0.2549
 7798SOL    HW129486   8.905   4.077   7.469 -1.5555 -1.0784 -0.8576
 7798SOL    HW229487   8.903   4.225   7.440  1.3592 -0.7140  0.4691
 7799SOL     OW29488  10.041   6.125   0.503 -0.1304  0.1655 -0.3210
 7799SOL    HW129489  10.136   6.124   0.490  0.2048 -0.0616  1.7081
 7799SOL    HW229490  10.008   6.059   0.442  1.3238 -1.4863  0.5640
 7800SOL     OW29491   2.409   9.992   9.391 -0.2081  0.3098  0.4750
 7800SOL    HW129492   2.348  10.065   9.386 -1.3282 -0.5581  0.9562
 7800SOL    HW229493   2.383   9.934   9.319 -0.6645 -0.5850  1.3458
 7801SOL     OW29494   1.515  10.468   1.552 -0.3389 -0.6937 -0.2231
 7801SOL    HW129495   1.462  10.413   1.609 -1.1139  0.5569  0.3022
 7801SOL    HW229496   1.452  10.522   1.504  0.3989 -0.1949 -0.6530
 7802SOL     OW29497   9.770  10.295  10.211 -0.1003 -0.6715  0.2746
 7802SOL    HW129498   9.792  10.262  10.298 -1.4653  0.1056  0.9526
 7802SOL    HW229499   9.674  10.292  10.208 -0.0612 -1.6067 -1.5884
 7803SOL     OW29500   4.743   3.116   1.667  0.2679 -0.4322  0.3115
 7803SOL    HW129501   4.828   3.154   1.689  0.2740 -1.6670  2.7334
 7803SOL    HW229502   4.680   3.187   1.681  0.6607 -0.1952  0.8772
 7804SOL     OW29503   2.976   3.822   4.926 -0.6191 -0.2440  0.2961
 7804SOL    HW129504   3.062   3.803   4.889 -0.8999 -0.5529 -0.2100
 7804SOL    HW229505   2.975   3.773   5.008 -0.3422 -0.2973  0.2710
 7805SOL     OW29506   7.912   3.067   0.962  0.3295 -0.0441 -0.0773
 7805SOL    HW129507   7.852   3.140   0.977 -1.5519 -1.0729 -2.0752
 7805SOL    HW229508   7.962   3.060   1.043  0.5860  3.4149  0.2120
 7806SOL     OW29509   8.878   5.349   8.056  0.0027  0.0505  0.0787
 7806SOL    HW129510   8.853   5.367   7.965 -1.4359  0.0598  0.4543
 7806SOL    HW229511   8.876   5.435   8.098  1.7865  0.2266 -0.0988
 7807SOL     OW29512   2.542   1.197   5.049  0.1422  0.1160 -0.0883
 7807SOL    HW129513   2.571   1.246   5.126 -0.9461  1.7895 -0.6821
 7807SOL    HW229514   2.448   1.215   5.043  0.2464  0.2990 -1.9597
 7808SOL     OW29515   8.705   5.838   4.666 -0.2379 -0.7188  0.1596
 7808SOL    HW129516   8.684   5.921   4.710 -0.4459 -1.0656  0.7335
 7808SOL    HW229517   8.702   5.859   4.573 -1.5299 -0.3508  0.2533
 7809SOL     OW29518   8.925   6.235   9.108  0.4920  0.0828 -0.7747
 7809SOL    HW129519   8.904   6.147   9.139  0.2033 -0.5864 -2.7213
 7809SOL    HW229520   8.980   6.272   9.177  0.0714 -1.3634  0.3917
 7810SOL     OW29521   0.315   3.122   4.330  0.7990  0.3941  0.0472
 7810SOL    HW129522   0.361   3.043   4.301  0.1321  0.2697 -0.7089
 7810SOL    HW229523   0.335   3.129   4.424 -0.0311 -1.3109  0.3971
 7811SOL     OW29524   1.722   1.502  10.086 -0.3013 -0.3324 -0.6947
 7811SOL    HW129525   1.817   1.490  10.079  0.1014  1.8472  0.3306
 7811SOL    HW229526   1.707   1.593  10.060 -1.8155  0.0154  1.1853
 7812SOL     OW29527   5.708   4.968   7.780  0.8287  0.0262 -0.7265
 7812SOL    HW129528   5.638   4.979   7.845  1.1440 -1.9771  0.0280
 7812SOL    HW229529   5.728   5.057   7.752  0.4682  0.9671  1.7049
 7813SOL     OW29530   5.652   6.372   6.162 -0.3903  1.0181  0.3213
 7813SOL    HW129531   5.578   6.407   6.113 -1.3908 -2.3965 -0.8247
 7813SOL    HW229532   5.728   6.386   6.105 -1.0060  0.0922 -0.7601
 7814SOL     OW29533   5.241   4.040   8.447 -0.1330  0.3085 -0.4987
 7814SOL    HW129534   5.247   4.129   8.484 -1.3646  1.1786 -2.2578
 7814SOL    HW229535   5.175   3.997   8.501 -1.2900  1.2733 -1.1005
 7815SOL     OW29536   6.985   9.287   5.963  0.4403 -0.0658  0.1860
 7815SOL    HW129537   7.063   9.331   5.996 -0.3784  0.9934  0.7767
 7815SOL    HW229538   6.929   9.274   6.040 -0.9565  1.3116 -0.5337
 7816SOL     OW29539   0.566   2.725   6.613 -0.3593  0.6175 -0.6297
 7816SOL    HW129540   0.511   2.709   6.690 -0.6578 -0.3473 -1.0211
 7816SOL    HW229541   0.635   2.658   6.620  0.7509  1.7742 -0.1744
 7817SOL     OW29542   4.521   7.043   2.803 -0.0941 -1.0570 -0.3507
 7817SOL    HW129543   4.458   7.108   2.773  0.4064 -0.0975  0.6270
 7817SOL    HW229544   4.549   6.999   2.723  0.6844  0.9654 -1.2641
 7818SOL     OW29545   0.848   0.194   5.970 -0.8853  0.7463  0.6240
 7818SOL    HW129546   0.817   0.107   5.946  2.2599 -0.2256 -0.4053
 7818SOL    HW229547   0.845   0.195   6.066 -2.8909  0.3379  0.6021
 7819SOL     OW29548   4.127   9.727   9.418  0.0276  0.4339 -0.5941
 7819SOL    HW129549   4.212   9.765   9.437  0.1000  0.4032 -0.8556
 7819SOL    HW229550   4.098   9.770   9.337 -0.0019  0.1203 -0.7526
 7820SOL     OW29551   1.790   9.822   1.335  0.4341 -0.0267  0.1688
 7820SOL    HW129552   1.698   9.812   1.359 -0.0481  0.6748 -1.2707
 7820SOL    HW229553   1.836   9.830   1.419 -0.9539  0.7772  0.8852
 7821SOL     OW29554  10.129   8.405   7.360 -0.0105 -0.1718 -0.0928
 7821SOL    HW129555  10.172   8.321   7.350  1.2170  0.4892 -0.5766
 7821SOL    HW229556  10.040   8.384   7.388  0.1903 -1.6234 -0.5077
 7822SOL     OW29557   3.444   7.368   5.943  0.1894 -0.8801  0.0221
 7822SOL    HW129558   3.430   7.427   5.869  0.3542 -0.9103 -0.0309
 7822SOL    HW229559   3.536   7.380   5.967  0.4616 -1.7732 -0.5461
 7823SOL     OW29560   9.437  10.591   8.908  0.5539 -0.1705 -0.0218
 7823SOL    HW129561   9.529  10.607   8.931  0.9125  0.6239 -1.8066
 7823SOL    HW229562   9.439  10.578   8.813 -0.8647 -2.7926  0.2491
 7824SOL     OW29563   0.917   9.098   3.502 -0.3806 -0.4695 -0.1058
 7824SOL    HW129564   0.872   9.149   3.435 -0.5963  0.1938  0.5278
 7824SOL    HW229565   0.847   9.071   3.562 -0.3142 -1.7997 -0.6091
 7825SOL     OW29566   0.364   6.610   5.802 -0.1834  0.2229 -0.6499
 7825SOL    HW129567   0.285   6.605   5.748 -0.2800 -1.4161 -0.4153
 7825SOL    HW229568   0.363   6.528   5.852  0.9414  0.8158  0.3751
 7826SOL     OW29569   8.257   9.918  10.902 -0.1259  0.4789  0.0798
 7826SOL    HW129570   8.241   9.859  10.976 -1.1635  0.2581 -0.2997
 7826SOL    HW229571   8.220   9.871  10.827  0.9222  0.6966 -0.5835
 7827SOL     OW29572   7.861   1.239   6.998 -0.3872 -0.3003 -0.5435
 7827SOL    HW129573   7.859   1.305   6.929  0.4547 -0.5026 -0.7747
 7827SOL    HW229574   7.796   1.268   7.062  0.5333  1.1648 -0.2526
 7828SOL     OW29575   2.266   7.254   8.907 -0.1102  0.3816 -0.1337
 7828SOL    HW129576   2.206   7.194   8.952  0.6312 -1.2625 -1.2161
 7828SOL    HW229577   2.348   7.247   8.956  0.4040 -0.6434 -1.1115
 7829SOL     OW29578   6.373   0.289  10.838  0.7724 -0.5058 -0.1648
 7829SOL    HW129579   6.291   0.336  10.821  0.9230  0.4688  1.5402
 7829SOL    HW229580   6.424   0.349  10.892  1.6224 -2.0541  0.8182
 7830SOL     OW29581   5.648   5.251   7.790 -0.2819  0.0376 -0.9257
 7830SOL    HW129582   5.713   5.267   7.858 -0.6817  0.5831 -0.6692
 7830SOL    HW229583   5.699   5.250   7.709  0.3616 -1.7508 -0.5444
 7831SOL     OW29584   0.722   7.910   9.793  0.1525  0.0929  0.0596
 7831SOL    HW129585   0.634   7.942   9.811  0.3863  0.7830  0.0062
 7831SOL    HW229586   0.724   7.823   9.832 -0.4276  0.2334  0.4166
 7832SOL     OW29587   2.440   5.593   8.295 -0.2295  0.3128 -0.0582
 7832SOL    HW129588   2.457   5.687   8.283 -2.5117  0.8262  0.2547
 7832SOL    HW229589   2.496   5.569   8.369  2.3427  0.7518 -1.7467
 7833SOL     OW29590   2.388   4.243   1.254  0.0631  0.7789  0.7733
 7833SOL    HW129591   2.359   4.157   1.222 -0.1585  1.0108  0.3548
 7833SOL    HW229592   2.397   4.230   1.349  0.4129  0.1818  0.6648
 7834SOL     OW29593   8.797   3.352   9.433 -0.3876 -0.1350  0.8145
 7834SOL    HW129594   8.705   3.353   9.462 -0.5745  1.4808  0.2566
 7834SOL    HW229595   8.811   3.438   9.394  0.4829 -1.4049 -1.9344
 7835SOL     OW29596   0.820   1.922  10.491  0.0542  0.2729  0.3149
 7835SOL    HW129597   0.820   1.958  10.579  0.7280 -2.7832  1.7066
 7835SOL    HW229598   0.903   1.875  10.484 -0.4242 -0.3916 -1.5707
 7836SOL     OW29599   5.767   4.029   7.583  0.0913  0.2647 -0.2104
 7836SOL    HW129600   5.825   3.975   7.636 -1.1131 -0.9144 -0.0385
 7836SOL    HW229601   5.813   4.040   7.500  1.1669  0.5715  0.4087
 7837SOL     OW29602   0.842   0.284   1.720 -0.5130  0.0944 -0.3536
 7837SOL    HW129603   0.924   0.259   1.679 -1.2192 -1.8970 -0.6583
 7837SOL    HW229604   0.811   0.358   1.669  1.8208  1.9708  0.7539
 7838SOL     OW29605   5.773   1.767   3.087 -0.7277  0.2481  0.0388
 7838SOL    HW129606   5.864   1.738   3.077 -0.3928  0.7514  1.3570
 7838SOL    HW229607   5.725   1.720   3.019  0.4959 -0.1299 -0.5920
 7839SOL     OW29608   5.171   3.681   6.482  0.4078 -0.0691 -0.0194
 7839SOL    HW129609   5.163   3.730   6.400  1.3492  0.3140  0.1155
 7839SOL    HW229610   5.081   3.652   6.500  0.0103  0.7201 -0.6345
 7840SOL     OW29611  10.004   4.795   3.260  0.5086 -0.3116 -0.1325
 7840SOL    HW129612  10.033   4.724   3.203  0.8436  0.1448 -0.5407
 7840SOL    HW229613   9.954   4.853   3.202 -2.1985 -1.6112  0.7523
 7841SOL     OW29614   9.538   0.668   3.630  0.4130 -0.2259 -0.4189
 7841SOL    HW129615   9.480   0.604   3.671  2.0100 -2.2264 -1.1401
 7841SOL    HW229616   9.496   0.689   3.547  0.6121 -1.5634 -0.8786
 7842SOL     OW29617   5.470   8.273   5.245 -0.2822  0.4555  0.2124
 7842SOL    HW129618   5.516   8.204   5.293  0.8570  0.0491 -1.3947
 7842SOL    HW229619   5.459   8.239   5.157 -0.2002  2.0974 -0.4731
 7843SOL     OW29620   2.075   1.941   1.651  0.7776  0.3028 -0.3371
 7843SOL    HW129621   2.078   1.904   1.739 -0.6669  1.6327  0.3135
 7843SOL    HW229622   2.063   1.865   1.594 -2.3418 -0.3625  0.9723
 7844SOL     OW29623   8.391  10.362   0.836 -0.1004 -0.6288 -0.1918
 7844SOL    HW129624   8.478  10.346   0.799 -0.2652 -0.8058 -0.5113
 7844SOL    HW229625   8.353  10.431   0.780 -0.7157 -1.5560 -0.9594
 7845SOL     OW29626   3.055   6.735   6.518 -0.2183  0.5906 -0.4030
 7845SOL    HW129627   3.130   6.713   6.462 -0.9808 -0.5468 -1.0049
 7845SOL    HW229628   3.064   6.679   6.594 -1.7742 -1.4682 -1.6166
 7846SOL     OW29629   5.931   3.959  10.574 -0.2661  0.2244  0.0823
 7846SOL    HW129630   5.924   4.002  10.660  2.4075 -1.8275  1.4760
 7846SOL    HW229631   6.006   4.001  10.532 -0.5097  0.0533 -0.5318
 7847SOL     OW29632   9.457   1.379   5.296  0.0165 -0.3164  0.1457
 7847SOL    HW129633   9.515   1.452   5.316 -1.2690  0.9968 -0.7784
 7847SOL    HW229634   9.438   1.387   5.203  0.1284 -2.0580 -0.0665
 7848SOL     OW29635   0.194  10.278   3.274 -0.7485 -0.2659  0.1481
 7848SOL    HW129636   0.248  10.300   3.197  2.7165 -0.2621  2.3759
 7848SOL    HW229637   0.169  10.187   3.260 -0.8429 -0.0476 -1.3127
 7849SOL     OW29638   0.793   9.249   4.591 -0.0729 -0.4264  0.6735
 7849SOL    HW129639   0.860   9.222   4.653  0.1409 -1.2736  0.0774
 7849SOL    HW229640   0.799   9.345   4.590  0.7926 -0.4684  0.9909
 7850SOL     OW29641   2.227   7.997   3.356  0.5287 -0.3304  0.0195
 7850SOL    HW129642   2.140   7.967   3.383  0.5970  0.6528  1.3933
 7850SOL    HW229643   2.221   8.092   3.356  1.9732 -0.1940  1.4874
 7851SOL     OW29644   8.971   9.443   4.847 -0.3051 -0.3451  0.0851
 7851SOL    HW129645   8.941   9.446   4.938 -0.9158  1.3041 -0.1295
 7851SOL    HW229646   8.930   9.520   4.806  1.3692 -0.0422 -1.1314
 7852SOL     OW29647   2.241   3.601   6.407 -0.6686  0.3210  0.4344
 7852SOL    HW129648   2.187   3.526   6.434  0.0077 -0.4876 -0.3656
 7852SOL    HW229649   2.178   3.670   6.388 -1.2613  0.2996  2.1400
 7853SOL     OW29650   8.315   7.043   8.720  0.4871  0.3303 -0.4292
 7853SOL    HW129651   8.296   7.022   8.811 -2.0983  1.1374 -0.7001
 7853SOL    HW229652   8.347   6.961   8.682 -0.1441 -0.4963  0.7789
 7854SOL     OW29653   7.186  10.422   0.231  0.1777 -0.2955 -0.2930
 7854SOL    HW129654   7.282  10.418   0.226  0.1949 -0.7177  0.3097
 7854SOL    HW229655   7.162  10.496   0.174  0.9698  0.8501  0.7994
 7855SOL     OW29656   1.790   0.684   3.856 -0.1463 -0.4583 -0.0012
 7855SOL    HW129657   1.768   0.743   3.784 -2.4900  0.1820  1.1296
 7855SOL    HW229658   1.728   0.611   3.847 -0.7369 -0.1799  1.5540
 7856SOL     OW29659   8.392   2.533   4.337 -0.1498 -0.0042 -1.1155
 7856SOL    HW129660   8.377   2.442   4.314 -1.5935 -0.0752  0.0105
 7856SOL    HW229661   8.380   2.581   4.255 -1.0063 -0.6702 -1.3869
 7857SOL     OW29662  10.621   5.297   7.819 -0.3378  0.0623 -0.2861
 7857SOL    HW129663  10.586   5.332   7.901 -1.0243 -0.8495 -0.1753
 7857SOL    HW229664  10.632   5.374   7.763 -1.2546  0.5294  0.1510
 7858SOL     OW29665  10.519  10.354  10.413  0.0402  0.1611  0.2106
 7858SOL    HW129666  10.472  10.337  10.332  0.6663 -1.0069  0.0713
 7858SOL    HW229667  10.592  10.292  10.412 -1.0083 -1.2386  2.5409
 7859SOL     OW29668   5.662   3.404   5.198  0.2418 -0.0321  0.1282
 7859SOL    HW129669   5.696   3.400   5.109  1.9604 -0.4033  0.7646
 7859SOL    HW229670   5.633   3.315   5.217  1.4559 -0.3779  0.4897
 7860SOL     OW29671   5.940   4.335  10.246  0.6258  0.4113  0.0248
 7860SOL    HW129672   5.863   4.357  10.194 -1.0127 -0.0818  2.1102
 7860SOL    HW229673   5.956   4.413  10.300  0.7642  0.0294  0.5465
 7861SOL     OW29674   2.972   4.255   7.275  0.7550  0.5723 -0.1049
 7861SOL    HW129675   3.034   4.303   7.220 -0.3924  2.1118 -0.1508
 7861SOL    HW229676   2.890   4.305   7.266  0.1346 -0.0283  1.7902
 7862SOL     OW29677  10.082   3.139   1.156 -0.2908 -0.0358  0.1041
 7862SOL    HW129678  10.162   3.135   1.208  0.5371 -3.8546 -1.1487
 7862SOL    HW229679  10.100   3.203   1.088  0.5365  1.2664  1.4900
 7863SOL     OW29680   4.983   5.414   0.496  0.0153  0.1083 -0.3442
 7863SOL    HW129681   4.948   5.462   0.421  0.1221  1.7036  0.5839
 7863SOL    HW229682   5.061   5.463   0.521  2.5652 -2.8344 -1.8105
 7864SOL     OW29683   6.106   6.283   7.202 -0.3292 -1.0502  0.2452
 7864SOL    HW129684   6.172   6.295   7.271 -0.1341  0.1790 -0.1326
 7864SOL    HW229685   6.044   6.354   7.216 -1.3102 -1.8903  0.2729
 7865SOL     OW29686   9.174   9.058   1.661  0.1297 -0.2476 -0.1597
 7865SOL    HW129687   9.186   9.071   1.755 -0.3941  1.8178 -0.3416
 7865SOL    HW229688   9.159   8.964   1.652 -3.1616 -0.1309  2.2301
 7866SOL     OW29689   9.632   4.210   2.522  0.3234  0.6476 -0.1677
 7866SOL    HW129690   9.580   4.139   2.559  0.7866  0.8591  0.9113
 7866SOL    HW229691   9.573   4.285   2.522 -0.1442  0.3119 -1.2460
 7867SOL     OW29692  10.894   0.455   9.227 -0.1421 -0.2594 -0.0233
 7867SOL    HW129693  10.912   0.507   9.149  0.1567 -0.3107  0.0099
 7867SOL    HW229694  10.809   0.487   9.258  0.1625  0.4059  0.1533
 7868SOL     OW29695   4.450   6.860   4.684  0.0065  0.5001  0.2015
 7868SOL    HW129696   4.439   6.770   4.652 -2.1564  0.7090  0.2053
 7868SOL    HW229697   4.505   6.851   4.761  0.3567 -0.7419 -0.1603
 7869SOL     OW29698   9.568   1.152  10.437 -0.1876  0.3637  0.4030
 7869SOL    HW129699   9.498   1.099  10.400  0.8413 -0.0666 -0.9834
 7869SOL    HW229700   9.605   1.199  10.363 -0.9570  2.9921  1.5540
 7870SOL     OW29701   9.965  10.322   2.595  0.3967 -0.1002  0.2486
 7870SOL    HW129702   9.976  10.374   2.675 -2.8807  0.8650  0.2307
 7870SOL    HW229703  10.017  10.367   2.530  0.7856  0.8415  1.1798
 7871SOL     OW29704   1.317   7.314   9.448 -0.1368 -0.0682  0.3449
 7871SOL    HW129705   1.343   7.403   9.423  1.1513 -0.5088  0.0332
 7871SOL    HW229706   1.222   7.313   9.438 -0.3597  1.7149  1.8060
 7872SOL     OW29707   9.862   0.278  10.737  0.0726  0.0437 -0.2077
 7872SOL    HW129708   9.921   0.320  10.799  0.5207  0.4385 -0.8973
 7872SOL    HW229709   9.852   0.188  10.771  1.1302 -0.0553 -0.1305
 7873SOL     OW29710  10.827   2.179   6.446 -0.0522 -0.0503  0.0785
 7873SOL    HW129711  10.880   2.161   6.368 -0.1499 -0.5908  0.1344
 7873SOL    HW229712  10.761   2.241   6.417  0.3997  0.3651 -0.0756
 7874SOL     OW29713   5.101   9.434   9.422 -0.2946  0.8396 -0.2422
 7874SOL    HW129714   5.071   9.520   9.451  0.8229  0.7410  1.3665
 7874SOL    HW229715   5.193   9.446   9.401  0.3891 -0.2625  1.7610
 7875SOL     OW29716   8.054   1.292   6.774  0.2517 -0.5654 -0.0223
 7875SOL    HW129717   8.064   1.286   6.869 -1.4039 -0.1964  0.2047
 7875SOL    HW229718   8.007   1.213   6.750 -0.0646 -0.2589 -0.4200
 7876SOL     OW29719   5.350   6.794   8.536 -0.3554  0.0089  0.1006
 7876SOL    HW129720   5.382   6.780   8.447 -1.1442 -0.4750 -0.1133
 7876SOL    HW229721   5.307   6.712   8.559 -1.3184  0.5946  0.4298
 7877SOL     OW29722   6.997   7.527   6.699 -0.4939 -0.5613  0.2825
 7877SOL    HW129723   6.918   7.579   6.717  1.2435  2.2972  0.1656
 7877SOL    HW229724   6.967   7.460   6.637 -3.0811 -0.4006  1.2361
 7878SOL     OW29725   5.517   1.786   6.193  0.0198  0.2171 -0.0006
 7878SOL    HW129726   5.511   1.841   6.115  0.1594 -0.6086 -0.6003
 7878SOL    HW229727   5.596   1.816   6.238 -0.6419  1.4318  0.4158
 7879SOL     OW29728   9.971   7.025   8.820  0.1246 -0.2606 -0.0624
 7879SOL    HW129729  10.046   6.976   8.853 -0.7701 -0.9174  1.0816
 7879SOL    HW229730  10.009   7.099   8.773  1.5035 -0.0152  1.3422
 7880SOL     OW29731  10.297   0.572   3.649 -0.4052  0.0086  0.1036
 7880SOL    HW129732  10.239   0.524   3.590  0.4208  1.2956 -1.8563
 7880SOL    HW229733  10.385   0.553   3.618  0.1210  0.1574  1.4123
 7881SOL     OW29734   2.587  10.486  10.624  0.1890  0.4858  0.5927
 7881SOL    HW129735   2.559  10.465  10.535  0.4804 -0.3043  0.6752
 7881SOL    HW229736   2.529  10.557  10.651  0.1556  0.7961 -0.2557
 7882SOL     OW29737   5.743   5.299   1.015  0.2711 -0.1857 -0.0473
 7882SOL    HW129738   5.694   5.374   0.984  1.9030  0.6586 -0.7329
 7882SOL    HW229739   5.797   5.333   1.087 -2.2781 -1.7536  2.8791
 7883SOL     OW29740   4.874   3.466   7.324 -0.1066  0.1164 -0.4661
 7883SOL    HW129741   4.784   3.498   7.313 -0.0826 -0.4777 -2.7237
 7883SOL    HW229742   4.902   3.504   7.407 -2.3426  0.5331  0.1712
 7884SOL     OW29743   9.986   7.615   9.841  0.2977  0.0839 -0.1004
 7884SOL    HW129744   9.974   7.701   9.882 -0.5316  0.3060 -0.7983
 7884SOL    HW229745  10.076   7.591   9.864 -0.2329  0.0104  2.1809
 7885SOL     OW29746   3.978   1.067  10.179  0.4272 -0.1009  0.1774
 7885SOL    HW129747   3.984   1.127  10.104 -2.1072  0.1315  0.0536
 7885SOL    HW229748   4.014   0.985  10.147 -1.7459 -0.3925 -1.8277
 7886SOL     OW29749   5.516   7.062   1.440 -0.2391  0.1752  0.4250
 7886SOL    HW129750   5.557   7.045   1.525  0.0835 -0.9572  0.0616
 7886SOL    HW229751   5.424   7.038   1.452 -0.1890 -0.0044  0.4507
 7887SOL     OW29752   8.587   2.553   3.645  0.0430  0.2052  0.2630
 7887SOL    HW129753   8.651   2.482   3.634  0.3570  0.5478 -0.1698
 7887SOL    HW229754   8.539   2.556   3.562 -1.1714 -0.6439  0.9076
 7888SOL     OW29755   5.670   3.648   5.537  0.0612  0.3041  0.4318
 7888SOL    HW129756   5.638   3.738   5.543 -0.4330  0.1645 -0.0992
 7888SOL    HW229757   5.726   3.647   5.460  1.6624  0.6306  1.5404
 7889SOL     OW29758   7.504   7.695   4.013  0.2843 -0.0664 -0.1792
 7889SOL    HW129759   7.554   7.702   4.095  0.4108 -0.4507 -0.2224
 7889SOL    HW229760   7.439   7.627   4.030 -0.1704  0.3654 -0.1551
 7890SOL     OW29761  10.875   7.383   7.455  0.0869 -0.6124 -0.0397
 7890SOL    HW129762  10.828   7.467   7.461  1.5046  0.1324  1.2342
 7890SOL    HW229763  10.830   7.327   7.518 -0.4733 -0.6357 -0.4452
 7891SOL     OW29764  10.570   0.711   5.519 -0.1353 -0.7358  0.2120
 7891SOL    HW129765  10.592   0.657   5.443  3.4152 -1.3574  1.4951
 7891SOL    HW229766  10.617   0.793   5.504 -1.0737 -0.0706  0.8223
 7892SOL     OW29767   5.376  10.184   6.307 -0.3265 -0.9395  0.2503
 7892SOL    HW129768   5.291  10.140   6.305 -0.0812 -1.3990 -0.2870
 7892SOL    HW229769   5.392  10.209   6.216  0.3642 -1.3477  0.2570
 7893SOL     OW29770   3.385   2.478   2.199  0.0478  0.4152 -0.0256
 7893SOL    HW129771   3.293   2.455   2.215 -0.1376  1.4480  0.4632
 7893SOL    HW229772   3.413   2.417   2.131 -0.8560 -0.2341  0.1601
 7894SOL     OW29773  10.222   2.469   1.061  0.1974 -0.3756  0.4265
 7894SOL    HW129774  10.302   2.417   1.071  0.2452 -0.1734  1.1266
 7894SOL    HW229775  10.240   2.550   1.110 -0.5452 -0.4506  0.8250
 7895SOL     OW29776   5.126   1.485   5.056 -0.4135 -0.4403 -0.4542
 7895SOL    HW129777   5.034   1.508   5.065 -0.5403 -0.7725 -0.8803
 7895SOL    HW229778   5.152   1.455   5.143 -0.1780  1.5053  0.1874
 7896SOL     OW29779   3.859   3.730   1.820 -0.6062 -0.2370 -0.5498
 7896SOL    HW129780   3.946   3.717   1.856 -0.2145 -0.7844 -1.6429
 7896SOL    HW229781   3.826   3.809   1.863  1.2397  1.1719 -1.6126
 7897SOL     OW29782   9.107   1.147   4.108  0.0839 -0.1168 -0.3179
 7897SOL    HW129783   9.031   1.138   4.164  0.4674  0.2979  0.2823
 7897SOL    HW229784   9.162   1.071   4.128 -0.0873 -0.3239 -0.6240
 7898SOL     OW29785   4.343   0.473   9.263 -1.0521  0.0692 -0.5873
 7898SOL    HW129786   4.275   0.418   9.301 -0.2811 -0.9380 -0.6368
 7898SOL    HW229787   4.397   0.413   9.211 -0.7684  1.0356 -1.4466
 7899SOL     OW29788   1.097   4.289   8.109  0.0508  0.2116  0.1367
 7899SOL    HW129789   1.141   4.342   8.175 -1.6067  1.0453  0.6191
 7899SOL    HW229790   1.160   4.282   8.037  0.8057  1.6915  0.6288
 7900SOL     OW29791   9.224   3.450   8.966  0.4252 -0.2212 -0.2224
 7900SOL    HW129792   9.245   3.487   8.880  1.2713  0.1524  0.1364
 7900SOL    HW229793   9.200   3.359   8.948 -0.9792  0.2764 -1.0331
 7901SOL     OW29794   6.680   0.833   8.160  0.4353  0.0552 -0.5164
 7901SOL    HW129795   6.603   0.890   8.149  1.1889  1.3187  0.4714
 7901SOL    HW229796   6.700   0.838   8.254  0.3674 -2.0991 -0.3521
 7902SOL     OW29797   0.263   7.245   9.602  0.5094  0.4446  0.4630
 7902SOL    HW129798   0.325   7.267   9.532  0.7460 -0.8877  0.2426
 7902SOL    HW229799   0.307   7.178   9.653 -1.6921 -2.5172 -1.2085
 7903SOL     OW29800   6.323  10.913   7.245 -0.5336  0.2866 -0.3706
 7903SOL    HW129801   6.250  10.960   7.285  0.4929  0.7622  1.0461
 7903SOL    HW229802   6.343  10.961   7.165  0.3681  2.1962  0.9364
 7904SOL     OW29803   0.739   3.773   7.080 -0.2209 -0.4567 -0.5547
 7904SOL    HW129804   0.701   3.860   7.070 -0.6977 -0.2593  2.2052
 7904SOL    HW229805   0.721   3.730   6.997 -2.9284  1.0121 -0.8599
 7905SOL     OW29806   9.376   6.281   7.834  0.6295  0.0829  0.4866
 7905SOL    HW129807   9.404   6.277   7.743  0.8162 -3.1086  0.5752
 7905SOL    HW229808   9.280   6.284   7.829  0.6632  1.3865  0.2312
 7906SOL     OW29809   1.724   2.011   0.758 -0.3476  0.2160 -0.0024
 7906SOL    HW129810   1.782   1.990   0.832 -1.5123 -0.6712  0.6878
 7906SOL    HW229811   1.737   1.940   0.696 -1.3046 -0.4417  0.5332
 7907SOL     OW29812   4.021   8.371   6.333  0.3444 -0.4443 -0.0596
 7907SOL    HW129813   4.110   8.399   6.315  0.2419 -0.2328 -0.2352
 7907SOL    HW229814   3.996   8.419   6.412 -0.1948  0.7599 -0.9315
 7908SOL     OW29815   4.068   1.496   2.650  0.0091  0.3946  0.2654
 7908SOL    HW129816   4.043   1.442   2.725  1.6169  1.9752  2.0209
 7908SOL    HW229817   4.013   1.464   2.578 -1.5133 -1.2481  2.0682
 7909SOL     OW29818   2.333   9.276   0.570  0.2266 -0.1073 -0.2127
 7909SOL    HW129819   2.323   9.368   0.545  0.4844 -0.0937 -0.2609
 7909SOL    HW229820   2.276   9.266   0.647  1.5549  0.5401  0.9055
 7910SOL     OW29821   2.605   2.850   8.577 -0.0424  0.1822  0.3301
 7910SOL    HW129822   2.565   2.802   8.505  1.5462 -0.9947  0.1752
 7910SOL    HW229823   2.572   2.939   8.568 -2.4277 -0.6587  0.1188
 7911SOL     OW29824  10.074   4.208   0.534 -0.2627 -0.3593  0.0159
 7911SOL    HW129825  10.157   4.192   0.579 -0.1605  0.3122  0.0770
 7911SOL    HW229826  10.088   4.176   0.445  0.6430  1.2641 -0.4712
 7912SOL     OW29827   7.352   8.993  10.186 -0.2644 -0.2252  0.2551
 7912SOL    HW129828   7.307   9.076  10.200 -0.8854 -0.2580 -1.4227
 7912SOL    HW229829   7.298   8.928  10.232 -0.4829  0.1089  0.4754
 7913SOL     OW29830   5.718   1.088  10.489  0.1402 -0.9226 -0.9456
 7913SOL    HW129831   5.770   1.154  10.443 -0.0159 -0.5346 -0.5756
 7913SOL    HW229832   5.637   1.081  10.438  0.6861 -1.7868 -1.7253
 7914SOL     OW29833   3.587   5.505   4.907 -0.3162  0.5951 -0.1434
 7914SOL    HW129834   3.666   5.458   4.881 -1.6414 -1.6781 -0.2991
 7914SOL    HW229835   3.599   5.594   4.872  1.5883 -0.0505 -1.2476
 7915SOL     OW29836   0.722   9.665   8.787 -0.4603 -0.0693 -0.1144
 7915SOL    HW129837   0.713   9.617   8.869  1.3568  1.1112  0.8575
 7915SOL    HW229838   0.785   9.614   8.736 -0.3423  0.0464 -0.0842
 7916SOL     OW29839   7.803   8.944   7.784  0.0126  0.3987  0.0415
 7916SOL    HW129840   7.809   8.864   7.731  2.7608  0.0195  0.7492
 7916SOL    HW229841   7.812   8.913   7.874  0.5883  1.4466  0.3601
 7917SOL     OW29842   9.397   0.761   3.415  0.1859  0.2190  0.0222
 7917SOL    HW129843   9.382   0.756   3.321  0.6027 -1.3509  0.0157
 7917SOL    HW229844   9.322   0.811   3.448  0.1146  0.9168 -1.1454
 7918SOL     OW29845   5.874   6.591   4.576  0.2682 -0.2943 -0.5017
 7918SOL    HW129846   5.818   6.582   4.653  2.8249  1.6323  1.8140
 7918SOL    HW229847   5.915   6.505   4.567 -1.3390 -1.0613 -0.8660
 7919SOL     OW29848   1.140   8.529   6.460 -0.0314 -0.3380 -0.2935
 7919SOL    HW129849   1.229   8.556   6.439  0.0764  0.3743  1.0013
 7919SOL    HW229850   1.091   8.611   6.469 -0.8821 -0.7252 -1.2195
 7920SOL     OW29851  10.467   1.704   8.905  0.5550  0.2328 -0.0299
 7920SOL    HW129852  10.450   1.687   8.812  4.3539  0.3539 -0.9134
 7920SOL    HW229853  10.463   1.619   8.947 -2.4211  0.3132  0.0740
 7921SOL     OW29854   1.676   3.913   7.723 -0.8912 -0.5287  0.0647
 7921SOL    HW129855   1.746   3.848   7.724  1.2346  1.6472  1.2493
 7921SOL    HW229856   1.608   3.875   7.781  0.6972 -1.2961  1.5170
 7922SOL     OW29857  10.207   7.447  10.926  0.1715 -0.3938 -0.4198
 7922SOL    HW129858  10.154   7.507  10.978  2.3411  0.7483  0.5916
 7922SOL    HW229859  10.182   7.466  10.835 -3.3484 -2.1185  0.0351
 7923SOL     OW29860  10.898   9.794   6.655  0.4350  0.2390 -0.4146
 7923SOL    HW129861  10.948   9.813   6.576 -0.3146  2.3964 -0.4459
 7923SOL    HW229862  10.824   9.854   6.652 -1.5027 -1.9568  0.2744
 7924SOL     OW29863   7.571   2.996   2.450 -0.4365 -0.0149 -0.0230
 7924SOL    HW129864   7.655   2.997   2.496 -0.0577  2.5189 -0.6218
 7924SOL    HW229865   7.544   2.904   2.452  2.5108 -1.0004 -0.1040
 7925SOL     OW29866   0.046   9.693   3.936 -0.5428 -0.4538 -0.1948
 7925SOL    HW129867   0.016   9.784   3.927  0.3086 -0.3168 -2.3530
 7925SOL    HW229868   0.001   9.646   3.865 -1.2445 -1.8391  1.1073
 7926SOL     OW29869   6.135   6.971   5.029  0.2025 -0.1529 -0.0343
 7926SOL    HW129870   6.148   6.934   5.116  1.8373 -0.1686 -0.2589
 7926SOL    HW229871   6.073   6.911   4.986  1.4585 -1.6682  0.2045
 7927SOL     OW29872   8.532   3.181   9.951 -0.3879  0.3683  0.0482
 7927SOL    HW129873   8.575   3.231   9.882 -0.1359 -0.5987 -0.5103
 7927SOL    HW229874   8.481   3.246   9.999  0.9417  1.3870  0.1422
 7928SOL     OW29875   5.075   4.352   5.193 -0.6618 -0.5951  0.2510
 7928SOL    HW129876   5.124   4.365   5.111 -2.0276 -1.1875 -0.6959
 7928SOL    HW229877   5.132   4.296   5.246  1.7525  2.4771  1.1609
 7929SOL     OW29878  10.562  10.622   1.274  0.0810 -0.3649 -0.7321
 7929SOL    HW129879  10.585  10.684   1.343 -1.0379 -0.0423 -0.6381
 7929SOL    HW229880  10.507  10.557   1.317 -2.9913  1.3369 -1.7956
 7930SOL     OW29881   5.374   2.308   8.169 -0.3897  0.3618  0.5822
 7930SOL    HW129882   5.339   2.351   8.091 -0.7449  0.3103  0.7119
 7930SOL    HW229883   5.324   2.347   8.242  0.4614  0.9716  0.8564
 7931SOL     OW29884   8.754   4.284   6.766 -0.2315 -0.2026  0.3801
 7931SOL    HW129885   8.808   4.288   6.844  0.8875 -1.1326 -0.3045
 7931SOL    HW229886   8.676   4.236   6.793  0.9106 -2.0714  0.5539
 7932SOL     OW29887   5.879   3.357   8.687  0.1757 -0.6155 -0.4797
 7932SOL    HW129888   5.862   3.272   8.646 -2.9551 -0.7091  0.7920
 7932SOL    HW229889   5.899   3.336   8.778  1.9605 -0.0659 -0.6985
 7933SOL     OW29890   7.311   1.340   4.205 -0.2801 -0.2733  0.0027
 7933SOL    HW129891   7.329   1.427   4.242 -1.9272 -0.3292  1.0669
 7933SOL    HW229892   7.329   1.280   4.277 -2.5499 -0.4697  0.5035
 7934SOL     OW29893   3.882   9.204   4.435  0.2508  0.5483  0.3944
 7934SOL    HW129894   3.802   9.219   4.384  0.3899  0.9126  0.2769
 7934SOL    HW229895   3.903   9.112   4.421  1.9010  1.2714 -2.5722
 7935SOL     OW29896   9.456   9.709   8.022  0.2712  0.0277 -0.0205
 7935SOL    HW129897   9.498   9.689   8.106  2.6322 -0.3324 -1.2037
 7935SOL    HW229898   9.402   9.632   8.004  0.0992 -0.0925  0.9501
 7936SOL     OW29899   5.909   8.224   0.433 -0.0173 -0.1643  0.5861
 7936SOL    HW129900   5.853   8.208   0.357  1.6272 -0.5189 -0.6124
 7936SOL    HW229901   5.943   8.138   0.456  0.4270  0.1126  0.9799
 7937SOL     OW29902   5.453   3.379   8.340  0.3126  0.4350 -0.4393
 7937SOL    HW129903   5.458   3.289   8.309 -2.4012  0.0564  0.0057
 7937SOL    HW229904   5.473   3.433   8.263  3.6819 -0.4474 -0.3272
 7938SOL     OW29905   5.506  10.087  10.626 -0.4472  0.0043 -0.6447
 7938SOL    HW129906   5.437  10.103  10.690  1.3055  0.0974  1.2959
 7938SOL    HW229907   5.489  10.151  10.556 -2.9855 -0.7806 -0.8635
 7939SOL     OW29908   0.726   2.731   8.861  0.2312 -0.3974  0.4674
 7939SOL    HW129909   0.702   2.681   8.783 -0.4164  1.0272 -0.2949
 7939SOL    HW229910   0.821   2.741   8.855  0.1837 -0.2771 -0.1721
 7940SOL     OW29911   2.493   1.605   8.483  0.0858 -0.4925  0.2545
 7940SOL    HW129912   2.528   1.545   8.549 -2.5037  0.2131  2.4539
 7940SOL    HW229913   2.499   1.692   8.524 -2.2844 -0.1230 -0.0545
 7941SOL     OW29914   8.735   0.596   1.825 -0.2306  0.0583  0.0908
 7941SOL    HW129915   8.784   0.586   1.744  1.0178  1.3755  0.6154
 7941SOL    HW229916   8.751   0.515   1.874  0.2761 -0.1079 -0.3453
 7942SOL     OW29917   3.400   9.331   1.721  0.2204 -0.4411 -0.0028
 7942SOL    HW129918   3.402   9.255   1.663 -3.0293 -0.6434  0.0037
 7942SOL    HW229919   3.423   9.405   1.664  2.2137 -1.1964 -0.2730
 7943SOL     OW29920   7.329  10.090   4.164  0.1765  0.1111 -0.3902
 7943SOL    HW129921   7.353  10.152   4.095  2.5453  1.4228  1.4543
 7943SOL    HW229922   7.398  10.023   4.160 -0.1984 -0.3062  0.1031
 7944SOL     OW29923   1.888   6.901   1.565 -0.4781  0.3094  0.4869
 7944SOL    HW129924   1.828   6.827   1.559 -2.2562  1.7704 -0.9602
 7944SOL    HW229925   1.850   6.967   1.507  2.2134  1.5707  0.0404
 7945SOL     OW29926   8.456   3.695   7.398  0.5539  0.1618  0.1199
 7945SOL    HW129927   8.528   3.744   7.360  2.1810  1.1359  3.9813
 7945SOL    HW229928   8.498   3.628   7.453 -1.5550 -1.3167  0.0792
 7946SOL     OW29929   2.373   5.306   4.801  0.3291 -0.1199 -0.4065
 7946SOL    HW129930   2.351   5.262   4.719 -2.2758 -0.4035  0.3661
 7946SOL    HW229931   2.422   5.240   4.851  0.8533 -0.3693 -1.2410
 7947SOL     OW29932   7.456   7.625   4.754  0.4223 -0.2221  0.0621
 7947SOL    HW129933   7.538   7.594   4.792 -0.4010 -0.6478  1.5662
 7947SOL    HW229934   7.440   7.567   4.680  1.4669 -0.1305 -0.2517
 7948SOL     OW29935   7.985   7.274   8.471 -0.4960  0.2327  0.0658
 7948SOL    HW129936   7.984   7.329   8.550  0.4661 -1.9713  1.7081
 7948SOL    HW229937   7.952   7.189   8.501  1.0690 -1.0314 -1.6098
 7949SOL     OW29938   8.166   3.023   7.985  0.0534 -0.2538  0.3324
 7949SOL    HW129939   8.182   2.931   8.009  0.4972 -0.1820  0.3137
 7949SOL    HW229940   8.106   3.018   7.911  2.3437 -0.6449 -1.6028
 7950SOL     OW29941   4.477   4.289   0.011  0.0521 -0.2778 -0.1489
 7950SOL    HW129942   4.528   4.323   0.085  0.5091  1.2059 -1.0927
 7950SOL    HW229943   4.521   4.324  -0.066 -0.5610 -1.5974 -1.1223
 7951SOL     OW29944   0.086   3.238   9.999 -0.0746 -0.4467 -0.7467
 7951SOL    HW129945   0.176   3.254   9.970  0.3459 -0.7353  0.3395
 7951SOL    HW229946   0.031   3.281   9.933  0.8749  0.4535 -0.9782
 7952SOL     OW29947  10.525   3.344   9.332 -0.6803  0.1288 -0.0445
 7952SOL    HW129948  10.588   3.289   9.285 -0.1478 -1.9386  2.7427
 7952SOL    HW229949  10.446   3.342   9.279  1.0193  1.3987 -2.8063
 7953SOL     OW29950   6.203   3.682   8.364  0.1043  0.8353 -0.2449
 7953SOL    HW129951   6.148   3.735   8.305 -0.8484 -1.6354 -1.7193
 7953SOL    HW229952   6.140   3.631   8.415  0.9842 -0.8791 -0.8210
 7954SOL     OW29953   7.816   0.610   6.743 -0.0892  0.6869 -0.2199
 7954SOL    HW129954   7.861   0.597   6.827  1.2618  0.7157 -0.9181
 7954SOL    HW229955   7.817   0.524   6.701 -0.3417  0.7746 -0.4085
 7955SOL     OW29956   4.015   3.719   8.179  0.3471 -0.1104  0.2283
 7955SOL    HW129957   3.921   3.700   8.172  0.4578 -2.0519  2.6436
 7955SOL    HW229958   4.055   3.667   8.110 -0.3664  1.2427 -1.2496
 7956SOL     OW29959   2.929   8.568   4.317 -0.4743 -0.3474 -0.0226
 7956SOL    HW129960   2.941   8.578   4.411 -1.7302  0.0741  0.1046
 7956SOL    HW229961   3.013   8.533   4.286 -0.1087 -0.6746  1.2716
 7957SOL     OW29962   9.252   3.844   1.449 -0.1904 -0.0798 -0.4163
 7957SOL    HW129963   9.160   3.870   1.448 -0.1760 -0.0246 -0.3326
 7957SOL    HW229964   9.254   3.762   1.499  0.0267  0.7876  1.0553
 7958SOL     OW29965   4.133  10.586   7.435  0.2216  0.0203 -0.2128
 7958SOL    HW129966   4.166  10.511   7.484 -1.7315 -0.2258  0.8488
 7958SOL    HW229967   4.127  10.657   7.499 -0.1432  0.3899 -0.6486
 7959SOL     OW29968   6.326   8.446   8.211 -0.1851  0.2992 -0.1314
 7959SOL    HW129969   6.400   8.416   8.264 -0.5584 -1.2204 -0.4168
 7959SOL    HW229970   6.249   8.407   8.252 -0.5345 -0.5030 -1.4628
 7960SOL     OW29971   6.411   5.935   7.763 -0.4122 -0.0206 -0.2724
 7960SOL    HW129972   6.330   5.919   7.715  0.4526 -1.3811 -1.3588
 7960SOL    HW229973   6.451   5.849   7.773  1.6087  0.7625 -1.0650
 7961SOL     OW29974   1.477   4.443   6.687 -0.6806  0.0750  0.3656
 7961SOL    HW129975   1.452   4.533   6.706 -0.4024 -0.0693  1.4740
 7961SOL    HW229976   1.521   4.413   6.766  0.3779 -0.6221 -0.4545
 7962SOL     OW29977   6.794   1.307   4.219 -0.2069 -0.5669 -0.0573
 7962SOL    HW129978   6.733   1.235   4.235  0.3235 -0.9324  0.3546
 7962SOL    HW229979   6.764   1.346   4.137 -0.0789 -1.7050 -0.6685
 7963SOL     OW29980   1.709   9.251   6.016  0.0268  0.0497 -0.0780
 7963SOL    HW129981   1.804   9.245   6.006 -0.0536 -0.2349 -0.7958
 7963SOL    HW229982   1.680   9.160   6.022 -0.1901  0.1402  0.2306
 7964SOL     OW29983   2.937   9.562   0.325 -0.5607  0.0541 -0.4596
 7964SOL    HW129984   2.889   9.508   0.262 -0.6888  2.0489 -2.1467
 7964SOL    HW229985   2.982   9.627   0.272  1.5467  0.1697  1.3389
 7965SOL     OW29986   6.212  10.716   1.536 -0.2612 -0.1687 -0.0909
 7965SOL    HW129987   6.231  10.685   1.447  2.8824  0.3197  0.2973
 7965SOL    HW229988   6.229  10.641   1.592  0.2659  0.2070  0.2662
 7966SOL     OW29989   9.865   0.442   1.106 -0.6780  0.0625  0.3192
 7966SOL    HW129990   9.945   0.447   1.160 -0.0603 -2.4605 -0.2314
 7966SOL    HW229991   9.810   0.513   1.139  1.1653  0.9205  1.7654
 7967SOL     OW29992   2.337   9.667   6.153 -0.0864 -0.1805  0.2507
 7967SOL    HW129993   2.246   9.640   6.166 -0.1307 -0.3986 -0.4548
 7967SOL    HW229994   2.387   9.584   6.156  0.1160 -0.0480  0.7911
 7968SOL     OW29995   5.704   3.370   6.750 -0.3501 -0.2595  0.3982
 7968SOL    HW129996   5.657   3.397   6.671 -0.3829 -0.7741  0.2396
 7968SOL    HW229997   5.794   3.358   6.720 -0.4332 -0.8030  0.3565
 7969SOL     OW29998   7.031   6.719   7.472 -0.4391 -0.1642  0.1999
 7969SOL    HW129999   7.023   6.627   7.448 -0.2855 -0.0733 -0.2155
 7969SOL    HW230000   6.963   6.763   7.421 -0.5010 -0.0506  0.3834
 7970SOL     OW30001  10.392   3.478   2.139 -0.1431 -0.4137 -0.3182
 7970SOL    HW130002  10.470   3.467   2.193 -0.5078 -1.0239  0.1077
 7970SOL    HW230003  10.352   3.559   2.170 -1.7070 -1.9885  2.1640
 7971SOL     OW30004   7.844   4.711   3.022  0.3334 -0.1135  0.8244
 7971SOL    HW130005   7.818   4.689   3.111 -0.4881 -2.0724  0.1670
 7971SOL    HW230006   7.817   4.635   2.970  0.6397  1.0420 -1.1222
 7972SOL     OW30007   4.983   1.464   3.881  0.1333  0.0673  0.0210
 7972SOL    HW130008   5.077   1.466   3.868  0.1035 -0.1187 -0.2166
 7972SOL    HW230009   4.950   1.544   3.839  0.2944  0.6608  0.9895
 7973SOL     OW30010   2.808  10.663   3.893  0.0819 -0.1901  0.1898
 7973SOL    HW130011   2.861  10.718   3.951 -1.7554  1.5424  0.3015
 7973SOL    HW230012   2.797  10.581   3.941 -1.4108  1.2008  2.3535
 7974SOL     OW30013   2.969   7.718   3.380 -0.0544 -0.2950 -0.7594
 7974SOL    HW130014   2.906   7.673   3.437 -1.1143  0.7163 -1.0941
 7974SOL    HW230015   3.054   7.688   3.410 -0.6952 -2.7231 -1.1151
 7975SOL     OW30016  10.343   0.758   6.008  0.4481  0.0968 -0.2901
 7975SOL    HW130017  10.430   0.789   5.984  0.4828  1.1647  1.0700
 7975SOL    HW230018  10.283   0.814   5.960  0.5280  0.9861  0.6021
 7976SOL     OW30019   2.363   9.740   6.425 -0.4081  0.3442 -0.2284
 7976SOL    HW130020   2.284   9.785   6.456 -0.4252  0.6898 -0.7521
 7976SOL    HW230021   2.358   9.747   6.330 -0.4474 -0.8483 -0.3284
 7977SOL     OW30022   8.419  10.622   6.470 -0.1879  0.2650  0.5536
 7977SOL    HW130023   8.406  10.555   6.538  2.2870  0.6416  1.4949
 7977SOL    HW230024   8.501  10.596   6.427 -0.8781  0.9429 -1.2481
 7978SOL     OW30025   7.871   5.261   6.257  0.6490 -0.4740  0.4657
 7978SOL    HW130026   7.956   5.275   6.299  0.5184 -0.0036  0.5703
 7978SOL    HW230027   7.836   5.348   6.242  0.8095 -0.6266 -0.8741
 7979SOL     OW30028  10.304   3.269   7.669 -0.3003  0.2430 -0.5980
 7979SOL    HW130029  10.366   3.266   7.595 -0.1678  0.1794 -0.4858
 7979SOL    HW230030  10.256   3.186   7.663 -1.2850  0.8586 -1.4576
 7980SOL     OW30031   2.872   8.245   4.498  0.3539 -0.0589 -0.3368
 7980SOL    HW130032   2.808   8.277   4.562  1.1344  0.1830  0.3535
 7980SOL    HW230033   2.876   8.313   4.431  1.1291  0.7641  0.5102
 7981SOL     OW30034   5.971   2.468   9.569  0.1292 -0.5525 -0.8202
 7981SOL    HW130035   5.982   2.485   9.663 -2.3722 -0.3253 -0.4967
 7981SOL    HW230036   5.950   2.375   9.563 -0.0843 -0.4881 -1.1101
 7982SOL     OW30037   1.350   7.723   4.552  0.4716  0.1493  0.1912
 7982SOL    HW130038   1.425   7.667   4.532  0.2525 -0.4253  0.9624
 7982SOL    HW230039   1.366   7.755   4.641 -0.6921 -0.8186  0.7748
 7983SOL     OW30040  10.171   6.893   9.892  0.5000  0.0524  0.3914
 7983SOL    HW130041  10.240   6.834   9.860  2.0312  2.0727 -0.2587
 7983SOL    HW230042  10.150   6.948   9.817  0.5504  1.5979  1.4559
 7984SOL     OW30043   8.114   8.570  10.508  0.6291  0.0400  0.2062
 7984SOL    HW130044   8.050   8.603  10.445 -1.2943 -0.6659  1.6660
 7984SOL    HW230045   8.142   8.648  10.556  0.3002  0.2809  0.0122
 7985SOL     OW30046   9.270   2.767   2.994  0.0791  0.1763  0.0163
 7985SOL    HW130047   9.307   2.779   2.907 -2.5232  1.3573 -1.0509
 7985SOL    HW230048   9.255   2.673   3.001  0.4740  0.0492 -0.7437
 7986SOL     OW30049   5.391   8.223   1.793  0.2703  0.4494  0.2110
 7986SOL    HW130050   5.352   8.168   1.860  0.4074 -0.3332 -0.3355
 7986SOL    HW230051   5.356   8.311   1.810 -1.3079 -0.1234  0.0408
 7987SOL     OW30052   0.854   9.562   9.603 -0.2855  0.0047 -0.3762
 7987SOL    HW130053   0.931   9.583   9.551 -0.0977 -0.3103 -0.2250
 7987SOL    HW230054   0.871   9.600   9.689 -0.4459  0.2257 -0.4400
 7988SOL     OW30055   3.890   2.728   0.121  0.4313  0.2347 -0.3455
 7988SOL    HW130056   3.830   2.666   0.080 -0.7275  1.3790 -0.4387
 7988SOL    HW230057   3.933   2.772   0.047 -1.1007  1.7623 -0.3747
 7989SOL     OW30058   5.022   9.346   7.652 -0.5216  0.7049 -0.0714
 7989SOL    HW130059   5.032   9.279   7.719 -0.8074  2.0858  1.4100
 7989SOL    HW230060   5.069   9.311   7.576 -0.5693 -1.0982  0.6704
 7990SOL     OW30061   9.049   6.533   3.586 -0.4050 -0.0313 -0.4559
 7990SOL    HW130062   9.021   6.444   3.609 -0.6312 -0.2033 -1.3421
 7990SOL    HW230063   9.135   6.521   3.546 -0.1809  0.2146 -0.0436
 7991SOL     OW30064   8.931   2.874   0.866  0.6877 -0.8476  0.2811
 7991SOL    HW130065   8.875   2.947   0.893  1.1133  1.4162 -4.0093
 7991SOL    HW230066   9.019   2.902   0.891  0.5337 -1.8426  2.1094
 7992SOL     OW30067   9.309   1.073  10.350  0.3724 -0.4468  0.4792
 7992SOL    HW130068   9.279   0.983  10.365 -0.0280 -0.7568 -1.7794
 7992SOL    HW230069   9.241   1.112  10.295  0.9833  0.9556  0.6645
 7993SOL     OW30070   7.090   3.442   3.946 -0.0397  0.0311 -0.0159
 7993SOL    HW130071   7.143   3.398   3.880 -2.1266 -0.0405 -1.7440
 7993SOL    HW230072   7.146   3.444   4.025  0.9995 -3.5721 -0.5170
 7994SOL     OW30073   2.239   1.599   7.954  0.0330  0.2994 -0.6631
 7994SOL    HW130074   2.264   1.587   7.863 -0.0522  0.0867 -0.6584
 7994SOL    HW230075   2.168   1.536   7.968  1.7897 -1.6085  0.2999
 7995SOL     OW30076  10.931   5.863   0.008 -0.0961 -0.1059 -0.4879
 7995SOL    HW130077  10.915   5.954  -0.017  2.0160  0.6344  0.5972
 7995SOL    HW230078  10.903   5.858   0.099 -1.0126 -0.8272 -0.7848
 7996SOL     OW30079   5.331   7.356  10.605  0.2724  0.4023 -0.1323
 7996SOL    HW130080   5.285   7.438  10.583  1.2241  0.9182 -0.2736
 7996SOL    HW230081   5.262   7.291  10.612 -0.5765  1.3478  0.5761
 7997SOL     OW30082   9.905   2.324   1.218 -0.0653  0.0294 -0.0423
 7997SOL    HW130083   9.991   2.293   1.245  0.4227  0.1282 -1.4041
 7997SOL    HW230084   9.882   2.269   1.143 -1.1342  0.0870  0.2300
 7998SOL     OW30085  10.721   1.874   1.219 -0.7469  0.5931  0.4381
 7998SOL    HW130086  10.782   1.948   1.223 -0.7599  0.5522  2.2784
 7998SOL    HW230087  10.756   1.818   1.149  0.4485  1.3293  0.4186
 7999SOL     OW30088   5.962   3.674   3.393  0.0504  0.1036  0.0156
 7999SOL    HW130089   5.914   3.593   3.410  0.6500 -0.5373 -1.2449
 7999SOL    HW230090   5.896   3.743   3.400 -1.4460 -0.8540 -3.0453
 8000SOL     OW30091   6.728   6.899   4.337 -0.5049 -0.1128  0.4052
 8000SOL    HW130092   6.717   6.860   4.424 -0.0143 -0.2449  0.4100
 8000SOL    HW230093   6.822   6.895   4.321 -0.7878 -2.1454 -1.0819
 8001SOL     OW30094   3.136   6.243   8.455 -0.0647  0.1056 -0.2126
 8001SOL    HW130095   3.073   6.224   8.524 -0.0292  1.0036  0.0824
 8001SOL    HW230096   3.083   6.274   8.381 -0.2355 -2.1896 -1.1324
 8002SOL     OW30097   0.032   6.470   7.040 -0.6168  0.5785 -0.0056
 8002SOL    HW130098   0.035   6.386   6.994 -0.0797  0.9360 -0.6359
 8002SOL    HW230099   0.076   6.531   6.981  0.1699  1.0327  1.0163
 8003SOL     OW30100   9.778   7.114   0.341  0.0175  0.0801  0.2851
 8003SOL    HW130101   9.739   7.199   0.322 -1.4501 -0.7433 -0.6366
 8003SOL    HW230102   9.820   7.089   0.259  1.0766  0.2297  0.7772
 8004SOL     OW30103   1.516   7.549   2.896 -1.2092 -0.3827 -0.0603
 8004SOL    HW130104   1.465   7.600   2.834 -2.1454  0.8846  1.6699
 8004SOL    HW230105   1.511   7.598   2.978  1.1368 -1.2628  0.6990
 8005SOL     OW30106   8.641   8.228   9.788  0.3693  0.5517  0.3618
 8005SOL    HW130107   8.661   8.139   9.759  0.3579  0.1091  1.6566
 8005SOL    HW230108   8.654   8.282   9.710 -1.2334 -0.7879 -0.9173
 8006SOL     OW30109   3.638   5.403   5.854 -1.0867 -0.1223 -0.1412
 8006SOL    HW130110   3.608   5.344   5.785  1.2804  0.2082 -1.5430
 8006SOL    HW230111   3.660   5.345   5.927  0.3395 -0.9205 -1.1738
 8007SOL     OW30112   8.687   1.070   0.698  0.0459 -0.3671 -0.4988
 8007SOL    HW130113   8.716   1.079   0.607  0.3583 -1.2320 -0.4961
 8007SOL    HW230114   8.595   1.096   0.697 -0.1789 -1.1390 -1.2289
 8008SOL     OW30115   1.813   1.380  10.494 -0.6976  0.9226  0.1387
 8008SOL    HW130116   1.874   1.380  10.420 -0.0972  0.7133  0.6218
 8008SOL    HW230117   1.794   1.287  10.509 -0.2584  0.9185  0.6930
 8009SOL     OW30118   0.137   1.434   7.549  0.0683  0.1950  0.5644
 8009SOL    HW130119   0.160   1.524   7.571 -0.9702  0.7140 -0.4276
 8009SOL    HW230120   0.043   1.436   7.533  0.0299 -1.0708  0.5508
 8010SOL     OW30121   4.775   8.632   8.194 -0.8618 -0.1969  0.2202
 8010SOL    HW130122   4.844   8.688   8.230 -0.7159 -0.5724  0.5392
 8010SOL    HW230123   4.819   8.578   8.129 -0.6686 -1.0113  1.0044
 8011SOL     OW30124   8.480   6.591   8.249  0.9047  0.5536 -0.2556
 8011SOL    HW130125   8.499   6.655   8.180  0.5613 -0.0982 -0.9686
 8011SOL    HW230126   8.446   6.515   8.202  0.0453  0.3380  0.6801
 8012SOL     OW30127   2.343   8.647   1.057  0.0675  0.0665 -0.1168
 8012SOL    HW130128   2.307   8.559   1.051 -1.3215  0.5485  0.5302
 8012SOL    HW230129   2.322   8.675   1.146  0.9303  0.8644 -0.1551
 8013SOL     OW30130   6.597  10.442   4.315  0.4151  0.1722 -0.3377
 8013SOL    HW130131   6.568  10.533   4.327 -0.0121  0.2128 -1.5264
 8013SOL    HW230132   6.659  10.446   4.243 -0.2471 -0.5864 -0.9708
 8014SOL     OW30133  10.742   9.167   3.635  0.1181  0.0978 -0.0108
 8014SOL    HW130134  10.647   9.159   3.638  0.0187  1.2500  0.7277
 8014SOL    HW230135  10.773   9.115   3.709 -0.0970  1.3105  0.9685
 8015SOL     OW30136   2.171   5.899   0.055  0.1541 -0.4736 -0.3321
 8015SOL    HW130137   2.097   5.840   0.050  0.0284 -0.5378  1.7319
 8015SOL    HW230138   2.134   5.982   0.085  1.0484 -0.8970  2.1440
 8016SOL     OW30139   9.564   9.432   9.007  0.2148  0.0496 -0.7343
 8016SOL    HW130140   9.617   9.482   9.068  0.3127 -0.2596 -0.5682
 8016SOL    HW230141   9.626   9.400   8.942  0.0071  1.0337 -1.4481
 8017SOL     OW30142   6.657   0.530   1.810 -0.4577  0.8635  0.8133
 8017SOL    HW130143   6.563   0.521   1.796 -0.2638  0.5906 -0.4471
 8017SOL    HW230144   6.686   0.442   1.832 -0.3102  0.6911 -0.0559
 8018SOL     OW30145   0.994   5.320   8.204 -0.2548  0.1272 -0.1047
 8018SOL    HW130146   1.023   5.347   8.291  0.1337  1.9523 -0.7584
 8018SOL    HW230147   0.979   5.402   8.157 -0.6622 -0.8152 -1.7033
 8019SOL     OW30148   5.387  10.522   3.790  0.2156 -0.2344 -0.2962
 8019SOL    HW130149   5.377  10.485   3.703 -2.5646 -0.0067 -0.1381
 8019SOL    HW230150   5.444  10.460   3.836  1.2233 -0.6708 -2.0300
 8020SOL     OW30151   2.984   7.751   7.248  0.1073 -0.0159 -0.0247
 8020SOL    HW130152   2.939   7.832   7.272  1.0300  0.1023  1.4018
 8020SOL    HW230153   2.931   7.714   7.177 -3.1700 -0.6650  2.5097
 8021SOL     OW30154   7.794   1.863  10.264  0.2958 -0.3002  0.4620
 8021SOL    HW130155   7.745   1.922  10.207 -1.5626 -1.3962  0.8348
 8021SOL    HW230156   7.832   1.920  10.331 -2.0801  0.4807  1.2590
 8022SOL     OW30157   2.710   9.218   7.413 -0.1994  0.4496  0.2144
 8022SOL    HW130158   2.721   9.308   7.443  0.0101  0.2256  0.8256
 8022SOL    HW230159   2.754   9.215   7.328 -1.1636  1.1987 -0.3326
 8023SOL     OW30160   5.945   1.942   8.819  0.3970  0.2536  0.1945
 8023SOL    HW130161   5.879   1.876   8.842  0.4226 -0.2352 -1.0678
 8023SOL    HW230162   5.986   1.964   8.902 -0.1812 -0.7209  0.7587
 8024SOL     OW30163   5.485   1.316   1.430  0.1583  0.3865 -0.1194
 8024SOL    HW130164   5.578   1.304   1.413  0.7251  0.4325  2.5031
 8024SOL    HW230165   5.474   1.293   1.522 -2.6113 -0.4690 -0.5516
 8025SOL     OW30166   4.259   7.709   2.724  0.0029 -0.1079  0.1691
 8025SOL    HW130167   4.196   7.761   2.775  0.9307  1.1805  0.0399
 8025SOL    HW230168   4.246   7.737   2.634  0.1767 -0.4665  0.0299
 8026SOL     OW30169   7.906   0.087  10.680 -0.8226  0.4473  0.5271
 8026SOL    HW130170   7.909   0.118  10.771 -0.1183  1.8562  0.0526
 8026SOL    HW230171   7.813   0.069  10.664 -0.8721 -0.5394  1.7314
 8027SOL     OW30172   8.385   5.723   4.302 -0.1073 -0.1944 -0.8205
 8027SOL    HW130173   8.415   5.698   4.389  0.1776 -0.0496 -0.8740
 8027SOL    HW230174   8.364   5.640   4.259 -1.2331 -0.2087 -0.2734
 8028SOL     OW30175   3.400   0.352   0.602  0.2105 -0.0019  0.4697
 8028SOL    HW130176   3.343   0.299   0.658  1.9121 -0.6493  1.6958
 8028SOL    HW230177   3.457   0.288   0.560  0.5053  0.6765 -0.1727
 8029SOL     OW30178   2.257   8.459   4.542  0.7596  0.4008 -0.0469
 8029SOL    HW130179   2.283   8.468   4.634 -1.0485  0.1710  0.5227
 8029SOL    HW230180   2.333   8.417   4.500  2.0616  1.5333  1.0727
 8030SOL     OW30181   2.226   7.037   6.694  0.3103  0.4309  0.0727
 8030SOL    HW130182   2.219   6.953   6.649 -0.2677  0.0501  0.8409
 8030SOL    HW230183   2.314   7.036   6.733 -0.1170 -0.3496  1.0713
 8031SOL     OW30184   3.456   7.390   8.169 -0.2419  0.0812 -0.1497
 8031SOL    HW130185   3.452   7.459   8.102  0.4933 -0.5263 -0.8434
 8031SOL    HW230186   3.417   7.313   8.126  1.7079 -0.7730 -0.4901
 8032SOL     OW30187   1.986   6.068   6.088 -0.4887 -0.2668 -0.0240
 8032SOL    HW130188   2.022   6.134   6.147  0.0494  0.3463 -1.0331
 8032SOL    HW230189   1.967   6.115   6.007  0.7084 -1.4994 -1.0669
 8033SOL     OW30190   3.163  10.394   3.559  0.3576  0.2683 -0.1247
 8033SOL    HW130191   3.195  10.484   3.560  0.6652  0.1678  1.2917
 8033SOL    HW230192   3.083  10.397   3.611  0.1417 -0.2061 -0.4251
 8034SOL     OW30193   7.393  10.287  10.641  0.0003 -0.3062  0.2360
 8034SOL    HW130194   7.332  10.229  10.596  1.8125 -0.8611 -1.7052
 8034SOL    HW230195   7.348  10.371  10.646 -1.9314 -1.3385  1.3743
 8035SOL     OW30196  10.279   0.119   5.016  0.0239  0.0241  0.4884
 8035SOL    HW130197  10.270   0.061   5.091 -0.0621  1.4112  1.5930
 8035SOL    HW230198  10.248   0.067   4.942  0.8342 -1.6483  1.2537
 8036SOL     OW30199   4.854  10.589   4.369 -0.5552  0.2075 -0.4713
 8036SOL    HW130200   4.839  10.510   4.317  1.3771 -0.9906  0.6764
 8036SOL    HW230201   4.904  10.559   4.445 -1.1282  2.3038  0.8243
 8037SOL     OW30202   3.772   1.837   9.504 -0.0794  0.4634 -0.2511
 8037SOL    HW130203   3.804   1.900   9.568 -1.3111  0.6967  0.1444
 8037SOL    HW230204   3.730   1.768   9.556  0.0100  0.0171 -0.7511
 8038SOL     OW30205   1.323   0.994   6.323  0.1025  0.3979  0.2315
 8038SOL    HW130206   1.404   0.991   6.271 -0.6421  0.9369 -1.0046
 8038SOL    HW230207   1.287   0.906   6.317  0.0631  0.4365 -0.0869
 8039SOL     OW30208   2.497   3.393   9.776 -0.0074 -0.5565 -0.3124
 8039SOL    HW130209   2.441   3.470   9.763  0.5388 -0.0308  0.3735
 8039SOL    HW230210   2.555   3.394   9.700  0.2644 -0.0527 -0.1048
 8040SOL     OW30211   7.649   8.966  10.767  0.6656 -0.3477  0.0121
 8040SOL    HW130212   7.688   9.023  10.701  1.7222  0.9109  1.6461
 8040SOL    HW230213   7.588   9.023  10.814 -0.1279 -1.2412  0.1052
 8041SOL     OW30214   7.860   1.917   3.911 -0.4483  0.2144  0.0023
 8041SOL    HW130215   7.828   1.981   3.974 -0.0660  0.5051 -0.0935
 8041SOL    HW230216   7.785   1.897   3.856 -0.7536  0.0512  0.4706
 8042SOL     OW30217   1.411   4.321   1.851  0.0690 -0.2132 -0.1620
 8042SOL    HW130218   1.468   4.253   1.815 -0.8469 -0.6908 -0.7502
 8042SOL    HW230219   1.439   4.401   1.808  0.0824 -0.5075 -0.7149
 8043SOL     OW30220   9.899   4.072   1.122 -0.6312  0.3566 -0.4400
 8043SOL    HW130221   9.929   3.983   1.102  0.8073  0.8093 -0.4103
 8043SOL    HW230222   9.900   4.117   1.038 -3.4096 -0.1788 -0.8480
 8044SOL     OW30223   8.940   7.516   4.434  0.6718  0.6277 -0.2345
 8044SOL    HW130224   8.964   7.482   4.348  2.3065 -1.8551  1.0629
 8044SOL    HW230225   8.870   7.458   4.464  0.4311  1.1771  0.2718
 8045SOL     OW30226   8.968   9.652   8.966  0.5262 -0.0885 -0.1954
 8045SOL    HW130227   8.991   9.605   8.886  1.2849 -0.6776  0.3671
 8045SOL    HW230228   8.943   9.740   8.935 -4.9205 -1.7851 -1.8115
 8046SOL     OW30229   0.788   3.252   4.424  0.1376  0.6853  0.4353
 8046SOL    HW130230   0.743   3.334   4.401 -0.1100  0.0521 -1.4995
 8046SOL    HW230231   0.718   3.187   4.430  0.5939 -0.0316 -1.3066
 8047SOL     OW30232   8.703   1.238   5.805 -0.0898 -0.5003  0.0261
 8047SOL    HW130233   8.721   1.171   5.739 -1.2009 -0.7234 -0.0692
 8047SOL    HW230234   8.784   1.245   5.855  0.9013 -0.0908 -1.5688
 8048SOL     OW30235   3.161   6.138   0.668 -0.0695  0.0999  0.1248
 8048SOL    HW130236   3.231   6.098   0.720 -0.3553  0.6543  0.9651
 8048SOL    HW230237   3.120   6.201   0.728 -0.8859  0.2285 -0.5493
 8049SOL     OW30238   5.475   1.658   3.563 -0.6031  0.1582 -0.2399
 8049SOL    HW130239   5.551   1.711   3.537  0.0670 -0.1103  1.1069
 8049SOL    HW230240   5.510   1.570   3.575 -1.4876 -0.3745 -1.2942
 8050SOL     OW30241   1.326  10.885  10.810 -0.0024  0.2446 -0.4185
 8050SOL    HW130242   1.387  10.819  10.842  0.0221  0.0268 -0.9064
 8050SOL    HW230243   1.308  10.941  10.886 -0.2059 -0.4610  0.0599
 8051SOL     OW30244   1.896   8.374   3.878  0.0045  0.0075  0.0593
 8051SOL    HW130245   1.885   8.315   3.953  1.2902 -0.5128 -0.1489
 8051SOL    HW230246   1.869   8.323   3.803 -0.9515  0.4179  0.1039
 8052SOL     OW30247   2.912   3.343   1.972  0.3071  0.5969 -0.5706
 8052SOL    HW130248   2.892   3.432   2.001  0.6043  0.3647  0.3797
 8052SOL    HW230249   2.828   3.298   1.975  0.4563  0.3719  0.7074
 8053SOL     OW30250   4.601   7.481   3.011  0.0531  0.0502 -0.3483
 8053SOL    HW130251   4.656   7.449   2.940  0.4489  0.8337 -0.3951
 8053SOL    HW230252   4.640   7.443   3.090  0.4742  0.3505 -0.4110
 8054SOL     OW30253   0.535   5.746   1.619 -0.1413 -0.3066  0.3121
 8054SOL    HW130254   0.501   5.824   1.574  1.3475  0.5939  0.6684
 8054SOL    HW230255   0.472   5.730   1.690  0.4091  1.6569  1.3170
 8055SOL     OW30256   0.814   6.711   6.314  0.5733  0.5213 -0.1602
 8055SOL    HW130257   0.752   6.730   6.244 -0.3754 -1.0306  0.1942
 8055SOL    HW230258   0.887   6.771   6.299 -1.3103  2.9916 -0.1535
 8056SOL     OW30259   4.749  10.014  10.343  0.3611  0.2261  0.8637
 8056SOL    HW130260   4.810   9.941  10.333 -0.3619 -0.4082  0.9184
 8056SOL    HW230261   4.768  10.072  10.269 -0.9353 -1.4385 -0.8886
 8057SOL     OW30262   7.063   5.796   1.893  0.1534 -0.2316 -0.0614
 8057SOL    HW130263   6.991   5.757   1.943 -1.2818  2.4435  0.1262
 8057SOL    HW230264   7.114   5.845   1.958  0.3388  0.4092 -0.6734
 8058SOL     OW30265   3.251   9.858   0.133  0.0235 -0.2459 -0.3006
 8058SOL    HW130266   3.327   9.837   0.079  0.2774  1.1371 -0.5143
 8058SOL    HW230267   3.193   9.783   0.123  0.9053 -0.8531 -0.9743
 8059SOL     OW30268   8.602   1.212   5.421  0.0095  0.1413 -0.3141
 8059SOL    HW130269   8.554   1.183   5.343 -1.1323 -0.8532  0.7074
 8059SOL    HW230270   8.659   1.283   5.390 -1.6771  0.9594 -1.7323
 8060SOL     OW30271   8.519   0.525   7.783 -0.0183 -0.4002  0.3969
 8060SOL    HW130272   8.487   0.449   7.831 -0.3821 -0.7595 -0.3916
 8060SOL    HW230273   8.506   0.502   7.691 -0.5745  0.8078  0.1536
 8061SOL     OW30274   4.736   2.862   7.858 -0.2378 -0.2818  0.3412
 8061SOL    HW130275   4.696   2.798   7.917 -1.0042  0.4800  0.6700
 8061SOL    HW230276   4.678   2.938   7.863  0.7620  0.5149  0.1123
 8062SOL     OW30277   1.408   4.435   8.044 -0.1731 -0.0895  0.7046
 8062SOL    HW130278   1.394   4.503   8.109  2.5549  0.3679  0.9332
 8062SOL    HW230279   1.504   4.431   8.034 -0.4014 -1.8356 -1.4789
 8063SOL     OW30280   7.050   6.491   5.206  0.4611 -0.1724  0.3177
 8063SOL    HW130281   7.100   6.560   5.250  1.0166  0.3559 -1.0526
 8063SOL    HW230282   7.088   6.488   5.118 -1.5495 -0.1692 -0.5962
 8064SOL     OW30283   1.976  10.381   7.379  0.3210 -0.0538  0.2570
 8064SOL    HW130284   2.060  10.374   7.424 -0.0979  0.6287  1.1603
 8064SOL    HW230285   1.932  10.298   7.397  0.3254  0.0532  0.7635
 8065SOL     OW30286   8.651   6.787   6.105  0.0382 -0.0775  0.0680
 8065SOL    HW130287   8.574   6.759   6.055  1.1249 -3.6507  0.1428
 8065SOL    HW230288   8.715   6.813   6.038  0.0580 -0.8494 -0.2270
 8066SOL     OW30289  10.896  10.159   5.118  0.6268  0.4664  0.2511
 8066SOL    HW130290  10.826  10.218   5.088 -0.8446 -0.9331  0.7971
 8066SOL    HW230291  10.975  10.196   5.079 -0.0070  3.5040  1.5157
 8067SOL     OW30292   0.296   7.194   9.950  0.0992 -0.4513  0.1179
 8067SOL    HW130293   0.371   7.214  10.007  0.0332 -1.4031  0.5579
 8067SOL    HW230294   0.278   7.276   9.904  0.5660  0.1567  0.9978
 8068SOL     OW30295   8.610   4.531   9.995  0.3188  0.0837 -0.3551
 8068SOL    HW130296   8.608   4.555   9.902 -0.2525  0.9189 -0.1408
 8068SOL    HW230297   8.576   4.441   9.997  0.7721 -0.1097 -0.9967
 8069SOL     OW30298   6.478   7.172   3.073 -0.3868 -0.2416 -0.3520
 8069SOL    HW130299   6.385   7.190   3.068 -0.4922  0.6651  2.6500
 8069SOL    HW230300   6.498   7.177   3.167  2.6684 -0.4072 -0.8953
 8070SOL     OW30301   3.180   7.543   1.203 -0.1797  0.3162 -0.0755
 8070SOL    HW130302   3.232   7.470   1.170  1.1231  0.5847  1.2596
 8070SOL    HW230303   3.199   7.615   1.143 -0.1737  0.0053 -0.4506
 8071SOL     OW30304  10.835   8.511   5.637  0.2960 -0.6003  0.1583
 8071SOL    HW130305  10.891   8.437   5.659  1.5359  0.1172 -0.4770
 8071SOL    HW230306  10.802   8.491   5.550  0.6544 -0.3946 -0.0256
 8072SOL     OW30307   3.371  10.338   2.470 -0.3197  0.4909 -0.3595
 8072SOL    HW130308   3.394  10.428   2.493  1.4818 -0.0167 -0.0166
 8072SOL    HW230309   3.405  10.285   2.542 -2.0828 -0.4288 -0.1397
 8073SOL     OW30310   8.442   7.694   7.934  0.8825 -0.3846  0.0760
 8073SOL    HW130311   8.429   7.787   7.915  2.2213 -0.4277 -1.1932
 8073SOL    HW230312   8.534   7.687   7.959  0.3483 -1.1186  1.9335
 8074SOL     OW30313   4.238   5.927   4.141  0.1646 -0.7347 -0.2431
 8074SOL    HW130314   4.325   5.939   4.103 -0.0695 -2.1716 -1.3231
 8074SOL    HW230315   4.180   5.981   4.087  0.4424  0.8753  0.9736
 8075SOL     OW30316   7.559   1.991   0.461  0.2118  0.7510 -0.2178
 8075SOL    HW130317   7.515   2.015   0.380  1.9563 -1.4135 -1.9279
 8075SOL    HW230318   7.633   2.051   0.468 -1.0247  2.2333  0.9160
 8076SOL     OW30319   4.161   1.224   6.213 -0.0126 -0.9814 -0.2640
 8076SOL    HW130320   4.149   1.279   6.136 -0.0757 -0.1400  0.3395
 8076SOL    HW230321   4.131   1.137   6.185 -1.8004 -0.2871 -0.6490
 8077SOL     OW30322   2.457   4.392   3.172  0.1748 -0.0401  0.1298
 8077SOL    HW130323   2.384   4.343   3.210  0.3277 -0.0841  0.3681
 8077SOL    HW230324   2.425   4.482   3.164  0.3165  0.0745  0.8353
 8078SOL     OW30325   8.991   5.290   0.873 -0.0059  0.3949  0.3378
 8078SOL    HW130326   9.040   5.219   0.830  0.8432  1.2916 -0.2100
 8078SOL    HW230327   9.058   5.353   0.899 -0.9232  2.0053 -1.0738
 8079SOL     OW30328  10.686   8.451   3.201  0.1545  0.1283 -0.2020
 8079SOL    HW130329  10.639   8.515   3.147  0.4872  1.6965  1.2659
 8079SOL    HW230330  10.628   8.434   3.275  0.9399  0.3571  0.4869
 8080SOL     OW30331   3.415   9.055   4.008 -0.1717 -0.4539  0.1713
 8080SOL    HW130332   3.464   8.984   4.050 -1.4952 -0.2930  2.0674
 8080SOL    HW230333   3.437   9.047   3.915  3.6151 -0.2467  0.8908
 8081SOL     OW30334   0.086   6.116   9.968  0.1144  0.2662 -0.1301
 8081SOL    HW130335  -0.007   6.116   9.992 -0.1513 -2.4192 -0.8124
 8081SOL    HW230336   0.086   6.107   9.872  1.0507  0.1302 -0.1240
 8082SOL     OW30337   9.946   8.133   6.275  0.9376 -0.3500 -0.5969
 8082SOL    HW130338   9.906   8.213   6.239  3.2506  0.2753 -2.0395
 8082SOL    HW230339  10.009   8.165   6.339  0.8032 -1.1383 -0.0605
 8083SOL     OW30340   0.181   8.714   0.050 -0.2392 -0.2869  0.6735
 8083SOL    HW130341   0.242   8.690   0.120 -0.7552 -0.6456  1.0138
 8083SOL    HW230342   0.103   8.745   0.097 -0.6045 -0.5649  0.2542
 8084SOL     OW30343  10.127   1.348   3.433  0.2063 -0.1843  0.2325
 8084SOL    HW130344  10.190   1.400   3.383 -0.3899  0.8874  0.5690
 8084SOL    HW230345  10.177   1.312   3.506  1.0326 -1.5691 -0.9731
 8085SOL     OW30346  10.310   0.645  10.685 -0.3122 -0.3189  0.1610
 8085SOL    HW130347  10.287   0.717  10.744  1.3162  1.0296 -0.7551
 8085SOL    HW230348  10.232   0.633  10.631 -0.5436  0.9460  0.1730
 8086SOL     OW30349   0.711   0.190   4.865 -0.0462  0.6810  0.1767
 8086SOL    HW130350   0.711   0.106   4.912  3.0982 -0.2977 -1.2715
 8086SOL    HW230351   0.695   0.255   4.933 -2.6865 -1.0058  1.3342
 8087SOL     OW30352   2.508   8.335   4.498 -0.3094  0.3973  0.5157
 8087SOL    HW130353   2.542   8.421   4.472 -0.9799  1.3658  2.6524
 8087SOL    HW230354   2.566   8.307   4.569  0.6102 -1.5204 -0.8733
 8088SOL     OW30355   1.732   9.753   8.199 -0.3744  0.6617  0.1807
 8088SOL    HW130356   1.772   9.839   8.189 -1.6619  1.3226  0.5706
 8088SOL    HW230357   1.729   9.739   8.294 -1.0804  0.6286  0.1584
 8089SOL     OW30358   5.815   3.781   1.009  0.0243  0.0329  0.4768
 8089SOL    HW130359   5.798   3.867   0.971  1.4809  0.0593 -0.1884
 8089SOL    HW230360   5.820   3.797   1.103  1.1804  0.8762  0.3033
 8090SOL     OW30361  10.287   7.960   5.802 -0.0111 -0.4354 -0.0334
 8090SOL    HW130362  10.266   8.049   5.774 -0.9084 -0.2487  1.1505
 8090SOL    HW230363  10.309   7.968   5.894  1.2009 -1.2736 -0.2209
 8091SOL     OW30364   0.043   5.675   3.509 -0.0351 -0.0742  0.1184
 8091SOL    HW130365  -0.025   5.680   3.442 -0.0527  1.0334  0.2043
 8091SOL    HW230366   0.090   5.758   3.503 -0.7038  0.5167  2.1502
 8092SOL     OW30367   9.205   1.241   8.318 -0.4919 -0.0321  0.2768
 8092SOL    HW130368   9.187   1.182   8.245 -1.2244  1.6699 -0.9640
 8092SOL    HW230369   9.212   1.328   8.279  0.4714  0.7580  2.0607
 8093SOL     OW30370   6.245   9.256   6.110 -0.5297  0.8306  0.4015
 8093SOL    HW130371   6.191   9.228   6.036 -1.0538  1.4889  0.5244
 8093SOL    HW230372   6.267   9.347   6.091 -0.1926  0.8364  0.7859
 8094SOL     OW30373   4.586   7.081   9.317 -0.5404  0.3386 -0.2085
 8094SOL    HW130374   4.661   7.132   9.287  0.0488 -0.1767  0.3637
 8094SOL    HW230375   4.586   7.003   9.262  0.3730 -0.4733  0.8994
 8095SOL     OW30376   9.989   7.840   6.743  0.1063  0.1350  0.1181
 8095SOL    HW130377  10.064   7.783   6.725 -1.3185 -1.1958 -2.3687
 8095SOL    HW230378   9.976   7.834   6.837  2.4934 -0.3572  0.4843
 8096SOL     OW30379   1.094   9.253   4.678  0.1231  0.3572 -0.1758
 8096SOL    HW130380   1.123   9.217   4.761  2.3988 -0.3660 -1.1998
 8096SOL    HW230381   1.147   9.332   4.666 -0.9336  1.0451 -0.4750
 8097SOL     OW30382   7.164   8.525   1.312 -0.3164  0.3017  0.4741
 8097SOL    HW130383   7.249   8.547   1.272 -0.6065 -1.8357 -1.5290
 8097SOL    HW230384   7.099   8.566   1.255 -0.6891  0.9502  1.3428
 8098SOL     OW30385   9.643   8.851   2.954 -0.0045 -0.0032  0.4462
 8098SOL    HW130386   9.615   8.943   2.948 -1.2270 -0.3309  0.8443
 8098SOL    HW230387   9.720   8.846   2.898  0.0332  1.2520  0.3561
 8099SOL     OW30388   1.749   1.156   3.879 -0.0010  0.3081  0.2967
 8099SOL    HW130389   1.807   1.231   3.893 -0.4325  0.6290  0.4312
 8099SOL    HW230390   1.789   1.084   3.928  0.6418  0.3364 -0.1783
 8100SOL     OW30391   4.966  10.672   6.138 -0.1133  0.1506  0.0692
 8100SOL    HW130392   5.040  10.612   6.143  0.9615  1.5161  1.3279
 8100SOL    HW230393   4.948  10.682   6.045  0.0122 -1.6910 -0.1761
 8101SOL     OW30394   0.348   7.117   5.857  0.2215 -0.4086 -0.1902
 8101SOL    HW130395   0.288   7.130   5.930  1.0100 -1.3293  0.6475
 8101SOL    HW230396   0.435   7.134   5.893  0.6927 -1.5817 -0.6992
 8102SOL     OW30397   6.372   4.431   4.065  0.0551  0.0006  0.0850
 8102SOL    HW130398   6.402   4.487   4.137  0.3843 -1.0036  0.7504
 8102SOL    HW230399   6.386   4.342   4.097  0.9314 -0.4717 -1.5213
 8103SOL     OW30400   8.265  10.514   7.443  0.1300 -0.7013  0.0893
 8103SOL    HW130401   8.235  10.477   7.527 -2.4909 -1.9642 -1.2813
 8103SOL    HW230402   8.327  10.448   7.410  0.8731 -0.3893  0.8178
 8104SOL     OW30403   3.392   3.043   5.652 -0.0893  0.7826 -0.4345
 8104SOL    HW130404   3.412   3.081   5.566 -0.3373  1.9033 -0.0146
 8104SOL    HW230405   3.449   3.091   5.713 -0.3279  0.3955  0.1002
 8105SOL     OW30406   8.655   3.472   5.710 -0.0384 -0.5717 -0.3575
 8105SOL    HW130407   8.602   3.406   5.665 -0.9795 -1.0157  1.3190
 8105SOL    HW230408   8.740   3.468   5.667 -0.5554 -1.7562 -1.3365
 8106SOL     OW30409   3.920  10.630   6.999  0.0713  0.4381  0.1709
 8106SOL    HW130410   3.887  10.542   6.985  2.0259 -0.4955  1.0850
 8106SOL    HW230411   3.884  10.681   6.926 -1.5236 -0.9490 -0.0815
 8107SOL     OW30412   7.441   4.794   7.335 -0.3171  0.2847 -0.2208
 8107SOL    HW130413   7.387   4.719   7.362 -0.2065  1.0329  2.2607
 8107SOL    HW230414   7.378   4.866   7.326 -0.1416  0.4050 -0.4882
 8108SOL     OW30415   8.628   2.935  10.535 -0.1944 -0.4440 -0.3663
 8108SOL    HW130416   8.638   2.992  10.459  0.6208  0.1381  0.1651
 8108SOL    HW230417   8.661   2.850  10.506 -1.9329 -0.8368 -1.3394
 8109SOL     OW30418   4.742   5.954   5.419 -0.2414  0.4634 -1.1144
 8109SOL    HW130419   4.682   6.007   5.471 -0.0100  1.3637 -1.7273
 8109SOL    HW230420   4.813   6.015   5.396  0.1568 -0.1824 -1.6284
 8110SOL     OW30421  10.930  10.766   0.395 -0.3440 -0.5633 -0.2123
 8110SOL    HW130422  10.976  10.774   0.312 -1.7064 -1.1267 -1.0553
 8110SOL    HW230423  10.882  10.848   0.404 -0.1186 -0.4613  0.0664
 8111SOL     OW30424   8.336   2.232   1.356 -0.0984 -0.5063 -0.1103
 8111SOL    HW130425   8.423   2.223   1.317  0.1465 -1.9276  0.6542
 8111SOL    HW230426   8.352   2.273   1.441 -0.2852  0.0154 -0.3248
 8112SOL     OW30427   8.383   8.003   5.340  0.3094 -0.1501 -0.3157
 8112SOL    HW130428   8.472   7.969   5.350  0.8510  1.3940  0.2268
 8112SOL    HW230429   8.347   8.003   5.429  0.1083  0.1508 -0.3972
 8113SOL     OW30430   7.187   9.807  10.882  0.4846 -0.5317  0.9111
 8113SOL    HW130431   7.169   9.763  10.965 -0.0582  0.7196  1.4823
 8113SOL    HW230432   7.273   9.847  10.895  0.6785 -0.8489  0.6314
 8114SOL     OW30433   5.521   0.165   7.337 -0.0763 -0.4483 -0.2501
 8114SOL    HW130434   5.435   0.139   7.370  0.2915 -1.0004  0.3107
 8114SOL    HW230435   5.515   0.260   7.326 -0.2453 -0.2540  1.3538
 8115SOL     OW30436   7.307   5.179   7.429 -0.0385 -0.0615  0.0842
 8115SOL    HW130437   7.311   5.274   7.419  0.2529 -0.0586  0.2276
 8115SOL    HW230438   7.235   5.152   7.372  1.3728 -0.0005 -1.8259
 8116SOL     OW30439  10.378   7.888   1.203  0.3421 -0.2298  0.1173
 8116SOL    HW130440  10.419   7.896   1.289  0.7488 -0.4389 -0.0513
 8116SOL    HW230441  10.450   7.899   1.141 -0.0332  0.4293 -0.2118
 8117SOL     OW30442   6.822   7.512  10.904  0.2937 -0.3256 -0.2559
 8117SOL    HW130443   6.912   7.544  10.914 -0.0911  0.4036  1.4010
 8117SOL    HW230444   6.793   7.495  10.994 -1.7695  1.1051 -0.5610
 8118SOL     OW30445   9.352   5.392   6.459  0.3310  0.2525  0.3001
 8118SOL    HW130446   9.278   5.362   6.511  0.0979  3.1726  1.8803
 8118SOL    HW230447   9.316   5.463   6.405  0.9876 -1.4572 -2.6518
 8119SOL     OW30448   5.003   0.513   4.320  0.1748  0.5297 -0.2484
 8119SOL    HW130449   5.039   0.504   4.408  0.8352  0.1656 -0.5433
 8119SOL    HW230450   4.964   0.427   4.301 -1.9641  1.2616  0.5146
 8120SOL     OW30451   0.057   8.476   3.815  0.2212  0.2311 -0.0717
 8120SOL    HW130452   0.089   8.388   3.833 -1.2505 -0.3487 -0.1767
 8120SOL    HW230453  -0.005   8.465   3.743 -1.1546  1.1016  0.9371
 8121SOL     OW30454   9.513   5.601   4.520 -0.3241 -0.2871  0.0241
 8121SOL    HW130455   9.584   5.646   4.566 -0.8080  1.4816 -0.8764
 8121SOL    HW230456   9.436   5.655   4.535 -0.4156  0.6758 -3.1598
 8122SOL     OW30457   5.245   4.325   8.573  0.1653 -0.4688 -0.4156
 8122SOL    HW130458   5.194   4.402   8.547 -0.6156 -1.0714 -0.7312
 8122SOL    HW230459   5.213   4.305   8.661  1.8284  0.7539  0.5230
 8123SOL     OW30460   6.730   4.693   9.902  0.1028 -0.2352  0.0495
 8123SOL    HW130461   6.785   4.717   9.977  0.3452  1.3592 -0.6068
 8123SOL    HW230462   6.736   4.767   9.843 -0.9445 -1.0176 -1.0858
 8124SOL     OW30463   7.038   6.818   1.611 -0.6988 -0.1987 -0.0493
 8124SOL    HW130464   6.980   6.780   1.546 -0.0834  0.9338 -1.3077
 8124SOL    HW230465   7.020   6.912   1.607 -0.4619 -0.0782  1.2429
 8125SOL     OW30466  10.285   9.540   7.198  0.7122  0.3540  0.0335
 8125SOL    HW130467  10.200   9.583   7.207  0.5494 -0.2461  1.7260
 8125SOL    HW230468  10.349   9.610   7.215  0.5002  0.4027  0.6622
 8126SOL     OW30469   2.124   4.689   0.910 -0.1154  0.4475 -0.0226
 8126SOL    HW130470   2.158   4.608   0.872  1.4235  1.0624 -0.0442
 8126SOL    HW230471   2.097   4.666   0.998 -1.3990 -0.4588 -0.6220
 8127SOL     OW30472   3.834   9.547  10.679 -0.1075  0.2666  0.6611
 8127SOL    HW130473   3.913   9.535  10.731  0.0021  0.8045  0.6252
 8127SOL    HW230474   3.858   9.515  10.592  0.0506  0.3734  0.6651
 8128SOL     OW30475   8.788   9.178   4.355 -0.8633 -0.2946 -0.2148
 8128SOL    HW130476   8.873   9.133   4.350 -0.1033  0.6911  2.4070
 8128SOL    HW230477   8.728   9.112   4.389 -0.8714 -0.6307 -0.8645
 8129SOL     OW30478   4.878   1.629   4.296 -0.3322  0.7382  0.2442
 8129SOL    HW130479   4.789   1.660   4.316  0.0910  0.5898  2.5096
 8129SOL    HW230480   4.909   1.589   4.377  2.2675  1.8355 -0.1154
 8130SOL     OW30481   3.408   4.676   7.561  0.0950 -0.7305  0.6225
 8130SOL    HW130482   3.350   4.668   7.485 -1.5812 -0.2560  1.7819
 8130SOL    HW230483   3.495   4.684   7.524 -0.4342 -2.4678 -1.1967
 8131SOL     OW30484   1.948  10.223   6.345 -0.4848 -0.4537 -0.9455
 8131SOL    HW130485   2.020  10.286   6.354 -0.2043 -0.9135  0.1876
 8131SOL    HW230486   1.928  10.223   6.251 -0.4272  1.2423 -0.9874
 8132SOL     OW30487   1.378   6.564  10.422 -0.4925 -0.0156 -0.2345
 8132SOL    HW130488   1.294   6.596  10.388 -0.8644 -1.1360 -0.4178
 8132SOL    HW230489   1.386   6.605  10.508 -2.4167 -1.7079  0.8515
 8133SOL     OW30490   2.658   4.056   2.245 -0.5125  0.6300 -0.0732
 8133SOL    HW130491   2.620   3.971   2.268  0.2723  0.1966 -0.3463
 8133SOL    HW230492   2.628   4.073   2.156  2.1051 -1.0254 -1.3650
 8134SOL     OW30493   2.278   5.490   6.279 -0.1276 -0.5613  0.3109
 8134SOL    HW130494   2.216   5.488   6.352 -1.3960 -2.5146 -0.7441
 8134SOL    HW230495   2.315   5.402   6.277  0.6989 -0.2100 -0.7573
 8135SOL     OW30496  10.047   5.696   9.524 -0.1345  0.5613 -0.0321
 8135SOL    HW130497  10.001   5.622   9.485  0.9490 -1.9188  3.0189
 8135SOL    HW230498  10.118   5.715   9.463 -2.0130  1.0684 -2.2257
 8136SOL     OW30499   3.781   9.618   7.596 -0.5096 -0.0839 -0.0565
 8136SOL    HW130500   3.698   9.570   7.584 -0.2487 -0.4478 -0.4502
 8136SOL    HW230501   3.846   9.549   7.610 -0.1884  0.1716 -0.2801
 8137SOL     OW30502   3.193   5.176   8.302 -0.1458  0.1630 -0.1767
 8137SOL    HW130503   3.136   5.102   8.281  0.9379 -0.7434  0.0039
 8137SOL    HW230504   3.176   5.193   8.394  0.5564 -0.7357  0.1340
 8138SOL     OW30505   4.127   3.201  10.224  0.8895  0.1502  0.1543
 8138SOL    HW130506   4.088   3.201  10.312  0.1099 -0.0525 -0.1848
 8138SOL    HW230507   4.118   3.292  10.194 -0.5319 -0.1643 -0.4381
 8139SOL     OW30508   7.010   9.365   7.310  0.0183  0.8979  0.0576
 8139SOL    HW130509   7.041   9.418   7.384  0.4418 -1.1946  1.4669
 8139SOL    HW230510   6.915   9.375   7.311  0.1349  2.2049 -0.1910
 8140SOL     OW30511   7.354   8.236   6.324  0.1346  0.7509 -0.1813
 8140SOL    HW130512   7.360   8.205   6.233 -0.3049  0.3372 -0.0701
 8140SOL    HW230513   7.385   8.327   6.320  1.2178  0.3877 -0.5515
 8141SOL     OW30514   6.858   1.956   0.761  0.3745 -0.0496 -0.6409
 8141SOL    HW130515   6.844   2.005   0.679 -2.1145 -2.6800 -1.9513
 8141SOL    HW230516   6.932   1.899   0.742  1.1867  0.8439 -0.2462
 8142SOL     OW30517   7.948   3.140   6.623  0.0516 -0.1838 -0.1244
 8142SOL    HW130518   7.957   3.074   6.691  0.8832 -0.5835 -0.6024
 8142SOL    HW230519   8.025   3.196   6.633  1.6166 -1.7580 -2.2901
 8143SOL     OW30520  10.853   4.804   0.394  0.2267 -0.1663  0.2149
 8143SOL    HW130521  10.792   4.877   0.405 -0.3999 -0.7555  0.7527
 8143SOL    HW230522  10.825   4.739   0.459  0.8226 -0.8542 -0.1975
 8144SOL     OW30523   7.422   7.857   1.693  0.3862 -0.0289 -0.0251
 8144SOL    HW130524   7.503   7.908   1.682  1.0395 -0.7246  1.2817
 8144SOL    HW230525   7.452   7.771   1.723 -0.6666 -1.3427 -2.4199
 8145SOL     OW30526   5.259   1.458   6.483 -0.2607 -0.2893  0.0281
 8145SOL    HW130527   5.246   1.372   6.443  1.0354 -1.3075  1.6607
 8145SOL    HW230528   5.270   1.518   6.409 -0.5878 -1.6314 -1.1393
 8146SOL     OW30529   2.210   8.374   5.366 -0.1273 -0.0412 -0.0404
 8146SOL    HW130530   2.206   8.445   5.301  1.4407  0.7680  0.7036
 8146SOL    HW230531   2.119   8.347   5.377 -0.6618  1.2698 -0.9977
 8147SOL     OW30532   2.580   8.972   8.769  0.3905  0.1958 -0.7885
 8147SOL    HW130533   2.581   8.880   8.745  1.0410  0.4176 -1.7017
 8147SOL    HW230534   2.590   8.973   8.864  0.1094 -0.6751 -0.7420
 8148SOL     OW30535   7.200   9.674   1.256 -0.0452  0.6099  0.4750
 8148SOL    HW130536   7.145   9.612   1.208  0.6465  1.0090 -0.9002
 8148SOL    HW230537   7.214   9.633   1.341 -1.5391 -0.0067  0.4556
 8149SOL     OW30538   8.246   8.834   6.992 -0.0052 -0.3331 -0.1984
 8149SOL    HW130539   8.331   8.840   6.948 -0.1546  3.5328 -0.2672
 8149SOL    HW230540   8.266   8.851   7.084 -0.5682 -0.6709 -0.0123
 8150SOL     OW30541   8.205   9.594   9.793  0.0842 -0.4301  0.3179
 8150SOL    HW130542   8.148   9.574   9.720 -0.2366 -1.5822  0.8550
 8150SOL    HW230543   8.209   9.689   9.797 -0.1304 -0.3620 -0.9974
 8151SOL     OW30544   1.069   2.291   4.896 -0.1343  0.0678 -0.1484
 8151SOL    HW130545   0.989   2.294   4.844  0.5028  0.6007 -1.1301
 8151SOL    HW230546   1.058   2.214   4.952 -1.4338  0.2838 -0.0764
 8152SOL     OW30547   1.073   0.343   3.625 -0.7617  0.2885  0.5927
 8152SOL    HW130548   1.075   0.248   3.639 -0.6393 -0.3548 -2.9221
 8152SOL    HW230549   1.099   0.380   3.709  1.1950 -2.8678  1.5519
 8153SOL     OW30550   9.310   5.760   7.680  0.0500  0.4067 -0.1498
 8153SOL    HW130551   9.344   5.696   7.618  1.1143  0.8815 -0.0669
 8153SOL    HW230552   9.284   5.835   7.626  0.6324  0.6746 -0.0598
 8154SOL     OW30553   1.566   7.663  10.180  0.8547 -0.6744 -0.0469
 8154SOL    HW130554   1.659   7.674  10.158  0.0891  1.3457 -2.9317
 8154SOL    HW230555   1.548   7.736  10.240  1.1547 -1.1888  0.6787
 8155SOL     OW30556   8.263   6.654   1.401  0.1683 -0.3130 -0.6701
 8155SOL    HW130557   8.354   6.672   1.377 -0.1879  0.8153 -1.2692
 8155SOL    HW230558   8.263   6.564   1.433  1.2886 -0.7068 -1.7218
 8156SOL     OW30559   3.799   9.925   0.667  0.1337  0.5654  0.0840
 8156SOL    HW130560   3.719   9.975   0.651 -1.0368 -0.9842  0.7495
 8156SOL    HW230561   3.769   9.834   0.669  2.2439 -0.2343 -1.5965
 8157SOL     OW30562   7.719   8.206   6.385 -0.3461  0.1244 -0.0050
 8157SOL    HW130563   7.762   8.159   6.457  1.0517 -0.2544 -1.0373
 8157SOL    HW230564   7.652   8.259   6.428 -0.6147 -1.2864  1.4047
 8158SOL     OW30565   0.677   0.728   7.151  0.6343  0.5976 -0.0895
 8158SOL    HW130566   0.659   0.821   7.166 -0.1572  0.3280  0.6874
 8158SOL    HW230567   0.607   0.682   7.196  1.1894 -0.3979 -0.2096
 8159SOL     OW30568   1.020   6.443   9.433  0.3474 -0.0283  0.4141
 8159SOL    HW130569   1.009   6.395   9.350  2.0209  0.3138 -0.0630
 8159SOL    HW230570   1.052   6.529   9.406 -3.0817  1.6709  1.2202
 8160SOL     OW30571   1.923   0.767   1.227  0.0829 -0.6937  0.1451
 8160SOL    HW130572   1.873   0.843   1.256  0.1028 -0.5110 -0.3022
 8160SOL    HW230573   2.012   0.799   1.216  0.4240 -1.1300  1.4159
 8161SOL     OW30574   4.308   9.050   7.790 -0.1091  0.1407  0.3751
 8161SOL    HW130575   4.352   9.130   7.818 -0.8411  1.0785 -1.0519
 8161SOL    HW230576   4.361   8.979   7.828  0.5542  1.2710  1.6531
 8162SOL     OW30577   9.529   0.677   2.682 -0.2575 -0.4952  0.1370
 8162SOL    HW130578   9.438   0.668   2.655 -0.2998 -0.9515  0.4103
 8162SOL    HW230579   9.544   0.601   2.739  0.3525 -0.5364 -0.0755
 8163SOL     OW30580   3.098   8.112   9.637  0.2220 -0.1347  0.5442
 8163SOL    HW130581   3.079   8.204   9.616 -1.2164 -0.0621  1.9629
 8163SOL    HW230582   3.130   8.115   9.727 -0.3140 -1.0697  0.7737
 8164SOL     OW30583   1.830   2.912   2.765 -0.4164  0.1733 -0.3397
 8164SOL    HW130584   1.758   2.899   2.827  0.7433  0.8216  1.2130
 8164SOL    HW230585   1.860   2.823   2.745 -1.0627 -0.0627 -0.3032
 8165SOL     OW30586   9.191   2.185   7.570 -0.2229  0.6918  0.1398
 8165SOL    HW130587   9.261   2.177   7.505  0.3064 -0.2812  0.8070
 8165SOL    HW230588   9.113   2.152   7.525 -0.0479  0.8433 -0.2797
 8166SOL     OW30589   6.914   4.485   7.030  0.0001 -0.3783 -0.8375
 8166SOL    HW130590   6.882   4.549   7.093  0.8071 -0.9955  0.2470
 8166SOL    HW230591   6.895   4.400   7.071  1.4974 -0.7783 -0.9012
 8167SOL     OW30592   1.218   3.472   3.525  0.3366 -0.4172  0.3727
 8167SOL    HW130593   1.132   3.440   3.498  0.0275  0.5580  0.1487
 8167SOL    HW230594   1.235   3.427   3.608 -0.3244 -0.7333  0.3472
 8168SOL     OW30595   6.462   4.584   0.747 -0.0510 -0.6034 -0.9952
 8168SOL    HW130596   6.486   4.539   0.828  0.8621  0.4227 -0.6678
 8168SOL    HW230597   6.539   4.575   0.690  0.9712  2.1003 -0.2070
 8169SOL     OW30598   2.412   1.667   1.476 -0.2679 -0.3019  0.2225
 8169SOL    HW130599   2.428   1.600   1.542  0.6435 -1.2713 -0.9382
 8169SOL    HW230600   2.317   1.664   1.461 -0.3596 -0.6581  0.8611
 8170SOL     OW30601   8.087   8.347   5.415 -0.4309  0.4996 -0.5712
 8170SOL    HW130602   8.021   8.278   5.404  0.6790 -0.6422 -0.2875
 8170SOL    HW230603   8.141   8.341   5.337  1.7971 -1.3605  0.9854
 8171SOL     OW30604   8.197   6.891   0.604 -0.1729  0.1182 -0.4486
 8171SOL    HW130605   8.227   6.856   0.520 -0.6757  1.5169 -1.2426
 8171SOL    HW230606   8.122   6.945   0.582  1.8757  3.5768  0.3142
 8172SOL     OW30607   9.055   9.268   8.249 -0.1587  0.0894  0.0779
 8172SOL    HW130608   9.100   9.246   8.166  1.6175  2.6592  0.2499
 8172SOL    HW230609   9.013   9.352   8.232 -1.9074 -0.5476  1.0807
 8173SOL     OW30610   3.219   7.360   7.342  0.3225 -0.5570 -0.5946
 8173SOL    HW130611   3.202   7.268   7.363 -0.2382 -0.4054 -0.3783
 8173SOL    HW230612   3.244   7.400   7.425 -0.3585 -0.3108 -0.4981
 8174SOL     OW30613   7.118   2.323   8.250  0.6807  0.2510  0.3810
 8174SOL    HW130614   7.163   2.385   8.193  2.7028 -2.0869 -0.7606
 8174SOL    HW230615   7.150   2.343   8.338 -0.9556  2.6050  0.5533
 8175SOL     OW30616   5.620   1.109   0.809  0.5732  0.1852 -0.3699
 8175SOL    HW130617   5.607   1.195   0.849 -0.9434  0.6707 -1.8299
 8175SOL    HW230618   5.534   1.067   0.813  1.3957 -1.5245  0.7968
 8176SOL     OW30619   0.375   4.352   6.889 -0.1129  0.2385  0.0464
 8176SOL    HW130620   0.332   4.410   6.825  1.1257 -0.1917 -1.2224
 8176SOL    HW230621   0.339   4.265   6.871 -1.4969  0.4530  1.5294
 8177SOL     OW30622   7.364   7.224   9.133  0.0506 -0.3740  0.5506
 8177SOL    HW130623   7.281   7.234   9.087  1.1827 -0.3033 -1.6078
 8177SOL    HW230624   7.372   7.305   9.185 -0.8589 -0.0334  0.1815
 8178SOL     OW30625   0.239   2.145   1.597 -0.9045 -0.5466  0.1484
 8178SOL    HW130626   0.162   2.133   1.541 -1.8400  0.1425  1.2467
 8178SOL    HW230627   0.256   2.058   1.633 -0.6060 -0.8881 -0.7838
 8179SOL     OW30628   8.501   8.025   7.166  0.2986  0.6000  0.4632
 8179SOL    HW130629   8.413   8.025   7.204  0.1252 -0.4025  0.0934
 8179SOL    HW230630   8.494   8.083   7.090  0.4357  1.9419  1.4247
 8180SOL     OW30631   7.364  10.420   3.684 -0.4048  0.1703  0.3194
 8180SOL    HW130632   7.445  10.371   3.666 -1.3854 -1.9849  1.4065
 8180SOL    HW230633   7.371  10.498   3.628  0.5380 -1.9246 -2.7932
 8181SOL     OW30634   2.447   7.487   8.241  0.4772 -0.2266 -0.0344
 8181SOL    HW130635   2.419   7.518   8.155 -0.6454 -0.1617  0.3429
 8181SOL    HW230636   2.368   7.452   8.282  1.4509 -2.6428 -0.0160
 8182SOL     OW30637   1.144   9.716   1.379 -0.1339  0.4427  0.5255
 8182SOL    HW130638   1.164   9.710   1.286 -0.2331  1.2327  0.4441
 8182SOL    HW230639   1.084   9.643   1.395  0.5879 -0.2439  0.1733
 8183SOL     OW30640   2.546   2.532   5.468 -0.1054  0.2285 -0.3141
 8183SOL    HW130641   2.539   2.517   5.374 -0.1151  3.2808 -0.9186
 8183SOL    HW230642   2.630   2.493   5.492 -0.7924 -1.9518 -1.2038
 8184SOL     OW30643   2.968   8.456   8.054 -0.0910 -0.1705  0.1245
 8184SOL    HW130644   3.029   8.526   8.076 -0.3173  0.5024 -1.2323
 8184SOL    HW230645   2.965   8.456   7.958 -2.5357  0.1380  0.1279
 8185SOL     OW30646   8.953   0.159   7.438  0.1057 -0.5150  1.0734
 8185SOL    HW130647   8.866   0.189   7.465 -0.6127 -1.4739 -0.0956
 8185SOL    HW230648   8.974   0.213   7.362 -0.4703 -1.7953 -0.0222
 8186SOL     OW30649   4.365   4.134   7.462  0.1664  0.2667  0.4103
 8186SOL    HW130650   4.425   4.123   7.388  0.2999 -1.3583  0.7236
 8186SOL    HW230651   4.310   4.209   7.438  2.0276  1.5691 -0.0736
 8187SOL     OW30652   4.449   4.603   4.041 -0.1108 -0.6521  0.0634
 8187SOL    HW130653   4.399   4.645   3.971  0.6838  0.2546  0.0330
 8187SOL    HW230654   4.382   4.580   4.106 -0.8483 -1.4386 -0.9306
 8188SOL     OW30655   3.577   1.605   8.296 -0.1974  0.7053 -0.3588
 8188SOL    HW130656   3.647   1.568   8.349 -1.1096  0.7031  0.8729
 8188SOL    HW230657   3.531   1.530   8.259  0.1191  0.6978 -0.7446
 8189SOL     OW30658   2.196   4.215   2.759  0.3836  0.2860 -0.3293
 8189SOL    HW130659   2.281   4.217   2.803  0.6428 -0.5592 -0.7636
 8189SOL    HW230660   2.206   4.148   2.691 -0.9526 -0.5713  0.2787
 8190SOL     OW30661  10.146   4.170   0.261  0.4602  0.0082  0.5492
 8190SOL    HW130662  10.173   4.241   0.203  2.5144 -0.6346  0.6072
 8190SOL    HW230663  10.183   4.091   0.220  1.6583 -0.5085  2.5041
 8191SOL     OW30664   7.023   1.936   0.026 -0.0792  0.4412 -0.0728
 8191SOL    HW130665   7.057   1.932   0.115 -0.5188 -0.6041  0.0591
 8191SOL    HW230666   6.966   1.860   0.018  0.1156  0.3980 -1.3147
 8192SOL     OW30667   9.213   1.630   2.194 -0.0074  0.0725 -0.8018
 8192SOL    HW130668   9.153   1.628   2.119  1.4154 -0.7196 -1.9717
 8192SOL    HW230669   9.299   1.610   2.157  0.4224 -2.6936  1.3427
 8193SOL     OW30670  10.857   3.926   6.048 -0.6339  0.4005  0.1556
 8193SOL    HW130671  10.806   3.905   6.127 -0.7477  1.6963  0.4555
 8193SOL    HW230672  10.791   3.936   5.979 -0.5845 -0.1929  0.0238
 8194SOL     OW30673   1.808   9.061   9.510  0.1803 -0.0763 -0.4645
 8194SOL    HW130674   1.766   9.038   9.593  1.0698 -0.7001 -0.1623
 8194SOL    HW230675   1.796   9.155   9.502 -0.5407 -0.1227  0.0158
 8195SOL     OW30676   8.700   7.907   9.127  0.2864 -0.0793 -0.0366
 8195SOL    HW130677   8.752   7.955   9.062  0.5759 -0.0528  0.2133
 8195SOL    HW230678   8.752   7.912   9.207  0.3063 -0.8082 -0.0065
 8196SOL     OW30679   8.591   9.639   3.032  0.7342 -0.1391 -0.7634
 8196SOL    HW130680   8.674   9.624   2.988 -0.3895 -1.1725 -2.6425
 8196SOL    HW230681   8.542   9.695   2.972 -0.1557  0.0014  0.0646
 8197SOL     OW30682   3.193   9.913   0.827 -0.1296  0.3537 -0.0081
 8197SOL    HW130683   3.182   9.989   0.769 -0.8447  0.4660  0.2565
 8197SOL    HW230684   3.105   9.876   0.835 -0.3746  1.2467  2.2129
 8198SOL     OW30685   7.693   9.276   9.035 -0.0505  0.0804 -0.4452
 8198SOL    HW130686   7.627   9.208   9.022  0.1760 -0.5555  1.5054
 8198SOL    HW230687   7.642   9.355   9.052 -0.3110 -0.1347 -0.2210
 8199SOL     OW30688   8.837   4.438   7.343 -0.0441  0.5081 -0.0578
 8199SOL    HW130689   8.929   4.452   7.320 -0.2414  1.3305 -0.3947
 8199SOL    HW230690   8.818   4.507   7.406  0.0672 -0.7948  1.4688
 8200SOL     OW30691   1.067   2.594   0.046 -0.3254 -0.1706  0.2735
 8200SOL    HW130692   0.984   2.567   0.087  0.6736 -0.7080  2.0641
 8200SOL    HW230693   1.041   2.661  -0.017 -1.9866  1.0173  2.0741
 8201SOL     OW30694   5.804   8.268   0.869  0.1951 -0.1386 -0.0940
 8201SOL    HW130695   5.722   8.305   0.838 -0.5578 -2.2505 -0.8362
 8201SOL    HW230696   5.872   8.319   0.824 -0.7589  0.6450 -0.6724
 8202SOL     OW30697   6.607   4.241   7.132  0.3786 -0.2163 -0.5776
 8202SOL    HW130698   6.616   4.336   7.119  3.7917 -0.1128  1.3366
 8202SOL    HW230699   6.578   4.233   7.223 -0.0765 -1.0093 -0.7904
 8203SOL     OW30700   2.614   4.403   9.671  0.5068 -0.4373 -0.3901
 8203SOL    HW130701   2.566   4.336   9.719 -0.8911  0.0819 -1.0097
 8203SOL    HW230702   2.611   4.374   9.580  2.0330 -0.7588 -0.3700
 8204SOL     OW30703   9.552   1.620   9.499 -0.1372  0.4882  0.0672
 8204SOL    HW130704   9.522   1.624   9.408  1.3408  1.9550 -0.3945
 8204SOL    HW230705   9.563   1.712   9.525 -2.1556  0.2016  2.3339
 8205SOL     OW30706   6.045   5.639   0.429  0.0598 -0.0346  0.1694
 8205SOL    HW130707   6.004   5.675   0.350  2.5022  0.3271 -1.0413
 8205SOL    HW230708   6.043   5.544   0.415 -2.3056 -0.2151  1.2294
 8206SOL     OW30709   2.225   2.345   1.875 -0.1784 -0.1654  0.2793
 8206SOL    HW130710   2.145   2.346   1.822 -1.4038  0.1753  2.0416
 8206SOL    HW230711   2.245   2.437   1.890 -0.2348 -0.2588  0.9492
 8207SOL     OW30712  10.880  10.753   8.092 -0.3674  0.1071 -0.3251
 8207SOL    HW130713  10.853  10.769   8.002 -0.3904  0.1530 -0.3104
 8207SOL    HW230714  10.966  10.710   8.084  0.0842  1.0023 -0.3485
 8208SOL     OW30715   9.721   2.783   6.678  0.3514  0.1457 -0.5634
 8208SOL    HW130716   9.775   2.747   6.749  0.6262  0.9101 -0.3768
 8208SOL    HW230717   9.642   2.814   6.721 -2.1954 -4.4637 -1.2284
 8209SOL     OW30718   9.839   8.043   5.042  0.1257 -0.1656 -0.5503
 8209SOL    HW130719   9.843   8.138   5.049 -0.3318 -0.1961  0.2654
 8209SOL    HW230720   9.746   8.023   5.045  0.2687 -0.7210  0.6567
 8210SOL     OW30721   9.865   1.174   8.155  0.0454 -0.2400  0.3232
 8210SOL    HW130722   9.827   1.252   8.113 -1.4065  0.0296  2.0162
 8210SOL    HW230723   9.954   1.199   8.178 -0.6937  1.3171  1.6962
 8211SOL     OW30724   0.231   6.289   7.778  0.6317  0.0278  0.5940
 8211SOL    HW130725   0.140   6.314   7.792  0.4248 -1.4319  2.0907
 8211SOL    HW230726   0.226   6.205   7.733  1.2921  0.5847 -0.5889
 8212SOL     OW30727   1.016   3.689   3.335 -0.2340  0.6197 -0.2431
 8212SOL    HW130728   0.969   3.727   3.409 -0.0088  0.4657 -0.0205
 8212SOL    HW230729   0.957   3.620   3.302 -1.4721  2.3185 -1.7874
 8213SOL     OW30730   1.932   3.762   8.092 -0.3623 -0.5857 -0.2582
 8213SOL    HW130731   1.849   3.719   8.070  0.1130 -1.6232 -0.1137
 8213SOL    HW230732   1.996   3.691   8.091  0.7615  0.3924 -1.5721
 8214SOL     OW30733   6.464   6.039   5.006  0.1102  0.1204  0.3213
 8214SOL    HW130734   6.515   6.062   4.929 -0.4111  0.6621  0.1332
 8214SOL    HW230735   6.447   6.122   5.051 -1.3314  0.0735 -0.0810
 8215SOL     OW30736   4.610   6.173   0.100  0.2535  0.8899  0.0223
 8215SOL    HW130737   4.590   6.079   0.100  2.1242  0.4276 -1.5879
 8215SOL    HW230738   4.701   6.178   0.129  0.3314  2.1594 -0.4022
 8216SOL     OW30739   5.549   5.040   5.600  0.3695 -0.2239 -0.4632
 8216SOL    HW130740   5.527   4.947   5.587 -0.4820 -0.3919  1.7103
 8216SOL    HW230741   5.539   5.079   5.513 -0.3953 -1.9520 -1.2101
 8217SOL     OW30742   5.090   8.497   7.095  0.5290 -0.6262  0.1235
 8217SOL    HW130743   5.036   8.425   7.064  0.0963 -0.5023  0.5822
 8217SOL    HW230744   5.035   8.543   7.158  1.4089 -0.9149  1.1339
 8218SOL     OW30745   5.816   0.616   0.828  0.2104  0.2916  0.2196
 8218SOL    HW130746   5.764   0.647   0.754  0.3102 -1.4813 -0.6552
 8218SOL    HW230747   5.778   0.660   0.904 -3.7782 -2.0208 -0.1175
 8219SOL     OW30748   5.859   7.699   3.672  0.9381 -0.3949  0.7938
 8219SOL    HW130749   5.947   7.735   3.675  0.2160  1.4134  2.0489
 8219SOL    HW230750   5.858   7.632   3.741  0.8984  0.7283  1.9137
 8220SOL     OW30751   6.365   6.557   5.132  0.1746  0.3831  0.0520
 8220SOL    HW130752   6.346   6.587   5.044 -0.4090  0.1913  0.1104
 8220SOL    HW230753   6.388   6.637   5.180  0.8785  0.4407 -0.3620
 8221SOL     OW30754   2.549   7.272   0.880  0.2299 -0.4036  0.7108
 8221SOL    HW130755   2.518   7.323   0.955 -1.6458  1.3331 -1.1117
 8221SOL    HW230756   2.630   7.315   0.853 -0.5495  0.7221  0.1027
 8222SOL     OW30757   0.658   4.968  10.784 -0.6323  0.2566  0.3730
 8222SOL    HW130758   0.720   4.937  10.850  0.2455  2.0044  0.4289
 8222SOL    HW230759   0.601   4.893  10.768  0.4333 -0.8691  1.5727
 8223SOL     OW30760   3.863   7.419   1.630 -0.7600  0.3136  0.1527
 8223SOL    HW130761   3.790   7.359   1.621 -2.6172  1.7794  3.4549
 8223SOL    HW230762   3.933   7.366   1.669 -1.7727 -0.1689  1.4123
 8224SOL     OW30763   2.048   2.113   1.149 -0.0228 -0.2544 -0.5532
 8224SOL    HW130764   2.132   2.101   1.104  0.3615  0.3839 -0.0160
 8224SOL    HW230765   2.059   2.193   1.200 -2.0235  1.6656 -2.9148
 8225SOL     OW30766   6.310   9.576   7.482  0.4167  0.2639 -1.0409
 8225SOL    HW130767   6.317   9.648   7.419  0.2863 -1.1155 -2.7111
 8225SOL    HW230768   6.397   9.573   7.523  0.2159  1.7763 -0.4360
 8226SOL     OW30769   0.065   8.730   5.682  0.4486 -0.8171 -0.3805
 8226SOL    HW130770  -0.000   8.800   5.673 -1.2354 -2.1227  0.9117
 8226SOL    HW230771   0.015   8.649   5.674  1.9662 -1.8842  0.3409
 8227SOL     OW30772   1.275   5.618   7.648  0.2072 -0.2059  0.2539
 8227SOL    HW130773   1.211   5.549   7.667 -1.1116  0.7941 -0.4386
 8227SOL    HW230774   1.273   5.675   7.725  0.8664 -0.5854  0.5677
 8228SOL     OW30775  10.870   0.453   1.112  0.8463 -0.1303  0.1163
 8228SOL    HW130776  10.895   0.540   1.143 -0.1975  0.1108  0.3056
 8228SOL    HW230777  10.885   0.455   1.018  1.0778  0.1624  0.1586
 8229SOL     OW30778   9.852   3.125   3.418  0.5024  0.5375 -0.2124
 8229SOL    HW130779   9.758   3.111   3.409  0.6173 -1.2925  1.0048
 8229SOL    HW230780   9.883   3.050   3.469  2.5944  1.2052 -0.4097
 8230SOL     OW30781   5.581   7.182   5.984  0.6643  0.3285  0.5453
 8230SOL    HW130782   5.630   7.195   6.065  2.7599 -0.2597 -0.5525
 8230SOL    HW230783   5.532   7.101   5.999  0.2044  0.7687  1.5601
 8231SOL     OW30784  10.624   1.600   9.878 -0.2633  0.4890  0.2151
 8231SOL    HW130785  10.550   1.656   9.902 -0.3864  0.2009  0.5134
 8231SOL    HW230786  10.685   1.608   9.951 -0.5797 -0.2837  0.5717
 8232SOL     OW30787   6.583   9.151   5.853  0.3363 -0.0302 -0.3719
 8232SOL    HW130788   6.573   9.115   5.942 -0.3481  0.2993 -0.3128
 8232SOL    HW230789   6.646   9.223   5.863 -0.1668  0.3683 -0.0527
 8233SOL     OW30790   7.595   1.186   7.275 -0.0678  0.1702  0.1382
 8233SOL    HW130791   7.675   1.173   7.326  0.6302 -0.0598 -0.9863
 8233SOL    HW230792   7.618   1.253   7.211 -0.5909 -0.3251 -0.5818
 8234SOL     OW30793   0.321   5.687   1.771  0.4671 -0.0058 -0.2512
 8234SOL    HW130794   0.344   5.645   1.854  1.8315  0.4922 -0.3440
 8234SOL    HW230795   0.231   5.660   1.755 -0.5885  1.4955  2.3986
 8235SOL     OW30796   0.109   8.192   7.854  0.1442  0.2722 -0.3107
 8235SOL    HW130797   0.079   8.169   7.942  0.1644 -0.6833 -0.5428
 8235SOL    HW230798   0.047   8.149   7.795  0.3762  0.5481 -0.7622
 8236SOL     OW30799   9.484   8.190   9.892 -0.4002 -0.8195  0.9098
 8236SOL    HW130800   9.432   8.127   9.941 -0.1280 -0.8245  1.1998
 8236SOL    HW230801   9.574   8.171   9.919 -0.2217 -1.0304  0.1664
 8237SOL     OW30802   9.322   0.506   3.749 -0.0144  0.4260  0.0764
 8237SOL    HW130803   9.316   0.446   3.675 -0.4279  2.1786 -1.3712
 8237SOL    HW230804   9.231   0.528   3.770  0.1361  0.6686  0.4887
 8238SOL     OW30805   9.803   8.611   7.274  0.1930  0.1414 -0.1122
 8238SOL    HW130806   9.786   8.530   7.323 -0.4907  0.3845  0.0641
 8238SOL    HW230807   9.825   8.676   7.341  1.0300  0.0380 -0.2772
 8239SOL     OW30808   6.747   7.725   9.106  0.3398  0.0444  0.4082
 8239SOL    HW130809   6.781   7.815   9.102  1.9188 -0.4532  1.6490
 8239SOL    HW230810   6.663   7.729   9.059  0.9764  1.8703 -0.6947
 8240SOL     OW30811   1.786   2.118   3.115  0.3111 -0.1294 -0.0134
 8240SOL    HW130812   1.806   2.030   3.148  2.2883  0.4268  0.3439
 8240SOL    HW230813   1.829   2.122   3.030  0.6093  0.6447  0.1686
 8241SOL     OW30814   1.574   8.755   0.155  0.0058  0.0065  0.2275
 8241SOL    HW130815   1.658   8.722   0.187  1.4655  3.2939  0.2515
 8241SOL    HW230816   1.517   8.753   0.232  0.0738 -2.0135  0.2772
 8242SOL     OW30817   2.874   9.594   5.413 -0.0600  0.1940 -0.3800
 8242SOL    HW130818   2.970   9.591   5.406  0.0198 -2.4544  0.8840
 8242SOL    HW230819   2.856   9.680   5.451  1.7469  1.0184 -1.2508
 8243SOL     OW30820   0.419   8.591   3.626  0.3729  0.0541  0.0794
 8243SOL    HW130821   0.462   8.649   3.564 -0.8163  1.1840  0.2606
 8243SOL    HW230822   0.482   8.579   3.697  0.2767  2.0013  0.5518
 8244SOL     OW30823   7.038   8.316   5.836 -1.0537 -0.1990 -0.3401
 8244SOL    HW130824   7.110   8.354   5.785 -0.3148  0.1873  0.9402
 8244SOL    HW230825   7.082   8.258   5.898 -1.8772 -0.1301  0.3155
 8245SOL     OW30826   7.213  10.552   7.993  0.1258 -0.1705  0.1146
 8245SOL    HW130827   7.169  10.476   7.956 -0.4048 -0.0488  0.4821
 8245SOL    HW230828   7.178  10.626   7.945  0.3861 -0.1250 -0.0069
 8246SOL     OW30829   8.366   2.065   6.863 -0.1652 -0.2664 -0.0148
 8246SOL    HW130830   8.356   2.014   6.782 -2.1554  2.7350 -1.8501
 8246SOL    HW230831   8.303   2.026   6.924 -1.3573 -0.2939 -1.2192
 8247SOL     OW30832   1.605   2.511   9.193 -0.1487 -0.5905  0.2791
 8247SOL    HW130833   1.590   2.585   9.134  1.1530 -1.5758 -1.3728
 8247SOL    HW230834   1.661   2.547   9.261 -0.7617  0.3047  0.3364
 8248SOL     OW30835   4.186   9.684  10.319  0.3783  0.5151  0.2626
 8248SOL    HW130836   4.119   9.624  10.351 -0.5133  1.0086 -0.6393
 8248SOL    HW230837   4.143   9.733  10.249  1.7171  0.7489 -0.4296
 8249SOL     OW30838  10.309   4.736   7.042  0.2316  0.0133  0.0294
 8249SOL    HW130839  10.320   4.642   7.054 -1.8393 -0.2966 -0.2345
 8249SOL    HW230840  10.344   4.775   7.123  1.0645 -0.9609  0.1547
 8250SOL     OW30841   9.707   5.618   0.290 -0.9846 -0.2654  0.7969
 8250SOL    HW130842   9.801   5.629   0.300 -1.2285  0.9919  1.8348
 8250SOL    HW230843   9.678   5.696   0.243 -1.3792 -1.1980 -0.6072
 8251SOL     OW30844   9.920   6.147   0.038 -0.2591  0.5588 -0.3121
 8251SOL    HW130845   9.837   6.194   0.027 -0.4694 -0.2053 -2.4820
 8251SOL    HW230846   9.927   6.093  -0.040  0.0260 -2.9862  1.9554
 8252SOL     OW30847   6.297   3.214   6.196  0.4133  0.1141  0.0876
 8252SOL    HW130848   6.364   3.167   6.146  0.6068  0.6822 -0.1893
 8252SOL    HW230849   6.218   3.208   6.143 -0.1370 -1.7137  1.0230
 8253SOL     OW30850   7.702   9.874   0.652  0.3877  0.5204  0.2150
 8253SOL    HW130851   7.642   9.802   0.671 -0.2605  1.0243  0.0927
 8253SOL    HW230852   7.718   9.915   0.737  1.3254 -0.1894  0.4026
 8254SOL     OW30853   1.133   7.722   7.259  0.3712 -0.4390  0.3950
 8254SOL    HW130854   1.063   7.747   7.200  1.0379 -0.5884 -0.4818
 8254SOL    HW230855   1.116   7.771   7.339 -0.5190 -0.1968  0.0602
 8255SOL     OW30856   0.883   2.563   5.875  0.0817  0.2785  0.6290
 8255SOL    HW130857   0.951   2.601   5.932  0.2133  2.3898 -0.8221
 8255SOL    HW230858   0.894   2.469   5.885  1.5863  0.5628  2.3356
 8256SOL     OW30859   8.368   7.203   6.963  0.1098  0.2301  0.5138
 8256SOL    HW130860   8.409   7.250   7.036  0.4438 -0.4594  0.7703
 8256SOL    HW230861   8.392   7.255   6.886  0.2162  0.6550  0.8257
 8257SOL     OW30862   3.935   6.418   1.794  0.1584  0.2609 -0.2682
 8257SOL    HW130863   3.906   6.493   1.742  0.5715  0.3535 -0.3732
 8257SOL    HW230864   4.022   6.397   1.759 -0.9438 -1.8706 -1.9387
 8258SOL     OW30865   7.867   0.591   8.729 -0.8040 -0.1396  0.0862
 8258SOL    HW130866   7.916   0.546   8.798  0.3232 -0.2834 -0.7614
 8258SOL    HW230867   7.775   0.571   8.747 -0.4216 -1.6548  0.5153
 8259SOL     OW30868   1.049   5.045   0.185 -0.0472  0.3293 -0.0290
 8259SOL    HW130869   1.067   5.137   0.207  3.7316  1.0031 -4.4079
 8259SOL    HW230870   1.101   4.995   0.247 -0.9619  1.1085  1.4493
 8260SOL     OW30871   0.838   9.028   6.167  0.1896 -0.2876  0.7699
 8260SOL    HW130872   0.902   8.967   6.130  0.7643  0.6122  0.2379
 8260SOL    HW230873   0.885   9.110   6.175 -1.2858  0.8351 -1.0906
 8261SOL     OW30874   8.020   8.454   1.681  0.2306  0.0928  0.5159
 8261SOL    HW130875   8.114   8.468   1.684  0.2295  1.0633 -1.7674
 8261SOL    HW230876   8.010   8.372   1.632 -0.1164 -0.1429  0.9759
 8262SOL     OW30877   8.597   0.410  10.641 -0.0843  0.5699  0.6996
 8262SOL    HW130878   8.607   0.498  10.604  1.8982  0.6054  1.2093
 8262SOL    HW230879   8.610   0.351  10.567 -1.7700  0.6654  0.2845
 8263SOL     OW30880   1.732   0.058   3.211  0.1631 -0.2077  0.1810
 8263SOL    HW130881   1.827   0.063   3.209  0.1264  0.7553  0.1994
 8263SOL    HW230882   1.703   0.137   3.165 -0.6101  0.5547  1.8861
 8264SOL     OW30883   5.648   2.672   3.284 -0.4800  0.4389 -0.2686
 8264SOL    HW130884   5.651   2.767   3.288 -1.0113  0.4886 -0.8185
 8264SOL    HW230885   5.716   2.642   3.344 -1.2841  1.1449  1.0353
 8265SOL     OW30886   3.180   6.980   0.187  0.2762  0.0122 -0.2245
 8265SOL    HW130887   3.229   7.054   0.152  0.3712  0.6460  1.1686
 8265SOL    HW230888   3.089   7.007   0.183  0.4325  1.5381  2.9431
 8266SOL     OW30889   8.790  10.312   7.245 -0.2527 -0.0310 -0.2012
 8266SOL    HW130890   8.788  10.407   7.259 -3.4094 -0.1339  0.8389
 8266SOL    HW230891   8.828  10.277   7.326 -1.4849  0.2721  0.5377
 8267SOL     OW30892   1.636   9.411   4.523  0.0289 -0.0328 -0.4416
 8267SOL    HW130893   1.566   9.422   4.459  0.3233 -0.7563 -0.9085
 8267SOL    HW230894   1.701   9.477   4.500 -0.9849  1.4430  0.7198
 8268SOL     OW30895   0.914   7.186   2.591 -0.6170 -0.2230 -0.1046
 8268SOL    HW130896   0.992   7.220   2.548 -1.3771 -0.1067 -1.4748
 8268SOL    HW230897   0.932   7.193   2.684  1.3924 -1.1217 -0.3829
 8269SOL     OW30898   6.460   0.928   7.846 -0.2271  0.5298 -0.3832
 8269SOL    HW130899   6.490   0.890   7.929 -0.2095 -1.5568 -1.2928
 8269SOL    HW230900   6.375   0.887   7.831  0.2688  0.0331 -1.9320
 8270SOL     OW30901   8.853   6.911   5.444  0.0488  0.3519  0.2382
 8270SOL    HW130902   8.767   6.945   5.469 -0.3141  1.3166 -2.1315
 8270SOL    HW230903   8.834   6.839   5.384  0.9202 -0.8962  1.3733
 8271SOL     OW30904   7.879  10.693   4.095  0.3681  0.7202  0.3009
 8271SOL    HW130905   7.869  10.722   4.186  2.0158  1.4666  0.2892
 8271SOL    HW230906   7.863  10.772   4.043  0.2881  0.5047 -0.0052
 8272SOL     OW30907   1.252   3.117   9.192  0.1823 -0.2620  0.0601
 8272SOL    HW130908   1.186   3.168   9.237 -0.1271 -1.2435  0.7531
 8272SOL    HW230909   1.299   3.071   9.261  2.1159  0.9704 -0.3496
 8273SOL     OW30910  10.393   2.953   9.402 -0.0627  0.2347  0.2525
 8273SOL    HW130911  10.391   3.045   9.428  0.4048 -0.3622  2.5843
 8273SOL    HW230912  10.336   2.949   9.324  1.0544  2.7011 -0.7923
 8274SOL     OW30913   2.906   5.510   5.262  0.4465  0.1010  0.2633
 8274SOL    HW130914   2.880   5.602   5.267 -0.4831 -0.0722 -1.0224
 8274SOL    HW230915   2.888   5.476   5.350  1.7094  1.3482  1.0439
 8275SOL     OW30916   4.009   8.951  10.616  0.0073 -0.4386  0.4626
 8275SOL    HW130917   4.096   8.917  10.636  0.1846 -0.9006 -0.9448
 8275SOL    HW230918   3.950   8.878  10.635  0.0239 -0.4280  0.5550
 8276SOL     OW30919  10.684   2.820   1.258 -0.2075  0.3190  0.5482
 8276SOL    HW130920  10.606   2.873   1.240 -0.8587 -1.5998 -3.5491
 8276SOL    HW230921  10.744   2.839   1.186  0.9801 -1.8831  0.8390
 8277SOL     OW30922   1.258   6.705   2.129  0.2893  0.0610 -0.2435
 8277SOL    HW130923   1.182   6.648   2.143  1.5140 -1.8275 -0.8820
 8277SOL    HW230924   1.295   6.718   2.216 -0.9445  1.3292  0.1284
 8278SOL     OW30925   9.626   9.117   5.691  0.4148  0.8789 -0.0382
 8278SOL    HW130926   9.538   9.140   5.659  0.6823  2.0220  0.0006
 8278SOL    HW230927   9.614   9.100   5.784 -0.0215 -0.5096 -0.3220
 8279SOL     OW30928   8.715   8.344   0.275  0.9395  0.8874  0.4277
 8279SOL    HW130929   8.718   8.379   0.364  0.1213  2.6227 -0.1693
 8279SOL    HW230930   8.634   8.380   0.238 -0.1626 -1.9776 -0.1923
 8280SOL     OW30931   6.183   6.680  10.403 -1.0007 -0.2996 -0.2684
 8280SOL    HW130932   6.260   6.704  10.351 -0.2682  0.5787  1.1672
 8280SOL    HW230933   6.121   6.646  10.338  0.5156 -0.8943 -1.4903
 8281SOL     OW30934   2.191   1.075   1.811 -0.0762 -0.0989 -0.1161
 8281SOL    HW130935   2.230   1.107   1.893 -0.2972 -0.2875  0.0626
 8281SOL    HW230936   2.154   0.990   1.834 -0.4434  0.0055 -0.3275
 8282SOL     OW30937   4.653   0.559  10.144 -0.3431  0.5708  0.5186
 8282SOL    HW130938   4.697   0.597  10.068  0.0976  0.1668  0.5632
 8282SOL    HW230939   4.713   0.576  10.217 -1.7414  2.8764  1.2052
 8283SOL     OW30940   8.888   2.179   0.064  0.2553  0.0938  0.2407
 8283SOL    HW130941   8.937   2.097   0.064 -0.2703 -0.2179  0.1386
 8283SOL    HW230942   8.872   2.198   0.156  0.3812  0.0845  0.2648
 8284SOL     OW30943   1.747  10.432   1.711 -0.4711 -0.4752  0.3680
 8284SOL    HW130944   1.720  10.440   1.802  1.4205 -0.1419  0.9490
 8284SOL    HW230945   1.692  10.494   1.664 -2.1957 -1.3871  1.0664
 8285SOL     OW30946   3.415   1.564   1.219  0.0476 -0.3306 -0.6682
 8285SOL    HW130947   3.334   1.608   1.192  0.4463  0.7452 -0.1723
 8285SOL    HW230948   3.427   1.495   1.155 -1.2989 -0.5449 -0.7213
 8286SOL     OW30949   0.031   9.300   3.598 -0.2749 -0.9097  0.1452
 8286SOL    HW130950  -0.047   9.245   3.597  0.1598 -1.5376 -0.3516
 8286SOL    HW230951   0.098   9.245   3.639 -0.4520  0.1443  1.9410
 8287SOL     OW30952   5.342   6.771   0.994  0.3331 -0.1259  0.1400
 8287SOL    HW130953   5.336   6.705   1.063  2.2313  0.7568  1.2472
 8287SOL    HW230954   5.415   6.742   0.939 -0.9045 -0.6076 -1.2997
 8288SOL     OW30955   0.383   9.672  10.826  0.2732  0.2798  0.0697
 8288SOL    HW130956   0.335   9.590  10.818 -0.4113  0.8565 -2.4175
 8288SOL    HW230957   0.338   9.719  10.897 -0.1349 -0.9304  0.6340
 8289SOL     OW30958   8.390   9.168   1.412 -0.1027 -0.2985  0.3497
 8289SOL    HW130959   8.331   9.129   1.477 -1.1393 -0.4125 -0.6241
 8289SOL    HW230960   8.460   9.103   1.401 -0.6383 -0.8941  0.3746
 8290SOL     OW30961   4.442   2.279   3.697 -0.1427 -0.0961 -0.1323
 8290SOL    HW130962   4.458   2.315   3.785  0.1150  2.4903 -1.1449
 8290SOL    HW230963   4.355   2.241   3.702 -0.6698  1.1743  0.9417
 8291SOL     OW30964  10.742   6.252   8.068 -0.0790 -0.0772 -0.2456
 8291SOL    HW130965  10.649   6.229   8.066  0.2746 -1.8743  1.0233
 8291SOL    HW230966  10.787   6.173   8.036  1.1273 -0.4788  2.2002
 8292SOL     OW30967   3.413   5.649   2.805 -0.1438  0.4424  0.6159
 8292SOL    HW130968   3.357   5.719   2.773 -1.6796 -0.8927  0.2605
 8292SOL    HW230969   3.465   5.624   2.728 -0.4496  0.4019  0.4201
 8293SOL     OW30970   5.699   2.299   8.251  0.2593  0.2661  0.1536
 8293SOL    HW130971   5.629   2.267   8.194 -0.4622 -0.2210  1.2732
 8293SOL    HW230972   5.724   2.383   8.213  1.6914 -1.2130 -2.4348
 8294SOL     OW30973   5.999   4.449   4.916  0.0652 -0.0911  0.6834
 8294SOL    HW130974   6.078   4.418   4.961 -0.3228 -1.2909  0.5735
 8294SOL    HW230975   5.935   4.462   4.986  0.2764  0.6658  0.7477
 8295SOL     OW30976   4.058   8.764   9.666 -0.7102 -0.5340  0.1021
 8295SOL    HW130977   4.068   8.741   9.574 -3.1597 -0.6798 -0.1919
 8295SOL    HW230978   3.973   8.808   9.671  0.0057  0.7870  2.0732
 8296SOL     OW30979   4.945   2.401   7.080  0.0774  0.4405  0.3657
 8296SOL    HW130980   4.962   2.387   7.173 -0.0036  0.7015  0.4205
 8296SOL    HW230981   5.012   2.350   7.036 -0.0742  0.0617  0.5626
 8297SOL     OW30982   3.453   0.266   3.061  0.4584 -0.3835 -0.1009
 8297SOL    HW130983   3.359   0.281   3.048 -0.0499 -1.2956  2.0294
 8297SOL    HW230984   3.483   0.229   2.978 -1.8050 -3.0395  0.1225
 8298SOL     OW30985   4.240  10.132   8.899  0.1980 -0.1505  0.3635
 8298SOL    HW130986   4.329  10.157   8.922  0.2111  0.2803 -0.1402
 8298SOL    HW230987   4.250  10.047   8.855  0.3850 -0.0244  0.1584
 8299SOL     OW30988  10.402   0.760   1.504 -0.1768 -0.0892 -0.0816
 8299SOL    HW130989  10.433   0.684   1.455  0.2472 -0.9575  1.4815
 8299SOL    HW230990  10.306   0.754   1.497 -0.1347 -0.4954 -0.3851
 8300SOL     OW30991   1.287   7.004   0.481 -0.5490  0.3146 -0.3893
 8300SOL    HW130992   1.320   7.071   0.421  3.1301  2.2952  3.3073
 8300SOL    HW230993   1.361   6.946   0.496 -1.3201 -0.1892  1.9893
 8301SOL     OW30994   5.301  10.772   5.295 -0.4711 -0.4599  0.1052
 8301SOL    HW130995   5.282  10.863   5.319  0.1267 -0.5506  0.9888
 8301SOL    HW230996   5.237  10.750   5.228 -1.1319  0.3680  0.4546
 8302SOL     OW30997   9.591   3.898   0.507 -0.3505  0.6302 -0.2826
 8302SOL    HW130998   9.542   3.852   0.575  0.3049 -0.5171 -0.5535
 8302SOL    HW230999   9.660   3.945   0.554 -0.3352  0.4101 -0.0837
 8303SOL     OW31000   8.442   5.836   8.547 -0.1456 -0.7735 -0.2382
 8303SOL    HW131001   8.464   5.796   8.463  1.5260  0.6934 -0.5624
 8303SOL    HW231002   8.365   5.889   8.529  1.1921  0.9246 -1.3791
 8304SOL     OW31003   0.779   3.251   8.705 -0.6304 -0.4856  0.5370
 8304SOL    HW131004   0.739   3.164   8.706  0.9458 -1.2516  1.3046
 8304SOL    HW231005   0.835   3.252   8.783 -0.3766  1.1083  0.3555
 8305SOL     OW31006   1.791   9.420   8.474 -0.0009 -0.1751 -0.2505
 8305SOL    HW131007   1.857   9.388   8.412  0.2572  1.2576 -0.7531
 8305SOL    HW231008   1.707   9.397   8.434  0.1771 -0.7443 -0.3024
 8306SOL     OW31009   8.780   7.974   7.168 -0.1496  0.3183 -0.1579
 8306SOL    HW131010   8.686   7.959   7.174 -0.1451  0.6167  0.7107
 8306SOL    HW231011   8.789   8.062   7.133 -0.1769 -0.2126 -1.5688
 8307SOL     OW31012   9.348   2.327   2.023  0.2642  0.5346  0.4390
 8307SOL    HW131013   9.394   2.337   2.107  0.2517  0.0501  0.5071
 8307SOL    HW231014   9.258   2.351   2.042  0.6138  2.2076  0.1381
 8308SOL     OW31015   7.624   6.510   3.331  0.3939  0.4051 -0.4096
 8308SOL    HW131016   7.620   6.509   3.427  2.2215 -0.7566 -0.2881
 8308SOL    HW231017   7.637   6.419   3.307 -2.1226  0.3745 -1.9508
 8309SOL     OW31018   6.095   0.024   7.492  0.7864  0.0685  0.1138
 8309SOL    HW131019   6.060   0.074   7.418 -0.1979 -0.0270  0.4881
 8309SOL    HW231020   6.016  -0.008   7.537  1.3553  0.7879  1.6656
 8310SOL     OW31021   9.533   4.401   4.382 -0.2931  0.8416  0.2797
 8310SOL    HW131022   9.535   4.319   4.332 -1.3638  1.3263 -0.5831
 8310SOL    HW231023   9.441   4.425   4.385  0.1540  3.0082 -1.1414
 8311SOL     OW31024   0.740   0.326  10.505 -0.1389  0.5186  0.1856
 8311SOL    HW131025   0.660   0.376  10.525 -0.6361  0.2396 -1.0215
 8311SOL    HW231026   0.745   0.261  10.575  1.5942  3.3686  2.9607
 8312SOL     OW31027   9.158   5.922   4.895 -0.6995 -0.0234  0.2574
 8312SOL    HW131028   9.226   5.987   4.880  0.0631 -1.0511 -0.9244
 8312SOL    HW231029   9.076   5.971   4.889 -0.1244  0.8963 -0.2842
 8313SOL     OW31030  10.276   7.448   2.380 -0.5674  0.1128 -0.2853
 8313SOL    HW131031  10.257   7.393   2.305 -0.3547 -1.9072  1.0524
 8313SOL    HW231032  10.370   7.435   2.396 -1.0636 -1.5930  1.7959
 8314SOL     OW31033   9.512   4.916   7.511  0.2956 -0.1506 -0.5529
 8314SOL    HW131034   9.564   4.993   7.533 -1.2669  0.2657  2.1221
 8314SOL    HW231035   9.491   4.926   7.418  2.1451  1.3408 -0.8566
 8315SOL     OW31036   7.603   8.318  10.455 -0.1749  0.3812 -0.1151
 8315SOL    HW131037   7.630   8.231  10.486 -1.5887  0.0294  0.1625
 8315SOL    HW231038   7.667   8.378  10.494  1.3372 -0.5902 -1.0058
 8316SOL     OW31039   3.216   4.140   2.334 -0.2585 -0.1469  0.2917
 8316SOL    HW131040   3.215   4.062   2.279 -0.0359 -0.9351  1.3578
 8316SOL    HW231041   3.220   4.214   2.273 -1.7453 -0.9148 -0.7863
 8317SOL     OW31042   6.965   3.219   2.804  0.7561  0.0511  0.2574
 8317SOL    HW131043   6.979   3.256   2.891  1.5938  1.0158 -0.2635
 8317SOL    HW231044   6.957   3.125   2.819  0.3076  0.2590  1.4283
 8318SOL     OW31045   6.117   1.265   1.242 -0.2733 -0.1038  0.2729
 8318SOL    HW131046   6.109   1.251   1.148  1.2611 -0.6829  0.2008
 8318SOL    HW231047   6.134   1.359   1.252  0.6333 -0.2228 -0.1152
 8319SOL     OW31048   0.718   3.885   0.058  0.1429  0.1181 -0.2885
 8319SOL    HW131049   0.794   3.861   0.111 -0.7357 -0.3292  0.8110
 8319SOL    HW231050   0.755   3.924  -0.021  1.5292 -0.7046 -0.0805
 8320SOL     OW31051   4.899   2.902   9.501 -0.1743 -0.0274 -0.4301
 8320SOL    HW131052   4.891   2.974   9.438  1.1052  0.5704  0.0596
 8320SOL    HW231053   4.868   2.939   9.584  0.4330 -0.0510 -0.1883
 8321SOL     OW31054   4.773   4.754   5.883 -0.4552 -0.0450 -0.3957
 8321SOL    HW131055   4.841   4.754   5.950 -0.8190 -0.0900 -0.0281
 8321SOL    HW231056   4.706   4.814   5.915 -0.4807  0.1901 -0.8751
 8322SOL     OW31057   3.677   7.328   4.583  0.7318 -0.0047  0.1302
 8322SOL    HW131058   3.721   7.306   4.666  0.7265  1.6358  0.6134
 8322SOL    HW231059   3.605   7.266   4.577  0.3160  0.2714  1.7222
 8323SOL     OW31060   6.785   5.414   2.629  0.4946  0.2560  0.2210
 8323SOL    HW131061   6.697   5.377   2.630  0.3412  0.5319 -1.2116
 8323SOL    HW231062   6.842   5.340   2.613  0.5132  0.1106  0.9310
 8324SOL     OW31063   4.474   1.678   4.635  0.3055 -0.0938 -0.2533
 8324SOL    HW131064   4.545   1.728   4.677  0.7590 -0.2765 -0.7898
 8324SOL    HW231065   4.518   1.605   4.593 -0.1435  0.0780 -1.0312
 8325SOL     OW31066   8.269   4.909   5.804  0.1886 -0.1397  0.1192
 8325SOL    HW131067   8.357   4.889   5.771  1.1372  3.9512 -0.3909
 8325SOL    HW231068   8.215   4.917   5.726  0.2812  0.8065  0.1337
 8326SOL     OW31069   1.960   7.498   6.926  0.6474 -0.2524 -0.4608
 8326SOL    HW131070   1.895   7.538   6.984 -1.3425 -1.1756 -1.9238
 8326SOL    HW231071   2.002   7.431   6.980 -1.1610 -1.0943 -0.0309
 8327SOL     OW31072  10.821   5.387   6.711  0.6259 -0.1712 -0.5903
 8327SOL    HW131073  10.809   5.293   6.725 -1.7589  0.1360 -0.1394
 8327SOL    HW231074  10.749   5.412   6.652  0.8786  1.4668 -0.2653
 8328SOL     OW31075   3.818   2.147   8.919  0.1343 -0.2879 -0.4888
 8328SOL    HW131076   3.877   2.074   8.937  0.5461  0.5738  2.1007
 8328SOL    HW231077   3.740   2.106   8.883  1.1981 -1.7416 -1.2776
 8329SOL     OW31078   5.137   9.359   0.805 -0.4377  0.4845  0.3465
 8329SOL    HW131079   5.224   9.394   0.785 -0.7107  0.8713 -0.1663
 8329SOL    HW231080   5.096   9.346   0.720 -0.8443  0.1988  0.5841
 8330SOL     OW31081   4.578   4.249   6.916 -0.2927 -0.6212  0.3735
 8330SOL    HW131082   4.625   4.190   6.974 -1.0947 -0.4741  1.1997
 8330SOL    HW231083   4.645   4.312   6.887  1.1180 -3.1509 -2.3263
 8331SOL     OW31084  10.457   4.621   6.259  0.3015 -0.0996  0.2199
 8331SOL    HW131085  10.405   4.604   6.181 -1.5587 -0.9549  1.5683
 8331SOL    HW231086  10.401   4.593   6.332  2.2719 -0.1091  1.8235
 8332SOL     OW31087   9.448   0.153   0.575  0.2568  0.0369  0.2186
 8332SOL    HW131088   9.478   0.241   0.553  0.6058  0.4487  2.1434
 8332SOL    HW231089   9.400   0.164   0.657  1.0068 -1.6868  0.9266
 8333SOL     OW31090   1.404   5.457   2.338 -0.0426 -0.2903 -0.9391
 8333SOL    HW131091   1.430   5.365   2.343 -1.2410 -0.6075  0.2367
 8333SOL    HW231092   1.312   5.454   2.311 -0.7249  0.4058  1.1002
 8334SOL     OW31093   5.248   4.641   4.246  0.6023  0.1055 -0.4627
 8334SOL    HW131094   5.297   4.702   4.190  0.3538  0.7040 -0.0488
 8334SOL    HW231095   5.164   4.685   4.260  0.2462 -0.5540 -0.5282
 8335SOL     OW31096   2.109   8.880   6.895  0.7262 -0.2638 -0.0038
 8335SOL    HW131097   2.034   8.934   6.920  1.0139 -1.0593  3.0064
 8335SOL    HW231098   2.079   8.790   6.905  1.1539 -0.6701 -1.9876
 8336SOL     OW31099   1.651   8.632  10.046  0.4394  0.0524  0.4433
 8336SOL    HW131100   1.557   8.640  10.066  0.5773  1.0376  0.7803
 8336SOL    HW231101   1.681   8.560  10.100 -0.3346 -0.9773 -0.4592
 8337SOL     OW31102   7.582   0.085   0.526 -0.3126  0.1294  0.3452
 8337SOL    HW131103   7.606   0.173   0.554  1.0036 -0.4160  1.0447
 8337SOL    HW231104   7.557   0.040   0.607  3.2944 -1.3946  0.8125
 8338SOL     OW31105   2.942   4.669   8.801  0.3997 -0.0106  0.2503
 8338SOL    HW131106   3.002   4.682   8.874  0.5759  3.1076 -0.3067
 8338SOL    HW231107   2.997   4.635   8.730  0.9649  0.2720  0.5498
 8339SOL     OW31108   0.722   7.924   9.452 -0.1643  0.1610 -0.6355
 8339SOL    HW131109   0.721   7.899   9.360  0.7048 -0.8703 -0.3881
 8339SOL    HW231110   0.638   7.892   9.486 -1.1107  1.7832 -1.3499
 8340SOL     OW31111   8.297  10.577   2.107 -0.1980 -0.0476 -0.1014
 8340SOL    HW131112   8.265  10.654   2.060 -0.9076 -0.6971 -0.7067
 8340SOL    HW231113   8.337  10.612   2.187  1.1819  1.1124 -1.2380
 8341SOL     OW31114   0.012   6.039   7.469 -0.1279  0.4414  0.2873
 8341SOL    HW131115  -0.005   6.111   7.409 -1.3300  0.0355  0.1176
 8341SOL    HW231116   0.070   5.980   7.421 -0.2727  0.6138 -0.1001
 8342SOL     OW31117   0.396   1.609   6.766 -0.2459  0.1982  0.0277
 8342SOL    HW131118   0.398   1.538   6.830 -1.1025  0.0038 -0.1464
 8342SOL    HW231119   0.369   1.567   6.685  2.0620  0.1974 -0.8206
 8343SOL     OW31120   9.100   3.519  10.780  0.3998 -0.3461  0.1906
 8343SOL    HW131121   9.041   3.444  10.772  0.1332  0.0179 -1.5885
 8343SOL    HW231122   9.060   3.588  10.727  0.9598  0.8790  1.2885
 8344SOL     OW31123   4.963   5.335  10.564  0.0610  0.5309  0.0905
 8344SOL    HW131124   5.035   5.367  10.510 -0.2515  0.0720 -0.6145
 8344SOL    HW231125   4.977   5.240  10.571 -1.9791 -0.0680 -2.4669
 8345SOL     OW31126   9.900   0.720  10.396  0.2908  0.0966 -0.0053
 8345SOL    HW131127   9.846   0.651  10.357 -0.5615  1.1944 -0.8667
 8345SOL    HW231128   9.839   0.771  10.449  0.6948  0.7543 -0.1615
 8346SOL     OW31129   6.053   5.106   9.714 -0.5314 -0.1569 -0.0243
 8346SOL    HW131130   5.997   5.039   9.675  1.1346 -1.9003  0.4281
 8346SOL    HW231131   6.134   5.060   9.735  1.2362  2.3194 -0.9697
 8347SOL     OW31132   2.338   3.912   1.430 -0.4100 -0.6126  0.2811
 8347SOL    HW131133   2.328   3.968   1.353 -1.4240 -0.5815  0.4224
 8347SOL    HW231134   2.359   3.826   1.394  1.5463 -0.0995  0.0745
 8348SOL     OW31135   1.855  10.043   1.035 -0.1614  0.0850  0.0461
 8348SOL    HW131136   1.884   9.967   1.087 -2.2140 -1.3687 -0.7715
 8348SOL    HW231137   1.769  10.065   1.072  0.1184  1.6239 -0.1693
 8349SOL     OW31138   7.058   0.349   8.332 -0.6663 -0.4024 -0.0382
 8349SOL    HW131139   7.097   0.262   8.328 -2.3687 -1.2133 -0.1739
 8349SOL    HW231140   7.057   0.371   8.425  2.1525  0.6863 -0.1680
 8350SOL     OW31141   9.427   9.328   1.114  0.0651  0.1650  0.0109
 8350SOL    HW131142   9.516   9.330   1.077  1.2425  0.6535  2.6422
 8350SOL    HW231143   9.388   9.411   1.086  1.9505  1.8766  1.9875
 8351SOL     OW31144   1.770   7.115  10.592  0.6521 -0.0903 -0.0043
 8351SOL    HW131145   1.806   7.160  10.668  0.2558 -2.4505  1.6718
 8351SOL    HW231146   1.838   7.055  10.564  0.3471 -0.0857 -0.7917
 8352SOL     OW31147   5.423   9.552   6.958  0.3331  0.1821 -0.0402
 8352SOL    HW131148   5.472   9.568   7.039 -1.5409  0.9510  1.0114
 8352SOL    HW231149   5.446   9.625   6.901  2.0512 -0.6228 -0.4427
 8353SOL     OW31150   7.572   2.824  10.689  0.2713  0.6740  0.3132
 8353SOL    HW131151   7.597   2.735  10.666  0.7633  0.8713  0.0590
 8353SOL    HW231152   7.589   2.875  10.609  0.8919  1.1628  0.7467
 8354SOL     OW31153   5.689   1.315   6.739 -0.0888 -0.1997  0.4543
 8354SOL    HW131154   5.703   1.227   6.706  0.9422  0.2359 -0.3420
 8354SOL    HW231155   5.654   1.364   6.664  2.4718  0.8543 -0.1531
 8355SOL     OW31156   8.746   3.932   8.887 -0.1240  0.1961  0.9070
 8355SOL    HW131157   8.823   3.886   8.853  0.3128  0.1464  1.9048
 8355SOL    HW231158   8.756   4.022   8.856 -0.7515 -0.2663 -0.6855
 8356SOL     OW31159  10.699   1.267  10.316  0.4848  0.6788  0.2942
 8356SOL    HW131160  10.670   1.178  10.335 -0.1722  0.7156 -0.4652
 8356SOL    HW231161  10.792   1.259  10.296  0.1815 -0.0144 -0.8951
 8357SOL     OW31162   7.613   1.338   4.275  0.1851  0.4901 -0.6602
 8357SOL    HW131163   7.563   1.264   4.309  0.9552  1.0082  1.7632
 8357SOL    HW231164   7.552   1.412   4.277  0.6582  0.8834  1.2874
 8358SOL     OW31165   9.950   8.339   4.190  0.1378 -0.8255 -0.1565
 8358SOL    HW131166   9.921   8.406   4.252 -0.6220 -0.3213 -1.0192
 8358SOL    HW231167   9.912   8.258   4.223  0.8690 -0.7971  0.7709
 8359SOL     OW31168   5.697   5.178   5.015  0.4095  0.6066 -0.3552
 8359SOL    HW131169   5.739   5.139   5.091  2.0126  2.2576 -0.3425
 8359SOL    HW231170   5.637   5.110   4.983 -0.8414  0.0990  2.7465
 8360SOL     OW31171   6.800   8.361   8.690 -0.3444 -0.2911  0.2592
 8360SOL    HW131172   6.882   8.325   8.723 -0.3899 -1.8459 -1.1450
 8360SOL    HW231173   6.824   8.403   8.607 -0.6124  1.3184  0.9717
 8361SOL     OW31174   6.378   0.537   8.321 -0.4486  0.5822 -0.0474
 8361SOL    HW131175   6.330   0.601   8.268  0.0973  0.2420 -0.9887
 8361SOL    HW231176   6.422   0.590   8.388 -2.8883  0.8250  1.5275
 8362SOL     OW31177   4.657  10.812   6.583 -0.1677 -0.0027  0.2779
 8362SOL    HW131178   4.752  10.826   6.583 -0.1156 -0.3233 -0.3140
 8362SOL    HW231179   4.641  10.756   6.659  0.4024 -1.6997 -0.7983
 8363SOL     OW31180   5.572   5.598   6.233  0.4886 -0.4033  0.1169
 8363SOL    HW131181   5.626   5.572   6.307  0.4271  0.0046  0.3076
 8363SOL    HW231182   5.483   5.604   6.268  0.4928 -0.0047  0.0621
 8364SOL     OW31183  10.867   5.990   2.877 -0.1551  0.1489  0.1221
 8364SOL    HW131184  10.832   6.031   2.798  0.8169 -2.5474 -1.8805
 8364SOL    HW231185  10.962   5.989   2.864 -0.1009 -2.6201 -0.0397
 8365SOL     OW31186   2.218   5.108   6.097 -0.8307 -0.0847 -0.1966
 8365SOL    HW131187   2.258   5.041   6.153 -0.4347 -0.9614 -1.4831
 8365SOL    HW231188   2.174   5.167   6.158 -0.5543 -1.0967  1.0282
 8366SOL     OW31189   6.851   1.947   7.455  0.5261  0.6161 -0.4733
 8366SOL    HW131190   6.941   1.976   7.468  0.3445  1.2893 -0.6792
 8366SOL    HW231191   6.856   1.852   7.452  1.6132  0.6768 -3.1044
 8367SOL     OW31192   3.953   3.348   4.612  0.0744 -0.5347  0.1994
 8367SOL    HW131193   4.041   3.329   4.580 -1.0638 -1.1592 -2.8698
 8367SOL    HW231194   3.899   3.277   4.578 -2.1412  1.4521 -0.7567
 8368SOL     OW31195   3.330   6.467   6.070  0.1411 -0.5001  0.2923
 8368SOL    HW131196   3.260   6.506   6.018  0.7594  0.0661 -0.1409
 8368SOL    HW231197   3.364   6.396   6.016  0.1678 -0.5124  0.3249
 8369SOL     OW31198   2.786   1.514   4.496 -0.4951  0.6031  0.1102
 8369SOL    HW131199   2.809   1.423   4.514  1.8437  0.6733 -1.9913
 8369SOL    HW231200   2.742   1.511   4.411 -1.0828  1.3766  0.3698
 8370SOL     OW31201   9.192   7.795   1.895 -0.4883  0.0111  0.1229
 8370SOL    HW131202   9.137   7.727   1.856 -2.4134  1.3735  0.3444
 8370SOL    HW231203   9.159   7.803   1.985  2.2755 -1.3872  1.3852
 8371SOL     OW31204  10.691   4.892   4.294 -0.0328 -0.4747  0.7456
 8371SOL    HW131205  10.769   4.880   4.239  0.7064 -0.8056  1.8313
 8371SOL    HW231206  10.724   4.937   4.372 -1.0188 -0.2276  1.0338
 8372SOL     OW31207   0.759   3.337   8.451  0.2293 -0.2969  0.7547
 8372SOL    HW131208   0.805   3.293   8.523  0.2296 -1.1195  0.2601
 8372SOL    HW231209   0.820   3.404   8.421  1.3781 -1.7471 -0.2715
 8373SOL     OW31210  10.483   1.102   4.990 -0.0682  0.2683  0.0738
 8373SOL    HW131211  10.525   1.172   4.941 -1.2327 -0.2903 -1.8532
 8373SOL    HW231212  10.460   1.141   5.074 -2.3561  2.8543 -1.5826
 8374SOL     OW31213   3.393   1.695   2.119  0.3725  0.0728 -0.2980
 8374SOL    HW131214   3.450   1.631   2.162  0.8061  1.5523  1.4391
 8374SOL    HW231215   3.348   1.645   2.051  0.0137 -2.2990  1.5399
 8375SOL     OW31216   7.883   5.779   9.169 -0.0748 -0.1928  0.3599
 8375SOL    HW131217   7.899   5.867   9.204 -2.8582  0.3752  0.4198
 8375SOL    HW231218   7.927   5.720   9.231  1.0275  1.0902  0.8441
 8376SOL     OW31219   5.334   1.026   4.444  0.6884  0.2625  0.1461
 8376SOL    HW131220   5.413   1.028   4.498  2.1010 -1.8285 -1.6545
 8376SOL    HW231221   5.347   1.098   4.381  0.7437  0.4661  0.3892
 8377SOL     OW31222  10.313   2.595   1.779  0.0425 -0.7004  0.7625
 8377SOL    HW131223  10.303   2.641   1.863  0.9256  2.7638 -0.8673
 8377SOL    HW231224  10.402   2.559   1.782  0.1241 -0.4651  1.2293
 8378SOL     OW31225   5.006   8.563   7.695  0.2603  0.0160  0.1576
 8378SOL    HW131226   4.977   8.531   7.609 -0.5382 -0.3898  0.5725
 8378SOL    HW231227   4.943   8.632   7.717  0.1871 -0.2037  0.6348
 8379SOL     OW31228   8.883   3.699   5.855 -0.3912  0.1139 -0.7005
 8379SOL    HW131229   8.957   3.641   5.838 -0.0784  0.3589 -0.1718
 8379SOL    HW231230   8.835   3.656   5.926 -0.2589  0.4089 -0.4311
 8380SOL     OW31231   7.788   1.760   0.554  0.1302  0.0200 -0.3150
 8380SOL    HW131232   7.714   1.799   0.508 -1.7026 -2.2030  0.5527
 8380SOL    HW231233   7.759   1.755   0.645  1.3758 -0.8579  0.0551
 8381SOL     OW31234   8.680   7.615   8.024 -0.4404 -0.1580 -0.1038
 8381SOL    HW131235   8.711   7.574   8.104 -0.9730  0.4450  0.4250
 8381SOL    HW231236   8.750   7.600   7.960 -0.2112 -1.0263  0.3448
 8382SOL     OW31237   9.725  10.827   6.442 -0.1314  0.0081  0.2249
 8382SOL    HW131238   9.820  10.833   6.434 -0.0429 -0.6005  0.7317
 8382SOL    HW231239   9.692  10.905   6.399  0.5836  0.0283 -0.2923
 8383SOL     OW31240   7.781   8.484   6.688  0.7822 -0.3491  0.1579
 8383SOL    HW131241   7.808   8.492   6.779  0.6517 -0.0301  0.1694
 8383SOL    HW231242   7.798   8.571   6.650  0.1065 -0.2491  0.0803
 8384SOL     OW31243   6.996   8.192   5.525 -0.1011  0.2380  0.2051
 8384SOL    HW131244   6.939   8.182   5.601 -1.7249  1.5534 -0.7727
 8384SOL    HW231245   6.977   8.116   5.471 -2.0475  1.3187 -0.7497
 8385SOL     OW31246   6.567   8.406   2.143 -0.0473 -0.5492  0.1431
 8385SOL    HW131247   6.600   8.487   2.181 -0.0151 -0.7298  0.5101
 8385SOL    HW231248   6.626   8.338   2.176 -1.0882 -0.9518  1.2517
 8386SOL     OW31249   6.318   2.019   1.244 -0.1847  0.0867 -0.2184
 8386SOL    HW131250   6.329   1.966   1.324 -2.0885 -1.0849 -0.6629
 8386SOL    HW231251   6.405   2.055   1.228  0.9207 -1.8680  0.8693
 8387SOL     OW31252   2.156   7.131   7.605 -0.4401  0.2892  0.6798
 8387SOL    HW131253   2.164   7.112   7.511  0.2411  0.2178  0.7425
 8387SOL    HW231254   2.115   7.054   7.642 -0.6598  0.2940  0.4432
 8388SOL     OW31255   4.419   2.116   8.253  0.1721 -0.1885 -0.0982
 8388SOL    HW131256   4.511   2.103   8.231  0.7880  0.6406  1.8255
 8388SOL    HW231257   4.406   2.069   8.336 -1.7276 -2.0997 -1.3523
 8389SOL     OW31258   9.533   8.157   7.028  0.0107  0.6795 -0.2722
 8389SOL    HW131259   9.518   8.119   7.115  2.1692 -1.6520 -0.7879
 8389SOL    HW231260   9.446   8.174   6.993 -0.9591 -0.3515  1.5046
 8390SOL     OW31261   7.796   0.374  10.722 -0.2364 -0.1213 -0.2889
 8390SOL    HW131262   7.839   0.339  10.800  0.6481  1.2397 -0.1302
 8390SOL    HW231263   7.862   0.432  10.682 -1.0316  0.0048 -1.4836
 8391SOL     OW31264   5.858   7.554   8.021 -0.4784 -0.4655  0.0079
 8391SOL    HW131265   5.946   7.588   8.036 -0.4378 -0.5325 -0.0838
 8391SOL    HW231266   5.871   7.464   7.992 -0.5967 -0.6804  0.5963
 8392SOL     OW31267   9.787   8.228   9.420 -0.5450 -0.8260  0.1056
 8392SOL    HW131268   9.876   8.194   9.423 -0.5750 -0.9272 -0.1143
 8392SOL    HW231269   9.733   8.156   9.453 -0.3810 -0.1478  1.9521
 8393SOL     OW31270   1.411   1.371   2.238 -0.3336  0.4396 -0.3369
 8393SOL    HW131271   1.327   1.347   2.276 -0.4801  2.4251  0.7241
 8393SOL    HW231272   1.472   1.368   2.311  0.4858 -0.7317 -1.0485
 8394SOL     OW31273   4.848  10.609   1.389  0.2797  0.0891  0.3855
 8394SOL    HW131274   4.844  10.703   1.404  0.5679  0.2010 -0.2242
 8394SOL    HW231275   4.876  10.600   1.298  0.7187 -0.5822  0.5786
 8395SOL     OW31276   6.467   9.400   1.065  0.1927  0.3518  0.4890
 8395SOL    HW131277   6.519   9.342   1.011 -0.0757  0.7552 -0.2185
 8395SOL    HW231278   6.487   9.488   1.032 -2.3619  0.4259 -1.1472
 8396SOL     OW31279   9.617   9.005   9.630  0.0595 -0.1357  0.2662
 8396SOL    HW131280   9.704   8.975   9.604 -0.2216  0.4369 -1.4810
 8396SOL    HW231281   9.557   8.952   9.577 -0.5517  0.9312 -0.1562
 8397SOL     OW31282   2.130   1.764   2.554  0.0729 -0.6481  0.2572
 8397SOL    HW131283   2.223   1.744   2.566 -0.0304 -1.9549 -0.8899
 8397SOL    HW231284   2.107   1.721   2.472 -1.0321  1.4953 -0.6348
 8398SOL     OW31285   6.239   9.699   0.957 -0.2045  0.0395  0.1855
 8398SOL    HW131286   6.209   9.736   0.875 -3.0181  1.9047  1.8839
 8398SOL    HW231287   6.332   9.680   0.943 -0.3534  1.2238 -3.0386
 8399SOL     OW31288   8.897  10.394   0.009 -0.0516  0.1495  0.1118
 8399SOL    HW131289   8.880  10.349   0.092 -0.3509 -1.3289 -0.7186
 8399SOL    HW231290   8.988  10.376  -0.010  0.0849  0.6979  0.2257
 8400SOL     OW31291   6.927   0.094   9.302 -0.4056 -0.3760 -0.0894
 8400SOL    HW131292   6.942   0.133   9.216  0.6469  0.8795  0.6328
 8400SOL    HW231293   6.841   0.125   9.328  0.7037  2.2189  0.7939
 8401SOL     OW31294   5.165   0.977   0.391 -0.1197 -0.4273 -0.0896
 8401SOL    HW131295   5.197   0.894   0.426  0.2958 -0.4917 -0.6113
 8401SOL    HW231296   5.169   0.966   0.296  1.3254  0.7103 -0.1979
 8402SOL     OW31297   9.463   2.534   0.018  0.2796 -0.0986  0.2032
 8402SOL    HW131298   9.510   2.615   0.001  0.0160 -0.4051 -2.3615
 8402SOL    HW231299   9.530   2.466   0.015  0.3070 -0.1204  1.0525
 8403SOL     OW31300   3.278   7.790   0.125 -0.5374  0.6042  0.1469
 8403SOL    HW131301   3.360   7.822   0.163 -0.8571  0.4261  1.0175
 8403SOL    HW231302   3.215   7.860   0.143 -0.4805  0.9377 -0.9180
 8404SOL     OW31303  10.264   9.405  10.667  0.2795 -0.3398  0.2797
 8404SOL    HW131304  10.199   9.448  10.611 -0.0828 -0.7108  0.4072
 8404SOL    HW231305  10.333   9.470  10.679  0.6182 -0.4404 -1.0285
 8405SOL     OW31306   1.697   0.980   1.612 -0.0395 -0.8275  0.0916
 8405SOL    HW131307   1.787   0.946   1.606 -0.8558 -2.8665 -2.7763
 8405SOL    HW231308   1.706   1.074   1.599  1.5602 -1.2950 -3.0409
 8406SOL     OW31309   1.921  10.362   5.311 -0.2842 -0.0217  0.8907
 8406SOL    HW131310   1.826  10.346   5.309 -0.2853  0.0277  0.1100
 8406SOL    HW231311   1.960  10.278   5.285 -0.0964 -0.1296  1.5020
 8407SOL     OW31312   4.773   2.660   8.937  0.1838  0.3336  0.2964
 8407SOL    HW131313   4.772   2.572   8.974 -1.3303 -0.2072 -0.9086
 8407SOL    HW231314   4.809   2.647   8.849 -2.2521  0.4482 -0.7967
 8408SOL     OW31315   2.742   2.962   5.460  0.6750  0.3367 -0.0243
 8408SOL    HW131316   2.755   3.053   5.434  0.4657  0.7973  1.4175
 8408SOL    HW231317   2.650   2.957   5.485  1.2043  0.3201  2.0535
 8409SOL     OW31318   9.400   2.462   8.026  0.3875 -0.4394 -0.4266
 8409SOL    HW131319   9.397   2.376   7.984  0.0785 -0.5142 -0.2524
 8409SOL    HW231320   9.479   2.503   7.991  2.9253 -2.3582  2.5063
 8410SOL     OW31321   9.565   0.487   5.026  0.0469  0.6784  0.6205
 8410SOL    HW131322   9.559   0.529   5.112  2.1119  0.8963  0.7052
 8410SOL    HW231323   9.565   0.559   4.964 -2.5337  0.4875  0.2872
 8411SOL     OW31324   0.855   7.551  10.667 -0.0996 -0.0926 -0.3899
 8411SOL    HW131325   0.929   7.499  10.635  2.9834  2.9108  1.1338
 8411SOL    HW231326   0.863   7.635  10.623  1.5511  2.5824  4.2311
 8412SOL     OW31327   6.207   4.300  10.858  0.1317  0.0618  0.0285
 8412SOL    HW131328   6.123   4.270  10.891  0.2628 -1.6758 -1.0871
 8412SOL    HW231329   6.201   4.396  10.859 -1.4032 -0.0202  1.0445
 8413SOL     OW31330   8.662   6.796   3.557  0.3718 -0.8753  0.0144
 8413SOL    HW131331   8.706   6.823   3.477 -0.3064  1.1781  0.2893
 8413SOL    HW231332   8.691   6.705   3.570  0.3149 -1.3545 -2.6357
 8414SOL     OW31333   4.700   9.577   7.736 -0.4703  0.0540 -0.2503
 8414SOL    HW131334   4.755   9.536   7.803 -0.5347  0.0606 -0.1940
 8414SOL    HW231335   4.754   9.574   7.656 -0.5231 -0.2594 -0.2780
 8415SOL     OW31336   9.703   8.196  10.211 -0.7108  0.5102  0.0409
 8415SOL    HW131337   9.619   8.187  10.256 -1.7238  1.1672 -1.5981
 8415SOL    HW231338   9.718   8.111  10.170  0.0706  0.0003  1.3595
 8416SOL     OW31339   8.790   1.167  10.153  0.8676  0.7158 -0.1804
 8416SOL    HW131340   8.789   1.150  10.059 -0.8354 -0.6942  0.0423
 8416SOL    HW231341   8.700   1.190  10.174  1.2997  1.3484  1.0728
 8417SOL     OW31342   0.980   4.398   2.806  0.3391 -0.4388  0.8484
 8417SOL    HW131343   0.927   4.478   2.799  0.9858  0.1812  2.6768
 8417SOL    HW231344   0.967   4.354   2.722  1.0530  2.2478 -0.7791
 8418SOL     OW31345   9.504   2.493   5.537 -0.0828  0.2901 -0.0283
 8418SOL    HW131346   9.561   2.569   5.524 -1.8842  2.0647  1.7425
 8418SOL    HW231347   9.441   2.497   5.465 -0.1993  0.4906  0.0855
 8419SOL     OW31348   3.889   8.001   6.633  0.1842  0.3751 -0.3837
 8419SOL    HW131349   3.919   8.011   6.543  3.0565 -3.2140 -0.0597
 8419SOL    HW231350   3.832   7.924   6.631  0.5733  0.0256  0.8908
 8420SOL     OW31351   4.606   1.061   6.203 -0.1748 -0.6460 -0.1513
 8420SOL    HW131352   4.692   1.023   6.224 -1.1688 -3.8430 -1.2392
 8420SOL    HW231353   4.559   1.063   6.286  1.2062  2.1709  0.6699
 8421SOL     OW31354   6.382   1.947   2.332  0.1563  0.7402  0.0758
 8421SOL    HW131355   6.468   1.987   2.337 -0.4655  2.0830  0.5924
 8421SOL    HW231356   6.325   2.007   2.380 -1.2017  0.2772 -0.8807
 8422SOL     OW31357   1.163   1.247   2.279  0.1532  0.0734  0.5207
 8422SOL    HW131358   1.202   1.210   2.199  0.5085  0.4926  0.4937
 8422SOL    HW231359   1.129   1.171   2.327 -1.3125 -0.0842 -0.6770
 8423SOL     OW31360   0.214   7.627   8.750  0.2441  0.3265  0.3882
 8423SOL    HW131361   0.253   7.638   8.663 -0.9715  2.1272  0.0353
 8423SOL    HW231362   0.250   7.699   8.801  0.2020 -0.1679  1.1300
 8424SOL     OW31363   5.838   1.723   4.041 -0.0056 -0.0918  0.5419
 8424SOL    HW131364   5.758   1.677   4.014  2.4713 -4.7910  0.1494
 8424SOL    HW231365   5.889   1.732   3.961  0.4271  1.8330  0.9791
 8425SOL     OW31366   9.523   8.475   2.528  0.1362  0.5632  0.0009
 8425SOL    HW131367   9.546   8.553   2.577  2.0078  0.9095 -1.3227
 8425SOL    HW231368   9.601   8.420   2.531 -0.6894 -0.6869 -0.2146
 8426SOL     OW31369   5.038   7.064   0.813 -0.0582  0.1530 -0.3986
 8426SOL    HW131370   5.019   7.095   0.725  0.2598 -1.6769 -1.1622
 8426SOL    HW231371   5.111   7.119   0.842  0.5860  0.0502 -1.7368
 8427SOL     OW31372  10.912   4.048   9.934 -0.0373 -0.4964 -0.1742
 8427SOL    HW131373  10.989   4.103   9.923 -1.5173  2.0122  0.9316
 8427SOL    HW231374  10.937   3.983   9.998  1.5934 -0.7002 -0.9833
 8428SOL     OW31375   4.223   8.838   2.400  0.0580  0.3330  0.0069
 8428SOL    HW131376   4.184   8.895   2.466 -0.5828 -1.1256  0.9146
 8428SOL    HW231377   4.155   8.828   2.333 -1.2166 -2.1130  1.5318
 8429SOL     OW31378   5.497   9.877   6.243 -0.9581  0.6300  0.4864
 8429SOL    HW131379   5.528   9.826   6.317  0.4023  1.6786  0.6832
 8429SOL    HW231380   5.408   9.905   6.267 -1.1475 -0.3840  0.9918
 8430SOL     OW31381   6.995  10.159   6.568 -0.3679 -0.3308  0.5446
 8430SOL    HW131382   7.048  10.209   6.506 -0.1701 -1.7741 -0.4956
 8430SOL    HW231383   7.059  10.123   6.630 -0.1837 -1.3796 -0.2207
 8431SOL     OW31384   7.744   3.611  10.291  0.1178 -0.2233  0.5141
 8431SOL    HW131385   7.651   3.605  10.314 -0.2293 -2.5458 -1.1266
 8431SOL    HW231386   7.790   3.601  10.374 -1.0087  3.4614  1.7392
 8432SOL     OW31387   1.340  10.541   1.821 -0.3745 -0.3555  0.5644
 8432SOL    HW131388   1.329  10.446   1.814 -0.8003 -0.2021 -1.0775
 8432SOL    HW231389   1.433  10.552   1.842 -0.2087 -1.1056  0.2530
 8433SOL     OW31390   1.927   0.763   2.346  0.3533 -0.0035 -0.2485
 8433SOL    HW131391   1.981   0.706   2.292 -0.0517  0.3898 -1.0936
 8433SOL    HW231392   1.886   0.705   2.409  0.3356 -0.5812 -0.7836
 8434SOL     OW31393   4.453   8.953   6.584  0.3546  0.2948  0.2465
 8434SOL    HW131394   4.461   9.010   6.661  1.1191 -0.1956  0.5536
 8434SOL    HW231395   4.381   8.894   6.605  2.3289 -1.7568  1.9476
 8435SOL     OW31396   5.497   5.845  10.120  0.1603  0.1175 -0.3721
 8435SOL    HW131397   5.454   5.797  10.191  0.3808  0.2491 -0.1455
 8435SOL    HW231398   5.479   5.937  10.140 -0.0342  0.1417 -0.6550
 8436SOL     OW31399   0.679   2.314   6.714  0.1708  0.2892 -0.3364
 8436SOL    HW131400   0.755   2.311   6.656  0.1343  0.0369 -0.3756
 8436SOL    HW231401   0.610   2.354   6.661  0.3171  0.6578 -0.2504
 8437SOL     OW31402   6.347   7.977   5.532  0.4630 -0.4880 -0.4812
 8437SOL    HW131403   6.375   8.047   5.472 -0.1901  1.2509  1.1186
 8437SOL    HW231404   6.252   7.973   5.520  0.1042  0.8826  1.3175
 8438SOL     OW31405   8.123   5.006   4.622  0.2810  0.6909  0.5269
 8438SOL    HW131406   8.064   5.077   4.647 -1.3091  0.6874 -2.7080
 8438SOL    HW231407   8.185   5.047   4.562 -1.4141 -0.7005 -2.3851
 8439SOL     OW31408   8.736   0.375   0.474 -0.0059  0.0281 -0.7020
 8439SOL    HW131409   8.685   0.447   0.511  0.8111 -0.2016  0.9575
 8439SOL    HW231410   8.690   0.352   0.394 -2.9189 -0.5831  1.0079
 8440SOL     OW31411   9.815   9.286   5.595 -0.5685 -0.4111  0.3591
 8440SOL    HW131412   9.754   9.212   5.605 -0.9548 -0.2012 -0.3886
 8440SOL    HW231413   9.799   9.318   5.507 -1.0603  1.1507  0.9893
 8441SOL     OW31414   2.551   2.681   8.032  0.1550  0.2125  0.2409
 8441SOL    HW131415   2.499   2.600   8.032  0.1131  0.2389  0.1214
 8441SOL    HW231416   2.531   2.722   7.948  0.8143 -0.0678 -0.0661
 8442SOL     OW31417  10.219   6.008   9.149 -0.1971  0.2654  0.1118
 8442SOL    HW131418  10.179   6.094   9.136  0.6017  0.7683  0.8438
 8442SOL    HW231419  10.146   5.950   9.171 -0.6916  0.8412  0.0074
 8443SOL     OW31420   0.643   1.230   3.439  0.3719  0.2032  0.5112
 8443SOL    HW131421   0.611   1.210   3.527 -1.5494  1.0584  0.0570
 8443SOL    HW231422   0.738   1.223   3.446  0.1647 -4.3836  1.4611
 8444SOL     OW31423   2.280   9.976   6.612  0.3617  0.1081 -0.5720
 8444SOL    HW131424   2.355   9.922   6.634 -0.0281 -0.8956 -1.6044
 8444SOL    HW231425   2.278  10.044   6.679  0.5163 -1.4860  1.1029
 8445SOL     OW31426   4.213   5.708   7.961 -0.2728  0.0143  0.3509
 8445SOL    HW131427   4.211   5.747   7.874 -1.0531  0.5119  0.5787
 8445SOL    HW231428   4.189   5.617   7.947  1.4178 -0.3785 -0.1706
 8446SOL     OW31429   8.670   1.959   0.894  0.8459 -0.2138 -0.3749
 8446SOL    HW131430   8.649   2.041   0.850  1.3087 -0.3299 -0.8232
 8446SOL    HW231431   8.727   1.985   0.967 -1.5685  0.2240  1.4756
 8447SOL     OW31432   7.070   2.478   7.498  0.3740  0.5498 -0.5225
 8447SOL    HW131433   7.050   2.460   7.407  1.0032  0.1014 -0.5857
 8447SOL    HW231434   7.037   2.566   7.514 -1.4682 -0.0834 -0.6417
 8448SOL     OW31435   9.815   3.684   7.635 -0.5474  0.3038  0.1911
 8448SOL    HW131436   9.781   3.627   7.704  0.0330 -1.1678 -0.6947
 8448SOL    HW231437   9.838   3.625   7.563  1.9390  1.4238 -0.0455
 8449SOL     OW31438   7.618   1.655   0.802  0.0638  0.7693  0.1511
 8449SOL    HW131439   7.549   1.605   0.845  0.3364 -0.7413 -1.0648
 8449SOL    HW231440   7.672   1.588   0.759  0.5934  2.0904 -1.3406
 8450SOL     OW31441   2.779   6.001   6.869 -0.8205 -0.2070 -0.5447
 8450SOL    HW131442   2.808   5.910   6.866 -0.9325 -0.4048  2.1564
 8450SOL    HW231443   2.859   6.052   6.882 -0.8144  0.0409 -1.5163
 8451SOL     OW31444   3.670   6.684  10.672 -0.1027  0.0352  0.3890
 8451SOL    HW131445   3.765   6.697  10.676  0.0441 -0.9750  0.4464
 8451SOL    HW231446   3.647   6.649  10.758 -1.1053  3.5143  1.7001
 8452SOL     OW31447   6.887   7.377   0.815 -0.4409 -0.7018  0.3130
 8452SOL    HW131448   6.962   7.369   0.756 -0.8845  0.1900 -0.3914
 8452SOL    HW231449   6.882   7.471   0.834 -1.3168 -0.7684  0.4249
 8453SOL     OW31450   0.545   2.459   0.727 -0.7506  0.0209  0.0999
 8453SOL    HW131451   0.453   2.478   0.711 -0.8932  1.9498  2.5731
 8453SOL    HW231452   0.587   2.545   0.729  0.6416 -0.6405  1.3328
 8454SOL     OW31453   6.005   0.959   8.365 -0.5318 -0.2246 -0.1288
 8454SOL    HW131454   6.002   0.894   8.436 -0.3801 -0.6209 -0.4799
 8454SOL    HW231455   5.982   1.041   8.407  1.1537 -0.1404  0.7432
 8455SOL     OW31456   6.772   1.009   3.612  0.2117 -0.5693  0.2653
 8455SOL    HW131457   6.790   1.086   3.664 -2.5334  1.1625 -1.1020
 8455SOL    HW231458   6.737   0.945   3.674 -2.1074  1.1208  0.8571
 8456SOL     OW31459   2.102   1.257  10.215  0.3704  0.0953 -0.1614
 8456SOL    HW131460   2.128   1.199  10.143 -1.8327 -0.4508 -0.5965
 8456SOL    HW231461   2.051   1.326  10.172  0.6948  0.8650  0.6714
 8457SOL     OW31462   8.007   8.134   0.721 -0.0518  0.1858  0.5701
 8457SOL    HW131463   8.081   8.192   0.702 -1.7416  1.6841 -1.9316
 8457SOL    HW231464   8.029   8.053   0.675  0.2408  0.4835  0.1666
 8458SOL     OW31465   3.998   6.547   4.431  0.2394  0.4978  0.3916
 8458SOL    HW131466   4.050   6.555   4.352 -0.8424  1.1364 -0.2764
 8458SOL    HW231467   4.062   6.543   4.502  1.2052  0.3619 -0.4770
 8459SOL     OW31468   4.491   2.358   7.774 -0.4523 -0.7293  0.0311
 8459SOL    HW131469   4.489   2.271   7.734 -2.1163 -0.3630 -0.7841
 8459SOL    HW231470   4.398   2.381   7.786 -0.0615  1.1393 -0.2439
 8460SOL     OW31471   2.874  10.044   1.096  0.3934 -0.4384  0.2465
 8460SOL    HW131472   2.924  10.120   1.067 -0.1297  0.1275  0.7943
 8460SOL    HW231473   2.920  10.013   1.174  0.8898 -0.9987 -0.2550
 8461SOL     OW31474   2.337   3.321   0.994  0.0926 -0.1734  0.0606
 8461SOL    HW131475   2.342   3.381   0.920  0.5038  0.0773  0.2900
 8461SOL    HW231476   2.288   3.246   0.960 -1.0802  0.6046 -0.0015
 8462SOL     OW31477   2.164   2.938   9.310 -0.1868 -0.4915  0.1342
 8462SOL    HW131478   2.203   2.989   9.239  0.3801 -3.4410 -1.8574
 8462SOL    HW231479   2.197   2.980   9.390  2.4408  0.5899 -1.3771
 8463SOL     OW31480   7.821   0.644   3.368  0.7184  0.2364 -0.2017
 8463SOL    HW131481   7.762   0.573   3.393  0.4303  1.1388  1.8444
 8463SOL    HW231482   7.879   0.604   3.302  0.3818 -1.8159  0.6617
 8464SOL     OW31483   6.908   6.310   0.544 -0.5536  0.5848 -0.4747
 8464SOL    HW131484   6.914   6.387   0.487 -1.1104 -0.2955 -1.7657
 8464SOL    HW231485   6.998   6.278   0.551 -0.4525  0.8214 -0.6688
 8465SOL     OW31486   2.143   8.075   7.167  0.2038 -0.2179 -0.3484
 8465SOL    HW131487   2.077   8.033   7.222 -0.3636 -1.1532 -1.7262
 8465SOL    HW231488   2.096   8.102   7.088  1.0317  1.0378 -0.4504
 8466SOL     OW31489   7.198   8.610  10.621 -0.2471 -0.2417  0.7327
 8466SOL    HW131490   7.195   8.699  10.656 -0.2578  0.4773 -0.9973
 8466SOL    HW231491   7.287   8.600  10.588 -0.8996  0.0745 -1.2888
 8467SOL     OW31492   6.503   1.454   5.251 -0.0538 -0.1566  0.2568
 8467SOL    HW131493   6.556   1.438   5.172  0.2821  0.3119  0.3846
 8467SOL    HW231494   6.568   1.472   5.319 -0.1822 -2.9079  1.2373
 8468SOL     OW31495   8.311   8.303   2.958 -0.2966  0.2568  0.3975
 8468SOL    HW131496   8.319   8.370   3.025 -0.0165  0.1172  0.5043
 8468SOL    HW231497   8.216   8.291   2.947 -0.3542 -0.4745  1.5340
 8469SOL     OW31498   6.614   5.433   9.205 -0.1839  0.3706  0.1310
 8469SOL    HW131499   6.698   5.475   9.184  0.9124 -1.2170  1.0498
 8469SOL    HW231500   6.564   5.438   9.124  1.7186 -0.6561 -1.1996
 8470SOL     OW31501   7.891   9.212   4.085 -0.3325  0.0302  0.2782
 8470SOL    HW131502   7.921   9.122   4.100 -0.7960 -0.2932 -0.6312
 8470SOL    HW231503   7.831   9.204   4.011 -0.0613  1.1496 -0.0715
 8471SOL     OW31504  10.634   8.850   8.283 -0.2185  0.2451  0.5783
 8471SOL    HW131505  10.544   8.815   8.277  0.0560 -0.2756 -1.0675
 8471SOL    HW231506  10.690   8.776   8.260  0.5688  0.8737  0.4217
 8472SOL     OW31507   2.585   7.292   0.044  0.4812  0.2627  0.0686
 8472SOL    HW131508   2.587   7.378   0.084 -0.2181 -0.3231  1.4346
 8472SOL    HW231509   2.544   7.306  -0.042 -1.3340  1.0314  1.0025
 8473SOL     OW31510   9.544   7.905   8.038  0.3525 -0.6456 -0.5599
 8473SOL    HW131511   9.637   7.903   8.015  0.7459 -0.6253  0.9702
 8473SOL    HW231512   9.515   7.814   8.029  0.7146 -0.7901 -0.2670
 8474SOL     OW31513   4.491   1.383   3.848 -0.3164 -0.2690 -0.3986
 8474SOL    HW131514   4.586   1.372   3.838 -0.2779 -0.1118 -0.1953
 8474SOL    HW231515   4.456   1.295   3.834  0.0663 -0.8939  2.0562
 8475SOL     OW31516   1.580  10.212   4.592 -0.0115 -0.4672  0.0832
 8475SOL    HW131517   1.635  10.259   4.530 -1.6237  0.1218 -0.9571
 8475SOL    HW231518   1.584  10.121   4.564  1.4429 -0.6676  0.8305
 8476SOL     OW31519   7.871   1.259   1.451 -0.2272  0.1675 -0.2026
 8476SOL    HW131520   7.796   1.231   1.399  1.6507 -4.0010 -1.0655
 8476SOL    HW231521   7.859   1.214   1.535  0.4754  0.8209  0.2546
 8477SOL     OW31522   8.957   5.727  10.686  0.5669  0.2548 -0.2673
 8477SOL    HW131523   9.020   5.793  10.716  0.3442  2.2122 -3.6081
 8477SOL    HW231524   8.897   5.717  10.759  1.6206  2.4674  1.0268
 8478SOL     OW31525   1.356   8.276   1.968  0.3917  0.2843  0.4010
 8478SOL    HW131526   1.379   8.304   1.879 -0.9737  0.6456  0.1331
 8478SOL    HW231527   1.421   8.209   1.990  0.6032  0.0014 -0.9782
 8479SOL     OW31528   5.185   5.494   7.584 -0.0504 -0.1152  0.9233
 8479SOL    HW131529   5.095   5.512   7.556  0.0371  0.0631  0.7532
 8479SOL    HW231530   5.187   5.399   7.597  0.1347 -0.3426 -0.5487
 8480SOL     OW31531  10.500   0.250   4.733 -0.3489 -0.3563  0.8314
 8480SOL    HW131532  10.538   0.206   4.810  2.8058  0.5570 -0.0665
 8480SOL    HW231533  10.500   0.182   4.665  0.5751 -0.1508  0.6060
 8481SOL     OW31534   6.891   5.124   7.091 -0.0115  0.2028  0.3329
 8481SOL    HW131535   6.842   5.105   7.010 -2.1034 -0.7646  1.7267
 8481SOL    HW231536   6.910   5.218   7.086  1.2638 -0.1166 -1.9401
 8482SOL     OW31537   2.085   9.845   3.457  0.1539 -0.3015  0.0172
 8482SOL    HW131538   2.020   9.802   3.513 -0.2277  0.5416  0.2287
 8482SOL    HW231539   2.097   9.784   3.384 -0.8358 -0.4999  0.0045
 8483SOL     OW31540   9.388   7.690   3.697 -0.0020  1.0932  0.2140
 8483SOL    HW131541   9.293   7.698   3.701  0.1066  2.1380  2.6781
 8483SOL    HW231542   9.413   7.655   3.783  1.7803 -0.3953 -0.8098
 8484SOL     OW31543   5.083  10.809   3.416 -0.0705  0.1228  0.0266
 8484SOL    HW131544   5.075  10.753   3.493  0.9878  0.0301  0.0721
 8484SOL    HW231545   5.175  10.803   3.391 -0.2988  0.5521 -0.9454
 8485SOL     OW31546   4.761   5.969   0.748  0.0977  0.2039 -0.0314
 8485SOL    HW131547   4.707   5.955   0.671  0.5569  1.3162 -0.5698
 8485SOL    HW231548   4.705   6.017   0.809  0.1466  0.4649 -0.1901
 8486SOL     OW31549   3.299   9.074   8.948  1.1133  0.3549  0.7493
 8486SOL    HW131550   3.374   9.028   8.986  2.2401 -0.2630 -1.9268
 8486SOL    HW231551   3.265   9.013   8.882  1.1931  2.3939 -1.3015
 8487SOL     OW31552   5.108   2.519   7.767 -0.4393  0.1508 -0.2991
 8487SOL    HW131553   5.019   2.506   7.800 -0.2347 -0.6832 -0.0446
 8487SOL    HW231554   5.105   2.603   7.722 -1.7560 -0.5246 -1.5863
 8488SOL     OW31555   4.983   2.830   2.427  0.9228  0.0576 -0.2707
 8488SOL    HW131556   5.034   2.836   2.346 -1.6844  0.4362 -2.0112
 8488SOL    HW231557   4.920   2.760   2.411 -0.9335  1.4287  0.6092
 8489SOL     OW31558   9.046   0.747   4.334 -0.1079 -0.3894 -0.6744
 8489SOL    HW131559   8.967   0.768   4.384  0.5839 -1.5697  1.0249
 8489SOL    HW231560   9.091   0.831   4.323 -0.9555  0.0920 -0.5343
 8490SOL     OW31561   3.501   9.645   0.315 -0.1714  0.5988 -0.4455
 8490SOL    HW131562   3.419   9.595   0.313  0.4625 -0.4489 -1.6407
 8490SOL    HW231563   3.570   9.579   0.315  0.6972  1.4662  0.1118
 8491SOL     OW31564   9.620   1.923   5.096  0.1098 -0.3318  0.6089
 8491SOL    HW131565   9.529   1.920   5.123  0.7479  2.0055  3.5502
 8491SOL    HW231566   9.668   1.875   5.164  1.3664  1.9127  1.4330
 8492SOL     OW31567   2.174   7.160   9.371 -0.2696  0.2421 -0.1867
 8492SOL    HW131568   2.199   7.171   9.463  1.3916  0.5570 -0.6379
 8492SOL    HW231569   2.171   7.065   9.357  1.9102  0.1678 -0.3884
 8493SOL     OW31570   2.759   3.256   5.513  0.5667 -0.3669 -0.2075
 8493SOL    HW131571   2.774   3.266   5.607  1.4417 -0.0768 -0.3718
 8493SOL    HW231572   2.673   3.295   5.498  0.4587 -0.3401  0.4574
 8494SOL     OW31573   6.687   7.811   0.485 -0.1484 -0.4160  0.3381
 8494SOL    HW131574   6.628   7.884   0.467 -2.4503 -2.5415 -1.3925
 8494SOL    HW231575   6.759   7.822   0.423  0.1516  0.9269  0.8771
 8495SOL     OW31576  10.139   1.077   1.734  0.0726  0.3645 -0.2589
 8495SOL    HW131577  10.218   1.071   1.788  0.9903  0.7676 -1.5278
 8495SOL    HW231578  10.068   1.089   1.798  1.3421  2.9026  0.8170
 8496SOL     OW31579   1.944   3.338   6.734  0.5768 -0.6562  0.5370
 8496SOL    HW131580   2.006   3.303   6.668  2.9473 -0.5763  2.5695
 8496SOL    HW231581   1.917   3.261   6.784 -0.5551 -0.6042  0.0255
 8497SOL     OW31582   4.690   5.228   2.707 -0.0031  0.5224  0.3210
 8497SOL    HW131583   4.711   5.310   2.662 -0.5374  0.3116 -0.3270
 8497SOL    HW231584   4.594   5.224   2.705 -0.1627  1.2217  2.7607
 8498SOL     OW31585   5.255  10.684   1.802 -0.1198 -0.6174  0.0213
 8498SOL    HW131586   5.183  10.632   1.767 -0.0209  0.2198 -1.5563
 8498SOL    HW231587   5.213  10.748   1.860 -0.7909  0.3345 -1.4397
 8499SOL     OW31588   2.871   0.078   8.367 -0.2285  0.5825  1.2065
 8499SOL    HW131589   2.902   0.141   8.432  0.0392 -0.0969  1.7565
 8499SOL    HW231590   2.902   0.113   8.283 -0.2107  1.2515  1.4868
 8500SOL     OW31591   8.184   8.285   9.634  0.0093  0.3708  0.6800
 8500SOL    HW131592   8.264   8.333   9.612 -0.3185  0.0971 -1.3328
 8500SOL    HW231593   8.209   8.227   9.705  2.2860 -1.4076 -1.4109
 8501SOL     OW31594   7.046   2.852   7.811  0.5387  0.3656  0.3620
 8501SOL    HW131595   6.963   2.898   7.822 -0.1464 -0.4902 -0.8744
 8501SOL    HW231596   7.050   2.790   7.884 -0.7224 -0.7098 -0.4360
 8502SOL     OW31597   2.819   0.895   0.308  0.1882  1.2569  0.4341
 8502SOL    HW131598   2.868   0.844   0.244 -0.0084  1.6845 -0.0636
 8502SOL    HW231599   2.881   0.960   0.340  0.1406  1.3570  0.3192
 8503SOL     OW31600   5.033   9.282   9.629 -0.0574  0.1006 -0.0005
 8503SOL    HW131601   5.068   9.332   9.556 -1.2120 -2.4297 -2.4702
 8503SOL    HW231602   4.942   9.312   9.637 -0.4184 -0.7422 -0.7485
 8504SOL     OW31603   2.832   9.327   3.545 -0.4861  0.2497 -0.1183
 8504SOL    HW131604   2.800   9.353   3.632 -0.9877 -1.5091  0.2487
 8504SOL    HW231605   2.898   9.260   3.563 -0.1990  0.2535 -1.0895
 8505SOL     OW31606   0.143   3.252   3.196  0.6290 -0.3172  0.2093
 8505SOL    HW131607   0.232   3.219   3.180 -0.5415 -3.7519 -0.1549
 8505SOL    HW231608   0.098   3.240   3.112 -1.1008 -2.2645  1.3176
 8506SOL     OW31609   9.181   1.853   8.321  0.4156  0.0125 -0.1600
 8506SOL    HW131610   9.247   1.786   8.337 -1.0555 -1.1548  1.3123
 8506SOL    HW231611   9.159   1.843   8.228  2.3090  0.4759 -0.6992
 8507SOL     OW31612   7.790   8.126   3.043 -0.5704 -0.0371  0.3563
 8507SOL    HW131613   7.715   8.126   2.983 -1.3192 -1.2953  1.2403
 8507SOL    HW231614   7.827   8.039   3.034  1.1402  0.7309 -0.4395
 8508SOL     OW31615   6.272   6.655   7.069  0.1518  0.0489  0.6275
 8508SOL    HW131616   6.321   6.727   7.109 -0.9242  1.4099 -0.3819
 8508SOL    HW231617   6.247   6.600   7.143  0.7188  0.8932  1.4844
 8509SOL     OW31618   1.422   1.695   9.893  0.0880  0.1051 -0.5493
 8509SOL    HW131619   1.378   1.652   9.966  0.2543 -0.9814 -1.0810
 8509SOL    HW231620   1.515   1.679   9.907  0.0729 -0.8444 -1.4453
 8510SOL     OW31621   2.115   8.400   9.002  0.3805 -0.7916 -0.0167
 8510SOL    HW131622   2.068   8.318   9.018  0.5707 -0.3989  3.5780
 8510SOL    HW231623   2.205   8.381   9.028  0.7792  0.1367 -0.6812
 8511SOL     OW31624   7.376   6.662   6.545  0.0946 -0.2030  0.9555
 8511SOL    HW131625   7.367   6.572   6.514  1.3074 -0.6654  1.8474
 8511SOL    HW231626   7.287   6.696   6.548 -0.1855 -0.2898 -2.4161
 8512SOL     OW31627   2.893   0.594   4.119  0.2669  0.6998  0.3657
 8512SOL    HW131628   2.850   0.625   4.199 -0.0869  1.1734 -0.0016
 8512SOL    HW231629   2.858   0.650   4.050 -0.8604 -0.8992 -0.4251
 8513SOL     OW31630   0.426   2.468   2.874  0.3707  0.7183  0.4386
 8513SOL    HW131631   0.492   2.480   2.806 -0.0732  0.4277 -0.0519
 8513SOL    HW231632   0.374   2.394   2.843  0.2868  0.4560  1.1929
 8514SOL     OW31633   6.664   0.611   6.727 -0.3281 -0.3652 -0.4964
 8514SOL    HW131634   6.745   0.590   6.682  0.7591 -0.9171  1.5924
 8514SOL    HW231635   6.657   0.707   6.720  0.9575 -0.2187 -0.0157
 8515SOL     OW31636   4.222   4.212   5.106 -0.4512  0.2356  0.1735
 8515SOL    HW131637   4.285   4.181   5.172 -0.0161  2.0148  0.6400
 8515SOL    HW231638   4.266   4.284   5.062 -1.0914 -0.3399 -1.4987
 8516SOL     OW31639   1.661   6.224   9.539 -0.4775 -0.1689  0.4660
 8516SOL    HW131640   1.637   6.136   9.510  2.4094 -0.7787 -0.3916
 8516SOL    HW231641   1.607   6.240   9.616 -2.0834 -2.1023 -0.1955
 8517SOL     OW31642   7.034   4.998   8.749  0.1776  0.3304 -0.4936
 8517SOL    HW131643   7.100   4.933   8.769 -0.5020 -0.6742 -1.3619
 8517SOL    HW231644   7.061   5.035   8.665 -0.3729 -0.1519 -0.9003
 8518SOL     OW31645   2.580   5.544   3.269 -0.2872  0.2199  0.2396
 8518SOL    HW131646   2.500   5.579   3.230  0.2610  2.3275  0.8684
 8518SOL    HW231647   2.644   5.549   3.198 -0.4297 -0.3882  0.0660
 8519SOL     OW31648   8.103   8.045   8.639 -0.2921  0.0023  0.6577
 8519SOL    HW131649   8.039   8.002   8.582  1.8562 -0.6660 -1.4013
 8519SOL    HW231650   8.182   8.051   8.586  0.9179  2.2669  2.5308
 8520SOL     OW31651   0.033   6.087   9.262 -0.6256  0.0396  0.1246
 8520SOL    HW131652   0.071   6.150   9.323 -0.1157  0.5931 -0.7404
 8520SOL    HW231653   0.108   6.040   9.226 -0.9627 -0.6668  0.3340
 8521SOL     OW31654   4.981   2.764   7.904  0.0152 -0.4316 -0.3447
 8521SOL    HW131655   4.895   2.791   7.871  0.5126  1.7609 -0.0014
 8521SOL    HW231656   4.971   2.671   7.925 -2.2063 -0.2696 -0.4928
 8522SOL     OW31657  10.850   0.413   9.829 -0.4226  0.5787  0.3680
 8522SOL    HW131658  10.904   0.483   9.867  0.1573  0.9447 -1.0606
 8522SOL    HW231659  10.819   0.363   9.905  2.0873  0.2261  1.2735
 8523SOL     OW31660   2.723   2.173   5.126  0.6943  0.3908  0.5740
 8523SOL    HW131661   2.718   2.078   5.125 -0.2225  0.4369  0.3929
 8523SOL    HW231662   2.736   2.195   5.218 -1.3439  0.1777  0.9574
 8524SOL     OW31663   9.953   4.730   0.916  0.1996  0.0395  0.0104
 8524SOL    HW131664   9.984   4.646   0.883  1.4647  0.4479  0.1198
 8524SOL    HW231665   9.949   4.787   0.840  2.4861  0.7913  0.3869
 8525SOL     OW31666   8.822   7.467   5.100  0.5131 -0.3086 -0.2536
 8525SOL    HW131667   8.887   7.512   5.046 -1.1586 -0.9068 -2.9358
 8525SOL    HW231668   8.845   7.375   5.095  0.3509 -0.3714  0.1066
 8526SOL     OW31669   2.751   0.472   3.818 -0.0030 -0.0295 -0.5169
 8526SOL    HW131670   2.805   0.419   3.759 -0.2736 -0.1130 -0.6907
 8526SOL    HW231671   2.769   0.562   3.792 -2.4953 -0.0734 -2.9234
 8527SOL     OW31672   7.780   5.540   9.023  0.3791 -0.0952  0.1775
 8527SOL    HW131673   7.871   5.544   8.995  0.0948  0.8218 -0.6658
 8527SOL    HW231674   7.783   5.499   9.109  1.4823 -1.0412 -0.2947
 8528SOL     OW31675   8.830   3.144   0.056 -0.4203  0.8591  0.1962
 8528SOL    HW131676   8.796   3.233   0.058 -1.6803  0.3997  2.0431
 8528SOL    HW231677   8.754   3.090   0.034  0.2046  0.1915 -0.3653
 8529SOL     OW31678   8.122   7.209   1.428 -0.4892  0.5013  0.4248
 8529SOL    HW131679   8.069   7.173   1.358  0.9444  0.9057 -0.9253
 8529SOL    HW231680   8.062   7.217   1.502 -2.5175  1.6493 -1.2356
 8530SOL     OW31681   8.593   9.910   5.523  0.1258  0.1211 -0.2049
 8530SOL    HW131682   8.569   9.853   5.597 -0.6843  0.3465 -0.2840
 8530SOL    HW231683   8.548   9.871   5.448 -0.2957  0.7609 -0.2904
 8531SOL     OW31684   4.444   2.423   3.096  0.0790 -0.6068  0.2347
 8531SOL    HW131685   4.492   2.490   3.146  1.8109 -1.9653  0.5164
 8531SOL    HW231686   4.379   2.389   3.157 -0.0587  0.0464  0.4558
 8532SOL     OW31687   2.620  10.544   7.336 -0.3438 -0.1149 -0.6223
 8532SOL    HW131688   2.687  10.555   7.269  0.5003  0.3356  0.2618
 8532SOL    HW231689   2.612  10.450   7.348  0.1212 -0.1723 -0.7580
 8533SOL     OW31690   1.554   2.786   0.017  0.0555  0.5572 -0.3142
 8533SOL    HW131691   1.488   2.794   0.087  0.1380  0.4803 -0.2269
 8533SOL    HW231692   1.544   2.696  -0.014 -0.9407  1.0100 -1.3635
 8534SOL     OW31693   4.013   3.014   5.819 -0.2930  0.1426  0.3439
 8534SOL    HW131694   4.003   3.017   5.723 -1.6731 -2.4749  0.2948
 8534SOL    HW231695   4.030   3.104   5.844  2.9069  0.5825 -2.5857
 8535SOL     OW31696   6.556  10.838   4.672 -0.3128 -0.5622 -0.0824
 8535SOL    HW131697   6.525  10.752   4.702 -0.4981 -0.4307  0.1015
 8535SOL    HW231698   6.497  10.861   4.600 -0.1327 -0.6816 -0.2717
 8536SOL     OW31699   6.923  10.426   0.308  0.2435  0.1081 -0.7160
 8536SOL    HW131700   7.013  10.435   0.278  0.9057  1.0964  1.3867
 8536SOL    HW231701   6.930  10.420   0.403 -1.9877  1.3336 -0.4079
 8537SOL     OW31702   1.061   6.087   0.864 -0.4145 -0.2211  0.5411
 8537SOL    HW131703   1.017   6.092   0.779  1.4243 -0.3911 -0.4637
 8537SOL    HW231704   1.037   6.001   0.899  2.4261 -2.2047 -1.9586
 8538SOL     OW31705   4.986  10.664   5.710  0.0644 -0.1459 -0.5620
 8538SOL    HW131706   5.081  10.665   5.723  0.0194 -0.8247 -0.1548
 8538SOL    HW231707   4.951  10.714   5.784  0.1135  0.2130 -0.7822
 8539SOL     OW31708   2.174   4.591   4.959  0.0401 -0.3776 -0.4837
 8539SOL    HW131709   2.233   4.665   4.943 -1.4169  1.4190  1.8302
 8539SOL    HW231710   2.088   4.622   4.930 -1.2537  0.3011  3.4926
 8540SOL     OW31711   1.617   8.874   2.128  0.0673 -0.2851 -0.2678
 8540SOL    HW131712   1.607   8.779   2.133  0.2554 -0.3771 -1.2724
 8540SOL    HW231713   1.544   8.903   2.073 -1.4963  0.4837  2.1091
 8541SOL     OW31714   6.993  10.256   1.022 -0.2016 -0.2822  0.2787
 8541SOL    HW131715   6.905  10.257   0.983 -0.4147 -1.5451  0.6692
 8541SOL    HW231716   7.047  10.210   0.958 -0.1997 -0.9471  0.7434
 8542SOL     OW31717   6.862   5.140   5.433  0.0923  0.1667 -0.1323
 8542SOL    HW131718   6.874   5.074   5.365 -0.9882 -1.1164  0.8908
 8542SOL    HW231719   6.946   5.187   5.435  0.8300 -1.0551 -0.9837
 8543SOL     OW31720   9.412   1.774   8.839 -0.9159 -0.1749 -1.1068
 8543SOL    HW131721   9.500   1.740   8.856 -1.0397  0.7364  2.0521
 8543SOL    HW231722   9.372   1.707   8.783  1.2403 -1.4235 -1.3002
 8544SOL     OW31723   8.035   6.710   9.378 -0.1949  0.4044  0.9233
 8544SOL    HW131724   8.062   6.792   9.419  0.1988  0.4735  0.5363
 8544SOL    HW231725   7.945   6.725   9.350 -0.2529  0.5693  1.1929
 8545SOL     OW31726   7.952   5.330   9.756  0.1181 -0.2459 -0.0714
 8545SOL    HW131727   7.989   5.243   9.747 -1.2327 -0.8451 -0.0333
 8545SOL    HW231728   7.888   5.337   9.686  1.2393  1.3029 -1.0232
 8546SOL     OW31729   3.227   0.420  10.085 -0.2090  0.0532  0.2482
 8546SOL    HW131730   3.246   0.396   9.995 -0.1463 -0.5994  0.4271
 8546SOL    HW231731   3.201   0.337  10.127  0.4027  0.2197  0.9842
 8547SOL     OW31732   8.526   0.787   9.764 -0.7910  0.4975 -0.4400
 8547SOL    HW131733   8.500   0.705   9.806 -0.1517  0.3882 -0.2401
 8547SOL    HW231734   8.584   0.829   9.828 -0.6897  0.8513 -0.7619
 8548SOL     OW31735   2.696  10.284   8.821 -0.0482  0.3948 -0.2685
 8548SOL    HW131736   2.623  10.332   8.859  0.6701  0.5646  0.9443
 8548SOL    HW231737   2.677  10.282   8.727 -0.5646  2.1997 -0.2286
 8549SOL     OW31738   7.403   5.701   1.142  0.3797  0.1393  0.0448
 8549SOL    HW131739   7.416   5.788   1.105  0.7178 -0.1978 -0.6537
 8549SOL    HW231740   7.338   5.660   1.085  0.5782 -0.2297  0.0812
 8550SOL     OW31741   5.293   4.058   2.399  0.2998 -0.4044 -0.2722
 8550SOL    HW131742   5.295   4.153   2.394  0.0105 -0.3718  0.1851
 8550SOL    HW231743   5.202   4.035   2.381  0.1852 -0.5421  0.4721
 8551SOL     OW31744   2.071   8.609   6.137 -0.5746  0.5365  0.1351
 8551SOL    HW131745   2.106   8.637   6.221 -0.1406 -1.2353  0.5871
 8551SOL    HW231746   1.982   8.578   6.157 -0.3580 -0.1819  0.0110
 8552SOL     OW31747   3.749   7.612   7.990 -0.1225 -0.4058 -0.6827
 8552SOL    HW131748   3.661   7.644   7.969 -0.7409 -0.9581  0.9624
 8552SOL    HW231749   3.805   7.652   7.923 -1.8883 -1.6923 -3.1042
 8553SOL     OW31750   7.560   2.167   4.752  0.2983  0.1427 -0.1699
 8553SOL    HW131751   7.534   2.256   4.776 -0.2430  0.6146 -2.2686
 8553SOL    HW231752   7.638   2.179   4.698 -0.6748 -0.4697 -1.7946
 8554SOL     OW31753   8.599   4.751   8.742 -0.3876  0.1839 -0.2300
 8554SOL    HW131754   8.547   4.704   8.807  1.4859 -3.2383 -0.9767
 8554SOL    HW231755   8.662   4.802   8.794 -2.6425  2.3655  0.6015
 8555SOL     OW31756   8.219   7.800   8.119  0.0237  0.0971  0.2161
 8555SOL    HW131757   8.216   7.783   8.025  1.4889 -2.5883  0.5441
 8555SOL    HW231758   8.229   7.895   8.126  0.4678  0.3146 -2.3451
 8556SOL     OW31759   4.790   5.490   0.972  0.4873  0.7392 -0.0347
 8556SOL    HW131760   4.804   5.467   0.880  1.0106 -1.6279  0.5780
 8556SOL    HW231761   4.860   5.444   1.019 -0.2172  1.3008  1.6303
 8557SOL     OW31762   0.749   3.305   8.109 -0.3501  0.5492 -0.2185
 8557SOL    HW131763   0.823   3.252   8.082 -1.2472 -0.6118 -0.4448
 8557SOL    HW231764   0.720   3.266   8.192  0.3244  2.0445  0.7760
 8558SOL     OW31765   9.102   1.606   5.824 -0.0610  0.4148  0.0231
 8558SOL    HW131766   9.165   1.545   5.861 -0.3473 -1.1857 -1.9233
 8558SOL    HW231767   9.029   1.606   5.886  1.1448  1.0860  1.5101
 8559SOL     OW31768   3.276   3.668   5.180  0.0745  0.2282  0.7716
 8559SOL    HW131769   3.267   3.729   5.107  1.1105 -0.0718  0.3777
 8559SOL    HW231770   3.196   3.617   5.179  0.1862  0.0473 -0.3231
 8560SOL     OW31771   1.316   1.741   1.945 -0.9345 -0.2873  0.1021
 8560SOL    HW131772   1.308   1.677   1.874  0.2458  1.2713 -1.5471
 8560SOL    HW231773   1.365   1.696   2.013 -1.2092 -1.5246 -0.4899
 8561SOL     OW31774   7.025   2.204   2.837  0.6953  0.2402  0.5711
 8561SOL    HW131775   7.041   2.184   2.929 -0.2762 -2.6265  0.1908
 8561SOL    HW231776   6.936   2.238   2.834  0.5846 -0.0425  0.6482
 8562SOL     OW31777   0.646  10.068  10.732  0.2829 -0.2383 -0.5574
 8562SOL    HW131778   0.588  10.036  10.801  1.5416  0.6672  0.9695
 8562SOL    HW231779   0.691   9.990  10.700  0.8567 -0.4655  0.7655
 8563SOL     OW31780  10.631   4.002   7.239 -0.7027 -0.2127 -0.0407
 8563SOL    HW131781  10.702   4.040   7.186  0.1980 -1.4621  0.2095
 8563SOL    HW231782  10.553   4.051   7.215  0.2148  1.0726 -0.4842
 8564SOL     OW31783   0.225   9.664   1.182 -0.1742  0.2141  0.1022
 8564SOL    HW131784   0.191   9.625   1.262 -1.6205  0.3146 -0.4201
 8564SOL    HW231785   0.223   9.594   1.117  1.1677  0.0801  0.1809
 8565SOL     OW31786   9.672   6.953   8.186  0.0522  0.3227 -0.2548
 8565SOL    HW131787   9.760   6.988   8.202 -0.6872  1.5001  1.5543
 8565SOL    HW231788   9.644   6.994   8.104  0.6449  1.0878 -0.0851
 8566SOL     OW31789   1.388   2.851   0.246 -0.3039  0.7310  0.0794
 8566SOL    HW131790   1.397   2.882   0.336 -1.1650  0.5329  0.2456
 8566SOL    HW231791   1.324   2.780   0.251 -0.6102  0.9367 -0.7343
 8567SOL     OW31792   0.285   1.864   1.200 -0.0692  0.1285 -0.2035
 8567SOL    HW131793   0.289   1.823   1.114 -1.7283 -0.6623  0.0442
 8567SOL    HW231794   0.293   1.791   1.261 -1.3225  0.3727  0.2745
 8568SOL     OW31795   6.928   7.171   3.049 -0.5656  0.0028  0.1902
 8568SOL    HW131796   7.010   7.219   3.066 -1.1350  1.2621 -0.4406
 8568SOL    HW231797   6.954   7.099   2.992 -0.0758  1.2749 -1.2880
 8569SOL     OW31798   2.836   8.751   0.738  0.5896 -0.0719  0.3263
 8569SOL    HW131799   2.903   8.777   0.675  0.1118 -1.8076 -0.9680
 8569SOL    HW231800   2.761   8.806   0.718  0.6939 -0.0918 -0.1325
 8570SOL     OW31801   3.624   9.823   8.390 -0.3738  0.5078 -0.1489
 8570SOL    HW131802   3.619   9.916   8.412  2.6381  0.5078  1.0009
 8570SOL    HW231803   3.533   9.794   8.390 -1.3341  3.2107  0.5087
 8571SOL     OW31804   0.469   1.959   7.571 -0.0148 -0.3262 -0.8602
 8571SOL    HW131805   0.427   2.045   7.583 -0.6184 -0.4521 -1.9241
 8571SOL    HW231806   0.453   1.914   7.654 -1.3379 -0.0765 -0.9468
 8572SOL     OW31807   5.167   7.032   1.632 -0.1386 -0.0501  0.6687
 8572SOL    HW131808   5.182   6.995   1.545 -1.6489 -2.2887  1.2867
 8572SOL    HW231809   5.254   7.037   1.672  0.5076  0.5380 -0.7475
 8573SOL     OW31810   5.658   4.136   5.482  0.3880  0.6022  0.1205
 8573SOL    HW131811   5.738   4.117   5.531  0.8664  0.7262 -0.6127
 8573SOL    HW231812   5.617   4.208   5.531  1.0602  0.9905  0.1222
 8574SOL     OW31813  10.683   1.149   8.990  0.1679  0.5148  0.1022
 8574SOL    HW131814  10.778   1.159   8.990  0.1717  0.8921 -1.9558
 8574SOL    HW231815  10.657   1.171   9.079  1.8575  1.9718  0.2947
 8575SOL     OW31816   5.159   7.062   8.287  0.0654 -0.7791 -0.4572
 8575SOL    HW131817   5.103   6.987   8.265  0.2467 -1.3152  0.8327
 8575SOL    HW231818   5.197   7.039   8.371 -0.5314  1.1381  0.3774
 8576SOL     OW31819   8.581   8.242   7.572  0.5530  0.4902 -0.3523
 8576SOL    HW131820   8.610   8.326   7.608 -0.3786  0.4466  0.5504
 8576SOL    HW231821   8.658   8.186   7.576  0.3033  0.1834  2.5847
 8577SOL     OW31822   0.287   7.872   3.141 -0.1669 -0.4665  0.5531
 8577SOL    HW131823   0.201   7.885   3.181 -0.1272  0.7349  0.2984
 8577SOL    HW231824   0.268   7.836   3.054 -0.4483  0.1788  0.3386
 8578SOL     OW31825   6.367   0.614   2.944  0.2987 -0.3465  0.4171
 8578SOL    HW131826   6.452   0.649   2.917  0.8539 -1.3022  0.8894
 8578SOL    HW231827   6.323   0.688   2.986  0.9453  0.1239  0.2829
 8579SOL     OW31828   7.818   6.704   0.263  0.7720 -0.1293  0.2597
 8579SOL    HW131829   7.884   6.653   0.216 -1.3544 -1.1833 -1.8280
 8579SOL    HW231830   7.747   6.641   0.279 -0.4998  1.3743  0.7814
 8580SOL     OW31831   0.333   3.207   9.867  0.3052  0.0665 -0.0835
 8580SOL    HW131832   0.415   3.234   9.824 -0.1772 -1.0528 -1.8387
 8580SOL    HW231833   0.310   3.125   9.824 -0.9611 -0.4403  1.4586
 8581SOL     OW31834   7.933   6.729   9.689  0.5165 -0.8159 -0.3552
 8581SOL    HW131835   7.879   6.695   9.618 -1.0986  1.2495 -0.2038
 8581SOL    HW231836   7.981   6.802   9.650 -0.4578  0.4003  0.6111
 8582SOL     OW31837   0.291   0.923   5.073  0.2985 -0.5628 -0.2344
 8582SOL    HW131838   0.326   0.876   4.997 -0.8168  1.4534 -2.1564
 8582SOL    HW231839   0.203   0.888   5.085  0.0664 -0.1255 -0.6186
 8583SOL     OW31840   9.699   2.202   9.170 -0.3969  0.2688  0.4884
 8583SOL    HW131841   9.733   2.219   9.082  0.0718 -1.5023  0.2934
 8583SOL    HW231842   9.773   2.221   9.228 -0.9695  2.3134  0.6317
 8584SOL     OW31843   4.613   6.863   9.151  0.0404  0.1227  0.2054
 8584SOL    HW131844   4.568   6.782   9.130 -0.0112  0.0456  0.6082
 8584SOL    HW231845   4.706   6.843   9.138  0.0631 -0.1338  0.7154
 8585SOL     OW31846   3.495   8.897  10.329 -0.1066 -0.1224 -0.4644
 8585SOL    HW131847   3.475   8.837  10.402 -2.0688 -0.0190 -0.8637
 8585SOL    HW231848   3.463   8.851  10.251  2.4212 -0.4540 -1.3960
 8586SOL     OW31849   8.699   0.776   8.150 -0.1989 -0.2949  0.1000
 8586SOL    HW131850   8.676   0.809   8.063 -0.0352  0.0786  0.1987
 8586SOL    HW231851   8.795   0.779   8.153 -0.1490 -1.3279 -0.1055
 8587SOL     OW31852   5.512   6.319   5.821  0.6119 -0.2616  0.6948
 8587SOL    HW131853   5.535   6.398   5.772  0.3553 -1.1370 -0.9377
 8587SOL    HW231854   5.448   6.275   5.765  0.6807 -1.5705  1.6086
 8588SOL     OW31855   2.811   5.365   0.940 -0.3100  0.0448  0.3565
 8588SOL    HW131856   2.857   5.393   0.861  1.2054 -2.2118  0.3208
 8588SOL    HW231857   2.722   5.344   0.910  0.5564 -1.9451 -1.1152
 8589SOL     OW31858   4.643   5.925   9.140 -0.6373 -0.4769  0.1824
 8589SOL    HW131859   4.619   5.978   9.217 -1.1267 -1.7341  0.9250
 8589SOL    HW231860   4.597   5.967   9.067  0.6907  1.3827  0.3471
 8590SOL     OW31861   1.599   9.182   6.748  0.0966  0.2025 -0.1674
 8590SOL    HW131862   1.633   9.148   6.831 -0.5627 -0.6849 -0.2500
 8590SOL    HW231863   1.674   9.226   6.708  0.7960 -0.5497  0.2773
 8591SOL     OW31864   3.766   9.236   2.119  0.1224  0.5889 -0.6099
 8591SOL    HW131865   3.708   9.200   2.187  1.4356  1.1534  0.8810
 8591SOL    HW231866   3.725   9.319   2.095 -0.9548 -0.1297 -1.3835
 8592SOL     OW31867   2.642   9.016   2.387 -0.2071  0.2323 -0.7199
 8592SOL    HW131868   2.644   9.058   2.474  0.5791 -1.0475 -0.0842
 8592SOL    HW231869   2.555   8.977   2.381 -0.6306  1.1872 -0.9499
 8593SOL     OW31870   0.351   2.081   1.078 -0.5080 -0.2736  0.0259
 8593SOL    HW131871   0.363   1.998   1.125  1.4188 -0.3689 -0.5200
 8593SOL    HW231872   0.340   2.146   1.148 -0.2903 -0.7628  0.5293
 8594SOL     OW31873   7.535   6.556   7.684  0.0509 -0.0166  0.1790
 8594SOL    HW131874   7.577   6.635   7.720 -0.3968 -0.8910  2.8166
 8594SOL    HW231875   7.463   6.538   7.744 -1.9296 -0.6186 -2.2402
 8595SOL     OW31876   0.920   1.935   2.244  0.2756  0.1663  0.3740
 8595SOL    HW131877   0.954   1.936   2.155 -2.4550  0.5752 -0.7684
 8595SOL    HW231878   0.975   1.872   2.290  0.3656 -1.8499 -2.2307
 8596SOL     OW31879   9.987   4.421   7.668 -0.4851 -0.3350  0.0197
 8596SOL    HW131880   9.999   4.441   7.760  0.1543  0.4433 -0.2257
 8596SOL    HW231881  10.068   4.449   7.626 -1.5819  1.3351 -1.0985
 8597SOL     OW31882   3.620   8.916   5.952 -0.1217  0.0291  0.3835
 8597SOL    HW131883   3.645   8.964   6.031 -0.6081 -0.3437  0.7701
 8597SOL    HW231884   3.680   8.841   5.950  0.2184  0.3093  0.1278
 8598SOL     OW31885   9.521   8.839   8.047  0.1720  0.6258 -0.2504
 8598SOL    HW131886   9.613   8.851   8.021  1.3056 -2.5579  1.7352
 8598SOL    HW231887   9.483   8.786   7.976  1.2011 -1.7554  0.8539
 8599SOL     OW31888   4.663   9.500   0.975 -0.0117  0.4735  0.3581
 8599SOL    HW131889   4.633   9.486   0.885  1.9007 -1.8765 -0.0149
 8599SOL    HW231890   4.706   9.585   0.972 -1.3073  1.1430 -0.5244
 8600SOL     OW31891   9.424   3.565   6.787  0.7336 -0.2589 -0.1645
 8600SOL    HW131892   9.348   3.570   6.845 -0.0031  1.6926 -1.2303
 8600SOL    HW231893   9.388   3.556   6.699  1.7669 -0.1620 -0.6208
 8601SOL     OW31894   4.392   3.838   6.084  0.2589  1.0700  0.4551
 8601SOL    HW131895   4.410   3.753   6.123  0.7138 -0.5135 -2.8273
 8601SOL    HW231896   4.313   3.824   6.031  0.6157  2.5265 -0.5383
 8602SOL     OW31897   3.221   2.784   8.055  0.3571  0.7487  0.3161
 8602SOL    HW131898   3.215   2.701   8.102  0.7392  0.3971 -0.2391
 8602SOL    HW231899   3.152   2.838   8.092  1.6033  1.0301  2.3599
 8603SOL     OW31900   1.531   5.150   8.144 -0.0216 -0.3248  0.0578
 8603SOL    HW131901   1.537   5.116   8.234  0.4452 -1.3863 -0.3514
 8603SOL    HW231902   1.507   5.073   8.092 -2.7009  0.7399 -0.4362
 8604SOL     OW31903   5.675   4.286   0.080 -0.0450  0.0344 -0.5606
 8604SOL    HW131904   5.625   4.266   0.001 -0.7782  0.1269 -0.1230
 8604SOL    HW231905   5.643   4.371   0.109 -0.1758 -0.2434  0.1436
 8605SOL     OW31906   5.993   7.873   5.807 -0.4236  0.7697 -0.7368
 8605SOL    HW131907   5.939   7.822   5.748 -1.0181  2.5529 -1.8074
 8605SOL    HW231908   6.015   7.952   5.757 -0.3294  2.0020  1.1520
 8606SOL     OW31909   1.926   8.329   8.629  0.1638 -0.0237 -0.3296
 8606SOL    HW131910   1.947   8.360   8.541 -1.8264  0.7316 -0.5922
 8606SOL    HW231911   1.853   8.268   8.616 -0.0946  0.0346  0.7706
 8607SOL     OW31912   1.449   6.393   7.831  0.2129  0.6674 -0.1613
 8607SOL    HW131913   1.434   6.325   7.897  0.9892  0.4157 -0.2327
 8607SOL    HW231914   1.417   6.474   7.872 -1.3153  0.1682 -0.3309
 8608SOL     OW31915   3.481   3.428   8.501  0.0357 -0.2446 -0.1508
 8608SOL    HW131916   3.540   3.384   8.441  1.6051  0.0730  1.0976
 8608SOL    HW231917   3.447   3.502   8.450  1.8193  0.3947 -0.4992
 8609SOL     OW31918   7.285   7.485   4.957  0.2253  0.2187  0.0641
 8609SOL    HW131919   7.298   7.391   4.946 -1.7345  0.1006 -1.9294
 8609SOL    HW231920   7.346   7.525   4.895  0.6090  0.2502  0.4570
 8610SOL     OW31921  10.599  10.090   9.038  0.2581  0.1276  0.0298
 8610SOL    HW131922  10.505  10.091   9.018  0.4072  0.5794 -0.6634
 8610SOL    HW231923  10.636  10.160   8.985  1.2967 -1.3368 -1.2582
 8611SOL     OW31924   4.802   9.474   2.776  0.6340  0.6327 -0.3717
 8611SOL    HW131925   4.892   9.483   2.744  0.6746 -0.0391 -0.4705
 8611SOL    HW231926   4.748   9.490   2.699  0.7165 -0.3939 -0.6658
 8612SOL     OW31927   3.441   1.825   3.613  0.3735 -0.6077 -0.5351
 8612SOL    HW131928   3.534   1.809   3.629  0.5976  1.0140  0.0005
 8612SOL    HW231929   3.432   1.822   3.518  1.1969  0.2166 -0.6571
 8613SOL     OW31930   3.383   4.031   7.895 -0.0452 -0.5191 -0.5234
 8613SOL    HW131931   3.429   3.948   7.880  1.0868  0.2544 -1.5497
 8613SOL    HW231932   3.444   4.098   7.864 -0.5919  0.7772  1.0638
 8614SOL     OW31933   5.759   4.320   8.087 -0.5898  0.7423 -0.3121
 8614SOL    HW131934   5.674   4.332   8.043 -0.7656 -2.0974 -0.9768
 8614SOL    HW231935   5.823   4.327   8.016 -0.6255 -0.7714 -0.5325
 8615SOL     OW31936   6.050   2.687   1.697 -0.5099  0.1380 -0.2875
 8615SOL    HW131937   6.073   2.780   1.702 -1.6775  0.5238 -1.5567
 8615SOL    HW231938   6.097   2.654   1.621  0.0360 -0.3629  0.2603
 8616SOL     OW31939   3.704   1.759   1.718 -0.0414  0.2481 -0.6512
 8616SOL    HW131940   3.757   1.744   1.640  0.9669  1.0464 -0.1380
 8616SOL    HW231941   3.705   1.675   1.764 -0.6381 -0.2260 -1.4787
 8617SOL     OW31942   3.728   5.184   6.050 -0.1172  0.2193  0.3218
 8617SOL    HW131943   3.680   5.136   6.118 -1.6033  0.6678 -0.3658
 8617SOL    HW231944   3.734   5.123   5.977 -1.8904  0.9282 -0.5035
 8618SOL     OW31945   5.360   1.198   8.260 -0.2055 -0.2830 -0.1673
 8618SOL    HW131946   5.385   1.169   8.347 -0.5921 -0.5826 -0.1569
 8618SOL    HW231947   5.360   1.294   8.265 -1.3260 -0.3009  0.4776
 8619SOL     OW31948   3.055   8.679   0.381 -0.0435 -0.5383  0.0279
 8619SOL    HW131949   3.107   8.744   0.429 -1.4393  0.9976 -0.4334
 8619SOL    HW231950   3.110   8.600   0.380  1.0308  0.1066  2.0436
 8620SOL     OW31951   4.448   5.661   9.334 -0.4437  0.3289 -0.2115
 8620SOL    HW131952   4.527   5.658   9.279  0.3465  0.6083  0.8692
 8620SOL    HW231953   4.481   5.685   9.421 -1.6479 -0.2200  0.4130
 8621SOL     OW31954   0.399   1.932   3.030  0.7608  0.4414  0.0976
 8621SOL    HW131955   0.440   2.018   3.020 -0.4233  0.8829 -1.1743
 8621SOL    HW231956   0.306   1.951   3.046  0.5868 -0.5938  0.3959
 8622SOL     OW31957   4.206   6.987   3.489 -0.2581 -0.2968 -0.2739
 8622SOL    HW131958   4.232   6.974   3.398  0.8125 -0.6757  0.0689
 8622SOL    HW231959   4.184   7.080   3.495 -1.0293 -0.4145 -1.0714
 8623SOL     OW31960  10.637   2.436   8.962  0.2395  0.4081 -0.0868
 8623SOL    HW131961  10.716   2.425   9.015 -0.2207  0.3273  0.5962
 8623SOL    HW231962  10.588   2.355   8.975  1.1449 -0.6037 -2.4374
 8624SOL     OW31963   9.246   7.744   7.746 -0.1875  0.2895 -0.3483
 8624SOL    HW131964   9.309   7.700   7.803 -1.5465 -1.6824 -0.3003
 8624SOL    HW231965   9.266   7.711   7.659  0.4480  1.6252 -0.7457
 8625SOL     OW31966   9.646   5.792   0.040 -0.0443  0.5992 -0.2370
 8625SOL    HW131967   9.623   5.809  -0.051 -2.6211 -0.2902  0.1615
 8625SOL    HW231968   9.599   5.859   0.089 -1.1402 -0.7049  0.5819
 8626SOL     OW31969   8.819   9.261   1.278 -0.1362  0.4778  0.0412
 8626SOL    HW131970   8.830   9.234   1.187  0.9370  1.7176 -0.2265
 8626SOL    HW231971   8.883   9.210   1.327 -0.5926 -0.0606  0.0859
 8627SOL     OW31972   7.316   9.500   6.691  0.2953  1.0049 -0.4138
 8627SOL    HW131973   7.384   9.520   6.755 -1.1124  1.0336  1.1479
 8627SOL    HW231974   7.285   9.586   6.661 -0.2584  1.0290  0.2191
 8628SOL     OW31975   6.687   6.703   0.001  0.4798 -0.1011  0.4326
 8628SOL    HW131976   6.671   6.632   0.063  0.3365  0.0880  0.6120
 8628SOL    HW231977   6.675   6.663  -0.085 -0.6952 -0.0308  0.5506
 8629SOL     OW31978   1.084   4.715   9.603  0.2855 -0.0920  0.3466
 8629SOL    HW131979   1.144   4.724   9.677 -0.9223 -1.8149  1.6291
 8629SOL    HW231980   1.004   4.759   9.633  0.5377  1.2970 -0.9345
 8630SOL     OW31981   8.626   4.196   9.494 -1.0448  0.1526  0.2776
 8630SOL    HW131982   8.630   4.102   9.509  0.3868  0.2190  0.4768
 8630SOL    HW231983   8.544   4.224   9.535 -1.0831 -0.8830  0.9287
 8631SOL     OW31984   2.756   0.028   7.062  0.5378 -0.3488  0.0714
 8631SOL    HW131985   2.798  -0.038   7.008  0.0498 -1.0498  0.5402
 8631SOL    HW231986   2.697  -0.021   7.120 -1.7267  0.6514 -1.2541
 8632SOL     OW31987   0.186   4.763  10.860 -0.1002  0.2655 -0.1843
 8632SOL    HW131988   0.210   4.781  10.951  0.3806  0.8419 -0.4164
 8632SOL    HW231989   0.211   4.843  10.813  1.4753 -0.7439 -1.1503
 8633SOL     OW31990   2.029  10.048   4.175 -0.0656 -0.5513  0.0754
 8633SOL    HW131991   2.065  10.126   4.218  1.1795 -0.9439 -0.2244
 8633SOL    HW231992   1.967  10.013   4.238 -0.1656  0.3212  0.4862
 8634SOL     OW31993  10.808  10.335   8.671  0.4159 -0.2017 -0.3833
 8634SOL    HW131994  10.882  10.364   8.724  0.3996  0.4340 -0.6986
 8634SOL    HW231995  10.793  10.407   8.610 -2.0977  0.8392  1.3086
 8635SOL     OW31996  10.487   3.862   8.069  0.0107  0.4800  0.3068
 8635SOL    HW131997  10.549   3.934   8.079 -0.0652  0.3993  1.4981
 8635SOL    HW231998  10.471   3.856   7.975  1.3682  0.8691  0.0366
 8636SOL     OW31999   2.390   0.811   2.503 -0.0251  0.0434  0.3106
 8636SOL    HW132000   2.474   0.790   2.461  0.0230 -1.6225  1.1229
 8636SOL    HW232001   2.337   0.732   2.489 -0.6990  0.2485  1.6036
 8637SOL     OW32002   8.918   6.281   3.298 -0.4539  0.0067 -0.4439
 8637SOL    HW132003   8.823   6.279   3.288 -0.7651  1.2050  1.6162
 8637SOL    HW232004   8.931   6.302   3.391  1.8349 -0.5214 -0.5930
 8638SOL     OW32005   3.938   1.849   8.858  0.4718  0.1006  0.1569
 8638SOL    HW132006   3.928   1.784   8.789  4.1718 -0.9815  0.4598
 8638SOL    HW232007   3.946   1.797   8.938 -0.7511  1.1981  1.0345
 8639SOL     OW32008   5.302   7.555   8.268  0.3011 -0.1456  0.1364
 8639SOL    HW132009   5.345   7.470   8.279  0.9889  0.1391 -0.2969
 8639SOL    HW232010   5.219   7.534   8.225 -0.1371 -0.7272  1.2296
 8640SOL     OW32011   1.399   1.289   8.643 -0.2327 -0.0035 -0.3172
 8640SOL    HW132012   1.357   1.329   8.719  0.0524 -0.1896 -0.0566
 8640SOL    HW232013   1.382   1.195   8.654  0.8301 -0.1560  0.1634
 8641SOL     OW32014  10.698   3.784   0.836 -0.3768 -0.2285  0.2133
 8641SOL    HW132015  10.788   3.808   0.813 -0.1574 -2.3982 -1.5283
 8641SOL    HW232016  10.708   3.722   0.908 -0.6534  0.9956  1.3513
 8642SOL     OW32017   9.187   7.561   3.501  0.1528 -0.4134  0.3356
 8642SOL    HW132018   9.268   7.516   3.478 -0.2315 -0.8396 -0.2053
 8642SOL    HW232019   9.156   7.516   3.580 -0.0041 -0.8246  0.0434
 8643SOL     OW32020   6.263   7.525   3.511  0.8575  0.3316  0.1163
 8643SOL    HW132021   6.277   7.431   3.505  0.4613  0.3012 -0.3334
 8643SOL    HW232022   6.172   7.538   3.485  0.5033  0.7064  1.4321
 8644SOL     OW32023   1.751  10.440   2.329 -0.0872  0.4210 -0.1237
 8644SOL    HW132024   1.662  10.433   2.293 -0.3849 -2.4188  0.8847
 8644SOL    HW232025   1.749  10.519   2.383 -1.8468  0.6606 -0.4807
 8645SOL     OW32026   6.404   6.613   8.876  0.1842  0.2004  0.1250
 8645SOL    HW132027   6.467   6.631   8.946  1.1093 -1.0871 -0.3249
 8645SOL    HW232028   6.321   6.602   8.921  1.0401 -2.2317  1.2821
 8646SOL     OW32029   6.778   1.754   4.975  0.1425  0.0441 -0.2326
 8646SOL    HW132030   6.853   1.772   4.918 -0.2562 -0.3685 -0.9053
 8646SOL    HW232031   6.723   1.696   4.923 -0.5846  0.2471  0.3036
 8647SOL     OW32032   0.256   1.356   0.629  0.1774 -0.1245  0.2031
 8647SOL    HW132033   0.207   1.275   0.641  0.4252 -0.3086 -0.0122
 8647SOL    HW232034   0.219   1.417   0.693 -0.4461 -0.2069 -0.0758
 8648SOL     OW32035  10.527   8.962   5.408 -0.3633  0.3165  0.0348
 8648SOL    HW132036  10.487   9.047   5.387 -2.1880 -0.7847 -1.2131
 8648SOL    HW232037  10.455   8.909   5.442  0.3297 -1.2737 -0.8470
 8649SOL     OW32038   2.443   1.296   9.124 -0.2049 -0.1206  0.0656
 8649SOL    HW132039   2.381   1.333   9.187 -0.4435  0.4517 -0.4916
 8649SOL    HW232040   2.459   1.207   9.156 -0.3487  0.1439  0.9057
 8650SOL     OW32041   7.448   0.009   2.799 -0.7669 -0.4446  0.0887
 8650SOL    HW132042   7.463  -0.068   2.852 -0.1963 -2.2894 -2.5558
 8650SOL    HW232043   7.526   0.016   2.743 -0.9362  1.8855  0.0302
 8651SOL     OW32044   8.554   0.919   5.787  0.3486  0.0224  0.2543
 8651SOL    HW132045   8.552   0.925   5.692  0.3724 -0.8512  0.1878
 8651SOL    HW232046   8.637   0.874   5.806  0.6361  0.7299  0.7252
 8652SOL     OW32047   2.174   1.668   2.906 -0.6741  0.9526  0.2476
 8652SOL    HW132048   2.127   1.736   2.858 -0.6107  1.0936  0.3837
 8652SOL    HW232049   2.185   1.704   2.994 -0.7499  0.7153  0.3564
 8653SOL     OW32050   7.805   5.857   4.948 -0.1923  0.2181 -0.3661
 8653SOL    HW132051   7.886   5.815   4.975 -0.2271  0.9082  0.8631
 8653SOL    HW232052   7.786   5.921   5.016 -1.7358  0.1208 -0.6522
 8654SOL     OW32053   0.062   9.866   4.933  0.4714  0.1261  0.4077
 8654SOL    HW132054   0.052   9.847   5.026 -0.5444 -1.2569  0.0479
 8654SOL    HW232055   0.057   9.781   4.890 -0.1418  0.8282 -0.9969
 8655SOL     OW32056   9.645   8.575   5.726 -0.6124 -0.1764 -0.1755
 8655SOL    HW132057   9.710   8.511   5.695 -1.0693 -0.2401 -1.0333
 8655SOL    HW232058   9.685   8.613   5.805  0.8476  0.3584 -1.1142
 8656SOL     OW32059   5.987   2.094   8.590  0.1173  0.3651  0.0725
 8656SOL    HW132060   5.953   2.175   8.628  1.5741  0.7695  0.5490
 8656SOL    HW232061   5.970   2.027   8.657  0.3024  0.5669  0.3212
 8657SOL     OW32062   2.006   6.980   2.601 -1.0429  0.3692 -0.5710
 8657SOL    HW132063   2.008   6.885   2.607 -0.5272  0.3713 -0.7031
 8657SOL    HW232064   1.914   7.001   2.582 -1.2443 -0.0704 -0.1127
 8658SOL     OW32065   6.214  10.107   7.066  0.3906  0.2085 -0.3578
 8658SOL    HW132066   6.166  10.050   7.006 -0.7143 -0.6308  1.2752
 8658SOL    HW232067   6.306  10.086   7.050  0.0217 -2.9765  0.9998
 8659SOL     OW32068  10.179   7.235   0.174 -0.4429 -0.0382  0.1531
 8659SOL    HW132069  10.193   7.308   0.114 -0.9313 -0.3192 -0.3079
 8659SOL    HW232070  10.258   7.181   0.164  0.3616  0.8873  1.1940
 8660SOL     OW32071   7.449   4.193   6.631  0.5121 -0.6640 -0.1695
 8660SOL    HW132072   7.482   4.261   6.690  2.1928 -1.7036  0.1571
 8660SOL    HW232073   7.367   4.165   6.669  1.3249 -0.9676  1.4228
 8661SOL     OW32074   9.097   7.376   1.372 -0.2177 -0.2013  0.4847
 8661SOL    HW132075   9.051   7.325   1.306  1.8902 -0.9000 -0.5403
 8661SOL    HW232076   9.149   7.439   1.322  1.2973 -0.6290  1.4384
 8662SOL     OW32077   5.200   1.039   9.648 -0.0549 -0.3308  0.2771
 8662SOL    HW132078   5.231   1.006   9.732  0.1177 -3.0302 -0.7637
 8662SOL    HW232079   5.263   1.108   9.625 -0.8422  1.4138  2.8570
 8663SOL     OW32080   9.925   9.697   4.535  0.3323 -0.6170  0.2476
 8663SOL    HW132081  10.019   9.713   4.527  0.7255 -2.9887 -1.1053
 8663SOL    HW232082   9.887   9.781   4.560  2.8900  0.1921  1.7036
 8664SOL     OW32083   1.451   7.069   1.870  0.1772  0.1093 -0.6737
 8664SOL    HW132084   1.440   7.042   1.962 -0.4082 -1.1386 -1.0813
 8664SOL    HW232085   1.445   6.987   1.821  2.3612  0.4931 -1.7016
 8665SOL     OW32086   8.826   9.723   8.569 -0.3109  0.2038 -0.6775
 8665SOL    HW132087   8.816   9.785   8.498 -1.7630  1.3483  0.4575
 8665SOL    HW232088   8.742   9.677   8.573 -0.5605  0.7289  0.7622
 8666SOL     OW32089   3.460   0.302   5.472  0.2474 -0.1121  0.1698
 8666SOL    HW132090   3.475   0.255   5.390  0.4937  0.3013 -0.0207
 8666SOL    HW232091   3.534   0.277   5.527  0.6855  0.4951 -0.1325
 8667SOL     OW32092   9.239   0.230   0.376 -0.4290  0.0892  0.4659
 8667SOL    HW132093   9.210   0.157   0.321 -1.8329  1.6001 -0.9138
 8667SOL    HW232094   9.298   0.190   0.440 -0.5593 -2.1155 -0.6962
 8668SOL     OW32095   8.382  10.897   7.209  0.7955 -0.4676 -0.0221
 8668SOL    HW132096   8.322  10.824   7.194 -0.2041  0.4626 -0.6474
 8668SOL    HW232097   8.446  10.863   7.272 -0.1644 -1.5981  0.3676
 8669SOL     OW32098   2.124   8.258   0.871 -0.1741  0.1135 -0.1654
 8669SOL    HW132099   2.144   8.165   0.858 -0.7964  0.0163 -0.4521
 8669SOL    HW232100   2.097   8.289   0.785  0.2007  0.6102 -0.1102
 8670SOL     OW32101   5.296   5.512   5.827  0.4036 -0.7856  0.0505
 8670SOL    HW132102   5.375   5.485   5.874  0.2964 -2.3329 -0.6072
 8670SOL    HW232103   5.230   5.448   5.851 -0.3728 -0.1069 -0.2196
 8671SOL     OW32104   5.823   2.222   2.681  0.1306  0.2570 -0.1938
 8671SOL    HW132105   5.749   2.179   2.638  0.3282  1.1644 -1.4633
 8671SOL    HW232106   5.859   2.154   2.739 -0.8053 -0.6431 -0.6392
 8672SOL     OW32107   8.165   0.894  10.629 -0.2658 -0.4554  0.2118
 8672SOL    HW132108   8.230   0.823  10.625  0.0543 -0.1737  0.3836
 8672SOL    HW232109   8.085   0.850  10.657 -0.5838 -1.0959 -1.6007
 8673SOL     OW32110   3.703   5.471   1.777 -0.0560  0.0012  0.0712
 8673SOL    HW132111   3.674   5.440   1.863 -2.9958  1.5086 -0.2260
 8673SOL    HW232112   3.683   5.565   1.778  0.2586  0.1416 -2.0941
 8674SOL     OW32113   9.151   3.574   6.646 -0.2770  0.0289 -0.5133
 8674SOL    HW132114   9.113   3.576   6.734 -0.3227  0.2476 -0.5378
 8674SOL    HW232115   9.115   3.651   6.602 -1.7904 -1.1041 -1.3586
 8675SOL     OW32116   6.005   4.423   1.106  0.1486 -0.4362  0.3875
 8675SOL    HW132117   5.909   4.430   1.107 -0.0823 -2.7559  0.2976
 8675SOL    HW232118   6.029   4.433   1.014  0.1051  0.9951  0.5137
 8676SOL     OW32119   2.520   2.094   6.642  0.1002  0.0893 -0.2887
 8676SOL    HW132120   2.438   2.047   6.624  0.9306 -1.7741  0.4992
 8676SOL    HW232121   2.582   2.059   6.578  0.4420  1.0543 -0.4965
 8677SOL     OW32122   8.382   0.656   3.191 -0.2918  0.2290  0.2241
 8677SOL    HW132123   8.425   0.649   3.106 -0.8587 -1.0968  0.0298
 8677SOL    HW232124   8.454   0.677   3.252  0.2131  0.5782 -0.4781
 8678SOL     OW32125   5.177   5.274   5.823  0.6177 -0.7056 -0.4125
 8678SOL    HW132126   5.084   5.296   5.820  0.4816 -1.3461 -1.1980
 8678SOL    HW232127   5.186   5.217   5.900  0.6554  0.5832  0.5738
 8679SOL     OW32128   2.099   7.072   9.017 -0.1896 -0.2205  0.0798
 8679SOL    HW132129   2.056   7.111   9.093  2.3269 -2.3873  2.8560
 8679SOL    HW232130   2.075   6.980   9.020  0.1038 -0.3936 -1.7205
 8680SOL     OW32131   8.454   4.114   0.132  0.0688 -0.6176  0.3764
 8680SOL    HW132132   8.371   4.138   0.173  0.2304  0.2399  0.2172
 8680SOL    HW232133   8.504   4.073   0.203 -0.1673 -0.3687  0.6898
 8681SOL     OW32134   1.184   5.307  10.088 -0.2069 -0.2437  0.4402
 8681SOL    HW132135   1.258   5.312  10.026 -0.3300 -2.5352  0.0265
 8681SOL    HW232136   1.226   5.305  10.174  0.2994 -2.0549  0.1887
 8682SOL     OW32137   7.669   1.410   0.619  0.2623 -0.6019 -0.0987
 8682SOL    HW132138   7.580   1.377   0.627  0.4114 -0.9877  0.0077
 8682SOL    HW232139   7.724   1.332   0.613  0.6415 -0.3797  0.3510
 8683SOL     OW32140   8.608   2.696   8.874  0.2072  0.5928 -0.0245
 8683SOL    HW132141   8.659   2.750   8.934  0.1970  2.0394 -1.2519
 8683SOL    HW232142   8.533   2.667   8.926  1.4936 -0.3444  1.3710
 8684SOL     OW32143   3.109   2.605   5.909 -0.1027 -0.1404 -0.8755
 8684SOL    HW132144   3.099   2.640   5.997 -1.8132 -2.5381 -0.0137
 8684SOL    HW232145   3.160   2.524   5.922  0.1263 -0.2228 -2.1754
 8685SOL     OW32146   2.738   9.070   6.822 -0.0825 -0.4729  0.6630
 8685SOL    HW132147   2.711   9.162   6.813 -0.9599 -0.7802  0.0103
 8685SOL    HW232148   2.808   9.059   6.758  0.9529  0.0726  1.6652
 8686SOL     OW32149   8.666   0.091   5.859  0.1490  0.1626  0.1639
 8686SOL    HW132150   8.579   0.060   5.836  0.2074  0.8279 -1.0723
 8686SOL    HW232151   8.656   0.128   5.947 -0.3949 -1.3416  0.7581
 8687SOL     OW32152   5.223  10.776   5.784  0.2771 -0.5233 -0.3253
 8687SOL    HW132153   5.239  10.857   5.832  0.5742 -0.0585 -1.1960
 8687SOL    HW232154   5.306  10.756   5.742 -0.0636 -0.7440 -0.9084
 8688SOL     OW32155  10.582   8.473   9.173 -0.3004 -0.0107  0.4097
 8688SOL    HW132156  10.503   8.443   9.220 -0.4258 -0.2895  0.0220
 8688SOL    HW232157  10.578   8.429   9.089  0.5320 -0.4141  0.5707
 8689SOL     OW32158   8.093   5.676   0.122  0.2705 -0.2697 -0.5021
 8689SOL    HW132159   8.161   5.616   0.151  0.9379  0.7290  0.0733
 8689SOL    HW232160   8.137   5.736   0.062  0.5711  1.8982  1.7186
 8690SOL     OW32161  10.180   7.648   7.539  0.5304  0.0455  0.5663
 8690SOL    HW132162  10.093   7.680   7.516  0.9589  0.4647 -0.5841
 8690SOL    HW232163  10.208   7.704   7.612  0.6823  1.3809 -0.4656
 8691SOL     OW32164   8.744   6.293   5.597  0.3037 -0.2233  0.4550
 8691SOL    HW132165   8.648   6.287   5.598  0.2433 -1.9919 -2.8010
 8691SOL    HW232166   8.766   6.300   5.504  3.4354 -2.5631  0.8933
 8692SOL     OW32167   8.542   5.804   6.465 -0.1108  0.1354 -0.1142
 8692SOL    HW132168   8.501   5.829   6.547 -0.0533 -0.0229 -0.0360
 8692SOL    HW232169   8.634   5.829   6.476 -0.2578  0.8403 -0.4336
 8693SOL     OW32170  10.498   0.607   9.376 -0.2626 -0.2034  0.0243
 8693SOL    HW132171  10.451   0.548   9.317 -0.1390 -1.4522  1.1225
 8693SOL    HW232172  10.557   0.657   9.320 -0.7043 -0.8010 -0.9898
 8694SOL     OW32173   7.768  10.715  10.892  0.2811  0.2341  0.1376
 8694SOL    HW132174   7.808  10.790  10.936  0.7354 -0.0486  0.2087
 8694SOL    HW232175   7.829  10.693  10.822  0.8077 -0.8747  0.9164
 8695SOL     OW32176   5.567   8.473   1.063 -0.4318  0.4383  0.1640
 8695SOL    HW132177   5.588   8.494   0.972 -1.3228 -1.6981 -0.6010
 8695SOL    HW232178   5.572   8.377   1.067  0.0834  0.5161  2.5089
 8696SOL     OW32179   7.938   6.772   3.451 -0.5158 -0.1143  0.0825
 8696SOL    HW132180   7.916   6.861   3.423  1.8447  0.3352 -0.6043
 8696SOL    HW232181   7.901   6.716   3.383 -1.6879  0.3503  0.3167
 8697SOL     OW32182   1.767   1.801   6.023  0.4168 -0.1287  0.2486
 8697SOL    HW132183   1.860   1.816   6.002  0.3803 -0.5647 -0.2647
 8697SOL    HW232184   1.769   1.747   6.102  0.6159 -0.3980  0.0644
 8698SOL     OW32185   4.317   3.180   0.686  0.4635  0.2180 -0.1746
 8698SOL    HW132186   4.351   3.252   0.633 -2.6430  0.6475 -1.8583
 8698SOL    HW232187   4.291   3.113   0.622 -1.8555  0.0208  0.8575
 8699SOL     OW32188   9.506   1.351   0.671 -0.0285  0.2970 -0.2766
 8699SOL    HW132189   9.499   1.350   0.767 -1.6377  0.2056 -0.3690
 8699SOL    HW232190   9.432   1.404   0.642  1.3929  1.7772 -1.4340
 8700SOL     OW32191   7.518   0.293   6.158 -0.2618 -0.2430  0.1752
 8700SOL    HW132192   7.451   0.249   6.106  0.0743 -0.0185 -0.4602
 8700SOL    HW232193   7.517   0.384   6.127  1.7666 -0.6884 -1.3615
 8701SOL     OW32194   1.703   8.450   9.822 -0.0094  0.2488  0.4040
 8701SOL    HW132195   1.710   8.529   9.876  1.2616  0.5912 -0.2284
 8701SOL    HW232196   1.610   8.444   9.800 -0.3302  0.8401  1.5296
 8702SOL     OW32197  10.350   1.857   8.282 -0.2031  0.1714 -0.0309
 8702SOL    HW132198  10.285   1.827   8.346 -0.6690  0.7263 -0.2357
 8702SOL    HW232199  10.300   1.910   8.220  0.4189  0.4721 -0.2852
 8703SOL     OW32200   7.348   4.541   0.977 -0.4415 -0.5904  0.6917
 8703SOL    HW132201   7.272   4.541   0.918  1.1423 -3.6271 -1.6193
 8703SOL    HW232202   7.322   4.482   1.048 -0.8443 -0.2298  0.8528
 8704SOL     OW32203   2.663   0.240   5.033  0.3798 -0.3728 -0.0180
 8704SOL    HW132204   2.701   0.327   5.019 -0.7290  0.2785  0.8679
 8704SOL    HW232205   2.683   0.219   5.124  0.7534 -1.1211 -0.2658
 8705SOL     OW32206   4.420   9.577   9.307  0.8604  0.3217  0.7517
 8705SOL    HW132207   4.426   9.483   9.289 -2.1613  0.2155 -0.4401
 8705SOL    HW232208   4.388   9.615   9.226 -0.3388  1.9958  1.9259
 8706SOL     OW32209   9.533   7.442   6.722 -0.2848 -0.3922  0.1855
 8706SOL    HW132210   9.456   7.476   6.678 -0.8314 -1.3677  0.3567
 8706SOL    HW232211   9.557   7.510   6.785 -0.7476  0.0961 -0.1614
 8707SOL     OW32212   1.514   5.926  10.313 -0.2112 -0.1776  0.0370
 8707SOL    HW132213   1.529   5.974  10.232 -0.9223  0.8629  0.4998
 8707SOL    HW232214   1.419   5.932  10.328 -0.1778 -0.8698  0.6383
 8708SOL     OW32215   9.404   8.794   6.937 -0.2540  0.1261  0.1085
 8708SOL    HW132216   9.463   8.748   6.997  1.1464 -0.9604 -1.9836
 8708SOL    HW232217   9.441   8.883   6.931 -0.8483  0.4843  1.3722
 8709SOL     OW32218   1.669   1.091  10.735  0.1285 -0.1195  0.7890
 8709SOL    HW132219   1.732   1.106  10.665  1.3275  0.4047  1.9291
 8709SOL    HW232220   1.668   1.172  10.785 -1.3666 -0.1713  0.8963
 8710SOL     OW32221   0.169   7.582   9.349 -0.5108  0.4836  0.2787
 8710SOL    HW132222   0.122   7.615   9.272 -1.1141  0.1077  0.4725
 8710SOL    HW232223   0.155   7.487   9.346  0.7795  0.2930  0.0022
 8711SOL     OW32224  10.469   2.550  10.561  0.3287  0.0749  0.5079
 8711SOL    HW132225  10.436   2.624  10.509  2.6516  1.1251  0.3992
 8711SOL    HW232226  10.469   2.476  10.500 -0.3250  0.4135  0.0815
 8712SOL     OW32227   3.728   3.473   6.271  0.2137  0.4595 -0.4089
 8712SOL    HW132228   3.822   3.483   6.280  0.0500  1.3713  0.3642
 8712SOL    HW232229   3.711   3.382   6.295  0.8300  0.4502  0.0036
 8713SOL     OW32230   5.511   9.310   4.250 -0.3780 -0.8497 -0.0324
 8713SOL    HW132231   5.581   9.295   4.187  2.8153  0.1986  2.9439
 8713SOL    HW232232   5.481   9.222   4.274  1.1841 -1.4391 -0.1309
 8714SOL     OW32233   4.790   0.384   9.465 -0.1900 -0.1123  0.0056
 8714SOL    HW132234   4.722   0.343   9.412 -1.2955 -1.2033  2.1691
 8714SOL    HW232235   4.773   0.478   9.457 -0.6701 -0.2749 -1.0863
 8715SOL     OW32236   8.361   8.576   3.610 -0.0518 -0.4885 -0.2681
 8715SOL    HW132237   8.273   8.583   3.647  0.0137 -1.5052  0.1179
 8715SOL    HW232238   8.352   8.516   3.536  0.2213 -0.1911 -0.5443
 8716SOL     OW32239   2.019   5.129   4.049  0.1124 -0.8927  0.3843
 8716SOL    HW132240   2.014   5.201   3.986 -2.9497 -2.4338 -1.3762
 8716SOL    HW232241   1.982   5.164   4.129  0.8036  0.0947  0.2909
 8717SOL     OW32242   1.830   5.581   3.757 -0.3159  0.3592 -0.1515
 8717SOL    HW132243   1.762   5.540   3.704  2.7572 -1.5664 -2.9974
 8717SOL    HW232244   1.837   5.670   3.722  0.2656 -0.2447 -1.6628
 8718SOL     OW32245   4.743   8.160   7.735 -0.3709  0.1427  0.7619
 8718SOL    HW132246   4.766   8.100   7.807 -2.1915 -0.2167  1.0844
 8718SOL    HW232247   4.788   8.123   7.659 -0.1422 -0.7077  1.2894
 8719SOL     OW32248   3.920   9.899   2.045 -0.1532 -0.2624  0.4708
 8719SOL    HW132249   4.000   9.931   2.087  0.3798 -2.5169  1.3125
 8719SOL    HW232250   3.849   9.934   2.100  0.3842 -0.2218  1.1549
 8720SOL     OW32251   4.966   2.817   1.526 -0.2694  0.6958 -0.4056
 8720SOL    HW132252   5.007   2.835   1.611  0.0454 -0.3460 -0.3127
 8720SOL    HW232253   5.022   2.861   1.462 -0.0090  0.7534 -0.1382
 8721SOL     OW32254   3.225   7.693   1.740  0.0773  0.3113 -0.2327
 8721SOL    HW132255   3.181   7.621   1.695 -0.8052 -0.0323  1.1205
 8721SOL    HW232256   3.214   7.768   1.682  0.3119 -0.4438 -1.2903
 8722SOL     OW32257   4.908   2.283   9.032 -0.2695  0.0096 -0.6393
 8722SOL    HW132258   4.945   2.366   9.061  0.7702 -1.0179  1.1480
 8722SOL    HW232259   4.971   2.249   8.970  0.5169 -0.5197  0.4237
 8723SOL     OW32260  10.207   9.902   9.445 -0.4551 -0.0129  0.2931
 8723SOL    HW132261  10.148   9.867   9.378 -0.3075 -0.8890  0.6115
 8723SOL    HW232262  10.194   9.845   9.521  2.0902 -1.3987 -0.1956
 8724SOL     OW32263   8.526   3.693   0.781 -0.0083 -0.3004 -0.3410
 8724SOL    HW132264   8.572   3.629   0.835  0.3617  0.8125  0.7110
 8724SOL    HW232265   8.523   3.772   0.835  0.9649  1.0878 -2.2045
 8725SOL     OW32266   7.672   3.935   0.282  0.1123  0.2999 -0.3523
 8725SOL    HW132267   7.649   4.005   0.344 -0.5800  0.1812 -0.4736
 8725SOL    HW232268   7.610   3.945   0.210  0.3853 -0.0838 -0.6443
 8726SOL     OW32269   5.328   7.786  10.349 -0.2425  0.2450  0.2793
 8726SOL    HW132270   5.388   7.801  10.422 -0.8221  1.2416  0.5634
 8726SOL    HW232271   5.287   7.701  10.369 -2.7195  1.8650  2.8083
 8727SOL     OW32272   1.135   4.709  10.750 -0.4299 -0.0546  0.2063
 8727SOL    HW132273   1.169   4.679  10.834 -1.6917  0.5359  0.9410
 8727SOL    HW232274   1.120   4.803  10.761  0.6934  0.3198 -1.1338
 8728SOL     OW32275   6.515   1.445   8.295  0.4930  0.0033  0.2838
 8728SOL    HW132276   6.575   1.451   8.220 -0.0214 -0.3392 -0.1651
 8728SOL    HW232277   6.557   1.382   8.353 -0.0108 -1.1769 -0.5914
 8729SOL     OW32278   3.105   5.991   8.191 -0.0560 -0.7197  0.2519
 8729SOL    HW132279   3.130   5.930   8.122  1.2980 -2.0901  1.8766
 8729SOL    HW232280   3.098   6.076   8.147  1.0569 -1.4810 -1.4865
 8730SOL     OW32281   3.521   0.947   4.864  0.2008  0.3793  0.3849
 8730SOL    HW132282   3.514   1.035   4.825  0.1114  0.6959  1.1001
 8730SOL    HW232283   3.549   0.891   4.792  1.5603  1.2337  0.2129
 8731SOL     OW32284  10.338   3.947  10.495 -0.3384 -0.0364 -0.0736
 8731SOL    HW132285  10.336   3.960  10.400  1.4697 -0.6515 -0.2277
 8731SOL    HW232286  10.254   3.905  10.515 -0.3008 -0.8755 -1.5662
 8732SOL     OW32287   9.281   8.267   7.776 -0.4574 -0.3626  0.1137
 8732SOL    HW132288   9.316   8.291   7.861  0.2836 -0.2687 -0.2125
 8732SOL    HW232289   9.282   8.171   7.776 -1.7772 -0.4023  0.7384
 8733SOL     OW32290   3.348   5.307   3.854 -0.0912 -0.1087  0.0200
 8733SOL    HW132291   3.398   5.353   3.787 -0.2427  0.0202 -0.0071
 8733SOL    HW232292   3.377   5.216   3.849  0.5249  0.0664  0.3686
 8734SOL     OW32293   4.589   6.161   4.304  0.0365 -0.0947 -0.4811
 8734SOL    HW132294   4.650   6.163   4.377 -0.6301  0.6562  0.0808
 8734SOL    HW232295   4.507   6.195   4.340 -0.7405 -1.1390 -1.1940
 8735SOL     OW32296   7.874   8.760   0.507  0.9588  0.3286  0.1041
 8735SOL    HW132297   7.805   8.812   0.466  0.9802  1.6168  1.6069
 8735SOL    HW232298   7.861   8.671   0.473 -1.1101  0.6551 -0.0651
 8736SOL     OW32299   9.776   8.859   7.988 -0.4669 -0.1169  0.0305
 8736SOL    HW132300   9.766   8.822   7.900 -0.2041 -2.6458  0.9816
 8736SOL    HW232301   9.856   8.819   8.022 -0.7718  0.5158  1.5656
 8737SOL     OW32302   8.051   3.429   8.063  0.0959 -0.2270 -0.6341
 8737SOL    HW132303   8.057   3.407   8.156 -1.0499 -0.6555 -0.6475
 8737SOL    HW232304   8.091   3.515   8.056 -1.1809  0.4921  0.5174
 8738SOL     OW32305   2.900   6.176   7.099 -0.3951 -0.2336  0.2008
 8738SOL    HW132306   2.933   6.107   7.156 -1.8506 -0.3445  0.9494
 8738SOL    HW232307   2.853   6.235   7.157  0.3461  1.0953 -0.5152
 8739SOL     OW32308   7.143   4.670   9.603 -0.3189  0.5145 -0.2524
 8739SOL    HW132309   7.068   4.693   9.548 -0.8216  0.0047  0.2146
 8739SOL    HW232310   7.197   4.613   9.548  0.3044  1.7708 -0.9816
 8740SOL     OW32311   3.030   9.359   9.987  0.3868  0.0310  0.0545
 8740SOL    HW132312   2.937   9.377   9.994  0.1583 -0.9066 -0.3459
 8740SOL    HW232313   3.046   9.293  10.055  0.2786 -1.4483 -1.2911
 8741SOL     OW32314   7.106   0.318   3.881 -0.6104  0.2391 -0.3043
 8741SOL    HW132315   7.116   0.345   3.790  0.5824  1.1146  0.0655
 8741SOL    HW232316   7.169   0.246   3.891 -0.9601 -0.0646 -0.2335
 8742SOL     OW32317   9.183  10.203   0.155  0.5163  0.4088  0.3880
 8742SOL    HW132318   9.248  10.197   0.225  2.1956 -1.8495 -1.2233
 8742SOL    HW232319   9.125  10.129   0.169  1.3682 -0.5696 -0.9956
 8743SOL     OW32320   8.477   9.964  10.582  0.4323  0.0787  0.3449
 8743SOL    HW132321   8.540  10.023  10.540  1.1374  1.1414  2.6791
 8743SOL    HW232322   8.393   9.985  10.542  0.9770  1.3720 -0.1771
 8744SOL     OW32323   1.028   0.124   2.435  0.1450 -0.0408 -0.1058
 8744SOL    HW132324   1.009   0.049   2.491  0.3564 -0.1845 -0.2273
 8744SOL    HW232325   1.041   0.197   2.496 -0.1787 -0.0774  0.0057
 8745SOL     OW32326   2.226   5.228  10.105 -0.1828  0.3368  0.4620
 8745SOL    HW132327   2.188   5.291  10.044 -0.9600 -0.9995 -0.5181
 8745SOL    HW232328   2.309   5.203  10.065 -1.1199 -1.2552 -0.6624
 8746SOL     OW32329   0.895   1.361   6.226 -0.3526  0.0105  0.1801
 8746SOL    HW132330   0.953   1.301   6.272 -1.5817 -1.8019 -0.5307
 8746SOL    HW232331   0.886   1.436   6.285  0.3805 -0.9600  1.5763
 8747SOL     OW32332   5.096  10.469   2.966 -0.1680  0.1249  0.5557
 8747SOL    HW132333   5.170  10.437   3.019 -0.0244  0.4679  0.5645
 8747SOL    HW232334   5.138  10.506   2.888 -0.2972  0.7723  0.7888
 8748SOL     OW32335   7.463   4.802   7.802 -0.2809 -0.1486 -0.4198
 8748SOL    HW132336   7.512   4.837   7.727 -1.2013 -0.6160 -1.2535
 8748SOL    HW232337   7.486   4.709   7.804 -1.2548 -0.4134 -0.9320
 8749SOL     OW32338   6.515   1.782  10.887  0.1724  0.2250 -0.0620
 8749SOL    HW132339   6.550   1.846  10.949 -2.7156 -0.0679  2.0751
 8749SOL    HW232340   6.420   1.787  10.899 -0.3950 -1.5384 -2.8639
 8750SOL     OW32341   8.768   2.645   1.872 -0.5422  0.0403  0.7421
 8750SOL    HW132342   8.772   2.735   1.904 -1.0253 -0.5495  2.5743
 8750SOL    HW232343   8.758   2.592   1.951 -0.0807 -1.6463 -0.2815
 8751SOL     OW32344   9.564   1.004   0.496 -0.0327 -0.1417 -0.0917
 8751SOL    HW132345   9.618   1.040   0.567  0.1088 -1.8862  0.7236
 8751SOL    HW232346   9.520   1.081   0.460 -0.9096  0.7389  2.5608
 8752SOL     OW32347   4.653   7.351  10.850 -0.7025  0.2185 -0.0731
 8752SOL    HW132348   4.598   7.302  10.790  0.1660 -0.4572 -0.3385
 8752SOL    HW232349   4.625   7.442  10.840 -0.2321  0.1885 -1.8751
 8753SOL     OW32350   2.744   1.081   2.533 -0.0477  0.0327  0.2360
 8753SOL    HW132351   2.678   1.049   2.595  0.1539 -0.4494  0.2106
 8753SOL    HW232352   2.725   1.035   2.451  0.4834 -0.3273  0.3063
 8754SOL     OW32353   0.500   8.046   6.578 -0.3235  0.1873  0.0742
 8754SOL    HW132354   0.566   8.090   6.525 -0.4481 -0.3276 -0.5217
 8754SOL    HW232355   0.534   7.958   6.591  0.4257  0.7261  2.1460
 8755SOL     OW32356   5.255   1.539   7.267  0.6484 -0.6081 -0.1077
 8755SOL    HW132357   5.221   1.532   7.177  0.0210  0.6119  0.0129
 8755SOL    HW232358   5.255   1.633   7.285 -0.6000 -0.9048  1.6846
 8756SOL     OW32359   0.776   7.455   3.214  0.2283 -0.4296 -0.8834
 8756SOL    HW132360   0.853   7.418   3.171  1.1608  0.4013  0.0327
 8756SOL    HW232361   0.785   7.429   3.306 -0.1315  0.4085 -0.6051
 8757SOL     OW32362   6.794   8.650   0.573 -0.3137  0.0971 -0.9916
 8757SOL    HW132363   6.773   8.657   0.480  1.1504  1.1858 -1.2746
 8757SOL    HW232364   6.811   8.557   0.587 -0.9151 -0.1374 -1.7047
 8758SOL     OW32365   3.808   9.888   7.204 -0.8464 -0.3220  0.0215
 8758SOL    HW132366   3.845   9.827   7.268  0.8071 -0.3082 -0.8850
 8758SOL    HW232367   3.883   9.934   7.167 -2.0174  2.0001  0.3468
 8759SOL     OW32368   9.378  10.508   3.624  0.0276  0.1733  0.2915
 8759SOL    HW132369   9.459  10.466   3.594  0.1069  0.3762  0.2200
 8759SOL    HW232370   9.374  10.489   3.717  0.2277  0.2740  0.3214
 8760SOL     OW32371  10.678   0.489   2.420 -0.3133  0.3106  0.2190
 8760SOL    HW132372  10.657   0.488   2.513 -0.6922 -1.0496  0.1375
 8760SOL    HW232373  10.763   0.445   2.415 -0.4446  0.0936 -0.1081
 8761SOL     OW32374   3.243   6.553   3.477 -0.1696  0.3633 -0.2587
 8761SOL    HW132375   3.220   6.558   3.385  0.3609 -0.2065 -0.4271
 8761SOL    HW232376   3.305   6.481   3.483  0.3962  0.8891  0.4264
 8762SOL     OW32377   8.549   6.741   2.791 -0.4162  0.2984  0.1493
 8762SOL    HW132378   8.456   6.728   2.807 -0.6616  1.4830 -0.2798
 8762SOL    HW232379   8.576   6.807   2.854  0.3263 -0.5790  0.7910
 8763SOL     OW32380   9.732   8.532   7.554 -0.3125  0.4950  0.1274
 8763SOL    HW132381   9.647   8.555   7.516  0.6852  0.7560 -2.1376
 8763SOL    HW232382   9.733   8.436   7.552 -0.0713  0.5078 -1.0723
 8764SOL     OW32383   1.773   4.085   7.537 -0.0333 -0.1629  0.1816
 8764SOL    HW132384   1.734   4.051   7.617  1.1397  2.8776  2.2082
 8764SOL    HW232385   1.816   4.009   7.497 -0.8736 -1.8164  2.2821
 8765SOL     OW32386  10.184   3.366   8.987 -0.2955 -0.1223  0.2695
 8765SOL    HW132387  10.169   3.399   8.898 -0.6299 -0.8061  0.0650
 8765SOL    HW232388  10.139   3.282   8.989 -2.1341  0.8197  1.7466
 8766SOL     OW32389   5.278   5.414   6.613  0.4708  0.0477  0.8942
 8766SOL    HW132390   5.334   5.462   6.674  0.1041  2.3373 -0.4457
 8766SOL    HW232391   5.191   5.420   6.650 -0.5689  5.0635 -1.5360
 8767SOL     OW32392   5.351   4.012   5.083  0.1311 -0.3924  0.1890
 8767SOL    HW132393   5.351   4.048   4.994 -1.8537  0.5344  0.5232
 8767SOL    HW232394   5.414   3.940   5.079  1.1785  0.5511 -1.5653
 8768SOL     OW32395   5.743   5.514   8.765 -0.6067 -0.3326  0.1143
 8768SOL    HW132396   5.837   5.503   8.773 -0.5443  0.5683  0.8219
 8768SOL    HW232397   5.713   5.437   8.718  0.6458 -0.0232 -1.2455
 8769SOL     OW32398   7.777   6.745   4.454 -0.5941  0.0311 -0.0463
 8769SOL    HW132399   7.727   6.705   4.383  0.0171 -1.1769  0.1824
 8769SOL    HW232400   7.853   6.688   4.466 -1.4405 -0.7028  2.5861
 8770SOL     OW32401   1.729   1.975   2.774 -0.0820 -0.1397 -0.2813
 8770SOL    HW132402   1.688   2.061   2.786 -2.0880 -1.0235 -0.2725
 8770SOL    HW232403   1.813   1.994   2.733 -1.3298  1.7449 -2.2286
 8771SOL     OW32404   5.633   7.971   4.303  0.0311  0.2146 -0.7104
 8771SOL    HW132405   5.687   7.961   4.225 -0.6901  2.0458 -1.5016
 8771SOL    HW232406   5.685   8.027   4.361  0.3097 -0.6494 -0.1031
 8772SOL     OW32407   3.698   6.193   4.831  0.5909 -0.6590 -0.0679
 8772SOL    HW132408   3.650   6.227   4.756  0.1105  0.3051  0.6575
 8772SOL    HW232409   3.743   6.115   4.798  1.3811  0.4299 -1.6767
 8773SOL     OW32410   7.926   8.597   2.696  0.2008 -0.1958 -0.0241
 8773SOL    HW132411   8.018   8.578   2.677 -0.2422  0.1340 -2.9170
 8773SOL    HW232412   7.916   8.690   2.672 -1.5283 -1.0210 -3.0515
 8774SOL     OW32413   0.337   1.390  10.496 -0.0149 -0.0505 -0.4192
 8774SOL    HW132414   0.274   1.460  10.481 -1.0315 -0.6267  0.9233
 8774SOL    HW232415   0.287   1.309  10.484  0.6546 -0.5328 -0.0799
 8775SOL     OW32416   8.883   2.867   6.399  0.2075 -0.0152 -0.0356
 8775SOL    HW132417   8.969   2.828   6.412 -0.1206 -0.0454  2.6310
 8775SOL    HW232418   8.901   2.954   6.363  1.1213 -1.0824 -2.3990
 8776SOL     OW32419   3.389   5.983   5.127  0.5001 -0.3115  0.4474
 8776SOL    HW132420   3.437   5.942   5.199 -0.1694  0.5986  1.4424
 8776SOL    HW232421   3.368   5.910   5.068  0.1938 -1.2373  1.6665
 8777SOL     OW32422   5.907  10.024   9.137  0.3269  0.1868  0.0189
 8777SOL    HW132423   5.990  10.001   9.178  0.7612  1.6692  0.0586
 8777SOL    HW232424   5.865  10.083   9.201 -0.8192 -0.6496  0.0587
 8778SOL     OW32425   2.413   2.321   4.888  0.3009 -0.2069  0.2145
 8778SOL    HW132426   2.407   2.383   4.961  2.6293 -0.3145  0.5822
 8778SOL    HW232427   2.346   2.351   4.826  0.3286  1.7691  1.0472
 8779SOL     OW32428   2.260   2.907   5.253 -0.1232 -0.5195  0.2521
 8779SOL    HW132429   2.333   2.912   5.191 -0.5117  0.2024 -0.1575
 8779SOL    HW232430   2.226   2.997   5.257 -0.2588 -0.6066  1.3291
 8780SOL     OW32431   3.112   7.704   3.841 -0.5452  0.1909 -0.0053
 8780SOL    HW132432   3.174   7.672   3.777  0.1111 -1.8280  1.5512
 8780SOL    HW232433   3.035   7.648   3.831 -1.8649  2.1068 -1.3234
 8781SOL     OW32434   9.679   6.647   0.524 -0.1491 -0.0431 -0.5295
 8781SOL    HW132435   9.716   6.692   0.448 -0.2274  0.5756 -0.2109
 8781SOL    HW232436   9.750   6.592   0.556 -0.6994 -1.7898 -2.1701
 8782SOL     OW32437   9.554   1.317   4.665  0.0736 -0.2479 -0.1722
 8782SOL    HW132438   9.510   1.372   4.730 -1.4778 -1.7741  0.1159
 8782SOL    HW232439   9.602   1.379   4.610 -2.4678  1.5310 -0.5408
 8783SOL     OW32440   4.549   0.539   0.782  0.1224 -0.3697 -0.6121
 8783SOL    HW132441   4.636   0.531   0.822 -0.0468 -0.7067 -0.3036
 8783SOL    HW232442   4.566   0.542   0.688  0.6855  2.2431 -0.5115
 8784SOL     OW32443   4.683   9.264   8.244  0.0990  0.1950  0.4055
 8784SOL    HW132444   4.666   9.251   8.150 -0.7534  1.3723  0.3811
 8784SOL    HW232445   4.612   9.218   8.288  0.3439 -0.1224  0.4705
 8785SOL     OW32446   6.393   9.976   8.806  0.5168 -0.0384 -0.1616
 8785SOL    HW132447   6.488   9.976   8.798  0.6121  1.1000  0.7208
 8785SOL    HW232448   6.372   9.893   8.848  1.1256 -0.2439 -0.2546
 8786SOL     OW32449   9.707   2.479   6.730  0.1574 -0.4940 -0.1841
 8786SOL    HW132450   9.741   2.531   6.803  0.7887 -3.5463  1.8584
 8786SOL    HW232451   9.612   2.486   6.738  0.2277  0.4404 -0.0636
 8787SOL     OW32452   7.833   4.523   7.327  0.4210  0.3310 -0.7800
 8787SOL    HW132453   7.835   4.455   7.394  0.5186  0.7145 -0.3864
 8787SOL    HW232454   7.924   4.531   7.298  0.5219  0.7456 -0.3585
 8788SOL     OW32455   6.676  10.911   3.271  0.1902  0.0367 -0.1130
 8788SOL    HW132456   6.697  10.819   3.259  1.1808  0.3800 -1.3028
 8788SOL    HW232457   6.581  10.916   3.263  0.2262 -0.7348 -1.3435
 8789SOL     OW32458   3.273   4.311   4.285  0.1207  0.4234  0.2822
 8789SOL    HW132459   3.273   4.226   4.241 -0.8915  1.7508 -2.4850
 8789SOL    HW232460   3.366   4.333   4.295  0.4325  0.4329 -2.0930
 8790SOL     OW32461   6.610   9.798   7.415  0.1076 -0.4968 -0.1434
 8790SOL    HW132462   6.676   9.847   7.463  0.4581  0.2566 -1.3495
 8790SOL    HW232463   6.526   9.833   7.445  0.3370  0.2556 -0.3680
 8791SOL     OW32464   3.645   9.880   6.157  0.2092  0.2847  0.4890
 8791SOL    HW132465   3.681   9.931   6.085  1.7545  0.6428  1.4464
 8791SOL    HW232466   3.566   9.927   6.184 -0.4218  0.1012 -0.9919
 8792SOL     OW32467  10.507   3.034   9.048  0.4066 -0.1858 -0.2250
 8792SOL    HW132468  10.572   3.017   9.116  0.8016 -1.9046 -0.9809
 8792SOL    HW232469  10.537   2.983   8.973 -1.7789 -1.0431 -0.6026
 8793SOL     OW32470   9.472   4.606   8.863  0.5930 -0.0794 -0.3759
 8793SOL    HW132471   9.444   4.698   8.867  0.6806 -0.0386 -0.6608
 8793SOL    HW232472   9.564   4.607   8.890 -0.0050 -0.3873  1.8979
 8794SOL     OW32473   0.594  10.165   9.383  0.1844  0.0342  0.0523
 8794SOL    HW132474   0.594  10.170   9.478 -1.5778  1.9074  0.0192
 8794SOL    HW232475   0.506  10.134   9.360 -0.2968  1.9792 -0.9785
 8795SOL     OW32476   4.581   5.268   3.413 -0.2063 -0.5363  0.2230
 8795SOL    HW132477   4.510   5.213   3.445 -0.0539 -0.4475  0.7319
 8795SOL    HW232478   4.591   5.336   3.480 -0.0202 -0.2183 -0.1214
 8796SOL     OW32479   3.264   3.824   9.868  0.3853 -0.5338  0.0255
 8796SOL    HW132480   3.297   3.758   9.929  0.8058  0.7898  1.2960
 8796SOL    HW232481   3.177   3.794   9.844  0.2417 -1.1296  1.2488
 8797SOL     OW32482   7.910  10.069   5.751  0.2853  0.3149  0.6825
 8797SOL    HW132483   7.989  10.079   5.804  0.5664 -0.6585  0.4653
 8797SOL    HW232484   7.841  10.046   5.814  0.4600 -0.1139  0.7196
 8798SOL     OW32485  10.510   3.378   5.295 -0.5209  0.2616 -0.1767
 8798SOL    HW132486  10.555   3.448   5.343 -1.1626 -1.4475  3.1947
 8798SOL    HW232487  10.580   3.316   5.273 -0.4923  0.1383  0.2651
 8799SOL     OW32488   2.584   9.663  10.491  0.2121  0.2976  0.0159
 8799SOL    HW132489   2.668   9.628  10.459 -1.1931 -2.3508 -1.1086
 8799SOL    HW232490   2.585   9.643  10.585  1.1858  1.0839  0.1857
 8800SOL     OW32491   5.776   2.573   9.042  0.5170  0.1317 -0.6505
 8800SOL    HW132492   5.802   2.551   8.952  1.7365  0.0254 -0.2893
 8800SOL    HW232493   5.856   2.608   9.082  0.0152  0.0857  0.4164
 8801SOL     OW32494   9.214   4.939   7.362  0.5067  0.5958  0.1472
 8801SOL    HW132495   9.287   4.970   7.309  1.1454  1.5289  1.5229
 8801SOL    HW232496   9.252   4.873   7.420  0.4729  1.6784  1.4429
 8802SOL     OW32497  10.851  10.920   7.253 -0.2166  0.0618  0.1463
 8802SOL    HW132498  10.873  10.832   7.221  1.5744  0.4670  0.1308
 8802SOL    HW232499  10.838  10.972   7.174 -1.7738 -0.2781  0.1566
 8803SOL     OW32500   5.472   1.882   1.708  0.2458  0.0842 -0.2634
 8803SOL    HW132501   5.423   1.802   1.691 -2.6807  1.2115  2.0796
 8803SOL    HW232502   5.516   1.901   1.625 -0.6823 -2.7426 -1.5222
 8804SOL     OW32503   8.378   8.573   5.342 -0.2065  0.3755  0.3118
 8804SOL    HW132504   8.321   8.617   5.405 -0.3456 -0.9306  1.1422
 8804SOL    HW232505   8.355   8.612   5.257  0.2842  2.4766  1.0685
 8805SOL     OW32506   1.157  10.817   4.344  0.2549  0.4727 -0.2671
 8805SOL    HW132507   1.139  10.761   4.268  1.8059  0.3022 -0.5346
 8805SOL    HW232508   1.071  10.850   4.370 -0.4976 -0.7924 -1.0679
 8806SOL     OW32509   6.546   0.783   1.187  0.2235  0.5636  0.6203
 8806SOL    HW132510   6.581   0.868   1.160 -1.2286  0.6432 -1.1871
 8806SOL    HW232511   6.623   0.732   1.211  1.1280  2.3526  1.7335
 8807SOL     OW32512   5.463   0.847   2.671 -0.8091  0.6381 -0.7147
 8807SOL    HW132513   5.486   0.913   2.736  0.8485 -0.3931 -0.1764
 8807SOL    HW232514   5.467   0.764   2.719  0.1056 -0.1213 -2.0307
 8808SOL     OW32515   1.592   8.714   5.520 -0.4404  0.2480  0.7114
 8808SOL    HW132516   1.531   8.720   5.593  0.1577 -1.9581  1.4638
 8808SOL    HW232517   1.628   8.625   5.525 -0.8082 -0.2325 -2.6220
 8809SOL     OW32518   1.144   6.293  10.437 -0.1467  0.0041 -0.2726
 8809SOL    HW132519   1.054   6.296  10.405  0.1828  0.3355 -1.1994
 8809SOL    HW232520   1.192   6.350  10.378  0.7146 -0.3358  0.0866
 8810SOL     OW32521   9.851  10.013   0.683  0.2998  0.0138  0.0701
 8810SOL    HW132522   9.807   9.971   0.609  0.2476 -1.4143  0.8839
 8810SOL    HW232523   9.923   9.954   0.706  0.5969  0.6663  0.8648
 8811SOL     OW32524   1.147   6.545   6.972 -0.5424 -0.1566 -0.6698
 8811SOL    HW132525   1.189   6.503   6.897  0.5585  2.0848 -1.3692
 8811SOL    HW232526   1.191   6.629   6.982 -1.0235 -0.1248  2.1855
 8812SOL     OW32527   6.822   3.658   4.399  0.2241 -0.1931 -0.3251
 8812SOL    HW132528   6.878   3.728   4.365  0.5371  0.5097  1.5383
 8812SOL    HW232529   6.880   3.604   4.452 -0.7798  0.4770  1.5482
 8813SOL     OW32530   3.168   1.290   1.321  0.1012 -0.4582  0.0579
 8813SOL    HW132531   3.198   1.272   1.411 -0.1413 -0.9961  0.0372
 8813SOL    HW232532   3.097   1.227   1.307 -0.8325  0.5704 -0.0037
 8814SOL     OW32533   6.189   4.595   9.095 -0.4234 -0.1259  0.6432
 8814SOL    HW132534   6.199   4.574   9.003  0.6355  1.9322  0.2357
 8814SOL    HW232535   6.129   4.670   9.097 -1.7575 -1.1526  1.7911
 8815SOL     OW32536   6.642   2.462   3.050 -0.2275  0.1759 -0.3043
 8815SOL    HW132537   6.605   2.470   2.962  1.4752 -1.0616 -1.2083
 8815SOL    HW232538   6.734   2.487   3.040  0.5990 -2.1682  0.5682
 8816SOL     OW32539   3.959   8.770   7.712  0.3093 -0.1855 -0.3891
 8816SOL    HW132540   3.933   8.694   7.660 -0.1602  0.2389 -0.7853
 8816SOL    HW232541   3.983   8.836   7.647  1.9213 -0.3865 -0.0528
 8817SOL     OW32542   9.681   4.914  10.297 -0.3524 -0.4834  0.1226
 8817SOL    HW132543   9.698   4.951  10.384  0.7606 -1.7147  0.4717
 8817SOL    HW232544   9.767   4.913  10.254 -1.1269  1.6603 -1.6957
 8818SOL     OW32545   1.723   8.888   1.181 -0.3223  0.2325  0.1537
 8818SOL    HW132546   1.791   8.825   1.207 -0.6344 -0.4865 -0.7358
 8818SOL    HW232547   1.641   8.840   1.192 -0.7700  1.2886  1.7986
 8819SOL     OW32548   6.754   9.205   8.125 -0.1895  0.4824  0.0961
 8819SOL    HW132549   6.798   9.289   8.114 -1.4081  1.0820 -0.3886
 8819SOL    HW232550   6.820   9.140   8.101  0.3842  1.3583 -0.7854
 8820SOL     OW32551   9.058   4.057   6.730 -0.1377  0.6417 -0.1749
 8820SOL    HW132552   9.093   3.975   6.765 -0.6782 -0.2173 -1.5737
 8820SOL    HW232553   9.126   4.121   6.748  1.6015 -0.6955 -1.5650
 8821SOL     OW32554   3.666   6.315   3.988 -0.2512  0.0066  0.6216
 8821SOL    HW132555   3.689   6.407   3.973 -0.7367  0.0113 -0.0961
 8821SOL    HW232556   3.599   6.318   4.056 -1.6601  0.3349 -0.7258
 8822SOL     OW32557   3.688   4.274   1.200  0.3604  0.4044  0.2485
 8822SOL    HW132558   3.779   4.295   1.221  0.6088  0.4425 -0.8185
 8822SOL    HW232559   3.690   4.181   1.176  0.4345  0.7976 -1.3804
 8823SOL     OW32560   5.509   6.901   8.773 -0.1676  0.0906 -0.0862
 8823SOL    HW132561   5.475   6.938   8.692 -0.2268 -0.1497 -0.1747
 8823SOL    HW232562   5.485   6.808   8.768 -0.1661  0.0749  0.2035
 8824SOL     OW32563   2.410   8.478   2.957  0.0215  0.1391 -0.8680
 8824SOL    HW132564   2.447   8.392   2.936  1.0440  0.7929 -1.8229
 8824SOL    HW232565   2.456   8.539   2.900  0.2467  1.5104  0.7015
 8825SOL     OW32566   9.211   3.113   6.496 -0.1801  0.2753 -0.0565
 8825SOL    HW132567   9.187   3.106   6.404 -1.4922  1.3513  0.1723
 8825SOL    HW232568   9.208   3.023   6.528  2.0355 -0.3697 -1.4247
 8826SOL     OW32569  10.176  10.401   0.773 -0.0373 -0.3782  0.9105
 8826SOL    HW132570  10.089  10.365   0.759  0.2595 -1.5247  1.8581
 8826SOL    HW232571  10.161  10.487   0.812 -0.7702  0.7990 -1.7529
 8827SOL     OW32572   7.732   8.331   9.757 -0.2193  0.2013  0.5279
 8827SOL    HW132573   7.767   8.315   9.844  1.4081 -1.1183 -0.3259
 8827SOL    HW232574   7.781   8.407   9.725 -0.7197  0.6003  0.6891
 8828SOL     OW32575   6.980   1.990   4.169  0.4662 -0.2817  0.4413
 8828SOL    HW132576   6.902   1.996   4.224 -0.9050  0.1021 -1.4430
 8828SOL    HW232577   7.036   2.062   4.198  0.3142 -0.7851  2.0704
 8829SOL     OW32578  10.320  10.571   0.445 -0.2864  0.2315  0.2864
 8829SOL    HW132579  10.231  10.593   0.470 -0.2492 -0.5363  1.1214
 8829SOL    HW232580  10.361  10.541   0.525  0.5108 -0.1373 -0.2451
 8830SOL     OW32581   2.938   8.831   4.280 -0.8524  0.2012 -0.4128
 8830SOL    HW132582   3.029   8.844   4.251 -1.2639  1.0856 -1.3575
 8830SOL    HW232583   2.929   8.736   4.285  0.5521  0.0955  1.1435
 8831SOL     OW32584   5.134   6.414   6.116 -0.1215 -0.2683  0.1232
 8831SOL    HW132585   5.200   6.480   6.139  0.1037 -0.7986  1.0516
 8831SOL    HW232586   5.135   6.412   6.020  0.6492  0.2939  0.1055
 8832SOL     OW32587   5.446   7.672   9.646  0.1214  0.4454  0.4266
 8832SOL    HW132588   5.414   7.635   9.728  1.0097  1.1463  1.1161
 8832SOL    HW232589   5.484   7.756   9.671  0.5438  0.6091 -0.6862
 8833SOL     OW32590   6.518   8.812   2.923 -0.5364 -0.1272  0.7170
 8833SOL    HW132591   6.614   8.814   2.930 -0.4394  1.0839 -0.4825
 8833SOL    HW232592   6.497   8.720   2.910  0.5219 -0.3491  0.4459
 8834SOL     OW32593  10.403   6.094   7.107  0.5370 -0.2354 -0.3975
 8834SOL    HW132594  10.444   6.161   7.052  1.0826 -0.9149 -0.8373
 8834SOL    HW232595  10.366   6.032   7.044 -0.8480  0.1630 -0.0055
 8835SOL     OW32596   4.008   2.171   0.030  0.2260 -0.2874  0.1075
 8835SOL    HW132597   4.010   2.200  -0.061 -0.0890  0.6270  0.3851
 8835SOL    HW232598   4.056   2.088   0.029 -0.8551 -0.9478 -1.1158
 8836SOL     OW32599   1.453   6.209   0.604  0.1252  0.1542 -0.3271
 8836SOL    HW132600   1.447   6.204   0.509  0.9338 -0.5548 -0.3545
 8836SOL    HW232601   1.489   6.125   0.630  2.6470  1.3524  0.3494
 8837SOL     OW32602   3.538   3.713   6.234  0.6094 -0.0099  0.2588
 8837SOL    HW132603   3.575   3.625   6.225 -1.5563 -1.0577  0.8912
 8837SOL    HW232604   3.615   3.771   6.239  2.0950 -1.7847 -0.5857
 8838SOL     OW32605   8.467   0.746   3.974  0.5924  0.2602  0.3006
 8838SOL    HW132606   8.528   0.813   4.006  0.5432  0.8964 -0.9018
 8838SOL    HW232607   8.484   0.740   3.880  1.2175 -2.0657  0.5044
 8839SOL     OW32608   3.586   0.476   9.916  0.5401  0.2671 -0.1082
 8839SOL    HW132609   3.593   0.382   9.900 -0.1214  0.2452 -0.2907
 8839SOL    HW232610   3.554   0.482  10.006  0.3000  0.3093 -0.1956
 8840SOL     OW32611   1.777   1.228   7.924  0.5862  0.4808 -0.6881
 8840SOL    HW132612   1.734   1.303   7.964  0.9242  0.6089 -0.5612
 8840SOL    HW232613   1.740   1.223   7.836 -0.9661 -0.4623 -0.0140
 8841SOL     OW32614   1.341  10.286   1.651  0.4597  0.1435 -0.1104
 8841SOL    HW132615   1.322  10.224   1.722  0.8840  0.3643  0.2024
 8841SOL    HW232616   1.267  10.277   1.591 -1.0909  1.5598  1.4507
 8842SOL     OW32617   7.259   0.489   2.977 -0.5409 -0.5712  0.4174
 8842SOL    HW132618   7.209   0.557   2.932  0.5492 -0.5248 -0.7941
 8842SOL    HW232619   7.194   0.441   3.028 -1.3820  1.1987  1.0988
 8843SOL     OW32620   8.991   1.104   1.180  0.2904  0.5890 -0.6573
 8843SOL    HW132621   8.924   1.091   1.113 -0.3609  0.5442 -0.0119
 8843SOL    HW232622   8.943   1.135   1.257  0.6624 -1.6455  0.5592
 8844SOL     OW32623   7.606   3.119   0.158  0.0225 -0.8462 -0.1315
 8844SOL    HW132624   7.568   3.051   0.101 -0.2368 -0.1037 -0.8575
 8844SOL    HW232625   7.691   3.083   0.184  0.7527 -0.6672 -2.0717
 8845SOL     OW32626   3.262   9.825   7.106 -0.0191  0.6579  0.3976
 8845SOL    HW132627   3.223   9.741   7.129 -1.9083  1.3657 -0.0574
 8845SOL    HW232628   3.356   9.807   7.102 -0.4996 -2.2633 -2.9107
 8846SOL     OW32629   0.974   2.203   7.797 -0.1317  0.4974  0.0943
 8846SOL    HW132630   0.919   2.211   7.720 -1.0386  1.2540  0.7944
 8846SOL    HW232631   0.928   2.253   7.865  0.2459 -0.7473  1.3287
 8847SOL     OW32632   6.321   3.769   0.153 -0.0466 -0.1597  0.7335
 8847SOL    HW132633   6.320   3.798   0.244 -1.3673  0.4453  0.5468
 8847SOL    HW232634   6.240   3.804   0.115  1.0549  0.6796 -1.0032
 8848SOL     OW32635   5.925  10.848   4.505  0.5087 -0.6247  0.5691
 8848SOL    HW132636   5.906  10.894   4.423  1.2557  0.0794  0.7774
 8848SOL    HW232637   5.908  10.913   4.573 -0.1566 -1.2205  0.9878
 8849SOL     OW32638   3.453   8.762  10.068 -0.5652  0.5247  0.7051
 8849SOL    HW132639   3.405   8.807   9.998 -1.0910 -2.2129 -0.8302
 8849SOL    HW232640   3.513   8.703  10.022 -0.3953 -0.8447  2.5651
 8850SOL     OW32641   8.253   1.941   6.232  0.7069  0.1425  0.3808
 8850SOL    HW132642   8.175   1.970   6.278  0.5856  0.0844  0.2139
 8850SOL    HW232643   8.246   1.846   6.230  1.4675  0.0443  1.5655
 8851SOL     OW32644   0.013   6.431   3.033 -0.2521 -1.0231 -0.2133
 8851SOL    HW132645   0.036   6.417   2.941  1.4387  0.3581 -0.0432
 8851SOL    HW232646  -0.018   6.521   3.037  2.1586 -0.1524  0.9320
 8852SOL     OW32647   3.470   7.024   5.027 -0.2772 -0.6635 -0.7614
 8852SOL    HW132648   3.442   7.113   5.050 -0.7747 -0.7067 -1.1789
 8852SOL    HW232649   3.557   7.015   5.067 -1.0647 -0.7101  1.0713
 8853SOL     OW32650   3.616   1.437   0.126 -0.7730  0.0948 -0.1834
 8853SOL    HW132651   3.587   1.525   0.104  0.1912  0.9996  1.8789
 8853SOL    HW232652   3.668   1.409   0.050 -0.6906  1.4934 -0.6680
 8854SOL     OW32653   5.899   4.714   2.417  0.3031 -0.3262  0.5665
 8854SOL    HW132654   5.889   4.658   2.340  1.3803 -0.0109  0.1731
 8854SOL    HW232655   5.899   4.803   2.383 -3.9835  0.2211  1.4203
 8855SOL     OW32656   1.493   3.022   8.354 -0.0399 -0.3939  0.1965
 8855SOL    HW132657   1.412   2.994   8.312  0.0695 -2.6276  1.3278
 8855SOL    HW232658   1.473   3.023   8.447  0.5970  1.4294  0.3642
 8856SOL     OW32659   7.190   7.519   1.371 -0.7687  0.3380  0.5813
 8856SOL    HW132660   7.269   7.514   1.425 -0.6284  0.2928  0.3733
 8856SOL    HW232661   7.118   7.518   1.434 -0.7714 -2.8327  0.6954
 8857SOL     OW32662   9.758   8.177   0.155  0.3458  0.4774 -0.7161
 8857SOL    HW132663   9.840   8.136   0.128  1.3561  0.5837  1.8737
 8857SOL    HW232664   9.781   8.269   0.169  0.5218  0.0902  2.3158
 8858SOL     OW32665   2.345   7.669   2.058 -0.3738 -0.8905  0.6702
 8858SOL    HW132666   2.429   7.702   2.090 -1.2601  2.5546 -0.1771
 8858SOL    HW232667   2.347   7.681   1.964 -1.0979 -2.7475  0.3567
 8859SOL     OW32668   9.919   8.756   4.024  0.2152  0.4240  0.1918
 8859SOL    HW132669   9.980   8.718   4.087 -0.0835 -1.0070 -0.3531
 8859SOL    HW232670   9.833   8.743   4.063  0.0397 -0.3358 -0.4206
 8860SOL     OW32671   5.286   4.864   0.321  0.1993 -0.3478  0.6041
 8860SOL    HW132672   5.350   4.892   0.256  0.6653 -1.2310  0.6563
 8860SOL    HW232673   5.337   4.857   0.402 -0.7166  2.4822  1.5558
 8861SOL     OW32674   8.113   4.280   7.910  0.1264  0.2517 -0.0172
 8861SOL    HW132675   8.163   4.218   7.963  0.5388  1.0115  0.5038
 8861SOL    HW232676   8.026   4.241   7.903  0.1289  0.0386  1.0459
 8862SOL     OW32677   2.190   1.107   0.731 -0.3560 -0.2532  0.3304
 8862SOL    HW132678   2.132   1.156   0.789  0.0757  1.4717 -0.6073
 8862SOL    HW232679   2.235   1.175   0.680  2.8240 -1.4481  1.3088
 8863SOL     OW32680   6.973   0.503   9.375 -0.1852  0.1495  0.4619
 8863SOL    HW132681   6.910   0.472   9.440 -0.1372 -0.4917  0.2068
 8863SOL    HW232682   7.041   0.436   9.373 -0.4421 -0.0994 -0.6150
 8864SOL     OW32683   8.570   6.005  10.199  0.0793 -0.0442 -0.0518
 8864SOL    HW132684   8.480   5.972  10.196  0.3766 -0.9802  0.8317
 8864SOL    HW232685   8.625   5.927  10.195  0.8547  0.4958 -0.2392
 8865SOL     OW32686   5.036   6.673   9.735 -0.1418  0.9765  0.1588
 8865SOL    HW132687   5.021   6.642   9.645 -0.0778  1.7004 -0.1024
 8865SOL    HW232688   5.071   6.761   9.725  1.1575  0.5770  0.8472
 8866SOL     OW32689   6.867   2.810   8.506 -0.1571 -0.0690 -0.0669
 8866SOL    HW132690   6.955   2.773   8.510 -0.7028 -1.3495  1.0643
 8866SOL    HW232691   6.816   2.757   8.568 -1.5905  1.0029 -0.2733
 8867SOL     OW32692   2.885   6.460   5.738 -0.2435 -0.2509 -0.2493
 8867SOL    HW132693   2.912   6.395   5.803 -0.4770  0.2890  0.4042
 8867SOL    HW232694   2.947   6.449   5.666  1.3341  0.4925  0.9134
 8868SOL     OW32695   7.704  10.154   7.661 -0.4205  0.4896  0.0071
 8868SOL    HW132696   7.765  10.225   7.680  0.7734 -0.3116 -0.6982
 8868SOL    HW232697   7.631  10.168   7.720  0.2821  1.6919  0.6173
 8869SOL     OW32698   5.514   0.814  10.395 -0.0026 -0.8155 -0.5784
 8869SOL    HW132699   5.517   0.761  10.315  0.0887 -1.8453  0.0919
 8869SOL    HW232700   5.566   0.765  10.459 -0.6396 -0.3607  0.3176
 8870SOL     OW32701   0.890   9.697   4.803 -0.1293  0.4254  0.2659
 8870SOL    HW132702   0.866   9.709   4.895 -1.2026 -1.0770  0.2255
 8870SOL    HW232703   0.817   9.734   4.754 -1.2707 -1.8119  0.1108
 8871SOL     OW32704  10.929   5.111  10.612 -0.7643  0.5094  0.0199
 8871SOL    HW132705  10.918   5.199  10.576  1.8270  1.6103  1.6145
 8871SOL    HW232706  10.977   5.125  10.693  0.0425 -2.4327  0.1336
 8872SOL     OW32707   7.564   7.682   2.225  0.5347 -0.2366  1.0220
 8872SOL    HW132708   7.576   7.737   2.303  1.6203  0.4960  0.3776
 8872SOL    HW232709   7.510   7.735   2.167 -0.6637 -0.9727  1.4390
 8873SOL     OW32710   2.576   6.154   9.181 -0.6340  0.0589 -0.6499
 8873SOL    HW132711   2.651   6.170   9.123  0.0524 -0.5247  0.0426
 8873SOL    HW232712   2.615   6.115   9.260 -1.8420 -2.2144 -1.0665
 8874SOL     OW32713   9.450  10.663   4.324 -1.0216 -0.6665 -0.0508
 8874SOL    HW132714   9.368  10.623   4.296 -1.4752 -1.0230  1.6912
 8874SOL    HW232715   9.512  10.591   4.330 -0.6610 -0.4495 -1.0182
 8875SOL     OW32716   9.281   0.618   8.779  0.0833  0.3750 -0.4365
 8875SOL    HW132717   9.376   0.619   8.792 -0.0239  0.6306  0.4390
 8875SOL    HW232718   9.245   0.618   8.868 -0.7362 -0.4201 -0.7581
 8876SOL     OW32719   7.246   7.392   3.451 -0.1335  0.0035 -0.1956
 8876SOL    HW132720   7.289   7.375   3.367 -1.3399  2.0935 -1.3229
 8876SOL    HW232721   7.167   7.338   3.448  0.5182 -1.0046  0.2534
 8877SOL     OW32722   5.621   0.948   3.622  0.3648 -0.1198  0.3085
 8877SOL    HW132723   5.665   1.028   3.650  0.1649  0.5536 -1.1960
 8877SOL    HW232724   5.549   0.978   3.567 -0.9946 -1.2631  1.3630
 8878SOL     OW32725   5.863  10.278   9.233  0.1427 -0.0728 -0.5933
 8878SOL    HW132726   5.884  10.326   9.153  0.2851 -0.0550 -0.5470
 8878SOL    HW232727   5.917  10.319   9.300 -0.2811  0.1761 -0.4029
 8879SOL     OW32728  10.767   8.516   5.893 -0.2428  1.1171 -0.1163
 8879SOL    HW132729  10.681   8.474   5.887  0.4080 -0.1029 -2.4553
 8879SOL    HW232730  10.798   8.518   5.802  2.2789  1.3012  0.6787
 8880SOL     OW32731   9.251   7.181   5.600  0.2522 -0.1208 -0.0713
 8880SOL    HW132732   9.287   7.179   5.689  1.1396 -2.1754 -0.4017
 8880SOL    HW232733   9.174   7.125   5.605  0.2827 -0.2087 -0.5875
 8881SOL     OW32734   1.149   3.909   0.242 -0.1369 -0.0423  0.3891
 8881SOL    HW132735   1.217   3.875   0.300  0.4419 -1.1047 -0.8664
 8881SOL    HW232736   1.193   3.918   0.157 -1.3606  0.0125 -0.2490
 8882SOL     OW32737  10.843   7.654   6.995 -0.4370 -0.0140  0.0701
 8882SOL    HW132738  10.931   7.644   7.033 -0.3883 -1.1513 -0.2761
 8882SOL    HW232739  10.836   7.746   6.973  2.1627 -0.4186 -3.3272
 8883SOL     OW32740   3.685   3.631   6.542 -0.3014  0.4573 -0.0003
 8883SOL    HW132741   3.628   3.557   6.522 -0.5052  0.9047 -1.1621
 8883SOL    HW232742   3.768   3.592   6.570 -1.2143 -0.2086  1.9540
 8884SOL     OW32743   9.223   0.493   7.463  0.0414  0.2713 -0.1637
 8884SOL    HW132744   9.147   0.523   7.414 -0.3340 -1.4710 -0.7507
 8884SOL    HW232745   9.189   0.427   7.523  1.0459 -0.4101 -0.3114
 8885SOL     OW32746   2.377   8.953   1.026 -0.1900 -0.0596 -0.3756
 8885SOL    HW132747   2.375   8.872   0.975 -1.2481  0.4648 -1.1965
 8885SOL    HW232748   2.321   8.936   1.102 -0.1095 -0.2147 -0.3505
 8886SOL     OW32749  10.107   1.362   8.448  0.4067  0.0098 -0.1016
 8886SOL    HW132750  10.031   1.420   8.454  1.5057  1.6064 -0.7301
 8886SOL    HW232751  10.143   1.361   8.537 -0.1860 -0.5505  0.1407
 8887SOL     OW32752   9.894   7.437   8.986  0.7132  0.7894 -0.1505
 8887SOL    HW132753   9.876   7.520   8.941 -2.2209  1.2534  1.5896
 8887SOL    HW232754   9.815   7.385   8.972  0.3546  0.3273  2.8751
 8888SOL     OW32755   0.967   1.520   4.699  0.4654  0.0377  0.3238
 8888SOL    HW132756   1.017   1.452   4.653  2.0224  0.5684  1.1465
 8888SOL    HW232757   0.885   1.478   4.723  1.3179 -1.4954  0.6615
 8889SOL     OW32758   2.227   4.233   1.982  0.3417 -0.0525  0.1511
 8889SOL    HW132759   2.196   4.154   2.028 -2.3560  0.5222 -0.5126
 8889SOL    HW232760   2.208   4.215   1.890 -0.5160  1.4219  0.0150
 8890SOL     OW32761   3.950   3.298   8.338 -0.5097 -0.0803  0.1966
 8890SOL    HW132762   4.018   3.358   8.306 -1.2299  0.8419  0.3556
 8890SOL    HW232763   3.962   3.219   8.286  1.2019 -0.2483  0.7823
 8891SOL     OW32764   1.338   9.963   2.122  0.0005 -0.2878  0.4474
 8891SOL    HW132765   1.290  10.018   2.060 -0.1278 -0.6015  0.2673
 8891SOL    HW232766   1.378   9.894   2.068 -1.7139 -1.7159  0.9070
 8892SOL     OW32767  10.434   6.348   5.144  1.5237  0.3081 -0.1933
 8892SOL    HW132768  10.431   6.363   5.049  0.0235 -1.6647 -0.5313
 8892SOL    HW232769  10.435   6.252   5.153  0.8414  0.4366  1.7842
 8893SOL     OW32770   4.870   5.950   1.426 -0.5828  0.8704 -0.0102
 8893SOL    HW132771   4.800   5.991   1.477 -0.0445  1.0435  0.6032
 8893SOL    HW232772   4.852   5.856   1.432 -0.7645  0.9135  0.1458
 8894SOL     OW32773   8.541   8.855   3.843 -0.3041 -0.8187  0.0164
 8894SOL    HW132774   8.576   8.768   3.825  1.1368 -0.2249 -0.1367
 8894SOL    HW232775   8.446   8.844   3.834 -0.1282 -2.2685 -0.4140
 8895SOL     OW32776   6.478   8.007   7.853 -0.0219  0.4480  0.2918
 8895SOL    HW132777   6.451   8.096   7.829 -0.3144  0.6644  1.3511
 8895SOL    HW232778   6.418   7.950   7.806  0.8068  0.7614 -1.1988
 8896SOL     OW32779   3.730   8.653   3.446  0.0796  0.0919  0.4095
 8896SOL    HW132780   3.763   8.714   3.380 -0.6386  0.8607  0.7399
 8896SOL    HW232781   3.796   8.655   3.516  0.0819  0.4659  0.3998
 8897SOL     OW32782   2.275   0.599   7.054  0.1073 -0.5350 -0.1206
 8897SOL    HW132783   2.202   0.567   7.106 -0.7572  1.4329 -0.0347
 8897SOL    HW232784   2.328   0.649   7.116 -0.9223  1.8261 -1.0000
 8898SOL     OW32785   5.833   1.108   2.212  0.2603 -0.1716 -0.0841
 8898SOL    HW132786   5.801   1.064   2.291  2.6723  0.6511  1.4370
 8898SOL    HW232787   5.888   1.043   2.169  1.6490  0.4297  0.7342
 8899SOL     OW32788   0.493   2.851   3.998  0.1771  0.0691  0.5190
 8899SOL    HW132789   0.484   2.933   3.949  1.0390 -0.6711 -0.9194
 8899SOL    HW232790   0.406   2.812   3.996 -0.1772  0.7913  0.9867
 8900SOL     OW32791   1.394   8.592   6.413  0.0181 -0.2259 -0.2541
 8900SOL    HW132792   1.461   8.524   6.419  0.1093 -0.1873 -0.7737
 8900SOL    HW232793   1.443   8.674   6.407  0.0087 -0.3078 -2.3609
 8901SOL     OW32794   9.493   6.248   8.089  0.5332  0.0715  0.0112
 8901SOL    HW132795   9.408   6.210   8.113  0.6333 -0.4675 -0.4631
 8901SOL    HW232796   9.487   6.264   7.995  1.0663 -0.2713 -0.0877
 8902SOL     OW32797  10.176   3.946   9.944 -0.3479 -0.0391  0.1291
 8902SOL    HW132798  10.160   4.040   9.936 -2.2869 -0.3939 -0.9675
 8902SOL    HW232799  10.093   3.910   9.975  0.6525 -1.3137  1.4741
 8903SOL     OW32800   7.883   2.341   0.300  0.1909  0.2683  0.7826
 8903SOL    HW132801   7.947   2.412   0.291  0.9882 -0.4911  0.2888
 8903SOL    HW232802   7.843   2.334   0.213 -0.6386  0.7781  1.1027
 8904SOL     OW32803  10.706   7.491   8.330  0.0657 -0.1913  0.3587
 8904SOL    HW132804  10.709   7.508   8.424  2.4224  1.1477  0.1141
 8904SOL    HW232805  10.706   7.396   8.322 -0.3933 -0.3208  1.6911
 8905SOL     OW32806   1.186   8.377   9.263  0.0210  0.6201 -0.2349
 8905SOL    HW132807   1.123   8.438   9.302 -0.0988  0.5537 -0.3227
 8905SOL    HW232808   1.178   8.391   9.169 -1.9918 -1.4258 -0.4531
 8906SOL     OW32809   0.208   6.277   2.538  0.0814  0.5493 -0.5210
 8906SOL    HW132810   0.122   6.234   2.531 -0.1440  0.9150 -0.0417
 8906SOL    HW232811   0.237   6.287   2.447  0.5823 -1.4818 -0.6288
 8907SOL     OW32812   3.838   4.527   5.998  0.3472  0.0836  0.4017
 8907SOL    HW132813   3.836   4.437   5.966 -0.1581  0.0100  0.6188
 8907SOL    HW232814   3.885   4.523   6.080  0.7772  0.1070  0.1597
 8908SOL     OW32815   9.620   7.955   3.573 -0.0528 -0.0479  0.4908
 8908SOL    HW132816   9.558   7.980   3.641  0.1499 -0.7784  0.9522
 8908SOL    HW232817   9.565   7.916   3.504 -0.0861 -1.1382  1.1053
 8909SOL     OW32818   1.100   6.607   2.916 -0.0265 -0.0548 -0.1595
 8909SOL    HW132819   1.086   6.517   2.944 -2.2878  0.4229  0.5002
 8909SOL    HW232820   1.012   6.640   2.898  0.7877  1.8786 -0.8483
 8910SOL     OW32821  10.820   7.012   6.647  0.2477 -0.4654  0.2066
 8910SOL    HW132822  10.753   6.958   6.605  0.0290  0.2167 -0.3407
 8910SOL    HW232823  10.771   7.084   6.686  0.5447 -0.6213  0.8906
 8911SOL     OW32824   1.684   8.939   8.672  0.0512 -0.1778 -0.1360
 8911SOL    HW132825   1.727   8.859   8.640  0.6802  0.0591  0.1081
 8911SOL    HW232826   1.668   8.990   8.593  1.7726  0.4878 -0.0947
 8912SOL     OW32827   3.670   3.974   7.624 -0.1291 -0.2896  0.2456
 8912SOL    HW132828   3.676   4.059   7.582 -0.0153 -0.0486  0.7490
 8912SOL    HW232829   3.760   3.951   7.646 -0.1389 -0.6253 -0.0595
 8913SOL     OW32830   6.481   8.453   7.564  0.3679 -0.5607  0.3708
 8913SOL    HW132831   6.491   8.381   7.502 -0.5285 -0.5597  0.2006
 8913SOL    HW232832   6.567   8.493   7.570  0.3107 -0.0842 -1.4789
 8914SOL     OW32833   6.948   0.009   3.126 -0.2869  0.3143  0.1958
 8914SOL    HW132834   6.866   0.029   3.171  0.4833  0.1614  1.7366
 8914SOL    HW232835   6.988  -0.060   3.179  0.7145  0.1702 -0.7047
 8915SOL     OW32836   5.953   1.912   0.418 -0.3085 -0.0082  0.2617
 8915SOL    HW132837   5.953   1.942   0.509  1.1610 -0.3589  0.4074
 8915SOL    HW232838   6.021   1.844   0.415 -1.6195 -1.3601 -0.6846
 8916SOL     OW32839   0.003   0.967   4.862 -0.2545 -0.1862  0.0420
 8916SOL    HW132840   0.088   0.978   4.818 -0.9517 -1.2585 -1.6461
 8916SOL    HW232841  -0.057   1.024   4.814 -0.1250  2.5412  2.7347
 8917SOL     OW32842   3.281   8.992   6.199  0.0330 -0.0595 -0.3843
 8917SOL    HW132843   3.293   8.927   6.268  1.2416 -0.5254 -0.9867
 8917SOL    HW232844   3.331   9.068   6.228 -0.1595  0.0545 -0.3524
 8918SOL     OW32845   9.347   9.446   8.077  0.3790 -0.7799 -0.4967
 8918SOL    HW132846   9.317   9.360   8.049  1.0468 -1.4396  0.6901
 8918SOL    HW232847   9.420   9.427   8.136 -1.3162  0.4267  2.1978
 8919SOL     OW32848   2.242  10.619   4.045 -0.5791  0.0615  0.7559
 8919SOL    HW132849   2.223  10.526   4.031  2.1363 -0.6892  1.4789
 8919SOL    HW232850   2.269  10.652   3.960 -3.5957  0.8496 -0.0169
 8920SOL     OW32851   1.451   1.835   3.039 -0.0096 -0.5281 -0.1084
 8920SOL    HW132852   1.389   1.845   2.967 -2.2987 -0.2757  1.7711
 8920SOL    HW232853   1.413   1.769   3.096  1.4921 -0.4199  1.1131
 8921SOL     OW32854   9.988   6.757   0.993  0.4723  0.1691 -0.2285
 8921SOL    HW132855   9.903   6.716   0.980  0.0096  1.0962 -0.2002
 8921SOL    HW232856   9.988   6.832   0.934  0.2607  1.6294  1.5391
 8922SOL     OW32857   3.188   9.577   0.103 -0.6074 -0.4428  0.0383
 8922SOL    HW132858   3.259   9.562   0.040 -0.7919  0.7241 -0.4957
 8922SOL    HW232859   3.109   9.575   0.049 -0.8225 -0.0679  0.3357
 8923SOL     OW32860   7.507   9.735   9.608  0.0360 -0.3159  0.0884
 8923SOL    HW132861   7.529   9.812   9.661  1.8006 -1.5731  1.2805
 8923SOL    HW232862   7.480   9.669   9.672 -0.0712 -1.1512 -0.7939
 8924SOL     OW32863   7.704   4.079   8.869 -0.2410 -0.1066 -0.4923
 8924SOL    HW132864   7.621   4.083   8.915 -0.6406 -0.8331 -1.1300
 8924SOL    HW232865   7.740   3.993   8.891 -0.1621 -0.2260 -1.0538
 8925SOL     OW32866   8.012   8.559   3.111 -0.0745  0.6969  0.3234
 8925SOL    HW132867   7.942   8.571   3.046 -0.8231  0.1407  1.0077
 8925SOL    HW232868   8.052   8.475   3.087  0.5437  1.1370 -0.2234
 8926SOL     OW32869   0.749   1.215   4.997 -0.1260 -0.6035  0.4454
 8926SOL    HW132870   0.756   1.216   5.092  2.3332  0.8229  0.3572
 8926SOL    HW232871   0.725   1.125   4.975  0.7378 -1.3615  2.3768
 8927SOL     OW32872   9.080   6.429   2.816  0.1542  0.0716  0.0616
 8927SOL    HW132873   9.073   6.464   2.727  1.0418 -0.1334 -0.0996
 8927SOL    HW232874   9.058   6.336   2.806  1.0103 -0.1224 -0.0879
 8928SOL     OW32875   6.625   3.568   5.450 -0.3233  0.0281  0.2181
 8928SOL    HW132876   6.692   3.571   5.518  0.3873  1.3036 -0.4980
 8928SOL    HW232877   6.546   3.602   5.492 -0.1385 -0.0955  0.6645
 8929SOL     OW32878   1.524   5.389  10.081 -0.3415  0.2815 -0.1853
 8929SOL    HW132879   1.444   5.418  10.036 -0.7502  1.5729  1.2834
 8929SOL    HW232880   1.580   5.467  10.082  1.4300 -0.8459 -2.0556
 8930SOL     OW32881   5.360   0.374   7.030 -0.2787  0.0848 -0.0672
 8930SOL    HW132882   5.365   0.411   6.942  0.4652  1.6061  0.5790
 8930SOL    HW232883   5.299   0.431   7.077 -2.0563 -1.7242 -0.0225
 8931SOL     OW32884   3.943   5.629   7.178  0.2523 -0.2395  0.8011
 8931SOL    HW132885   3.964   5.697   7.242  1.3049  0.3755 -0.1657
 8931SOL    HW232886   3.877   5.670   7.121  2.0498  0.6296 -0.7679
 8932SOL     OW32887   5.260   4.853   0.717  0.1087  0.1751 -0.1474
 8932SOL    HW132888   5.290   4.786   0.655  0.5068 -1.1669  1.4351
 8932SOL    HW232889   5.165   4.854   0.706 -0.0220 -1.4552  0.5355
 8933SOL     OW32890   2.759   4.033   1.304  0.6754 -0.1682  0.3553
 8933SOL    HW132891   2.835   4.022   1.246  0.3145 -0.5073 -0.0601
 8933SOL    HW232892   2.692   4.072   1.248  0.0982 -1.1255  0.3602
 8934SOL     OW32893   8.119  10.790   0.056  0.2341  0.2212 -0.0803
 8934SOL    HW132894   8.056  10.854   0.089 -0.2141  1.5212 -3.1624
 8934SOL    HW232895   8.065  10.719   0.020  0.7216 -1.8798  2.8730
 8935SOL     OW32896   1.748   9.651   5.692  0.3728 -0.3016 -0.0021
 8935SOL    HW132897   1.695   9.603   5.756  0.5758  0.1270  0.4967
 8935SOL    HW232898   1.697   9.728   5.671 -0.3272 -1.1296 -1.4366
 8936SOL     OW32899   3.288   5.835   3.041 -0.3129  0.1790  0.3786
 8936SOL    HW132900   3.236   5.873   2.969 -1.3114  0.1607  1.0721
 8936SOL    HW232901   3.335   5.763   3.000  1.8845  2.2865 -1.0498
 8937SOL     OW32902  10.181   5.141   6.482  0.6755 -0.1962  0.1802
 8937SOL    HW132903  10.098   5.185   6.466  0.3649 -0.8553 -0.0702
 8937SOL    HW232904  10.160   5.047   6.476  1.5156 -0.3675 -0.3473
 8938SOL     OW32905   4.270   7.424   5.948 -0.3362  0.5993  0.2141
 8938SOL    HW132906   4.227   7.509   5.954 -1.4654  0.0639 -0.0927
 8938SOL    HW232907   4.220   7.367   6.006  0.4431  0.1519  0.4530
 8939SOL     OW32908   2.430   7.855   5.019  0.8286 -0.5737  0.0792
 8939SOL    HW132909   2.377   7.929   5.048 -1.2126 -0.1824 -4.0019
 8939SOL    HW232910   2.507   7.895   4.979  1.8013 -0.9485  1.4809
 8940SOL     OW32911   9.220   1.925   9.860 -0.9369  0.1920 -0.0142
 8940SOL    HW132912   9.254   1.972   9.784  2.6083 -0.9433  0.6763
 8940SOL    HW232913   9.193   1.840   9.826 -0.1505 -0.0033 -0.1710
 8941SOL     OW32914   8.049   1.995   6.408 -0.1866  0.7697 -0.1170
 8941SOL    HW132915   7.962   2.034   6.413 -0.7269 -0.4805  0.8131
 8941SOL    HW232916   8.038   1.908   6.445  1.9363  1.3670  2.1951
 8942SOL     OW32917   3.398  10.508   5.240  0.1642  0.3285  0.1050
 8942SOL    HW132918   3.482  10.548   5.265  0.7666  0.0662 -1.3641
 8942SOL    HW232919   3.367  10.563   5.168  0.5118 -1.2060 -1.2809
 8943SOL     OW32920   0.805   7.389  10.205 -0.0366 -0.8306  0.2255
 8943SOL    HW132921   0.717   7.352  10.196 -0.9099  0.6240  2.0820
 8943SOL    HW232922   0.829   7.372  10.296  1.6393 -1.2244 -0.2612
 8944SOL     OW32923   0.165   6.619   8.653  0.0572  0.0854 -0.2600
 8944SOL    HW132924   0.154   6.633   8.747 -0.9827  0.1624 -0.3826
 8944SOL    HW232925   0.259   6.605   8.642  0.1701 -0.1009  0.8108
 8945SOL     OW32926   2.064   1.830   5.984  0.0910  0.3546 -0.1592
 8945SOL    HW132927   2.097   1.774   5.915  0.4644 -0.1993  0.4580
 8945SOL    HW232928   2.127   1.821   6.056 -1.5119 -0.9709  1.1617
 8946SOL     OW32929   3.385   0.141   9.779  0.7480  0.2483 -0.0924
 8946SOL    HW132930   3.356   0.058   9.741 -0.4593  0.0170  1.2292
 8946SOL    HW232931   3.475   0.124   9.808  1.4815  0.2475 -2.1662
 8947SOL     OW32932   3.376   0.153   6.860  0.2475  0.4021  0.2648
 8947SOL    HW132933   3.304   0.182   6.803  0.2739  0.1091  0.0814
 8947SOL    HW232934   3.399   0.067   6.827 -0.4055 -0.2084  1.3485
 8948SOL     OW32935   5.341   2.172   3.955 -0.0564  0.5959  0.2504
 8948SOL    HW132936   5.298   2.101   3.907 -0.4650  0.1135  1.2917
 8948SOL    HW232937   5.359   2.238   3.889  0.6716 -0.6287 -0.8173
 8949SOL     OW32938   3.233   7.749  10.433  0.0454  0.0647  0.1362
 8949SOL    HW132939   3.255   7.671  10.483  0.1839  0.0937  0.1204
 8949SOL    HW232940   3.220   7.817  10.499  0.1581  0.0861  0.1351
 8950SOL     OW32941   1.366   8.559   8.090 -0.0422 -0.0629 -0.1180
 8950SOL    HW132942   1.302   8.571   8.160 -1.4217  0.3763 -1.3867
 8950SOL    HW232943   1.312   8.550   8.010  1.4202 -1.5904 -0.9890
 8951SOL     OW32944   5.154   2.365   7.559 -0.0319 -0.5015 -0.0157
 8951SOL    HW132945   5.091   2.420   7.513  0.7448  0.7262  0.3311
 8951SOL    HW232946   5.167   2.410   7.642 -0.1314 -1.7754  0.6979
 8952SOL     OW32947   8.152   9.534   2.839 -0.3376  0.4811 -0.0962
 8952SOL    HW132948   8.087   9.464   2.845 -1.1242  0.9202 -2.3347
 8952SOL    HW232949   8.102   9.614   2.853  0.1987  0.7056  0.5673
 8953SOL     OW32950   5.203   8.708   6.225  0.8348 -0.1437 -0.0158
 8953SOL    HW132951   5.140   8.638   6.208 -0.6706  0.7354  1.6670
 8953SOL    HW232952   5.253   8.715   6.143 -0.9971 -1.1310 -1.2914
 8954SOL     OW32953  10.561   9.254   4.054 -0.3472 -0.6938 -0.4854
 8954SOL    HW132954  10.566   9.294   4.140 -1.9425 -1.4712  0.0105
 8954SOL    HW232955  10.639   9.284   4.008 -0.5824  1.5118  0.4553
 8955SOL     OW32956   4.156   2.117  10.101  0.5567  0.1703  0.6685
 8955SOL    HW132957   4.174   2.029  10.135 -1.3630 -0.4025  0.3266
 8955SOL    HW232958   4.094   2.155  10.163 -0.5635  0.3041 -0.4994
 8956SOL     OW32959  10.052   4.174  10.828  0.0869 -0.0660 -0.0512
 8956SOL    HW132960  10.009   4.256  10.851  0.2845  0.6099 -1.9143
 8956SOL    HW232961  10.114   4.199  10.759  1.8796 -1.3824  1.0045
 8957SOL     OW32962   9.237   9.289  10.844  0.3853 -0.0699  0.0727
 8957SOL    HW132963   9.191   9.218  10.801 -2.0550  1.2799  0.2189
 8957SOL    HW232964   9.256   9.352  10.774 -0.6375  0.6428  0.3933
 8958SOL     OW32965  10.293   8.712   7.821  0.4824  0.0509  0.2757
 8958SOL    HW132966  10.330   8.707   7.909  0.4052  0.4507  0.3325
 8958SOL    HW232967  10.349   8.656   7.768  0.9175  0.3175  0.4485
 8959SOL     OW32968   8.126   8.776   0.362  0.7762  1.0147 -0.4753
 8959SOL    HW132969   8.130   8.689   0.323  0.6426 -0.3420  2.2857
 8959SOL    HW232970   8.035   8.786   0.390  1.0472  1.5288  0.2532
 8960SOL     OW32971   6.942   3.618   5.479  0.4266  0.1720  0.4040
 8960SOL    HW132972   6.942   3.524   5.461  0.0955  0.0483  1.0051
 8960SOL    HW232973   7.034   3.641   5.488  0.4604 -0.4352  1.8756
 8961SOL     OW32974   4.932   4.501   7.546  0.3005 -0.2769  0.6303
 8961SOL    HW132975   4.935   4.519   7.452 -0.7961  1.8610  0.9392
 8961SOL    HW232976   4.859   4.441   7.557 -1.0428  1.2454  0.3062
 8962SOL     OW32977   5.344   6.403   0.179  0.1794  0.2160 -0.4151
 8962SOL    HW132978   5.372   6.445   0.260  0.7921 -1.0311  0.0574
 8962SOL    HW232979   5.283   6.335   0.207 -0.1779  0.2543 -1.0786
 8963SOL     OW32980   5.940   5.538   6.123 -0.2477  0.8445 -0.1878
 8963SOL    HW132981   5.878   5.493   6.179 -1.0303  1.3191 -0.6536
 8963SOL    HW232982   5.908   5.522   6.034 -0.9592  2.8698 -0.3392
 8964SOL     OW32983   9.251   2.753   3.990 -0.3642  0.0289 -0.2477
 8964SOL    HW132984   9.291   2.810   3.924  2.5568 -3.0529 -1.4216
 8964SOL    HW232985   9.312   2.755   4.063 -0.5686 -1.0251 -0.0330
 8965SOL     OW32986   5.476   7.204   8.555  0.5007 -0.2753  0.1376
 8965SOL    HW132987   5.472   7.268   8.484  1.9007  0.9592  1.1137
 8965SOL    HW232988   5.555   7.154   8.539 -1.0555 -2.4783 -1.1301
 8966SOL     OW32989   4.904   3.056   2.557 -0.3591 -0.5890  0.0501
 8966SOL    HW132990   4.944   2.970   2.542  2.7734  0.9447 -1.5371
 8966SOL    HW232991   4.965   3.100   2.617 -1.3090  0.8774 -0.0144
 8967SOL     OW32992   3.626   9.085   7.865  0.2831 -0.2364 -0.1981
 8967SOL    HW132993   3.574   9.114   7.939  3.8282  1.2835  1.9554
 8967SOL    HW232994   3.674   9.009   7.897  1.6993  0.2970 -0.9691
 8968SOL     OW32995   8.262   5.663   6.742  0.5361  0.3369 -0.0546
 8968SOL    HW132996   8.208   5.650   6.820  0.8522 -0.4190  0.0473
 8968SOL    HW232997   8.210   5.624   6.671 -0.0596  1.6219 -0.3597
 8969SOL     OW32998   5.544   1.978   9.502 -0.0411  0.0853  0.3640
 8969SOL    HW132999   5.485   1.969   9.427 -2.7154  0.1663  2.2929
 8969SOL    HW233000   5.525   2.064   9.538  0.8135 -0.1447  1.4244
 8970SOL     OW33001   0.627   0.252   8.065 -0.1047  0.4000 -0.3376
 8970SOL    HW133002   0.599   0.237   7.975  0.3243  1.3019 -0.6345
 8970SOL    HW233003   0.552   0.294   8.107 -1.5333 -2.8451  0.6594
 8971SOL     OW33004   3.979  10.277  10.445  0.1817  0.0617 -0.2351
 8971SOL    HW133005   3.990  10.366  10.478  1.8629 -0.3304  0.3661
 8971SOL    HW233006   3.986  10.222  10.523 -1.2371 -0.5994 -0.5439
 8972SOL     OW33007   8.402   0.298   5.707 -0.4100  0.1345  0.3864
 8972SOL    HW133008   8.426   0.206   5.709 -0.0101  0.2024 -0.6872
 8972SOL    HW233009   8.484   0.346   5.718 -0.4282  0.3562 -0.3673
 8973SOL     OW33010   7.123  10.185   8.663 -0.3412 -0.0678 -0.4567
 8973SOL    HW133011   7.175  10.254   8.622  0.5933 -0.3820  0.1493
 8973SOL    HW233012   7.039  10.226   8.681  0.2644  0.9935  0.0974
 8974SOL     OW33013  10.047   2.000   8.214 -0.0808  0.1441  0.5796
 8974SOL    HW133014  10.052   2.089   8.249 -1.3367  1.2443 -1.7623
 8974SOL    HW233015  10.087   2.006   8.127 -1.9215 -1.0605 -0.4266
 8975SOL     OW33016   8.405   1.789   8.340  0.5505  0.1773 -0.0045
 8975SOL    HW133017   8.315   1.804   8.368  0.9680  1.8058  0.5916
 8975SOL    HW233018   8.398   1.776   8.245 -0.3926 -0.6237  0.1578
 8976SOL     OW33019   7.990   4.453   6.893  0.5434 -0.5761  0.3137
 8976SOL    HW133020   7.974   4.361   6.874 -0.9370 -0.1962 -0.4831
 8976SOL    HW233021   7.904   4.488   6.917  0.3556  1.2745 -2.5792
 8977SOL     OW33022   4.104   0.782   9.314 -0.2139 -0.0994 -0.2090
 8977SOL    HW133023   4.145   0.743   9.236 -1.8168 -0.8647 -0.7127
 8977SOL    HW233024   4.010   0.777   9.297 -0.6207  4.1652 -0.3713
 8978SOL     OW33025   6.070   4.453   5.967 -0.2088 -0.1586  0.2021
 8978SOL    HW133026   6.074   4.450   5.872 -1.0076  0.8438  0.1160
 8978SOL    HW233027   6.074   4.547   5.988  0.2532 -0.3779  1.1727
 8979SOL     OW33028   6.392   8.237   7.748  0.3949 -0.2660  0.5344
 8979SOL    HW133029   6.307   8.214   7.711  0.5285 -1.0253  0.6783
 8979SOL    HW233030   6.425   8.307   7.691 -1.5496  2.0954  2.1413
 8980SOL     OW33031   0.747   1.525   5.065 -0.8276 -0.0442 -0.3273
 8980SOL    HW133032   0.797   1.596   5.106 -1.3718  0.0062  0.2708
 8980SOL    HW233033   0.807   1.451   5.065 -1.1367 -0.3563  1.5670
 8981SOL     OW33034   0.794  10.849   9.633  0.8846  0.1959 -0.3740
 8981SOL    HW133035   0.825  10.877   9.719 -1.4174  0.1090  0.5675
 8981SOL    HW233036   0.792  10.929   9.581  1.1654  0.4700  0.0286
 8982SOL     OW33037   3.525   9.338   5.938 -0.1280  0.3392  0.5345
 8982SOL    HW133038   3.521   9.255   5.892  0.3631  0.3393  0.4815
 8982SOL    HW233039   3.603   9.381   5.902 -0.8818  1.2259 -0.1218
 8983SOL     OW33040   3.000   3.301   0.914 -0.1369  0.2932 -0.3907
 8983SOL    HW133041   3.016   3.207   0.905  1.1190  0.4373  0.2063
 8983SOL    HW233042   2.982   3.313   1.007  2.8766  1.0455  0.2049
 8984SOL     OW33043   3.828   4.514  10.237  0.1296 -0.3825 -0.0679
 8984SOL    HW133044   3.875   4.558  10.308 -0.6863 -0.1875  0.3569
 8984SOL    HW233045   3.767   4.456  10.282 -1.5440  0.9294 -0.5650
 8985SOL     OW33046   5.870   3.182   2.213  0.8123 -0.2239  0.4028
 8985SOL    HW133047   5.910   3.267   2.233 -1.3982  0.3895  2.7687
 8985SOL    HW233048   5.940   3.118   2.228  1.7067  0.9847  1.6218
 8986SOL     OW33049   8.297   1.421   2.059  0.3851  0.3243  0.0177
 8986SOL    HW133050   8.304   1.351   1.994 -0.9042 -0.1704  0.3766
 8986SOL    HW233051   8.386   1.435   2.090  0.7075 -0.9614 -0.2795
 8987SOL     OW33052  10.467   6.564   6.380  0.2893  0.2006 -0.6711
 8987SOL    HW133053  10.392   6.504   6.381 -1.0164  1.7267  1.1491
 8987SOL    HW233054  10.492   6.570   6.288 -0.3602 -2.0625 -1.0653
 8988SOL     OW33055   4.602   9.297   9.982  0.1210 -0.2829  0.2327
 8988SOL    HW133056   4.625   9.358  10.052  0.9309  0.8993 -0.9887
 8988SOL    HW233057   4.525   9.335   9.941  1.4364  0.7562 -1.4173
 8989SOL     OW33058   7.221   2.919  10.002 -0.1833 -0.2794 -0.3158
 8989SOL    HW133059   7.222   2.827   9.975 -0.2799 -1.8472  4.1043
 8989SOL    HW233060   7.129   2.939  10.018  0.0480 -0.9681  2.5925
 8990SOL     OW33061   4.477   5.460   6.634 -0.1289  0.2754 -0.0424
 8990SOL    HW133062   4.542   5.481   6.566 -0.6121  0.9402 -0.3086
 8990SOL    HW233063   4.508   5.378   6.672  0.3187  0.0616 -0.8494
 8991SOL     OW33064   1.514   9.124   3.140  0.0106 -0.2105 -0.0632
 8991SOL    HW133065   1.547   9.093   3.224  0.4819  0.2507 -0.0776
 8991SOL    HW233066   1.582   9.101   3.077  0.4993  1.0910 -0.0312
 8992SOL     OW33067   8.449   0.150   7.482 -0.8322  0.4915  0.4468
 8992SOL    HW133068   8.404   0.066   7.481  1.3983 -0.8093 -1.3881
 8992SOL    HW233069   8.393   0.208   7.429 -1.4928 -0.3803  0.1756
 8993SOL     OW33070   9.840   9.389   1.236 -0.0002 -0.0373 -0.1642
 8993SOL    HW133071   9.861   9.332   1.309 -0.4634  0.4474  0.3577
 8993SOL    HW233072   9.797   9.465   1.276 -2.8207 -0.9755 -1.1373
 8994SOL     OW33073   5.598   6.822   8.290  0.2053  0.1959 -0.5117
 8994SOL    HW133074   5.648   6.746   8.261  1.1865  0.9433 -0.8295
 8994SOL    HW233075   5.527   6.831   8.226  0.4708 -0.0640 -0.8417
 8995SOL     OW33076   5.199   8.836   9.073 -0.5009  0.0503  0.0898
 8995SOL    HW133077   5.157   8.892   9.007  0.1951 -0.2407 -0.6217
 8995SOL    HW233078   5.292   8.859   9.068 -0.5906  0.9969  1.9421
 8996SOL     OW33079   9.771   4.391   1.537  0.1493  0.4014  0.0429
 8996SOL    HW133080   9.810   4.341   1.465  1.2653  0.8066  0.3487
 8996SOL    HW233081   9.822   4.366   1.614 -0.0788  1.0940  0.4260
 8997SOL     OW33082   8.084   1.389   1.699 -0.0473  0.5443  0.1252
 8997SOL    HW133083   8.122   1.355   1.618  0.4451  0.9487  0.1809
 8997SOL    HW233084   8.011   1.444   1.670  1.5903  2.6829 -0.2325
 8998SOL     OW33085   3.732   5.371   4.176 -0.2381  0.5188 -0.1992
 8998SOL    HW133086   3.758   5.370   4.268 -1.0247 -1.5495  0.0414
 8998SOL    HW233087   3.636   5.366   4.178 -0.2148 -0.7494 -1.1125
 8999SOL     OW33088   7.980  10.831   1.147  0.7042 -0.0426 -0.0762
 8999SOL    HW133089   8.012  10.774   1.217  0.6776 -0.9315 -0.7651
 8999SOL    HW233090   7.921  10.776   1.097 -1.5533  1.4069  0.8433
 9000SOL     OW33091   7.265   2.497  10.312  0.0186 -0.0625 -0.0935
 9000SOL    HW133092   7.182   2.459  10.284  0.5665  0.0731 -2.0300
 9000SOL    HW233093   7.331   2.431  10.290  0.6367  0.7030 -0.6030
 9001SOL     OW33094   6.704   9.737   5.600 -0.1240 -0.0100  0.0337
 9001SOL    HW133095   6.675   9.818   5.560 -0.3887  1.5609  3.0705
 9001SOL    HW233096   6.758   9.765   5.674 -0.5647 -2.5535  1.4417
 9002SOL     OW33097   7.306   7.863   4.822  0.0266 -0.9266 -0.4549
 9002SOL    HW133098   7.352   7.926   4.765  0.9799 -1.2899 -0.1150
 9002SOL    HW233099   7.345   7.779   4.800 -0.0621 -1.1585  0.2747
 9003SOL     OW33100   3.173   3.284   7.884 -0.1430 -0.3462  0.1602
 9003SOL    HW133101   3.178   3.362   7.830  0.1496  0.6112  1.5187
 9003SOL    HW233102   3.249   3.290   7.942 -0.1822 -1.5745  0.3651
 9004SOL     OW33103   7.250   6.180   3.553  0.1898  0.9495  0.1440
 9004SOL    HW133104   7.212   6.242   3.614 -0.7552  0.0069  0.5352
 9004SOL    HW233105   7.214   6.204   3.468 -2.0575 -0.4590  0.6250
 9005SOL     OW33106  10.694   8.950   2.858 -0.2729  0.2006  0.2727
 9005SOL    HW133107  10.734   8.952   2.771 -1.9982  0.7177 -0.5530
 9005SOL    HW233108  10.707   9.038   2.893  0.8347 -0.1427  0.7514
 9006SOL     OW33109   6.424   7.218   2.727 -0.1719 -0.5280 -0.3963
 9006SOL    HW133110   6.333   7.210   2.697 -0.0759 -2.4288 -0.2491
 9006SOL    HW233111   6.427   7.305   2.768 -1.7839 -0.2326 -0.8187
 9007SOL     OW33112   9.012   7.188   0.229  0.0210 -0.1721 -0.1592
 9007SOL    HW133113   9.070   7.263   0.220  0.7021 -0.5179  1.0707
 9007SOL    HW233114   8.924   7.226   0.230  0.3260  0.5487 -0.1892
 9008SOL     OW33115   7.225   6.927   2.558  0.0966 -0.0689  0.1556
 9008SOL    HW133116   7.316   6.952   2.544 -0.2707  0.6325 -1.2510
 9008SOL    HW233117   7.184   7.005   2.595  0.0103 -0.3079  0.5726
 9009SOL     OW33118  10.072   0.776   7.638  0.7971 -0.0738  0.4528
 9009SOL    HW133119   9.995   0.723   7.659 -0.3942  0.2438 -2.6083
 9009SOL    HW233120  10.041   0.866   7.637  1.3121  0.1150 -0.2177
 9010SOL     OW33121   9.241   1.564   2.570 -0.1278  0.0849  0.1728
 9010SOL    HW133122   9.336   1.558   2.562  0.0426  0.8132  1.4434
 9010SOL    HW233123   9.208   1.510   2.498  1.2352  0.7341 -0.9912
 9011SOL     OW33124   7.333   1.232   0.394 -0.2347 -0.1509  0.3714
 9011SOL    HW133125   7.419   1.214   0.356 -1.4461  0.1855 -2.7911
 9011SOL    HW233126   7.284   1.150   0.382 -1.2258  0.5539 -0.5856
 9012SOL     OW33127   4.378   7.811   5.937  0.0616  0.3495  0.1946
 9012SOL    HW133128   4.309   7.745   5.933 -0.3812  0.7289  1.0609
 9012SOL    HW233129   4.432   7.796   5.859 -0.4842 -0.5203 -0.0243
 9013SOL     OW33130   6.090   8.392   0.751  0.0750  0.0080 -0.2840
 9013SOL    HW133131   6.079   8.297   0.744  2.6037 -0.2894 -0.9769
 9013SOL    HW233132   6.111   8.407   0.843 -3.2428  0.3358  0.5427
 9014SOL     OW33133   5.252   1.449   3.838  0.3404 -0.1482  0.1915
 9014SOL    HW133134   5.249   1.405   3.753 -2.0770  0.3645 -0.0793
 9014SOL    HW233135   5.264   1.542   3.815 -1.7532  0.1909  0.2283
 9015SOL     OW33136   3.383  10.589   2.548  0.3790 -0.0463  0.0542
 9015SOL    HW133137   3.427  10.658   2.498 -1.0798 -0.7825 -2.4342
 9015SOL    HW233138   3.294  10.588   2.513 -0.3721 -1.4716  1.8787
 9016SOL     OW33139   2.273   4.054   2.509 -0.8295 -0.4550  0.8479
 9016SOL    HW133140   2.360   4.037   2.473 -0.7308 -0.1821  0.9509
 9016SOL    HW233141   2.212   4.024   2.442 -0.6574 -0.7543  0.8222
 9017SOL     OW33142   1.463  10.743   4.812  0.0590  0.0487 -0.5955
 9017SOL    HW133143   1.534  10.705   4.864  1.0024  0.2179 -1.6874
 9017SOL    HW233144   1.385  10.695   4.837  0.5875 -0.2256  0.5647
 9018SOL     OW33145   7.815   3.124   2.783  0.4536  0.7756  0.4778
 9018SOL    HW133146   7.813   3.213   2.748  1.4886  0.7762  0.4003
 9018SOL    HW233147   7.881   3.127   2.852  1.7750 -0.3454 -0.6859
 9019SOL     OW33148   0.117   7.739   0.407  0.0238 -0.0906 -0.0745
 9019SOL    HW133149   0.140   7.655   0.448 -2.0630 -1.0397 -0.7525
 9019SOL    HW233150   0.132   7.725   0.313 -2.1505 -0.3913 -0.4148
 9020SOL     OW33151   3.318  10.673   5.007  0.4761  0.1928 -0.3869
 9020SOL    HW133152   3.352  10.758   4.981  0.3808 -0.0165 -1.2378
 9020SOL    HW233153   3.301  10.628   4.925 -0.5747 -0.2144  0.0342
 9021SOL     OW33154   3.651   6.773   7.395  0.1027 -0.1515 -0.4686
 9021SOL    HW133155   3.634   6.765   7.301 -0.4455  0.4137 -0.4219
 9021SOL    HW233156   3.707   6.849   7.403  1.2489 -0.9751 -0.4522
 9022SOL     OW33157   0.485   9.455   4.090  0.0905  0.4192 -0.1172
 9022SOL    HW133158   0.527   9.503   4.161 -0.1513 -1.5632  1.4371
 9022SOL    HW233159   0.449   9.376   4.131  0.8051 -1.3352 -2.6029
 9023SOL     OW33160   5.983   8.924   6.599  0.3198  0.1471  0.3550
 9023SOL    HW133161   5.958   8.849   6.545  2.7744 -0.3944 -0.1072
 9023SOL    HW233162   5.956   8.899   6.688  0.0308 -0.7678  0.0248
 9024SOL     OW33163   0.113   8.005   4.050  0.0581 -0.0309  0.5460
 9024SOL    HW133164   0.186   7.952   4.082  0.4939  0.0140 -0.3531
 9024SOL    HW233165   0.036   7.965   4.090  0.5487 -0.2097  1.3380
 9025SOL     OW33166   8.089   0.217  10.503  0.4594 -0.6370 -0.1160
 9025SOL    HW133167   8.178   0.184  10.511  0.1275 -1.3785  0.9103
 9025SOL    HW233168   8.037   0.157  10.558 -0.4347  0.6181  0.4647
 9026SOL     OW33169   0.552   2.137   3.369 -0.2283 -0.6787 -0.2416
 9026SOL    HW133170   0.622   2.174   3.315 -0.0199  0.1659  0.5752
 9026SOL    HW233171   0.597   2.089   3.438 -0.4972 -2.0298 -0.9849
 9027SOL     OW33172   2.621   9.931   4.858  0.0056 -0.0133 -0.2815
 9027SOL    HW133173   2.610   9.874   4.934  0.4449  1.3879  0.8865
 9027SOL    HW233174   2.628   9.871   4.783  0.8157 -1.5048  0.9310
 9028SOL     OW33175   3.207   5.137   2.658  0.2043 -0.1318 -0.2271
 9028SOL    HW133176   3.248   5.101   2.580  0.3165 -1.7195  0.5298
 9028SOL    HW233177   3.280   5.149   2.720  0.1291  1.1793 -0.3746
 9029SOL     OW33178   0.663   1.849   2.152  0.2407 -0.4377  0.5455
 9029SOL    HW133179   0.736   1.860   2.213 -0.2888 -2.8086  1.7090
 9029SOL    HW233180   0.616   1.933   2.155  1.4142  0.2112  1.7874
 9030SOL     OW33181   8.902   1.582   9.402 -0.3232 -0.3272  0.1055
 9030SOL    HW133182   8.840   1.614   9.335 -1.5937 -0.3807  1.2136
 9030SOL    HW233183   8.914   1.489   9.381 -0.5039 -0.2830 -0.2053
 9031SOL     OW33184   3.348   5.145   5.003  0.6660 -0.8316 -0.3023
 9031SOL    HW133185   3.376   5.184   5.086  1.0995 -1.6151 -0.0675
 9031SOL    HW233186   3.353   5.217   4.940 -1.6465  0.3217  0.7277
 9032SOL     OW33187  10.897   9.897   0.136  0.8988  0.1140  0.2793
 9032SOL    HW133188  10.974   9.885   0.080  0.8106 -1.0322  0.3739
 9032SOL    HW233189  10.829   9.843   0.095  0.0432  1.3345  0.0376
 9033SOL     OW33190   7.367   4.448  10.503  0.0811  0.3618  0.0155
 9033SOL    HW133191   7.366   4.353  10.513  1.1863  0.0955 -1.9827
 9033SOL    HW233192   7.437   4.477  10.563 -0.8369  0.0439  1.2780
 9034SOL     OW33193   2.994   6.406   6.348 -0.1956  0.1034 -0.1996
 9034SOL    HW133194   2.969   6.499   6.344 -0.5187  0.1860  2.2123
 9034SOL    HW233195   2.911   6.359   6.350 -0.0453 -0.3887 -2.6526
 9035SOL     OW33196   5.345   2.316   4.604  0.3233  0.1700  0.3879
 9035SOL    HW133197   5.286   2.304   4.678  0.1993 -1.0548  0.1126
 9035SOL    HW233198   5.358   2.228   4.568  0.9675  0.6359 -0.5975
 9036SOL     OW33199   9.908   3.351   1.220 -0.6818 -0.2121  0.0049
 9036SOL    HW133200   9.938   3.260   1.212 -1.7300 -0.4738 -1.4139
 9036SOL    HW233201   9.881   3.360   1.311  0.9670 -0.8185  0.5858
 9037SOL     OW33202   4.520   5.083   1.803 -0.5481 -0.0625 -0.4485
 9037SOL    HW133203   4.598   5.031   1.785 -1.3800 -1.1004 -1.1863
 9037SOL    HW233204   4.450   5.019   1.815 -1.1614  0.8160  0.9446
 9038SOL     OW33205   0.716   9.819   2.869  0.0627 -0.1644  0.7853
 9038SOL    HW133206   0.778   9.886   2.896  0.4266 -0.8020  1.5866
 9038SOL    HW233207   0.766   9.762   2.811 -0.4408  0.6348 -0.4696
 9039SOL     OW33208   7.915   8.684   2.028 -0.2245  0.3121  0.4545
 9039SOL    HW133209   7.904   8.705   2.121  0.6162 -0.7500  0.8229
 9039SOL    HW233210   8.005   8.651   2.022  0.0455  1.2275 -0.9108
 9040SOL     OW33211   7.367   2.202   8.272 -0.3336  0.8215 -0.2567
 9040SOL    HW133212   7.421   2.253   8.211 -0.8360  1.0450 -0.5234
 9040SOL    HW233213   7.280   2.201   8.232  0.3608 -3.3985 -2.2590
 9041SOL     OW33214   0.329   8.010   4.333  0.0500 -0.2766 -1.0742
 9041SOL    HW133215   0.423   7.992   4.337  0.0125 -0.5293 -1.2776
 9041SOL    HW233216   0.288   7.924   4.346 -0.2189  0.2163  2.0471
 9042SOL     OW33217   8.124   1.643   3.602 -0.3413  0.2171  1.2045
 9042SOL    HW133218   8.099   1.602   3.519  1.5821  2.5702 -0.7077
 9042SOL    HW233219   8.052   1.703   3.622  0.0311  1.0827  0.0880
 9043SOL     OW33220   5.084   0.451   6.845  0.1259  0.1612  0.0042
 9043SOL    HW133221   5.060   0.358   6.840 -0.3482  0.2182  0.9418
 9043SOL    HW233222   5.040   0.483   6.924 -1.2042  1.6297 -1.2540
 9044SOL     OW33223   4.420   4.946   9.716  0.4841  0.0808  0.3962
 9044SOL    HW133224   4.392   4.938   9.807 -0.2995  0.4908  0.1941
 9044SOL    HW233225   4.463   4.862   9.697  0.1721 -0.2164  0.9763
 9045SOL     OW33226   7.717   5.270   7.148  0.2207  0.2681 -0.2607
 9045SOL    HW133227   7.692   5.185   7.111  0.4555  0.5562 -1.0946
 9045SOL    HW233228   7.665   5.277   7.229 -0.8603 -0.0503 -0.9074
 9046SOL     OW33229   2.318   3.903   2.901 -0.1024  0.4824 -0.4149
 9046SOL    HW133230   2.237   3.909   2.952  0.4345 -0.8522  0.6677
 9046SOL    HW233231   2.372   3.974   2.934  0.1789 -0.2726  0.8447
 9047SOL     OW33232   8.767   6.353   8.261 -0.5275 -0.1657 -0.0299
 9047SOL    HW133233   8.739   6.427   8.316  1.5233  0.5696  0.1159
 9047SOL    HW233234   8.790   6.393   8.177  0.1031 -0.7068 -0.1216
 9048SOL     OW33235   6.524   4.164   7.956  0.0475  1.0448 -0.2624
 9048SOL    HW133236   6.467   4.221   8.008  0.1309 -0.0259  1.0743
 9048SOL    HW233237   6.546   4.216   7.879  0.0751  2.8031  0.8595
 9049SOL     OW33238  10.333   5.721   9.020 -0.1940  0.2571  0.0180
 9049SOL    HW133239  10.262   5.784   9.025 -0.1552  0.3095 -0.1099
 9049SOL    HW233240  10.328   5.685   8.932  0.6441  1.0877 -0.3864
 9050SOL     OW33241   4.667   3.846   5.065 -0.0821 -0.4505 -0.7430
 9050SOL    HW133242   4.689   3.929   5.022  0.1931 -0.3081 -0.3323
 9050SOL    HW233243   4.668   3.782   4.993  0.0284 -0.1564 -1.0097
 9051SOL     OW33244   6.275   8.331  10.566 -0.4313  0.3119 -0.0086
 9051SOL    HW133245   6.276   8.298  10.476 -0.0079  1.6225 -0.5116
 9051SOL    HW233246   6.220   8.410  10.562 -0.3281  0.4340  0.8580
 9052SOL     OW33247   3.917   5.080   8.345 -0.4123  0.6993 -0.0755
 9052SOL    HW133248   3.913   5.168   8.383 -0.9469 -0.0556  1.7415
 9052SOL    HW233249   3.968   5.030   8.409  1.0930 -0.0247 -1.7592
 9053SOL     OW33250   4.615   4.994   8.778 -0.4283 -0.0532 -0.5042
 9053SOL    HW133251   4.545   4.944   8.820 -1.6363 -0.3294 -2.7019
 9053SOL    HW233252   4.571   5.043   8.709  1.3729  0.7651 -1.1241
 9054SOL     OW33253   3.232   6.926   4.286 -0.5356  0.3851 -0.1047
 9054SOL    HW133254   3.234   6.971   4.370  1.5769  0.4014 -0.1107
 9054SOL    HW233255   3.280   6.844   4.301 -1.5054 -0.3575 -0.9166
 9055SOL     OW33256   7.496   7.709   8.024 -0.7301  0.3155  0.0996
 9055SOL    HW133257   7.589   7.687   8.027 -1.0998 -1.9681 -2.1007
 9055SOL    HW233258   7.493   7.803   8.037  2.0041  0.6448 -1.0566
 9056SOL     OW33259   3.926   9.508  10.404 -0.0182  0.3589 -0.9305
 9056SOL    HW133260   3.877   9.461  10.337 -0.1019  0.7016 -1.1138
 9056SOL    HW233261   3.914   9.600  10.381  1.7955  0.4239 -1.7474
 9057SOL     OW33262   6.041   3.635   1.746 -0.0527 -0.7390  0.2542
 9057SOL    HW133263   6.022   3.728   1.731  0.5853 -0.5779  0.4000
 9057SOL    HW233264   6.110   3.635   1.812  1.6889 -1.2075 -1.4698
 9058SOL     OW33265   1.193   3.614   4.285 -0.4770 -0.0586 -0.0024
 9058SOL    HW133266   1.099   3.614   4.305 -0.0223  2.0769  2.7988
 9058SOL    HW233267   1.226   3.694   4.326  2.4907 -0.4010 -1.4712
 9059SOL     OW33268   2.835   1.469   6.823  0.3582  0.2897 -0.6389
 9059SOL    HW133269   2.796   1.452   6.737 -0.3638 -0.8478 -0.1186
 9059SOL    HW233270   2.786   1.544   6.857 -1.5307 -1.1643  0.0396
 9060SOL     OW33271   1.214   9.157   4.902 -0.4011  0.4364 -0.0473
 9060SOL    HW133272   1.191   9.152   4.995 -0.1225  0.3274  0.0154
 9060SOL    HW233273   1.307   9.176   4.901 -0.4652  0.7576 -0.3059
 9061SOL     OW33274   0.744   1.005   7.068  0.5348  0.2052 -0.1972
 9061SOL    HW133275   0.698   0.996   6.984 -0.7624  0.4382  0.4550
 9061SOL    HW233276   0.822   0.951   7.059 -0.8225 -1.7672 -0.7163
 9062SOL     OW33277   5.459   5.287   6.190  0.9486  0.1035  0.1655
 9062SOL    HW133278   5.439   5.193   6.185 -2.4992  0.7616 -1.2032
 9062SOL    HW233279   5.427   5.314   6.276 -0.6628  0.4476 -0.5036
 9063SOL     OW33280   1.660   5.454   7.709  0.0774  0.0275  0.2617
 9063SOL    HW133281   1.744   5.433   7.669  0.7630  2.0977  0.4692
 9063SOL    HW233282   1.682   5.477   7.800 -0.5355  1.5045  0.0681
 9064SOL     OW33283   3.916   9.967   9.261 -0.6239 -0.5103  0.1960
 9064SOL    HW133284   3.973   9.917   9.202  0.2318 -0.2504  0.7805
 9064SOL    HW233285   3.972  10.037   9.294 -1.5161  0.2273  0.1913
 9065SOL     OW33286   2.739   9.273   0.805  0.3026 -0.2899  0.0091
 9065SOL    HW133287   2.701   9.265   0.717  0.1660 -0.2232  0.0628
 9065SOL    HW233288   2.691   9.210   0.858 -0.2099  0.2786  0.2388
 9066SOL     OW33289   6.954   4.070   3.123  0.4557  0.0905 -0.8363
 9066SOL    HW133290   7.027   4.070   3.185  1.4345  0.0535 -1.9297
 9066SOL    HW233291   6.921   3.981   3.124  0.9478 -0.0967 -0.9041
 9067SOL     OW33292   5.903   3.591   9.754  0.2495  0.0119 -0.1506
 9067SOL    HW133293   5.959   3.514   9.746 -0.6285 -0.7430  0.5968
 9067SOL    HW233294   5.856   3.578   9.837 -0.5520  0.9205 -0.4362
 9068SOL     OW33295   2.734   8.504   9.157  0.4427  0.3852 -0.6398
 9068SOL    HW133296   2.649   8.546   9.174  0.7173  1.0543 -0.8812
 9068SOL    HW233297   2.756   8.530   9.068 -0.2510 -1.8125 -1.5132
 9069SOL     OW33298   5.378  10.597   7.433  0.2618  0.6452 -0.5574
 9069SOL    HW133299   5.291  10.588   7.394  0.2737 -2.4814 -0.1724
 9069SOL    HW233300   5.369  10.558   7.520  1.6214  2.0961  0.2877
 9070SOL     OW33301   4.359   2.877   2.343  0.7824 -0.3131 -0.0944
 9070SOL    HW133302   4.354   2.858   2.249  2.8687  1.3283 -0.6090
 9070SOL    HW233303   4.354   2.791   2.385  0.5038 -1.1434 -1.7544
 9071SOL     OW33304   2.783   8.840   5.317 -0.2772  0.4787 -0.1439
 9071SOL    HW133305   2.747   8.784   5.386 -1.8613  0.3312 -1.0535
 9071SOL    HW233306   2.777   8.928   5.352 -1.9596  0.5068 -0.3923
 9072SOL     OW33307   9.626   8.474  10.277 -0.8452 -0.4255 -1.0043
 9072SOL    HW133308   9.719   8.473  10.256 -0.8490 -0.3382 -1.0286
 9072SOL    HW233309   9.605   8.384  10.301 -0.7981 -0.4872 -1.1916
 9073SOL     OW33310   0.690   4.282   4.458  0.1137 -0.1122  0.2340
 9073SOL    HW133311   0.702   4.317   4.369 -0.1290 -1.1881 -0.2455
 9073SOL    HW233312   0.777   4.248   4.482  0.3640  0.8252  0.7223
 9074SOL     OW33313   7.734   9.635   8.395 -0.0252 -0.2789  0.0390
 9074SOL    HW133314   7.791   9.695   8.443  0.9719 -0.4073 -0.9539
 9074SOL    HW233315   7.682   9.691   8.338 -1.5820 -0.0785  1.5794
 9075SOL     OW33316   9.577  10.766   4.728 -0.4042 -0.1955  0.5278
 9075SOL    HW133317   9.650  10.704   4.732  0.1750  0.5228  1.9957
 9075SOL    HW233318   9.551  10.778   4.819 -3.0013 -1.1315 -0.0266
 9076SOL     OW33319  10.021   4.865  10.445  0.0426  0.4637 -0.4248
 9076SOL    HW133320   9.953   4.916  10.489 -1.0292 -0.2326 -1.2420
 9076SOL    HW233321  10.103   4.904  10.475 -0.5422 -0.7613  3.1663
 9077SOL     OW33322   3.465   6.670   8.083 -0.1189 -0.6584  0.2995
 9077SOL    HW133323   3.509   6.635   8.005 -0.8892 -0.4755 -0.2359
 9077SOL    HW233324   3.530   6.663   8.153  0.5630 -0.8976 -0.3445
 9078SOL     OW33325   1.830   2.163   8.352  0.0495  0.7707  0.0489
 9078SOL    HW133326   1.738   2.177   8.331  0.4769  0.2293 -2.4712
 9078SOL    HW233327   1.831   2.082   8.404 -0.8365  0.4155 -0.4742
 9079SOL     OW33328   5.858  10.044   2.961  0.0673  0.4923  0.3556
 9079SOL    HW133329   5.944  10.085   2.975  0.5756 -0.5639  0.4505
 9079SOL    HW233330   5.833  10.070   2.873  2.2957 -2.2190 -1.2492
 9080SOL     OW33331   8.639   4.044   5.947  0.0770 -0.5908 -0.1186
 9080SOL    HW133332   8.715   4.074   5.896  0.3596  0.3624  0.8214
 9080SOL    HW233333   8.615   3.961   5.907  3.2246 -2.3088  1.1440
 9081SOL     OW33334   9.422   7.574   7.887 -0.1636  0.3303  0.3883
 9081SOL    HW133335   9.374   7.535   7.961 -1.7689 -1.9309 -1.6801
 9081SOL    HW233336   9.495   7.514   7.871 -1.4431 -0.8210 -1.5225
 9082SOL     OW33337   7.526   3.495   7.010 -0.1033 -0.1546 -0.0119
 9082SOL    HW133338   7.486   3.427   7.063  1.2865 -0.3624  0.8316
 9082SOL    HW233339   7.536   3.569   7.070 -2.1088  1.0548 -1.0565
 9083SOL     OW33340   2.719   6.467   1.818 -0.0993 -0.6036 -0.3417
 9083SOL    HW133341   2.633   6.441   1.852 -0.4229 -0.0996 -0.7511
 9083SOL    HW233342   2.759   6.385   1.791 -1.0100 -0.7262 -1.3966
 9084SOL     OW33343   5.241   0.916   8.690  0.0306 -0.3706 -0.2502
 9084SOL    HW133344   5.337   0.917   8.689  0.0698  1.8249 -2.3395
 9084SOL    HW233345   5.217   0.997   8.734 -0.8786 -0.4289 -0.6328
 9085SOL     OW33346   5.969   3.777   8.240 -0.4854 -0.1425 -0.0458
 9085SOL    HW133347   5.953   3.867   8.210  0.4351  1.1714  2.9660
 9085SOL    HW233348   5.884   3.746   8.271 -0.7114 -0.1209 -0.6378
 9086SOL     OW33349   8.325   2.343   8.409  0.0685 -0.1636  0.5548
 9086SOL    HW133350   8.376   2.318   8.486  0.9846 -1.1447 -0.3436
 9086SOL    HW233351   8.386   2.393   8.354 -0.9841  1.8183  1.0877
 9087SOL     OW33352   1.922   9.464   8.694 -0.3682  0.7154  0.7475
 9087SOL    HW133353   1.901   9.388   8.747  0.5431 -0.5978 -0.7085
 9087SOL    HW233354   1.879   9.449   8.610  0.3899  1.4563  0.2017
 9088SOL     OW33355   7.241   6.772   0.409  0.4182 -0.0587  0.4337
 9088SOL    HW133356   7.269   6.777   0.318  0.4988  0.3297  0.4777
 9088SOL    HW233357   7.233   6.864   0.437  1.1305 -0.1770  1.0436
 9089SOL     OW33358   3.183   1.108   7.588 -0.0173  0.2552 -0.9803
 9089SOL    HW133359   3.109   1.080   7.535 -0.3895 -2.2528  0.6689
 9089SOL    HW233360   3.157   1.192   7.626 -2.1658 -0.6739 -0.2600
 9090SOL     OW33361   5.355  10.135   7.908  0.5495  0.2764  0.2249
 9090SOL    HW133362   5.303  10.060   7.880  1.3256 -0.0590 -0.3393
 9090SOL    HW233363   5.422  10.098   7.966  0.8738  0.5478  0.0288
 9091SOL     OW33364   3.090   5.621   0.966  0.3609 -0.2439 -0.4647
 9091SOL    HW133365   3.017   5.561   0.984 -1.9681  2.0266 -1.6167
 9091SOL    HW233366   3.076   5.648   0.875  1.2259  2.0496  0.0212
 9092SOL     OW33367   2.272   9.037   5.505  0.4985 -0.3070  0.0920
 9092SOL    HW133368   2.333   8.963   5.511  1.1484  0.1114 -1.0071
 9092SOL    HW233369   2.292   9.076   5.420  0.6036  1.5064  0.9200
 9093SOL     OW33370   0.865   1.425   0.020 -0.7228 -0.7470  0.1379
 9093SOL    HW133371   0.792   1.453   0.074 -0.4944 -0.5021  0.3235
 9093SOL    HW233372   0.825   1.384  -0.056 -1.1655  1.7762 -1.1187
 9094SOL     OW33373   8.245   1.489   5.154  0.1497 -0.3133 -0.1451
 9094SOL    HW133374   8.309   1.426   5.189 -0.8383 -2.0019 -1.1963
 9094SOL    HW233375   8.161   1.461   5.190 -0.2710  0.6446 -0.3527
 9095SOL     OW33376   0.094   7.323   7.731  0.4141 -0.1738 -0.3106
 9095SOL    HW133377   0.182   7.305   7.762  0.2487 -0.1069  0.2054
 9095SOL    HW233378   0.105   7.384   7.658  0.7724  0.1061 -0.0244
 9096SOL     OW33379   3.133   9.755   8.642  0.2969 -0.3130  0.2794
 9096SOL    HW133380   3.095   9.841   8.656 -0.0947 -0.5748  0.8327
 9096SOL    HW233381   3.062   9.694   8.658  0.5282 -0.7400 -0.2761
 9097SOL     OW33382   5.423   0.568   4.270  0.0154 -0.1165 -0.3142
 9097SOL    HW133383   5.494   0.507   4.252 -0.5027 -1.0739  0.7463
 9097SOL    HW233384   5.396   0.548   4.360 -0.3031  1.5479 -0.0119
 9098SOL     OW33385   3.029   4.353   8.702 -0.2711 -0.4245  0.1214
 9098SOL    HW133386   3.007   4.399   8.621  0.2133 -0.6878 -0.1671
 9098SOL    HW233387   3.035   4.261   8.676  1.8793 -0.3030  0.0023
 9099SOL     OW33388   5.678   8.183   5.611 -0.5644  0.1621  0.1914
 9099SOL    HW133389   5.709   8.148   5.527 -0.9199  0.5468 -0.1040
 9099SOL    HW233390   5.583   8.172   5.608 -0.5089 -0.6738  0.9394
 9100SOL     OW33391   1.500   4.785  10.756  0.4069  0.4003  0.2552
 9100SOL    HW133392   1.421   4.812  10.711 -0.6365 -0.6426  1.3905
 9100SOL    HW233393   1.571   4.830  10.710 -0.5931 -0.5017 -2.3214
 9101SOL     OW33394   2.571   2.100   3.346 -0.1272 -0.4511  0.2992
 9101SOL    HW133395   2.547   2.117   3.437 -0.1669 -1.6690  0.5378
 9101SOL    HW233396   2.656   2.143   3.335 -0.1835 -0.1837  0.8767
 9102SOL     OW33397   2.250   6.575   8.207 -0.7375 -0.2868 -0.8115
 9102SOL    HW133398   2.170   6.525   8.197 -0.8930  0.1511 -1.8790
 9102SOL    HW233399   2.313   6.533   8.149 -0.6759  0.3406 -1.2165
 9103SOL     OW33400   7.354   2.240   7.019 -0.0952  0.0509 -0.0313
 9103SOL    HW133401   7.393   2.160   7.053 -0.8230 -0.3168 -0.0292
 9103SOL    HW233402   7.344   2.297   7.095  1.1140  0.4584 -0.1501
 9104SOL     OW33403   9.306   2.490   2.455  0.2511 -0.5659 -0.0357
 9104SOL    HW133404   9.360   2.555   2.410 -0.7743 -0.8444 -1.7907
 9104SOL    HW233405   9.294   2.525   2.543  2.6339 -0.1482  0.1898
 9105SOL     OW33406   8.458   6.080   7.614  0.3688  0.2719 -0.2880
 9105SOL    HW133407   8.409   6.100   7.695  0.4924  1.2344 -0.4375
 9105SOL    HW233408   8.390   6.053   7.552  0.3111 -0.8577  0.2370
 9106SOL     OW33409   3.104   6.630   7.326 -0.6739 -0.4789 -0.0646
 9106SOL    HW133410   3.067   6.715   7.300 -0.8200  0.1810  2.1350
 9106SOL    HW233411   3.037   6.590   7.381  0.2050 -1.1336  0.5554
 9107SOL     OW33412  10.354   9.055   6.738  0.3848 -0.3174 -0.0600
 9107SOL    HW133413  10.446   9.052   6.766  0.7938  0.9773 -1.1402
 9107SOL    HW233414  10.312   9.115   6.800  0.8932  1.1638 -1.0936
 9108SOL     OW33415   9.073   7.563   5.971  0.1098 -0.5320  0.3403
 9108SOL    HW133416   9.038   7.651   5.955 -0.0182 -0.6507 -0.0305
 9108SOL    HW233417   9.006   7.520   6.025  1.2594  0.4128  2.6819
 9109SOL     OW33418   0.363   7.292   5.292  0.2441 -0.1982  0.0648
 9109SOL    HW133419   0.448   7.337   5.291 -0.7295  2.0868 -3.5618
 9109SOL    HW233420   0.311   7.341   5.355  0.4507  1.2010 -0.8033
 9110SOL     OW33421  10.339   4.453   6.706  0.2339 -0.0545 -0.4124
 9110SOL    HW133422  10.326   4.358   6.708 -0.9932  0.1163  0.2453
 9110SOL    HW233423  10.423   4.464   6.661  1.4902 -1.5546  1.4138
 9111SOL     OW33424   1.847   6.463   0.189  0.0732  0.2783 -0.2276
 9111SOL    HW133425   1.889   6.517   0.257 -1.9346 -0.0451  1.3710
 9111SOL    HW233426   1.864   6.509   0.107  0.0121  2.3606  0.8688
 9112SOL     OW33427   7.250  10.889   3.219 -0.1786 -0.4200  0.3563
 9112SOL    HW133428   7.170  10.853   3.257 -1.4352  2.7746  1.0061
 9112SOL    HW233429   7.244  10.868   3.126 -0.2942 -2.6661  0.8098
 9113SOL     OW33430   3.731   2.564   8.317  0.3485  0.2026  0.0763
 9113SOL    HW133431   3.775   2.632   8.266  1.2902 -0.5119 -0.1021
 9113SOL    HW233432   3.774   2.567   8.403 -0.8898  1.0654  0.6873
 9114SOL     OW33433   8.905   1.932   9.481  0.3258 -0.7508  0.4167
 9114SOL    HW133434   8.942   1.895   9.401  0.5860 -0.1299  0.2503
 9114SOL    HW233435   8.858   2.010   9.453 -1.1565 -1.5195  0.6168
 9115SOL     OW33436  10.901   2.123   4.272 -0.1268  0.7139  0.4193
 9115SOL    HW133437  10.928   2.049   4.219 -0.0100  0.7724  0.3981
 9115SOL    HW233438  10.862   2.084   4.350 -1.4655  0.5981 -0.2697
 9116SOL     OW33439  10.759   3.944   4.290 -0.3692 -0.1318  0.3064
 9116SOL    HW133440  10.761   3.878   4.221 -0.5615  1.6453 -1.4572
 9116SOL    HW233441  10.697   4.010   4.259  0.0285  1.0467  1.8845
 9117SOL     OW33442   0.537   8.087   8.596  0.4440 -0.3738  0.0283
 9117SOL    HW133443   0.546   8.044   8.512  0.0164 -0.4526  0.0221
 9117SOL    HW233444   0.595   8.163   8.590 -0.1321  0.0294 -0.6110
 9118SOL     OW33445   9.846   3.712   1.805 -0.3983 -0.1209  0.5238
 9118SOL    HW133446   9.839   3.622   1.773  1.9181 -0.1193 -0.1872
 9118SOL    HW233447   9.756   3.741   1.817 -1.3948 -1.0508 -3.4506
 9119SOL     OW33448   7.618   3.667   8.650  0.4617  0.1572 -0.0696
 9119SOL    HW133449   7.698   3.720   8.654  0.3836  0.2366  0.9141
 9119SOL    HW233450   7.623   3.621   8.567  2.0073 -0.5651  0.3888
 9120SOL     OW33451   4.213   9.357   6.474 -0.0338  0.0803 -0.5670
 9120SOL    HW133452   4.239   9.449   6.483 -0.0053 -0.0190  0.6585
 9120SOL    HW233453   4.181   9.349   6.385  1.1267  0.9880 -1.0955
 9121SOL     OW33454   3.003   8.277   3.531 -0.1651 -0.1033 -0.8087
 9121SOL    HW133455   2.959   8.196   3.506 -1.5780  0.6142 -0.7077
 9121SOL    HW233456   2.949   8.347   3.495  0.6074  0.8204 -0.2356
 9122SOL     OW33457   1.897  10.677   7.927  0.1417  0.9889 -0.1119
 9122SOL    HW133458   1.951  10.621   7.872 -0.8475 -0.7082  0.5734
 9122SOL    HW233459   1.850  10.733   7.865  1.5267  1.4475 -0.7837
 9123SOL     OW33460  10.749   7.673   3.137  0.0001  0.8649  0.2326
 9123SOL    HW133461  10.760   7.767   3.151  1.0649  0.6470  1.0283
 9123SOL    HW233462  10.747   7.663   3.042 -1.2588  1.7924  0.1399
 9124SOL     OW33463   4.834   6.148   4.878  0.3251 -0.1625  0.0220
 9124SOL    HW133464   4.891   6.074   4.858  1.7609  0.6146  1.0215
 9124SOL    HW233465   4.772   6.114   4.943  0.1642 -0.7961 -0.4568
 9125SOL     OW33466   2.394   4.816   0.399 -0.5103  0.4434  0.0636
 9125SOL    HW133467   2.453   4.812   0.323  0.0691 -0.7529  0.5539
 9125SOL    HW233468   2.437   4.878   0.458  0.3444 -0.4945  0.4600
 9126SOL     OW33469   6.634   0.750   5.412 -1.0355  0.0420  0.4948
 9126SOL    HW133470   6.631   0.846   5.419  0.1979  0.2149 -0.8012
 9126SOL    HW233471   6.575   0.730   5.340 -0.9877 -0.1267  0.5038
 9127SOL     OW33472   6.279   9.235   9.808  0.6131  0.3491 -0.4866
 9127SOL    HW133473   6.206   9.172   9.801  0.4835  0.2034  1.4149
 9127SOL    HW233474   6.357   9.180   9.813  0.8446  0.4910 -2.0942
 9128SOL     OW33475   3.520   7.522   6.223 -0.6738 -0.0903  0.1423
 9128SOL    HW133476   3.426   7.522   6.201 -0.9134 -1.1071  1.0633
 9128SOL    HW233477   3.528   7.456   6.291  0.3479  1.5326  1.6765
 9129SOL     OW33478   4.873   0.839   6.561  0.0695 -0.1604 -0.2316
 9129SOL    HW133479   4.926   0.760   6.574 -0.3417 -0.4127 -0.0635
 9129SOL    HW233480   4.795   0.824   6.614 -0.3543  0.0306 -0.7951
 9130SOL     OW33481   7.615   9.584   2.373  0.6434  0.3257  0.3947
 9130SOL    HW133482   7.546   9.547   2.428 -1.0047  0.7463 -1.3068
 9130SOL    HW233483   7.691   9.528   2.389 -0.7128 -1.5175  0.6451
 9131SOL     OW33484   9.675   4.874   9.900  0.4817  0.6439 -0.7922
 9131SOL    HW133485   9.749   4.936   9.904  0.8170  0.1999  0.4409
 9131SOL    HW233486   9.602   4.926   9.867  1.2330  1.2071 -1.6062
 9132SOL     OW33487   1.481  10.118   2.304  0.2801  0.4961 -0.1058
 9132SOL    HW133488   1.460  10.094   2.394 -1.6954  0.8692 -0.4316
 9132SOL    HW233489   1.444  10.049   2.250  0.5417  0.8027 -0.6946
 9133SOL     OW33490  10.129   0.805  10.014  0.0995  0.1125  0.1668
 9133SOL    HW133491  10.119   0.767   9.926 -0.4579 -0.2948  0.4037
 9133SOL    HW233492  10.129   0.730  10.073  1.2503  0.3267  0.4667
 9134SOL     OW33493   3.330   1.006   0.787 -0.3584 -0.0173  0.3326
 9134SOL    HW133494   3.282   1.065   0.846  0.4594 -0.1828  1.1884
 9134SOL    HW233495   3.330   0.922   0.832  0.0586 -0.2124 -0.0298
 9135SOL     OW33496   8.727   0.253   1.737 -0.2610 -0.1641 -0.5860
 9135SOL    HW133497   8.682   0.169   1.742  0.1676 -0.3733 -0.1295
 9135SOL    HW233498   8.658   0.317   1.718 -0.8786 -0.3682  0.8619
 9136SOL     OW33499   6.625   5.808   2.994  0.0297  0.2534  0.1560
 9136SOL    HW133500   6.694   5.789   3.057  2.1695 -0.6050 -2.2798
 9136SOL    HW233501   6.638   5.900   2.971 -0.0873  0.2815  0.2002
 9137SOL     OW33502   1.606  10.117  10.770  0.2231 -0.5514  0.4980
 9137SOL    HW133503   1.637  10.180  10.835 -0.5352 -2.0416  2.4340
 9137SOL    HW233504   1.683  10.064  10.750  0.2844 -0.5930  0.8313
 9138SOL     OW33505   6.322   0.304   0.380 -0.6173 -0.1730  0.1193
 9138SOL    HW133506   6.291   0.361   0.451 -0.1151  0.3817 -0.1059
 9138SOL    HW233507   6.254   0.309   0.314 -0.2226  0.7751 -0.2264
 9139SOL     OW33508   7.662   4.041   8.303  0.4149 -0.6345 -0.5348
 9139SOL    HW133509   7.658   4.081   8.389 -1.4486 -1.6172 -0.0989
 9139SOL    HW233510   7.728   3.973   8.310 -0.0325 -0.9944  0.2676
 9140SOL     OW33511   6.119   3.066   4.518  0.6294 -0.0282 -0.3250
 9140SOL    HW133512   6.165   2.999   4.567  0.9364  0.4142 -0.0030
 9140SOL    HW233513   6.188   3.112   4.470  0.4056 -0.0354 -0.6564
 9141SOL     OW33514   6.045   1.055   6.175 -0.2062  0.0465 -0.4152
 9141SOL    HW133515   6.028   1.074   6.083 -0.1150  2.5813  0.0446
 9141SOL    HW233516   6.139   1.037   6.178 -0.3682 -0.9761 -0.9240
 9142SOL     OW33517   7.235   5.320   5.670  0.4324  0.8334  0.3341
 9142SOL    HW133518   7.189   5.330   5.753 -0.0087  1.2229  0.0463
 9142SOL    HW233519   7.306   5.259   5.689 -1.1939 -1.1574  0.3921
 9143SOL     OW33520   0.501   3.300   6.430 -0.9441  0.5754 -0.6260
 9143SOL    HW133521   0.579   3.306   6.485 -0.4874 -2.6133 -0.7407
 9143SOL    HW233522   0.443   3.368   6.463  0.3059  0.4324  2.1488
 9144SOL     OW33523   4.726   5.498   5.510  0.0575  0.1035 -0.3021
 9144SOL    HW133524   4.767   5.516   5.426 -1.3351 -0.1660 -1.0616
 9144SOL    HW233525   4.669   5.423   5.494 -0.4334  0.2113  0.8178
 9145SOL     OW33526   2.269   6.981   1.785 -0.0860 -0.3047 -0.5653
 9145SOL    HW133527   2.327   6.976   1.861  0.2468  1.7531 -0.6157
 9145SOL    HW233528   2.185   7.010   1.821  0.3066  1.5515 -1.0011
 9146SOL     OW33529   0.060   6.082   1.283  0.2846 -0.1251  0.2552
 9146SOL    HW133530  -0.031   6.054   1.280  0.6010 -1.6321  2.4087
 9146SOL    HW233531   0.058   6.174   1.260 -1.6484 -0.3423 -0.6459
 9147SOL     OW33532   0.545   5.364   5.636 -0.2211 -0.3027  0.4835
 9147SOL    HW133533   0.552   5.446   5.686 -0.4147 -0.2444  0.4149
 9147SOL    HW233534   0.482   5.383   5.567  1.8363  0.3832 -1.3242
 9148SOL     OW33535   5.232   3.866   1.635 -0.2870 -0.0667  0.7691
 9148SOL    HW133536   5.326   3.857   1.652 -0.3212 -1.7911  0.2707
 9148SOL    HW233537   5.192   3.793   1.683 -1.0493 -1.1500 -1.3901
 9149SOL     OW33538   1.321  10.152   5.069  0.1804  0.2658  0.5961
 9149SOL    HW133539   1.312  10.242   5.100  1.0942 -0.3115  2.7626
 9149SOL    HW233540   1.295  10.098   5.144  1.7376 -1.2592  0.1276
 9150SOL     OW33541   2.590   2.766   3.959 -0.7849 -0.6011 -0.0880
 9150SOL    HW133542   2.569   2.733   3.872  1.8107 -2.3182 -0.1828
 9150SOL    HW233543   2.649   2.700   3.996 -0.4682  0.9092  2.3120
 9151SOL     OW33544   5.600   4.426   9.588  0.2887 -0.1007  0.6769
 9151SOL    HW133545   5.582   4.433   9.681  0.4495  1.3019  0.6353
 9151SOL    HW233546   5.686   4.384   9.583  0.5747  0.4140  1.1900
 9152SOL     OW33547   0.289  10.879   1.069 -0.5674 -0.4141 -0.1245
 9152SOL    HW133548   0.230  10.866   0.995  0.3813  1.7829 -1.3744
 9152SOL    HW233549   0.377  10.869   1.032 -0.0985 -0.1075  0.8678
 9153SOL     OW33550  10.426   1.166   2.578 -0.4116 -0.0301  0.2422
 9153SOL    HW133551  10.405   1.250   2.538  1.7700 -0.6098 -2.5002
 9153SOL    HW233552  10.485   1.188   2.650  1.1958  0.8645 -1.2417
 9154SOL     OW33553   1.322   7.233   7.481 -0.2327  0.4588 -0.2023
 9154SOL    HW133554   1.276   7.252   7.399  1.2203 -0.2316 -1.2349
 9154SOL    HW233555   1.289   7.147   7.508  0.6614 -0.2116 -1.1446
 9155SOL     OW33556   1.440   0.925   0.487 -0.4031  0.7179 -0.0755
 9155SOL    HW133557   1.444   0.920   0.392 -1.3137  0.7708 -0.1238
 9155SOL    HW233558   1.464   0.838   0.517  1.4135  1.0982 -0.2780
 9156SOL     OW33559  10.794  10.135  10.263  0.0540 -0.0860 -0.1390
 9156SOL    HW133560  10.710  10.168  10.232 -0.6889 -0.9152  0.9086
 9156SOL    HW233561  10.843  10.114  10.183 -1.1633 -0.6350 -0.7571
 9157SOL     OW33562   2.017  10.084   1.645  0.2808  0.2161  0.2575
 9157SOL    HW133563   2.073  10.010   1.668  0.2155  0.1405  0.1741
 9157SOL    HW233564   1.986  10.117   1.729  0.7165  0.4660  0.3255
 9158SOL     OW33565   6.538   9.831   2.267  0.1771 -0.5645  0.4743
 9158SOL    HW133566   6.533   9.847   2.361  0.7870  0.1940  0.3880
 9158SOL    HW233567   6.555   9.738   2.259 -1.2174 -0.9009  1.0709
 9159SOL     OW33568   5.490   3.121   8.231  0.3163  1.0271  0.4580
 9159SOL    HW133569   5.415   3.066   8.257 -0.4424  2.2342  0.9200
 9159SOL    HW233570   5.487   3.122   8.135  1.5289 -1.2873  0.3167
 9160SOL     OW33571   0.662   7.283   0.918  0.4529 -0.2395 -0.1249
 9160SOL    HW133572   0.739   7.339   0.921 -1.5810  2.7017  1.1670
 9160SOL    HW233573   0.696   7.194   0.927  3.6668  0.9156  0.0921
 9161SOL     OW33574   8.132   2.245   8.721 -0.1369 -0.1506  0.4850
 9161SOL    HW133575   8.068   2.285   8.663 -2.2065 -2.2865  1.1711
 9161SOL    HW233576   8.085   2.229   8.802  1.1445 -2.0859  0.9223
 9162SOL     OW33577   2.863   4.951  10.282 -0.3995  0.1008  0.2543
 9162SOL    HW133578   2.923   5.026  10.275  0.4567 -0.6672 -0.8737
 9162SOL    HW233579   2.895   4.888  10.218 -1.7724 -0.7966  0.4082
 9163SOL     OW33580   4.630   6.987   3.218 -0.0937 -0.2518 -0.1694
 9163SOL    HW133581   4.602   6.920   3.280  1.0759 -0.1023  0.5617
 9163SOL    HW233582   4.585   7.067   3.246 -1.4097 -0.6713 -0.9819
 9164SOL     OW33583   9.310   1.221  10.865 -0.1112  0.2511  0.0967
 9164SOL    HW133584   9.243   1.240  10.798 -0.2995 -2.1734 -0.4800
 9164SOL    HW233585   9.373   1.165  10.820  0.3098 -0.5736  1.6605
 9165SOL     OW33586   5.105   2.642   5.557  0.2386 -0.0715  0.3962
 9165SOL    HW133587   5.054   2.700   5.615 -0.7125 -1.8299  1.4095
 9165SOL    HW233588   5.043   2.575   5.531  0.3519  1.1329 -3.5644
 9166SOL     OW33589   9.384   3.290   9.577  0.0880 -0.1269  0.5070
 9166SOL    HW133590   9.315   3.262   9.517 -0.6572  0.0030  1.2816
 9166SOL    HW233591   9.437   3.212   9.590  0.3476 -0.1171 -0.4261
 9167SOL     OW33592   4.081   2.243   4.769 -0.0763 -0.1533 -0.4876
 9167SOL    HW133593   4.127   2.214   4.691  0.8471  2.6683 -1.1084
 9167SOL    HW233594   4.026   2.168   4.794  0.2384 -1.4491 -3.3088
 9168SOL     OW33595   2.011  10.086   5.226  0.0496 -0.3659  0.0699
 9168SOL    HW133596   1.964  10.002   5.224 -0.3371 -0.1389 -0.8793
 9168SOL    HW233597   2.066  10.084   5.148  0.3206  0.1047  0.2485
 9169SOL     OW33598   7.747   6.378   7.384 -0.0166  0.0162  0.1566
 9169SOL    HW133599   7.772   6.404   7.296  1.4975 -0.1543  0.5060
 9169SOL    HW233600   7.783   6.290   7.395  0.5552  0.3616  1.2251
 9170SOL     OW33601   4.221   8.728  10.128 -0.1982 -0.0148 -0.2075
 9170SOL    HW133602   4.276   8.748  10.204  0.1675 -1.8228  0.0407
 9170SOL    HW233603   4.247   8.792  10.062  1.3025 -0.0362  0.3337
 9171SOL     OW33604   9.997   8.575   8.127  0.5672  0.0422  0.3138
 9171SOL    HW133605  10.015   8.578   8.033  0.6335 -1.9167  0.2195
 9171SOL    HW233606  10.003   8.666   8.156  0.6044  0.6667 -1.5614
 9172SOL     OW33607   8.264   3.461   7.542  0.3326  0.2261 -0.1838
 9172SOL    HW133608   8.271   3.555   7.559  0.2388 -0.0072  1.2967
 9172SOL    HW233609   8.336   3.441   7.482  1.7636  0.8502  1.2619
 9173SOL     OW33610   1.002   0.694   8.021  0.0060 -0.5402 -0.2940
 9173SOL    HW133611   1.038   0.782   8.031 -0.2305 -0.5595  0.8438
 9173SOL    HW233612   1.025   0.649   8.101  0.8047 -1.7878 -1.1954
 9174SOL     OW33613   0.116   1.225   4.549  0.0599 -0.0034 -1.0874
 9174SOL    HW133614   0.021   1.222   4.555  0.1590 -0.5427  0.6348
 9174SOL    HW233615   0.143   1.288   4.615  0.9703 -1.1021 -0.3639
 9175SOL     OW33616   1.682  10.588   8.486 -0.9987 -0.1542 -0.6010
 9175SOL    HW133617   1.649  10.543   8.564 -0.5511 -1.5121 -1.1593
 9175SOL    HW233618   1.735  10.522   8.442 -1.0077  0.6882 -1.9042
 9176SOL     OW33619   9.566   7.489   6.301  0.0199  0.0872  0.2463
 9176SOL    HW133620   9.631   7.454   6.239  1.7067  2.2909  0.6169
 9176SOL    HW233621   9.612   7.490   6.385  0.3254  3.4084  0.1841
 9177SOL     OW33622   8.962   8.960  10.463 -0.0181  0.4638  0.0115
 9177SOL    HW133623   8.922   8.873  10.466 -1.8100  1.1736 -1.4474
 9177SOL    HW233624   9.012   8.960  10.381  2.5774 -0.1886  1.5019
 9178SOL     OW33625   5.602   2.433   9.263 -0.3893 -0.4332  0.3901
 9178SOL    HW133626   5.623   2.434   9.170  0.3282  1.7277  0.5222
 9178SOL    HW233627   5.544   2.358   9.274 -1.6871  0.1169 -2.0825
 9179SOL     OW33628   6.273   4.185   7.018 -0.3948 -0.5198 -0.2130
 9179SOL    HW133629   6.293   4.201   6.925 -1.9608 -1.0912 -0.6684
 9179SOL    HW233630   6.322   4.253   7.065  1.6781 -1.1585 -1.3243
 9180SOL     OW33631   1.722   3.051   5.116  0.6291 -0.2381 -0.6131
 9180SOL    HW133632   1.669   2.973   5.097 -0.1061  0.0211  0.2718
 9180SOL    HW233633   1.794   3.018   5.169 -0.7359 -0.1082  1.4766
 9181SOL     OW33634   8.655   1.069   4.627 -0.3869 -0.1108  0.9090
 9181SOL    HW133635   8.668   1.124   4.550 -0.9483 -1.3921 -0.1471
 9181SOL    HW233636   8.742   1.059   4.665 -0.0028  0.0517  0.0813
 9182SOL     OW33637  10.849  10.878  10.220  0.1505 -0.3526 -0.4395
 9182SOL    HW133638  10.924  10.928  10.252 -0.5247  1.0091 -0.9297
 9182SOL    HW233639  10.830  10.816  10.291  0.2204  0.9432  0.7574
 9183SOL     OW33640   2.836   7.651   0.434  0.1815  0.0585  0.0818
 9183SOL    HW133641   2.816   7.699   0.514 -2.9750  1.0310 -1.1387
 9183SOL    HW233642   2.882   7.713   0.379 -2.0722  1.1332 -0.6960
 9184SOL     OW33643   0.401   4.279   7.737  0.2227 -0.2130 -0.1144
 9184SOL    HW133644   0.491   4.279   7.768 -0.4519 -2.1201  2.2053
 9184SOL    HW233645   0.368   4.192   7.759 -2.0278  0.2224 -1.4276
 9185SOL     OW33646   3.805   9.604   5.001 -0.1839  0.1090  0.5234
 9185SOL    HW133647   3.797   9.606   4.905  0.5251  1.9960  0.4486
 9185SOL    HW233648   3.741   9.668   5.031  1.3377  1.4065  1.1098
 9186SOL     OW33649  10.404   2.542   9.898  0.2928  0.1223 -0.2147
 9186SOL    HW133650  10.314   2.511   9.891  0.3881 -0.4172  0.7797
 9186SOL    HW233651  10.404   2.597   9.977  0.6328  0.8530 -0.7139
 9187SOL     OW33652   7.921   9.181   5.324 -0.1352 -0.2355 -0.2345
 9187SOL    HW133653   7.853   9.249   5.318  1.0036  1.0244  0.6244
 9187SOL    HW233654   7.875   9.100   5.303 -1.5916  0.7559 -1.1052
 9188SOL     OW33655   2.242   1.781   9.733  0.2940 -0.0386 -0.0345
 9188SOL    HW133656   2.227   1.718   9.663  0.3411  2.4028 -2.4018
 9188SOL    HW233657   2.296   1.734   9.796 -1.2893 -2.9334 -0.6659
 9189SOL     OW33658   7.466   4.230   9.826  0.3533 -0.4871  0.1605
 9189SOL    HW133659   7.425   4.299   9.774  1.6143  0.0159 -0.2139
 9189SOL    HW233660   7.506   4.172   9.762  0.6563 -0.6884  0.5246
 9190SOL     OW33661   9.584   6.878   7.888 -0.7021  0.3898  0.2191
 9190SOL    HW133662   9.560   6.887   7.796  2.3416 -0.6377 -0.8240
 9190SOL    HW233663   9.573   6.785   7.907  0.0153  0.3422  0.4372
 9191SOL     OW33664   0.713   5.554   7.263  0.3705 -0.6954  0.9239
 9191SOL    HW133665   0.620   5.555   7.243  0.5019 -0.6835  0.2657
 9191SOL    HW233666   0.756   5.556   7.177  0.9687 -2.8268  1.1110
 9192SOL     OW33667   2.161   6.466   9.122  0.1635 -0.0569 -0.3711
 9192SOL    HW133668   2.101   6.395   9.143  1.6919 -1.4022 -0.3237
 9192SOL    HW233669   2.156   6.475   9.027  1.1093 -1.3707 -0.5829
 9193SOL     OW33670   4.303   1.348   4.041  0.4290 -0.5831 -0.4826
 9193SOL    HW133671   4.245   1.288   3.994 -0.9277 -0.0664  0.4652
 9193SOL    HW233672   4.262   1.357   4.127  1.2181  0.8182 -0.2331
 9194SOL     OW33673   6.712   3.245  10.406 -0.0975  0.1184 -0.1014
 9194SOL    HW133674   6.748   3.333  10.421  0.3688 -0.4725  2.8534
 9194SOL    HW233675   6.629   3.261  10.361  0.0417  2.0627  0.2332
 9195SOL     OW33676   4.959   3.953   8.505 -0.0677  0.1804  0.3410
 9195SOL    HW133677   4.924   3.874   8.546 -0.4826  0.2420  0.1117
 9195SOL    HW233678   4.947   4.022   8.570  0.3462  0.0452  0.5626
 9196SOL     OW33679   4.153   5.476   1.331 -0.1825  0.1474 -0.2504
 9196SOL    HW133680   4.170   5.452   1.422  0.1203  0.0642 -0.3294
 9196SOL    HW233681   4.088   5.413   1.301  1.0808 -1.0006 -0.6575
 9197SOL     OW33682   8.075   0.106   4.678 -0.1087 -0.6167 -0.1758
 9197SOL    HW133683   7.980   0.116   4.679  0.0522  1.4709  0.2351
 9197SOL    HW233684   8.091   0.028   4.625 -2.0274 -0.5653 -0.9096
 9198SOL     OW33685   1.484   1.582   5.588 -0.5651 -0.7789 -0.7516
 9198SOL    HW133686   1.506   1.631   5.667 -1.5837 -0.7016 -0.5038
 9198SOL    HW233687   1.532   1.627   5.518 -0.0935 -0.5146 -0.2689
 9199SOL     OW33688   7.535   4.741   0.713  0.1574  0.0828  0.3715
 9199SOL    HW133689   7.441   4.725   0.723  0.0707  0.6449  0.4830
 9199SOL    HW233690   7.540   4.828   0.674  0.6204 -0.1482 -0.0885
 9200SOL     OW33691   3.778   2.343   5.302  0.0127  0.0848 -0.5888
 9200SOL    HW133692   3.683   2.354   5.311  0.1186  0.1854  0.5339
 9200SOL    HW233693   3.791   2.249   5.296 -0.1289  0.0365 -0.2152
 9201SOL     OW33694   1.367   8.628   1.034 -0.4839 -0.6674  0.2107
 9201SOL    HW133695   1.343   8.625   1.127 -0.4503  0.3318  0.2603
 9201SOL    HW233696   1.408   8.713   1.023 -1.0357 -0.5299 -0.8614
 9202SOL     OW33697   2.142   9.600   9.051  0.2227  0.2931  0.0868
 9202SOL    HW133698   2.150   9.572   9.142 -0.5309 -0.0297  0.0597
 9202SOL    HW233699   2.172   9.524   9.000  1.1023  0.6419  0.0629
 9203SOL     OW33700   8.711   8.320   2.385  0.2483 -0.1559  0.2880
 9203SOL    HW133701   8.799   8.310   2.422  0.3043  0.6907  0.4178
 9203SOL    HW233702   8.671   8.390   2.438  0.0837  0.5915 -0.7868
 9204SOL     OW33703   6.464   9.880   0.845 -0.2061  0.3432 -0.1695
 9204SOL    HW133704   6.431   9.953   0.792  0.6739  0.9475  0.0886
 9204SOL    HW233705   6.458   9.911   0.935 -2.3780 -0.9560  0.2029
 9205SOL     OW33706   4.581   2.102   9.128 -0.3972  0.0908 -0.3111
 9205SOL    HW133707   4.616   2.188   9.107 -1.2681  0.4769 -0.2568
 9205SOL    HW233708   4.620   2.043   9.064  0.8783  0.3637  0.1910
 9206SOL     OW33709   0.009   9.899   7.115 -0.1397  0.2326 -0.3228
 9206SOL    HW133710   0.046   9.897   7.027  0.0854  2.5935 -0.3655
 9206SOL    HW233711   0.064   9.962   7.162 -1.8330  1.0175  0.6959
 9207SOL     OW33712   1.300   4.757   6.350 -0.4259 -0.0137  0.1603
 9207SOL    HW133713   1.321   4.844   6.384  0.4776 -0.2708  0.2902
 9207SOL    HW233714   1.371   4.701   6.382 -1.1208 -0.8554  0.2896
 9208SOL     OW33715   3.904   5.338   5.542 -0.1316  0.0422  0.0103
 9208SOL    HW133716   3.995   5.318   5.518  0.4029 -0.0123  1.9068
 9208SOL    HW233717   3.851   5.293   5.477  1.1851  1.3638 -2.0998
 9209SOL     OW33718   8.578   9.131   5.009 -0.6439  0.8152  0.0108
 9209SOL    HW133719   8.653   9.100   4.958 -1.0152  0.4908 -0.3427
 9209SOL    HW233720   8.616   9.165   5.090 -0.0412  1.3601 -0.4909
 9210SOL     OW33721   0.544   0.875   3.218  0.0743  0.1629 -0.1293
 9210SOL    HW133722   0.458   0.833   3.222  0.5037 -0.8276 -0.7962
 9210SOL    HW233723   0.596   0.817   3.162  0.5846  1.7852 -1.4091
 9211SOL     OW33724   2.218   2.731   0.471  0.4581 -0.0563  0.3013
 9211SOL    HW133725   2.192   2.781   0.548 -0.7909  0.0814 -0.1906
 9211SOL    HW233726   2.144   2.673   0.453  0.5519  0.2100 -1.0292
 9212SOL     OW33727   5.913   2.372  10.140  0.2725  0.2130 -0.5371
 9212SOL    HW133728   5.890   2.340  10.227  1.6910 -1.9161 -0.8649
 9212SOL    HW233729   5.859   2.320  10.080  0.4744  0.5024 -0.9788
 9213SOL     OW33730   5.875   3.703   4.903  0.1063 -0.3827  0.6129
 9213SOL    HW133731   5.942   3.740   4.960  0.3615  1.5789 -0.8333
 9213SOL    HW233732   5.921   3.638   4.850 -0.0084 -1.7853  2.1497
 9214SOL     OW33733   1.238   8.571   2.902 -0.1900  0.0861  0.2478
 9214SOL    HW133734   1.261   8.520   2.825  0.4059  1.2319 -0.3531
 9214SOL    HW233735   1.290   8.651   2.895 -2.0346  1.3653  0.5030
 9215SOL     OW33736   3.877  10.111  10.209  0.5025 -0.1111  0.2456
 9215SOL    HW133737   3.884  10.198  10.249  1.0671  0.0184 -0.1209
 9215SOL    HW233738   3.789  10.082  10.231 -0.1526  1.0744 -0.6912
 9216SOL     OW33739   6.712   5.740   2.073  0.3626 -0.3998 -1.0187
 9216SOL    HW133740   6.777   5.669   2.076 -0.6360 -1.2971  1.6774
 9216SOL    HW233741   6.633   5.702   2.111  0.0622  2.3957  1.5226
 9217SOL     OW33742   6.390   2.873   4.228  0.1381  0.1367  0.7171
 9217SOL    HW133743   6.442   2.805   4.270  0.7244  1.3364  2.0411
 9217SOL    HW233744   6.324   2.826   4.177  0.6246 -1.4012  1.4596
 9218SOL     OW33745   7.214   4.486   6.709  0.0394  0.2655 -0.0826
 9218SOL    HW133746   7.143   4.423   6.693 -0.7644  0.8945  0.8674
 9218SOL    HW233747   7.293   4.439   6.686 -0.5859 -0.9320  0.1211
 9219SOL     OW33748   2.912   6.461   3.270  0.3479  0.2392 -0.1669
 9219SOL    HW133749   2.909   6.419   3.184  1.1643  1.3803 -0.7776
 9219SOL    HW233750   2.996   6.507   3.272 -1.0811  3.0775 -0.1699
 9220SOL     OW33751   1.429   1.516   8.797 -0.4780 -0.0135  0.1022
 9220SOL    HW133752   1.452   1.452   8.865 -1.4058 -0.1473  0.3069
 9220SOL    HW233753   1.505   1.519   8.739  0.7311  0.8332  1.6806
 9221SOL     OW33754   7.315   1.194  10.660  0.4118 -0.3731  0.1321
 9221SOL    HW133755   7.224   1.217  10.677  0.1653  0.5428 -1.9850
 9221SOL    HW233756   7.363   1.224  10.737 -0.7154  1.9792 -0.0005
 9222SOL     OW33757   8.006   4.657   8.368 -0.3535 -0.1887  0.1521
 9222SOL    HW133758   8.021   4.604   8.290 -1.6171 -0.9848  0.4193
 9222SOL    HW233759   8.092   4.668   8.408  0.5732  1.4229 -2.0721
 9223SOL     OW33760   0.421   1.519   9.871 -0.0864  0.0377 -0.0279
 9223SOL    HW133761   0.374   1.443   9.906  0.4282 -0.2312  0.0924
 9223SOL    HW233762   0.353   1.573   9.831 -0.5882 -0.0240  0.7243
 9224SOL     OW33763   5.252   8.440  10.071 -0.1128 -0.5522  0.4682
 9224SOL    HW133764   5.172   8.494  10.070 -1.0364 -1.8695  0.1410
 9224SOL    HW233765   5.291   8.453   9.985 -0.6307 -0.8194  0.1890
 9225SOL     OW33766   3.794   8.416   0.896 -0.6035 -0.8179  0.0551
 9225SOL    HW133767   3.878   8.371   0.887 -0.5975 -0.4050 -2.5667
 9225SOL    HW233768   3.743   8.389   0.820 -1.8944  0.9435  0.2202
 9226SOL     OW33769   4.104   0.028   7.363  0.0951  0.5519 -0.1796
 9226SOL    HW133770   4.045  -0.004   7.295 -0.3463  0.4736  0.2376
 9226SOL    HW233771   4.132   0.114   7.331  2.3773 -0.7492 -1.9791
 9227SOL     OW33772   5.184   2.396   6.831  0.1910  0.2116 -0.2172
 9227SOL    HW133773   5.259   2.437   6.788 -0.5528  0.3484 -1.4498
 9227SOL    HW233774   5.214   2.309   6.856  0.9997  0.5602  0.0673
 9228SOL     OW33775   4.005   1.332   3.811 -0.3137  0.6516 -0.0188
 9228SOL    HW133776   3.956   1.251   3.825 -0.1954  0.7510  1.0754
 9228SOL    HW233777   4.072   1.309   3.747  0.4663 -0.4522  1.1469
 9229SOL     OW33778   4.930   9.147   5.295  0.0022 -0.2800  0.1752
 9229SOL    HW133779   5.003   9.103   5.339  1.1277 -0.0821 -1.4001
 9229SOL    HW233780   4.968   9.229   5.264 -1.1876  0.2919  0.2053
 9230SOL     OW33781   2.384   0.852  10.569 -0.0938 -0.0056  0.0090
 9230SOL    HW133782   2.411   0.783  10.630  1.8108  1.0508  0.4591
 9230SOL    HW233783   2.332   0.912  10.623  1.8699  1.1051  0.7834
 9231SOL     OW33784   1.933   7.856   6.211  0.3277  0.2807 -0.8838
 9231SOL    HW133785   1.941   7.815   6.297  0.3387  2.4236  0.1849
 9231SOL    HW233786   1.840   7.849   6.190  0.5031 -1.2916 -1.2881
 9232SOL     OW33787   8.524   5.419   0.334  0.1822  0.4417 -0.2112
 9232SOL    HW133788   8.494   5.482   0.400 -0.6574  0.0080 -0.1719
 9232SOL    HW233789   8.600   5.461   0.294  0.5675  0.8196  0.8649
 9233SOL     OW33790   9.918   7.465  10.565 -0.3636 -0.0743  0.2604
 9233SOL    HW133791   9.907   7.412  10.486  2.3905  1.7710 -1.5147
 9233SOL    HW233792   9.868   7.545  10.547 -1.4446 -0.4694  1.3482
 9234SOL     OW33793   2.536   9.463   6.168  0.0016  0.5691  0.4326
 9234SOL    HW133794   2.537   9.421   6.254 -0.1599  0.4499  0.3766
 9234SOL    HW233795   2.588   9.405   6.113 -1.0622 -0.1021  0.1033
 9235SOL     OW33796   7.299   4.365   6.155  0.4758 -0.3140  0.1388
 9235SOL    HW133797   7.317   4.446   6.202  0.9351 -0.6845  0.6107
 9235SOL    HW233798   7.347   4.298   6.203 -1.1367 -1.1391  0.6692
 9236SOL     OW33799   0.133  10.553   8.059 -0.3466 -0.1982 -0.2352
 9236SOL    HW133800   0.210  10.588   8.016 -0.0217 -1.2729 -0.5631
 9236SOL    HW233801   0.122  10.465   8.022 -1.1872 -0.4151  0.4708
 9237SOL     OW33802   3.536   4.735  10.458  0.7290  0.2043 -0.5554
 9237SOL    HW133803   3.446   4.767  10.455  0.7951  0.4603  0.1072
 9237SOL    HW233804   3.537   4.671  10.529  0.9562 -0.1813 -0.8951
 9238SOL     OW33805   9.579   7.327   7.164 -0.4404 -0.0837  0.6393
 9238SOL    HW133806   9.629   7.403   7.195 -0.7333  0.1601  0.5221
 9238SOL    HW233807   9.618   7.305   7.080 -1.0853  0.6463  0.1427
 9239SOL     OW33808  10.294  10.651   4.179 -0.0526  0.5287  0.1637
 9239SOL    HW133809  10.209  10.647   4.224 -0.0102 -0.1298  0.1979
 9239SOL    HW233810  10.298  10.739   4.143  0.5086  1.6151  2.6471
 9240SOL     OW33811   9.448   7.199   2.353 -0.2975 -0.4189 -0.0716
 9240SOL    HW133812   9.537   7.193   2.388  0.7969 -0.2736 -2.6214
 9240SOL    HW233813   9.396   7.233   2.425  2.1056  1.4693  0.9151
 9241SOL     OW33814   3.764   6.486   5.518  0.1744  0.5583  0.0709
 9241SOL    HW133815   3.791   6.444   5.436  2.0396  0.2578  0.7891
 9241SOL    HW233816   3.846   6.508   5.562 -0.7591  2.6692  0.8951
 9242SOL     OW33817   5.669   4.853   8.943 -0.1371  0.9558  0.1155
 9242SOL    HW133818   5.763   4.853   8.925 -0.1116 -2.9798 -0.5179
 9242SOL    HW233819   5.628   4.879   8.861  0.3555 -0.1115 -0.4745
 9243SOL     OW33820   6.890   1.885   1.483  0.5427 -0.7664 -0.2905
 9243SOL    HW133821   6.846   1.965   1.452  1.2065  0.6293  2.0897
 9243SOL    HW233822   6.882   1.824   1.410 -2.8249  0.3446 -1.0709
 9244SOL     OW33823   6.422   0.495   0.088 -0.0795  0.0195 -0.2722
 9244SOL    HW133824   6.514   0.486   0.113  0.7040  1.7063 -2.3037
 9244SOL    HW233825   6.376   0.506   0.171  1.4399 -1.3797  0.8353
 9245SOL     OW33826   3.874   5.620   2.126 -0.9127 -0.3119  0.5315
 9245SOL    HW133827   3.831   5.685   2.181 -0.8824  0.2206 -0.0574
 9245SOL    HW233828   3.879   5.662   2.040  2.2706  0.3533  0.9316
 9246SOL     OW33829   1.529   1.023   3.899 -0.1838  0.5936  0.1463
 9246SOL    HW133830   1.590   1.094   3.877  0.1504  0.2496 -0.0598
 9246SOL    HW233831   1.567   0.983   3.977  0.7685 -0.6582 -0.9050
 9247SOL     OW33832   6.964   7.000   0.714  0.1302  0.0874 -0.1855
 9247SOL    HW133833   7.032   7.023   0.651  1.7126 -0.8079  1.1009
 9247SOL    HW233834   6.938   6.911   0.690  0.2217  0.0146 -0.0198
 9248SOL     OW33835   1.030   3.157   3.575  0.2707 -0.4962 -0.7139
 9248SOL    HW133836   0.996   3.106   3.501  1.9870 -0.4842 -1.5541
 9248SOL    HW233837   1.028   3.247   3.545  2.3142 -0.6156 -1.3647
 9249SOL     OW33838   4.265   7.148   0.077 -0.0903  0.1702 -0.3861
 9249SOL    HW133839   4.360   7.143   0.083  0.0463  1.4099 -1.1480
 9249SOL    HW233840   4.235   7.057   0.082  1.1671 -0.2664 -0.6630
 9250SOL     OW33841   0.178   8.436   0.063  0.3536  0.3360 -0.4515
 9250SOL    HW133842   0.205   8.487  -0.013 -0.2520  0.2499 -0.7273
 9250SOL    HW233843   0.208   8.488   0.138  0.1805  0.8516 -0.7346
 9251SOL     OW33844   5.225  10.550   0.837 -0.1491  0.3300 -0.0585
 9251SOL    HW133845   5.290  10.600   0.886  0.8493 -0.9653 -0.0179
 9251SOL    HW233846   5.228  10.462   0.875 -1.2963  0.0135 -0.6498
 9252SOL     OW33847   9.722   9.761   5.922 -0.3480 -0.4583  0.4574
 9252SOL    HW133848   9.644   9.785   5.972 -0.6409  0.9450 -0.6108
 9252SOL    HW233849   9.779   9.839   5.928  0.4713 -1.0240  0.2618
 9253SOL     OW33850  10.373   2.214   5.010  0.5671 -0.7360  1.1069
 9253SOL    HW133851  10.367   2.287   5.072 -0.2495  0.3236 -0.1872
 9253SOL    HW233852  10.442   2.240   4.949  1.9051 -2.1153  1.9248
 9254SOL     OW33853   8.534   2.535   4.876  0.0339  0.0488  0.3219
 9254SOL    HW133854   8.489   2.608   4.918 -2.6006 -0.3271 -1.6264
 9254SOL    HW233855   8.495   2.457   4.916  0.9249 -0.3063  0.5142
 9255SOL     OW33856  10.207   1.677   6.008 -0.1384  0.1375  0.1939
 9255SOL    HW133857  10.202   1.589   6.044 -1.5200  0.9289  2.1449
 9255SOL    HW233858  10.284   1.716   6.049  0.7682 -0.2794 -1.0562
 9256SOL     OW33859   2.759   7.069   3.931  0.0833 -0.6392  0.1184
 9256SOL    HW133860   2.829   7.093   3.993  0.5874  2.1836 -1.3565
 9256SOL    HW233861   2.803   7.066   3.846 -1.2591 -0.6715 -0.5959
 9257SOL     OW33862   1.198   4.396   2.952  0.0326  0.4475 -0.4199
 9257SOL    HW133863   1.121   4.402   2.896 -0.1365 -0.6549 -0.3217
 9257SOL    HW233864   1.171   4.434   3.035 -1.0213 -1.5570  0.2206
 9258SOL     OW33865   7.777   5.527   8.271  0.2097  0.4250 -0.2080
 9258SOL    HW133866   7.757   5.433   8.272 -0.0190  0.4383 -1.5491
 9258SOL    HW233867   7.872   5.532   8.268  0.2100  0.1610 -1.9082
 9259SOL     OW33868  10.162   8.823   9.335 -0.2048  0.1122  0.3401
 9259SOL    HW133869  10.235   8.814   9.274  0.1494  0.3426  0.7284
 9259SOL    HW233870  10.094   8.868   9.285 -1.3866 -2.9604 -1.1297
 9260SOL     OW33871   4.646   5.312   1.271 -0.0835  0.2562 -0.6106
 9260SOL    HW133872   4.585   5.385   1.273 -1.2293 -0.6914  1.0110
 9260SOL    HW233873   4.719   5.339   1.327 -0.4679  0.2079 -0.0815
 9261SOL     OW33874   4.598   5.114   4.964  0.0908 -0.4595  0.4675
 9261SOL    HW133875   4.623   5.021   4.963  1.6788 -0.0570  0.8996
 9261SOL    HW233876   4.567   5.130   5.053 -0.6301 -0.6641  0.2650
 9262SOL     OW33877   0.009   8.679   9.569  0.8265  0.0557 -0.2804
 9262SOL    HW133878  -0.008   8.587   9.549 -0.4385  0.1034  0.4446
 9262SOL    HW233879  -0.062   8.726   9.524  0.1556  0.4656  1.1386
 9263SOL     OW33880   0.405   6.315  10.415 -0.2119 -0.1390  0.5478
 9263SOL    HW133881   0.463   6.321  10.339 -1.4033  1.1588 -0.3171
 9263SOL    HW233882   0.422   6.395  10.464 -0.0288 -0.5933  1.2444
 9264SOL     OW33883   0.030   0.471   1.598  0.2066 -0.7161  0.4295
 9264SOL    HW133884   0.055   0.452   1.507 -0.9307 -0.6370  0.0775
 9264SOL    HW233885  -0.057   0.431   1.607  0.4118 -0.9407  1.5695
 9265SOL     OW33886   2.605   8.151   5.413 -0.3817  0.5649 -0.0036
 9265SOL    HW133887   2.620   8.067   5.454 -0.2893  0.9542  0.7648
 9265SOL    HW233888   2.518   8.178   5.444 -0.6174  0.5453 -0.6163
 9266SOL     OW33889   5.826   9.446   9.954 -0.0848  0.1971  0.4161
 9266SOL    HW133890   5.893   9.507   9.984 -0.1691  0.5647 -0.1304
 9266SOL    HW233891   5.845   9.434   9.861 -0.8078  0.3383  0.2494
 9267SOL     OW33892   1.214   7.845  10.490 -0.2090 -0.0881 -0.2045
 9267SOL    HW133893   1.269   7.782  10.443  0.5959  0.0810  0.4974
 9267SOL    HW233894   1.147   7.790  10.532 -0.6374 -0.2858 -1.1126
 9268SOL     OW33895   7.830   7.730   2.190  0.1994  0.4276 -0.3147
 9268SOL    HW133896   7.745   7.687   2.184  0.5903 -0.3543 -0.3205
 9268SOL    HW233897   7.809   7.824   2.193 -0.6242  0.2772 -1.0176
 9269SOL     OW33898   9.125   0.962   0.580  0.1834 -0.6305  0.0076
 9269SOL    HW133899   9.203   0.930   0.627  0.7878 -1.1723 -1.3135
 9269SOL    HW233900   9.062   0.890   0.587 -0.7155  0.2664  2.1155
 9270SOL     OW33901   7.951   1.603   6.863  0.2111 -0.1901  0.1765
 9270SOL    HW133902   7.936   1.698   6.861  0.0265 -0.2357 -1.5332
 9270SOL    HW233903   8.027   1.592   6.921  0.7192  1.0669 -0.2219
 9271SOL     OW33904   0.656   6.408   8.299 -0.7569 -0.1814  0.0208
 9271SOL    HW133905   0.588   6.375   8.357 -2.0322  1.4995 -0.4377
 9271SOL    HW233906   0.656   6.347   8.225 -1.1237 -0.7161  0.4549
 9272SOL     OW33907   5.852   3.685   5.736 -0.5424  0.1411 -0.2191
 9272SOL    HW133908   5.795   3.661   5.663 -0.6837  0.1061 -0.0987
 9272SOL    HW233909   5.846   3.611   5.796  1.4755 -0.9562 -1.2712
 9273SOL     OW33910   5.582   0.091   4.291  0.0999 -0.0443 -0.0146
 9273SOL    HW133911   5.518   0.051   4.349 -0.7645  1.0058 -0.2190
 9273SOL    HW233912   5.557   0.183   4.287  0.8137  0.1240 -1.1692
 9274SOL     OW33913   1.771   6.873   6.574 -0.4110 -0.1070  0.2145
 9274SOL    HW133914   1.729   6.938   6.630 -1.0823 -0.7135  0.4202
 9274SOL    HW233915   1.702   6.812   6.550  0.3118 -1.0478  0.4511
 9275SOL     OW33916   5.302   1.652   9.043 -0.1939 -0.2914  0.4544
 9275SOL    HW133917   5.319   1.612   8.958  0.6752  1.9140 -0.4720
 9275SOL    HW233918   5.379   1.707   9.060 -2.0352  2.3888  0.7623
 9276SOL     OW33919   2.314   8.605   6.763  0.2770  0.0845  0.3746
 9276SOL    HW133920   2.288   8.696   6.747 -1.4092 -0.2562  0.9793
 9276SOL    HW233921   2.350   8.576   6.679  0.6090  1.2234  0.0995
 9277SOL     OW33922   1.883   7.205   2.047  0.3886 -0.1486 -0.3317
 9277SOL    HW133923   1.813   7.191   2.111 -1.4547  0.5556 -2.0696
 9277SOL    HW233924   1.875   7.297   2.022  1.4183 -0.2610 -1.1555
 9278SOL     OW33925   0.497   9.607   2.278  0.4531 -0.0686  0.1503
 9278SOL    HW133926   0.556   9.543   2.238 -1.1244 -1.6293  0.1759
 9278SOL    HW233927   0.467   9.563   2.359 -2.2963 -0.2715 -0.8742
 9279SOL     OW33928   7.436   6.074  10.440 -0.3750  0.0675  0.2901
 9279SOL    HW133929   7.478   6.039  10.362 -0.1371 -2.0556  1.3089
 9279SOL    HW233930   7.507   6.082  10.504 -0.8484  0.1306  0.8172
 9280SOL     OW33931   7.003   1.386   4.375 -0.0267 -0.0098  0.9405
 9280SOL    HW133932   7.013   1.456   4.311 -1.2125  0.0718  0.8131
 9280SOL    HW233933   6.950   1.319   4.331  2.7023 -1.9546  0.3459
 9281SOL     OW33934   6.144   5.627   8.315 -0.2922 -0.1302  0.0130
 9281SOL    HW133935   6.050   5.633   8.333 -0.1051  2.6509  0.5300
 9281SOL    HW233936   6.153   5.661   8.226  0.4008  1.9846  0.8350
 9282SOL     OW33937   3.111   8.661   1.478  0.0866 -0.0016 -0.1116
 9282SOL    HW133938   3.091   8.687   1.388  1.1099  0.0189 -0.3463
 9282SOL    HW233939   3.026   8.640   1.516 -0.2490 -1.3640 -1.5117
 9283SOL     OW33940   3.915   7.410   4.119 -0.0035 -0.0732  0.5726
 9283SOL    HW133941   3.893   7.375   4.205 -2.6885  2.3751  1.0240
 9283SOL    HW233942   3.848   7.375   4.060  1.5337 -1.3483 -0.5315
 9284SOL     OW33943   3.621   6.126   1.497 -0.9172  0.2489 -0.1234
 9284SOL    HW133944   3.696   6.170   1.457 -0.6061  0.3145  0.5212
 9284SOL    HW233945   3.559   6.197   1.516 -0.9556  0.2494 -0.2481
 9285SOL     OW33946  10.656   1.041   7.486 -0.3728  0.6069  0.1714
 9285SOL    HW133947  10.562   1.056   7.497 -0.5303  0.3485 -0.7736
 9285SOL    HW233948  10.686   1.115   7.434 -0.2962  0.0515 -0.5923
 9286SOL     OW33949   2.011   3.362   0.528  0.0629 -0.4866  0.4430
 9286SOL    HW133950   1.951   3.295   0.562 -0.5900 -0.1657 -0.0595
 9286SOL    HW233951   2.095   3.317   0.522  0.1085 -0.6746  2.0506
 9287SOL     OW33952   3.513   3.165   9.695  0.0046 -0.6251  0.0261
 9287SOL    HW133953   3.593   3.184   9.645  0.0810  0.9407  0.6951
 9287SOL    HW233954   3.447   3.146   9.628  0.7478 -1.2242 -0.5561
 9288SOL     OW33955   3.785   1.355   4.671  0.2128  0.1700  0.2047
 9288SOL    HW133956   3.833   1.421   4.722  0.4320 -0.0931  0.3368
 9288SOL    HW233957   3.847   1.283   4.661 -0.4114 -0.4973  1.0293
 9289SOL     OW33958   4.636   8.787   4.644 -0.8118  0.3951  0.0325
 9289SOL    HW133959   4.586   8.712   4.675  1.9925 -0.8415  1.9910
 9289SOL    HW233960   4.625   8.853   4.712  0.0779  0.1533  0.4251
 9290SOL     OW33961   2.641   9.113   1.931 -0.1163  0.3259 -0.2058
 9290SOL    HW133962   2.579   9.042   1.946 -0.5281  0.6709 -0.2541
 9290SOL    HW233963   2.588   9.185   1.896  0.4719  0.2566 -1.3122
 9291SOL     OW33964   4.040   8.281   6.881  0.6579 -0.4503 -0.1712
 9291SOL    HW133965   4.126   8.302   6.846  0.8273 -0.3148  0.3247
 9291SOL    HW233966   3.985   8.267   6.804  1.0298 -0.1577 -0.4869
 9292SOL     OW33967   4.861  10.830  10.018  0.0624 -0.1653 -0.1558
 9292SOL    HW133968   4.844  10.741   9.985  0.9422 -1.1667  1.9358
 9292SOL    HW233969   4.793  10.846  10.083 -0.5366  1.0367 -1.0340
 9293SOL     OW33970   9.798   5.798   6.000  0.6019 -0.1435 -0.0209
 9293SOL    HW133971   9.783   5.859   6.072  0.9521 -1.4583  1.2130
 9293SOL    HW233972   9.713   5.786   5.960  0.6164  1.5345 -0.6197
 9294SOL     OW33973   3.886   9.714   7.936  0.2269 -0.4851  0.8203
 9294SOL    HW133974   3.804   9.665   7.936 -0.0832 -0.0097 -0.4451
 9294SOL    HW233975   3.865   9.795   7.890  1.3908 -0.3319  0.5257
 9295SOL     OW33976   2.387   1.421   0.605  0.0981 -0.0297 -0.1392
 9295SOL    HW133977   2.418   1.416   0.696  1.8510  2.1154 -0.5193
 9295SOL    HW233978   2.459   1.386   0.553 -0.3996 -0.1272 -0.7702
 9296SOL     OW33979   1.591   9.003  10.011 -0.7905 -0.3906  0.1548
 9296SOL    HW133980   1.597   9.085  10.062 -0.1345 -1.0598  1.1927
 9296SOL    HW233981   1.675   8.959  10.025 -1.3336 -1.4965  0.0651
 9297SOL     OW33982   5.503   8.079   1.390  0.1451  0.4855  0.0046
 9297SOL    HW133983   5.565   8.005   1.398  1.0310  1.3158  1.0836
 9297SOL    HW233984   5.429   8.055   1.446 -0.0678 -0.0639 -0.5027
 9298SOL     OW33985   1.458   8.116   7.853 -0.4165 -0.6122  0.1273
 9298SOL    HW133986   1.439   8.025   7.830  0.1389 -0.4256 -1.1586
 9298SOL    HW233987   1.410   8.168   7.787  0.5951 -0.0340 -0.1759
 9299SOL     OW33988   5.920   1.084   9.206 -0.1176  0.5426 -0.2813
 9299SOL    HW133989   5.856   1.036   9.153  1.1303 -2.4913  0.7094
 9299SOL    HW233990   5.934   1.029   9.283  3.6994  0.9488 -0.4868
 9300SOL     OW33991   6.830   2.848   5.426 -0.3507 -0.1416  0.3407
 9300SOL    HW133992   6.762   2.912   5.445  0.3868  0.3865  1.3698
 9300SOL    HW233993   6.892   2.857   5.499  1.7389  0.6709 -1.4087
 9301SOL     OW33994   8.684   1.401   2.332  0.0710 -0.4741 -0.6798
 9301SOL    HW133995   8.750   1.365   2.272  0.0211  0.2750 -1.1992
 9301SOL    HW233996   8.730   1.469   2.381  0.2894 -1.5269  0.6375
 9302SOL     OW33997   6.765   0.413   9.518 -0.1846 -0.6652  0.0028
 9302SOL    HW133998   6.778   0.397   9.611  1.7599  1.0920  0.0974
 9302SOL    HW233999   6.686   0.466   9.513  0.5825  0.5806  0.8255
 9303SOL     OW34000   4.570   4.963  10.333  0.1728  0.0620  0.4759
 9303SOL    HW134001   4.485   5.004  10.346  0.4535  1.3265 -1.3713
 9303SOL    HW234002   4.550   4.876  10.298 -0.3764  0.8581 -1.2687
 9304SOL     OW34003   4.592   9.664   4.882  0.1830  0.4969 -0.1624
 9304SOL    HW134004   4.525   9.714   4.930  0.5243 -0.3204  1.2265
 9304SOL    HW234005   4.587   9.576   4.919  0.5916 -0.1342 -1.5498
 9305SOL     OW34006   3.595   5.344   0.887 -0.0348 -0.4689  0.0440
 9305SOL    HW134007   3.606   5.285   0.961 -1.6420  0.2868  0.9506
 9305SOL    HW234008   3.512   5.389   0.905  1.1156  2.0719 -0.5810
 9306SOL     OW34009   9.095   3.604  10.080  0.3701  0.3248  0.1479
 9306SOL    HW134010   9.181   3.622  10.117  0.1407 -1.3737  1.6786
 9306SOL    HW234011   9.096   3.645   9.994  2.7854  0.1422  0.0294
 9307SOL     OW34012  10.216   6.387   7.704  1.0245 -0.0439  0.2047
 9307SOL    HW134013  10.211   6.478   7.732 -0.3101 -0.1784  0.4966
 9307SOL    HW234014  10.306   6.375   7.673  1.0607  1.5158 -0.3478
 9308SOL     OW34015   9.635   4.505   0.747  0.7813 -0.1172 -0.4936
 9308SOL    HW134016   9.724   4.487   0.777  1.1105  0.8544 -0.8441
 9308SOL    HW234017   9.635   4.599   0.727  0.5942 -0.6538 -3.5232
 9309SOL     OW34018   6.174  10.305   0.724  0.2012 -0.1169 -0.0555
 9309SOL    HW134019   6.222  10.359   0.786 -0.1221 -0.5651  0.6059
 9309SOL    HW234020   6.086  10.342   0.722 -0.7196 -1.8927  2.1571
 9310SOL     OW34021   1.492   8.168   6.433  0.1686  0.4550  0.2059
 9310SOL    HW134022   1.427   8.133   6.494 -0.7663  0.4220 -0.7837
 9310SOL    HW234023   1.461   8.142   6.346  0.8168  1.5348 -0.3786
 9311SOL     OW34024   8.698   1.589   7.123 -0.1524 -0.2652 -0.0427
 9311SOL    HW134025   8.661   1.642   7.053  0.3958 -1.8215 -1.5936
 9311SOL    HW234026   8.657   1.622   7.203 -0.5193  1.8182 -1.0310
 9312SOL     OW34027   0.538   7.512   6.233 -0.3332 -0.0388  0.3126
 9312SOL    HW134028   0.543   7.423   6.198  0.7839  0.4870 -0.9414
 9312SOL    HW234029   0.614   7.519   6.291  0.5325  0.5896 -0.8564
 9313SOL     OW34030   3.670   4.312  10.268  0.1636 -0.1291 -0.1102
 9313SOL    HW134031   3.579   4.324  10.296  0.8392 -0.1139  2.3263
 9313SOL    HW234032   3.671   4.227  10.224 -1.2220  0.4120 -1.2719
 9314SOL     OW34033   5.933   0.910   9.424 -0.3305  0.5823  0.2006
 9314SOL    HW134034   5.991   0.842   9.389 -0.7781  0.5074 -0.4141
 9314SOL    HW234035   5.979   0.944   9.501 -0.1212 -0.4272  0.5274
 9315SOL     OW34036   4.230   1.576  10.625 -0.1495 -0.0155  0.3006
 9315SOL    HW134037   4.234   1.645  10.559 -1.4946  0.7436  0.9859
 9315SOL    HW234038   4.321   1.566  10.655  0.4322 -0.1473 -1.4013
 9316SOL     OW34039  10.731  10.157   9.372 -0.4493 -0.2631 -0.1529
 9316SOL    HW134040  10.768  10.244   9.365  0.4338 -0.4618  1.5484
 9316SOL    HW234041  10.646  10.170   9.414 -1.8161  0.0608 -2.8645
 9317SOL     OW34042   9.438   9.862   4.237  0.2844 -0.3294  0.1777
 9317SOL    HW134043   9.374   9.835   4.171  1.9311  0.3511 -1.8162
 9317SOL    HW234044   9.391   9.854   4.320 -1.6416 -1.9889 -0.9668
 9318SOL     OW34045   2.875   9.869   0.890  0.4507  0.1300 -0.0506
 9318SOL    HW134046   2.878   9.926   0.967  0.5913 -0.8442  0.6789
 9318SOL    HW234047   2.807   9.804   0.910  0.9235 -0.5107 -0.4731
 9319SOL     OW34048   8.413   6.912   2.082  0.1535  0.4061  0.1463
 9319SOL    HW134049   8.413   6.990   2.027 -0.6740  0.0322 -0.3940
 9319SOL    HW234050   8.397   6.839   2.022 -2.5939  0.1472  1.0604
 9320SOL     OW34051   0.877  10.490   7.067 -0.6266  0.2186 -0.0046
 9320SOL    HW134052   0.949  10.506   7.127 -0.8604  4.0098 -0.5022
 9320SOL    HW234053   0.915  10.497   6.980 -1.1021 -0.8155 -0.3222
 9321SOL     OW34054   7.468   3.016   3.681 -0.3964 -0.1869 -0.0445
 9321SOL    HW134055   7.541   2.955   3.690 -0.5815 -0.2740  1.0106
 9321SOL    HW234056   7.498   3.097   3.723 -0.4259  0.2115 -0.7731
 9322SOL     OW34057  10.548  10.908  10.234 -0.0430  0.5282 -0.7639
 9322SOL    HW134058  10.638  10.883  10.253 -0.2610  0.9957  1.1548
 9322SOL    HW234059  10.550  11.004  10.231 -0.7614  0.6758  1.3819
 9323SOL     OW34060   2.780   3.403   5.787 -0.5625 -0.1254  0.0286
 9323SOL    HW134061   2.875   3.412   5.779 -0.4210  0.4635  2.0666
 9323SOL    HW234062   2.766   3.363   5.872 -2.2086  1.0712  0.3728
 9324SOL     OW34063   3.236   8.552   8.106 -0.4318 -0.2468  0.7583
 9324SOL    HW134064   3.179   8.620   8.143 -1.1069 -0.2128 -0.3058
 9324SOL    HW234065   3.314   8.554   8.161 -0.6967  0.9767  1.1228
 9325SOL     OW34066   9.014   2.742   7.556  0.0195  0.1745 -0.1211
 9325SOL    HW134067   9.012   2.653   7.522  1.3534  0.5164 -1.1680
 9325SOL    HW234068   8.930   2.780   7.529 -1.1213 -1.0899  1.4024
 9326SOL     OW34069   1.968   1.501   7.722  0.1301 -0.6552 -0.0579
 9326SOL    HW134070   1.876   1.524   7.730  0.0323 -0.9272 -0.3656
 9326SOL    HW234071   1.991   1.465   7.808  0.6712  1.8527  0.9328
 9327SOL     OW34072   4.251   1.425   0.008 -0.5974 -0.0397  0.1868
 9327SOL    HW134073   4.206   1.392   0.086 -1.5106  0.1934 -0.2286
 9327SOL    HW234074   4.263   1.347  -0.047  1.2475 -0.4608  1.0970
 9328SOL     OW34075   2.457   0.508   3.752  0.0137 -0.4017 -0.6970
 9328SOL    HW134076   2.550   0.528   3.763 -0.2519  0.3466  0.3010
 9328SOL    HW234077   2.456   0.418   3.718  1.0612 -1.1955  1.2080
 9329SOL     OW34078   5.622   0.465   7.457  0.0984 -0.2933 -0.0449
 9329SOL    HW134079   5.566   0.535   7.491 -0.4926 -0.9670  0.3954
 9329SOL    HW234080   5.605   0.464   7.363  1.6086  1.4648 -0.4183
 9330SOL     OW34081   7.354   8.724   9.394  0.0464  0.7745 -0.1120
 9330SOL    HW134082   7.399   8.643   9.418 -2.3128 -0.0219  1.9945
 9330SOL    HW234083   7.291   8.739   9.464 -0.6842  3.6144 -1.2379
 9331SOL     OW34084   9.114   6.077   8.861 -0.5999  0.0951  0.9113
 9331SOL    HW134085   9.026   6.097   8.829  0.2987  1.5524 -0.8506
 9331SOL    HW234086   9.139   6.155   8.911  0.0603  0.1084  0.5647
 9332SOL     OW34087   9.944   4.982   2.734 -0.3577  0.1765  0.0912
 9332SOL    HW134088   9.906   5.058   2.690 -0.2604 -1.1062 -2.3704
 9332SOL    HW234089  10.027   5.013   2.770 -0.2730  1.2028 -0.9737
 9333SOL     OW34090   9.103   9.462   0.337 -0.0344 -0.5839  0.1748
 9333SOL    HW134091   9.175   9.482   0.396 -1.5559 -0.2446  2.0018
 9333SOL    HW234092   9.043   9.536   0.347 -0.8863 -1.1056 -0.9138
 9334SOL     OW34093   3.267   1.561   9.897  0.2061 -0.1901 -0.3788
 9334SOL    HW134094   3.339   1.624   9.892  1.9172 -1.9283  0.8082
 9334SOL    HW234095   3.298   1.484   9.849 -0.4677 -1.3009  0.8570
 9335SOL     OW34096   7.839   0.793   6.535  0.4201  0.4293 -0.1137
 9335SOL    HW134097   7.755   0.811   6.493  1.2425  0.6353 -1.7768
 9335SOL    HW234098   7.817   0.745   6.614 -1.2468  0.2673 -0.6356
 9336SOL     OW34099   2.317   9.591   0.540 -1.1994  0.1165 -0.1038
 9336SOL    HW134100   2.376   9.647   0.489 -1.2845  0.0735 -0.2481
 9336SOL    HW234101   2.347   9.602   0.630 -0.6384 -0.3087 -0.2339
 9337SOL     OW34102   0.744   7.992   6.910 -0.0938 -0.0845 -0.2193
 9337SOL    HW134103   0.694   7.965   6.987 -0.0355  1.4955  0.4144
 9337SOL    HW234104   0.790   8.071   6.938 -0.5131  0.8682 -2.0298
 9338SOL     OW34105   3.237   3.356   5.413  0.4902  0.0997 -0.1126
 9338SOL    HW134106   3.306   3.350   5.347 -2.1114 -2.2261 -2.8802
 9338SOL    HW234107   3.243   3.273   5.460 -1.1773 -0.7350 -1.2974
 9339SOL     OW34108   9.645   2.624   7.909 -0.4845 -0.6655  0.2663
 9339SOL    HW134109   9.650   2.706   7.861 -2.3289 -0.5650  0.2077
 9339SOL    HW234110   9.680   2.644   7.996 -0.1016 -0.0562 -0.0239
 9340SOL     OW34111  10.239   6.412   6.320  0.3040 -0.8028  0.4558
 9340SOL    HW134112  10.217   6.375   6.405 -0.4624 -1.7353 -0.1278
 9340SOL    HW234113  10.156   6.445   6.285  0.5349 -0.7928 -0.1029
 9341SOL     OW34114   6.251  10.406   6.570  0.0100  0.4167  0.6148
 9341SOL    HW134115   6.319  10.360   6.520  0.7357  2.1099 -0.0511
 9341SOL    HW234116   6.292  10.422   6.655 -0.0953  0.1869  0.7093
 9342SOL     OW34117   1.060   4.126   2.546 -0.2787  0.1925  0.5488
 9342SOL    HW134118   1.078   4.032   2.542  1.8687  0.5473 -2.4384
 9342SOL    HW234119   0.972   4.135   2.510 -0.2380 -0.6646  0.2008
 9343SOL     OW34120   9.662   9.687   0.963  0.0781 -0.3049 -0.1929
 9343SOL    HW134121   9.668   9.696   1.058  0.9113 -0.4705 -0.2246
 9343SOL    HW234122   9.572   9.656   0.947 -0.1264 -0.0795  0.5196
 9344SOL     OW34123   3.908   5.723   6.463 -0.3272  0.7547 -0.4607
 9344SOL    HW134124   3.968   5.693   6.531 -0.1762  1.0169 -0.4797
 9344SOL    HW234125   3.951   5.700   6.381  0.5877  2.5418 -0.5148
 9345SOL     OW34126   5.446   4.795   8.456  0.0663 -0.2126 -0.0951
 9345SOL    HW134127   5.465   4.723   8.516 -1.2058 -1.2901 -0.9313
 9345SOL    HW234128   5.351   4.802   8.456  0.1654  1.5995  0.0856
 9346SOL     OW34129   8.259   7.757   0.810 -0.6814 -0.4301  0.1291
 9346SOL    HW134130   8.345   7.796   0.801 -0.6969 -0.2646  0.7008
 9346SOL    HW234131   8.244   7.752   0.904 -2.0243  1.1431  0.0297
 9347SOL     OW34132   1.875   1.666   9.383  0.5305  0.1936 -0.2387
 9347SOL    HW134133   1.895   1.612   9.306  0.3279 -0.3953  0.1151
 9347SOL    HW234134   1.779   1.662   9.391  0.3459  1.9301 -1.1545
 9348SOL     OW34135   0.106   0.582   4.102  0.0805  0.3493 -0.4787
 9348SOL    HW134136   0.120   0.488   4.093  0.4297  0.4345 -0.8676
 9348SOL    HW234137   0.194   0.620   4.091 -0.2228  0.7992 -1.4473
 9349SOL     OW34138   9.935   5.378   0.488  0.3412 -0.4285  0.6212
 9349SOL    HW134139   9.951   5.461   0.534  2.1048 -0.1581 -0.3562
 9349SOL    HW234140   9.994   5.316   0.530  2.9407  0.1149 -1.8761
 9350SOL     OW34141   2.419   3.694   6.180  0.3743 -0.8098  0.1323
 9350SOL    HW134142   2.326   3.714   6.180  0.0637 -1.5218  3.8079
 9350SOL    HW234143   2.436   3.656   6.094 -3.0601 -1.9783 -0.1620
 9351SOL     OW34144   2.763   0.547  10.388  0.4133  1.2118  0.5472
 9351SOL    HW134145   2.742   0.628  10.342  0.3105  1.0231  0.2612
 9351SOL    HW234146   2.851   0.524  10.359 -0.8074 -0.6011 -2.0427
 9352SOL     OW34147   8.759   7.689   6.817 -0.0052  0.1406  0.3903
 9352SOL    HW134148   8.665   7.677   6.803 -0.0638  0.7688  0.2340
 9352SOL    HW234149   8.780   7.770   6.771  0.7072 -0.2372  0.0296
 9353SOL     OW34150   7.797   0.009   8.979 -0.2699 -0.2154  0.0487
 9353SOL    HW134151   7.779   0.081   9.040  0.1589  0.3510 -0.4821
 9353SOL    HW234152   7.827  -0.062   9.035  0.4512  0.4064  0.4735
 9354SOL     OW34153   4.404   8.869   4.300 -0.6418  0.1701  0.0599
 9354SOL    HW134154   4.333   8.851   4.238  1.0965 -2.2221 -1.4500
 9354SOL    HW234155   4.484   8.844   4.253  0.8825 -0.8447  2.8964
 9355SOL     OW34156   5.075   4.458  10.485  0.2773 -0.6730  0.1855
 9355SOL    HW134157   5.041   4.525  10.426 -2.2165 -0.9774  1.1616
 9355SOL    HW234158   5.079   4.501  10.570 -1.7464 -1.8125  0.9053
 9356SOL     OW34159   7.586   3.656   9.511 -0.2030 -0.3290 -0.5351
 9356SOL    HW134160   7.533   3.643   9.433  1.7865  0.0629 -2.0499
 9356SOL    HW234161   7.543   3.603   9.579 -2.2148 -0.3627 -1.7595
 9357SOL     OW34162   3.357   4.636   3.348  0.2923 -0.3082  0.4931
 9357SOL    HW134163   3.411   4.647   3.426  1.4818  0.0972 -0.3576
 9357SOL    HW234164   3.330   4.725   3.326  1.6627 -0.1413 -0.6953
 9358SOL     OW34165   4.317   7.066   9.160  0.5566  0.4133 -0.3745
 9358SOL    HW134166   4.402   7.064   9.116  1.6645  0.7073  1.6342
 9358SOL    HW234167   4.332   7.120   9.237 -2.0641  2.2921 -1.0724
 9359SOL     OW34168   1.478   2.130   3.091  0.3603 -0.1539  0.1272
 9359SOL    HW134169   1.441   2.042   3.101  0.7744 -0.3881 -0.3602
 9359SOL    HW234170   1.569   2.121   3.118  0.1274  0.3748  1.1265
 9360SOL     OW34171   0.618  10.785   2.294 -0.1501 -0.1646  0.0649
 9360SOL    HW134172   0.664  10.868   2.286 -2.4408  1.5557  2.6120
 9360SOL    HW234173   0.673  10.732   2.351  0.0885  0.7126  0.6703
 9361SOL     OW34174   7.298   9.367   9.989  0.0718 -0.1216  0.3527
 9361SOL    HW134175   7.253   9.304   9.933  0.1653  0.1509 -0.0304
 9361SOL    HW234176   7.298   9.327  10.076 -1.8628  0.3528  0.6025
 9362SOL     OW34177   9.953   1.507  10.184 -0.5036 -0.2909 -0.0762
 9362SOL    HW134178   9.954   1.411  10.177  1.1242 -0.1789 -2.9838
 9362SOL    HW234179  10.003   1.526  10.263  1.4228 -1.8301 -0.8482
 9363SOL     OW34180   5.732   0.878   9.049 -0.2954 -0.2922 -0.0503
 9363SOL    HW134181   5.673   0.806   9.072  0.6526 -1.1944 -0.3697
 9363SOL    HW234182   5.805   0.836   9.004  0.6066  0.7972  0.3485
 9364SOL     OW34183   4.356   6.524  10.328 -0.2707 -0.3227  0.1772
 9364SOL    HW134184   4.309   6.478  10.258 -0.3568  1.8209 -1.2926
 9364SOL    HW234185   4.293   6.589  10.360  0.3873 -0.0518  0.9574
 9365SOL     OW34186   5.193   2.554  10.691  0.8180 -0.3287 -0.4764
 9365SOL    HW134187   5.139   2.480  10.661  0.0123 -0.9412  2.2155
 9365SOL    HW234188   5.246   2.576  10.615 -0.9746 -1.7785 -2.2917
 9366SOL     OW34189   8.740   7.279   0.234  0.6683  0.1442 -0.3543
 9366SOL    HW134190   8.676   7.246   0.171  0.6130 -0.4425  0.0021
 9366SOL    HW234191   8.688   7.309   0.308  0.6401  1.9887 -1.0622
 9367SOL     OW34192   7.068   1.200   2.366  0.1412 -0.0433 -0.2671
 9367SOL    HW134193   7.012   1.271   2.396  0.6423  0.6479 -0.9255
 9367SOL    HW234194   7.063   1.204   2.270  0.8956 -0.3052 -0.3218
 9368SOL     OW34195   2.453   5.623   7.621 -0.0706  0.4417  0.1211
 9368SOL    HW134196   2.439   5.707   7.576 -0.0990  0.7195  0.6467
 9368SOL    HW234197   2.470   5.647   7.712  0.8952 -0.0722  0.0849
 9369SOL     OW34198   2.213   6.191   0.146  0.4936 -0.1752  0.1428
 9369SOL    HW134199   2.303   6.218   0.125 -0.1783  0.9280 -1.5049
 9369SOL    HW234200   2.163   6.210   0.067 -1.6599  1.3932  1.7476
 9370SOL     OW34201   9.242  10.637   1.834  0.2745 -0.3570 -0.0966
 9370SOL    HW134202   9.273  10.728   1.826  0.2133 -0.4161 -1.2284
 9370SOL    HW234203   9.315  10.584   1.800  0.2209 -0.7156  0.3493
 9371SOL     OW34204   4.287   7.413   6.585 -0.1866  0.1900 -0.3900
 9371SOL    HW134205   4.305   7.422   6.491 -0.1446 -0.2530 -0.4262
 9371SOL    HW234206   4.194   7.432   6.593 -0.0111  1.1280 -0.3911
 9372SOL     OW34207   1.989   3.491   8.974  0.3537 -0.4936 -0.3514
 9372SOL    HW134208   1.962   3.400   8.959 -1.1615 -0.4738  1.6894
 9372SOL    HW234209   1.910   3.533   9.010  1.6281  1.0610  0.7723
 9373SOL     OW34210   4.446   6.377   7.031 -0.4895  0.1654  0.1542
 9373SOL    HW134211   4.458   6.353   7.122 -0.9723  0.7309  0.3725
 9373SOL    HW234212   4.353   6.397   7.023 -0.9161 -1.9830 -0.9788
 9374SOL     OW34213   3.484  10.701   0.619  0.3389 -0.0944  0.3810
 9374SOL    HW134214   3.572  10.667   0.602  0.0158 -0.0937 -1.5047
 9374SOL    HW234215   3.493  10.752   0.700  2.2936  0.6543 -0.2475
 9375SOL     OW34216   4.378   5.229   6.048 -0.4859  0.2196 -0.1068
 9375SOL    HW134217   4.315   5.242   5.976 -0.4903  1.0782  0.0436
 9375SOL    HW234218   4.378   5.313   6.095  1.1815  0.4163 -0.4224
 9376SOL     OW34219   6.835   6.600   4.148 -0.8733  0.0699  0.3635
 9376SOL    HW134220   6.780   6.564   4.217 -2.4503 -3.0848 -2.2435
 9376SOL    HW234221   6.776   6.655   4.097 -1.0270 -1.2956 -0.9968
 9377SOL     OW34222   0.202   9.906   9.879  0.2654 -0.2067  0.4823
 9377SOL    HW134223   0.199   9.824   9.929  0.0682  0.5217  1.7033
 9377SOL    HW234224   0.243   9.882   9.797 -0.4692 -1.6887  0.5147
 9378SOL     OW34225   1.331   0.300   5.807 -0.0712 -0.5179 -0.1524
 9378SOL    HW134226   1.319   0.305   5.713 -0.1811 -1.3555 -0.1852
 9378SOL    HW234227   1.367   0.213   5.823 -1.0267 -0.7796  0.6807
 9379SOL     OW34228   9.079   3.011   8.326  0.1478 -0.3845 -0.5352
 9379SOL    HW134229   9.001   2.983   8.277  0.0355 -1.8553  0.4264
 9379SOL    HW234230   9.153   2.986   8.270  0.0272 -2.2288  0.0720
 9380SOL     OW34231   6.165  10.607   7.873 -0.9359  0.2960 -0.3058
 9380SOL    HW134232   6.207  10.669   7.814 -2.9462 -0.1940 -2.3859
 9380SOL    HW234233   6.110  10.661   7.930 -0.8264  0.6031 -0.4931
 9381SOL     OW34234   0.595   6.317   0.139  0.4456 -0.3392 -0.1569
 9381SOL    HW134235   0.582   6.226   0.109  0.9857 -0.3390 -0.4022
 9381SOL    HW234236   0.521   6.365   0.101  1.0655 -0.3572 -1.4400
 9382SOL     OW34237   2.061   1.402   3.653  0.5114 -0.4023 -0.0539
 9382SOL    HW134238   2.007   1.403   3.574 -1.8414 -0.9390  1.4607
 9382SOL    HW234239   2.008   1.447   3.719  1.4091 -1.9774  1.8219
 9383SOL     OW34240   6.597   0.335   8.765  0.0152  0.6172  0.4898
 9383SOL    HW134241   6.644   0.356   8.846 -0.5392  1.2870  0.6454
 9383SOL    HW234242   6.596   0.239   8.763  0.6708  0.5910  0.8939
 9384SOL     OW34243   4.070   8.349   0.740 -0.4655 -0.3486  0.1594
 9384SOL    HW134244   4.162   8.373   0.732 -0.7156  1.0478  1.0527
 9384SOL    HW234245   4.058   8.276   0.679  1.2847 -0.7430  0.2552
 9385SOL     OW34246   7.246   2.249   8.763 -0.5453 -0.4168  0.1704
 9385SOL    HW134247   7.160   2.278   8.796 -0.1690 -0.2923  1.0785
 9385SOL    HW234248   7.309   2.299   8.815  0.0909 -1.2985  0.2563
 9386SOL     OW34249  10.115   3.755   7.702  0.0599 -0.6729  0.0280
 9386SOL    HW134250  10.035   3.750   7.651 -0.2929 -1.4950  0.6278
 9386SOL    HW234251  10.096   3.705   7.782  0.3557  1.1373  1.2883
 9387SOL     OW34252   9.283   3.406   4.945 -0.0869  0.1645  0.0124
 9387SOL    HW134253   9.269   3.489   4.900 -0.1518 -0.5798 -1.3736
 9387SOL    HW234254   9.376   3.407   4.969 -0.3235  1.0884  0.9870
 9388SOL     OW34255   4.613   9.394   8.503 -0.4502 -0.1168  0.2806
 9388SOL    HW134256   4.663   9.356   8.431  1.5249  1.5053  0.7098
 9388SOL    HW234257   4.582   9.318   8.553 -0.1770 -1.2086 -1.1407
 9389SOL     OW34258   1.939   0.455   6.627  0.8096  0.2228 -0.5148
 9389SOL    HW134259   1.992   0.502   6.690 -0.4890  0.0964  0.7333
 9389SOL    HW234260   1.849   0.486   6.643  0.2432 -0.9696 -1.2300
 9390SOL     OW34261   0.969  10.637   5.803 -0.3660  0.7532 -0.9548
 9390SOL    HW134262   0.890  10.587   5.785 -0.9290  1.7186 -1.2301
 9390SOL    HW234263   0.948  10.726   5.777 -0.0406  1.5434  1.2650
 9391SOL     OW34264   9.878   4.938   7.037 -0.4119 -0.1682  0.3275
 9391SOL    HW134265   9.893   4.850   7.073  1.3797  0.1761  0.4855
 9391SOL    HW234266   9.860   4.992   7.114  1.1813  0.1152  0.5340
 9392SOL     OW34267   6.092   7.000   3.212 -0.2505 -0.0494  0.4999
 9392SOL    HW134268   6.126   7.075   3.163  1.0552 -0.8718  0.0939
 9392SOL    HW234269   6.027   7.037   3.271 -1.0530  1.1464 -1.0530
 9393SOL     OW34270   9.184   8.405   4.744  0.1468  0.4346  0.1760
 9393SOL    HW134271   9.152   8.456   4.669 -1.9499 -0.0871  0.6408
 9393SOL    HW234272   9.156   8.456   4.820  0.0083 -0.3018  0.6224
 9394SOL     OW34273   1.908   6.738   4.701 -0.0676  0.0411 -0.3632
 9394SOL    HW134274   1.919   6.804   4.770 -0.4339 -1.4970  1.2372
 9394SOL    HW234275   1.992   6.739   4.654 -0.3478  2.1894 -0.9519
 9395SOL     OW34276   5.401   9.798   9.440 -0.4072 -0.4173  0.2561
 9395SOL    HW134277   5.329   9.856   9.417 -2.3054 -2.4819  0.6450
 9395SOL    HW234278   5.473   9.825   9.383 -1.8159  1.0262 -0.9236
 9396SOL     OW34279   3.463  10.810   9.637  0.6306  0.6664 -0.3113
 9396SOL    HW134280   3.425  10.725   9.662  2.9627 -0.4088 -0.0825
 9396SOL    HW234281   3.402  10.846   9.574 -1.5023 -0.1888  1.1356
 9397SOL     OW34282   0.776   7.381   5.626  0.2182 -0.0716 -0.6168
 9397SOL    HW134283   0.866   7.358   5.652  0.7649 -3.2462 -4.3831
 9397SOL    HW234284   0.722   7.311   5.664 -0.5614  1.1239  0.5626
 9398SOL     OW34285   5.006   8.723   3.451  0.5137 -0.6002 -0.0502
 9398SOL    HW134286   5.000   8.648   3.510  1.1617 -0.6907 -0.0931
 9398SOL    HW234287   5.037   8.687   3.368 -0.6778 -0.5233 -0.5593
 9399SOL     OW34288   1.580   4.978   1.730  0.3747 -0.2680  0.0942
 9399SOL    HW134289   1.521   4.924   1.783  0.1204 -0.4868 -0.4093
 9399SOL    HW234290   1.552   4.963   1.640 -0.7799  1.9479  0.0211
 9400SOL     OW34291   4.207   4.087   1.939 -0.1084 -0.1637  0.4163
 9400SOL    HW134292   4.194   4.176   1.907 -2.1786 -0.3267  0.6479
 9400SOL    HW234293   4.147   4.034   1.887  0.6487 -1.3363  0.7021
 9401SOL     OW34294   7.511   0.723   3.072  0.6284 -0.5349 -0.1551
 9401SOL    HW134295   7.420   0.752   3.081  0.3243 -0.6614 -2.3618
 9401SOL    HW234296   7.505   0.631   3.049  1.3224 -0.5334 -0.3762
 9402SOL     OW34297   4.729   6.470   7.309  0.6049 -0.2757 -0.4661
 9402SOL    HW134298   4.749   6.499   7.220  1.4270  1.5127  0.2657
 9402SOL    HW234299   4.643   6.507   7.328  1.8826  2.3757  0.6637
 9403SOL     OW34300   5.076   5.186   6.924 -0.2952  0.0988 -0.1425
 9403SOL    HW134301   5.045   5.234   6.848  0.2169  0.7711  0.0622
 9403SOL    HW234302   5.167   5.215   6.935 -0.0789 -0.6791  0.1750
 9404SOL     OW34303   1.775   3.937   1.839 -0.1022  0.0018 -0.2424
 9404SOL    HW134304   1.781   3.949   1.934 -1.4342 -0.3228 -0.0940
 9404SOL    HW234305   1.683   3.918   1.824  0.6770 -3.9307 -1.1446
 9405SOL     OW34306   6.223  10.428   3.713  0.3726  0.1777 -1.0692
 9405SOL    HW134307   6.227  10.513   3.757  1.0967 -0.3338 -0.1094
 9405SOL    HW234308   6.153  10.380   3.758  1.2200 -0.4048 -0.3511
 9406SOL     OW34309   5.695   1.369   8.373 -0.0567 -0.4555 -0.1488
 9406SOL    HW134310   5.655   1.447   8.336 -0.0234  0.7584  2.1553
 9406SOL    HW234311   5.658   1.296   8.323 -1.0646  0.9542 -1.5357
 9407SOL     OW34312   0.029   1.286  10.278 -0.5623 -0.1629 -0.1070
 9407SOL    HW134313   0.118   1.320  10.263  0.3550 -2.6602 -0.8121
 9407SOL    HW234314  -0.016   1.300  10.195 -0.4300 -0.0648 -0.1631
 9408SOL     OW34315   7.660   3.117  10.716 -0.0271  0.3973  0.2970
 9408SOL    HW134316   7.607   3.184  10.759 -0.9171  0.2171 -0.4721
 9408SOL    HW234317   7.636   3.035  10.760  0.3327  0.4464  0.5866
 9409SOL     OW34318  10.802   7.621   0.883  0.1100 -0.1698  0.1096
 9409SOL    HW134319  10.794   7.698   0.827 -0.5306 -1.5792 -1.8147
 9409SOL    HW234320  10.712   7.597   0.905  0.0448 -2.2172 -2.0242
 9410SOL     OW34321   9.221   9.382   6.305  0.0621 -0.4723  0.4231
 9410SOL    HW134322   9.176   9.398   6.387 -0.7978 -0.7267  0.0081
 9410SOL    HW234323   9.202   9.291   6.284  1.1103 -0.7097  0.4386
 9411SOL     OW34324   6.760   9.259   4.131 -0.2419 -0.1005  0.0064
 9411SOL    HW134325   6.675   9.303   4.141 -1.5875 -2.7350  1.3798
 9411SOL    HW234326   6.761   9.228   4.041 -0.8928 -0.2545  0.0451
 9412SOL     OW34327   9.589   2.953   9.265  0.0287 -0.1126 -0.6219
 9412SOL    HW134328   9.622   2.929   9.178 -0.3993  1.4884 -1.2524
 9412SOL    HW234329   9.534   2.879   9.291  2.0021 -1.6848 -0.6623
 9413SOL     OW34330   3.419   7.027   8.926  0.0797  0.3769  0.0893
 9413SOL    HW134331   3.388   7.067   9.008 -1.0507 -0.9491  0.3465
 9413SOL    HW234332   3.472   6.952   8.955 -0.4411 -0.1807 -0.3807
 9414SOL     OW34333   0.214   2.591   4.337  0.0999  0.5532  0.0157
 9414SOL    HW134334   0.194   2.498   4.333  3.9470 -0.4384  0.3341
 9414SOL    HW234335   0.190   2.625   4.251 -0.6818 -0.8411 -0.3431
 9415SOL     OW34336   7.302   2.220   7.898  0.2333  0.1345  0.1023
 9415SOL    HW134337   7.221   2.201   7.945  0.5119 -0.9016  0.2036
 9415SOL    HW234338   7.356   2.268   7.961  0.1835 -0.2864  0.4712
 9416SOL     OW34339   4.017   4.704   4.092  0.4144  1.1985  0.7872
 9416SOL    HW134340   4.088   4.757   4.128  0.1636  0.6962  2.0776
 9416SOL    HW234341   4.014   4.627   4.148  0.5084 -0.0115 -0.8236
 9417SOL     OW34342   5.471   9.244   0.444  0.2555 -0.0743 -0.3072
 9417SOL    HW134343   5.432   9.170   0.489  0.3070  0.2082  0.2062
 9417SOL    HW234344   5.545   9.269   0.498  0.8451 -0.2765 -1.0048
 9418SOL     OW34345   5.563   9.597   2.885  0.0278 -0.4454  0.2008
 9418SOL    HW134346   5.481   9.557   2.913  0.4656 -0.9211  0.8430
 9418SOL    HW234347   5.537   9.665   2.823 -0.7230 -1.7930 -0.9990
 9419SOL     OW34348   8.303   7.265   0.563 -0.2949  0.0173  0.2271
 9419SOL    HW134349   8.271   7.256   0.473  2.8462 -0.2670 -1.0005
 9419SOL    HW234350   8.325   7.358   0.571  1.7741 -0.3715 -0.2841
 9420SOL     OW34351   1.932   4.128   9.891 -0.2383 -0.4021  0.8098
 9420SOL    HW134352   1.880   4.181   9.829  3.7151  0.6081 -2.1014
 9420SOL    HW234353   1.936   4.182   9.970 -0.2612  1.4350 -0.3698
 9421SOL     OW34354   9.650  10.350   7.354 -0.1175 -0.4233  0.1006
 9421SOL    HW134355   9.629  10.414   7.285 -1.1535 -0.3758  0.4446
 9421SOL    HW234356   9.715  10.293   7.314  0.2761  0.3969 -0.4695
 9422SOL     OW34357   8.107   1.000   9.702 -0.3598  0.3454  0.0950
 9422SOL    HW134358   8.068   1.030   9.784 -0.0250  1.2101 -0.0546
 9422SOL    HW234359   8.046   1.028   9.634 -1.5980 -1.9886  0.1383
 9423SOL     OW34360   2.101   7.846   1.552  0.0085  0.5601 -0.5602
 9423SOL    HW134361   2.114   7.757   1.519 -2.6816  0.4399 -1.5709
 9423SOL    HW234362   2.096   7.836   1.647 -0.2775 -0.3768 -0.6657
 9424SOL     OW34363   9.216   5.664   6.051 -0.0688  0.3120  0.2375
 9424SOL    HW134364   9.203   5.751   6.090  1.5771  0.0954  1.3817
 9424SOL    HW234365   9.215   5.680   5.957  0.5620  1.6577  0.4272
 9425SOL     OW34366   3.132   2.116   8.414 -0.0159 -0.3025  0.4219
 9425SOL    HW134367   3.074   2.041   8.401 -1.2229  0.4681  1.1857
 9425SOL    HW234368   3.213   2.092   8.368 -1.1353 -1.1569 -1.1763
 9426SOL     OW34369   1.230   2.636   0.299 -1.0708  0.0545  0.3025
 9426SOL    HW134370   1.187   2.624   0.384 -0.2240 -2.2211  0.4991
 9426SOL    HW234371   1.166   2.602   0.236 -0.5061 -1.2355  0.3844
 9427SOL     OW34372   6.739   9.178   7.607  0.3249  0.1185  0.0991
 9427SOL    HW134373   6.770   9.087   7.604 -2.2731 -0.9034  0.8340
 9427SOL    HW234374   6.698   9.186   7.693  0.0756  1.8397 -0.1472
 9428SOL     OW34375   3.391   4.351  10.334  0.0842  0.0631  0.7820
 9428SOL    HW134376   3.300   4.355  10.303  0.5053 -0.0449 -0.5176
 9428SOL    HW234377   3.435   4.422  10.286  0.9948 -0.8071  0.3005
 9429SOL     OW34378   1.477   3.579  10.445  0.3075 -0.0611  0.3550
 9429SOL    HW134379   1.468   3.542  10.533  0.7666  0.1482  0.4910
 9429SOL    HW234380   1.571   3.592  10.434  0.6436 -2.8831 -1.3093
 9430SOL     OW34381   6.314   6.251   6.683  0.5522  0.3728 -0.1397
 9430SOL    HW134382   6.404   6.246   6.651  0.6896  0.3220  0.2456
 9430SOL    HW234383   6.320   6.304   6.762  0.1378  0.9453 -0.4846
 9431SOL     OW34384   1.475   3.197   3.202 -0.1836  0.1295 -0.6253
 9431SOL    HW134385   1.469   3.277   3.255 -0.9196 -0.5583  0.3484
 9431SOL    HW234386   1.396   3.148   3.222 -0.6104 -0.0566 -2.5660
 9432SOL     OW34387   3.985  10.207   6.433 -0.1017  0.4150  0.0186
 9432SOL    HW134388   3.900  10.222   6.475 -1.0203  0.9248 -1.8690
 9432SOL    HW234389   4.020  10.295   6.418 -1.2392  0.5070 -2.8905
 9433SOL     OW34390   7.067   2.112  10.264  0.3650  0.3900  0.1120
 9433SOL    HW134391   7.120   2.053  10.210 -0.9230 -2.0771  1.3893
 9433SOL    HW234392   7.030   2.057  10.333 -0.0674  2.9272  2.0883
 9434SOL     OW34393   7.559   6.768   4.639 -0.0343  0.5813  0.2120
 9434SOL    HW134394   7.636   6.762   4.583 -0.1957  0.9882 -0.0555
 9434SOL    HW234395   7.586   6.728   4.722 -0.3114 -1.5627 -0.6812
 9435SOL     OW34396   8.560   1.683  10.851 -0.2998  0.4808  0.3718
 9435SOL    HW134397   8.631   1.745  10.870 -0.8087  1.0897  0.2993
 9435SOL    HW234398   8.532   1.651  10.936  1.3047 -1.2054  0.3407
 9436SOL     OW34399   5.401   5.724   0.234 -0.0889  0.4680 -0.7790
 9436SOL    HW134400   5.388   5.634   0.203  0.0197  0.3226 -0.4017
 9436SOL    HW234401   5.383   5.778   0.157 -0.5837  0.1489 -0.8917
 9437SOL     OW34402   5.399   5.008   4.544  0.4343  0.0169 -0.1240
 9437SOL    HW134403   5.431   5.097   4.533  0.7634 -0.2575 -1.7358
 9437SOL    HW234404   5.306   5.017   4.563  0.6842  0.7181  0.8069
 9438SOL     OW34405   7.867   0.800   8.558  0.1798 -0.7503  0.1537
 9438SOL    HW134406   7.959   0.815   8.535 -0.1235  0.9006 -0.1054
 9438SOL    HW234407   7.869   0.722   8.613  1.7519 -0.7201  0.1991
 9439SOL     OW34408   7.436   8.042   9.387  0.2705 -0.1689 -0.1342
 9439SOL    HW134409   7.412   7.989   9.464 -0.4325  0.0264 -0.2090
 9439SOL    HW234410   7.415   7.986   9.313 -1.8307  0.6960 -0.2642
 9440SOL     OW34411   2.115   9.991   8.613 -0.3171  0.2425  0.2470
 9440SOL    HW134412   2.126  10.001   8.707 -1.1975  0.3570  0.3476
 9440SOL    HW234413   2.039   9.933   8.603 -0.0763  0.0231 -0.3867
 9441SOL     OW34414   9.178   3.190   6.759 -0.0095  0.6032 -0.1525
 9441SOL    HW134415   9.083   3.179   6.764  0.0580 -1.1368 -1.7097
 9441SOL    HW234416   9.198   3.184   6.666  1.5223  2.4361 -0.0135
 9442SOL     OW34417   5.483  10.155   9.470  0.4183  0.2014 -0.2516
 9442SOL    HW134418   5.409  10.211   9.446  0.2828 -0.1756 -0.7274
 9442SOL    HW234419   5.524  10.134   9.386 -0.0680 -1.1619 -0.1685
 9443SOL     OW34420   1.568   2.376   5.041 -0.5150  0.0284  0.0544
 9443SOL    HW134421   1.507   2.432   5.090 -0.8795  0.5770 -0.9960
 9443SOL    HW234422   1.606   2.318   5.107 -1.8008  0.0137  0.8199
 9444SOL     OW34423   1.858   4.747   8.485 -0.2871  0.2270 -0.2248
 9444SOL    HW134424   1.935   4.691   8.473  0.2817  1.3508 -2.2284
 9444SOL    HW234425   1.884   4.810   8.551  1.5312  2.1524 -2.5985
 9445SOL     OW34426   2.279   8.912   6.689 -0.7387 -0.5666 -0.0684
 9445SOL    HW134427   2.239   8.903   6.775  1.0869 -1.3997  0.7596
 9445SOL    HW234428   2.372   8.897   6.705  0.4453  3.9537 -1.4108
 9446SOL     OW34429   9.774   1.923   3.537 -0.1821  0.2529 -0.0858
 9446SOL    HW134430   9.765   1.998   3.477 -2.7032  1.1310  1.2137
 9446SOL    HW234431   9.766   1.846   3.480 -1.0918  1.0367 -1.0647
 9447SOL     OW34432   0.933   9.067   7.877  0.2935  0.4372  0.0956
 9447SOL    HW134433   0.888   8.994   7.834  1.6670  1.2892 -3.0410
 9447SOL    HW234434   0.872   9.141   7.868 -0.4143  0.1222  1.8545
 9448SOL     OW34435   8.472   3.603   8.717 -0.8264  0.5270  0.2463
 9448SOL    HW134436   8.506   3.640   8.798  0.1864 -0.9290  0.5409
 9448SOL    HW234437   8.504   3.661   8.648 -0.8784  1.2463  0.8231
 9449SOL     OW34438   2.245   1.091   1.363  0.2885  0.0342  0.2955
 9449SOL    HW134439   2.221   1.018   1.306 -0.7678 -1.1574  2.1456
 9449SOL    HW234440   2.195   1.165   1.329 -0.1427 -0.5842 -0.4712
 9450SOL     OW34441   3.149   7.087   1.290 -0.0289  0.0339  0.3485
 9450SOL    HW134442   3.148   7.034   1.211  0.6227  0.5114  0.0155
 9450SOL    HW234443   3.061   7.125   1.295 -0.9812 -2.1208  1.3287
 9451SOL     OW34444   1.280   3.156   6.238 -0.3718  0.0817  0.0189
 9451SOL    HW134445   1.248   3.135   6.325  0.5806 -0.6385  0.2151
 9451SOL    HW234446   1.203   3.150   6.182 -0.7020 -1.0904  0.5596
 9452SOL     OW34447   7.694   6.584   5.803 -0.1119  0.5982 -0.5267
 9452SOL    HW134448   7.701   6.488   5.802 -0.3570  0.5795 -2.2233
 9452SOL    HW234449   7.783   6.615   5.820 -0.4508  0.1062  3.0571
 9453SOL     OW34450   4.979   8.692   8.896  0.1892 -0.1348  0.3218
 9453SOL    HW134451   5.030   8.648   8.964  2.3022 -0.1276 -1.1429
 9453SOL    HW234452   5.026   8.774   8.880 -1.4457  0.8331  0.2558
 9454SOL     OW34453  10.883   2.351   6.077  0.1895  0.2087 -0.3596
 9454SOL    HW134454  10.905   2.258   6.076  0.6781  0.2971  0.5340
 9454SOL    HW234455  10.854   2.370   5.988 -0.7339 -0.9836 -0.3451
 9455SOL     OW34456   3.006   1.724   6.631 -0.1483 -0.3790  0.0998
 9455SOL    HW134457   3.009   1.664   6.706  1.9568  0.3376  0.6605
 9455SOL    HW234458   3.069   1.687   6.568 -1.5157 -0.6936 -1.1259
 9456SOL     OW34459   8.688   0.422   5.612  0.1854  0.3011 -0.4030
 9456SOL    HW134460   8.733   0.462   5.686  1.3462 -1.0681 -0.3304
 9456SOL    HW234461   8.754   0.418   5.542  0.7235 -2.9751  0.1331
 9457SOL     OW34462   2.855  10.082   7.092  0.5518 -0.0035  0.1666
 9457SOL    HW134463   2.898  10.018   7.149  3.0348  1.1361 -0.2687
 9457SOL    HW234464   2.842  10.037   7.009  0.7418 -0.4518  0.3787
 9458SOL     OW34465   9.564   2.168   6.001 -0.7241 -0.2494 -0.4690
 9458SOL    HW134466   9.649   2.209   5.987  0.7028 -2.8367  0.0705
 9458SOL    HW234467   9.518   2.227   6.061  0.7260  1.1231 -0.6570
 9459SOL     OW34468   3.673   8.019   7.149 -0.0338  0.2413 -0.3650
 9459SOL    HW134469   3.649   7.928   7.131 -0.5557  0.7980 -3.0156
 9459SOL    HW234470   3.752   8.033   7.096  1.2187  0.8302  1.5588
 9460SOL     OW34471   5.717   4.821   7.323  0.2671  0.6127  0.1372
 9460SOL    HW134472   5.675   4.738   7.342  0.4309  0.4800 -0.0852
 9460SOL    HW234473   5.658   4.866   7.263  0.4221  0.4477 -0.1361
 9461SOL     OW34474   3.245   3.477   4.527 -0.0980 -0.5343 -0.1809
 9461SOL    HW134475   3.281   3.476   4.438 -0.9024  0.0468 -0.5238
 9461SOL    HW234476   3.151   3.466   4.515 -0.0880 -1.7188  0.6844
 9462SOL     OW34477   8.864   2.848   6.801 -0.1891 -0.0011  0.0724
 9462SOL    HW134478   8.895   2.767   6.759  1.1827 -0.6773  2.1879
 9462SOL    HW234479   8.792   2.877   6.746 -0.4303 -2.4186 -1.0523
 9463SOL     OW34480   4.258  10.430   8.122 -0.2859  0.0541 -0.7843
 9463SOL    HW134481   4.291  10.480   8.047  0.4121 -0.5830 -0.9204
 9463SOL    HW234482   4.316  10.354   8.126  0.7290  0.8721  1.4017
 9464SOL     OW34483   5.042   0.405   5.972  0.0246 -0.3829 -0.5904
 9464SOL    HW134484   5.030   0.335   6.035  0.1812  0.0746 -0.0423
 9464SOL    HW234485   5.046   0.361   5.887 -0.7596 -0.9532 -0.3399
 9465SOL     OW34486   5.342   2.561   4.170  0.5122 -0.1109  0.4127
 9465SOL    HW134487   5.298   2.505   4.234 -0.2412 -0.5337 -0.4486
 9465SOL    HW234488   5.427   2.520   4.157 -0.0450 -1.0922 -0.2326
 9466SOL     OW34489   7.690  10.282   3.834 -0.1175  0.2508  0.1759
 9466SOL    HW134490   7.719  10.363   3.876 -0.4389  0.3901  0.1270
 9466SOL    HW234491   7.696  10.216   3.903 -0.3364  0.4152  0.3521
 9467SOL     OW34492   5.985   6.089   0.758  0.0750 -0.6589 -0.1626
 9467SOL    HW134493   5.917   6.046   0.706  0.5378 -2.1184  0.3809
 9467SOL    HW234494   6.011   6.022   0.822  0.7825  0.4742  0.7717
 9468SOL     OW34495   3.495   2.948   0.396 -0.4366  0.3869 -0.0205
 9468SOL    HW134496   3.536   3.011   0.337  1.0293 -0.1355  0.3921
 9468SOL    HW234497   3.439   3.001   0.453 -1.1167  1.0109 -1.2213
 9469SOL     OW34498   7.390   7.340   2.748 -0.0792 -0.4842 -0.5646
 9469SOL    HW134499   7.329   7.342   2.822 -0.9037 -2.9623 -1.0612
 9469SOL    HW234500   7.473   7.372   2.784 -1.3487  1.9870  0.4024
 9470SOL     OW34501   0.791   1.784   4.462 -0.3284  0.0178 -0.0998
 9470SOL    HW134502   0.731   1.739   4.522 -1.5969 -1.5104 -2.3787
 9470SOL    HW234503   0.820   1.717   4.401  1.8468  1.2652 -0.5538
 9471SOL     OW34504   5.555   7.263   3.300  0.5397  0.5056  0.1661
 9471SOL    HW134505   5.474   7.219   3.277  0.8155  0.6786 -1.1950
 9471SOL    HW234506   5.528   7.334   3.359  0.0215 -1.0051  1.8351
 9472SOL     OW34507   7.456   4.148   9.414 -0.0270  0.0877 -0.2235
 9472SOL    HW134508   7.450   4.185   9.502  1.6024 -0.7504  0.2846
 9472SOL    HW234509   7.471   4.054   9.428  2.0720  0.1905 -1.3054
 9473SOL     OW34510   4.249   3.784   7.595  0.0886  0.0020  0.7454
 9473SOL    HW134511   4.232   3.826   7.679  0.1808  0.9710  0.2898
 9473SOL    HW234512   4.186   3.712   7.591 -1.0775  1.0004  0.8930
 9474SOL     OW34513   9.742   4.466   5.710 -0.2550 -0.0464  0.4515
 9474SOL    HW134514   9.665   4.505   5.669  0.0024  0.3282  0.3194
 9474SOL    HW234515   9.720   4.373   5.718 -1.0578  0.1926  1.1893
 9475SOL     OW34516   6.881  10.153  10.387  0.3841 -0.1217 -0.1040
 9475SOL    HW134517   6.857  10.061  10.402 -1.8110  0.3969 -0.1457
 9475SOL    HW234518   6.833  10.202  10.453 -0.9446  1.2397 -1.9759
 9476SOL     OW34519   3.900   6.131   7.813 -0.0509 -0.1568 -0.2244
 9476SOL    HW134520   3.952   6.181   7.750  1.0913  0.0252  0.8165
 9476SOL    HW234521   3.956   6.125   7.891 -0.7360 -1.8422  0.1788
 9477SOL     OW34522   3.728   5.817   7.359  0.0442  0.3251 -0.0119
 9477SOL    HW134523   3.740   5.762   7.437 -1.0013 -1.1551 -0.8414
 9477SOL    HW234524   3.726   5.906   7.393 -2.5489 -0.3642  2.0239
 9478SOL     OW34525   3.700   5.831   9.135  0.0445 -0.1291  0.1911
 9478SOL    HW134526   3.711   5.743   9.171  0.9080  0.0711  0.4279
 9478SOL    HW234527   3.788   5.859   9.110 -0.3234  0.3661 -0.6169
 9479SOL     OW34528   5.301   9.676   7.994 -0.2871  0.1086  0.9425
 9479SOL    HW134529   5.207   9.694   8.000 -0.0641  1.0484  1.9575
 9479SOL    HW234530   5.341   9.744   8.049  0.8265 -1.7055  2.4600
 9480SOL     OW34531   2.444   8.505  10.431 -0.1146  0.3367 -0.1059
 9480SOL    HW134532   2.518   8.455  10.466 -1.9646 -2.4000  0.2234
 9480SOL    HW234533   2.460   8.508  10.337  0.1911 -0.6725 -0.0981
 9481SOL     OW34534   9.717   7.358   6.142  0.3025  0.6239  0.6440
 9481SOL    HW134535   9.786   7.324   6.199  0.9724  0.3742 -0.2864
 9481SOL    HW234536   9.763   7.413   6.079 -0.2215 -0.2478 -0.5347
 9482SOL     OW34537   8.531   9.003   3.425 -0.1728 -0.2711  0.2120
 9482SOL    HW134538   8.550   8.922   3.378  1.7501  0.5885 -0.6263
 9482SOL    HW234539   8.448   8.987   3.469 -0.4765 -2.2322 -0.9628
 9483SOL     OW34540   9.818   8.584  10.757  0.6401 -0.2539  1.0164
 9483SOL    HW134541   9.822   8.679  10.762  2.4099 -0.2190 -0.0593
 9483SOL    HW234542   9.871   8.554  10.831  1.9696 -0.3186  0.0765
 9484SOL     OW34543   5.091   3.103   0.866  0.5220 -0.0285 -0.4523
 9484SOL    HW134544   4.997   3.092   0.878  0.5172 -0.0360 -0.4974
 9484SOL    HW234545   5.121   3.146   0.947  0.3671  0.6177 -0.7351
 9485SOL     OW34546   5.575   6.034   2.300  0.4533 -0.7740  0.1936
 9485SOL    HW134547   5.522   6.032   2.221 -1.5324  0.9274  1.3852
 9485SOL    HW234548   5.626   6.115   2.293 -0.0643 -0.3788  0.8142
 9486SOL     OW34549  10.294   3.731   4.705 -0.3787  0.1196  0.2929
 9486SOL    HW134550  10.218   3.735   4.647 -1.8860 -1.5329  2.0204
 9486SOL    HW234551  10.369   3.748   4.648 -1.8683 -0.2213 -1.8704
 9487SOL     OW34552   7.297   3.690   2.060  0.2764 -0.3838 -0.2180
 9487SOL    HW134553   7.239   3.616   2.072  1.8862 -1.6782 -0.0729
 9487SOL    HW234554   7.383   3.651   2.044  1.0672  1.4464 -0.7271
 9488SOL     OW34555   3.970   3.649   7.124 -0.3651 -0.5777  0.4490
 9488SOL    HW134556   3.889   3.636   7.074  0.0250 -2.9896  0.3078
 9488SOL    HW234557   3.989   3.563   7.161  3.5221 -0.8542 -1.6708
 9489SOL     OW34558   7.941   0.280   8.823 -0.0337  0.6843  0.0477
 9489SOL    HW134559   7.915   0.269   8.731 -0.2441  1.6795 -0.0268
 9489SOL    HW234560   7.863   0.317   8.865 -0.9064 -2.2449  1.2626
 9490SOL     OW34561   9.279   3.865   6.453  0.0956 -0.2662  0.0150
 9490SOL    HW134562   9.191   3.903   6.460  0.3544  0.5058 -0.7304
 9490SOL    HW234563   9.268   3.789   6.396 -0.1501 -0.3699  0.1995
 9491SOL     OW34564   9.868   4.802   9.697 -0.1423  0.0816  0.7381
 9491SOL    HW134565   9.891   4.808   9.790 -0.4824 -1.8525  0.9853
 9491SOL    HW234566   9.818   4.720   9.690  1.8364 -1.0534 -1.5209
 9492SOL     OW34567   4.937   9.319   8.282 -0.3847  0.2693  0.2317
 9492SOL    HW134568   4.930   9.413   8.264 -1.7101  0.3676  1.1922
 9492SOL    HW234569   4.848   9.290   8.299  0.0897 -1.0396  0.6333
 9493SOL     OW34570   8.895   6.717   4.271  0.4620 -0.2648 -0.1371
 9493SOL    HW134571   8.990   6.705   4.260  0.5563  0.0509  0.3123
 9493SOL    HW234572   8.856   6.663   4.202  0.9940  0.2873 -0.8827
 9494SOL     OW34573   5.664   6.326   9.295 -0.3862 -0.5296 -0.6562
 9494SOL    HW134574   5.743   6.380   9.283  0.0028 -0.9535 -0.0998
 9494SOL    HW234575   5.698   6.238   9.313 -0.8168 -0.0677  3.2526
 9495SOL     OW34576   7.127   9.030   9.203 -0.6735 -0.2519 -0.0073
 9495SOL    HW134577   7.045   9.048   9.158 -0.5296  1.0729  0.2150
 9495SOL    HW234578   7.118   9.072   9.289  0.1092 -0.3683  0.1429
 9496SOL     OW34579   2.410   3.450   3.636 -0.3609 -0.6558  0.0828
 9496SOL    HW134580   2.424   3.475   3.545  0.3827 -0.0123  0.3547
 9496SOL    HW234581   2.368   3.527   3.675  1.0925 -0.1488  0.7192
 9497SOL     OW34582   5.553   7.321   0.281 -0.3991  0.0391 -0.2835
 9497SOL    HW134583   5.581   7.273   0.359  0.5757 -0.5155 -0.9573
 9497SOL    HW234584   5.625   7.381   0.262 -1.1994  1.1212 -0.0026
 9498SOL     OW34585   1.986   3.968   5.882  0.0304 -0.4986 -0.1800
 9498SOL    HW134586   1.956   3.882   5.910  0.4066 -0.4445  0.4084
 9498SOL    HW234587   2.066   3.951   5.833  1.0215 -0.3782  1.3312
 9499SOL     OW34588   6.182   3.591   3.524  0.2077 -0.6131  0.4038
 9499SOL    HW134589   6.143   3.533   3.590  0.3345  0.3598  1.3656
 9499SOL    HW234590   6.108   3.619   3.470 -0.1377 -0.3348  0.9999
 9500SOL     OW34591   1.461   5.428   6.392 -0.2585  0.1989  0.0239
 9500SOL    HW134592   1.375   5.398   6.422  0.1370  0.2671  1.2906
 9500SOL    HW234593   1.505   5.349   6.362 -0.5203  0.0587  0.0085
 9501SOL     OW34594   4.184   1.656   1.977 -0.1944  0.1598 -0.1077
 9501SOL    HW134595   4.231   1.645   2.060  1.1607 -2.5227 -1.0919
 9501SOL    HW234596   4.092   1.641   1.999 -0.1365  1.5161  1.2006
 9502SOL     OW34597   5.792   3.285   8.111 -0.7191 -0.1255 -0.4132
 9502SOL    HW134598   5.714   3.232   8.092  0.0614 -1.9418  1.1385
 9502SOL    HW234599   5.758   3.363   8.155 -1.7199 -0.4898 -0.5065
 9503SOL     OW34600   2.379   0.198   7.988  0.1486 -0.8305  0.3763
 9503SOL    HW134601   2.410   0.285   8.012  0.4493 -0.5174 -1.0384
 9503SOL    HW234602   2.284   0.209   7.975 -0.0244 -1.0138  1.3918
 9504SOL     OW34603   2.808   1.798   9.314  0.5329 -0.2431 -0.7083
 9504SOL    HW134604   2.844   1.710   9.303 -0.1142 -0.9534  1.9902
 9504SOL    HW234605   2.865   1.839   9.379 -2.4890 -0.9694  2.7330
 9505SOL     OW34606   5.915  10.001   9.684 -0.0109 -0.4803 -0.2648
 9505SOL    HW134607   5.933  10.052   9.605  0.7367 -1.0182 -0.4550
 9505SOL    HW234608   5.917  10.066   9.755 -0.4708 -0.0294 -0.6601
 9506SOL     OW34609   2.318   8.958   4.897  0.6072 -0.6441 -0.2462
 9506SOL    HW134610   2.241   8.950   4.954  1.6654 -2.5079  1.0065
 9506SOL    HW234611   2.282   8.970   4.809 -1.1117 -1.4394  0.3118
 9507SOL     OW34612  10.389   9.939   7.507 -0.2504 -0.3194 -0.1266
 9507SOL    HW134613  10.336   9.986   7.571 -0.6367  1.0868 -1.4162
 9507SOL    HW234614  10.369   9.981   7.424 -0.1705 -2.4084 -1.2874
 9508SOL     OW34615   3.792  10.592   1.904 -0.1629  0.0534  0.1441
 9508SOL    HW134616   3.773  10.499   1.904 -0.0922  0.0110  1.7528
 9508SOL    HW234617   3.874  10.600   1.855 -1.2840 -0.4241 -1.9343
 9509SOL     OW34618   0.427   8.586   1.798 -0.0052  0.9317  0.0188
 9509SOL    HW134619   0.381   8.520   1.850  1.9897 -0.2576  0.3524
 9509SOL    HW234620   0.490   8.536   1.746  1.1258  2.5237 -0.2014
 9510SOL     OW34621   3.499   3.934   4.185  0.3446 -0.1852  0.0739
 9510SOL    HW134622   3.443   3.897   4.255  0.9771  0.3095  0.8542
 9510SOL    HW234623   3.439   3.944   4.111 -0.2712 -1.0434  0.4211
 9511SOL     OW34624   3.337   5.633   6.409  0.7359  0.0458 -0.2821
 9511SOL    HW134625   3.347   5.594   6.322  0.9251 -1.7443  0.5082
 9511SOL    HW234626   3.406   5.699   6.413  0.3424  0.5800 -1.6999
 9512SOL     OW34627   0.027   6.699   6.888  0.3922 -0.1132 -0.1104
 9512SOL    HW134628   0.053   6.767   6.826 -0.0022 -0.8792 -1.1500
 9512SOL    HW234629  -0.064   6.719   6.910  1.3805  1.9606  2.7169
 9513SOL     OW34630   3.496   1.353   8.182  0.4261 -0.4021 -0.3865
 9513SOL    HW134631   3.480   1.294   8.256 -1.5718 -0.1112 -0.5196
 9513SOL    HW234632   3.564   1.310   8.130  2.0049 -0.5375  1.6635
 9514SOL     OW34633   0.615   5.887   5.762  0.2657  0.1102 -0.4861
 9514SOL    HW134634   0.679   5.953   5.791 -0.7614  0.5494  0.9044
 9514SOL    HW234635   0.647   5.858   5.677  2.1229  0.5682  0.0115
 9515SOL     OW34636   2.186  10.703   1.142 -0.2486  0.8205  0.3132
 9515SOL    HW134637   2.139  10.621   1.130 -0.9529  1.0620  1.3058
 9515SOL    HW234638   2.183  10.746   1.057  2.2482 -1.2392 -0.9331
 9516SOL     OW34639   0.999   0.958   4.482  0.0564 -0.3716  0.3206
 9516SOL    HW134640   0.951   0.968   4.400 -0.6438  0.4493  0.8174
 9516SOL    HW234641   0.946   0.897   4.533 -1.3880  1.7363  1.5002
 9517SOL     OW34642   0.901   0.070   6.478  0.0013 -0.0183  0.0252
 9517SOL    HW134643   0.824   0.087   6.531  1.8190 -0.3815  3.0597
 9517SOL    HW234644   0.927  -0.019   6.502  1.2619  0.0229 -1.0562
 9518SOL     OW34645   6.898   0.524   6.624 -0.1466 -0.4033 -0.3697
 9518SOL    HW134646   6.972   0.530   6.685 -0.9973  0.1265  0.6394
 9518SOL    HW234647   6.936   0.486   6.544  0.7491 -2.3753  0.9067
 9519SOL     OW34648   5.860  10.749  10.264 -0.0122 -0.9550 -0.2083
 9519SOL    HW134649   5.816  10.817  10.315 -0.1457 -1.6738  0.6705
 9519SOL    HW234650   5.861  10.782  10.175 -2.2425 -0.8411 -0.2482
 9520SOL     OW34651   3.509   4.261   8.138 -0.4889  0.3685  0.2060
 9520SOL    HW134652   3.591   4.287   8.180 -0.3604  0.3216 -0.0182
 9520SOL    HW234653   3.482   4.338   8.088 -0.2141  0.1424 -0.2944
 9521SOL     OW34654   2.405   3.042   0.642 -0.0388  0.3720  0.1103
 9521SOL    HW134655   2.485   3.038   0.694  0.8667  0.2418 -1.2452
 9521SOL    HW234656   2.430   3.086   0.561 -1.2623  0.0507 -0.4754
 9522SOL     OW34657   8.622   1.115   3.263 -0.2885  0.0274 -0.1069
 9522SOL    HW134658   8.634   1.054   3.190 -1.4898 -0.6194  0.1971
 9522SOL    HW234659   8.587   1.194   3.222 -1.3252 -0.4685 -0.2090
 9523SOL     OW34660   2.988   2.929   3.090  0.2585  0.1041  0.5412
 9523SOL    HW134661   3.025   2.905   3.005 -1.4950 -0.8894 -0.0079
 9523SOL    HW234662   2.929   3.002   3.070  1.8385  1.6722  1.3946
 9524SOL     OW34663   8.876   5.181   3.886 -0.8225  0.1190  0.2944
 9524SOL    HW134664   8.908   5.111   3.829 -0.7985  1.2006 -1.0582
 9524SOL    HW234665   8.951   5.205   3.940 -0.3067  0.3181 -0.4960
 9525SOL     OW34666   0.208   0.647  10.900 -0.0192 -0.6140 -0.1233
 9525SOL    HW134667   0.203   0.556  10.930  1.6800 -0.2737  1.3974
 9525SOL    HW234668   0.287   0.682  10.943 -1.6807  2.1367  0.9394
 9526SOL     OW34669   0.453   9.696   7.774  0.4238 -0.1836 -0.3903
 9526SOL    HW134670   0.452   9.729   7.684 -0.1944  0.4568 -0.1522
 9526SOL    HW234671   0.536   9.729   7.810 -0.0501  0.8878 -0.2470
 9527SOL     OW34672   1.912   3.045   6.319  0.3147 -0.3960  0.8007
 9527SOL    HW134673   1.974   2.977   6.291 -2.4117 -2.5437 -0.5041
 9527SOL    HW234674   1.892   3.094   6.240  0.8974  0.7882  1.3705
 9528SOL     OW34675   8.078   5.083   1.112  0.3588 -0.6324  0.0999
 9528SOL    HW134676   8.075   4.987   1.112 -0.2810 -0.6214 -0.9835
 9528SOL    HW234677   8.024   5.109   1.037  0.3476  0.5841  0.5108
 9529SOL     OW34678   3.877   8.990   3.985 -0.1745  0.8439  0.2668
 9529SOL    HW134679   3.857   9.081   4.006 -3.2606  0.0907  1.1905
 9529SOL    HW234680   3.854   8.942   4.064  2.2815 -0.7240  0.1320
 9530SOL     OW34681   4.811   2.753   2.995  0.1502 -0.0138  0.5429
 9530SOL    HW134682   4.778   2.664   3.007 -0.0138 -0.5063 -2.7628
 9530SOL    HW234683   4.754   2.808   3.050 -0.2417 -1.8223  2.0262
 9531SOL     OW34684  10.233   7.219   4.918  0.9571  0.6613  0.0046
 9531SOL    HW134685  10.304   7.213   4.854  0.9420  1.5411 -0.1216
 9531SOL    HW234686  10.236   7.310   4.947  0.2901  0.5366  0.4748
 9532SOL     OW34687   3.769   1.370   7.605  0.2878 -0.4177 -0.2794
 9532SOL    HW134688   3.853   1.362   7.560 -0.4742  1.2641 -2.1028
 9532SOL    HW234689   3.772   1.301   7.672  2.6822 -1.0580 -0.9344
 9533SOL     OW34690   9.340   1.747  10.915 -0.3973 -0.3056 -0.0168
 9533SOL    HW134691   9.276   1.677  10.900 -1.7144  1.2124 -2.0435
 9533SOL    HW234692   9.291   1.814  10.963 -0.3711  0.8355 -1.5080
 9534SOL     OW34693   7.043   9.663   3.347 -0.4137  0.5091  0.0338
 9534SOL    HW134694   7.036   9.756   3.324 -1.2007  0.8899  1.6075
 9534SOL    HW234695   7.122   9.658   3.401  0.5686 -0.0844 -1.3911
 9535SOL     OW34696   3.152  10.297   9.968 -1.1370 -0.1558  0.3585
 9535SOL    HW134697   3.086  10.232   9.946 -0.4081  0.1796 -3.4423
 9535SOL    HW234698   3.118  10.379   9.932 -0.2672  0.8079  1.6264
 9536SOL     OW34699   5.382   7.198   7.032 -0.0171  0.1318  0.0267
 9536SOL    HW134700   5.411   7.122   7.082 -2.6824 -1.5138 -0.7265
 9536SOL    HW234701   5.316   7.240   7.088 -1.2949 -0.3521 -1.0566
 9537SOL     OW34702   3.905   4.174   6.668 -0.3624 -0.0851 -0.1141
 9537SOL    HW134703   3.919   4.102   6.607  0.0321 -0.1794  0.0832
 9537SOL    HW234704   3.955   4.247   6.632  1.5397 -0.7049  1.1057
 9538SOL     OW34705   7.050   2.020   9.059  0.0391  0.7628  0.0193
 9538SOL    HW134706   7.014   1.972   8.984  1.7420  1.5495 -1.3488
 9538SOL    HW234707   7.049   1.956   9.130 -0.6389 -0.3375 -0.9382
 9539SOL     OW34708   8.052   9.584   9.567 -0.4881 -0.3504  0.4030
 9539SOL    HW134709   8.064   9.503   9.516 -1.2533 -0.3858  0.2715
 9539SOL    HW234710   7.964   9.614   9.544  0.6415  1.8400 -1.4102
 9540SOL     OW34711   1.991   1.011   6.991  0.4118 -0.3916 -0.6579
 9540SOL    HW134712   1.971   0.922   7.020 -1.9701 -0.5037 -2.3937
 9540SOL    HW234713   1.966   1.066   7.065  0.0883 -1.0443 -0.2730
 9541SOL     OW34714   4.060   5.500   6.879  0.1246  0.2367  0.2059
 9541SOL    HW134715   4.082   5.556   6.804  0.3665  0.8195  0.7012
 9541SOL    HW234716   3.990   5.547   6.923 -0.2717 -0.2907  0.1402
 9542SOL     OW34717   9.874   2.408   9.602 -0.1000 -0.1219 -0.3167
 9542SOL    HW134718   9.949   2.466   9.590 -0.3775 -0.0719 -1.9869
 9542SOL    HW234719   9.798   2.467   9.606 -0.2079 -0.2628 -0.2536
 9543SOL     OW34720   5.244   8.653   4.292 -0.9553 -0.1602  0.3360
 9543SOL    HW134721   5.317   8.607   4.333 -1.5034  0.0364  1.5778
 9543SOL    HW234722   5.283   8.697   4.217 -0.1372 -1.4448 -0.0383
 9544SOL     OW34723  10.611   9.716   3.496  0.0671  0.5097 -0.1962
 9544SOL    HW134724  10.533   9.664   3.514 -0.2882  1.3339  0.6917
 9544SOL    HW234725  10.644   9.681   3.413  2.0260 -3.7997  2.0649
 9545SOL     OW34726   8.631  10.500   0.185  0.2369  0.2403 -0.1951
 9545SOL    HW134727   8.622  10.596   0.190 -1.1064  0.1598 -0.6183
 9545SOL    HW234728   8.718  10.486   0.148  0.7508  1.2779  0.5400
 9546SOL     OW34729   4.679   4.873   9.917  0.4969 -0.3644 -0.1698
 9546SOL    HW134730   4.656   4.962   9.940 -0.5156 -0.9052  1.0014
 9546SOL    HW234731   4.739   4.882   9.843 -0.0150  1.2509 -0.4179
 9547SOL     OW34732   5.408   6.431   9.361  0.7201 -0.1794  0.1312
 9547SOL    HW134733   5.496   6.394   9.348  1.5023  0.3244  3.1978
 9547SOL    HW234734   5.415   6.521   9.328  0.8611 -0.6068 -1.0512
 9548SOL     OW34735   2.870   6.567   7.436 -0.0413 -0.1252  0.6850
 9548SOL    HW134736   2.843   6.545   7.525  0.9021 -1.3027  0.7084
 9548SOL    HW234737   2.804   6.629   7.405 -0.0527  0.7764  2.4016
 9549SOL     OW34738   5.947   5.465   5.535 -0.0725 -0.4522  0.1291
 9549SOL    HW134739   5.853   5.468   5.555 -0.5545  0.9450 -1.9500
 9549SOL    HW234740   5.985   5.411   5.605 -2.0544  0.8628  2.4100
 9550SOL     OW34741   6.363   2.173   0.188  0.0929  0.9753  0.3115
 9550SOL    HW134742   6.301   2.101   0.176 -0.8442  1.8405 -0.1886
 9550SOL    HW234743   6.322   2.230   0.254  1.6153  0.2155  1.9802
 9551SOL     OW34744   5.416   2.538   3.472  0.6828  0.0533 -0.3889
 9551SOL    HW134745   5.486   2.546   3.407  0.8104  0.3894 -0.2143
 9551SOL    HW234746   5.342   2.583   3.432  0.1950 -1.3090 -1.0767
 9552SOL     OW34747   5.700   8.757   8.252  0.5994  0.2553  0.5439
 9552SOL    HW134748   5.747   8.714   8.181 -1.2900  1.5350 -1.6529
 9552SOL    HW234749   5.675   8.686   8.311 -0.5916 -1.4377 -1.8168
 9553SOL     OW34750   4.003  10.754   8.749 -0.5851 -0.5378 -0.1278
 9553SOL    HW134751   3.947  10.677   8.742  1.0367 -1.7318 -0.2903
 9553SOL    HW234752   4.015  10.767   8.843 -0.8514 -0.4878 -0.1007
 9554SOL     OW34753   9.140   0.504   4.365  0.2338 -0.8013 -0.2813
 9554SOL    HW134754   9.100   0.591   4.362  1.5542 -0.1694 -0.0662
 9554SOL    HW234755   9.108   0.460   4.286 -2.5055 -1.0845  0.8848
 9555SOL     OW34756   5.213   0.944   2.624 -0.8494 -0.3327 -0.4054
 9555SOL    HW134757   5.309   0.940   2.628 -0.8251  0.8610  1.3342
 9555SOL    HW234758   5.186   0.852   2.616  0.4186 -0.6405 -1.7726
 9556SOL     OW34759   5.212   6.889   7.471 -0.1643  0.0999 -0.2434
 9556SOL    HW134760   5.159   6.969   7.467  1.1394  1.0260  0.4141
 9556SOL    HW234761   5.162   6.829   7.526  0.6826  1.9557  2.7238
 9557SOL     OW34762   6.107   1.821   4.518  0.3331  0.4974  0.0327
 9557SOL    HW134763   6.187   1.823   4.570  0.0259  0.0331  0.5307
 9557SOL    HW234764   6.137   1.806   4.428  0.7094 -1.7905  0.4822
 9558SOL     OW34765   0.530   5.144   8.367  0.2612  0.5828 -0.0284
 9558SOL    HW134766   0.522   5.194   8.286 -0.9729  0.3755 -0.0542
 9558SOL    HW234767   0.497   5.203   8.435  3.4191  1.6492  0.7478
 9559SOL     OW34768   1.365   3.429   2.507 -0.0048  0.0687 -0.2146
 9559SOL    HW134769   1.317   3.459   2.430  2.1868  0.8228 -1.3802
 9559SOL    HW234770   1.412   3.351   2.478 -0.7066 -0.8340  0.9774
 9560SOL     OW34771   6.608   7.676   7.762  0.1632 -0.3604 -0.4945
 9560SOL    HW134772   6.537   7.631   7.807  1.4320 -1.1216  0.8581
 9560SOL    HW234773   6.684   7.666   7.821  2.4661 -3.0168 -3.5601
 9561SOL     OW34774  10.669   6.622   1.573 -0.7186  0.2668 -0.2869
 9561SOL    HW134775  10.759   6.648   1.552 -0.5836  0.4332  0.4633
 9561SOL    HW234776  10.668   6.527   1.564 -1.0009  0.4043 -2.2506
 9562SOL     OW34777   9.185   7.226   9.729  0.4476  0.3051 -0.0940
 9562SOL    HW134778   9.132   7.261   9.658 -0.4726 -1.5711 -0.3995
 9562SOL    HW234779   9.131   7.236   9.807  0.2533 -0.2649 -0.1544
 9563SOL     OW34780   3.428   2.821   2.182 -0.2340 -0.3054 -0.9846
 9563SOL    HW134781   3.436   2.911   2.214 -2.6258  0.4626 -2.3109
 9563SOL    HW234782   3.506   2.777   2.216  0.2639  1.8612  0.9490
 9564SOL     OW34783   7.329   1.507   6.794  0.2716 -0.4352  0.2135
 9564SOL    HW134784   7.361   1.420   6.818 -1.4530 -1.1687  0.0158
 9564SOL    HW234785   7.239   1.509   6.827 -0.1190  0.8130 -0.8563
 9565SOL     OW34786   0.778   2.441   2.647  0.1580  0.1645 -0.5285
 9565SOL    HW134787   0.759   2.360   2.694  0.0504  1.1517  1.2316
 9565SOL    HW234788   0.862   2.424   2.604  0.3299 -0.7660  0.1338
 9566SOL     OW34789   6.637   2.263   1.721 -0.1302 -0.0740  0.0281
 9566SOL    HW134790   6.701   2.314   1.672 -0.0674  0.3930  0.5880
 9566SOL    HW234791   6.557   2.269   1.670  0.1197 -0.1698 -0.3736
 9567SOL     OW34792   8.535   9.886   7.648 -0.4339  0.5965 -0.2078
 9567SOL    HW134793   8.528   9.969   7.694  0.0182 -0.5307  2.0610
 9567SOL    HW234794   8.603   9.900   7.583 -0.0911  1.9077  0.4036
 9568SOL     OW34795   6.064  10.825   1.931 -0.1703  0.5530 -0.0984
 9568SOL    HW134796   6.131  10.868   1.878  0.0845 -0.5212 -0.6737
 9568SOL    HW234797   6.054  10.882   2.008  1.6436  0.5707  0.1775
 9569SOL     OW34798   5.131   6.881   5.304  0.2685  0.3826  0.3793
 9569SOL    HW134799   5.110   6.841   5.220 -0.6611  0.9033  0.3446
 9569SOL    HW234800   5.079   6.832   5.368 -0.6474  1.3004  0.3699
 9570SOL     OW34801   2.273  10.913   5.005  0.0465 -0.3832 -0.3095
 9570SOL    HW134802   2.291  10.882   5.094  0.6974  0.7592 -0.0213
 9570SOL    HW234803   2.331  10.988   4.994 -0.1871 -0.3752 -1.6303
 9571SOL     OW34804  10.658   2.885   6.480 -0.1449 -0.1346 -0.4619
 9571SOL    HW134805  10.564   2.869   6.481 -0.4767  1.6688 -0.6031
 9571SOL    HW234806  10.690   2.833   6.405 -1.2273  0.2369 -1.2106
 9572SOL     OW34807   2.004   8.754   5.148  0.1474  0.5552  0.2033
 9572SOL    HW134808   1.991   8.710   5.231 -0.7193  1.0328  0.3384
 9572SOL    HW234809   1.929   8.813   5.140  1.4902  2.3459  0.2476
 9573SOL     OW34810  10.643  10.367   1.081  0.2130 -0.3443 -0.2915
 9573SOL    HW134811  10.680  10.399   0.999 -0.1262  1.6088  0.2716
 9573SOL    HW234812  10.595  10.442   1.117 -1.4286 -1.7772  0.6602
 9574SOL     OW34813   6.730   5.431   8.750  0.0810 -0.1183  0.2298
 9574SOL    HW134814   6.668   5.456   8.819  1.1056 -0.4498  1.3058
 9574SOL    HW234815   6.779   5.358   8.787  0.8784 -0.0941 -0.7313
 9575SOL     OW34816   3.650   4.461   7.146  0.4251  0.6395  0.3447
 9575SOL    HW134817   3.564   4.419   7.150  0.8271 -0.1657  1.1234
 9575SOL    HW234818   3.680   4.445   7.057  0.7444 -1.1744  0.7291
 9576SOL     OW34819   3.322   9.267   8.628  0.1757  0.4057 -0.2795
 9576SOL    HW134820   3.309   9.174   8.611  0.8296  0.3610 -0.5628
 9576SOL    HW234821   3.265   9.286   8.703 -0.2914 -0.1174 -0.4935
 9577SOL     OW34822   1.141   6.398   6.097  0.0896  0.0754  0.1371
 9577SOL    HW134823   1.111   6.421   6.009 -0.4976 -1.3119 -0.0429
 9577SOL    HW234824   1.061   6.396   6.150  0.3858  0.4635  0.6067
 9578SOL     OW34825   7.184   4.342   8.591 -0.5392 -0.4466 -0.9368
 9578SOL    HW134826   7.277   4.320   8.589 -0.2694  0.4375  0.5438
 9578SOL    HW234827   7.150   4.295   8.667 -0.3944  2.3606  1.0160
 9579SOL     OW34828   2.783   0.888   4.680  0.0973 -0.0246 -0.1063
 9579SOL    HW134829   2.833   0.808   4.664  0.6228  0.3203 -0.2174
 9579SOL    HW234830   2.850   0.954   4.700 -0.4277 -0.0172  1.7591
 9580SOL     OW34831   4.258   0.974   2.849 -0.0046  0.2194 -0.0784
 9580SOL    HW134832   4.191   0.955   2.916 -0.1912  1.8555  0.2436
 9580SOL    HW234833   4.313   0.896   2.848 -1.6074 -0.9696  0.0144
 9581SOL     OW34834   3.678   0.746   8.039 -0.0428 -0.0638 -0.2978
 9581SOL    HW134835   3.595   0.713   8.005  0.7208 -0.6259 -1.6928
 9581SOL    HW234836   3.729   0.667   8.059  0.9166  0.2318 -1.4302
 9582SOL     OW34837   4.589   3.090   5.034  0.4113 -0.1178 -0.2624
 9582SOL    HW134838   4.645   3.114   5.108  1.9249  0.0449 -1.4007
 9582SOL    HW234839   4.506   3.064   5.074  0.7382  1.2167  1.3951
 9583SOL     OW34840   9.842   3.445   5.399 -0.4948 -0.7571  0.0159
 9583SOL    HW134841   9.884   3.425   5.316 -0.5924  1.7409 -0.7194
 9583SOL    HW234842   9.750   3.458   5.377 -0.5279 -0.1106  0.4964
 9584SOL     OW34843   8.766   7.530   5.731 -0.0974  0.1190  0.0557
 9584SOL    HW134844   8.705   7.604   5.725  0.9727  1.2253  1.9082
 9584SOL    HW234845   8.821   7.538   5.654 -0.0946  1.1900  0.1483
 9585SOL     OW34846   1.405   3.095   1.918 -0.0518 -0.6877  0.2423
 9585SOL    HW134847   1.482   3.133   1.960  0.0775 -2.2327  1.5286
 9585SOL    HW234848   1.414   3.001   1.933 -0.5736 -1.2359 -2.3953
 9586SOL     OW34849   7.721   8.972   9.472  0.2851 -0.1991 -0.0965
 9586SOL    HW134850   7.634   9.011   9.470 -0.5628 -1.8097 -3.8141
 9586SOL    HW234851   7.780   9.044   9.493 -1.8067  1.1479  1.5292
 9587SOL     OW34852   5.977   8.300   3.218 -0.8752  0.5251 -0.0612
 9587SOL    HW134853   5.916   8.262   3.281  1.4740 -1.2603  1.3130
 9587SOL    HW234854   5.947   8.267   3.133 -1.1694 -1.3501  0.7065
 9588SOL     OW34855   3.779   6.487   2.269 -0.0231 -0.6606 -0.1643
 9588SOL    HW134856   3.838   6.472   2.194 -0.8033  0.5154 -1.0410
 9588SOL    HW234857   3.729   6.406   2.276  0.2372 -0.8811 -0.7503
 9589SOL     OW34858   9.458   4.450   1.727  0.0270  0.3813 -1.0512
 9589SOL    HW134859   9.434   4.515   1.793  2.0400  0.2456 -0.1111
 9589SOL    HW234860   9.478   4.371   1.777  0.5555 -0.0530 -1.9195
 9590SOL     OW34861   7.821   3.395   0.636 -0.0544  0.2640  0.1869
 9590SOL    HW134862   7.891   3.340   0.600 -0.6196 -1.0899  1.1016
 9590SOL    HW234863   7.851   3.417   0.724  0.7731  2.5839 -0.6037
 9591SOL     OW34864   0.426   0.522   1.043  0.3316 -0.3181  0.0138
 9591SOL    HW134865   0.400   0.433   1.069  0.1654 -0.1942  0.2777
 9591SOL    HW234866   0.453   0.564   1.124  1.5506 -0.4982 -0.2884
 9592SOL     OW34867   0.267   3.370  10.404 -0.2085 -0.3326 -0.0517
 9592SOL    HW134868   0.313   3.449  10.433  0.7753 -0.6406 -0.6916
 9592SOL    HW234869   0.180   3.378  10.441 -0.3746  1.4103 -0.7087
 9593SOL     OW34870   7.325   9.699   1.020  0.3801  0.5460 -0.7304
 9593SOL    HW134871   7.303   9.659   1.103 -0.5636 -0.3057 -1.3666
 9593SOL    HW234872   7.276   9.782   1.019 -0.1816  0.2166 -0.7405
 9594SOL     OW34873   0.522   1.543   5.211 -0.4900 -0.2782  0.9824
 9594SOL    HW134874   0.511   1.453   5.241 -0.4075 -0.3502  0.7957
 9594SOL    HW234875   0.610   1.545   5.173 -0.2936  0.0066  1.4449
 9595SOL     OW34876   9.558   7.313   0.580 -0.2057 -0.1899 -0.3510
 9595SOL    HW134877   9.536   7.315   0.673  0.8697 -1.7555 -0.0164
 9595SOL    HW234878   9.521   7.230   0.549 -0.5757  0.3314 -1.3352
 9596SOL     OW34879   9.665   6.757   4.153 -0.0587 -0.2351 -0.4483
 9596SOL    HW134880   9.728   6.689   4.177 -1.4933 -1.1689  0.8900
 9596SOL    HW234881   9.717   6.822   4.106  2.2668 -0.0943  2.0549
 9597SOL     OW34882   9.917  10.636   2.571 -0.1937  0.2705 -0.5646
 9597SOL    HW134883   9.974  10.682   2.633  0.6391 -2.9895  1.3191
 9597SOL    HW234884   9.976  10.601   2.505 -0.1482 -1.6232  0.4153
 9598SOL     OW34885   6.975   8.495   2.331 -0.4630  0.0408 -0.1793
 9598SOL    HW134886   6.929   8.424   2.288  1.0471 -0.4464 -1.0652
 9598SOL    HW234887   7.067   8.480   2.310 -0.0742  2.0815 -0.1218
 9599SOL     OW34888   1.102   1.088   4.109 -0.3487 -0.0881  0.2502
 9599SOL    HW134889   1.134   1.075   4.019 -1.0694 -3.2610  0.3117
 9599SOL    HW234890   1.177   1.066   4.164  0.1985  2.1940  0.4971
 9600SOL     OW34891   4.593   0.659   7.917 -0.0977  0.2192 -0.1264
 9600SOL    HW134892   4.627   0.749   7.912 -1.1989  0.9596  3.2370
 9600SOL    HW234893   4.670   0.604   7.901  0.9612  1.7501 -0.6260
 9601SOL     OW34894   7.795   6.060   7.997 -0.5405  0.1496  0.1214
 9601SOL    HW134895   7.744   6.039   7.919 -0.5225  0.5022  0.0111
 9601SOL    HW234896   7.884   6.073   7.964 -0.4793  0.0277  0.2403
 9602SOL     OW34897   2.644   3.751   3.492 -0.2267 -0.0291  0.3365
 9602SOL    HW134898   2.654   3.829   3.438  1.2462  0.3360  1.0964
 9602SOL    HW234899   2.565   3.768   3.544 -0.5798  0.4316 -0.3297
 9603SOL     OW34900  10.384   1.384   6.985 -0.0317 -0.8312  0.0209
 9603SOL    HW134901  10.410   1.475   6.999 -0.6949 -0.6424  0.0199
 9603SOL    HW234902  10.420   1.337   7.061  1.9628 -0.9175 -0.9159
 9604SOL     OW34903   3.290   7.444   9.332 -0.0173  0.0690 -0.1933
 9604SOL    HW134904   3.265   7.518   9.387  3.2183  1.6256 -0.5459
 9604SOL    HW234905   3.328   7.380   9.392 -0.0365  0.0474 -0.2045
 9605SOL     OW34906   8.556   2.945   9.380  0.1140 -0.7120  0.0275
 9605SOL    HW134907   8.618   2.969   9.311  2.2915 -1.3107  1.6600
 9605SOL    HW234908   8.518   2.862   9.352 -0.9384  0.2354 -1.5527
 9606SOL     OW34909   5.869   4.346   6.589  0.0940  0.1205  0.9339
 9606SOL    HW134910   5.845   4.316   6.677  3.2690 -2.4012  1.1185
 9606SOL    HW234911   5.906   4.434   6.603 -0.9862  0.4548  1.8159
 9607SOL     OW34912   1.476   1.516   7.881 -0.0728 -0.1530  0.5831
 9607SOL    HW134913   1.448   1.573   7.809 -0.5433 -0.2045  0.7171
 9607SOL    HW234914   1.424   1.436   7.870  0.8437 -0.7018  0.1921
 9608SOL     OW34915   1.861   0.474   9.219 -0.3212 -0.0918  0.8154
 9608SOL    HW134916   1.853   0.549   9.278 -2.1094  1.3564 -1.1433
 9608SOL    HW234917   1.923   0.503   9.152 -1.7664  0.0646 -0.4968
 9609SOL     OW34918   5.333   7.811   8.776  0.2474  0.3834 -0.0294
 9609SOL    HW134919   5.373   7.739   8.825  2.1939  0.7690 -0.9915
 9609SOL    HW234920   5.403   7.874   8.763 -0.8515  1.4234 -1.1710
 9610SOL     OW34921   3.887   7.492   7.512 -0.3743 -0.5212 -0.1029
 9610SOL    HW134922   3.871   7.488   7.607  0.4976 -0.9479  0.0368
 9610SOL    HW234923   3.982   7.481   7.504 -0.5691 -1.6119 -1.0938
 9611SOL     OW34924   7.719   2.124   9.721 -0.6211 -0.4288  0.3271
 9611SOL    HW134925   7.681   2.210   9.741 -0.9924 -0.5585  0.1903
 9611SOL    HW234926   7.793   2.116   9.781 -0.3541  0.1481  0.0813
 9612SOL     OW34927   8.582   2.904   8.200  0.4060 -0.1340  0.6080
 9612SOL    HW134928   8.549   2.830   8.251  2.0978 -0.7472  0.9051
 9612SOL    HW234929   8.518   2.973   8.213 -1.8337 -1.8522 -0.5763
 9613SOL     OW34930   1.621   7.180   0.216  0.0385  0.3446 -0.3651
 9613SOL    HW134931   1.600   7.172   0.123 -1.9555 -0.1300  0.0706
 9613SOL    HW234932   1.701   7.130   0.227  0.8103  1.1510 -1.9704
 9614SOL     OW34933  10.673  10.796   3.518 -0.6570 -0.3620  0.2145
 9614SOL    HW134934  10.653  10.808   3.611  0.5080 -1.0078  0.5776
 9614SOL    HW234935  10.757  10.749   3.518 -0.7055 -0.4849 -1.1652
 9615SOL     OW34936   0.846   4.354   2.572  0.1291  0.0758 -0.9976
 9615SOL    HW134937   0.812   4.284   2.517 -0.8894 -0.4681  0.2772
 9615SOL    HW234938   0.896   4.409   2.512 -0.5703 -0.7333 -2.3756
 9616SOL     OW34939   7.198   6.217  10.438  0.3702 -0.0394 -0.4795
 9616SOL    HW134940   7.284   6.183  10.413 -0.4951 -2.5344 -0.3504
 9616SOL    HW234941   7.217   6.299  10.485  2.6332 -0.4274 -0.6045
 9617SOL     OW34942   4.686   8.769   3.623 -0.0878  0.3629 -0.6169
 9617SOL    HW134943   4.606   8.749   3.672  0.3948 -1.6817 -0.5760
 9617SOL    HW234944   4.754   8.775   3.690  0.1358  0.1519 -0.8244
 9618SOL     OW34945   3.507   8.894   0.502  0.1030  0.3968  0.6917
 9618SOL    HW134946   3.598   8.920   0.488  0.2580 -0.2146  0.5280
 9618SOL    HW234947   3.512   8.801   0.524 -0.5802  0.0253 -0.5998
 9619SOL     OW34948   5.518   2.909   3.411 -0.2957  0.4709 -0.2865
 9619SOL    HW134949   5.582   2.978   3.395  0.2598  0.5313  1.9498
 9619SOL    HW234950   5.472   2.936   3.490 -1.8442 -0.5009 -0.7900
 9620SOL     OW34951   9.380   5.899   8.623  0.1312 -0.0773 -0.3966
 9620SOL    HW134952   9.314   5.964   8.648  1.4012  1.5630 -1.1209
 9620SOL    HW234953   9.422   5.875   8.706  0.3668  0.8554 -0.2336
 9621SOL     OW34954   7.709   6.973   3.804 -0.0177 -0.3171 -0.4259
 9621SOL    HW134955   7.656   6.924   3.866  0.2783 -0.0829  0.0216
 9621SOL    HW234956   7.648   7.001   3.735 -0.5288  0.1859  0.2221
 9622SOL     OW34957   9.583   3.039   0.754  0.5557 -1.0780  0.6314
 9622SOL    HW134958   9.506   3.057   0.701  1.1200  0.0687  0.1625
 9622SOL    HW234959   9.635   2.978   0.702  0.6149 -0.7754  0.3391
 9623SOL     OW34960   6.029   5.520   0.006 -0.1207  0.2280  0.3699
 9623SOL    HW134961   5.934   5.512   0.010  0.0445 -3.4262  0.3681
 9623SOL    HW234962   6.060   5.468   0.081  1.8695  0.9828  0.1231
 9624SOL     OW34963   2.418   9.527   5.897 -0.3989 -0.0666 -0.0453
 9624SOL    HW134964   2.373   9.445   5.873  0.5310 -0.7933  0.6166
 9624SOL    HW234965   2.458   9.508   5.981  0.1456  0.9663 -0.0587
 9625SOL     OW34966   7.100   1.876   0.692  0.5219 -0.1605  0.5440
 9625SOL    HW134967   7.168   1.943   0.682 -1.0799  1.4924  0.2148
 9625SOL    HW234968   7.087   1.842   0.604 -0.5760  1.1143  0.1778
 9626SOL     OW34969   5.886   0.479   8.246  0.0554 -0.1860 -0.4857
 9626SOL    HW134970   5.896   0.574   8.245  2.4697 -0.3781 -0.1954
 9626SOL    HW234971   5.793   0.465   8.228 -1.1015  2.3042  2.4538
 9627SOL     OW34972   1.288   1.909   3.637 -0.0991  0.5435 -0.0535
 9627SOL    HW134973   1.248   1.905   3.550  3.1746 -0.1700 -1.6938
 9627SOL    HW234974   1.311   1.818   3.657  0.1583  0.8429  1.0567
 9628SOL     OW34975   9.860   3.499   2.190  0.1447  0.2525  0.1334
 9628SOL    HW134976   9.770   3.532   2.196  0.3816  0.7475  1.1885
 9628SOL    HW234977   9.913   3.577   2.177  0.6164  0.2196  1.6764
 9629SOL     OW34978   1.167   3.119   6.466  0.1897  0.8296  0.1588
 9629SOL    HW134979   1.204   3.098   6.552 -0.2726 -2.0254 -0.2250
 9629SOL    HW234980   1.074   3.131   6.482  0.3250  1.8134  0.2481
 9630SOL     OW34981   5.249   0.311  10.320  0.2315  0.2466  0.5153
 9630SOL    HW134982   5.308   0.259  10.375  0.9458  0.8801  0.3575
 9630SOL    HW234983   5.240   0.259  10.240  0.2765 -0.0222  0.6806
 9631SOL     OW34984   6.184   6.795   1.174  0.3130 -0.4227  0.1477
 9631SOL    HW134985   6.220   6.872   1.130 -0.1946 -0.2718 -0.0035
 9631SOL    HW234986   6.251   6.772   1.238 -0.0020  0.8115  0.9638
 9632SOL     OW34987   6.563   2.565   8.884  0.1968  0.6024  0.5379
 9632SOL    HW134988   6.474   2.591   8.859  1.0880  3.7411  0.2236
 9632SOL    HW234989   6.579   2.611   8.966  1.2446 -0.6483  1.0554
 9633SOL     OW34990   8.841   4.464   5.679 -0.0233  0.3240 -0.3913
 9633SOL    HW134991   8.751   4.483   5.649  0.1417  0.0348 -1.0987
 9633SOL    HW234992   8.830   4.413   5.759 -0.5268 -1.4108 -1.5206
 9634SOL     OW34993   1.177  10.049   2.600  0.2193  0.2266  0.0287
 9634SOL    HW134994   1.207  10.124   2.550  2.1424 -0.8809 -0.5738
 9634SOL    HW234995   1.192   9.974   2.543  2.1706 -1.0474  2.0478
 9635SOL     OW34996   4.168   8.752   3.222  0.1412 -0.3622 -0.2090
 9635SOL    HW134997   4.232   8.710   3.164  0.9396  0.6706 -0.1114
 9635SOL    HW234998   4.220   8.792   3.291 -0.6643 -0.0825  0.2550
 9636SOL     OW34999   3.708   6.602   2.676 -0.3385 -0.2183  0.1126
 9636SOL    HW135000   3.692   6.518   2.718 -1.0967  0.6116  1.5602
 9636SOL    HW235001   3.798   6.595   2.643  0.3659 -0.8914  1.9978
 9637SOL     OW35002   4.982   6.380   1.442  0.0542  0.0046 -0.0878
 9637SOL    HW135003   4.891   6.363   1.418  0.3917 -0.9719 -0.7028
 9637SOL    HW235004   4.999   6.469   1.409 -0.8006  0.3726  0.4360
 9638SOL     OW35005   1.762   7.409   7.980 -0.3766 -0.4459 -0.6767
 9638SOL    HW135006   1.748   7.402   7.885  0.7415 -2.3372 -0.7601
 9638SOL    HW235007   1.675   7.396   8.018 -0.8783  0.5696 -1.4374
 9639SOL     OW35008   1.187   9.412   7.433  0.0520  0.3097  0.2683
 9639SOL    HW135009   1.241   9.375   7.503  2.1475  1.6056 -0.5668
 9639SOL    HW235010   1.126   9.470   7.477 -0.2412 -0.6652  1.1895
 9640SOL     OW35011   7.860   4.247   5.872  0.3076  1.1031 -0.1027
 9640SOL    HW135012   7.915   4.325   5.882 -0.6262  2.2142 -2.5798
 9640SOL    HW235013   7.772   4.282   5.857 -0.4114 -0.5053  0.1964
 9641SOL     OW35014   1.191   4.438   5.292 -0.0945 -0.4753  0.4599
 9641SOL    HW135015   1.113   4.426   5.347 -0.8401 -0.7812 -0.6421
 9641SOL    HW235016   1.235   4.515   5.329 -2.8493  2.0204 -1.0834
 9642SOL     OW35017   8.401   1.345   4.250  0.2898  0.2162  0.3934
 9642SOL    HW135018   8.360   1.403   4.186 -0.1340  1.2636  1.5818
 9642SOL    HW235019   8.370   1.258   4.226 -2.1013  0.8738  0.7946
 9643SOL     OW35020   0.451   7.978   0.727  0.5732  0.6539 -0.3872
 9643SOL    HW135021   0.442   7.883   0.726  0.4185  0.6285  1.2648
 9643SOL    HW235022   0.374   8.009   0.679 -0.0764 -0.0282  0.1740
 9644SOL     OW35023   6.612   1.492   1.011 -0.2951  0.1176 -0.3001
 9644SOL    HW135024   6.555   1.551   1.061  1.8362  0.9572  1.2973
 9644SOL    HW235025   6.565   1.408   1.011 -2.2293  1.1538 -0.4239
 9645SOL     OW35026   1.146   7.786   0.681 -0.2781 -0.2817 -0.4630
 9645SOL    HW135027   1.095   7.865   0.699  0.7406  0.4948 -0.9203
 9645SOL    HW235028   1.177   7.796   0.591 -0.4284 -1.3777 -0.6538
 9646SOL     OW35029   3.374   7.157   9.180  0.0419 -0.4748  0.1132
 9646SOL    HW135030   3.463   7.162   9.213  1.3035 -0.7276 -2.8991
 9646SOL    HW235031   3.355   7.245   9.148  0.3816 -1.0560 -1.8192
 9647SOL     OW35032   1.507   9.536   2.679 -0.0538 -0.3437  0.4963
 9647SOL    HW135033   1.570   9.504   2.613 -0.9417 -2.3306  0.5372
 9647SOL    HW235034   1.487   9.625   2.651  2.6557  0.3223  0.4109
 9648SOL     OW35035   0.212   5.371   0.228  0.4451 -0.5363 -0.1412
 9648SOL    HW135036   0.180   5.451   0.187  4.2011  1.1390 -0.1754
 9648SOL    HW235037   0.227   5.311   0.156 -0.0605 -0.3723 -0.3867
 9649SOL     OW35038   3.319   2.331   3.259 -0.0745  0.2313  0.0910
 9649SOL    HW135039   3.329   2.419   3.297 -0.7015  0.7423 -0.8977
 9649SOL    HW235040   3.225   2.321   3.247  0.0971  0.0030 -1.1442
 9650SOL     OW35041   4.675   1.834   4.791  0.1349 -0.2690  0.8205
 9650SOL    HW135042   4.763   1.800   4.777 -0.1161 -0.2454 -1.0112
 9650SOL    HW235043   4.687   1.928   4.806  0.3970 -0.1901  0.1402
 9651SOL     OW35044   0.274   6.513   8.072  0.4234  0.9021  0.3107
 9651SOL    HW135045   0.241   6.429   8.104  0.7167  0.8959  0.5957
 9651SOL    HW235046   0.362   6.494   8.041 -0.3300  0.6010 -1.8107
 9652SOL     OW35047   0.045   6.295   8.718 -1.0417 -0.2180  0.7486
 9652SOL    HW135048   0.124   6.312   8.770  0.0314  1.5477 -1.3195
 9652SOL    HW235049  -0.023   6.348   8.760 -0.6054 -0.0655  1.2804
 9653SOL     OW35050   2.793   9.990   3.179  0.4026  0.2551 -0.0749
 9653SOL    HW135051   2.698   9.979   3.168  0.3275  1.7216 -1.1022
 9653SOL    HW235052   2.806   9.986   3.274 -0.9279  1.7190  0.2113
 9654SOL     OW35053   3.502   2.675   0.096 -0.5581 -0.0739  0.6443
 9654SOL    HW135054   3.532   2.710   0.180 -0.5600 -1.4605  1.2632
 9654SOL    HW235055   3.513   2.747   0.034  0.0853  0.7688  1.7012
 9655SOL     OW35056   4.428   6.627   9.428 -1.0469  0.4061  0.4638
 9655SOL    HW135057   4.418   6.693   9.496 -0.0806  0.7870  0.2508
 9655SOL    HW235058   4.407   6.672   9.347  0.6741  0.7965  0.1878
 9656SOL     OW35059   8.412   0.322   4.094 -0.3404 -0.0808 -0.2458
 9656SOL    HW135060   8.412   0.271   4.175  3.2707 -1.0055 -0.6543
 9656SOL    HW235061   8.425   0.412   4.122 -0.3522 -0.2324  0.2564
 9657SOL     OW35062   2.349   1.780   0.821 -0.1845 -0.4793  0.6249
 9657SOL    HW135063   2.405   1.858   0.821  0.0784 -0.6047 -1.4668
 9657SOL    HW235064   2.406   1.709   0.851  0.6611 -0.4840 -0.8805
 9658SOL     OW35065   6.739   9.705   9.791  0.1657 -0.1233  0.2507
 9658SOL    HW135066   6.659   9.654   9.782 -1.3439  2.1020  0.1594
 9658SOL    HW235067   6.800   9.666   9.729 -2.0893  0.3019 -2.4133
 9659SOL     OW35068   7.247   7.424   6.065 -0.1968  0.0882 -0.3546
 9659SOL    HW135069   7.248   7.413   6.160  0.1906  0.1269 -0.3514
 9659SOL    HW235070   7.189   7.498   6.050 -0.8715 -0.4004 -0.2032
 9660SOL     OW35071   2.716   8.082   7.187 -0.4833  0.0737  0.6705
 9660SOL    HW135072   2.801   8.076   7.145  0.4039  1.6589  2.1031
 9660SOL    HW235073   2.724   8.031   7.267 -0.6353  0.7800  1.1477
 9661SOL     OW35074   6.364  10.711   6.678 -0.2722  0.3532 -0.0970
 9661SOL    HW135075   6.445  10.659   6.676  0.2096  1.0905 -0.4653
 9661SOL    HW235076   6.395  10.801   6.684 -1.0915  0.6136  0.2530
 9662SOL     OW35077  10.001   3.933   9.510  0.0505 -0.3721 -0.1229
 9662SOL    HW135078  10.049   3.896   9.584 -1.5075  0.4839  1.3758
 9662SOL    HW235079   9.979   3.857   9.456  2.5539 -0.8526 -0.6166
 9663SOL     OW35080   7.664   6.628   9.461  0.0297 -0.1353 -0.3833
 9663SOL    HW135081   7.705   6.555   9.414  2.0163  0.4202  0.3964
 9663SOL    HW235082   7.574   6.599   9.476 -0.3077 -0.9039 -3.2745
 9664SOL     OW35083   2.770   2.889   1.403  0.3418 -0.2867  0.5707
 9664SOL    HW135084   2.800   2.915   1.316 -1.3901  3.6856  0.9321
 9664SOL    HW235085   2.675   2.882   1.394  0.0981  0.5208  2.1700
 9665SOL     OW35086   9.112   1.890  10.733  0.1273  0.1312 -0.2481
 9665SOL    HW135087   9.154   1.842  10.662 -0.9597 -1.5573  0.1710
 9665SOL    HW235088   9.171   1.963  10.751  0.5078  0.5409 -2.7558
 9666SOL     OW35089   6.384  10.889   5.937 -0.5426  0.1089 -0.3860
 9666SOL    HW135090   6.371  10.798   5.965  0.8743  0.0928  0.3241
 9666SOL    HW235091   6.470  10.889   5.895 -0.1918  1.2503  0.2905
 9667SOL     OW35092   9.713   6.659   9.191  0.5424 -0.2675 -0.2713
 9667SOL    HW135093   9.682   6.737   9.238  2.9490  1.4409 -1.3335
 9667SOL    HW235094   9.725   6.593   9.260 -0.6193  0.5745  0.7874
 9668SOL     OW35095   6.387   3.431   2.089  0.0545  0.0561  0.2393
 9668SOL    HW135096   6.450   3.411   2.159  2.0609  0.2587 -1.3971
 9668SOL    HW235097   6.370   3.346   2.049  0.0642  0.1385  0.0633
 9669SOL     OW35098   1.773   4.838   3.120  0.1133  0.2060 -0.3687
 9669SOL    HW135099   1.730   4.832   3.035 -3.1485  1.5410  1.0178
 9669SOL    HW235100   1.749   4.925   3.153  1.6382 -0.0914  1.7345
 9670SOL     OW35101   3.193   8.558   5.688 -0.3652 -0.4949 -0.6580
 9670SOL    HW135102   3.199   8.649   5.717 -0.2475 -1.0319  1.1118
 9670SOL    HW235103   3.101   8.536   5.698 -0.4465 -0.4830 -1.3718
 9671SOL     OW35104   4.072   8.761   5.173  0.7162 -0.4321  0.3621
 9671SOL    HW135105   3.997   8.818   5.153 -0.3896 -1.7663  0.5726
 9671SOL    HW235106   4.129   8.770   5.097 -0.0426 -0.0194 -0.1802
 9672SOL     OW35107  10.621   7.116   2.912  0.1257  0.0900 -0.0386
 9672SOL    HW135108  10.597   7.199   2.871  0.9762  0.3809  0.0380
 9672SOL    HW235109  10.686   7.139   2.977 -0.1030 -0.5654  0.4350
 9673SOL     OW35110   2.166   5.321   7.884  0.8707  0.0019  0.5587
 9673SOL    HW135111   2.229   5.304   7.814  0.8534 -0.7776  0.7276
 9673SOL    HW235112   2.199   5.401   7.927  0.4625  0.9361 -0.8014
 9674SOL     OW35113   4.087  10.456   6.419 -0.0671  0.6010 -0.0635
 9674SOL    HW135114   4.119  10.476   6.507  0.1392 -0.9849  0.2524
 9674SOL    HW235115   4.092  10.539   6.372 -1.0850  1.7018  1.6849
 9675SOL     OW35116  10.617   8.263   9.890  0.5831  0.1299 -0.5749
 9675SOL    HW135117  10.589   8.349   9.922  0.8911  0.2763 -0.6984
 9675SOL    HW235118  10.629   8.275   9.796  0.1011 -0.1891 -0.6777
 9676SOL     OW35119   3.683   3.287   3.439 -0.7509  0.3959  0.6010
 9676SOL    HW135120   3.594   3.318   3.423 -0.8931 -0.3080 -0.0229
 9676SOL    HW235121   3.681   3.194   3.414  0.2823  0.4985  0.0934
 9677SOL     OW35122   4.585   6.866   6.897 -0.4890 -0.0597  0.0478
 9677SOL    HW135123   4.661   6.841   6.844  0.3976  0.4959  1.0226
 9677SOL    HW235124   4.512   6.821   6.856  0.4618 -1.1226 -0.5422
 9678SOL     OW35125   2.055   9.201   0.537 -0.2407 -0.0493 -0.3631
 9678SOL    HW135126   2.043   9.113   0.575 -1.8251  0.3336  0.1160
 9678SOL    HW235127   2.105   9.186   0.457  0.8954 -1.1950  0.5063
 9679SOL     OW35128   9.385   3.183   7.282 -0.3506  0.1393  0.0171
 9679SOL    HW135129   9.422   3.111   7.333 -1.6572 -0.9823 -0.5625
 9679SOL    HW235130   9.461   3.237   7.258  0.6641 -1.0842  0.3721
 9680SOL     OW35131   6.770   6.762  10.094 -0.2674  0.3312  0.1984
 9680SOL    HW135132   6.790   6.847  10.132 -0.5138 -0.3158  1.8507
 9680SOL    HW235133   6.798   6.699  10.160 -0.6482 -0.8675 -0.7371
 9681SOL     OW35134   5.881   0.653   1.960  0.5903 -0.3056  0.1658
 9681SOL    HW135135   5.851   0.739   1.989 -0.6696 -0.0718 -1.6707
 9681SOL    HW235136   5.903   0.607   2.041  1.2045  1.6945  1.1948
 9682SOL     OW35137   7.876   8.941   1.696  0.2674 -0.1163 -0.3795
 9682SOL    HW135138   7.866   8.846   1.688 -0.5849 -0.2324  1.4757
 9682SOL    HW235139   7.802   8.969   1.750  0.4680  1.6259 -0.9409
 9683SOL     OW35140   0.183   4.910   9.349  0.7198  0.2632 -0.5084
 9683SOL    HW135141   0.090   4.899   9.366  1.1681 -0.9726  1.4675
 9683SOL    HW235142   0.188   4.989   9.295 -1.3514  1.4935  0.9263
 9684SOL     OW35143   5.008   3.677   5.768 -0.4024 -0.5868 -0.3434
 9684SOL    HW135144   5.035   3.715   5.685 -1.6634  0.3255 -0.3799
 9684SOL    HW235145   4.912   3.676   5.764 -0.4609 -2.7410  0.1543
 9685SOL     OW35146   5.142  10.601   4.209 -0.4090  0.0801  0.5043
 9685SOL    HW135147   5.153  10.511   4.237 -0.3647  0.2549  1.0561
 9685SOL    HW235148   5.060  10.630   4.250 -0.4441  0.2771  0.2989
 9686SOL     OW35149   9.040   6.961   7.278 -0.2738  0.0806 -0.0960
 9686SOL    HW135150   9.108   6.966   7.345 -0.9592 -0.8539  0.7102
 9686SOL    HW235151   9.052   7.040   7.225  0.6643  0.5433  0.7691
 9687SOL     OW35152   3.889   4.053   3.150  1.0443  0.0666  0.2979
 9687SOL    HW135153   3.802   4.080   3.121  1.2741 -0.4977 -1.0149
 9687SOL    HW235154   3.889   4.066   3.245 -0.9678 -1.2963  0.5379
 9688SOL     OW35155   5.770   7.792   5.983  0.2192  0.1396  0.1064
 9688SOL    HW135156   5.679   7.801   6.014  0.1053 -0.0365 -0.1741
 9688SOL    HW235157   5.769   7.712   5.930  0.4041  0.4658 -0.3896
 9689SOL     OW35158  10.087   8.238   6.478  0.1827 -0.5981 -0.5298
 9689SOL    HW135159  10.047   8.200   6.556 -1.3440 -1.8236 -1.8505
 9689SOL    HW235160  10.114   8.326   6.505  0.1365 -1.1528  1.4813
 9690SOL     OW35161   1.172   8.094   3.288 -0.4226 -0.7309  0.5674
 9690SOL    HW135162   1.090   8.104   3.241 -1.1168 -2.2095  1.3921
 9690SOL    HW235163   1.215   8.019   3.245  0.2437 -0.3137  0.4926
 9691SOL     OW35164   0.264   8.812   9.527 -0.5179  0.2970 -0.3569
 9691SOL    HW135165   0.240   8.897   9.491 -0.2116  0.4241 -0.2660
 9691SOL    HW235166   0.181   8.765   9.536 -0.9156  1.2702  1.3531
 9692SOL     OW35167   4.972   5.995   6.035 -0.1898  0.2394  0.1447
 9692SOL    HW135168   5.056   6.041   6.036 -0.3496  0.5303  0.2766
 9692SOL    HW235169   4.956   5.974   6.127  0.0229 -0.3413  0.0536
 9693SOL     OW35170   2.271   4.901   3.100  0.2518  0.0987  0.0260
 9693SOL    HW135171   2.242   4.955   3.026  2.9897  1.0634 -0.4858
 9693SOL    HW235172   2.338   4.955   3.142 -1.1456 -0.4551  3.2352
 9694SOL     OW35173   7.726  10.301   0.917 -0.3650 -0.9010 -0.4674
 9694SOL    HW135174   7.656  10.242   0.942 -0.5442 -0.6400 -0.3438
 9694SOL    HW235175   7.796  10.244   0.884  0.3463 -1.3532  1.7077
 9695SOL     OW35176   9.539   0.992   6.034  0.4983  0.1660  0.1452
 9695SOL    HW135177   9.575   0.905   6.022  0.1496  0.1217 -0.7187
 9695SOL    HW235178   9.468   0.981   6.097 -1.1349 -0.6628 -1.7072
 9696SOL     OW35179   0.446   7.074   0.673  0.4364 -0.4015  0.4334
 9696SOL    HW135180   0.488   7.160   0.671  0.2273 -0.2872  0.7905
 9696SOL    HW235181   0.352   7.093   0.675  0.3916 -0.6324  0.6248
 9697SOL     OW35182   5.090   7.073   6.312  0.0427  0.0553 -0.0030
 9697SOL    HW135183   5.081   7.151   6.257  1.6628  0.8072  0.7443
 9697SOL    HW235184   5.018   7.080   6.375 -0.3708  0.4552 -0.5089
 9698SOL     OW35185   4.684  10.132   4.941  0.2626  0.4264 -0.3698
 9698SOL    HW135186   4.678  10.100   5.031 -0.8261  2.3164  0.2829
 9698SOL    HW235187   4.608  10.189   4.930  0.6351  0.6433 -2.3493
 9699SOL     OW35188   2.341   8.191   5.486  0.0607  0.2906  0.1020
 9699SOL    HW135189   2.342   8.213   5.580  1.1927  3.1251 -0.4751
 9699SOL    HW235190   2.284   8.258   5.447  0.1363 -0.4581 -1.3202
 9700SOL     OW35191   6.501   2.923   8.877 -0.1787  1.0897 -0.2313
 9700SOL    HW135192   6.448   2.904   8.800  0.2076  2.1650 -0.7789
 9700SOL    HW235193   6.551   3.001   8.854  2.8656 -0.7142 -0.3771
 9701SOL     OW35194   5.755   7.255   5.774  0.2841 -0.5970  0.3146
 9701SOL    HW135195   5.821   7.210   5.826  2.1387 -2.4051 -3.2088
 9701SOL    HW235196   5.676   7.252   5.828  1.9432 -2.4594  2.8799
 9702SOL     OW35197   9.364   7.445   8.134  0.0761  0.6807 -0.0539
 9702SOL    HW135198   9.370   7.537   8.160 -0.7760  0.5847  0.5373
 9702SOL    HW235199   9.296   7.409   8.191  0.6225 -0.3931 -0.0665
 9703SOL     OW35200   8.633   7.619   3.400  0.1049  0.4878 -0.7140
 9703SOL    HW135201   8.671   7.697   3.440  0.4126 -0.8181  1.7893
 9703SOL    HW235202   8.551   7.606   3.447  0.0515 -0.6633 -1.0922
 9704SOL     OW35203   3.867   2.600   1.566  0.4188  0.0261  0.1850
 9704SOL    HW135204   3.879   2.582   1.472 -0.8180  1.6544 -0.3399
 9704SOL    HW235205   3.780   2.564   1.586  0.5252  0.0082  0.6084
 9705SOL     OW35206   0.142   3.306   8.480 -0.2966 -0.1307 -0.4660
 9705SOL    HW135207   0.119   3.293   8.388 -0.7541  0.0777 -0.3820
 9705SOL    HW235208   0.144   3.219   8.518  0.5125 -0.2759 -0.8184
 9706SOL     OW35209   7.079   2.050   1.177  0.2161  0.7129 -0.0684
 9706SOL    HW135210   6.984   2.046   1.168  0.1187  0.6522  0.8963
 9706SOL    HW235211   7.106   1.958   1.180  0.0279  0.6844  2.1701
 9707SOL     OW35212   1.377   4.174   6.648 -0.2737 -0.3091  0.2002
 9707SOL    HW135213   1.393   4.154   6.556 -2.6986  0.7376 -0.5350
 9707SOL    HW235214   1.437   4.245   6.669 -0.4469  0.1834 -0.9252
 9708SOL     OW35215   2.118   9.233   4.878  0.2443 -0.0969 -0.0757
 9708SOL    HW135216   2.107   9.221   4.972 -1.0504 -0.3708 -0.2487
 9708SOL    HW235217   2.211   9.257   4.868  0.4601 -0.3002  1.2321
 9709SOL     OW35218   2.083   8.803   7.323  0.5711  0.3352 -0.0514
 9709SOL    HW135219   2.174   8.800   7.291  0.7577  2.8278  0.0497
 9709SOL    HW235220   2.037   8.741   7.266  1.6239  1.8458 -2.7773
 9710SOL     OW35221   1.594   9.125   8.494  0.2574 -0.1501 -0.0716
 9710SOL    HW135222   1.574   9.207   8.448  0.8252  0.7611  1.2361
 9710SOL    HW235223   1.524   9.116   8.558 -0.4049 -1.2937 -0.9189
 9711SOL     OW35224   8.945   2.462   0.172  0.6082  0.5792 -0.1011
 9711SOL    HW135225   8.889   2.404   0.224 -0.9870  1.2099 -1.0271
 9711SOL    HW235226   9.031   2.420   0.171 -0.3736 -1.5244 -0.3564
 9712SOL     OW35227   2.358   4.584   5.425 -0.0764 -0.1720  0.5208
 9712SOL    HW135228   2.350   4.532   5.505  0.6593  1.6720  1.8600
 9712SOL    HW235229   2.357   4.520   5.354 -0.1588 -1.9092  2.0313
 9713SOL     OW35230   9.209   7.575  10.639  0.3349 -0.2226 -0.1686
 9713SOL    HW135231   9.286   7.558  10.693 -0.9671 -0.0401  1.8255
 9713SOL    HW235232   9.205   7.500  10.579  2.5263  0.2029 -0.9556
 9714SOL     OW35233   8.885  10.289   4.229  0.3109 -0.5296  0.3157
 9714SOL    HW135234   8.843  10.310   4.146  1.6029 -0.8670 -0.4384
 9714SOL    HW235235   8.850  10.203   4.253  1.5971 -1.4786 -1.0334
 9715SOL     OW35236   4.565   4.040   3.425 -0.2606 -0.7476  0.6871
 9715SOL    HW135237   4.621   4.085   3.489 -0.6806  0.4415  0.2386
 9715SOL    HW235238   4.606   4.057   3.341 -2.0569  1.4569  0.1652
 9716SOL     OW35239   2.132   0.932   0.546  0.1545 -0.3175  0.0192
 9716SOL    HW135240   2.084   0.972   0.473 -0.9953 -0.2842  0.7699
 9716SOL    HW235241   2.158   1.005   0.601  3.5059 -0.0213 -1.6868
 9717SOL     OW35242   3.068   3.165   3.912  0.1468 -0.0250  0.6567
 9717SOL    HW135243   3.022   3.139   3.832 -2.3334  0.4182  1.8442
 9717SOL    HW235244   3.155   3.127   3.902 -0.7154 -1.7346 -1.3275
 9718SOL     OW35245   6.310   8.976   5.945  0.2723  0.0926  0.6284
 9718SOL    HW135246   6.379   9.002   6.006  2.3564 -1.4636 -0.8948
 9718SOL    HW235247   6.258   9.055   5.932  0.1673  0.6513  3.7965
 9719SOL     OW35248   8.630   2.835   3.855  0.1226  0.0189 -0.4388
 9719SOL    HW135249   8.689   2.760   3.866  0.0536 -0.0763 -0.7037
 9719SOL    HW235250   8.684   2.900   3.809 -0.0214 -0.1252 -0.8171
 9720SOL     OW35251   7.853   7.756   0.198  0.5405 -0.0190  0.8981
 9720SOL    HW135252   7.873   7.662   0.198 -0.4408 -0.2463  2.4474
 9720SOL    HW235253   7.939   7.798   0.210  1.1362 -0.6252 -0.7999
 9721SOL     OW35254   6.431   5.677   4.957 -0.3483  0.7934 -0.1663
 9721SOL    HW135255   6.400   5.746   5.016 -1.4045  0.3845 -0.2282
 9721SOL    HW235256   6.385   5.693   4.875 -3.0489 -1.7321  0.6781
 9722SOL     OW35257   5.457   3.418   9.498 -0.4515  0.6208 -0.2856
 9722SOL    HW135258   5.417   3.424   9.410 -0.8278 -0.1163 -0.1736
 9722SOL    HW235259   5.492   3.329   9.502 -0.3935  0.6694  0.2982
 9723SOL     OW35260   1.681   8.319   1.295 -0.3308 -0.4406  0.4003
 9723SOL    HW135261   1.645   8.354   1.214 -1.3557 -3.3712 -0.5364
 9723SOL    HW235262   1.749   8.257   1.267  1.2056  0.4512  1.9404
 9724SOL     OW35263   9.222   1.397   7.258 -0.1047  0.5558 -0.2103
 9724SOL    HW135264   9.260   1.353   7.181 -1.8431  1.7995 -1.8575
 9724SOL    HW235265   9.198   1.325   7.317 -0.9079 -0.6090 -1.8828
 9725SOL     OW35266   3.542   6.954  10.054  0.2881  0.1562  0.0325
 9725SOL    HW135267   3.527   7.019   9.985 -0.1616  0.8489  0.7613
 9725SOL    HW235268   3.481   6.979  10.123 -0.5035 -1.5680 -0.0127
 9726SOL     OW35269  10.337   9.378   7.568  0.2501  0.3355 -0.6487
 9726SOL    HW135270  10.275   9.352   7.635  2.9788 -3.5030  0.7055
 9726SOL    HW235271  10.319   9.321   7.494  0.9042  0.5534 -0.9914
 9727SOL     OW35272   2.474   6.966   1.380 -0.0090 -0.7269 -0.0871
 9727SOL    HW135273   2.533   6.915   1.325 -0.7019  0.8198 -2.3989
 9727SOL    HW235274   2.406   6.904   1.406  2.0084 -2.3149  1.8792
 9728SOL     OW35275   2.658   6.546   8.852  0.0830  0.2055  0.4959
 9728SOL    HW135276   2.647   6.570   8.944  0.4978 -0.7455  0.8018
 9728SOL    HW235277   2.642   6.452   8.849 -0.6786  0.3489 -0.5399
 9729SOL     OW35278   8.203   0.267   7.706 -0.5806 -0.2305  0.2956
 9729SOL    HW135279   8.147   0.229   7.638 -2.8211  0.9999  1.3789
 9729SOL    HW235280   8.158   0.346   7.734  1.7622  0.8916  1.2044
 9730SOL     OW35281   6.204  10.032   0.562 -0.8146 -0.6457 -0.7207
 9730SOL    HW135282   6.169  10.109   0.606 -0.3258 -0.9713  0.2755
 9730SOL    HW235283   6.158   9.959   0.602  0.7738 -1.0629  0.4548
 9731SOL     OW35284   4.086   6.420   7.355 -0.4067 -0.1746 -0.2646
 9731SOL    HW135285   4.015   6.394   7.298 -1.3218 -0.1580  0.8327
 9731SOL    HW235286   4.043   6.449   7.436  0.8338 -4.6490  2.3928
 9732SOL     OW35287   2.544   2.578   9.088 -0.0548  0.6242  0.0391
 9732SOL    HW135288   2.520   2.624   9.007 -3.3497  1.6743  1.4309
 9732SOL    HW235289   2.494   2.623   9.156  2.3967 -0.3930  2.6648
 9733SOL     OW35290   2.957   4.557   1.083  0.2582 -0.0377 -0.3714
 9733SOL    HW135291   2.896   4.595   1.146  0.6424  0.1208 -0.0918
 9733SOL    HW235292   2.940   4.604   1.001  1.2564  1.3005  0.1553
 9734SOL     OW35293   0.881   6.524   0.553 -0.0182 -0.3471 -0.6283
 9734SOL    HW135294   0.859   6.477   0.472  1.9569 -0.7551 -0.9743
 9734SOL    HW235295   0.975   6.539   0.547 -0.1812  1.5055  0.6346
 9735SOL     OW35296   3.818   9.237   3.384  0.5243 -0.0286  0.5650
 9735SOL    HW135297   3.766   9.256   3.306 -0.2107  0.6418  1.2096
 9735SOL    HW235298   3.902   9.280   3.368  0.1644  0.6198  0.4001
 9736SOL     OW35299   0.873   3.277   7.726 -0.0694 -0.0641  0.3793
 9736SOL    HW135300   0.965   3.298   7.739 -0.1964  0.0358  1.1534
 9736SOL    HW235301   0.872   3.185   7.699  0.2212 -0.2150  0.8810
 9737SOL     OW35302   9.386   2.475   4.550 -0.1429 -0.1922 -0.0198
 9737SOL    HW135303   9.334   2.470   4.469 -0.7812  1.3173  0.2599
 9737SOL    HW235304   9.474   2.499   4.521 -0.3006  0.0693 -0.2826
 9738SOL     OW35305   6.766   1.170   7.027 -0.3981  0.4797 -0.1569
 9738SOL    HW135306   6.723   1.216   7.099 -1.3019  1.7744 -1.4725
 9738SOL    HW235307   6.845   1.222   7.010  0.1449 -0.1830  0.2861
 9739SOL     OW35308   8.670   9.342   9.362  0.1261 -0.1060  0.7782
 9739SOL    HW135309   8.762   9.332   9.388 -0.0755  0.9308  1.9661
 9739SOL    HW235310   8.671   9.330   9.267  1.7731  1.5043  0.5432
 9740SOL     OW35311   4.414   0.782   5.701 -0.3504  0.0250 -0.9965
 9740SOL    HW135312   4.480   0.822   5.757  0.6891 -1.1179 -1.3578
 9740SOL    HW235313   4.363   0.726   5.759 -1.5798  1.5462 -0.5574
 9741SOL     OW35314   5.159   5.882   0.971  0.0283  0.0558  0.0654
 9741SOL    HW135315   5.207   5.959   0.942  1.9838 -1.1580 -0.0805
 9741SOL    HW235316   5.125   5.907   1.058 -0.5585  1.5176 -0.5448
 9742SOL     OW35317   5.176   1.095   3.505 -0.1743 -0.0180  0.5873
 9742SOL    HW135318   5.222   1.096   3.589  0.5077  1.4631  0.2277
 9742SOL    HW235319   5.153   1.003   3.492  0.2130 -0.3711  2.1103
 9743SOL     OW35320   1.697   3.628   8.041 -0.1468 -0.2026 -0.3241
 9743SOL    HW135321   1.686   3.578   8.122 -0.5633  0.1835 -0.1402
 9743SOL    HW235322   1.688   3.562   7.972 -0.5374 -0.4142 -0.0787
 9744SOL     OW35323   7.147   2.390   0.146 -0.0116  0.3290 -0.3557
 9744SOL    HW135324   7.173   2.323   0.083  0.9971  0.8552 -0.5205
 9744SOL    HW235325   7.130   2.467   0.093  0.7309  0.7429 -0.0144
 9745SOL     OW35326   6.610   3.826   3.081 -0.0825  0.0493 -0.7596
 9745SOL    HW135327   6.583   3.916   3.060  2.2793  0.6299 -1.6300
 9745SOL    HW235328   6.656   3.834   3.165  0.1289 -0.3413 -0.8371
 9746SOL     OW35329   9.827   1.306   7.656  0.3603  0.2325 -0.1945
 9746SOL    HW135330   9.755   1.247   7.675  1.1216 -1.7358 -2.7526
 9746SOL    HW235331   9.786   1.389   7.630 -0.7949  0.2451  1.5626
 9747SOL     OW35332  10.393   2.697  10.103 -0.7089 -0.3180  0.0117
 9747SOL    HW135333  10.444   2.774  10.078 -1.0237 -0.0831  0.0934
 9747SOL    HW235334  10.316   2.732  10.147 -0.5898 -0.7038  0.5325
 9748SOL     OW35335  10.673  10.180   4.175 -0.5512  0.7854  0.6825
 9748SOL    HW135336  10.610  10.242   4.138 -0.6433  1.9551  2.6464
 9748SOL    HW235337  10.711  10.136   4.099 -1.9150  1.8494 -0.6766
 9749SOL     OW35338   2.826   7.838   8.057  0.6153  0.3229 -0.4860
 9749SOL    HW135339   2.877   7.871   7.983  1.4810  0.9278  0.3542
 9749SOL    HW235340   2.816   7.744   8.039  3.6142 -0.2510  0.1553
 9750SOL     OW35341   3.356   3.102   5.144 -0.1069 -0.3159  0.1214
 9750SOL    HW135342   3.395   3.145   5.220 -0.1119  0.5319 -0.3389
 9750SOL    HW235343   3.314   3.024   5.179  1.6767 -1.0623  0.6847
 9751SOL     OW35344  10.206   9.612   7.746  0.4877  0.0262 -0.2874
 9751SOL    HW135345  10.154   9.642   7.671  1.1391 -0.3310 -0.8860
 9751SOL    HW235346  10.296   9.616   7.716  0.6935 -1.1036  0.1326
 9752SOL     OW35347   8.112   9.595   8.028  0.3152 -0.3071  0.2051
 9752SOL    HW135348   8.068   9.577   7.944  1.7752 -1.0483 -0.4408
 9752SOL    HW235349   8.205   9.579   8.010  0.8247  0.8321  1.6205
 9753SOL     OW35350   3.307   2.638   7.232 -0.3619  0.1642  0.6629
 9753SOL    HW135351   3.388   2.633   7.282  1.5430 -1.3509 -2.2802
 9753SOL    HW235352   3.301   2.729   7.204  1.5191 -0.1054 -0.7726
 9754SOL     OW35353   9.229  10.893   7.713 -0.5825  0.5843 -0.0924
 9754SOL    HW135354   9.179  10.930   7.786 -1.6671 -1.2804  0.1898
 9754SOL    HW235355   9.191  10.933   7.635 -2.6453 -0.8173  0.1178
 9755SOL     OW35356   9.705   5.714   6.421  0.1895  0.3827  0.2605
 9755SOL    HW135357   9.740   5.793   6.380  0.2780  0.9121  1.3154
 9755SOL    HW235358   9.667   5.664   6.349  1.1428  0.8470 -0.5884
 9756SOL     OW35359   5.692   7.663   6.629  0.6803  0.3984  0.0185
 9756SOL    HW135360   5.627   7.692   6.565  1.4592  0.5269 -0.7227
 9756SOL    HW235361   5.775   7.695   6.595  1.3694 -1.3285  0.0102
 9757SOL     OW35362   8.324   2.943   0.964  0.3610  0.4758 -0.2451
 9757SOL    HW135363   8.379   3.021   0.964  0.0791  0.6779 -0.8497
 9757SOL    HW235364   8.298   2.932   1.056  2.0296 -0.0785  0.1939
 9758SOL     OW35365   0.294   1.441   6.009 -0.3172 -0.3633  0.3007
 9758SOL    HW135366   0.367   1.476   6.059 -0.0680  0.0911 -0.3642
 9758SOL    HW235367   0.217   1.490   6.039  0.1975  1.6385 -1.4352
 9759SOL     OW35368   4.673   3.737   6.028  0.4755 -0.5577 -0.1805
 9759SOL    HW135369   4.586   3.778   6.036  0.9265  0.1622  1.4660
 9759SOL    HW235370   4.656   3.655   5.982 -0.9732 -0.1133 -0.5066
 9760SOL     OW35371   3.394   9.366   4.309 -0.1844 -0.5833 -0.2986
 9760SOL    HW135372   3.342   9.293   4.274 -0.0614 -0.9433  0.2399
 9760SOL    HW235373   3.363   9.443   4.263 -0.9983 -0.8407 -0.1940
 9761SOL     OW35374   2.776   1.196   3.261 -0.4671 -0.0968  0.3440
 9761SOL    HW135375   2.817   1.116   3.293 -0.6637 -0.3374  0.0034
 9761SOL    HW235376   2.772   1.253   3.338 -0.9787 -0.6859  0.7731
 9762SOL     OW35377   0.972   4.466   9.711 -0.5092  0.0648  0.4677
 9762SOL    HW135378   1.031   4.541   9.704  1.2315 -1.3456 -0.4688
 9762SOL    HW235379   0.930   4.461   9.625 -1.9433  0.9498  1.0708
 9763SOL     OW35380   9.357   7.637   7.170  0.7892 -0.2442  0.3508
 9763SOL    HW135381   9.407   7.611   7.092  0.0468 -0.9605  0.0880
 9763SOL    HW235382   9.410   7.705   7.212  0.8550  0.6797 -1.1704
 9764SOL     OW35383   4.100   4.353  10.339 -0.0440  0.3256 -0.1461
 9764SOL    HW135384   4.163   4.355  10.266 -0.1675  0.0408 -0.2643
 9764SOL    HW235385   4.060   4.266  10.333  0.4598  0.0192  0.6933
 9765SOL     OW35386   1.299   0.005   8.400 -1.0932  0.6669 -0.0936
 9765SOL    HW135387   1.296  -0.089   8.385  1.7396  0.4634  0.2403
 9765SOL    HW235388   1.295   0.043   8.312  0.3074  0.1040 -0.4179
 9766SOL     OW35389   9.719   3.266   5.603  0.1674  0.1541  0.2594
 9766SOL    HW135390   9.641   3.317   5.627  1.3128  1.7974  0.6886
 9766SOL    HW235391   9.705   3.243   5.511 -1.9386 -1.7986  0.9572
 9767SOL     OW35392   1.720   7.126   7.560  0.1574 -0.1145 -0.4438
 9767SOL    HW135393   1.694   7.128   7.467  1.3064 -0.1159 -0.7737
 9767SOL    HW235394   1.720   7.032   7.582  0.8012 -0.1796 -0.7107
 9768SOL     OW35395   7.926   2.555   4.497  0.0144  0.1341 -0.1629
 9768SOL    HW135396   7.953   2.586   4.410 -0.0719  0.1080 -0.1996
 9768SOL    HW235397   7.995   2.584   4.556  0.1289  0.0573 -0.2575
 9769SOL     OW35398   8.507  10.041   4.006  0.0238 -0.1604  0.1984
 9769SOL    HW135399   8.531  10.117   4.059  0.7620 -1.9067  2.5414
 9769SOL    HW235400   8.588  10.014   3.964 -0.2329  0.2847 -0.6114
 9770SOL     OW35401   2.031   5.751   0.307  0.2283 -0.0364 -0.2190
 9770SOL    HW135402   1.989   5.710   0.383 -0.8731  1.9485  0.3240
 9770SOL    HW235403   2.014   5.690   0.235  0.2330 -1.3811  0.8604
 9771SOL     OW35404   2.486   1.086   3.512  0.1553  0.0636  0.0698
 9771SOL    HW135405   2.567   1.069   3.560 -0.7229 -1.3344  1.0969
 9771SOL    HW235406   2.486   1.021   3.442 -0.6506 -0.7598  0.8133
 9772SOL     OW35407   7.811   5.512   4.228  0.8305  0.2216  0.1757
 9772SOL    HW135408   7.863   5.561   4.164  1.3165 -1.1033 -0.4823
 9772SOL    HW235409   7.784   5.433   4.182  0.1031 -0.1609  1.2195
 9773SOL     OW35410   8.855   5.836   6.955  0.0082  0.0099  0.3687
 9773SOL    HW135411   8.945   5.862   6.976  0.0830  0.2897 -0.2616
 9773SOL    HW235412   8.829   5.778   7.027  0.6082  0.1161  0.6776
 9774SOL     OW35413   8.736   8.128   8.637  0.0166 -0.2836  0.0960
 9774SOL    HW135414   8.726   8.220   8.616  1.0404  0.1431  1.3721
 9774SOL    HW235415   8.749   8.085   8.552 -3.0807  0.3196 -0.7879
 9775SOL     OW35416   2.260  10.843   8.477  0.6704  0.3406 -0.0406
 9775SOL    HW135417   2.226  10.921   8.434  0.2791  1.1454  1.6445
 9775SOL    HW235418   2.211  10.771   8.438 -4.1683  1.4840  3.1253
 9776SOL     OW35419   9.512   7.819  10.161  0.2158  0.0435  0.0774
 9776SOL    HW135420   9.492   7.777  10.078 -0.8571  1.2472 -0.3020
 9776SOL    HW235421   9.465   7.766  10.226  0.1721 -0.2709 -0.2074
 9777SOL     OW35422   3.884   7.610   6.242  0.1355 -0.3304 -0.4112
 9777SOL    HW135423   3.953   7.560   6.198 -0.7945 -0.3830 -1.8561
 9777SOL    HW235424   3.814   7.617   6.177 -0.9012  0.4184  0.7475
 9778SOL     OW35425   0.303   5.532   8.621 -0.3961 -0.0837 -0.0022
 9778SOL    HW135426   0.252   5.570   8.693 -1.8147 -1.2984 -0.3179
 9778SOL    HW235427   0.237   5.490   8.565  0.8838 -0.9143 -0.9258
 9779SOL     OW35428   7.435  10.709   8.596  0.0983  0.1431 -0.0091
 9779SOL    HW135429   7.447  10.632   8.652  0.3416  0.6440  0.6540
 9779SOL    HW235430   7.522  10.726   8.560 -0.1622 -0.4727 -0.9489
 9780SOL     OW35431   2.238   9.978  10.026  0.1214 -0.3525 -0.3251
 9780SOL    HW135432   2.324   9.962   9.989  0.3503  0.7418 -0.3096
 9780SOL    HW235433   2.187  10.013   9.953 -0.3533 -1.1128 -0.3668
 9781SOL     OW35434   0.175   3.594   9.378 -0.0089 -0.2832 -0.0358
 9781SOL    HW135435   0.167   3.520   9.318  1.1085 -0.4557 -0.0073
 9781SOL    HW235436   0.245   3.647   9.339  0.3921 -0.1481  0.8549
 9782SOL     OW35437   1.060   3.439  10.459  0.4168 -0.1864  0.4704
 9782SOL    HW135438   0.989   3.376  10.457  0.3183 -0.0704  0.2541
 9782SOL    HW235439   1.115   3.417  10.384 -0.0314  0.4502 -0.0663
 9783SOL     OW35440   6.525   7.245   1.590  0.1626 -0.1128  0.4523
 9783SOL    HW135441   6.457   7.211   1.532 -1.5384  0.6851  1.8587
 9783SOL    HW235442   6.501   7.210   1.676  0.8820  1.0997  1.1670
 9784SOL     OW35443   5.175   9.463   3.378 -0.6032 -0.2229 -0.3703
 9784SOL    HW135444   5.080   9.460   3.377 -0.5689 -2.5018 -0.7481
 9784SOL    HW235445   5.196   9.516   3.456 -2.1494 -0.1047 -0.0067
 9785SOL     OW35446   3.690   0.324   6.929  0.0959 -0.1709 -0.3788
 9785SOL    HW135447   3.779   0.303   6.900 -0.3203 -1.3429 -0.8736
 9785SOL    HW235448   3.643   0.348   6.849 -0.3263 -0.7002 -0.3009
 9786SOL     OW35449   7.840   5.667   1.527  0.0471 -0.2912  0.1977
 9786SOL    HW135450   7.853   5.597   1.592 -1.5862 -0.0695  0.8117
 9786SOL    HW235451   7.861   5.625   1.443  0.2259 -1.1803  0.6660
 9787SOL     OW35452   8.541   6.992   9.776 -0.3128  0.7515  0.2317
 9787SOL    HW135453   8.561   6.899   9.777 -0.9951  0.5804 -0.8701
 9787SOL    HW235454   8.469   7.002   9.839  0.7709  0.8022  1.5062
 9788SOL     OW35455   2.139   3.794   7.138 -0.5542  0.3118 -0.0632
 9788SOL    HW135456   2.135   3.831   7.226  0.3056  0.3872 -0.0494
 9788SOL    HW235457   2.084   3.715   7.143 -1.6201  1.0565  0.1575
 9789SOL     OW35458   1.025   4.150   0.250  0.3309 -0.6677  1.1853
 9789SOL    HW135459   1.085   4.191   0.187 -0.1900  0.3100  1.3047
 9789SOL    HW235460   1.059   4.061   0.261  1.7038 -0.1712  1.1735
 9790SOL     OW35461  10.344   0.807   7.637  0.7155  0.6138 -0.1552
 9790SOL    HW135462  10.249   0.798   7.635  0.5870  1.7349 -0.0308
 9790SOL    HW235463  10.377   0.722   7.608 -0.3335  0.3840 -0.7413
 9791SOL     OW35464   0.600   4.714   2.665 -0.3003  0.0459  0.1519
 9791SOL    HW135465   0.516   4.761   2.668  0.2513  1.0611  0.1769
 9791SOL    HW235466   0.605   4.681   2.575 -1.2182 -0.9832  0.4520
 9792SOL     OW35467   7.562   0.487   8.228  0.2510 -0.3325 -0.0293
 9792SOL    HW135468   7.591   0.577   8.240  2.4036 -0.9535 -0.1912
 9792SOL    HW235469   7.486   0.493   8.170 -0.0086  1.4016  0.4512
 9793SOL     OW35470   2.801   7.387   0.869 -0.2113 -0.2447 -0.2897
 9793SOL    HW135471   2.889   7.418   0.848  0.5692 -0.8088  1.8725
 9793SOL    HW235472   2.771   7.446   0.938 -0.7544 -1.1998  0.3095
 9794SOL     OW35473   0.691   8.731   0.586  0.1838 -0.0953  0.1138
 9794SOL    HW135474   0.686   8.819   0.548 -2.1033  0.6297  1.8665
 9794SOL    HW235475   0.722   8.745   0.675  1.0684 -1.2464  0.0080
 9795SOL     OW35476   9.066   9.595   4.259 -0.1979  0.6762  0.2493
 9795SOL    HW135477   8.984   9.565   4.220  0.4741  0.3626 -0.9686
 9795SOL    HW235478   9.090   9.673   4.210  0.8495  0.0669 -0.2498
 9796SOL     OW35479   4.567   0.396   3.867 -0.5881  0.4172 -0.1567
 9796SOL    HW135480   4.597   0.357   3.785 -0.1073  4.0892 -1.9439
 9796SOL    HW235481   4.647   0.412   3.917 -0.5544  1.0247 -0.3980
 9797SOL     OW35482   2.317   7.751   1.271  0.7407 -0.0309 -0.1046
 9797SOL    HW135483   2.342   7.754   1.364  0.4950  0.3191 -0.0465
 9797SOL    HW235484   2.400   7.764   1.224  0.8637 -0.1954  0.0638
 9798SOL     OW35485   7.877   2.636   2.829 -0.1884  0.3941  0.1232
 9798SOL    HW135486   7.935   2.709   2.807 -2.6486  2.0823 -1.3808
 9798SOL    HW235487   7.848   2.602   2.744 -0.5449 -1.1191  0.8181
 9799SOL     OW35488   2.248   1.239   3.782  0.0810 -0.0939 -0.2614
 9799SOL    HW135489   2.309   1.296   3.733  1.0683 -0.6488  0.2891
 9799SOL    HW235490   2.162   1.276   3.765  0.6191  1.0233 -0.6587
 9800SOL     OW35491  10.097   0.179   0.334 -0.4804 -0.9034  0.1438
 9800SOL    HW135492  10.097   0.158   0.241  1.4782  1.4120 -0.4719
 9800SOL    HW235493  10.142   0.105   0.375  0.5270 -0.9636 -1.0282
 9801SOL     OW35494   3.988   3.966   5.823  0.1764 -0.1398 -0.9061
 9801SOL    HW135495   3.979   3.937   5.914  0.4127 -1.1660 -1.1983
 9801SOL    HW235496   3.943   3.898   5.772 -0.8229  0.9380 -1.4988
 9802SOL     OW35497   6.547   3.729   0.810  0.3111 -0.9123 -0.8661
 9802SOL    HW135498   6.556   3.669   0.736 -0.5967 -1.7154 -0.3333
 9802SOL    HW235499   6.476   3.693   0.862  0.7407 -0.1849  0.2530
 9803SOL     OW35500   4.287   6.727   2.481 -0.5040 -0.1289  0.2966
 9803SOL    HW135501   4.236   6.793   2.434 -2.5145 -2.5297 -1.1087
 9803SOL    HW235502   4.322   6.670   2.412  1.3245 -0.4962  1.4615
 9804SOL     OW35503   1.857   1.510   1.402 -0.5951  0.3042 -0.0866
 9804SOL    HW135504   1.763   1.525   1.393 -0.7857 -1.4538 -1.5789
 9804SOL    HW235505   1.896   1.551   1.325 -1.0063 -4.8809 -3.5449
 9805SOL     OW35506  10.570   7.369   2.825 -0.1281 -0.1922  0.4950
 9805SOL    HW135507  10.559   7.413   2.741 -1.5509  0.5192  1.0207
 9805SOL    HW235508  10.544   7.435   2.890 -0.2420 -1.1182  1.4133
 9806SOL     OW35509   0.037   2.040   2.188  0.1429 -0.1661  0.0778
 9806SOL    HW135510   0.083   2.038   2.104 -0.3729  2.0649 -0.3233
 9806SOL    HW235511   0.058   2.126   2.224 -1.5772 -0.1424  1.1041
 9807SOL     OW35512   5.753   8.118   9.535 -0.1608 -1.1524 -0.7793
 9807SOL    HW135513   5.763   8.043   9.594  0.4618  0.3451  1.1178
 9807SOL    HW235514   5.838   8.126   9.492 -0.1966 -1.4514 -0.9125
 9808SOL     OW35515   3.432   4.042   7.273 -0.5701 -0.2879 -0.3190
 9808SOL    HW135516   3.348   4.052   7.229 -1.3850  0.1406  1.2789
 9808SOL    HW235517   3.478   4.124   7.257 -0.5756 -0.4024 -0.9333
 9809SOL     OW35518   2.146   0.549   8.154 -0.3226  0.1028  0.5101
 9809SOL    HW135519   2.071   0.493   8.175  0.4067 -0.5754  1.3982
 9809SOL    HW235520   2.124   0.634   8.191 -1.6651  0.6029 -1.2893
 9810SOL     OW35521   1.015   4.751   8.424 -0.0347 -0.4710  0.0320
 9810SOL    HW135522   1.043   4.761   8.333 -0.9950  0.0096 -0.2261
 9810SOL    HW235523   0.926   4.714   8.417 -0.9097  1.4002  0.7098
 9811SOL     OW35524   4.385   6.257   1.910  0.3938 -0.0686 -0.1431
 9811SOL    HW135525   4.362   6.187   1.848 -0.1895 -0.6770  0.7344
 9811SOL    HW235526   4.361   6.221   1.996  0.9016  0.8795  0.4040
 9812SOL     OW35527   4.351   9.304   5.107  0.5256 -0.5429  0.0867
 9812SOL    HW135528   4.269   9.293   5.060  0.0359  1.4281  0.3937
 9812SOL    HW235529   4.348   9.239   5.177  0.4554 -2.2724 -1.4560
 9813SOL     OW35530   5.322  10.897   1.613  0.6425  0.2585 -0.2680
 9813SOL    HW135531   5.300  10.813   1.652  0.7321 -0.4820 -1.7387
 9813SOL    HW235532   5.286  10.962   1.674 -0.5196 -0.8545  0.2820
 9814SOL     OW35533   5.255  10.871   7.146  0.1940 -0.3064  0.0641
 9814SOL    HW135534   5.349  10.865   7.132  0.0973 -1.3248 -0.2536
 9814SOL    HW235535   5.236  10.801   7.209 -0.2495  0.3620  0.6895
 9815SOL     OW35536   6.109   8.590  10.593 -1.0600 -0.2896  0.3274
 9815SOL    HW135537   6.051   8.578  10.518 -1.3171 -0.3344  0.5312
 9815SOL    HW235538   6.144   8.678  10.582  0.3673 -0.9580 -0.8511
 9816SOL     OW35539   9.799   3.189   9.069  0.3118 -0.3730 -0.1212
 9816SOL    HW135540   9.723   3.189   9.011 -0.0458  0.9670  0.3187
 9816SOL    HW235541   9.861   3.249   9.027  1.8942 -2.6985 -1.3700
 9817SOL     OW35542   5.324  10.240   5.337  0.0921  0.1773  0.1531
 9817SOL    HW135543   5.386  10.296   5.290  2.0892 -0.3947  1.9488
 9817SOL    HW235544   5.256  10.220   5.273  2.8155 -0.8662 -2.6825
 9818SOL     OW35545   2.984   2.686   0.186 -0.2296  0.3104 -0.2930
 9818SOL    HW135546   2.961   2.657   0.274  2.0886  1.1381  0.6655
 9818SOL    HW235547   3.069   2.729   0.197 -0.6760  1.9374 -2.6628
 9819SOL     OW35548   9.160   6.139   3.480  0.0170  0.3114 -0.3445
 9819SOL    HW135549   9.217   6.101   3.548  0.4525  0.9222 -0.3583
 9819SOL    HW235550   9.220   6.187   3.423 -0.5057  0.8876 -0.4167
 9820SOL     OW35551   7.253   1.785   0.925  0.2677  0.2380  0.6123
 9820SOL    HW135552   7.206   1.843   0.865  0.4082  0.5989  0.8489
 9820SOL    HW235553   7.273   1.708   0.873  0.3538  0.5333  0.2025
 9821SOL     OW35554   0.580   8.794   9.982 -0.8075  0.0052 -0.2092
 9821SOL    HW135555   0.618   8.789  10.070  1.7538  1.6751 -1.0986
 9821SOL    HW235556   0.498   8.842   9.995 -1.8037 -2.0134  1.5467
 9822SOL     OW35557   1.920   1.188   7.256 -0.2816 -0.3488 -0.6475
 9822SOL    HW135558   1.939   1.095   7.249 -1.2911 -0.6811  0.5884
 9822SOL    HW235559   1.990   1.223   7.312 -1.0599 -0.8172  0.6800
 9823SOL     OW35560   4.348   6.942   0.909 -0.4042 -0.1565  0.3725
 9823SOL    HW135561   4.314   6.900   0.988 -1.9299  1.6051  0.7116
 9823SOL    HW235562   4.272   6.951   0.852  0.7416 -1.7389 -1.5230
 9824SOL     OW35563   6.294   6.647   3.098  0.1408 -0.1741  0.0398
 9824SOL    HW135564   6.324   6.729   3.136  2.1662 -0.5278 -0.6133
 9824SOL    HW235565   6.344   6.639   3.016  0.1208 -2.1092  0.1590
 9825SOL     OW35566   6.662   3.475   9.838  0.7189  0.0248  0.3107
 9825SOL    HW135567   6.661   3.571   9.841 -1.4866  0.0218  1.7183
 9825SOL    HW235568   6.733   3.454   9.777  1.9555  2.5044  0.7756
 9826SOL     OW35569   2.880  10.702   8.737 -0.0725  0.0430 -0.0087
 9826SOL    HW135570   2.830  10.744   8.805  0.6173 -0.6069  0.9306
 9826SOL    HW235571   2.960  10.671   8.781  0.4270 -0.3145 -1.1148
 9827SOL     OW35572   6.566   2.743   9.085  0.3978 -0.4615 -0.5751
 9827SOL    HW135573   6.482   2.752   9.130  0.2790 -0.4923 -0.7927
 9827SOL    HW235574   6.556   2.794   9.004  1.5156  1.9019  0.6508
 9828SOL     OW35575   1.444   1.846   8.573  0.7054 -0.1434 -0.3677
 9828SOL    HW135576   1.472   1.755   8.563 -1.1299 -0.8019 -0.0864
 9828SOL    HW235577   1.350   1.843   8.555 -0.0850  1.0673  2.8317
 9829SOL     OW35578   4.575   8.309   9.722  0.0712 -0.4365 -0.0720
 9829SOL    HW135579   4.523   8.386   9.745 -1.8491 -1.4039 -0.9873
 9829SOL    HW235580   4.650   8.344   9.674 -0.8617  0.8492 -0.6290
 9830SOL     OW35581   2.201   7.708   7.201 -0.0338 -0.7345 -0.2812
 9830SOL    HW135582   2.224   7.676   7.288  0.2639  0.5834  0.1419
 9830SOL    HW235583   2.106   7.699   7.195  0.0363 -1.6108 -0.1509
 9831SOL     OW35584  10.311  10.701  10.710  0.0383 -0.5346  0.7332
 9831SOL    HW135585  10.341  10.663  10.628 -0.0486  0.1883  0.3623
 9831SOL    HW235586  10.215  10.694  10.706  0.0436 -0.7078  0.8796
 9832SOL     OW35587   3.728   3.974  10.167  0.0161  0.1494  0.0512
 9832SOL    HW135588   3.665   3.906  10.141  0.9004  0.4211 -3.2873
 9832SOL    HW235589   3.809   3.925  10.185  0.5843  0.1977 -2.1112
 9833SOL     OW35590   8.121   8.597   2.430  0.8189 -0.4382 -0.1317
 9833SOL    HW135591   8.121   8.513   2.476 -0.3806  0.4626  1.6253
 9833SOL    HW235592   8.192   8.646   2.470  1.4454 -0.5508 -1.0809
 9834SOL     OW35593   7.142   2.444   2.100 -0.1296 -0.0923  0.3736
 9834SOL    HW135594   7.050   2.417   2.098 -0.4368  0.9073  0.7935
 9834SOL    HW235595   7.149   2.513   2.034  0.4923 -0.6661 -0.1779
 9835SOL     OW35596  10.743   2.637   3.220 -0.3525  0.2406 -0.4894
 9835SOL    HW135597  10.737   2.573   3.150  0.9261  0.1252 -0.5098
 9835SOL    HW235598  10.668   2.618   3.277 -0.5877 -0.5697 -1.0560
 9836SOL     OW35599   3.041   0.155   0.237 -0.1633  0.4771  0.2848
 9836SOL    HW135600   3.044   0.079   0.179  2.2647  1.0950 -0.4961
 9836SOL    HW235601   3.097   0.131   0.311  0.8681  1.5509 -0.1062
 9837SOL     OW35602   7.695   5.008   7.080  0.4560 -0.1060 -0.0415
 9837SOL    HW135603   7.611   4.996   7.034  0.2230  0.2855  0.2768
 9837SOL    HW235604   7.700   4.933   7.140 -0.0095  0.2464  0.4511
 9838SOL     OW35605   2.603  10.389   0.604  0.6845 -0.1471  0.4049
 9838SOL    HW135606   2.547  10.374   0.681 -0.0494  1.6692  0.2639
 9838SOL    HW235607   2.549  10.363   0.530  0.9402 -0.7038  0.4053
 9839SOL     OW35608   3.004   2.058   0.509 -0.4835  0.5419  0.0629
 9839SOL    HW135609   2.915   2.093   0.521  0.0256  2.1812 -0.6355
 9839SOL    HW235610   3.024   2.016   0.592 -1.6798  0.6976  0.4620
 9840SOL     OW35611   7.458   4.135   5.723  0.2277 -0.5936 -0.5127
 9840SOL    HW135612   7.413   4.169   5.646 -0.2506 -0.5529 -0.2173
 9840SOL    HW235613   7.471   4.042   5.703  1.5997 -0.2564 -1.3489
 9841SOL     OW35614   8.429   6.250   5.838 -0.5049  0.4945 -0.3978
 9841SOL    HW135615   8.491   6.307   5.884  0.4309 -0.4328 -0.4788
 9841SOL    HW235616   8.428   6.169   5.889 -0.0082 -0.2802 -1.5638
 9842SOL     OW35617   0.465   1.216  10.831 -0.3486 -0.2061 -0.3212
 9842SOL    HW135618   0.547   1.257  10.805  0.3035 -0.7998  0.7328
 9842SOL    HW235619   0.426   1.186  10.749  1.4487 -1.6826 -0.7038
 9843SOL     OW35620   9.309   4.931   0.913  0.3205  0.0868  0.1558
 9843SOL    HW135621   9.340   4.850   0.873 -0.3557 -0.1068  0.0220
 9843SOL    HW235622   9.305   4.912   1.007 -3.9171 -1.5012 -0.1442
 9844SOL     OW35623  10.455   4.255   6.343  0.4717  0.9208  0.2754
 9844SOL    HW135624  10.484   4.327   6.399 -0.0052  1.3157  0.0241
 9844SOL    HW235625  10.376   4.288   6.300  1.0223  0.7704 -0.9094
 9845SOL     OW35626   3.753   8.153   5.796 -0.0232  0.5101 -0.1022
 9845SOL    HW135627   3.764   8.174   5.888 -0.3683 -0.3384  0.1408
 9845SOL    HW235628   3.712   8.230   5.758  1.8353  1.6317  0.0454
 9846SOL     OW35629   5.600   0.999   9.440 -0.5879 -0.4355  0.0727
 9846SOL    HW135630   5.644   1.035   9.363 -0.4794  1.2620  0.8676
 9846SOL    HW235631   5.507   0.997   9.417 -0.4730 -0.7394 -0.3818
 9847SOL     OW35632  10.614  10.133   8.291 -0.0823  0.8975 -0.0780
 9847SOL    HW135633  10.698  10.097   8.316 -0.7676  0.7059  2.1613
 9847SOL    HW235634  10.611  10.125   8.196  2.3189  0.7353 -0.1844
 9848SOL     OW35635   1.530   3.056   0.954 -0.1932 -0.1210  0.3932
 9848SOL    HW135636   1.465   3.093   0.895  2.7414 -0.0043 -3.1366
 9848SOL    HW235637   1.549   3.126   1.016 -1.2016  0.9096 -0.4274
 9849SOL     OW35638   2.649   2.016   6.421 -0.0124  0.2799 -0.0577
 9849SOL    HW135639   2.732   1.970   6.409  2.7430  4.3451  1.2842
 9849SOL    HW235640   2.627   2.049   6.334 -0.1806 -0.6607 -0.3849
 9850SOL     OW35641   2.348   5.343   4.016 -0.2915  0.2659 -0.1208
 9850SOL    HW135642   2.259   5.355   4.049 -0.0101  0.8697  0.4405
 9850SOL    HW235643   2.389   5.429   4.024 -0.1279  0.3818 -1.8637
 9851SOL     OW35644   6.554   7.319   5.420 -0.5155 -0.1190 -0.1866
 9851SOL    HW135645   6.635   7.277   5.447 -0.7674  0.2012  1.1574
 9851SOL    HW235646   6.503   7.248   5.379 -0.6233 -0.9641  1.3438
 9852SOL     OW35647   4.358   2.300   5.764 -0.4773  0.0951 -0.0640
 9852SOL    HW135648   4.332   2.208   5.764  1.1167 -0.4048  0.8916
 9852SOL    HW235649   4.276   2.349   5.772 -1.4612 -1.1715 -1.9591
 9853SOL     OW35650   1.186   0.953   4.693  0.2283  0.2800 -0.5545
 9853SOL    HW135651   1.143   0.968   4.609  1.1219  0.4167 -0.9964
 9853SOL    HW235652   1.173   0.860   4.710 -1.2766  0.5449 -0.0832
 9854SOL     OW35653   5.545  10.896   5.157  0.1665 -0.3112  0.0171
 9854SOL    HW135654   5.532  10.802   5.152  1.0743 -0.4886  0.7551
 9854SOL    HW235655   5.471  10.928   5.210 -0.8146 -0.4246 -1.2315
 9855SOL     OW35656   0.114   9.407   4.045  0.0292 -0.0145 -0.1861
 9855SOL    HW135657   0.115   9.491   4.090  0.5925 -0.8809  1.5097
 9855SOL    HW235658   0.187   9.412   3.982  0.5499  0.4785  0.4486
 9856SOL     OW35659   2.958   8.710   9.440 -0.0491  0.0120  0.6201
 9856SOL    HW135660   2.957   8.772   9.513 -1.2736 -0.1329  0.7484
 9856SOL    HW235661   2.890   8.646   9.462  0.0003 -0.3868 -0.3513
 9857SOL     OW35662   4.209   8.643   7.723 -0.6136 -0.0157  0.2111
 9857SOL    HW135663   4.123   8.669   7.754  0.1213  1.4685  1.1229
 9857SOL    HW235664   4.201   8.642   7.628 -2.1556 -1.9110  0.3112
 9858SOL     OW35665   1.617   8.598   2.145 -0.3822  0.2882 -0.6852
 9858SOL    HW135666   1.702   8.571   2.179 -0.4347  0.7401 -0.1946
 9858SOL    HW235667   1.610   8.554   2.060  0.1275 -0.1378 -0.5094
 9859SOL     OW35668   3.813   2.403  10.432 -0.0288  0.2732 -0.2400
 9859SOL    HW135669   3.851   2.480  10.476 -3.0702  0.9455  1.4726
 9859SOL    HW235670   3.793   2.342  10.503 -0.4037 -0.8418 -1.2748
 9860SOL     OW35671   8.148   4.831   8.103 -0.1827 -0.7986 -0.5450
 9860SOL    HW135672   8.080   4.837   8.036 -0.9662  1.2781  0.3445
 9860SOL    HW235673   8.180   4.741   8.097 -1.2630 -1.1031 -2.6675
 9861SOL     OW35674   1.131   0.108   6.833  0.0198  0.5489  0.0215
 9861SOL    HW135675   1.169   0.030   6.793  0.4572  0.3725  0.7563
 9861SOL    HW235676   1.043   0.115   6.794  0.0993 -0.1205 -0.2868
 9862SOL     OW35677   7.588   7.188   6.025  0.5321 -0.1713 -0.3068
 9862SOL    HW135678   7.538   7.117   6.066  1.4399 -1.7527 -1.7945
 9862SOL    HW235679   7.663   7.200   6.083  0.9891 -1.2976 -0.6251
 9863SOL     OW35680  10.184   2.376   9.992 -0.2966 -0.0412 -0.3693
 9863SOL    HW135681  10.151   2.310  10.051  0.8993 -0.7212 -0.4186
 9863SOL    HW235682  10.189   2.332   9.907  3.1705 -0.9148  0.1148
 9864SOL     OW35683   2.194   5.971   4.766 -0.0471 -0.6893 -0.4963
 9864SOL    HW135684   2.189   5.888   4.813 -0.4848 -0.4966 -0.1953
 9864SOL    HW235685   2.127   5.965   4.699 -1.3806  0.1443  0.7102
 9865SOL     OW35686   1.776   4.686   5.614 -0.0051 -0.0649 -0.7052
 9865SOL    HW135687   1.786   4.778   5.638 -1.0018 -0.0789 -0.1783
 9865SOL    HW235688   1.725   4.648   5.686  1.2558 -1.2743 -0.3976
 9866SOL     OW35689   7.180   0.341   3.625  0.2476 -0.1445  0.2689
 9866SOL    HW135690   7.215   0.253   3.609 -1.5799 -0.9328  0.3368
 9866SOL    HW235691   7.251   0.400   3.600  1.0253 -1.6028 -1.1774
 9867SOL     OW35692   8.925   6.271   0.581 -0.1790  0.5833 -0.2273
 9867SOL    HW135693   8.857   6.215   0.617 -0.1876  1.5049  1.3060
 9867SOL    HW235694   8.893   6.297   0.495 -1.3252  0.2457  0.0914
 9868SOL     OW35695   7.735   4.166   1.371 -0.3432  0.1721 -0.4263
 9868SOL    HW135696   7.785   4.126   1.442 -0.8283  0.6107  0.1878
 9868SOL    HW235697   7.653   4.117   1.369  0.3196 -0.9546 -1.8455
 9869SOL     OW35698   8.510   6.123   3.583  0.8006  0.3528  0.1164
 9869SOL    HW135699   8.525   6.217   3.595  0.2826  0.2994  1.2369
 9869SOL    HW235700   8.424   6.107   3.622  2.1046 -1.1044  2.6732
 9870SOL     OW35701   6.831   6.990   0.124 -0.5067 -0.2563  0.1449
 9870SOL    HW135702   6.812   7.060   0.186 -0.5545  1.3536 -1.5992
 9870SOL    HW235703   6.757   6.991   0.063  0.0028 -1.1179 -0.5031
 9871SOL     OW35704   6.265   0.187   6.050 -0.0105 -0.0115  0.0663
 9871SOL    HW135705   6.202   0.118   6.029  0.7594 -0.5718 -0.4678
 9871SOL    HW235706   6.348   0.155   6.015  0.3216  1.2874 -0.4037
 9872SOL     OW35707   9.232   8.265   3.667 -0.1221 -0.4442 -0.4715
 9872SOL    HW135708   9.313   8.227   3.701  0.7642  0.7477 -1.1598
 9872SOL    HW235709   9.171   8.260   3.740  0.8857 -0.4773  0.3946
 9873SOL     OW35710   8.218   5.819   8.242 -0.6303 -0.5240 -0.1986
 9873SOL    HW135711   8.188   5.811   8.152 -1.5640  0.4511  0.0113
 9873SOL    HW235712   8.299   5.768   8.245 -0.2304 -0.0254 -1.7491
 9874SOL     OW35713   9.427   7.747   5.843  0.5231  0.3985 -0.0856
 9874SOL    HW135714   9.403   7.764   5.934 -0.7849  0.3360 -0.3965
 9874SOL    HW235715   9.356   7.785   5.792  0.3958 -0.9867 -1.0152
 9875SOL     OW35716   7.485   6.177   0.590 -0.0576 -0.3929 -0.0225
 9875SOL    HW135717   7.475   6.213   0.501 -0.1623 -0.2179  0.0600
 9875SOL    HW235718   7.552   6.231   0.630 -0.6801  0.1372  0.3237
 9876SOL     OW35719   1.074   8.162   9.487 -0.2300  0.5098 -0.2177
 9876SOL    HW135720   1.118   8.160   9.572  0.6861  0.3725 -0.6857
 9876SOL    HW235721   1.109   8.241   9.444 -0.8478  0.6969 -0.3846
 9877SOL     OW35722   1.486   2.951   1.245 -0.0521 -0.5764 -0.3260
 9877SOL    HW135723   1.506   3.039   1.216  2.2379 -1.5518 -2.0240
 9877SOL    HW235724   1.434   2.913   1.174 -0.6200 -0.7591  0.1778
 9878SOL     OW35725   0.175   6.835   5.572 -0.3354 -0.6113 -0.1570
 9878SOL    HW135726   0.147   6.755   5.617 -0.4656  0.1673  1.2332
 9878SOL    HW235727   0.267   6.845   5.598 -0.0541 -0.7928 -1.0735
 9879SOL     OW35728   8.045   1.495   6.611 -0.4909  0.0755 -0.2879
 9879SOL    HW135729   8.008   1.432   6.674  1.0145 -0.9101 -0.3295
 9879SOL    HW235730   8.084   1.563   6.665 -0.2003 -0.1823 -0.1664
 9880SOL     OW35731   3.367   5.150   4.426  0.1364  0.3040 -0.0825
 9880SOL    HW135732   3.389   5.078   4.486  0.5034 -1.0508 -1.7503
 9880SOL    HW235733   3.324   5.215   4.481 -2.3982 -2.1918  1.1463
 9881SOL     OW35734   1.074   0.990   2.426  0.0790  0.0740  0.0843
 9881SOL    HW135735   0.995   0.943   2.401 -1.0623  2.0667 -0.2072
 9881SOL    HW235736   1.055   1.026   2.512  0.0715  1.7753 -0.5894
 9882SOL     OW35737   1.124   1.299   9.469 -0.4264  0.2022  0.2606
 9882SOL    HW135738   1.147   1.367   9.533 -0.2180  1.5977 -1.2067
 9882SOL    HW235739   1.039   1.328   9.434  0.4802  0.7259 -1.6373
 9883SOL     OW35740   5.239   6.016   4.293  0.3461 -0.4223 -0.2772
 9883SOL    HW135741   5.277   6.043   4.376 -0.7422  2.2345 -0.5341
 9883SOL    HW235742   5.266   6.084   4.231 -1.9535 -0.2327 -1.1989
 9884SOL     OW35743   5.587   2.229   5.111 -0.3687 -0.1627 -0.0732
 9884SOL    HW135744   5.603   2.170   5.037 -1.0379 -0.4016 -0.0337
 9884SOL    HW235745   5.622   2.314   5.082 -0.3575 -0.3270 -0.5492
 9885SOL     OW35746   0.116   4.244  10.252 -0.6336 -0.3486  0.7967
 9885SOL    HW135747   0.046   4.284  10.303 -0.4746 -1.6788  2.1089
 9885SOL    HW235748   0.197   4.277  10.293 -0.4338  1.2381 -0.7515
 9886SOL     OW35749   2.439   2.953   4.617 -0.6751 -0.4229 -0.1484
 9886SOL    HW135750   2.476   2.873   4.653 -0.2788  0.6103  1.9298
 9886SOL    HW235751   2.515   3.011   4.606 -1.0853  0.0606 -0.4545
 9887SOL     OW35752   1.687   9.912   9.054 -0.5726 -0.0798 -0.6015
 9887SOL    HW135753   1.776   9.941   9.036 -0.9975  0.4948 -1.9679
 9887SOL    HW235754   1.687   9.819   9.031  0.0443 -0.4696  0.8992
 9888SOL     OW35755   7.191   8.205   7.862 -0.3608  0.2088  0.0412
 9888SOL    HW135756   7.207   8.111   7.874 -0.4049  0.4212  2.1088
 9888SOL    HW235757   7.260   8.247   7.913 -0.2607  1.3162 -0.9864
 9889SOL     OW35758   3.050   2.258   5.328  0.1740 -0.2833  0.4341
 9889SOL    HW135759   3.034   2.344   5.368 -1.5900  0.6701 -2.0940
 9889SOL    HW235760   3.064   2.276   5.236 -1.4339 -2.7579 -0.4148
 9890SOL     OW35761   6.890   9.786   4.461 -0.3392 -0.1514 -0.5045
 9890SOL    HW135762   6.885   9.881   4.445  0.9454  0.1988  0.9667
 9890SOL    HW235763   6.799   9.756   4.452 -0.7681  1.2043 -0.9969
 9891SOL     OW35764   9.422   1.596   7.615  0.2092 -0.0735 -0.0345
 9891SOL    HW135765   9.389   1.539   7.684 -1.6497  1.8528  0.7467
 9891SOL    HW235766   9.346   1.612   7.559  1.1910  0.0732 -1.3876
 9892SOL     OW35767   7.019   0.989   8.822  0.2828  0.3348  0.0435
 9892SOL    HW135768   6.961   0.987   8.746  0.9837  0.9885 -0.5223
 9892SOL    HW235769   7.029   1.082   8.842  0.4903  0.1878  0.6331
 9893SOL     OW35770  10.305  10.227   0.124  0.2558 -0.5548  0.7079
 9893SOL    HW135771  10.267  10.236   0.037 -1.0350  1.7283  1.4082
 9893SOL    HW235772  10.387  10.276   0.119  0.8808 -1.5956  0.4412
 9894SOL     OW35773   2.532   2.221   3.988  0.0123 -0.3152 -0.3115
 9894SOL    HW135774   2.527   2.263   4.074 -1.6798  1.3112 -1.1332
 9894SOL    HW235775   2.618   2.247   3.954  1.1595 -1.8407  1.2337
 9895SOL     OW35776   3.966   0.655   6.270  0.3014 -0.5134  0.4789
 9895SOL    HW135777   3.891   0.599   6.290  0.4501 -0.5339  0.9917
 9895SOL    HW235778   3.931   0.722   6.211  0.2383 -1.4513 -0.5872
 9896SOL     OW35779   0.593   9.390   1.830 -0.1360  0.5637  0.0220
 9896SOL    HW135780   0.644   9.471   1.837  0.0210  0.5920 -1.2572
 9896SOL    HW235781   0.614   9.341   1.910  3.4084 -0.2621 -1.2525
 9897SOL     OW35782   4.692   0.245  10.743 -0.0874  0.1990  0.2509
 9897SOL    HW135783   4.667   0.244  10.836 -2.2099 -1.8185 -0.2489
 9897SOL    HW235784   4.780   0.209  10.742  0.5218  1.5407  1.5683
 9898SOL     OW35785   5.193   0.430   5.086  0.1118 -0.1875 -0.7015
 9898SOL    HW135786   5.210   0.409   5.178 -1.3386 -1.6276 -0.7232
 9898SOL    HW235787   5.155   0.517   5.087  1.1041  0.2582 -0.0620
 9899SOL     OW35788   1.231   6.712   7.289  0.0857 -0.0878  0.4255
 9899SOL    HW135789   1.235   6.807   7.279 -0.9374 -0.1690 -1.1206
 9899SOL    HW235790   1.156   6.685   7.235  0.1016 -1.7313  1.1519
 9900SOL     OW35791   9.367   6.910  10.881 -0.0133 -0.2017  0.1877
 9900SOL    HW135792   9.377   6.953  10.966 -0.8954  1.6477 -0.5909
 9900SOL    HW235793   9.374   6.981  10.817 -1.6722 -1.1663 -1.1610
 9901SOL     OW35794   3.071   9.636   4.713  0.0489 -0.0562  0.2631
 9901SOL    HW135795   3.114   9.688   4.781  0.4467  0.4835 -0.3836
 9901SOL    HW235796   3.130   9.563   4.697 -0.4601 -0.6711  1.0981
 9902SOL     OW35797   4.334   4.103   3.602  0.1155  0.5198  0.1166
 9902SOL    HW135798   4.302   4.187   3.567  1.1930  1.3293  0.9902
 9902SOL    HW235799   4.422   4.094   3.566 -0.1905 -0.5198 -0.4011
 9903SOL     OW35800   2.864   4.449   9.218  0.3583 -0.1195 -0.0804
 9903SOL    HW135801   2.852   4.432   9.124 -0.4314  0.0952 -0.0265
 9903SOL    HW235802   2.958   4.459   9.228  0.3615  1.2707 -1.1190
 9904SOL     OW35803   0.803   0.061   9.073  0.2218  0.3075  0.2470
 9904SOL    HW135804   0.863   0.074   9.000  1.6882 -0.0949  1.3248
 9904SOL    HW235805   0.785  -0.033   9.073 -0.0910  0.3668  0.1673
 9905SOL     OW35806   1.729  10.854  10.457  0.1006  1.0173 -0.3466
 9905SOL    HW135807   1.646  10.820  10.490  0.5489  1.5317  1.4291
 9905SOL    HW235808   1.795  10.817  10.516  0.9038  2.3297 -0.3844
 9906SOL     OW35809   0.898   2.672   7.601 -0.7868 -0.6121 -0.0219
 9906SOL    HW135810   0.960   2.610   7.640  0.6285 -0.4203 -1.8719
 9906SOL    HW235811   0.894   2.648   7.509  0.1337  2.2619 -0.9038
 9907SOL     OW35812   6.147   9.780   7.591 -0.2495  0.4892 -0.2605
 9907SOL    HW135813   6.215   9.847   7.593  1.7621 -1.3999 -0.8629
 9907SOL    HW235814   6.194   9.699   7.570 -2.5845 -1.0848  0.1946
 9908SOL     OW35815   5.693  10.386   5.265 -0.0544  0.8857  0.3114
 9908SOL    HW135816   5.641  10.306   5.259 -1.3603  1.7530 -0.6383
 9908SOL    HW235817   5.766  10.371   5.206 -0.5490  0.5590 -0.2330
 9909SOL     OW35818   4.115   9.369   0.617  0.2964  0.2826 -0.5519
 9909SOL    HW135819   4.182   9.308   0.650  1.5505  1.0084 -1.6319
 9909SOL    HW235820   4.150   9.398   0.533 -0.1025  2.7194  0.0629
 9910SOL     OW35821   9.624   0.144   9.451  0.0933  0.2391 -0.4596
 9910SOL    HW135822   9.688   0.165   9.519 -0.1350 -1.4659  0.3600
 9910SOL    HW235823   9.673   0.093   9.387  0.2071  1.4784 -1.3848
 9911SOL     OW35824   2.215   6.169   6.681 -0.3097  0.0829  0.2567
 9911SOL    HW135825   2.272   6.135   6.749  0.6549 -0.1882 -0.6673
 9911SOL    HW235826   2.246   6.128   6.600 -0.0166  2.0584 -0.6828
 9912SOL     OW35827   9.532  10.833  10.028  0.8649  0.2644 -0.5063
 9912SOL    HW135828   9.589  10.908  10.046 -0.1024  1.4770 -2.1870
 9912SOL    HW235829   9.581  10.757  10.060  2.0670  1.5612  0.8569
 9913SOL     OW35830   4.317   1.689   9.415  0.0054  0.4102 -0.3919
 9913SOL    HW135831   4.230   1.707   9.379  0.5192  0.9583 -1.3967
 9913SOL    HW235832   4.378   1.722   9.348  1.0364  3.0655  1.6772
 9914SOL     OW35833   4.222   9.179   9.196 -0.0301 -0.1136  0.7815
 9914SOL    HW135834   4.148   9.235   9.173 -0.5690 -1.3486 -0.6006
 9914SOL    HW235835   4.299   9.228   9.166 -0.3862  0.4578  0.7803
 9915SOL     OW35836   8.141   6.209   0.407 -0.1685  0.6205 -0.2856
 9915SOL    HW135837   8.173   6.295   0.432  1.5758  0.0555 -0.4247
 9915SOL    HW235838   8.097   6.223   0.323 -0.2712  1.4261 -0.1060
 9916SOL     OW35839   8.745   5.733   6.705 -0.1305  0.5629 -0.3142
 9916SOL    HW135840   8.786   5.778   6.779 -0.1748  0.7267 -0.3876
 9916SOL    HW235841   8.652   5.757   6.710 -0.3426 -0.3496  0.2427
 9917SOL     OW35842   0.253   0.711   0.382  0.6175  0.6820  0.5607
 9917SOL    HW135843   0.322   0.756   0.431  0.5392  1.7012 -0.2140
 9917SOL    HW235844   0.286   0.622   0.369  1.5961  1.0292  0.5683
 9918SOL     OW35845   9.022   2.970   8.819  0.1165  0.5571  1.3789
 9918SOL    HW135846   8.936   2.990   8.781  0.0272 -1.1246  0.5979
 9918SOL    HW235847   9.083   2.978   8.745  0.4058  0.2886  1.5879
 9919SOL     OW35848   5.025   9.792   1.415 -1.0348 -0.5828  0.3023
 9919SOL    HW135849   5.062   9.717   1.369 -0.4628  0.0864 -0.3569
 9919SOL    HW235850   5.009   9.857   1.347  0.3925  0.6705  1.0983
 9920SOL     OW35851   6.601   0.550  10.090 -0.1692  0.3467 -0.4635
 9920SOL    HW135852   6.525   0.513  10.136  0.5262 -0.2113  0.2487
 9920SOL    HW235853   6.614   0.636  10.132  0.7550 -0.3561  0.7462
 9921SOL     OW35854   5.146   2.966   0.025  0.5428  0.7424 -0.0331
 9921SOL    HW135855   5.166   2.897   0.089  0.1926 -1.3222 -2.0086
 9921SOL    HW235856   5.050   2.969   0.022  0.5566  0.8011 -0.4608
 9922SOL     OW35857   2.217   4.505  10.133  0.0115  0.6738  0.2361
 9922SOL    HW135858   2.203   4.585  10.183  2.8437  1.7027 -0.4439
 9922SOL    HW235859   2.225   4.535  10.042 -0.2266 -0.5850 -0.2223
 9923SOL     OW35860   6.797   8.812   0.232 -0.8712 -0.4199  0.4442
 9923SOL    HW135861   6.883   8.848   0.210 -1.4762  0.6636 -0.1893
 9923SOL    HW235862   6.815   8.720   0.253  0.7768  0.2587  2.4388
 9924SOL     OW35863   8.838   0.723   7.027  0.5255 -0.4604  0.1545
 9924SOL    HW135864   8.916   0.743   6.976  0.2134 -1.4095 -0.7209
 9924SOL    HW235865   8.781   0.799   7.015  0.5023 -0.6257 -0.8258
 9925SOL     OW35866   5.675   1.468   8.629 -0.0396  0.2161  0.1057
 9925SOL    HW135867   5.712   1.555   8.613 -0.4352  0.4522  0.4344
 9925SOL    HW235868   5.668   1.428   8.543 -0.9711  0.9745 -0.1886
 9926SOL     OW35869   7.577   8.225   9.074 -0.3925 -0.0996  0.1029
 9926SOL    HW135870   7.673   8.228   9.069 -0.2878 -1.0592  1.1655
 9926SOL    HW235871   7.553   8.142   9.033 -0.6618 -0.4629  0.9699
 9927SOL     OW35872   5.471   9.899   3.478  0.2582 -0.3662  0.0417
 9927SOL    HW135873   5.430   9.831   3.425  1.5042 -1.3555  0.2974
 9927SOL    HW235874   5.415   9.905   3.556 -0.9855  0.3600 -0.8753
 9928SOL     OW35875   3.317  10.766   9.970  0.5079 -0.3430 -0.0860
 9928SOL    HW135876   3.302  10.686  10.019 -0.0737 -0.4525 -0.4350
 9928SOL    HW235877   3.358  10.736   9.888 -2.4135 -0.6529 -1.5672
 9929SOL     OW35878   4.237   3.578   0.858 -0.0976  0.1475 -0.4923
 9929SOL    HW135879   4.230   3.488   0.888 -0.3987  0.1258 -0.6258
 9929SOL    HW235880   4.174   3.626   0.913  0.7159  0.4403  0.2137
 9930SOL     OW35881   9.656   3.689   8.336 -0.2316 -0.3443  0.1343
 9930SOL    HW135882   9.675   3.630   8.408 -0.7168 -0.1627  0.4189
 9930SOL    HW235883   9.592   3.642   8.282  1.5340 -1.2737 -1.2401
 9931SOL     OW35884   7.367   2.318   0.447 -0.5980 -0.5656 -0.4161
 9931SOL    HW135885   7.415   2.347   0.525 -0.5950 -1.1266 -0.2029
 9931SOL    HW235886   7.391   2.226   0.438 -3.2551 -1.5043  0.9393
 9932SOL     OW35887   0.859   2.238   5.180 -0.3089 -0.1834  0.1220
 9932SOL    HW135888   0.798   2.172   5.212 -1.2109  0.3667 -0.4183
 9932SOL    HW235889   0.936   2.188   5.153 -2.0045 -1.4136 -2.9320
 9933SOL     OW35890  10.312   2.966   4.179  0.3490  0.1396  0.7677
 9933SOL    HW135891  10.357   2.882   4.179  1.7747  0.8684  1.3834
 9933SOL    HW235892  10.285   2.979   4.088 -0.3922 -1.2244  0.7717
 9934SOL     OW35893   7.207   1.492   9.153  0.0720 -0.3261 -0.5576
 9934SOL    HW135894   7.217   1.403   9.187 -0.1211 -0.8434 -1.8065
 9934SOL    HW235895   7.193   1.546   9.231  0.1928 -1.3819  0.2177
 9935SOL     OW35896   7.230   5.122   4.931 -0.1267  0.4847  0.3628
 9935SOL    HW135897   7.302   5.083   4.980 -0.2101  1.3614  1.2027
 9935SOL    HW235898   7.174   5.048   4.907  0.2553 -0.0291  1.0392
 9936SOL     OW35899  10.849   0.729   3.897 -0.1990 -0.7135 -0.0448
 9936SOL    HW135900  10.931   0.778   3.888 -0.0339 -0.9035  0.4050
 9936SOL    HW235901  10.850   0.696   3.987 -0.9616 -0.3805  0.0899
 9937SOL     OW35902   6.423   0.809   0.487  0.4011 -0.2782 -0.4974
 9937SOL    HW135903   6.397   0.787   0.576  1.2165  1.2075  0.1332
 9937SOL    HW235904   6.340   0.821   0.440 -0.2337  3.2305  1.1951
 9938SOL     OW35905   4.122   5.011   0.771  0.2554 -1.0130  0.1362
 9938SOL    HW135906   4.179   4.938   0.793  0.0175 -0.9383  1.0493
 9938SOL    HW235907   4.065   4.978   0.702  1.6133 -0.9798 -1.0269
 9939SOL     OW35908   2.704   6.415   5.275  0.5652  0.4933  0.2737
 9939SOL    HW135909   2.653   6.351   5.325 -1.2311  1.6219 -0.0108
 9939SOL    HW235910   2.664   6.499   5.296 -0.0378  1.0657 -2.7162
 9940SOL     OW35911   0.088   6.221   6.030  0.2068 -0.1894  0.7464
 9940SOL    HW135912   0.103   6.141   6.080 -0.5028 -0.4199  0.6047
 9940SOL    HW235913   0.042   6.192   5.951  1.3734  0.1595 -0.0936
 9941SOL     OW35914   6.089   6.360   9.904  0.2587 -0.0349  0.5140
 9941SOL    HW135915   6.096   6.444   9.857 -1.5206  0.8492  1.7154
 9941SOL    HW235916   6.103   6.294   9.836 -2.7255  1.1604 -1.4905
 9942SOL     OW35917   7.014   3.284   6.086  0.2676  0.2262  0.1267
 9942SOL    HW135918   7.075   3.357   6.076  1.3427 -0.5697  0.6701
 9942SOL    HW235919   7.057   3.211   6.043 -0.9008 -0.0616 -0.6138
 9943SOL     OW35920   0.540   3.563   8.946 -0.2048  0.2468  0.1289
 9943SOL    HW135921   0.536   3.497   8.877 -1.2320  0.5460 -0.1083
 9943SOL    HW235922   0.454   3.606   8.944 -0.7410 -0.5689  2.4195
 9944SOL     OW35923   0.987   9.939   9.776  0.1289 -0.1304 -0.3026
 9944SOL    HW135924   0.901   9.928   9.817 -0.3768  1.0438 -0.9787
 9944SOL    HW235925   1.031   9.855   9.789 -1.7765 -1.3834 -1.4609
 9945SOL     OW35926   9.432   3.778   0.103  0.0265  0.3055  0.3360
 9945SOL    HW135927   9.518   3.821   0.101 -0.1309  0.6034 -0.1719
 9945SOL    HW235928   9.428   3.729   0.021 -0.9891  1.6888 -0.4841
 9946SOL     OW35929   2.059   1.430   9.479  0.0994  0.7705  0.2084
 9946SOL    HW135930   2.005   1.378   9.538 -0.4050  2.0240  0.8940
 9946SOL    HW235931   2.009   1.437   9.399  0.3876 -0.1840 -0.0697
 9947SOL     OW35932   4.164   7.444   9.395  0.3557 -0.3531 -0.4147
 9947SOL    HW135933   4.256   7.418   9.388 -0.2190 -2.4451 -0.9404
 9947SOL    HW235934   4.157   7.520   9.337  1.8279  0.1355 -0.0118
 9948SOL     OW35935   1.377   6.404   6.424  0.4926 -0.1265 -0.5514
 9948SOL    HW135936   1.288   6.375   6.404  0.0273  0.8713 -0.0263
 9948SOL    HW235937   1.410   6.439   6.341 -0.2079  0.9741 -0.3838
 9949SOL     OW35938   5.192   8.022   7.844  0.0890 -0.1930  1.0442
 9949SOL    HW135939   5.249   8.002   7.770 -0.6440  0.3538  0.3013
 9949SOL    HW235940   5.245   8.079   7.900 -0.2325  1.7535 -0.4966
 9950SOL     OW35941   8.461   6.348   4.129  0.1884  0.2105 -0.0355
 9950SOL    HW135942   8.545   6.300   4.128  0.2741  0.3558  0.2300
 9950SOL    HW235943   8.423   6.329   4.043  0.5901  0.3131 -0.2425
 9951SOL     OW35944   1.366   9.297   9.617  0.0168  0.4557 -0.3970
 9951SOL    HW135945   1.276   9.314   9.590 -0.1445  1.1872  0.5640
 9951SOL    HW235946   1.370   9.203   9.633 -0.2494  0.2244 -1.5658
 9952SOL     OW35947   3.032   7.043   7.047  0.1237 -0.3517 -0.0393
 9952SOL    HW135948   3.097   7.113   7.051 -1.6953  1.3953  3.5300
 9952SOL    HW235949   2.965   7.075   6.987 -0.2567  0.6540  0.8855
 9953SOL     OW35950   5.769   1.570   1.032  0.4364 -0.1448 -0.3554
 9953SOL    HW135951   5.811   1.619   1.103  1.2393 -0.7408 -0.4111
 9953SOL    HW235952   5.757   1.635   0.962 -3.3367  1.3474  1.3774
 9954SOL     OW35953  10.270   5.601   6.932 -0.8474  0.0199 -0.2845
 9954SOL    HW135954  10.323   5.530   6.969 -0.4170  0.2618 -0.4324
 9954SOL    HW235955  10.218   5.558   6.864 -1.4188 -0.3661  0.3823
 9955SOL     OW35956   5.608   6.222  10.586  0.4650 -0.3151 -0.1868
 9955SOL    HW135957   5.546   6.156  10.616  1.4908 -1.7593 -1.0781
 9955SOL    HW235958   5.555   6.284  10.536 -0.3318 -1.2452 -0.5238
 9956SOL     OW35959   6.613   6.538  10.728 -0.5169  0.1707  0.7674
 9956SOL    HW135960   6.631   6.526  10.635 -1.1852  0.3215  0.6109
 9956SOL    HW235961   6.590   6.450  10.759 -1.1978  0.2764  0.5794
 9957SOL     OW35962   7.852   4.748   8.840 -0.6309  0.3748 -0.2603
 9957SOL    HW135963   7.907   4.710   8.909 -0.7826  0.1905 -0.2411
 9957SOL    HW235964   7.773   4.695   8.839 -0.5107  0.1958 -0.7709
 9958SOL     OW35965   3.964   8.871   4.853  0.2938 -0.0198 -0.1564
 9958SOL    HW135966   3.925   8.881   4.940 -0.0148  0.8127 -0.3795
 9958SOL    HW235967   4.016   8.951   4.842  0.4484 -0.1913 -0.6807
 9959SOL     OW35968   2.841   1.125  10.213 -0.0671  0.3366 -0.6971
 9959SOL    HW135969   2.753   1.143  10.180 -0.3292 -0.3979 -0.4111
 9959SOL    HW235970   2.897   1.132  10.136 -0.2000  1.9028 -0.6961
 9960SOL     OW35971   4.789   5.187   0.533  0.3564  0.3222  0.0557
 9960SOL    HW135972   4.874   5.229   0.543  1.1121 -1.0346 -0.5280
 9960SOL    HW235973   4.783   5.167   0.440 -0.1732 -0.4917  0.2564
 9961SOL     OW35974   1.693   5.026   8.953 -0.6488 -0.3204  0.1304
 9961SOL    HW135975   1.707   4.962   9.023 -1.1921 -1.1181 -0.4700
 9961SOL    HW235976   1.616   5.076   8.981  0.1907  0.5492  0.9307
 9962SOL     OW35977   1.559   3.708   1.110  0.1946 -0.2523  0.3752
 9962SOL    HW135978   1.532   3.793   1.077 -1.3255  0.5088  3.2485
 9962SOL    HW235979   1.478   3.665   1.137  1.0306 -2.2056 -0.0237
 9963SOL     OW35980   4.998   5.933   4.038  0.5739  0.4469 -0.4821
 9963SOL    HW135981   5.043   5.934   4.122 -0.2816 -0.6842  0.0109
 9963SOL    HW235982   4.950   6.015   4.036 -0.7988 -0.2757  0.9411
 9964SOL     OW35983   6.443   3.709   6.811  0.2762  0.2945  0.0763
 9964SOL    HW135984   6.377   3.778   6.810  0.3904  0.4869 -3.2431
 9964SOL    HW235985   6.399   3.634   6.770  1.6306 -0.0253 -0.8346
 9965SOL     OW35986   2.419   7.475   2.270 -0.8160  0.2913  0.2635
 9965SOL    HW135987   2.415   7.531   2.347  0.6180  2.2167 -0.9649
 9965SOL    HW235988   2.331   7.481   2.232 -0.8129  1.3798  0.3964
 9966SOL     OW35989   6.654   2.132   3.092  0.0803  0.2739 -1.0799
 9966SOL    HW135990   6.584   2.100   3.149  0.1978  0.9813 -0.5205
 9966SOL    HW235991   6.613   2.140   3.006 -0.7613  1.4458 -0.5982
 9967SOL     OW35992   0.137   2.393   0.091 -0.1801  0.3713  0.3842
 9967SOL    HW135993   0.088   2.338   0.030 -1.7338  1.6885  0.3789
 9967SOL    HW235994   0.141   2.479   0.048  0.8922  0.6851  1.0474
 9968SOL     OW35995   1.738   5.193   0.935  0.3366 -0.4253 -0.3722
 9968SOL    HW135996   1.784   5.124   0.886  1.1060  0.9588 -1.6952
 9968SOL    HW235997   1.775   5.275   0.902 -3.5794  0.8929 -2.2078
 9969SOL     OW35998   1.434  10.151   3.147  0.1611  0.2260  0.6237
 9969SOL    HW135999   1.342  10.139   3.123  0.6655 -0.7188 -1.0024
 9969SOL    HW236000   1.480  10.154   3.063  1.7728 -0.7428  1.4347
 9970SOL     OW36001   3.828   6.347   4.533  0.6697 -0.0346  0.5843
 9970SOL    HW136002   3.905   6.296   4.510  0.9926  0.4965  0.4905
 9970SOL    HW236003   3.855   6.438   4.526 -0.2380  0.1791 -0.4110
 9971SOL     OW36004   4.975   1.319   0.637 -0.4317  0.6439 -0.6558
 9971SOL    HW136005   5.044   1.253   0.646  0.3560  1.1022 -2.7286
 9971SOL    HW236006   4.932   1.321   0.722  1.7928 -0.0057  0.5496
 9972SOL     OW36007   8.280   8.323   1.330 -0.3080 -0.0936  0.8818
 9972SOL    HW136008   8.372   8.304   1.310  0.2600  1.6691  1.6319
 9972SOL    HW236009   8.283   8.399   1.387 -2.1584 -1.2449  2.6618
 9973SOL     OW36010   0.974   5.143   4.966  0.3652  0.2457  0.1578
 9973SOL    HW136011   1.017   5.224   4.994  0.0763  0.2827  0.4949
 9973SOL    HW236012   0.982   5.144   4.870 -0.0515  0.9085  0.1210
 9974SOL     OW36013   9.759   5.707   4.658  0.0005  0.3256  0.4824
 9974SOL    HW136014   9.736   5.800   4.651 -3.5437 -0.3778  0.4614
 9974SOL    HW236015   9.733   5.683   4.747 -0.4859 -0.9057  0.0371
 9975SOL     OW36016   6.374  10.232   6.340  0.6055 -0.4508 -0.9538
 9975SOL    HW136017   6.364  10.249   6.246  1.5478 -0.8742 -1.1455
 9975SOL    HW236018   6.340  10.143   6.352 -1.2175  0.2507 -0.5441
 9976SOL     OW36019   5.402   5.956   1.583 -0.4939  0.0775 -0.2452
 9976SOL    HW136020   5.339   5.984   1.516  0.5106  0.9322 -0.8730
 9976SOL    HW236021   5.462   6.030   1.591  1.8573 -1.5731 -1.4502
 9977SOL     OW36022   3.126   2.019  10.311 -0.3082 -0.2290  0.4459
 9977SOL    HW136023   3.064   1.953  10.282 -0.2919  1.2038 -3.4464
 9977SOL    HW236024   3.211   1.989  10.277 -0.0054  0.9095  0.1544
 9978SOL     OW36025   0.804   4.143   2.415 -0.0513  0.3335 -0.0898
 9978SOL    HW136026   0.812   4.112   2.325  2.0162  0.5943 -0.0401
 9978SOL    HW236027   0.711   4.135   2.435 -0.4229 -0.5028 -1.9620
 9979SOL     OW36028   3.786   1.839   3.141  0.1175 -0.1437 -0.6290
 9979SOL    HW136029   3.725   1.775   3.178 -0.2976  0.3519 -0.4503
 9979SOL    HW236030   3.861   1.787   3.112 -0.3743 -0.7463 -0.8132
 9980SOL     OW36031   6.924   3.591   0.371 -0.2928  0.3673  0.5847
 9980SOL    HW136032   7.006   3.636   0.388  0.6176 -0.7188 -0.7262
 9980SOL    HW236033   6.915   3.591   0.275 -2.1219  0.9677  0.7042
 9981SOL     OW36034   0.409   9.925   0.548  0.7601  0.0349 -0.5989
 9981SOL    HW136035   0.475   9.880   0.497  1.3965  1.4233 -1.0486
 9981SOL    HW236036   0.455   9.999   0.588 -0.5365  1.1740 -1.1139
 9982SOL     OW36037   8.643   2.536   9.753  0.2295  0.6965  0.2988
 9982SOL    HW136038   8.728   2.552   9.712 -0.3674  1.4591 -0.6951
 9982SOL    HW236039   8.584   2.597   9.709 -1.2074 -1.0615 -0.3064
 9983SOL     OW36040   3.700   2.369   4.973 -0.5237 -0.1754 -1.0412
 9983SOL    HW136041   3.617   2.414   4.958 -0.5993  0.4938  1.0759
 9983SOL    HW236042   3.767   2.436   4.958 -0.5229  0.0518 -0.0674
 9984SOL     OW36043   4.275   6.158  10.234 -0.4134 -0.0482  0.6603
 9984SOL    HW136044   4.269   6.125  10.144 -0.8034 -1.0360  1.0278
 9984SOL    HW236045   4.186   6.152  10.268  0.0524 -1.6618  1.7509
 9985SOL     OW36046   3.282   1.626   0.413  0.5216  0.4535  0.5221
 9985SOL    HW136047   3.335   1.548   0.396 -0.8027 -0.0410 -1.9450
 9985SOL    HW236048   3.317   1.692   0.354 -0.6219  0.5737 -0.0435
 9986SOL     OW36049   3.425   4.882   4.939 -0.3912  0.6618 -0.2047
 9986SOL    HW136050   3.393   4.967   4.971  0.2966  1.8971 -2.5391
 9986SOL    HW236051   3.350   4.843   4.895 -0.4101  0.5657 -0.0880
 9987SOL     OW36052   4.688   9.198   5.205  0.2985 -0.0947  0.0694
 9987SOL    HW136053   4.774   9.168   5.234  0.4579  0.5588  0.2852
 9987SOL    HW236054   4.637   9.208   5.285  1.1511  3.0167  0.3743
 9988SOL     OW36055   7.262   5.275   6.889  0.3585 -0.2508  0.4305
 9988SOL    HW136056   7.174   5.246   6.865  0.6513 -0.3906 -0.4951
 9988SOL    HW236057   7.270   5.253   6.982 -0.1706 -1.2756  0.2416
 9989SOL     OW36058   5.553   0.153   9.052  0.3537  0.6026 -0.4478
 9989SOL    HW136059   5.647   0.148   9.068  0.4606  1.5073 -0.7150
 9989SOL    HW236060   5.546   0.194   8.966 -0.2786 -0.1204 -0.7526
 9990SOL     OW36061   1.866   1.429   6.399 -0.4360  0.0358  0.2851
 9990SOL    HW136062   1.944   1.374   6.396 -0.9172 -0.6860  0.3633
 9990SOL    HW236063   1.851   1.444   6.493  0.1973  1.0622  0.2301
 9991SOL     OW36064   7.363   4.744   8.235 -0.1065  0.0152 -0.5868
 9991SOL    HW136065   7.363   4.822   8.290 -0.3579 -1.6081  1.8798
 9991SOL    HW236066   7.437   4.756   8.176 -0.2212  2.1485 -0.3730
 9992SOL     OW36067   9.644   9.024  10.238 -0.3779 -0.4612 -0.6490
 9992SOL    HW136068   9.696   9.017  10.159  1.1121 -0.7664  0.3183
 9992SOL    HW236069   9.692   9.085  10.293 -0.5805 -1.3753  0.5972
 9993SOL     OW36070   3.690   6.315   0.769  0.6808  0.6707 -0.0325
 9993SOL    HW136071   3.718   6.253   0.702 -0.8233 -0.2689  0.1849
 9993SOL    HW236072   3.710   6.401   0.731  0.8022  0.1279 -1.2372
 9994SOL     OW36073   8.672   0.781   0.743 -0.2939  0.3283  0.4831
 9994SOL    HW136074   8.623   0.778   0.825  1.6792 -1.8020  1.7089
 9994SOL    HW236075   8.663   0.871   0.712 -2.1362  0.8542  2.3648
 9995SOL     OW36076   4.799  10.201   0.456  0.0171  0.0895 -0.5742
 9995SOL    HW136077   4.843  10.155   0.526  0.5962  0.7767 -0.4749
 9995SOL    HW236078   4.831  10.160   0.375 -0.5234 -0.5878 -0.4558
 9996SOL     OW36079   1.518   8.283   8.552 -0.2468 -0.0177 -0.1881
 9996SOL    HW136080   1.524   8.188   8.552 -0.1398 -0.0133 -0.9013
 9996SOL    HW236081   1.497   8.305   8.643  1.3786 -0.6061  0.3737
 9997SOL     OW36082   9.266   6.398  10.598  0.0750  0.4079 -0.2010
 9997SOL    HW136083   9.273   6.490  10.623 -1.4042  0.9435 -1.5996
 9997SOL    HW236084   9.217   6.357  10.669  1.0228  0.5855  0.5883
 9998SOL     OW36085   4.486   3.269   6.512 -0.2042 -0.1110  0.2562
 9998SOL    HW136086   4.450   3.317   6.587 -0.0629 -0.3658  0.4899
 9998SOL    HW236087   4.526   3.191   6.551 -0.3630 -0.3772 -0.1111
 9999SOL     OW36088   4.409   5.015   8.010  0.7887 -0.5007 -0.1165
 9999SOL    HW136089   4.413   5.108   7.991  2.6869 -0.2734  1.0628
 9999SOL    HW236090   4.318   4.991   7.998  0.6918  0.9368 -2.9461
10000SOL     OW36091  10.303  10.111   4.745 -0.6034  0.4182  0.1820
10000SOL    HW136092  10.281  10.142   4.833  0.4680 -0.6149  0.8356
10000SOL    HW236093  10.395  10.133   4.734 -0.6068  0.1054 -0.5061
10001SOL     OW36094   5.255   2.326   8.965  0.6582  0.1833  0.2136
10001SOL    HW136095   5.301   2.404   8.934 -1.2371  2.0273  1.7875
10001SOL    HW236096   5.177   2.321   8.910  1.4056 -1.4446 -0.7613
10002SOL     OW36097   7.617   8.157   2.836  0.1319  0.1960 -0.2914
10002SOL    HW136098   7.563   8.213   2.781  1.2222  2.0088  0.3998
10002SOL    HW236099   7.607   8.069   2.798 -1.4682  0.8694 -1.5290
10003SOL     OW36100   1.970   4.062   4.497  0.0536  0.4954  0.3032
10003SOL    HW136101   1.891   4.010   4.484 -0.1726  0.3604  1.9429
10003SOL    HW236102   2.002   4.036   4.583  1.3674  1.2312  0.0678
10004SOL     OW36103   9.891   1.786   9.795 -0.2768 -0.1564 -0.1015
10004SOL    HW136104   9.923   1.811   9.882  0.7466  0.7566 -0.7017
10004SOL    HW236105   9.903   1.691   9.791  0.1892 -0.1366  0.5651
10005SOL     OW36106  10.282   8.184   1.940  0.6481 -0.0793 -0.4360
10005SOL    HW136107  10.283   8.096   1.977  0.6253 -0.5626 -1.5490
10005SOL    HW236108  10.190   8.211   1.944  0.7181  0.0742  0.2947
10006SOL     OW36109  10.772   8.137   1.353 -0.1268  0.3013 -0.4090
10006SOL    HW136110  10.791   8.230   1.338 -0.9765  0.6155  0.3364
10006SOL    HW236111  10.853   8.092   1.330  1.4408  1.5302  2.1901
10007SOL     OW36112   1.917   0.523   8.562  0.1276 -0.0138 -0.2811
10007SOL    HW136113   1.945   0.556   8.647  1.0271 -2.7426  0.5916
10007SOL    HW236114   1.994   0.481   8.525 -1.4090 -3.4346 -0.0200
10008SOL     OW36115   0.664   4.982   7.989  0.3717  0.8099  0.4059
10008SOL    HW136116   0.589   4.945   7.943  0.6524 -0.1332  0.7017
10008SOL    HW236117   0.666   5.074   7.961 -0.7398  0.7857  0.1994
10009SOL     OW36118   2.929   7.919   3.760 -0.3951  0.1302 -0.3332
10009SOL    HW136119   3.008   7.869   3.738  0.3045  1.6581 -1.4191
10009SOL    HW236120   2.919   7.908   3.855  0.5868 -0.8155 -0.3202
10010SOL     OW36121   9.420   1.232   3.785  0.0648 -0.2880 -0.0802
10010SOL    HW136122   9.444   1.307   3.730 -0.9499  0.2188  0.1400
10010SOL    HW236123   9.477   1.162   3.756 -0.4217 -0.0336 -1.7869
10011SOL     OW36124  10.418   2.845   1.709  0.1585 -0.5453 -0.0494
10011SOL    HW136125  10.379   2.761   1.685  0.5100 -0.6767 -0.1657
10011SOL    HW236126  10.492   2.822   1.765 -1.6426 -0.2109  2.6962
10012SOL     OW36127   5.890   7.179   0.184  0.4333 -0.2663 -0.2974
10012SOL    HW136128   5.819   7.160   0.123 -0.3167  0.4405  0.3454
10012SOL    HW236129   5.857   7.250   0.239  0.9225 -1.1879  1.2507
10013SOL     OW36130  10.375   0.429   9.236 -0.3283 -0.1492  0.3370
10013SOL    HW136131  10.346   0.344   9.268  0.5000 -0.9502 -0.9581
10013SOL    HW236132  10.423   0.410   9.156 -1.5433  1.6898 -0.9240
10014SOL     OW36133   9.758   0.400   7.185 -0.3154 -0.0305  0.1235
10014SOL    HW136134   9.844   0.442   7.190  0.0209 -0.3180 -2.1681
10014SOL    HW236135   9.697   0.465   7.219  0.7506  0.2123  1.7256
10015SOL     OW36136   4.058   7.617   1.149  0.0761 -0.0027  0.2933
10015SOL    HW136137   4.057   7.524   1.128 -2.9189 -0.4359  1.8666
10015SOL    HW236138   3.987   7.655   1.096  0.4631  1.1743  0.5821
10016SOL     OW36139   0.349   1.755   2.084  0.9361  0.1476 -0.5850
10016SOL    HW136140   0.337   1.848   2.065  0.7431  0.3359  0.4151
10016SOL    HW236141   0.439   1.748   2.114  0.9137  0.0295 -0.5436
10017SOL     OW36142   8.207   7.770   8.905 -0.7687  0.0388  0.5445
10017SOL    HW136143   8.171   7.761   8.817 -1.2391 -1.6582  0.8575
10017SOL    HW236144   8.269   7.698   8.912  0.4067  1.0764  1.0894
10018SOL     OW36145   4.450   8.991   5.568  0.0752 -0.6191  0.0157
10018SOL    HW136146   4.420   9.000   5.658  1.5264  0.5013  0.4395
10018SOL    HW236147   4.397   8.920   5.531 -1.1323 -0.5230  1.4757
10019SOL     OW36148   2.577  10.108   3.755  0.2875  0.1904  0.5345
10019SOL    HW136149   2.574  10.145   3.666 -1.3329  1.4753  1.0721
10019SOL    HW236150   2.571  10.014   3.742  4.3864 -0.0798 -0.8967
10020SOL     OW36151   4.133   9.519   2.847 -0.0719  0.0962 -0.4686
10020SOL    HW136152   4.117   9.612   2.829 -0.1853 -0.1008 -1.4232
10020SOL    HW236153   4.209   9.497   2.795  1.2092  0.1235  1.2969
10021SOL     OW36154   1.354   4.698   1.226 -0.0324  0.2295 -0.0491
10021SOL    HW136155   1.353   4.793   1.220 -2.2866  0.2522 -0.2454
10021SOL    HW236156   1.402   4.670   1.148  2.4286  1.1856  1.0321
10022SOL     OW36157   3.383   6.812   9.368  0.5892 -0.2286  0.2788
10022SOL    HW136158   3.388   6.720   9.344  0.7262  0.5736 -3.4701
10022SOL    HW236159   3.292   6.836   9.352  1.0026  0.6828 -0.9330
10023SOL     OW36160   5.538   9.290   8.187 -0.0197 -0.0614 -0.4147
10023SOL    HW136161   5.453   9.251   8.206  1.3185 -1.9878  2.1918
10023SOL    HW236162   5.560   9.341   8.265  1.6676 -0.5574 -0.5057
10024SOL     OW36163   2.626   1.702   2.115  0.0741 -0.6767 -0.0172
10024SOL    HW136164   2.716   1.674   2.132  0.8236  1.8645  0.6510
10024SOL    HW236165   2.575   1.665   2.188  0.7085 -1.4555  0.0425
10025SOL     OW36166   1.100   8.911   0.651 -0.2230 -0.1538  0.2693
10025SOL    HW136167   1.109   8.816   0.657  0.9844 -0.0709  0.1529
10025SOL    HW236168   1.067   8.927   0.563 -0.2458 -0.4558  0.2230
10026SOL     OW36169   9.675   7.715   5.205 -0.4025 -0.2491 -0.0932
10026SOL    HW136170   9.615   7.643   5.226 -2.0345  0.5987 -1.5861
10026SOL    HW236171   9.727   7.682   5.132 -0.4600 -0.2688 -0.1258
10027SOL     OW36172   6.519   7.109   0.482 -0.5011  0.3784 -0.5149
10027SOL    HW136173   6.498   7.021   0.514  0.2178  0.3208 -0.1900
10027SOL    HW236174   6.549   7.157   0.560  1.5429  0.1511 -1.1035
10028SOL     OW36175   9.160   1.439   0.299 -0.1862  0.2375  0.4159
10028SOL    HW136176   9.193   1.448   0.209 -2.2826 -1.6879 -0.6557
10028SOL    HW236177   9.159   1.345   0.314 -3.1556  0.3037  1.0995
10029SOL     OW36178   2.143   7.635   4.365 -0.2373 -1.1571  0.4252
10029SOL    HW136179   2.054   7.665   4.382 -0.7755 -2.8659  0.8257
10029SOL    HW236180   2.192   7.715   4.344 -1.5220 -0.0129  1.6005
10030SOL     OW36181   7.784   2.837   7.915  0.4260  0.3236  0.2087
10030SOL    HW136182   7.790   2.930   7.937  0.4514 -0.2921  3.1745
10030SOL    HW236183   7.875   2.810   7.901  0.8403  0.0636  2.8970
10031SOL     OW36184   7.514   1.659   9.658  0.0649 -0.2295 -0.3574
10031SOL    HW136185   7.559   1.608   9.726 -1.5975  0.0695  1.0450
10031SOL    HW236186   7.523   1.750   9.686 -0.3320 -0.0731 -0.7174
10032SOL     OW36187  10.251  10.253   1.491  0.2755 -0.2516 -0.3314
10032SOL    HW136188  10.167  10.292   1.512  0.5934 -0.2150  0.9228
10032SOL    HW236189  10.277  10.205   1.569  2.5145  1.6927  0.2518
10033SOL     OW36190  10.316   4.822  10.490 -0.3311 -0.2830  0.2211
10033SOL    HW136191  10.245   4.836  10.553 -2.0174  0.6697 -1.7855
10033SOL    HW236192  10.392   4.862  10.531 -0.7473 -1.7194  2.6514
10034SOL     OW36193   4.711   9.507   5.669 -0.4321  0.3578  0.4753
10034SOL    HW136194   4.674   9.564   5.602 -1.5423 -0.9278 -0.0553
10034SOL    HW236195   4.805   9.513   5.657 -0.5201  2.0088  0.4001
10035SOL     OW36196   5.143   4.679   0.990 -0.4362 -0.0018  0.1898
10035SOL    HW136197   5.227   4.637   0.970 -0.6109 -0.6926  0.8705
10035SOL    HW236198   5.162   4.772   0.985  0.4320 -0.1429  0.5293
10036SOL     OW36199   1.454   0.051   5.968 -0.4527  0.3592  0.5407
10036SOL    HW136200   1.524  -0.009   5.944 -1.4492  0.5181 -3.3760
10036SOL    HW236201   1.384  -0.006   6.000  0.9275  0.1352  3.5178
10037SOL     OW36202  10.577   8.254   7.046 -0.2735 -0.1560  0.2540
10037SOL    HW136203  10.524   8.322   7.087  0.4637  0.5847  0.0088
10037SOL    HW236204  10.661   8.296   7.029  0.9250 -1.7165  1.9630
10038SOL     OW36205   7.578  10.308   9.290  0.5749  0.0662  0.2000
10038SOL    HW136206   7.522  10.355   9.353  0.5911  0.9268 -0.4096
10038SOL    HW236207   7.522  10.296   9.213  2.0142  3.6117 -1.6121
10039SOL     OW36208   8.247   8.784   3.802 -0.5370  0.2800  0.3377
10039SOL    HW136209   8.197   8.864   3.790  1.0833  1.4806  1.2250
10039SOL    HW236210   8.215   8.725   3.733 -0.1367  2.5189 -1.9107
10040SOL     OW36211   3.340   6.516   5.317 -0.4536 -0.1130  0.4330
10040SOL    HW136212   3.296   6.600   5.329  0.4589  0.5383 -0.5803
10040SOL    HW236213   3.299   6.478   5.240 -0.5047 -0.3569  0.5788
10041SOL     OW36214   5.525   3.391   1.814  0.1438 -0.0932  0.6328
10041SOL    HW136215   5.475   3.320   1.853  0.3213  0.1870  1.3862
10041SOL    HW236216   5.611   3.385   1.855  1.4058 -1.7371 -1.9958
10042SOL     OW36217   1.113   7.199  10.783 -0.7113  0.3870  0.2525
10042SOL    HW136218   1.029   7.191  10.828 -1.0522 -3.6308 -0.7436
10042SOL    HW236219   1.148   7.110  10.781  1.1592  0.9890 -3.7910
10043SOL     OW36220   8.408   0.101   4.730  0.0238 -0.3129 -0.0751
10043SOL    HW136221   8.344   0.171   4.718  0.4348  0.1021  0.1158
10043SOL    HW236222   8.492   0.142   4.708  0.2795 -0.7203  0.1362
10044SOL     OW36223  10.665   2.159   5.907 -0.2698 -0.1124  0.1191
10044SOL    HW136224  10.758   2.154   5.926 -0.3571 -0.5562  0.4415
10044SOL    HW236225  10.637   2.068   5.897 -0.2609  0.0574 -1.9960
10045SOL     OW36226   5.121   2.478   3.305  0.2900 -0.0643 -0.3276
10045SOL    HW136227   5.169   2.560   3.293  1.4772 -0.7037 -0.1574
10045SOL    HW236228   5.114   2.469   3.400 -0.0513 -0.0401 -0.3512
10046SOL     OW36229   6.856  10.810   2.884  0.8721 -0.0107  0.0450
10046SOL    HW136230   6.912  10.846   2.953 -1.7325  0.4466  2.0793
10046SOL    HW236231   6.796  10.752   2.930 -0.5173 -0.2538 -1.9690
10047SOL     OW36232   9.519   0.463   6.059  0.1153  0.4067  0.6680
10047SOL    HW136233   9.582   0.400   6.025 -0.4217  0.4100 -0.3631
10047SOL    HW236234   9.506   0.436   6.150  0.9030 -0.1444  0.6299
10048SOL     OW36235   4.651   8.809   2.969 -0.0095  0.3891 -0.3800
10048SOL    HW136236   4.668   8.884   3.026 -1.9759  0.3307  0.3705
10048SOL    HW236237   4.595   8.845   2.900 -0.7454 -0.3275 -0.1637
10049SOL     OW36238   5.642   8.365   8.968 -0.5058 -0.0755 -0.3044
10049SOL    HW136239   5.632   8.450   8.926 -1.0296  1.0472  1.9534
10049SOL    HW236240   5.696   8.382   9.045 -0.7295 -1.7578  0.2661
10050SOL     OW36241   2.841   7.114   4.325  0.2449 -0.4129  0.2388
10050SOL    HW136242   2.751   7.102   4.296  0.0501  0.0884  0.6205
10050SOL    HW236243   2.837   7.107   4.420  0.8803 -2.0554  0.1747
10051SOL     OW36244  10.008  10.803   6.400 -0.0106  0.2619  0.1938
10051SOL    HW136245  10.011  10.725   6.345 -1.3167  0.0808  0.3667
10051SOL    HW236246  10.098  10.813   6.432  0.0703 -1.4674  0.5874
10052SOL     OW36247   4.276   3.642  10.738 -0.1563  0.1439  0.7602
10052SOL    HW136248   4.299   3.662  10.647 -0.0073  1.5270  1.0748
10052SOL    HW236249   4.351   3.593  10.771  0.2943  0.6049  0.4500
10053SOL     OW36250   3.933   3.662   1.335  0.6608  0.3614  0.0627
10053SOL    HW136251   3.882   3.707   1.268  1.3349 -0.5510 -1.0962
10053SOL    HW236252   3.916   3.569   1.320  0.7965  0.1458  1.1857
10054SOL     OW36253   1.890   0.255   5.743  0.4671 -0.4886 -0.2049
10054SOL    HW136254   1.940   0.219   5.817  0.0578  0.2636  0.4504
10054SOL    HW236255   1.913   0.199   5.669  2.0242 -0.3650  0.1561
10055SOL     OW36256   3.359   0.846   8.346 -0.1423  0.1173  0.4718
10055SOL    HW136257   3.288   0.910   8.358 -1.5120 -1.3530  0.5932
10055SOL    HW236258   3.327   0.788   8.277  1.8161  0.5278 -0.8740
10056SOL     OW36259   7.738   8.705   9.637 -0.0899  0.0188  0.3677
10056SOL    HW136260   7.737   8.655   9.555  1.1330 -1.5888  1.2772
10056SOL    HW236261   7.730   8.796   9.609 -1.7000 -0.5911 -1.4049
10057SOL     OW36262   8.178   2.699   0.009  0.2613  0.4897  0.3621
10057SOL    HW136263   8.258   2.666  -0.031  1.5824 -0.7508  3.6681
10057SOL    HW236264   8.201   2.788   0.038 -1.2647  2.1268 -2.9146
10058SOL     OW36265   2.855   7.997   5.113  0.0457 -0.3650 -0.3066
10058SOL    HW136266   2.910   7.969   5.040  2.4262 -0.2266  1.3061
10058SOL    HW236267   2.877   7.937   5.184 -0.8754  0.5693  0.8126
10059SOL     OW36268   3.391   0.860   5.352  0.5005 -0.1362 -0.3219
10059SOL    HW136269   3.370   0.849   5.260  1.3473 -0.8614 -0.4489
10059SOL    HW236270   3.407   0.771   5.384  0.1729  0.1013  0.5339
10060SOL     OW36271  10.178   8.225  10.141  0.2758 -0.1573  0.3484
10060SOL    HW136272  10.220   8.231  10.055 -0.7882 -0.4371 -0.2133
10060SOL    HW236273  10.085   8.242  10.123 -0.2981 -2.2033  1.0951
10061SOL     OW36274   0.186   3.931   9.364 -0.8138  0.0688  0.6338
10061SOL    HW136275   0.194   3.934   9.459 -3.1067 -0.3813  0.9053
10061SOL    HW236276   0.121   3.999   9.344 -0.3568  0.1611 -0.6057
10062SOL     OW36277   9.623   5.985   4.555 -0.6946  0.1397  0.0556
10062SOL    HW136278   9.691   6.052   4.545 -0.7400  0.2875  0.7061
10062SOL    HW236279   9.633   5.929   4.478 -0.1766  0.4658 -0.1179
10063SOL     OW36280   3.739   4.636   9.092 -0.5324  0.3866 -0.2747
10063SOL    HW136281   3.691   4.693   9.151 -1.2836  0.6436 -1.1230
10063SOL    HW236282   3.720   4.669   9.004  2.6404  1.6628 -0.6157
10064SOL     OW36283   0.944   8.217   8.988 -0.0751  0.6051 -0.0089
10064SOL    HW136284   0.924   8.295   8.936  2.1806  1.0031 -0.3973
10064SOL    HW236285   1.039   8.212   8.986 -0.1623 -2.6166 -0.6234
10065SOL     OW36286   7.725   2.563   8.505  0.5901  0.4072  0.2262
10065SOL    HW136287   7.680   2.535   8.584  0.2841  3.0639  1.0919
10065SOL    HW236288   7.690   2.506   8.436 -0.8403 -0.4805  1.6204
10066SOL     OW36289   7.306   6.579   9.930 -0.3539  0.4039  0.1034
10066SOL    HW136290   7.359   6.582   9.851  1.7070  1.4591  1.4197
10066SOL    HW236291   7.320   6.664   9.972 -2.1782  0.2652  1.1313
10067SOL     OW36292   1.515   4.745   8.063  0.3822 -0.5506 -0.1214
10067SOL    HW136293   1.439   4.794   8.030  0.1792 -1.1581 -0.5735
10067SOL    HW236294   1.590   4.787   8.021  0.3333  0.2563  0.5729
10068SOL     OW36295  10.071   1.495   4.952 -0.1057 -0.0672 -0.4951
10068SOL    HW136296  10.099   1.443   4.876  1.2592 -0.0973  0.0054
10068SOL    HW236297  10.079   1.436   5.026 -0.5720  0.2381 -0.1930
10069SOL     OW36298   5.503   4.867   7.171 -0.1467 -0.3114  0.1052
10069SOL    HW136299   5.411   4.867   7.195 -0.1156 -1.7620  0.3578
10069SOL    HW236300   5.507   4.814   7.092  0.2562  1.2384 -0.9497
10070SOL     OW36301   7.112   0.452   6.823  0.5026  0.6336  0.8492
10070SOL    HW136302   7.184   0.445   6.887 -0.5192  0.1382  1.9864
10070SOL    HW236303   7.036   0.474   6.876 -0.1829  1.2017 -0.3514
10071SOL     OW36304   6.676   4.104   7.495  0.0831 -0.3374 -0.0258
10071SOL    HW136305   6.675   4.138   7.584 -0.4087 -0.8011  0.1516
10071SOL    HW236306   6.640   4.175   7.441 -1.4609 -0.7521  0.4117
10072SOL     OW36307   3.606  10.907   6.691 -0.9341 -0.0933 -0.3403
10072SOL    HW136308   3.617  10.998   6.662  1.1308 -0.3823 -0.6076
10072SOL    HW236309   3.558  10.865   6.620  1.0891  0.0262 -1.8702
10073SOL     OW36310   3.190   2.678   8.511  0.0400 -0.2442 -0.9061
10073SOL    HW136311   3.132   2.721   8.574 -0.2524 -0.4129 -1.0587
10073SOL    HW236312   3.177   2.584   8.527 -0.3913 -0.2984 -1.5291
10074SOL     OW36313   0.145   9.321   7.348  0.3300  0.0381  0.4669
10074SOL    HW136314   0.147   9.411   7.381  0.4376  0.6123 -1.0402
10074SOL    HW236315   0.237   9.297   7.338  0.3301 -0.6303  1.8043
10075SOL     OW36316   3.693   3.090   2.210 -0.5040  0.2103 -0.0975
10075SOL    HW136317   3.758   3.135   2.265 -1.1182 -2.4788  3.2139
10075SOL    HW236318   3.746   3.032   2.155  0.0528 -0.0634  0.6951
10076SOL     OW36319   2.835   8.158   6.362 -0.4046 -0.5196 -0.3576
10076SOL    HW136320   2.857   8.091   6.296 -1.1774  0.9129 -2.1539
10076SOL    HW236321   2.850   8.241   6.317  0.6386  0.5680  1.8517
10077SOL     OW36322   9.463   1.259   0.412  0.3139 -0.7998  0.0785
10077SOL    HW136323   9.493   1.332   0.466 -0.5105 -0.0401 -0.4518
10077SOL    HW236324   9.378   1.235   0.449 -1.2175  1.0238 -1.9635
10078SOL     OW36325   8.026   2.853   2.807 -0.1730 -0.1471 -0.2592
10078SOL    HW136326   7.993   2.923   2.862  2.7532  1.9390 -0.9135
10078SOL    HW236327   8.090   2.807   2.861  0.5715  0.0365 -0.9601
10079SOL     OW36328  10.501   0.898   5.796  0.0517 -0.1971  0.2278
10079SOL    HW136329  10.453   0.902   5.713 -1.1098 -0.6498  0.8517
10079SOL    HW236330  10.588   0.866   5.772 -0.2199 -0.1825 -0.8296
10080SOL     OW36331   3.202   2.077   2.969  0.3569 -0.5121  0.0559
10080SOL    HW136332   3.265   2.122   2.912  0.0312  0.5900  0.5330
10080SOL    HW236333   3.138   2.039   2.908  0.6119 -0.2799 -0.3662
10081SOL     OW36334   3.888   8.624   8.717  0.1870  0.6891 -0.3094
10081SOL    HW136335   3.899   8.699   8.659  0.8140  1.8662  1.2362
10081SOL    HW236336   3.834   8.657   8.789 -0.1513 -0.5588  0.0359
10082SOL     OW36337   2.549   5.161   7.489  0.1052  0.2502  0.2575
10082SOL    HW136338   2.457   5.169   7.461 -0.0944 -0.1448  0.7960
10082SOL    HW236339   2.585   5.248   7.475 -0.8611  0.9440  1.8583
10083SOL     OW36340   8.014   2.221   3.529 -0.0755  0.6255 -0.4048
10083SOL    HW136341   7.995   2.132   3.500  1.3957  0.2569 -0.3255
10083SOL    HW236342   8.018   2.214   3.625 -2.2846  1.2868 -0.2239
10084SOL     OW36343   3.439   4.356   2.765  0.1032  0.3467  0.0893
10084SOL    HW136344   3.526   4.371   2.803 -0.2045  1.9807  0.2219
10084SOL    HW236345   3.432   4.420   2.695 -1.0655  0.3611  0.1987
10085SOL     OW36346   8.948   0.687   4.808 -0.9631  0.5816  0.1301
10085SOL    HW136347   8.864   0.685   4.854 -1.6347  0.6123 -1.0521
10085SOL    HW236348   8.965   0.596   4.786 -0.7782  0.5984  0.2032
10086SOL     OW36349   2.719   4.818   6.428 -0.4517 -0.3308 -0.1055
10086SOL    HW136350   2.714   4.904   6.471 -3.5054  0.0620 -1.0662
10086SOL    HW236351   2.743   4.838   6.338  1.3849 -0.7860  0.2292
10087SOL     OW36352   8.098   2.500   1.138 -0.4332 -0.2171 -0.5382
10087SOL    HW136353   8.098   2.454   1.222  1.3723 -0.2205 -0.5119
10087SOL    HW236354   8.111   2.431   1.072 -0.8990 -0.1059 -0.7506
10088SOL     OW36355   7.510   9.561   1.578  0.1406 -0.3607  0.0954
10088SOL    HW136356   7.540   9.476   1.611  0.2758 -0.5915 -0.6194
10088SOL    HW236357   7.525   9.557   1.484 -3.5409 -1.1275 -0.6347
10089SOL     OW36358   6.580   2.131   1.983  0.7142 -0.2858  0.1739
10089SOL    HW136359   6.640   2.147   1.910  0.8042 -0.4534  0.2096
10089SOL    HW236360   6.635   2.091   2.050  0.4136 -1.1221 -0.0686
10090SOL     OW36361   7.373  10.258   6.653  0.2092 -0.3749  0.0628
10090SOL    HW136362   7.446  10.266   6.592 -0.3376 -1.7626 -0.8083
10090SOL    HW236363   7.310  10.323   6.625  0.1499 -0.7109 -0.5880
10091SOL     OW36364   7.706   7.674   8.401 -0.0609  0.0361  0.2037
10091SOL    HW136365   7.629   7.618   8.390  1.1400 -2.0858  1.8942
10091SOL    HW236366   7.778   7.621   8.367  0.9481  1.0789  0.6920
10092SOL     OW36367   0.577   1.560   0.735 -0.3177  0.4516  0.2739
10092SOL    HW136368   0.670   1.555   0.754 -0.7830 -1.5370  2.4920
10092SOL    HW236369   0.538   1.487   0.784 -3.1635  1.7630  0.1736
10093SOL     OW36370   8.364   4.668   8.930 -0.4464  0.4687 -0.2597
10093SOL    HW136371   8.389   4.644   9.020 -1.3199 -0.4734 -0.2405
10093SOL    HW236372   8.358   4.763   8.931  1.7298  0.6554  0.0737
10094SOL     OW36373   3.045   5.071   0.454  0.3732 -0.7703 -0.7420
10094SOL    HW136374   2.952   5.071   0.475  0.3272 -2.6365 -0.8030
10094SOL    HW236375   3.088   5.103   0.534 -0.3482  1.5551 -1.2038
10095SOL     OW36376   5.510   5.973   3.670  0.0273  0.4136 -0.4459
10095SOL    HW136377   5.511   5.978   3.575  0.9183  2.4679 -0.3758
10095SOL    HW236378   5.602   5.986   3.696 -0.4216  1.5210  0.7136
10096SOL     OW36379   2.747   6.533   8.586  0.4506 -0.6858 -0.1718
10096SOL    HW136380   2.716   6.553   8.675 -0.0841  0.5419 -0.5992
10096SOL    HW236381   2.842   6.526   8.595  0.2277 -3.1775  0.9377
10097SOL     OW36382   2.751   5.858   6.501 -0.4090  0.1120 -0.1638
10097SOL    HW136383   2.659   5.874   6.521 -0.0728  1.4207  0.3942
10097SOL    HW236384   2.788   5.944   6.481  1.0306 -0.1687  1.0417
10098SOL     OW36385   3.694   9.039   0.357  0.5739  0.9049 -0.3486
10098SOL    HW136386   3.640   9.119   0.361  0.0659  0.5399  0.2388
10098SOL    HW236387   3.721   9.034   0.265 -1.6512  0.2877 -1.0301
10099SOL     OW36388   7.057  10.639   2.776 -0.3653 -0.6800 -0.4118
10099SOL    HW136389   7.005  10.698   2.830 -0.1359  0.6576 -1.5737
10099SOL    HW236390   7.040  10.552   2.811  0.8179  0.1830  2.6867
10100SOL     OW36391   2.593   7.581   3.192  0.1563  0.6339 -0.5000
10100SOL    HW136392   2.548   7.564   3.275  1.4187 -0.1869  0.0487
10100SOL    HW236393   2.592   7.497   3.147  3.5659 -0.2441  0.7837
10101SOL     OW36394   4.324   5.669   6.713  0.0973 -0.3352  0.3564
10101SOL    HW136395   4.378   5.610   6.660 -1.0452 -0.8380 -0.2771
10101SOL    HW236396   4.377   5.749   6.721  0.3201 -0.2536 -1.5313
10102SOL     OW36397   1.940   7.203   8.042 -0.0981 -0.6482 -0.0618
10102SOL    HW136398   1.882   7.278   8.027  1.0432  0.0065 -1.4177
10102SOL    HW236399   2.026   7.243   8.058  0.3846 -1.6638 -0.0708
10103SOL     OW36400   6.400   5.364   7.776  0.3246  0.0052 -0.1771
10103SOL    HW136401   6.402   5.379   7.681 -0.4478 -1.3866 -0.4317
10103SOL    HW236402   6.482   5.319   7.795  0.6101  0.5359 -0.1236
10104SOL     OW36403   1.499   5.235   6.123 -0.1736  0.4680 -0.6248
10104SOL    HW136404   1.408   5.256   6.105 -0.5698  0.7594  1.4890
10104SOL    HW236405   1.503   5.139   6.120 -0.8552  0.3918  0.5614
10105SOL     OW36406   3.657   2.877   4.119  0.3759 -0.0166 -0.0183
10105SOL    HW136407   3.668   2.949   4.057  0.3537  0.2341  0.2676
10105SOL    HW236408   3.563   2.858   4.118  0.3304  0.1998  0.1760
10106SOL     OW36409   7.311   0.499  10.582  0.5111 -0.0769 -0.1548
10106SOL    HW136410   7.236   0.486  10.640  0.2728  0.0744 -0.4219
10106SOL    HW236411   7.312   0.421  10.527  0.0754  0.2728 -0.6673
10107SOL     OW36412   1.592   3.168   4.921 -0.3173 -0.0707 -0.0912
10107SOL    HW136413   1.683   3.167   4.889 -0.3152  0.4570 -0.1210
10107SOL    HW236414   1.594   3.119   5.003  0.0133  0.0157 -0.0467
10108SOL     OW36415   6.059   6.779   3.055  0.2277  0.8458  0.7311
10108SOL    HW136416   6.074   6.847   3.120  2.5713  0.6349  0.5123
10108SOL    HW236417   6.129   6.715   3.071 -1.5522 -1.2820  0.5872
10109SOL     OW36418   2.948   0.140   0.591  0.4373  0.0245  0.2813
10109SOL    HW136419   2.968   0.151   0.685  0.9907  2.0808 -0.0113
10109SOL    HW236420   3.026   0.173   0.547  0.4095 -1.4632 -0.9286
10110SOL     OW36421   2.782   6.104   1.435 -0.1564  0.3375 -0.6714
10110SOL    HW136422   2.730   6.030   1.466 -0.7873  0.3102 -1.7435
10110SOL    HW236423   2.760   6.175   1.495  0.7204 -0.4165  0.5843
10111SOL     OW36424  10.850  10.407   0.083 -0.3643 -0.1895  0.4836
10111SOL    HW136425  10.799  10.464   0.024 -0.0890  0.1462  0.5676
10111SOL    HW236426  10.867  10.328   0.032  1.9278  1.0213 -0.7857
10112SOL     OW36427   4.185   6.913   8.383 -0.1984 -0.1463 -0.2652
10112SOL    HW136428   4.154   6.901   8.472  0.3769  3.4310  0.5606
10112SOL    HW236429   4.277   6.887   8.385  0.0513  0.7516  0.4611
10113SOL     OW36430   0.549   8.734   2.922 -0.1701 -0.2722 -0.3865
10113SOL    HW136431   0.635   8.711   2.956  0.2210  1.2482 -0.2488
10113SOL    HW236432   0.557   8.827   2.899 -1.0529 -0.6924 -2.6340
10114SOL     OW36433   4.578   4.585   5.402  0.2557  0.8574  0.9321
10114SOL    HW136434   4.533   4.635   5.334 -1.4910  0.2825  1.6149
10114SOL    HW236435   4.627   4.651   5.452  1.5109  1.2922 -0.7844
10115SOL     OW36436   7.524   2.375  10.213 -0.0259 -0.4909  0.4067
10115SOL    HW136437   7.574   2.335  10.143 -1.3434 -2.2239  0.4076
10115SOL    HW236438   7.526   2.311  10.284  0.2788  0.7182  1.5379
10116SOL     OW36439   4.882   6.208   7.741 -0.5790  0.6479 -0.3199
10116SOL    HW136440   4.867   6.260   7.662 -0.6000  1.8147  0.4279
10116SOL    HW236441   4.972   6.230   7.767 -1.0629  1.4302  0.7859
10117SOL     OW36442   4.232  10.196   9.725  0.0705 -0.0640  0.2105
10117SOL    HW136443   4.298  10.236   9.668 -2.3637  2.4329 -1.1312
10117SOL    HW236444   4.209  10.265   9.787 -1.3307 -0.8194  0.5759
10118SOL     OW36445   4.383   4.943   5.335 -0.1626  0.3551 -0.0399
10118SOL    HW136446   4.369   4.963   5.427  0.0189 -0.6410  0.2166
10118SOL    HW236447   4.415   5.024   5.297  1.7158  0.2470  1.1990
10119SOL     OW36448  10.390   5.294   6.520  0.2996  0.9131  0.3243
10119SOL    HW136449  10.418   5.346   6.446  1.3696 -1.9199 -1.4280
10119SOL    HW236450  10.321   5.237   6.486  0.3135  0.0151  1.6924
10120SOL     OW36451   4.762   3.444   1.146  0.2631 -0.0814 -0.2818
10120SOL    HW136452   4.731   3.442   1.056 -0.3236 -0.4468 -0.0789
10120SOL    HW236453   4.691   3.404   1.197  1.1010 -1.0110  0.1893
10121SOL     OW36454  10.509   3.456   5.791  0.2887  0.0377 -0.5170
10121SOL    HW136455  10.475   3.466   5.702  0.9644 -0.2389 -0.8095
10121SOL    HW236456  10.442   3.405   5.836 -1.0757  1.9383 -0.2514
10122SOL     OW36457   5.059   8.178   8.191 -0.1775 -0.4418  0.1462
10122SOL    HW136458   5.074   8.105   8.251  2.2453  0.0673  0.2374
10122SOL    HW236459   5.146   8.201   8.160 -1.1282  1.0562 -1.5105
10123SOL     OW36460   1.349   4.910   0.566 -0.5302 -0.3744 -0.2540
10123SOL    HW136461   1.321   4.864   0.645 -0.7727 -0.0038 -0.1164
10123SOL    HW236462   1.435   4.874   0.546 -0.0835  0.1364  0.6781
10124SOL     OW36463   5.028   0.881   3.180 -0.1461  0.2810  0.1882
10124SOL    HW136464   5.099   0.861   3.119 -1.6590 -0.9168 -1.2589
10124SOL    HW236465   4.990   0.796   3.202 -0.9830  0.8686  1.1327
10125SOL     OW36466   3.374   4.792   9.081  0.7228 -0.6348  0.0096
10125SOL    HW136467   3.437   4.848   9.036 -1.1532  1.3525 -0.2942
10125SOL    HW236468   3.370   4.827   9.170 -0.9638  0.2533 -0.3675
10126SOL     OW36469   3.233   5.934   9.206  0.8466 -0.2299  0.2907
10126SOL    HW136470   3.252   5.848   9.170  2.1457  0.2826 -0.3140
10126SOL    HW236471   3.226   5.920   9.300  1.7429 -0.9065  0.2709
10127SOL     OW36472   2.971   7.965  10.806 -0.2596 -0.0445  0.5951
10127SOL    HW136473   2.946   7.997  10.720  0.8682  1.0883  0.6617
10127SOL    HW236474   3.020   8.037  10.846  2.1567 -1.7020  0.8658
10128SOL     OW36475   9.439   7.649   1.794  0.7394  0.5968  0.2903
10128SOL    HW136476   9.385   7.590   1.846  1.6604  0.2592  0.8987
10128SOL    HW236477   9.379   7.716   1.762 -0.1203 -0.0540  0.5062
10129SOL     OW36478   0.386   3.774   2.154  0.4099 -0.1116  0.0136
10129SOL    HW136479   0.439   3.704   2.116  0.7604  0.6265 -0.9222
10129SOL    HW236480   0.445   3.821   2.213  0.0826 -0.7946  0.8923
10130SOL     OW36481   3.226   9.419   5.584 -0.2535  0.2241  0.2302
10130SOL    HW136482   3.201   9.328   5.601 -0.5814  0.2682 -0.0035
10130SOL    HW236483   3.307   9.413   5.533 -0.0863  0.0699  0.5119
10131SOL     OW36484   9.111   9.525   2.011 -0.4596  0.1569  0.4232
10131SOL    HW136485   9.033   9.576   2.033 -1.3226 -0.8622 -0.1738
10131SOL    HW236486   9.084   9.434   2.021 -0.7483 -0.4629 -3.8267
10132SOL     OW36487   0.810   4.477   9.474 -0.2962 -0.0244 -0.1188
10132SOL    HW136488   0.731   4.462   9.423 -2.4803  2.1001  2.3214
10132SOL    HW236489   0.861   4.539   9.421 -0.8630 -0.4501 -1.1841
10133SOL     OW36490   5.297   4.817   3.224  0.0895 -0.3998  0.0689
10133SOL    HW136491   5.307   4.902   3.267 -0.3101 -0.2314 -0.1738
10133SOL    HW236492   5.319   4.753   3.292  2.4225 -0.0805 -0.2719
10134SOL     OW36493   3.826  10.639  10.402  0.3172 -0.2300 -0.0393
10134SOL    HW136494   3.820  10.735  10.402 -0.7296 -0.2840 -0.0914
10134SOL    HW236495   3.866  10.618  10.486  3.9287  0.3892 -1.4103
10135SOL     OW36496   0.540   9.311   0.614 -0.0687 -0.1605  0.0918
10135SOL    HW136497   0.533   9.280   0.524 -2.1796  0.7330 -0.1150
10135SOL    HW236498   0.633   9.329   0.626  0.2413 -0.1535 -1.9735
10136SOL     OW36499   9.735   7.736   9.795  0.0337 -0.3233 -0.7026
10136SOL    HW136500   9.710   7.729   9.703  1.6868  1.4968 -1.3703
10136SOL    HW236501   9.822   7.698   9.800 -0.4151 -1.2792  0.3402
10137SOL     OW36502   8.661   3.361  10.689 -0.7267  0.1161  0.5290
10137SOL    HW136503   8.659   3.367  10.784  1.1736 -0.2145  0.6310
10137SOL    HW236504   8.748   3.326  10.669 -0.4697  1.6626 -1.3990
10138SOL     OW36505   8.606   6.346   1.016  0.1811  0.4433  0.1607
10138SOL    HW136506   8.581   6.381   0.930 -0.5745  1.4594  0.7707
10138SOL    HW236507   8.526   6.350   1.068  0.2004 -1.7768  0.4354
10139SOL     OW36508   3.288   4.448   9.934  0.2733  0.1776  0.1050
10139SOL    HW136509   3.202   4.480   9.960  1.0116  0.0705  3.0667
10139SOL    HW236510   3.347   4.521   9.952  0.9625 -0.1219 -0.8626
10140SOL     OW36511  10.329  10.799   2.116 -0.7302 -0.5837 -0.1193
10140SOL    HW136512  10.304  10.780   2.206 -1.1009  0.0728 -0.0776
10140SOL    HW236513  10.261  10.759   2.063 -1.4861  0.5611 -0.0342
10141SOL     OW36514   6.091   3.117   1.972  0.2771  0.5854 -0.5986
10141SOL    HW136515   6.065   3.207   1.993  1.6969  0.8790  0.0047
10141SOL    HW236516   6.179   3.108   2.009 -0.0731 -1.2490 -0.1111
10142SOL     OW36517   9.335   9.280   6.657  0.0412 -0.6769  0.1078
10142SOL    HW136518   9.385   9.313   6.582  1.7388  0.0498  1.4900
10142SOL    HW236519   9.398   9.280   6.729 -1.4930 -1.5306  1.5054
10143SOL     OW36520   9.396   9.265   5.611  0.1815  0.0679  0.2339
10143SOL    HW136521   9.343   9.221   5.677 -2.9960  1.2835 -1.3094
10143SOL    HW236522   9.388   9.358   5.631 -1.8331  0.5845 -2.3046
10144SOL     OW36523   5.907   7.635   1.968  0.0915  0.0599 -0.0058
10144SOL    HW136524   5.855   7.640   1.887  0.6710  0.0004 -0.3890
10144SOL    HW236525   5.998   7.640   1.938  0.4209 -2.4830  0.4087
10145SOL     OW36526   0.941   3.403   3.490 -0.0843 -0.3247 -0.0542
10145SOL    HW136527   0.892   3.437   3.415 -0.7330 -0.8569  0.1193
10145SOL    HW236528   0.889   3.428   3.566 -1.3455 -2.8719  0.0100
10146SOL     OW36529   4.345  10.650   6.105  0.4134 -0.8040 -0.3170
10146SOL    HW136530   4.428  10.610   6.129  0.3023 -0.6243  0.3706
10146SOL    HW236531   4.310  10.593   6.036  0.2835 -1.8600  0.6014
10147SOL     OW36532   8.730   8.379   9.258  0.4522  0.5594  0.0612
10147SOL    HW136533   8.712   8.473   9.266 -2.4127  0.2751 -1.6301
10147SOL    HW236534   8.699   8.342   9.341 -2.2960  0.7310 -0.8016
10148SOL     OW36535   9.385   2.978   7.717  0.1818 -0.0748  0.3064
10148SOL    HW136536   9.363   2.910   7.653  3.2379 -0.8991 -0.0062
10148SOL    HW236537   9.350   3.059   7.680  0.6175 -0.7589 -1.6982
10149SOL     OW36538   5.270   1.229   8.720  0.0702 -0.0324 -0.2161
10149SOL    HW136539   5.296   1.300   8.777 -1.3055  0.4175 -0.1013
10149SOL    HW236540   5.176   1.217   8.738 -0.1792 -0.5015 -1.6877
10150SOL     OW36541   4.870   4.050   3.987  0.3877 -0.2174  0.2736
10150SOL    HW136542   4.780   4.071   3.961  0.4742  0.8573  0.8059
10150SOL    HW236543   4.862   4.013   4.075  0.6981  3.1829  1.8971
10151SOL     OW36544   5.361   0.831   4.958  0.1549 -0.0308 -0.4736
10151SOL    HW136545   5.279   0.869   4.990  0.4962  1.8175 -1.6650
10151SOL    HW236546   5.368   0.862   4.868  2.5938  0.6277 -0.1283
10152SOL     OW36547   2.326  10.581   6.763 -0.1141  0.6529 -0.0500
10152SOL    HW136548   2.271  10.657   6.745 -0.3080  0.2052 -1.4405
10152SOL    HW236549   2.414  10.608   6.735 -0.5025 -0.2080 -2.2318
10153SOL     OW36550   6.793   4.205   2.711  0.4404  0.0134  0.0058
10153SOL    HW136551   6.760   4.208   2.622  1.3978  3.2434 -0.3984
10153SOL    HW236552   6.748   4.277   2.756  0.4332 -1.1376  1.9797
10154SOL     OW36553   4.904   7.360  10.730  0.0416  0.1080  0.4179
10154SOL    HW136554   4.812   7.372  10.755  0.4640  1.9108  1.2673
10154SOL    HW236555   4.937   7.449  10.716  1.8350 -0.4491  0.8283
10155SOL     OW36556   3.327   9.678   3.772 -0.2698  0.7151  0.0467
10155SOL    HW136557   3.252   9.678   3.712 -1.0063 -1.3000  0.8983
10155SOL    HW236558   3.360   9.588   3.768  0.2952  0.8164  1.8910
10156SOL     OW36559   5.459   9.353  10.177  0.4483 -0.6095  0.1065
10156SOL    HW136560   5.406   9.430  10.156  1.1542 -0.5131 -1.4634
10156SOL    HW236561   5.539   9.389  10.214  2.3016 -0.2091 -3.7485
10157SOL     OW36562   1.459   7.241   9.679  0.0008 -0.6868 -0.5917
10157SOL    HW136563   1.420   7.163   9.718  0.1967 -1.4958 -1.9750
10157SOL    HW236564   1.416   7.251   9.595  0.1534  0.5693 -0.5464
10158SOL     OW36565   9.181   4.755   2.349 -0.2037 -0.3258  0.3545
10158SOL    HW136566   9.235   4.755   2.429 -2.6390  0.3767  2.1374
10158SOL    HW236567   9.092   4.749   2.382 -1.3485  0.6370 -2.3413
10159SOL     OW36568   3.895   4.009   2.866 -0.0205  0.0455  0.0165
10159SOL    HW136569   3.836   3.973   2.932  0.7385 -1.4674 -0.0860
10159SOL    HW236570   3.880   3.955   2.788  0.8904  0.1727 -0.2584
10160SOL     OW36571   6.915   5.955  10.842 -0.2559 -0.3242  0.1657
10160SOL    HW136572   6.880   5.876  10.801  0.3141 -0.0368 -0.8944
10160SOL    HW236573   6.983   5.985  10.782  1.6746 -0.7451  2.0115
10161SOL     OW36574   4.430   5.323   7.915 -0.3404 -0.3699 -0.3827
10161SOL    HW136575   4.372   5.336   7.840  0.9162 -3.5726 -2.1109
10161SOL    HW236576   4.509   5.372   7.893  0.0525 -1.3593 -1.2436
10162SOL     OW36577  10.594   2.978   3.293 -0.0252  0.4767  0.1727
10162SOL    HW136578  10.678   3.025   3.294  0.6563 -0.6335 -1.4376
10162SOL    HW236579  10.610   2.901   3.238 -2.0353  0.0918  0.0544
10163SOL     OW36580   0.462   7.535   9.915  0.1446  0.0629 -0.6329
10163SOL    HW136581   0.479   7.489   9.997  0.1370  1.9683  0.5034
10163SOL    HW236582   0.373   7.510   9.891 -0.3436  0.4500  0.6574
10164SOL     OW36583   0.622  10.427   6.646 -0.1425  0.8051  0.2161
10164SOL    HW136584   0.599  10.385   6.729  3.2524 -0.2138  0.8171
10164SOL    HW236585   0.552  10.403   6.586 -0.5516 -2.1015  1.7016
10165SOL     OW36586  10.509  10.595   4.361  0.1543 -0.0451  0.7907
10165SOL    HW136587  10.459  10.580   4.442 -0.4001  0.0868  0.4768
10165SOL    HW236588  10.443  10.616   4.296  0.6954  0.9969  0.5644
10166SOL     OW36589   3.241  10.504   1.095  0.9220 -0.0246  0.1280
10166SOL    HW136590   3.200  10.454   1.166  0.9262 -0.7777 -0.3953
10166SOL    HW236591   3.326  10.529   1.131 -0.4332  2.7624  1.7658
10167SOL     OW36592   9.016   2.349   0.930  0.8174  1.0710  0.5047
10167SOL    HW136593   9.050   2.437   0.920  1.4519  0.7068 -0.8457
10167SOL    HW236594   9.086   2.300   0.972 -0.0826  1.5040  2.6450
10168SOL     OW36595   1.736   0.842   4.315 -0.6006  0.4187 -0.3433
10168SOL    HW136596   1.672   0.896   4.268 -0.6202  0.6427 -0.0598
10168SOL    HW236597   1.803   0.822   4.249 -0.9701  0.1598 -0.6507
10169SOL     OW36598   9.204   7.148   6.595  0.4027  0.1068 -1.0233
10169SOL    HW136599   9.236   7.101   6.671  0.5789  0.6695 -0.7413
10169SOL    HW236600   9.173   7.080   6.535 -0.7169 -0.3027 -0.0159
10170SOL     OW36601   1.039   6.456   5.819  0.5328 -0.0295  0.4954
10170SOL    HW136602   0.972   6.524   5.823  1.0441  0.5550 -0.5208
10170SOL    HW236603   1.021   6.409   5.737  0.9821 -0.2800  0.5375
10171SOL     OW36604   3.551  10.379   6.681 -0.4516  0.4208  0.0329
10171SOL    HW136605   3.533  10.473   6.671  3.8087  1.3760 -0.8247
10171SOL    HW236606   3.549  10.364   6.776 -0.6402  1.5511  0.2183
10172SOL     OW36607   0.354   6.361   6.491  0.5689 -0.1325 -0.1752
10172SOL    HW136608   0.350   6.336   6.583 -0.9330  0.4062 -0.0599
10172SOL    HW236609   0.336   6.280   6.443 -5.1606  0.5108  0.2097
10173SOL     OW36610   3.877   4.666   1.523  0.5609 -0.6008 -0.4062
10173SOL    HW136611   3.918   4.614   1.591  0.3517  1.0861  1.0818
10173SOL    HW236612   3.783   4.650   1.534  0.5940 -1.6052 -1.4142
10174SOL     OW36613   4.428   9.414   1.963  0.3554  0.1029 -0.1114
10174SOL    HW136614   4.385   9.353   1.903 -0.9378 -0.1516  1.0286
10174SOL    HW236615   4.372   9.415   2.041  0.7514  2.1739  0.2014
10175SOL     OW36616  10.797   6.420   7.693 -0.1270  0.2463  0.0959
10175SOL    HW136617  10.812   6.439   7.785 -2.5497  1.2405  0.3787
10175SOL    HW236618  10.807   6.504   7.649 -1.8959  0.4288 -0.0461
10176SOL     OW36619   5.862   0.121  10.875 -0.4220 -0.7162 -0.2528
10176SOL    HW136620   5.775   0.146  10.842 -0.4051 -0.0667  0.1792
10176SOL    HW236621   5.896   0.060  10.809 -2.1463 -2.8222  0.6643
10177SOL     OW36622   8.499  10.251   9.413 -0.1574  0.4983 -0.4337
10177SOL    HW136623   8.564  10.317   9.437  1.6971 -0.9637 -1.1540
10177SOL    HW236624   8.488  10.198   9.492  0.3648  0.1174 -0.6057
10178SOL     OW36625   9.326   8.463   3.032  0.2954  0.3825  0.2652
10178SOL    HW136626   9.304   8.462   2.939 -0.1413 -1.3563  0.3645
10178SOL    HW236627   9.373   8.546   3.044 -0.5234  1.1146 -1.2791
10179SOL     OW36628   0.530   6.343   9.299 -0.7958 -0.4961  0.3750
10179SOL    HW136629   0.500   6.427   9.264  0.6318  0.7260  1.9280
10179SOL    HW236630   0.552   6.292   9.221  1.3379  1.7711 -0.6434
10180SOL     OW36631   2.754   4.610   6.616 -0.2441 -0.2865  0.3725
10180SOL    HW136632   2.757   4.676   6.547 -1.5825 -0.9948 -0.4067
10180SOL    HW236633   2.808   4.646   6.686 -0.3027  1.2672 -0.3380
10181SOL     OW36634   0.587   8.662   8.397  0.3981  0.3483  0.5330
10181SOL    HW136635   0.493   8.679   8.404 -0.1733 -2.1068 -0.2539
10181SOL    HW236636   0.623   8.693   8.481 -1.0943  1.2206  0.8959
10182SOL     OW36637   5.831   2.378   6.790 -0.1183 -0.6723  0.0196
10182SOL    HW136638   5.877   2.459   6.768  0.2616 -0.7909  0.3762
10182SOL    HW236639   5.741   2.406   6.808  0.0988 -0.2739  0.5173
10183SOL     OW36640   6.456   3.663   4.202 -0.3100 -0.0335  0.3077
10183SOL    HW136641   6.460   3.605   4.126 -2.5504  0.1232  0.0002
10183SOL    HW236642   6.426   3.607   4.274  0.5228  0.1060  0.7765
10184SOL     OW36643   1.912   5.630   6.241 -0.1650 -0.2576 -0.0556
10184SOL    HW136644   1.820   5.624   6.217  0.1562 -0.1979 -1.3815
10184SOL    HW236645   1.920   5.716   6.283 -0.5124  0.2336 -0.9638
10185SOL     OW36646   9.489  10.258   7.023  0.6624  0.2845 -0.4911
10185SOL    HW136647   9.461  10.213   7.103  2.3319  0.5437  0.2685
10185SOL    HW236648   9.536  10.336   7.054  2.1608 -0.1031 -1.6837
10186SOL     OW36649   9.767   3.704   8.021 -0.7945 -0.3054  0.4246
10186SOL    HW136650   9.850   3.690   7.976 -0.2269  1.1874  0.9384
10186SOL    HW236651   9.789   3.762   8.094 -2.2892  0.1192  0.5656
10187SOL     OW36652   0.387   3.785   1.619 -0.0812 -0.2168 -0.1161
10187SOL    HW136653   0.445   3.854   1.651 -1.9980  1.3798  0.1738
10187SOL    HW236654   0.302   3.829   1.609 -1.5589 -2.7047  0.7083
10188SOL     OW36655   4.306   4.995  10.432  0.2028  0.1062  0.2520
10188SOL    HW136656   4.214   5.012  10.451 -0.6783 -3.6681  0.3093
10188SOL    HW236657   4.355   5.051  10.493 -2.0765  1.1680  1.2053
10189SOL     OW36658   1.957   4.917   4.872 -0.4144 -0.2806 -0.2606
10189SOL    HW136659   1.935   4.879   4.957 -0.8617  0.2852 -0.1178
10189SOL    HW236660   1.933   4.849   4.808 -1.9382  0.0406 -0.0651
10190SOL     OW36661   1.087   5.595   8.992 -0.0271  0.2333 -0.3657
10190SOL    HW136662   1.033   5.667   9.025 -0.7374 -0.2597 -0.4221
10190SOL    HW236663   1.134   5.633   8.917 -0.8990  0.4751 -0.8152
10191SOL     OW36664   0.933   6.115   4.413 -0.4555 -0.3656  0.1033
10191SOL    HW136665   0.975   6.200   4.426  0.1470 -0.9564  2.5477
10191SOL    HW236666   0.912   6.113   4.320  0.0228  2.2095 -0.1433
10192SOL     OW36667   1.820   2.792   6.162  0.2423  0.0757 -0.1495
10192SOL    HW136668   1.863   2.734   6.225  0.9917  0.6826 -0.0736
10192SOL    HW236669   1.786   2.864   6.215 -5.3395 -2.6078  0.5715
10193SOL     OW36670   3.507   7.576   2.354 -0.2521  0.1821 -0.5917
10193SOL    HW136671   3.511   7.637   2.280 -0.9512 -0.6853 -1.3776
10193SOL    HW236672   3.549   7.623   2.426 -1.0764  1.7147 -1.0634
10194SOL     OW36673  10.364  10.785   4.551  0.8670  0.0314 -0.2558
10194SOL    HW136674  10.350  10.704   4.600  0.9848 -0.9102 -1.7011
10194SOL    HW236675  10.434  10.830   4.597 -1.9654  1.4698  3.0964
10195SOL     OW36676   8.049   9.161   0.363 -0.2491  0.2577  0.9100
10195SOL    HW136677   8.038   9.065   0.364  0.4221  0.1628  0.2767
10195SOL    HW236678   7.971   9.194   0.319  0.3810 -0.1621 -0.6214
10196SOL     OW36679   8.650   6.481   4.962  0.0935 -0.4506 -0.5841
10196SOL    HW136680   8.737   6.519   4.949 -0.5801  1.3199 -0.2301
10196SOL    HW236681   8.590   6.551   4.937 -1.2567 -1.8724 -1.4821
10197SOL     OW36682   1.141   0.888   6.775 -0.3610 -0.1229 -0.0446
10197SOL    HW136683   1.194   0.949   6.723 -0.4568  1.0652  1.1966
10197SOL    HW236684   1.202   0.820   6.803  0.0541  0.1294 -0.3354
10198SOL     OW36685   5.747   6.258   9.713  0.4726  0.7871 -0.2306
10198SOL    HW136686   5.810   6.247   9.641  1.4297  2.2661  0.3374
10198SOL    HW236687   5.756   6.178   9.765 -0.5786 -0.5370 -1.9483
10199SOL     OW36688   2.173   9.147   9.459  0.4850  0.5412 -0.4613
10199SOL    HW136689   2.134   9.071   9.504  1.4245 -0.1932 -0.8517
10199SOL    HW236690   2.174   9.216   9.526 -1.5572  0.6419 -0.4718
10200SOL     OW36691   1.880   6.545   7.647  0.3485  0.7542 -0.6187
10200SOL    HW136692   1.849   6.631   7.675  0.6142  0.5505  0.3395
10200SOL    HW236693   1.815   6.515   7.584 -0.5394  1.0194  0.1603
10201SOL     OW36694   0.238   2.185   7.907  0.1369 -0.5439  0.5660
10201SOL    HW136695   0.282   2.210   7.826  0.6982  0.7309  1.2461
10201SOL    HW236696   0.158   2.140   7.878  0.5299 -0.4592 -0.6864
10202SOL     OW36697   1.496   1.250   0.647 -0.7169 -0.1402  0.0185
10202SOL    HW136698   1.451   1.312   0.704 -0.5858  0.1130 -0.1503
10202SOL    HW236699   1.517   1.301   0.568 -1.7922 -0.7349 -0.6948
10203SOL     OW36700   1.136   7.915   1.106  0.5051 -0.0875 -0.6140
10203SOL    HW136701   1.183   7.999   1.101  0.7980 -0.2340 -0.3615
10203SOL    HW236702   1.181   7.858   1.044  0.1989 -0.0086 -0.9112
10204SOL     OW36703  10.158   2.361   7.317 -0.1755  0.4147  0.4421
10204SOL    HW136704  10.123   2.419   7.250 -0.5857  3.1599  2.8409
10204SOL    HW236705  10.085   2.346   7.376  1.1525  1.5963  2.4994
10205SOL     OW36706   1.142   2.714   4.056 -0.2821  0.2026 -0.3626
10205SOL    HW136707   1.180   2.747   4.137  1.4823 -0.6461 -0.7759
10205SOL    HW236708   1.101   2.631   4.081 -0.2247  0.2091 -0.2473
10206SOL     OW36709   5.753   2.514   8.086  0.0179  0.1140  0.0685
10206SOL    HW136710   5.678   2.553   8.041 -0.1311  0.2719  0.4451
10206SOL    HW236711   5.820   2.504   8.019  0.1722  1.3130  0.0361
10207SOL     OW36712   7.688   2.718   8.159  0.4194  0.1388 -0.4935
10207SOL    HW136713   7.712   2.748   8.071  0.6307 -0.1302 -0.5276
10207SOL    HW236714   7.747   2.645   8.176 -0.5063 -0.6658 -0.6548
10208SOL     OW36715   4.995  10.602   0.352  0.2885 -0.2628  0.5200
10208SOL    HW136716   4.997  10.632   0.443  1.1948  0.2285  0.3420
10208SOL    HW236717   4.905  10.620   0.323 -0.3448 -1.4516  1.6453
10209SOL     OW36718  10.541   7.580   5.148  0.2410  0.0646  0.0121
10209SOL    HW136719  10.614   7.518   5.145  0.9288  0.7740  1.2133
10209SOL    HW236720  10.560   7.643   5.079 -0.1153 -0.6783 -0.7762
10210SOL     OW36721   3.090  10.763   4.776  0.5378 -0.1419 -0.1307
10210SOL    HW136722   3.055  10.829   4.716 -0.0469 -0.4725 -0.1565
10210SOL    HW236723   3.184  10.780   4.777  0.4036  0.6873 -0.1476
10211SOL     OW36724   0.958   6.570   7.403 -0.6052 -0.8258  0.2135
10211SOL    HW136725   1.000   6.586   7.487  1.0874 -1.7460 -0.4157
10211SOL    HW236726   0.910   6.489   7.414  1.0832 -1.9224 -0.1779
10212SOL     OW36727   0.769   8.767   6.594  0.4758  0.4471 -0.6754
10212SOL    HW136728   0.769   8.827   6.669  2.1252 -0.4634  0.1048
10212SOL    HW236729   0.743   8.683   6.631 -1.2545  0.5003 -1.6545
10213SOL     OW36730   9.337   6.872  10.445 -0.0313  0.2153 -0.3943
10213SOL    HW136731   9.391   6.945  10.414  0.0680  0.3718  0.1422
10213SOL    HW236732   9.255   6.913  10.472 -0.1665  0.0637 -0.5781
10214SOL     OW36733   2.569   2.116   1.734 -0.3900 -0.1557 -0.5359
10214SOL    HW136734   2.629   2.118   1.659  0.0166  0.2821 -0.2058
10214SOL    HW236735   2.511   2.191   1.720  0.6133  0.8267  0.3194
10215SOL     OW36736   7.417   1.482   3.391 -0.4269 -0.4768  0.0692
10215SOL    HW136737   7.362   1.443   3.323  2.3169  0.0147 -2.6539
10215SOL    HW236738   7.455   1.406   3.437 -0.1631 -0.8844 -0.8114
10216SOL     OW36739  10.844   9.759   1.182 -0.5229  0.2441  0.2840
10216SOL    HW136740  10.913   9.825   1.183  0.4138 -0.7114  0.0465
10216SOL    HW236741  10.766   9.807   1.154  0.3385  1.0701 -0.8093
10217SOL     OW36742   2.896   5.094   6.778 -0.0673  0.1158  0.7595
10217SOL    HW136743   2.953   5.098   6.702  0.6114 -2.2552  1.0549
10217SOL    HW236744   2.818   5.047   6.748 -1.1381  1.7761  0.8149
10218SOL     OW36745  10.237   2.799   2.975 -0.5424  0.0774 -0.4553
10218SOL    HW136746  10.227   2.713   3.014 -0.8531 -0.4921 -1.7450
10218SOL    HW236747  10.286   2.849   3.040 -1.3657 -0.7053  0.8111
10219SOL     OW36748   2.824   3.578   9.657  0.5468  0.1243 -0.2196
10219SOL    HW136749   2.816   3.492   9.615 -0.3198 -1.3470  2.6402
10219SOL    HW236750   2.782   3.639   9.596  0.5074 -1.5806 -2.0052
10220SOL     OW36751   3.711  10.217   6.537  0.7698 -0.1738 -0.7829
10220SOL    HW136752   3.773  10.191   6.605  2.2282 -0.8134 -2.3043
10220SOL    HW236753   3.642  10.265   6.585  1.4479 -1.0630  1.1894
10221SOL     OW36754  10.527   8.193  10.441 -0.1898  0.4375  0.5177
10221SOL    HW136755  10.446   8.235  10.412 -0.9141 -0.7415  0.7811
10221SOL    HW236756  10.574   8.174  10.360 -0.5809  0.3483  0.3069
10222SOL     OW36757   8.224   6.529   9.511 -0.4112 -0.5081  0.0025
10222SOL    HW136758   8.148   6.574   9.473  0.3675 -0.2814 -1.3767
10222SOL    HW236759   8.188   6.469   9.575 -1.8388 -1.0607 -1.2781
10223SOL     OW36760   5.206   6.032   6.498  0.0326  0.0138 -0.2409
10223SOL    HW136761   5.287   6.084   6.491 -0.2022  0.2031 -2.2194
10223SOL    HW236762   5.173   6.050   6.586  1.3012  1.2160  0.0215
10224SOL     OW36763   2.075  10.547   7.740 -0.0392  0.2513 -0.7351
10224SOL    HW136764   2.137  10.620   7.746  0.7920 -0.5682  3.8095
10224SOL    HW236765   2.129  10.471   7.719 -0.1973  0.2029 -0.9723
10225SOL     OW36766   4.657   4.256  10.212  0.2413  0.7006  0.1393
10225SOL    HW136767   4.664   4.334  10.267  2.3352  0.8015 -0.1812
10225SOL    HW236768   4.617   4.288  10.131  0.4504  1.3174  0.2686
10226SOL     OW36769   5.190   8.602  10.390 -0.1241 -0.0572 -0.0300
10226SOL    HW136770   5.269   8.634  10.347 -1.2869  0.4807 -1.9101
10226SOL    HW236771   5.209   8.511  10.412  0.4520 -0.4782 -2.0575
10227SOL     OW36772   4.851   0.325   7.647 -0.0089  0.2282  0.0324
10227SOL    HW136773   4.828   0.328   7.740 -0.7446 -1.0005 -0.0854
10227SOL    HW236774   4.945   0.310   7.646 -0.0181  0.1146  0.5884
10228SOL     OW36775   2.674   4.563   0.355 -0.2537 -0.4162  0.0728
10228SOL    HW136776   2.632   4.602   0.431  1.0011 -0.2954  0.7194
10228SOL    HW236777   2.638   4.474   0.351 -0.3422 -0.4168  0.7850
10229SOL     OW36778   6.183   6.466   3.697  0.3231 -0.1777  0.0929
10229SOL    HW136779   6.263   6.506   3.661  0.0435  0.7807  0.5043
10229SOL    HW236780   6.112   6.510   3.651 -0.0324  0.8401  1.5535
10230SOL     OW36781   9.482   8.846   9.427  0.0885 -0.3518 -0.1070
10230SOL    HW136782   9.562   8.814   9.386 -0.8117 -1.2501 -1.2345
10230SOL    HW236783   9.448   8.912   9.367 -0.0507 -0.0193  0.3309
10231SOL     OW36784   4.548   5.184   5.213 -0.2137 -0.1682 -0.0819
10231SOL    HW136785   4.492   5.255   5.245 -0.6079 -0.4315 -0.1844
10231SOL    HW236786   4.635   5.205   5.247 -0.2096  0.6662 -0.5756
10232SOL     OW36787   3.762   4.291   4.557 -0.5288 -0.4112 -0.3668
10232SOL    HW136788   3.695   4.225   4.570 -0.3631 -0.1226  2.6174
10232SOL    HW236789   3.843   4.250   4.585 -0.4271  0.9804  1.5872
10233SOL     OW36790   9.689   6.407   4.085  0.3888 -0.1322 -0.0778
10233SOL    HW136791   9.656   6.326   4.046  0.3943  0.4239 -1.2653
10233SOL    HW236792   9.636   6.476   4.045  2.0624  0.6653 -1.0082
10234SOL     OW36793   5.241   9.901  10.330 -0.1886  0.9793 -0.1900
10234SOL    HW136794   5.238   9.851  10.411  0.6749 -1.0957 -1.3695
10234SOL    HW236795   5.333   9.900  10.304 -0.7535 -0.4931 -2.3987
10235SOL     OW36796   9.970   8.254   5.908 -0.1114  0.4990 -0.3762
10235SOL    HW136797   9.951   8.161   5.901 -0.5672  0.3781  1.7879
10235SOL    HW236798  10.061   8.258   5.939 -0.2113  0.7837 -0.1198
10236SOL     OW36799   1.060   7.489   0.492  0.4877 -0.9270 -0.0042
10236SOL    HW136800   1.101   7.545   0.426 -0.1443  0.4979  0.7687
10236SOL    HW236801   1.114   7.502   0.570 -0.1464 -0.7417  0.4066
10237SOL     OW36802   1.833   9.044   8.380  0.2231 -0.7327  0.5027
10237SOL    HW136803   1.747   9.081   8.400  0.2033  1.0786 -2.4221
10237SOL    HW236804   1.815   8.954   8.352 -0.9754  0.0633 -1.4550
10238SOL     OW36805  10.220   7.378  10.271  0.0110 -0.2389  0.2545
10238SOL    HW136806  10.303   7.421  10.250 -0.5289  0.6562 -0.1052
10238SOL    HW236807  10.203   7.401  10.362 -0.4474  0.6177 -0.0385
10239SOL     OW36808   3.405   4.751   7.096  0.2849 -0.4052 -0.4800
10239SOL    HW136809   3.411   4.847   7.093 -0.2895 -0.3787 -1.0818
10239SOL    HW236810   3.489   4.723   7.131  0.1918  0.3550  0.4122
10240SOL     OW36811   3.019   1.841   8.402 -0.1720 -0.1020 -0.4147
10240SOL    HW136812   3.067   1.797   8.331 -0.2937  1.4870 -1.5138
10240SOL    HW236813   2.942   1.878   8.360 -0.3894  0.6351  0.6005
10241SOL     OW36814   7.626   5.946   8.875 -0.0475  0.5367  0.0057
10241SOL    HW136815   7.591   5.886   8.809  0.5308 -1.5031  1.4781
10241SOL    HW236816   7.569   5.934   8.951  1.1865  0.4771  0.9466
10242SOL     OW36817   4.854   3.698   3.766  0.2201 -0.1317  0.1375
10242SOL    HW136818   4.883   3.775   3.717  0.2890 -1.1891 -1.5531
10242SOL    HW236819   4.760   3.712   3.780 -0.1548 -0.5547 -1.7680
10243SOL     OW36820   9.762   8.241   3.776 -0.6463  0.3713 -0.5068
10243SOL    HW136821   9.689   8.301   3.760 -1.1177 -0.4466 -1.5717
10243SOL    HW236822   9.728   8.179   3.840 -0.8795  0.0164 -0.9700
10244SOL     OW36823  10.803  10.660  10.386 -0.0198 -0.1359  0.3003
10244SOL    HW136824  10.897  10.656  10.404 -0.1695 -1.2594  0.9698
10244SOL    HW236825  10.763  10.633  10.469 -0.8579 -1.6728 -0.5709
10245SOL     OW36826   8.904   0.874   9.284 -0.9152  0.3307 -0.7225
10245SOL    HW136827   8.861   0.850   9.366 -0.3824  0.0874 -0.5133
10245SOL    HW236828   8.975   0.933   9.310 -1.6343  1.4197 -1.1494
10246SOL     OW36829   0.275   4.701   9.511  0.1411  0.5695  1.0398
10246SOL    HW136830   0.370   4.694   9.499 -0.1247  0.0784 -1.1692
10246SOL    HW236831   0.248   4.774   9.456 -1.2117 -1.8610 -1.8127
10247SOL     OW36832   3.808   2.801   8.209 -0.1059  0.2813  0.1963
10247SOL    HW136833   3.878   2.841   8.260  0.3461  1.0116 -0.9489
10247SOL    HW236834   3.813   2.844   8.123  0.3191 -2.1103 -1.0768
10248SOL     OW36835   5.841   0.643   4.716 -0.6561 -0.9596 -0.0474
10248SOL    HW136836   5.775   0.699   4.757  0.2985 -1.1146  1.8055
10248SOL    HW236837   5.855   0.682   4.630 -0.8949  0.9708  0.7285
10249SOL     OW36838   4.528   5.839   8.433 -0.5864 -0.3132 -0.1448
10249SOL    HW136839   4.477   5.907   8.389  0.8088  1.6615  1.1133
10249SOL    HW236840   4.592   5.812   8.368 -0.6771  0.1201 -0.4237
10250SOL     OW36841   4.362   1.488  10.234 -0.2396  0.8636 -0.3426
10250SOL    HW136842   4.419   1.431  10.183  1.2286  1.0513  1.0474
10250SOL    HW236843   4.274   1.454  10.218  0.2443  0.4301 -2.3342
10251SOL     OW36844   4.952   9.459   8.774 -0.5613 -0.4361  0.0921
10251SOL    HW136845   5.042   9.437   8.796 -1.3112 -2.5086  1.3658
10251SOL    HW236846   4.899   9.394   8.820 -2.6772  0.0580 -1.4735
10252SOL     OW36847   9.146   8.109  10.387  0.2988  0.2775  0.5860
10252SOL    HW136848   9.073   8.060  10.425 -0.1199 -0.6102 -1.2418
10252SOL    HW236849   9.195   8.141  10.463 -1.9649  0.9210  1.8804
10253SOL     OW36850   1.853   7.225   6.415  0.0761 -0.2587 -0.5380
10253SOL    HW136851   1.922   7.188   6.470 -0.4563 -0.4809 -0.0031
10253SOL    HW236852   1.878   7.316   6.402 -0.2066  0.0274  0.7844
10254SOL     OW36853   8.771   7.513   8.274  0.7507 -0.8556  0.0045
10254SOL    HW136854   8.719   7.436   8.295 -1.7839  0.3149 -1.5371
10254SOL    HW236855   8.747   7.577   8.341 -0.6963  0.0250 -1.2911
10255SOL     OW36856   6.656   7.839   5.902  0.0321  0.0147  0.3919
10255SOL    HW136857   6.571   7.873   5.872  0.1066  1.0051  1.2476
10255SOL    HW236858   6.635   7.784   5.977  0.0671 -0.6088 -0.0399
10256SOL     OW36859   1.150   2.332  10.869  0.4287 -0.3118 -0.2564
10256SOL    HW136860   1.125   2.423  10.885  1.4253 -0.1372  0.4758
10256SOL    HW236861   1.153   2.293  10.956  0.3614 -0.9477 -0.5360
10257SOL     OW36862   1.332   2.793   5.499  0.2784  0.0484  0.1199
10257SOL    HW136863   1.251   2.843   5.511  0.5475  0.2847  1.0512
10257SOL    HW236864   1.306   2.702   5.516  0.2031  0.1238  0.4193
10258SOL     OW36865  10.054  10.814   1.011  0.3341  0.4273 -0.1693
10258SOL    HW136866  10.139  10.856   1.024 -0.5594  2.3450 -0.3016
10258SOL    HW236867  10.050  10.798   0.917  0.4265  0.5737 -0.1978
10259SOL     OW36868   9.220  10.482   6.605 -0.0175  0.1495 -0.2174
10259SOL    HW136869   9.171  10.485   6.687  0.6562  1.2446  0.1627
10259SOL    HW236870   9.155  10.503   6.538 -0.5550 -0.6762  0.0226
10260SOL     OW36871   6.823   5.970   9.044 -0.1299 -0.1025  0.1117
10260SOL    HW136872   6.826   5.887   8.996  1.2629 -0.2163  0.3582
10260SOL    HW236873   6.771   5.950   9.122 -1.1000 -0.3273 -0.5809
10261SOL     OW36874   1.813   0.408   4.086  0.2993 -0.1454  0.3870
10261SOL    HW136875   1.795   0.364   4.003  1.4127 -0.7152  0.4215
10261SOL    HW236876   1.868   0.346   4.134 -0.2280  0.2265  1.5056
10262SOL     OW36877   7.301   8.511   4.898  0.0632  0.2511  0.1837
10262SOL    HW136878   7.346   8.591   4.871 -0.0612  1.0850  2.2598
10262SOL    HW236879   7.318   8.504   4.992 -0.1090 -2.0785  0.1056
10263SOL     OW36880   4.250   4.777   6.700  0.2636 -0.2890 -0.0354
10263SOL    HW136881   4.187   4.841   6.734  0.2848 -1.5279  2.6394
10263SOL    HW236882   4.198   4.699   6.684  0.8306 -0.8134  0.6099
10264SOL     OW36883   7.912   7.861   8.470  0.2568  0.2072 -0.4417
10264SOL    HW136884   7.994   7.830   8.434 -0.0315  0.4205 -1.3121
10264SOL    HW236885   7.845   7.803   8.432 -0.0229  0.1939  0.0545
10265SOL     OW36886  10.690   4.835  10.312 -0.5188  0.0096 -0.0039
10265SOL    HW136887  10.658   4.756  10.267  0.4556 -0.1941 -0.3590
10265SOL    HW236888  10.785   4.832  10.300 -0.3945  0.7738  0.7505
10266SOL     OW36889   0.334   9.580   4.963 -0.4581 -0.0910 -0.2263
10266SOL    HW136890   0.264   9.515   4.955 -0.2353 -0.6405  1.7470
10266SOL    HW236891   0.302   9.643   5.027  0.5129  0.0842  0.1149
10267SOL     OW36892   4.264   0.161   8.000  0.1663  0.4342 -0.3807
10267SOL    HW136893   4.223   0.087   8.044 -0.1086  1.9154  2.0339
10267SOL    HW236894   4.358   0.142   8.004  0.0676 -0.0471 -0.3337
10268SOL     OW36895   6.563  10.567   8.285 -0.0568 -0.4159  0.2517
10268SOL    HW136896   6.641  10.517   8.311  0.9846  1.3049  0.5944
10268SOL    HW236897   6.576  10.584   8.191 -1.1337 -1.9735 -0.2191
10269SOL     OW36898   9.419   4.638   6.877  0.2175 -0.3558 -0.1678
10269SOL    HW136899   9.439   4.656   6.969  0.9821 -1.5002 -0.0846
10269SOL    HW236900   9.358   4.564   6.880 -0.9005  0.5324 -0.5503
10270SOL     OW36901  10.576   8.694   8.601  0.1109 -0.2406  0.0815
10270SOL    HW136902  10.542   8.707   8.512 -0.5701  0.7981  0.4761
10270SOL    HW236903  10.510   8.734   8.657 -0.0518 -1.9175  1.1462
10271SOL     OW36904   7.912   2.122   9.918  0.6282 -0.2876 -0.2834
10271SOL    HW136905   7.886   2.184   9.986 -0.3793 -0.4562 -0.5087
10271SOL    HW236906   7.994   2.084   9.950 -1.4420 -2.8657  2.5266
10272SOL     OW36907   3.509   8.125   1.509  0.4172  0.3705  0.2448
10272SOL    HW136908   3.444   8.081   1.455  1.0413  0.3950 -0.5650
10272SOL    HW236909   3.587   8.070   1.501  0.3243  0.0105  1.6956
10273SOL     OW36910   1.457   7.877   4.773  0.3263  0.3068 -0.8211
10273SOL    HW136911   1.479   7.824   4.850 -1.7871 -0.2232 -0.5190
10273SOL    HW236912   1.480   7.967   4.798 -0.2874  0.1386  0.4509
10274SOL     OW36913   1.465   9.023   4.599  0.3508 -0.0492 -0.1433
10274SOL    HW136914   1.459   8.930   4.620  1.0645 -0.7796 -2.8136
10274SOL    HW236915   1.379   9.045   4.562  1.0726 -0.4401 -2.1594
10275SOL     OW36916   0.478   3.161   4.950  0.3861  0.4789  0.5472
10275SOL    HW136917   0.480   3.099   5.023 -0.8919  0.3313  0.4789
10275SOL    HW236918   0.496   3.108   4.872  0.1060  0.3463  0.5750
10276SOL     OW36919   1.726   9.765   8.492 -0.1866  0.4287  0.1132
10276SOL    HW136920   1.815   9.748   8.525 -0.0305  0.6185 -0.2020
10276SOL    HW236921   1.675   9.690   8.520  0.1822  0.0920 -0.1073
10277SOL     OW36922   7.305   5.454   7.881 -0.4573  0.0161 -0.0912
10277SOL    HW136923   7.267   5.367   7.875  0.8607 -0.7100  1.4551
10277SOL    HW236924   7.231   5.512   7.899 -1.3664 -0.7221 -1.2889
10278SOL     OW36925   4.692   6.773   7.601 -0.0799 -0.0412  0.0979
10278SOL    HW136926   4.653   6.749   7.517  0.8389 -0.3003 -0.2637
10278SOL    HW236927   4.755   6.842   7.581  1.3914 -1.2718  0.2876
10279SOL     OW36928   1.179   6.427  10.186  0.3665 -0.2304 -0.1714
10279SOL    HW136929   1.160   6.520  10.200  1.9748 -0.0205  0.8227
10279SOL    HW236930   1.261   6.426  10.137  0.2716 -1.1389 -0.3302
10280SOL     OW36931   6.786   2.679   0.807  0.1868 -0.5322 -0.2515
10280SOL    HW136932   6.755   2.765   0.780 -0.2350 -0.9454 -1.1398
10280SOL    HW236933   6.877   2.693   0.832 -0.2044  0.3734  0.7056
10281SOL     OW36934   5.118   7.289   9.031 -0.0633  0.2185  0.0550
10281SOL    HW136935   5.060   7.359   9.062  2.2266  1.3789  2.0298
10281SOL    HW236936   5.133   7.310   8.938 -0.3004  1.7191  0.3326
10282SOL     OW36937   0.083   0.943   5.557 -0.0377  0.1005 -0.3977
10282SOL    HW136938   0.119   1.002   5.491 -0.9229 -2.2559 -3.2094
10282SOL    HW236939   0.107   0.855   5.526 -0.8584 -1.1586  2.2544
10283SOL     OW36940   9.084   2.938   2.514  0.3652  0.5191 -0.0524
10283SOL    HW136941   9.128   2.913   2.432 -0.2621  1.4223 -0.6868
10283SOL    HW236942   9.045   2.857   2.546  0.3316  0.2181 -0.8317
10284SOL     OW36943   5.578   2.761  10.032  0.0299  0.0525  0.1321
10284SOL    HW136944   5.607   2.763   9.940  0.7707 -1.4107  0.2902
10284SOL    HW236945   5.492   2.719  10.028  0.3965 -0.7316  0.1498
10285SOL     OW36946   1.195   8.778   1.345 -0.0831  0.2478 -0.1306
10285SOL    HW136947   1.184   8.832   1.267 -1.2908 -1.5982 -1.3209
10285SOL    HW236948   1.144   8.822   1.413 -1.2199  0.5079 -1.1240
10286SOL     OW36949  10.433   4.025   6.478 -0.1323  0.1205 -0.1085
10286SOL    HW136950  10.451   3.945   6.429  1.6161  0.3796  0.0653
10286SOL    HW236951  10.448   4.096   6.416  1.6083  0.4295  0.6057
10287SOL     OW36952   7.429   5.337   6.074 -0.2437  0.0708  0.1535
10287SOL    HW136953   7.480   5.324   6.154 -2.5172  0.2402  1.7049
10287SOL    HW236954   7.356   5.392   6.100 -2.3238 -1.7216 -1.4846
10288SOL     OW36955   1.540   3.911  10.521 -0.1437 -0.0573  0.1566
10288SOL    HW136956   1.621   3.879  10.480  0.6675  2.1095 -0.0763
10288SOL    HW236957   1.478   3.917  10.449  0.1198  0.1522 -0.0592
10289SOL     OW36958   9.360   1.232   0.905 -0.1149  0.0890  0.1513
10289SOL    HW136959   9.307   1.312   0.898  0.0679  0.1513 -0.6971
10289SOL    HW236960   9.303   1.163   0.872  1.0380  0.5012 -3.0627
10290SOL     OW36961   0.753   8.589   7.255 -0.3130 -0.3332 -0.0445
10290SOL    HW136962   0.737   8.515   7.197  0.8290  0.0949 -0.9661
10290SOL    HW236963   0.820   8.559   7.316 -0.0849 -0.1794 -0.2136
10291SOL     OW36964   2.628   6.209   4.543  0.4096  0.3674  0.3104
10291SOL    HW136965   2.667   6.287   4.582  1.7466 -0.4717  0.7375
10291SOL    HW236966   2.633   6.224   4.449 -0.5318  1.3334  0.4060
10292SOL     OW36967   5.969   4.987   2.309 -0.0002 -0.2858 -0.3422
10292SOL    HW136968   6.054   5.007   2.350  0.4663 -0.4350 -1.2041
10292SOL    HW236969   5.982   5.006   2.216 -0.8001 -0.6749 -0.5444
10293SOL     OW36970   9.705   0.454   3.844  0.0649 -0.1986 -0.1888
10293SOL    HW136971   9.713   0.546   3.819  1.9153 -0.0391  0.8216
10293SOL    HW236972   9.614   0.445   3.872  0.2382  1.7230  1.1693
10294SOL     OW36973   1.846   8.519   9.514 -0.1387 -0.2178  0.3200
10294SOL    HW136974   1.913   8.527   9.447 -0.9364  0.6149 -0.4114
10294SOL    HW236975   1.834   8.608   9.548 -0.3908 -0.4743  0.9318
10295SOL     OW36976   5.854   7.680   6.906  0.8977 -0.0149 -0.2498
10295SOL    HW136977   5.905   7.599   6.910  3.2034  1.2902 -1.0814
10295SOL    HW236978   5.825   7.686   6.815 -0.0911 -0.3360  0.0297
10296SOL     OW36979   9.481   8.359   2.028 -0.1092 -0.1940  0.3620
10296SOL    HW136980   9.507   8.294   1.963 -0.1870 -0.7101  0.8405
10296SOL    HW236981   9.497   8.443   1.985 -1.1715 -0.5197 -0.7141
10297SOL     OW36982   9.585   9.297   7.164 -0.7416  0.0704  0.4032
10297SOL    HW136983   9.665   9.250   7.187 -0.2811  0.8724  0.4706
10297SOL    HW236984   9.515   9.244   7.203 -0.2160 -0.3803  0.7587
10298SOL     OW36985  10.783   2.428   3.027  0.2775  0.2046  0.3777
10298SOL    HW136986  10.796   2.351   3.082 -0.4098 -0.1949 -0.0039
10298SOL    HW236987  10.693   2.420   2.996  0.4603  0.7382 -0.3152
10299SOL     OW36988   3.109   5.905  10.272 -0.0510  0.5620 -0.2952
10299SOL    HW136989   3.069   5.979  10.317  0.7648  2.2697 -2.2460
10299SOL    HW236990   3.085   5.916  10.180  2.4728  0.0611 -1.0843
10300SOL     OW36991   0.135   7.201   8.236  0.5222 -0.1531 -0.2092
10300SOL    HW136992   0.125   7.129   8.298 -1.4945 -0.1768 -0.4932
10300SOL    HW236993   0.070   7.265   8.264  0.1354  0.1924 -1.8070
10301SOL     OW36994   7.109   8.397   1.944  0.4341  0.3047  0.4167
10301SOL    HW136995   7.116   8.331   1.875 -0.6766  0.8998 -0.2965
10301SOL    HW236996   7.080   8.349   2.021  2.9239 -0.5897  0.8686
10302SOL     OW36997   2.947   3.754   1.269  0.2736  0.2577 -0.2008
10302SOL    HW136998   3.020   3.757   1.330 -0.1698  1.5120  0.3107
10302SOL    HW236999   2.932   3.846   1.246 -0.1356 -0.1182 -1.5231
10303SOL     OW37000   1.880   6.913   2.103  0.5237  0.0181  0.2087
10303SOL    HW137001   1.840   6.995   2.074  0.9911 -0.1278 -0.8655
10303SOL    HW237002   1.922   6.936   2.186  1.9568  1.2756 -0.8092
10304SOL     OW37003   4.460   3.437   8.432  0.1144  0.4276 -0.0431
10304SOL    HW137004   4.475   3.431   8.337 -0.2518 -0.8139 -0.0423
10304SOL    HW237005   4.393   3.371   8.449  0.5477  0.2889  1.1662
10305SOL     OW37006   6.642   5.047  10.186 -0.6127 -0.2864 -0.0354
10305SOL    HW137007   6.710   5.017  10.246  0.9334  1.0865 -1.0161
10305SOL    HW237008   6.583   5.098  10.240  0.1404  0.0153  0.5246
10306SOL     OW37009   0.683   9.310  10.333 -0.1377  1.1886 -0.2815
10306SOL    HW137010   0.602   9.359  10.350 -0.8666  0.4671 -1.5307
10306SOL    HW237011   0.653   9.224  10.305  0.9648  1.4590 -2.5149
10307SOL     OW37012  10.344   6.991   9.118  0.5910 -0.2713  0.6127
10307SOL    HW137013  10.372   7.021   9.205 -2.0609  3.9143  0.3248
10307SOL    HW237014  10.421   7.002   9.063  0.9353  2.2277  1.4737
10308SOL     OW37015   6.708   6.007   1.509 -0.1698  0.3354 -0.1670
10308SOL    HW137016   6.659   5.926   1.521  0.3685  0.1182  0.7215
10308SOL    HW237017   6.791   5.991   1.554  0.6534  0.7517 -1.4697
10309SOL     OW37018   8.014   4.788   4.513 -0.2359 -0.4616  0.1467
10309SOL    HW137019   8.058   4.856   4.566 -0.9887  0.1544 -0.0065
10309SOL    HW237020   7.935   4.767   4.563  0.4541 -1.9440  0.6834
10310SOL     OW37021   2.999   3.241   2.391  0.0360  0.5084 -0.4548
10310SOL    HW137022   3.050   3.290   2.325  0.5580  0.1350 -0.3405
10310SOL    HW237023   2.985   3.304   2.462  1.3486  0.2909  0.0210
10311SOL     OW37024   0.274   5.595   1.089  0.1514  0.7311  0.3395
10311SOL    HW137025   0.233   5.559   1.168  1.1133 -2.0059 -0.2837
10311SOL    HW237026   0.366   5.606   1.113  0.0956  1.7308  0.1393
10312SOL     OW37027   5.650   2.597   7.505  0.0808 -0.2924  0.0720
10312SOL    HW137028   5.625   2.681   7.467 -1.4997 -0.9416 -0.4116
10312SOL    HW237029   5.582   2.536   7.476  0.4945 -1.4751  1.4361
10313SOL     OW37030   8.629   0.608   1.164  0.0173 -0.3398 -0.1796
10313SOL    HW137031   8.598   0.567   1.245  1.8492  1.7542  1.7552
10313SOL    HW237032   8.721   0.581   1.157 -0.1252 -0.5326 -1.6448
10314SOL     OW37033   7.708   7.808   1.672  0.3683  0.2440  0.3121
10314SOL    HW137034   7.674   7.744   1.734 -0.2541 -0.4816 -0.7598
10314SOL    HW237035   7.758   7.757   1.609 -1.7084  0.4847 -1.6760
10315SOL     OW37036  10.631   8.185   1.095 -0.2254 -0.4460  0.0007
10315SOL    HW137037  10.661   8.178   1.185  3.0236  0.9667 -0.8321
10315SOL    HW237038  10.676   8.114   1.049  1.2500  1.1374 -1.1236
10316SOL     OW37039   2.053   6.475   2.565 -0.6794  0.3400  0.1920
10316SOL    HW137040   2.078   6.485   2.657 -0.6303  1.2612  0.0856
10316SOL    HW237041   1.995   6.399   2.564  0.5173 -0.6350  0.7532
10317SOL     OW37042  10.493   0.777   8.832 -0.8484 -0.6123  0.1396
10317SOL    HW137043  10.555   0.752   8.763 -1.8630 -1.5973 -0.4441
10317SOL    HW237044  10.407   0.766   8.792 -1.4167  0.9207  0.8787
10318SOL     OW37045   7.141   1.227   6.054  0.0043  0.1216  0.1875
10318SOL    HW137046   7.153   1.304   6.110 -2.2752  1.8304 -1.4800
10318SOL    HW237047   7.049   1.204   6.064  0.0324 -0.7811 -1.3009
10319SOL     OW37048   2.166   8.979  10.319 -0.1510 -0.0441  0.8079
10319SOL    HW137049   2.173   8.978  10.414 -2.6214 -0.2655  1.0399
10319SOL    HW237050   2.075   8.958  10.301  0.3465 -0.4427 -1.6398
10320SOL     OW37051   0.769   9.766   4.512 -0.0934 -0.2594 -0.2400
10320SOL    HW137052   0.734   9.819   4.441  0.0509  1.0663  0.6197
10320SOL    HW237053   0.709   9.781   4.585  1.4274  0.9669  0.8493
10321SOL     OW37054   3.942   0.857  10.343 -0.0490 -0.0045  0.2343
10321SOL    HW137055   3.930   0.905  10.425 -1.6669 -0.7634  0.4852
10321SOL    HW237056   3.941   0.925  10.275 -0.6028  0.4740  0.7105
10322SOL     OW37057   7.630  10.094   0.012 -0.3197  0.5564  0.1033
10322SOL    HW137058   7.715  10.058   0.036  0.1011  1.0599 -0.5729
10322SOL    HW237059   7.646  10.138  -0.072 -1.1131  1.1450  0.2488
10323SOL     OW37060   9.885   4.921   0.423 -0.0351 -0.1360 -0.0712
10323SOL    HW137061   9.845   5.005   0.444 -2.7980 -1.1338 -0.9375
10323SOL    HW237062   9.943   4.940   0.349  1.1791  1.3690  1.2017
10324SOL     OW37063   7.139   0.224   2.480  0.1987 -0.2260  0.1110
10324SOL    HW137064   7.175   0.148   2.526  0.0235 -0.9994 -0.9950
10324SOL    HW237065   7.086   0.270   2.546  0.4742 -0.9426  0.8395
10325SOL     OW37066   0.444   9.266   2.157  0.1447 -0.2080 -0.5230
10325SOL    HW137067   0.363   9.270   2.106  0.4828  0.6028 -1.0162
10325SOL    HW237068   0.513   9.268   2.091  0.5887  0.7995 -0.0441
10326SOL     OW37069   3.188   8.403   1.913 -0.0692  0.4294 -0.2651
10326SOL    HW137070   3.212   8.469   1.977  2.0604  0.6248 -1.1859
10326SOL    HW237071   3.268   8.389   1.862 -0.5410 -2.6010 -0.3394
10327SOL     OW37072   5.183   8.531   5.539 -0.1886  0.2132  0.1481
10327SOL    HW137073   5.133   8.450   5.552  2.8577 -1.6017  1.7798
10327SOL    HW237074   5.149   8.590   5.607 -0.5128 -0.7668  0.8723
10328SOL     OW37075   0.444   7.563  10.819  0.1002  0.1273 -0.3421
10328SOL    HW137076   0.484   7.572  10.732 -1.1597 -1.9987 -1.2331
10328SOL    HW237077   0.417   7.471  10.823 -1.6535  0.6503  1.5180
10329SOL     OW37078   6.143   0.994   7.586  0.0384  0.5480 -0.2016
10329SOL    HW137079   6.206   0.965   7.652  0.5746 -0.9515 -1.3122
10329SOL    HW237080   6.169   1.084   7.566  0.9016  0.4580  0.4434
10330SOL     OW37081   5.205   2.507   9.343  0.3368 -0.1837 -0.1760
10330SOL    HW137082   5.245   2.436   9.394  1.4738 -0.0047 -0.7827
10330SOL    HW237083   5.278   2.566   9.323 -0.5554  1.0735  0.1622
10331SOL     OW37084   5.916  10.693  10.924 -0.1801  0.0103  0.3550
10331SOL    HW137085   5.999  10.739  10.920 -0.1039 -0.1419  0.1275
10331SOL    HW237086   5.939  10.601  10.906 -0.2420 -0.2216  1.4338
10332SOL     OW37087   8.101   6.638   8.667  0.6752  0.1821 -0.2977
10332SOL    HW137088   8.054   6.672   8.591  3.3040  1.4390 -1.5204
10332SOL    HW237089   8.190   6.623   8.635  2.0202  1.1709  2.5903
10333SOL     OW37090  10.002  10.185   0.225 -0.0529  0.0911  0.9862
10333SOL    HW137091  10.085  10.204   0.267  0.4681  0.1659 -0.0502
10333SOL    HW237092   9.990  10.091   0.237 -1.4675  0.5316  4.0165
10334SOL     OW37093   5.979   1.047   4.045  0.3755  0.2581 -0.1407
10334SOL    HW137094   6.071   1.023   4.033  0.3266 -0.7738  1.3300
10334SOL    HW237095   5.932   0.964   4.043 -0.4586  0.7228 -0.2333
10335SOL     OW37096   2.948   3.118   0.401 -0.1438 -0.0424  0.2004
10335SOL    HW137097   2.854   3.114   0.382 -0.0277  0.2499 -0.4588
10335SOL    HW237098   2.967   3.212   0.407 -0.1142 -0.1190  1.4832
10336SOL     OW37099   6.137   3.278   4.197  0.1864 -0.0831 -0.2646
10336SOL    HW137100   6.060   3.224   4.177 -0.7810  0.2848  2.0976
10336SOL    HW237101   6.170   3.243   4.279  2.2763  0.1373 -0.9568
10337SOL     OW37102   0.828   8.028   6.628 -0.3795  0.1144  0.1012
10337SOL    HW137103   0.820   8.121   6.609  1.4828  0.6755  1.6828
10337SOL    HW237104   0.825   8.022   6.723 -2.5405 -1.7272 -0.0074
10338SOL     OW37105   3.653  10.494   5.747  0.0501 -0.1931 -0.3217
10338SOL    HW137106   3.561  10.473   5.728  0.0435  0.7981 -1.5503
10338SOL    HW237107   3.703  10.438   5.688  0.2372 -0.5071  0.1296
10339SOL     OW37108   4.730   7.240   3.798  0.1940 -0.3121  0.2637
10339SOL    HW137109   4.761   7.321   3.757 -0.5974  1.1333  2.3378
10339SOL    HW237110   4.653   7.216   3.747 -1.4779  2.1078  1.4327
10340SOL     OW37111   6.441   3.343   4.821 -0.2100  0.0700  0.6754
10340SOL    HW137112   6.488   3.288   4.884  0.9832 -0.1942 -0.4173
10340SOL    HW237113   6.483   3.429   4.829 -2.1232  0.9149  2.4388
10341SOL     OW37114   4.683   3.554   6.648 -0.0413 -0.2725 -0.0417
10341SOL    HW137115   4.674   3.497   6.725  0.5027 -1.4314 -0.8190
10341SOL    HW237116   4.599   3.545   6.603  0.7276 -2.0699 -1.2151
10342SOL     OW37117   3.281   8.118   4.016 -0.1441 -0.3272 -0.2419
10342SOL    HW137118   3.232   8.118   3.934 -0.0385 -2.1645 -0.3425
10342SOL    HW237119   3.343   8.047   4.007  1.6837  1.1117  0.4218
10343SOL     OW37120   5.546   1.150   2.763 -0.2210 -0.0988  0.4207
10343SOL    HW137121   5.506   1.149   2.850 -1.8787 -0.5171 -0.3040
10343SOL    HW237122   5.524   1.236   2.728 -0.5946 -0.3784 -0.0345
10344SOL     OW37123   1.645   2.984   7.137 -0.1697  0.1226  0.2622
10344SOL    HW137124   1.566   2.931   7.132 -2.1930  3.0035 -1.3949
10344SOL    HW237125   1.654   3.005   7.230 -1.4522 -0.1311  0.4629
10345SOL     OW37126   3.594   4.675   1.391  0.0740  0.1212 -0.0974
10345SOL    HW137127   3.596   4.582   1.415  0.8173  0.0745 -0.3128
10345SOL    HW237128   3.510   4.707   1.424 -0.4465 -0.7671 -0.5535
10346SOL     OW37129   2.140   3.285   7.963  0.2008  0.2730 -0.2982
10346SOL    HW137130   2.072   3.288   8.030  0.7841 -2.3497  0.5183
10346SOL    HW237131   2.096   3.312   7.883 -1.7153 -0.8948  0.2975
10347SOL     OW37132   1.447   8.931   7.881  0.0337  0.1789 -0.0774
10347SOL    HW137133   1.357   8.917   7.854  0.5538 -0.8677 -1.3845
10347SOL    HW237134   1.448   8.909   7.974 -1.0137 -0.0524 -0.1138
10348SOL     OW37135   6.302   1.430   5.902 -0.2823 -0.0412  0.0075
10348SOL    HW137136   6.356   1.495   5.946  0.3268 -1.0475  0.7979
10348SOL    HW237137   6.262   1.477   5.829 -0.5492  1.4173  1.0632
10349SOL     OW37138   0.400   4.060  10.016  0.2282  0.1579  0.0463
10349SOL    HW137139   0.341   4.132   9.996 -1.1775 -0.9351  0.0710
10349SOL    HW237140   0.419   4.019   9.932 -0.7822 -0.7611  0.2400
10350SOL     OW37141   0.560   3.994   6.173  0.0110 -0.0974 -0.2829
10350SOL    HW137142   0.592   4.041   6.250  0.1668  0.7200 -0.8313
10350SOL    HW237143   0.472   3.964   6.198 -0.5548  1.4415 -0.2790
10351SOL     OW37144   8.570   9.289   8.724 -0.3420 -0.2844  0.1507
10351SOL    HW137145   8.563   9.372   8.772 -1.0113 -0.5721  0.5624
10351SOL    HW237146   8.497   9.290   8.662  0.5748  0.1272 -0.9514
10352SOL     OW37147   5.756   5.084   1.594 -0.0901  0.2471 -0.4083
10352SOL    HW137148   5.839   5.035   1.601  0.6065  1.4756  0.3692
10352SOL    HW237149   5.716   5.074   1.680 -0.7489 -0.3032 -0.7703
10353SOL     OW37150  10.485  10.756   5.563 -0.2734  0.5557  0.2550
10353SOL    HW137151  10.446  10.786   5.645  0.8612  1.6048  0.4414
10353SOL    HW237152  10.575  10.788   5.566  0.2426 -0.7051 -0.7216
10354SOL     OW37153   2.368  10.892   1.432 -0.2397 -0.0110  0.4056
10354SOL    HW137154   2.343  10.947   1.506  0.5193  3.0912 -1.4678
10354SOL    HW237155   2.464  10.887   1.437 -0.3242 -2.5215  1.3091
10355SOL     OW37156   1.140   2.872   7.441 -0.6078  0.1784  0.0842
10355SOL    HW137157   1.160   2.798   7.498  1.2654 -0.2362 -1.0367
10355SOL    HW237158   1.118   2.832   7.357  2.9925  0.8103 -1.3286
10356SOL     OW37159   7.176   9.524   6.193  0.2340 -0.2523  0.2601
10356SOL    HW137160   7.161   9.615   6.220  0.5081 -0.0812 -0.1528
10356SOL    HW237161   7.177   9.527   6.098  0.6362 -0.6261  0.2483
10357SOL     OW37162   7.359   9.426   7.837  0.4261 -0.3123 -0.1732
10357SOL    HW137163   7.393   9.379   7.760 -1.5561 -0.4506 -1.0268
10357SOL    HW237164   7.271   9.391   7.849  1.0651 -1.1074  2.9161
10358SOL     OW37165  10.233   7.403   7.161 -0.3272  0.0545 -0.5940
10358SOL    HW137166  10.274   7.341   7.221 -0.4668 -0.2338 -0.7938
10358SOL    HW237167  10.270   7.488   7.184 -2.0857  0.3357  1.4780
10359SOL     OW37168   9.737   2.704   5.206  0.0757 -1.0413  0.2999
10359SOL    HW137169   9.794   2.751   5.145 -2.0750 -0.2075 -1.1704
10359SOL    HW237170   9.725   2.617   5.167 -1.7405 -0.3269 -0.8319
10360SOL     OW37171   9.400  10.162   4.596  0.3760  0.0343 -0.6954
10360SOL    HW137172   9.414  10.122   4.510  0.3019 -1.1343 -0.1915
10360SOL    HW237173   9.487  10.191   4.623  0.1205  2.2778 -1.9926
10361SOL     OW37174   7.440  10.030   4.695 -0.1705 -0.2523 -0.2749
10361SOL    HW137175   7.379  10.083   4.645  3.3798  2.8484 -1.8199
10361SOL    HW237176   7.451  10.076   4.778 -0.0092 -0.8695  0.0576
10362SOL     OW37177   1.154   8.479   2.002  0.2624 -0.1806  0.1600
10362SOL    HW137178   1.224   8.414   2.007  0.1280 -0.2351  2.7373
10362SOL    HW237179   1.190   8.557   2.045 -1.8237 -0.8896  3.6237
10363SOL     OW37180   7.063  10.815   9.386 -0.4629  0.3039  0.5601
10363SOL    HW137181   6.992  10.755   9.408 -1.1481  0.7851 -0.2559
10363SOL    HW237182   7.019  10.893   9.353  0.4357  0.8576  0.6247
10364SOL     OW37183   6.123   3.090  10.455  0.4039 -0.1162  0.3965
10364SOL    HW137184   6.046   3.141  10.482  0.9903  1.1641 -0.2463
10364SOL    HW237185   6.146   3.040  10.533  0.9393  2.1006  1.7728
10365SOL     OW37186   3.244   5.804   9.664 -0.7693  0.7483  0.1959
10365SOL    HW137187   3.247   5.894   9.634  1.3872  0.7346  0.2534
10365SOL    HW237188   3.330   5.788   9.703 -1.0376 -1.3654  0.0508
10366SOL     OW37189   5.762   1.438   2.550 -0.5447 -0.5571  0.0732
10366SOL    HW137190   5.758   1.387   2.469 -0.2651  1.0014 -0.9677
10366SOL    HW237191   5.764   1.529   2.521 -0.4260  0.0485  1.8476
10367SOL     OW37192   4.659   1.892   6.294  0.0869 -0.2243  0.0140
10367SOL    HW137193   4.599   1.886   6.219 -0.8356 -0.8733  0.7914
10367SOL    HW237194   4.664   1.802   6.328  1.2144 -0.1066  0.1900
10368SOL     OW37195   4.878   5.021   8.827 -0.3702  0.2258 -0.1547
10368SOL    HW137196   4.898   5.072   8.905 -0.5063  0.6410 -0.3844
10368SOL    HW237197   4.783   5.027   8.818 -0.3499  0.2227 -0.3808
10369SOL     OW37198  10.269   2.192   5.482 -0.3249  0.1161 -0.1880
10369SOL    HW137199  10.207   2.258   5.512  0.2028 -0.0149  1.2824
10369SOL    HW237200  10.224   2.108   5.494  0.3103 -0.0231  1.4553
10370SOL     OW37201   3.288   7.768   9.717  0.0995 -0.2751 -0.2304
10370SOL    HW137202   3.200   7.780   9.681  1.0573 -0.8088 -2.9690
10370SOL    HW237203   3.302   7.845   9.772 -1.6049  0.4549 -0.7449
10371SOL     OW37204   5.532   0.323   1.458 -0.0649  0.0243  0.5562
10371SOL    HW137205   5.445   0.286   1.466  0.1111 -0.1347  2.0391
10371SOL    HW237206   5.586   0.274   1.520  1.2310 -0.2625 -0.7219
10372SOL     OW37207   6.263   2.359   5.130  0.0969  0.2546  0.1842
10372SOL    HW137208   6.323   2.368   5.057 -0.5557  0.3024 -0.3504
10372SOL    HW237209   6.307   2.298   5.190  0.4219 -0.1509 -0.4638
10373SOL     OW37210   4.914  10.124   7.684 -0.4767  0.2558  0.3441
10373SOL    HW137211   4.942  10.139   7.774 -1.5002 -0.3176  0.7780
10373SOL    HW237212   4.992  10.092   7.639 -0.6905 -2.8204  1.8869
10374SOL     OW37213   9.189   0.889   8.733 -0.1191  0.3612  0.2423
10374SOL    HW137214   9.187   0.943   8.812 -0.4903  0.2288  0.3219
10374SOL    HW237215   9.217   0.803   8.763 -0.8334  0.1535  0.3232
10375SOL     OW37216   6.992   8.692   8.762 -0.3584 -0.2724  0.0481
10375SOL    HW137217   7.022   8.614   8.716 -0.9279 -0.3741 -0.1698
10375SOL    HW237218   7.071   8.729   8.801  0.2114 -0.0011 -1.2879
10376SOL     OW37219   4.998   9.922   2.134 -0.3236 -0.2273 -0.1069
10376SOL    HW137220   5.057   9.945   2.206  0.3906  0.2761 -0.8328
10376SOL    HW237221   5.057   9.889   2.065 -1.0021 -0.7828 -0.4309
10377SOL     OW37222   5.294   6.191   2.415 -0.0962  1.0142 -0.1760
10377SOL    HW137223   5.222   6.195   2.478 -0.8611  2.0450 -1.0774
10377SOL    HW237224   5.254   6.159   2.334  0.7464  0.3068 -0.3293
10378SOL     OW37225   5.207   8.333   4.984 -0.1512  0.2284  0.3693
10378SOL    HW137226   5.137   8.397   4.997 -0.4614  0.2786 -1.3896
10378SOL    HW237227   5.216   8.326   4.889  0.2499 -1.9387  0.5325
10379SOL     OW37228   6.718   0.124   7.005  0.3594 -0.7323  0.3851
10379SOL    HW137229   6.711   0.218   7.017  2.1791 -0.7370  1.8371
10379SOL    HW237230   6.655   0.104   6.935 -0.8455  1.3695  0.7970
10380SOL     OW37231   5.465   0.579   2.802 -0.6809 -0.2808  0.0013
10380SOL    HW137232   5.489   0.602   2.891  2.4998 -1.7527 -0.3535
10380SOL    HW237233   5.450   0.484   2.805 -0.4405 -0.3629 -1.0356
10381SOL     OW37234   2.708  10.061   0.294  0.1703  0.6059  0.0249
10381SOL    HW137235   2.678  10.050   0.384  0.4867  0.0236  0.0627
10381SOL    HW237236   2.637  10.108   0.251 -0.6511 -0.4303  0.2080
10382SOL     OW37237   9.856   7.363   4.665  0.1772  0.1731 -0.6289
10382SOL    HW137238   9.801   7.441   4.669  0.4624  0.3432  0.0712
10382SOL    HW237239   9.817   7.304   4.730  0.9768  0.4001  0.0722
10383SOL     OW37240   8.309   4.723   0.337 -0.3471 -0.5322 -0.1960
10383SOL    HW137241   8.292   4.812   0.305  1.4562  0.2607  0.8250
10383SOL    HW237242   8.359   4.682   0.267  1.7330  0.4665  0.6087
10384SOL     OW37243   8.496   8.905   4.240 -0.2705 -0.0325  0.0193
10384SOL    HW137244   8.490   8.998   4.217  0.8878  0.3329  1.1073
10384SOL    HW237245   8.542   8.865   4.166  1.1828  0.6811  0.4926
10385SOL     OW37246   5.694   2.549   5.772  0.2320  0.7804 -0.2507
10385SOL    HW137247   5.665   2.480   5.832 -0.1390  1.8930  0.8897
10385SOL    HW237248   5.676   2.513   5.684  0.3910 -0.7034  0.2855
10386SOL     OW37249   7.191   9.949   1.228 -0.4485 -0.6073  1.0683
10386SOL    HW137250   7.183   9.856   1.250  0.0540 -1.4654 -1.9713
10386SOL    HW237251   7.156   9.956   1.140  2.6032  1.4119 -0.1566
10387SOL     OW37252  10.901   1.268   9.794  0.1210  0.2893  0.5978
10387SOL    HW137253  10.819   1.218   9.792  1.4165 -1.9124  0.6258
10387SOL    HW237254  10.881   1.347   9.743 -1.8927 -0.3660  0.2635
10388SOL     OW37255   3.035   4.994   6.072 -0.0255 -0.8844  0.0428
10388SOL    HW137256   2.993   4.911   6.051 -1.3339 -0.1653 -0.2915
10388SOL    HW237257   2.983   5.030   6.144  0.4896 -0.3216  0.1407
10389SOL     OW37258   5.274   6.110   3.441 -0.6111  0.3544  0.0649
10389SOL    HW137259   5.240   6.022   3.452 -1.4763  0.7719  0.7979
10389SOL    HW237260   5.229   6.144   3.364 -0.3951  0.2170 -0.1233
10390SOL     OW37261  10.238   6.044   6.554  0.0573  0.3410  0.4291
10390SOL    HW137262  10.287   6.054   6.472  0.3335  1.7603  0.7461
10390SOL    HW237263  10.227   6.133   6.587 -3.5151  0.2211 -0.0554
10391SOL     OW37264  10.236  10.809   9.457 -0.3945  0.4976 -0.0335
10391SOL    HW137265  10.317  10.805   9.406  0.6556  0.4744  1.5705
10391SOL    HW237266  10.241  10.735   9.517 -1.0696  1.1248  0.8289
10392SOL     OW37267   7.944   9.863   8.513 -0.2568  0.0750  0.6961
10392SOL    HW137268   7.951   9.889   8.605  1.1188 -0.5044  0.7886
10392SOL    HW237269   7.859   9.895   8.484 -1.5488 -1.3368  2.6872
10393SOL     OW37270   2.966   1.610   3.905  0.1886 -0.2526 -0.1607
10393SOL    HW137271   2.878   1.636   3.932  0.0634 -0.7028 -0.1362
10393SOL    HW237272   2.975   1.646   3.816 -0.3906 -1.0433 -0.5543
10394SOL     OW37273   1.326   9.531   0.420 -0.8091 -0.2411  0.6790
10394SOL    HW137274   1.393   9.479   0.464  0.0892 -0.7207 -1.1596
10394SOL    HW237275   1.307   9.602   0.481  1.2681 -0.1820  1.3397
10395SOL     OW37276   6.359   5.105   4.153  0.0321  0.1713 -0.4868
10395SOL    HW137277   6.284   5.132   4.100 -0.6471  1.5680  1.0839
10395SOL    HW237278   6.395   5.187   4.187 -0.7204 -0.6489  2.6645
10396SOL     OW37279   6.361   6.945   6.367  0.2826 -0.0233 -0.2394
10396SOL    HW137280   6.370   6.981   6.279  1.2902  0.8373  0.1878
10396SOL    HW237281   6.430   6.988   6.417  0.3860 -1.2709  0.7315
10397SOL     OW37282   5.940   0.374   3.978  0.4650 -0.9384  0.3630
10397SOL    HW137283   6.027   0.336   3.965  0.6927 -0.2225 -0.2422
10397SOL    HW237284   5.940   0.454   3.926  1.3179  2.0382  4.3726
10398SOL     OW37285   3.790  10.808   9.254  0.0506  0.3613  0.0480
10398SOL    HW137286   3.852  10.858   9.306 -0.0499  0.8070 -0.2501
10398SOL    HW237287   3.705  10.823   9.296  0.3686 -1.7253  1.5553
10399SOL     OW37288   0.625   4.628   8.782  0.1665  0.6160 -0.1567
10399SOL    HW137289   0.702   4.571   8.774 -0.1271  0.4598 -2.2705
10399SOL    HW237290   0.642   4.699   8.720 -1.3470  0.6190 -0.5946
10400SOL     OW37291   3.784   9.643   6.955  0.5127  0.0741 -0.3775
10400SOL    HW137292   3.727   9.631   7.031 -0.3344 -0.0359 -1.0212
10400SOL    HW237293   3.753   9.579   6.892  0.2735  1.1432 -1.3637
10401SOL     OW37294   7.860   4.388   5.566  0.3285  0.2267 -0.3230
10401SOL    HW137295   7.855   4.475   5.526  0.1831 -0.2927 -1.4716
10401SOL    HW237296   7.864   4.405   5.661 -0.9133  1.4419 -0.4517
10402SOL     OW37297   0.714   5.933  10.385 -0.0851 -0.0730 -0.3219
10402SOL    HW137298   0.668   5.854  10.359  1.6103 -1.0957 -0.3723
10402SOL    HW237299   0.650   5.983  10.435 -1.2677 -1.3708 -0.4890
10403SOL     OW37300   4.682   9.846   3.866  0.0311 -0.2535  0.1128
10403SOL    HW137301   4.713   9.891   3.787 -0.6031 -0.1391 -0.0767
10403SOL    HW237302   4.650   9.916   3.923  1.2803 -0.2501  0.8551
10404SOL     OW37303   2.261   4.204   4.633 -0.2670 -0.2596 -0.4421
10404SOL    HW137304   2.316   4.127   4.648  0.0228 -0.0651 -0.5015
10404SOL    HW237305   2.264   4.252   4.716  0.1340  0.0550 -0.6366
10405SOL     OW37306   6.385   3.947   0.696 -0.6442  0.1119  0.2978
10405SOL    HW137307   6.441   3.899   0.756 -1.3832  0.4072  1.2503
10405SOL    HW237308   6.300   3.904   0.702 -0.5762 -0.2555 -1.0365
10406SOL     OW37309   2.062   9.394   8.308 -0.0693  0.4219 -0.3202
10406SOL    HW137310   2.057   9.299   8.306  0.7067  0.3680 -0.0161
10406SOL    HW237311   2.097   9.418   8.222  0.0713  0.4125 -0.2654
10407SOL     OW37312   7.533   2.797   0.839  0.1558  0.0723  0.3949
10407SOL    HW137313   7.514   2.860   0.909  0.0694  0.7210 -0.2029
10407SOL    HW237314   7.460   2.807   0.777  1.3920  1.1576 -0.9350
10408SOL     OW37315   9.499   7.212  10.066 -0.4811  0.0841 -0.3343
10408SOL    HW137316   9.444   7.138  10.040 -0.2989 -1.4331  3.0831
10408SOL    HW237317   9.440   7.286  10.072 -1.0265 -0.1743 -1.9870
10409SOL     OW37318   6.270   6.227   7.445 -0.0621  0.5233  0.2284
10409SOL    HW137319   6.345   6.283   7.462 -1.2064  2.2225 -0.0093
10409SOL    HW237320   6.226   6.220   7.530  0.9534 -1.4534  0.6389
10410SOL     OW37321   8.360   9.101   3.138  0.5824  0.8618  0.6021
10410SOL    HW137322   8.415   9.042   3.087  0.2429  0.2373  0.9352
10410SOL    HW237323   8.330   9.167   3.076  0.3782  0.2570  0.0451
10411SOL     OW37324   5.505   3.461   2.628 -0.3194 -1.1772 -0.1964
10411SOL    HW137325   5.559   3.511   2.690 -0.6205 -0.4146 -0.5434
10411SOL    HW237326   5.551   3.468   2.545  0.6386 -3.0602  0.1049
10412SOL     OW37327   2.160   7.103  10.816 -0.0039 -0.9466  0.1153
10412SOL    HW137328   2.074   7.142  10.834  0.5001  0.5927 -0.6481
10412SOL    HW237329   2.188   7.145  10.735  2.0045 -0.4849  0.9943
10413SOL     OW37330  10.646   1.245   9.625 -0.0808  0.0149  0.1448
10413SOL    HW137331  10.650   1.309   9.554 -0.0142  0.2948  0.3977
10413SOL    HW237332  10.707   1.176   9.599  1.4006  1.0093  0.8030
10414SOL     OW37333   8.596   2.444   9.326  0.3645  0.5000 -0.0237
10414SOL    HW137334   8.681   2.434   9.284  0.6062  1.4816  0.2021
10414SOL    HW237335   8.537   2.391   9.273  0.7743  1.2390 -1.2620
10415SOL     OW37336   7.311  10.746   6.434  0.7004 -0.3157 -0.1110
10415SOL    HW137337   7.310  10.839   6.456  1.5710 -0.3561  0.1042
10415SOL    HW237338   7.242  10.737   6.368  0.8628  0.5475 -0.4116
10416SOL     OW37339   3.886   7.777   3.604  0.5132  0.1193 -0.0137
10416SOL    HW137340   3.940   7.828   3.665  0.4590  1.8137 -1.2933
10416SOL    HW237341   3.945   7.755   3.532  0.4898 -1.5416  0.4519
10417SOL     OW37342   5.164   1.702  10.578  0.4010 -0.0402 -0.1003
10417SOL    HW137343   5.238   1.693  10.638  1.0122 -1.5405 -1.0254
10417SOL    HW237344   5.155   1.797  10.565  3.0852  0.1959 -1.0258
10418SOL     OW37345   0.858   5.008   6.238  0.0222 -0.3672 -0.4643
10418SOL    HW137346   0.864   4.915   6.261  0.2900 -0.0682  0.7909
10418SOL    HW237347   0.822   5.009   6.150  2.6424 -1.7717 -1.6636
10419SOL     OW37348   9.029   9.142   5.277 -0.4176  0.0821 -0.7716
10419SOL    HW137349   9.111   9.107   5.309 -0.1897  0.8586 -0.4747
10419SOL    HW237350   9.047   9.235   5.260 -0.7766 -0.0926 -2.2733
10420SOL     OW37351   3.591   3.040   7.491 -1.2386 -0.3379  0.7099
10420SOL    HW137352   3.575   2.946   7.497 -2.4577 -0.0940  1.5898
10420SOL    HW237353   3.661   3.048   7.426 -1.9299 -1.7620 -0.2661
10421SOL     OW37354   6.889   0.399   7.314 -0.3612 -0.2124  0.8099
10421SOL    HW137355   6.968   0.378   7.265 -0.8818  0.0963 -0.1991
10421SOL    HW237356   6.856   0.315   7.345  0.3784 -0.3364  1.2748
10422SOL     OW37357   4.365   6.023   5.130  0.7162  0.0192 -0.0593
10422SOL    HW137358   4.302   6.086   5.095  0.6722 -0.4041 -0.7709
10422SOL    HW237359   4.312   5.966   5.187  0.3652 -0.5569 -0.9351
10423SOL     OW37360   4.942   7.908  10.781 -0.0770 -0.1118 -0.1153
10423SOL    HW137361   4.910   7.941  10.865 -1.7454 -0.2358 -0.6606
10423SOL    HW237362   4.912   7.973  10.717  0.3182 -0.5189 -0.7260
10424SOL     OW37363   5.667   4.866   1.288 -0.5725  0.4231 -0.2620
10424SOL    HW137364   5.680   4.776   1.315 -1.9122  0.8061  1.9295
10424SOL    HW237365   5.589   4.895   1.336  0.6190  3.1747  0.2564
10425SOL     OW37366   6.303   8.244   3.130 -0.2075  0.2556  0.1434
10425SOL    HW137367   6.314   8.149   3.140  0.3069  0.2364 -0.5934
10425SOL    HW237368   6.388   8.275   3.098 -0.6916  0.8218 -0.6090
10426SOL     OW37369   2.501   4.200   9.834  0.0964 -0.4142 -0.2496
10426SOL    HW137370   2.486   4.136   9.903 -0.1536  0.2773  0.3576
10426SOL    HW237371   2.460   4.280   9.867 -1.5043 -0.4899 -1.9417
10427SOL     OW37372   8.806   9.846   3.129 -0.3478 -0.2562 -0.2628
10427SOL    HW137373   8.796   9.916   3.065 -0.0086 -1.3367 -1.5561
10427SOL    HW237374   8.880   9.873   3.184  0.0614  0.2060 -1.0237
10428SOL     OW37375   6.206   6.787   7.706  0.0264 -0.2562  0.4131
10428SOL    HW137376   6.129   6.769   7.653  0.1163  0.4381  0.0323
10428SOL    HW237377   6.191   6.876   7.740  1.0538  0.2396 -0.3852
10429SOL     OW37378   8.183   8.321   5.956 -0.2136  0.2026 -0.0580
10429SOL    HW137379   8.119   8.253   5.978 -0.8727  0.5283 -0.8733
10429SOL    HW237380   8.206   8.303   5.865  0.9081  0.0631  0.2419
10430SOL     OW37381   7.281   9.174   3.651 -0.1975 -0.1381  0.4377
10430SOL    HW137382   7.267   9.229   3.728  1.0587  1.2145 -0.2337
10430SOL    HW237383   7.369   9.197   3.622 -0.1368 -1.6114 -0.6259
10431SOL     OW37384   9.765  10.194   9.530 -0.4450 -0.1545 -0.2342
10431SOL    HW137385   9.838  10.141   9.497  0.7335  1.7391 -0.7710
10431SOL    HW237386   9.695  10.181   9.465  0.2030 -0.1879 -0.9328
10432SOL     OW37387   1.260   0.338  10.857  0.5268  0.1153  0.5413
10432SOL    HW137388   1.325   0.383  10.912 -0.0789  1.5229  0.1515
10432SOL    HW237389   1.244   0.398  10.785  1.1753 -1.6284 -1.1429
10433SOL     OW37390   7.254  10.217   2.685 -0.1312  0.3546  0.3411
10433SOL    HW137391   7.285  10.300   2.721 -0.7063  1.0317 -0.6935
10433SOL    HW237392   7.327  10.186   2.631 -0.6801  1.2558 -0.9680
10434SOL     OW37393   9.022   3.138  10.080 -0.2990 -0.1879 -0.5999
10434SOL    HW137394   8.969   3.133  10.000  1.1231 -0.1252 -1.5734
10434SOL    HW237395   9.043   3.046  10.100 -1.3199 -0.2762  0.2065
10435SOL     OW37396   7.796   7.965   3.814 -0.3654  0.2342  0.7808
10435SOL    HW137397   7.739   7.895   3.782 -0.0390  0.3901 -0.1974
10435SOL    HW237398   7.813   8.018   3.736 -1.8025  2.2681  1.7649
10436SOL     OW37399   7.697   9.840   6.730 -0.2411  0.5076  0.5789
10436SOL    HW137400   7.701   9.804   6.642  0.1509 -1.6185  1.3984
10436SOL    HW237401   7.698   9.935   6.718 -1.5353  0.2867 -1.7334
10437SOL     OW37402   1.489   3.768   6.326 -0.2953  0.3527  0.8157
10437SOL    HW137403   1.449   3.763   6.239  0.1596  2.2924  0.4461
10437SOL    HW237404   1.427   3.819   6.378 -0.6703 -0.9863  1.7252
10438SOL     OW37405   8.734   2.559   8.657 -0.0238 -0.4582 -0.4907
10438SOL    HW137406   8.706   2.597   8.741  0.7261 -2.7803  0.9188
10438SOL    HW237407   8.722   2.629   8.594 -0.2099  1.5619  1.6288
10439SOL     OW37408   7.171   2.070   6.213  0.6480 -0.1631  0.3043
10439SOL    HW137409   7.125   2.114   6.284  0.4666  1.7144 -0.8962
10439SOL    HW237410   7.251   2.037   6.253  1.9985  3.3814  0.9051
10440SOL     OW37411   7.753   6.917   5.911  0.3585  0.0751  0.6918
10440SOL    HW137412   7.686   6.870   5.861  1.0686 -0.8139  0.5548
10440SOL    HW237413   7.755   7.004   5.872  0.0844 -0.2467 -0.0555
10441SOL     OW37414   9.791   9.247   8.073 -0.3611 -0.2530 -0.4851
10441SOL    HW137415   9.770   9.198   7.993 -0.6760  1.4824 -1.5154
10441SOL    HW237416   9.827   9.330   8.042 -0.2158  0.3517  1.1815
10442SOL     OW37417   9.931   1.590   5.602 -0.0910 -0.0123  0.2329
10442SOL    HW137418   9.879   1.620   5.677 -0.2832  0.8188 -0.2159
10442SOL    HW237419   9.999   1.534   5.640  0.2725  0.9940  1.1078
10443SOL     OW37420   2.437   6.415   9.127 -0.1702  0.1973 -0.1771
10443SOL    HW137421   2.346   6.434   9.105 -0.1704 -1.1538 -1.5050
10443SOL    HW237422   2.435   6.392   9.220 -0.9027  1.6907  0.2140
10444SOL     OW37423   0.792   0.956   6.113  0.3862  0.4256 -0.5371
10444SOL    HW137424   0.804   0.959   6.208 -0.0575  0.4163 -0.4797
10444SOL    HW237425   0.726   1.023   6.095 -0.6594 -0.5976 -0.6511
10445SOL     OW37426   3.093   0.932   1.467  0.5874  0.2491  0.1000
10445SOL    HW137427   3.071   1.020   1.436 -1.7045 -0.3061 -0.0194
10445SOL    HW237428   3.185   0.920   1.441 -0.0639  1.2500 -3.1610
10446SOL     OW37429   1.118  10.228   1.523 -0.3061 -0.1545  0.0171
10446SOL    HW137430   1.080  10.232   1.610 -0.3537 -1.0817  0.0557
10446SOL    HW237431   1.089  10.144   1.488  2.3442 -1.3360  0.3898
10447SOL     OW37432   7.328  10.707  10.341 -0.1891 -0.1795  0.0924
10447SOL    HW137433   7.371  10.671  10.263 -0.1957  1.3407 -0.6648
10447SOL    HW237434   7.252  10.754  10.307 -1.1923 -0.9429  1.2062
10448SOL     OW37435   4.738   2.833   3.797  0.2980 -0.5004  0.0911
10448SOL    HW137436   4.821   2.803   3.834  0.2013 -0.3964  0.3950
10448SOL    HW237437   4.699   2.887   3.866  0.4179  0.2340 -0.4006
10449SOL     OW37438   4.983   7.158   3.919 -0.2750 -0.2438 -0.6245
10449SOL    HW137439   4.989   7.241   3.966 -1.4501 -1.6908  2.3065
10449SOL    HW237440   4.900   7.162   3.873 -0.1444  0.3458 -0.8168
10450SOL     OW37441   0.964  10.848   2.050  0.5956 -0.5386  0.1257
10450SOL    HW137442   1.049  10.804   2.060 -0.8999 -3.2242  1.9864
10450SOL    HW237443   0.913  10.789   1.995 -1.1226 -0.6513  1.7587
10451SOL     OW37444   1.432  10.104  10.337 -0.0498  0.3392 -0.2982
10451SOL    HW137445   1.406  10.043  10.406  1.0478  0.1240 -0.0662
10451SOL    HW237446   1.352  10.119  10.287 -0.8188  0.3360  0.8916
10452SOL     OW37447   2.794   6.863   1.986 -0.0095  0.3167 -0.3081
10452SOL    HW137448   2.707   6.883   1.951 -0.1039  1.3441  0.4470
10452SOL    HW237449   2.777   6.821   2.070  0.1711  2.2267  0.7512
10453SOL     OW37450  10.305   9.038   9.558 -0.3581 -0.0106 -0.8181
10453SOL    HW137451  10.230   9.038   9.499 -1.6543 -1.3622  0.7193
10453SOL    HW237452  10.279   9.095   9.630 -0.2978 -1.1398  0.1287
10454SOL     OW37453   4.596   5.784  10.376 -0.5992  0.0906 -0.0271
10454SOL    HW137454   4.644   5.866  10.372 -2.1233  1.0111 -2.6336
10454SOL    HW237455   4.646   5.724  10.321 -0.1391 -0.3564  0.8657
10455SOL     OW37456   4.923   2.296   9.645  0.1582  0.1817 -0.4014
10455SOL    HW137457   4.885   2.211   9.625 -0.1132  0.8065 -2.9872
10455SOL    HW237458   4.850   2.357   9.637  0.7402  0.8629 -0.6687
10456SOL     OW37459   2.779   9.065   1.678  0.5817 -0.5829 -0.0937
10456SOL    HW137460   2.752   8.977   1.654 -1.3448 -0.3284  0.9459
10456SOL    HW237461   2.726   9.086   1.755  0.7038  1.6239 -0.5485
10457SOL     OW37462   3.091  10.219   1.040 -0.3880  0.0457 -0.8018
10457SOL    HW137463   3.096  10.263   1.125 -1.9535 -0.2189 -0.5488
10457SOL    HW237464   3.170  10.247   0.994 -0.2978  1.4364  0.1431
10458SOL     OW37465   6.314   7.661   0.852 -0.2576 -0.3862 -0.1999
10458SOL    HW137466   6.251   7.726   0.819  0.5198  0.2186 -0.5130
10458SOL    HW237467   6.396   7.710   0.861  0.6963 -1.6337 -1.7072
10459SOL     OW37468   2.461   1.493   6.889 -0.2710 -0.0164 -0.9076
10459SOL    HW137469   2.534   1.482   6.828  0.0795 -0.0632 -0.4766
10459SOL    HW237470   2.428   1.404   6.904  2.5098 -0.6504  2.5122
10460SOL     OW37471   5.159   5.181   9.205  0.0398 -0.0620  0.1566
10460SOL    HW137472   5.138   5.195   9.113  1.3432 -3.0014 -0.6807
10460SOL    HW237473   5.194   5.265   9.234 -3.0459  1.8491 -1.1449
10461SOL     OW37474   2.392   3.070  10.373  0.2229  0.0525 -0.2568
10461SOL    HW137475   2.352   3.046  10.289  0.6533 -1.0609 -0.1719
10461SOL    HW237476   2.416   3.162  10.363 -1.2652  0.4218 -0.7227
10462SOL     OW37477   0.860   7.250   1.180  0.0567 -0.0960 -0.3201
10462SOL    HW137478   0.804   7.303   1.237 -0.1315 -0.8985  0.2602
10462SOL    HW237479   0.877   7.306   1.104 -0.5969  0.5818  0.0204
10463SOL     OW37480   8.139   3.289   6.720  0.1237 -0.5028  0.6300
10463SOL    HW137481   8.109   3.365   6.768 -0.2365  0.5661 -1.1900
10463SOL    HW237482   8.230   3.277   6.748 -0.2651 -0.3492  2.0341
10464SOL     OW37483   8.519   6.118   8.087  0.2413  0.0845  0.3085
10464SOL    HW137484   8.581   6.053   8.054  0.5210  0.4377  0.1372
10464SOL    HW237485   8.533   6.119   8.181  0.4267  0.0933  0.2811
10465SOL     OW37486   1.978   5.949   3.990 -0.4616  0.4231  0.3836
10465SOL    HW137487   1.899   5.897   4.005 -0.6416  0.2577 -1.0714
10465SOL    HW237488   1.947   6.026   3.943  0.4038 -0.3163 -1.4790
10466SOL     OW37489   9.981   9.805   9.317  0.1483  0.5081  0.5890
10466SOL    HW137490   9.905   9.786   9.372 -0.1639  0.5491  0.1782
10466SOL    HW237491   9.943   9.843   9.237  0.6194  0.8177  0.5108
10467SOL     OW37492  10.647   7.543   7.441  0.4091 -0.1062 -0.0292
10467SOL    HW137493  10.604   7.626   7.422  1.3279  0.5886  0.8277
10467SOL    HW237494  10.584   7.496   7.495  0.3379  0.5050  0.4284
10468SOL     OW37495   2.301   7.958   5.845 -0.3639  0.0908 -0.0691
10468SOL    HW137496   2.225   7.913   5.883 -0.2779 -0.0601 -0.0794
10468SOL    HW237497   2.266   8.044   5.820 -0.7587 -0.3159 -0.9347
10469SOL     OW37498   9.821   0.763   4.777 -0.0906  0.3471  0.5380
10469SOL    HW137499   9.897   0.712   4.806 -0.1190  0.2483  0.4418
10469SOL    HW237500   9.763   0.698   4.738 -0.6002  0.2982  1.3640
10470SOL     OW37501   4.397   8.203   2.470 -0.0019  0.0203  0.0116
10470SOL    HW137502   4.351   8.287   2.474 -1.1399 -0.6292  2.2460
10470SOL    HW237503   4.330   8.138   2.491  1.0234 -1.3950 -0.9232
10471SOL     OW37504   3.549   9.945   2.500  0.1891  0.0210  0.0024
10471SOL    HW137505   3.550   9.934   2.405 -1.6068  0.3761 -0.0906
10471SOL    HW237506   3.622  10.005   2.518  0.9115 -0.5039 -1.0724
10472SOL     OW37507   5.068   1.228   8.441  0.2786  0.1454 -0.4596
10472SOL    HW137508   5.099   1.311   8.406 -0.8627  1.1230  0.7662
10472SOL    HW237509   5.015   1.251   8.517  1.2124 -1.7882  0.8793
10473SOL     OW37510   4.689  10.302   7.792  0.3183 -0.1832  0.2819
10473SOL    HW137511   4.781  10.323   7.808  0.5322 -0.6091 -0.3755
10473SOL    HW237512   4.687  10.271   7.702 -0.5836  0.5007  0.0502
10474SOL     OW37513   8.860  10.376   5.840 -0.3737  0.1789 -0.2363
10474SOL    HW137514   8.770  10.348   5.827 -0.7869  1.2618  0.2334
10474SOL    HW237515   8.875  10.442   5.772 -0.1358  0.4494  0.0730
10475SOL     OW37516   0.356   3.695   2.773 -0.4692 -0.0340  0.9027
10475SOL    HW137517   0.354   3.645   2.691  1.0478  0.0455  0.7936
10475SOL    HW237518   0.329   3.633   2.840 -0.7157 -0.3880  0.4780
10476SOL     OW37519   5.360   7.731   2.348  0.2800  0.0537  0.0104
10476SOL    HW137520   5.437   7.748   2.402  0.9844 -0.1224 -0.9104
10476SOL    HW237521   5.394   7.730   2.258 -0.5896 -1.2015 -0.3262
10477SOL     OW37522   3.751   0.693   0.491  0.2507  0.1585  1.0178
10477SOL    HW137523   3.735   0.624   0.426 -0.6521  1.3771 -0.1038
10477SOL    HW237524   3.776   0.769   0.439 -1.5194  1.4619  1.9707
10478SOL     OW37525   6.179   1.480   9.564  0.4650  0.0368 -0.4558
10478SOL    HW137526   6.219   1.429   9.493  0.1123  0.5880 -1.0703
10478SOL    HW237527   6.171   1.568   9.528 -0.5153  0.1270 -0.0423
10479SOL     OW37528   6.794   9.548   7.747 -0.1673  0.3170  0.4966
10479SOL    HW137529   6.815   9.518   7.836 -1.1612  2.1644  1.4170
10479SOL    HW237530   6.870   9.600   7.721  1.4428 -2.5601 -0.9979
10480SOL     OW37531   7.001   0.325   5.314  0.3160  0.0559 -0.4585
10480SOL    HW137532   7.079   0.376   5.337  1.0232 -0.4430 -1.6425
10480SOL    HW237533   6.934   0.391   5.297  0.8542  0.5535 -0.7188
10481SOL     OW37534   6.681   9.046   5.061 -0.0402 -0.5990  0.9304
10481SOL    HW137535   6.714   8.956   5.069 -0.6347 -0.9646 -0.4704
10481SOL    HW237536   6.725   9.093   5.132  2.9243 -1.1961 -0.3435
10482SOL     OW37537   0.449   9.129   8.415 -0.1192 -0.5341 -0.4908
10482SOL    HW137538   0.358   9.149   8.435  0.3531 -0.6363  2.1021
10482SOL    HW237539   0.496   9.211   8.429  0.5482 -1.1455  1.2340
10483SOL     OW37540   8.852   9.162   0.403 -0.2942 -0.4786 -0.2557
10483SOL    HW137541   8.761   9.137   0.418 -0.1315 -1.8234 -1.3066
10483SOL    HW237542   8.848   9.231   0.337 -0.6020  0.4063  0.6642
10484SOL     OW37543   0.181   0.924   2.389  0.6312  0.4430 -0.2822
10484SOL    HW137544   0.128   0.845   2.402 -0.6502  1.5803  2.0486
10484SOL    HW237545   0.267   0.900   2.421  0.8505 -0.5926 -1.5440
10485SOL     OW37546   2.517   4.915   1.508 -0.4123 -0.5811  0.2027
10485SOL    HW137547   2.475   5.000   1.517  0.3255 -0.0984 -0.6569
10485SOL    HW237548   2.525   4.881   1.597  1.7813  1.4937  0.8939
10486SOL     OW37549   5.880   3.628   4.498 -0.1620  0.0978  0.1130
10486SOL    HW137550   5.849   3.538   4.488 -0.6978  0.2525  0.3051
10486SOL    HW237551   5.972   3.625   4.473  0.0692 -0.6815  1.0260
10487SOL     OW37552   6.470   2.109   0.890  0.3107 -0.2199  0.7249
10487SOL    HW137553   6.379   2.120   0.916 -0.6701 -0.2320 -2.3496
10487SOL    HW237554   6.480   2.014   0.879  0.4553 -0.1541  0.2769
10488SOL     OW37555   1.643   6.821  10.606 -0.6415  0.0870 -0.1920
10488SOL    HW137556   1.692   6.794  10.528 -1.1814  0.5131 -0.6839
10488SOL    HW237557   1.706   6.813  10.677  0.4988  1.6254 -0.9510
10489SOL     OW37558   7.695   0.268   1.563 -0.0089 -0.4125 -0.3413
10489SOL    HW137559   7.675   0.336   1.498  1.3940  0.3036 -0.0718
10489SOL    HW237560   7.610   0.245   1.600 -0.5622  1.0218 -0.6267
10490SOL     OW37561   0.699  10.589   4.318 -0.6000  0.1323 -0.5419
10490SOL    HW137562   0.724  10.646   4.390 -0.1902  0.1214 -0.6763
10490SOL    HW237563   0.653  10.646   4.256 -3.0695 -0.2663  0.7738
10491SOL     OW37564   3.370   8.351   2.479 -0.0799 -0.0815  0.7565
10491SOL    HW137565   3.296   8.411   2.490 -0.4899 -0.4197 -0.0426
10491SOL    HW237566   3.426   8.394   2.415  0.1499 -0.0740  0.9624
10492SOL     OW37567   9.607   9.585   2.394 -0.3126 -0.3376 -0.4770
10492SOL    HW137568   9.608   9.617   2.484 -2.0462  0.8416 -0.8161
10492SOL    HW237569   9.695   9.552   2.378  1.0799  2.6206  0.5213
10493SOL     OW37570   7.627   0.506   1.747  0.6095 -0.5353  0.0457
10493SOL    HW137571   7.567   0.481   1.817  0.2759 -1.5980 -0.6162
10493SOL    HW237572   7.692   0.436   1.744  0.0255 -1.0463 -1.3997
10494SOL     OW37573   3.012   4.369   6.570 -0.1363 -0.3022  0.3993
10494SOL    HW137574   2.920   4.353   6.593 -0.4183 -0.7705 -0.9477
10494SOL    HW237575   3.042   4.432   6.635 -2.4779  2.7419 -1.2114
10495SOL     OW37576   7.329   1.077   5.870 -0.2454  0.0396  0.3546
10495SOL    HW137577   7.399   1.134   5.837 -3.4901  2.7815 -2.6057
10495SOL    HW237578   7.285   1.131   5.936 -1.3202 -0.3816  0.0007
10496SOL     OW37579   5.025  10.157   6.030 -0.2520  0.3659 -0.7049
10496SOL    HW137580   5.001  10.189   5.943 -1.1231  1.2782 -0.1525
10496SOL    HW237581   4.961  10.089   6.049 -1.7854  1.9905  0.2811
10497SOL     OW37582   2.740   8.975   9.778 -0.0653 -0.2753 -0.1534
10497SOL    HW137583   2.749   9.022   9.860  1.6152  0.0583 -0.4812
10497SOL    HW237584   2.686   9.031   9.722  2.2463  1.5710 -0.6932
10498SOL     OW37585   9.167   9.442   5.318  0.2054  0.0716 -0.4204
10498SOL    HW137586   9.188   9.521   5.268  0.0274  0.3656 -0.0404
10498SOL    HW237587   9.228   9.444   5.392  0.0673 -0.0423 -0.3034
10499SOL     OW37588   9.891   0.631   4.168  0.6573 -0.2133 -0.0862
10499SOL    HW137589   9.878   0.681   4.087  0.7709  0.5760  0.3688
10499SOL    HW237590   9.812   0.578   4.176  1.3385 -1.5211 -1.5427
10500SOL     OW37591   0.928   2.794  10.798  0.0441  0.1026 -0.1641
10500SOL    HW137592   0.967   2.819  10.714  0.8981  0.8112  0.4341
10500SOL    HW237593   0.923   2.875  10.848  0.4100 -0.4568  0.8191
10501SOL     OW37594   5.072   2.546   1.510  0.2774 -0.0339 -0.3727
10501SOL    HW137595   5.160   2.585   1.509 -0.0103  0.7746  1.6233
10501SOL    HW237596   5.013   2.621   1.502 -0.2549 -0.3951  0.1887
10502SOL     OW37597   0.910  10.681   7.832  0.0902  0.2014 -0.1806
10502SOL    HW137598   0.950  10.679   7.746  0.2307 -0.0462 -0.1098
10502SOL    HW237599   0.961  10.745   7.881 -1.7453  2.5587 -1.1348
10503SOL     OW37600   3.277   5.993   7.213  0.3874 -0.6596  0.2718
10503SOL    HW137601   3.233   6.017   7.295 -0.4583  0.3776 -0.4616
10503SOL    HW237602   3.356   6.047   7.211 -0.5534  0.7204 -0.4776
10504SOL     OW37603   3.383   2.366   7.144  0.1832  0.9805 -0.3887
10504SOL    HW137604   3.446   2.422   7.098 -0.4941  0.4427 -2.0593
10504SOL    HW237605   3.305   2.421   7.153 -0.4520  0.3952 -1.9506
10505SOL     OW37606   2.441   8.620   5.894 -0.0208  1.3931 -0.4113
10505SOL    HW137607   2.392   8.693   5.855 -1.4378  0.6282 -0.1239
10505SOL    HW237608   2.376   8.573   5.946  1.4290  1.3665  1.4699
10506SOL     OW37609   6.845   0.183   4.248  0.2423 -0.1737 -0.0983
10506SOL    HW137610   6.929   0.219   4.274 -0.5583  1.0568  0.9653
10506SOL    HW237611   6.864   0.093   4.221  1.9669  0.2980 -0.5584
10507SOL     OW37612   2.520   7.856   2.395 -0.0205  0.5086 -0.4052
10507SOL    HW137613   2.486   7.771   2.423 -0.4392  0.7540 -0.1676
10507SOL    HW237614   2.443   7.912   2.388  0.3124  1.0307 -0.0028
10508SOL     OW37615   7.697   3.219   6.540 -0.0301  0.1928  0.1085
10508SOL    HW137616   7.637   3.148   6.566  1.0697 -1.1232 -0.8023
10508SOL    HW237617   7.777   3.202   6.589 -0.2604  1.7728  1.0890
10509SOL     OW37618  10.426   9.384   2.758  0.1485 -0.2162 -0.1638
10509SOL    HW137619  10.412   9.335   2.677  0.5544  0.4295 -0.6278
10509SOL    HW237620  10.358   9.351   2.817 -0.8311  0.0472 -1.0995
10510SOL     OW37621  10.322  10.152   5.700  0.0702  0.0777 -0.1919
10510SOL    HW137622  10.287  10.233   5.664 -0.0325  0.7768  1.3714
10510SOL    HW237623  10.252  10.088   5.689 -2.7012  1.8452  4.4215
10511SOL     OW37624   1.944   6.795   3.943 -0.3610  0.0249 -0.2077
10511SOL    HW137625   1.896   6.738   3.883 -0.8468 -1.1467  1.2385
10511SOL    HW237626   1.917   6.767   4.030  1.3913  0.7250  0.6164
10512SOL     OW37627   0.676   2.605  10.851  0.2462  0.2279 -0.4125
10512SOL    HW137628   0.600   2.664  10.848 -0.8108 -1.0545  0.2768
10512SOL    HW237629   0.741   2.648  10.795 -1.2277  1.0198 -1.6021
10513SOL     OW37630   8.041   7.491   0.441  0.1506 -0.0537  0.0823
10513SOL    HW137631   8.095   7.558   0.399 -0.5458  0.3570 -0.1686
10513SOL    HW237632   8.047   7.510   0.534 -1.6264  1.6101 -0.0833
10514SOL     OW37633   3.356  10.224   3.924 -0.0208 -0.0186 -0.1821
10514SOL    HW137634   3.324  10.152   3.979  2.5736 -0.4637  0.9234
10514SOL    HW237635   3.281  10.282   3.915 -1.7294 -1.9978  0.3413
10515SOL     OW37636   6.134   5.695   8.034 -0.2351 -0.5666 -0.2443
10515SOL    HW137637   6.131   5.616   7.979 -0.1236 -0.0949 -0.9457
10515SOL    HW237638   6.101   5.765   7.977  1.6068  0.2926 -0.3169
10516SOL     OW37639   2.052   7.487   4.704  0.3821  0.6219 -0.0437
10516SOL    HW137640   2.111   7.559   4.726  0.2223  1.7784 -2.9708
10516SOL    HW237641   1.965   7.526   4.707  0.1246  0.0385  0.1443
10517SOL     OW37642   2.825  10.339  10.311 -0.0030 -0.1506  0.7984
10517SOL    HW137643   2.788  10.295  10.387  0.1419 -0.3401  0.7579
10517SOL    HW237644   2.917  10.313  10.309 -0.1180 -0.5469  0.2734
10518SOL     OW37645   4.824   2.422   9.384 -0.0256 -0.1403  0.5272
10518SOL    HW137646   4.796   2.330   9.393 -0.7893 -0.2861 -2.3122
10518SOL    HW237647   4.915   2.422   9.413  0.1554 -1.9161  0.0995
10519SOL     OW37648   3.373   8.836   7.005 -0.0077  0.2008 -0.4468
10519SOL    HW137649   3.451   8.820   7.058  0.4190 -1.7980 -1.6024
10519SOL    HW237650   3.406   8.880   6.926 -0.1655  0.0967 -0.5706
10520SOL     OW37651   5.170   2.794   0.238  0.2644 -0.1066 -0.6440
10520SOL    HW137652   5.170   2.705   0.272 -0.9227  0.0839 -0.1167
10520SOL    HW237653   5.160   2.849   0.315 -0.9012  0.3944 -1.1320
10521SOL     OW37654  10.406  10.251   6.903 -0.2665 -0.8297  0.0476
10521SOL    HW137655  10.469  10.191   6.942  0.5209  0.0070  0.0797
10521SOL    HW237656  10.362  10.292   6.977 -1.3666 -1.9235  0.0274
10522SOL     OW37657   1.284  10.033   4.544 -0.2224 -0.0196 -0.3775
10522SOL    HW137658   1.284  10.084   4.625 -3.2891  0.3728 -0.5101
10522SOL    HW237659   1.228   9.958   4.562  1.6792 -1.7517 -1.1972
10523SOL     OW37660   2.679   9.906   1.326  0.3048 -0.4499 -0.0178
10523SOL    HW137661   2.745   9.863   1.272 -0.4320  0.0839 -1.3685
10523SOL    HW237662   2.616   9.942   1.264  0.3353  1.7051  1.1012
10524SOL     OW37663   9.196   3.848   1.010  0.4124  0.5094  0.0628
10524SOL    HW137664   9.247   3.901   1.071  0.5812  1.8687 -1.1962
10524SOL    HW237665   9.246   3.767   1.000  0.4918  0.3453  1.5073
10525SOL     OW37666   2.079   1.549   5.533  0.3432  0.2039  0.5582
10525SOL    HW137667   2.156   1.517   5.487 -0.1670 -2.4727  1.3923
10525SOL    HW237668   2.026   1.592   5.466  1.3638 -0.2047 -0.5319
10526SOL     OW37669  10.003   2.779   9.842 -0.2337 -0.3183 -0.2749
10526SOL    HW137670  10.027   2.714   9.776 -0.8848 -0.5368 -0.3059
10526SOL    HW237671  10.086   2.817   9.870  0.0475  0.0138 -1.4583
10527SOL     OW37672   0.370   6.095   1.306  0.0501  0.5088 -0.0925
10527SOL    HW137673   0.464   6.103   1.290 -0.1412  2.3129 -0.4847
10527SOL    HW237674   0.350   6.003   1.285  1.6625  0.1521 -0.2117
10528SOL     OW37675   7.414   9.308   4.772  0.2197  0.2900 -0.2345
10528SOL    HW137676   7.426   9.403   4.770  0.1213  0.3826  1.6076
10528SOL    HW237677   7.325   9.295   4.804  0.7236 -0.3904  0.9797
10529SOL     OW37678   2.935   5.012   8.730 -0.2171 -0.1515 -0.8421
10529SOL    HW137679   2.950   4.921   8.759 -0.6453  0.3085  0.9183
10529SOL    HW237680   2.875   5.004   8.656 -0.6755 -1.2795 -0.3689
10530SOL     OW37681   2.288   5.648   5.360  0.0533  0.1432  0.6157
10530SOL    HW137682   2.203   5.616   5.329  1.3941 -0.5151 -2.9027
10530SOL    HW237683   2.345   5.571   5.354  1.1003  0.7805  2.0405
10531SOL     OW37684   8.602   5.343   8.819  0.3464  0.4936 -0.8298
10531SOL    HW137685   8.523   5.392   8.795  1.7436  2.6170 -1.4036
10531SOL    HW237686   8.632   5.383   8.900 -0.1048 -1.5184  0.3979
10532SOL     OW37687   8.176   5.712   9.970 -0.1915  0.4738 -0.3066
10532SOL    HW137688   8.176   5.729  10.064 -0.9996  1.1412 -0.4187
10532SOL    HW237689   8.104   5.765   9.936 -1.1445 -1.2026 -1.0394
10533SOL     OW37690   6.590   4.005   8.794 -0.0917 -0.2044  0.6293
10533SOL    HW137691   6.528   3.986   8.723 -1.2741  1.3470  1.2066
10533SOL    HW237692   6.562   3.947   8.865  0.9864 -1.6339 -0.0447
10534SOL     OW37693   0.622   2.302   0.951 -0.8703 -0.2743 -0.5823
10534SOL    HW137694   0.537   2.277   0.989 -0.7079  0.4122  0.2803
10534SOL    HW237695   0.601   2.372   0.889 -0.7551  1.4365  1.2124
10535SOL     OW37696   7.914   4.676   1.114  0.0183 -0.0192  0.4481
10535SOL    HW137697   7.884   4.586   1.128  0.6419 -0.1082  1.3048
10535SOL    HW237698   7.920   4.685   1.019 -0.4754 -0.7375  0.3390
10536SOL     OW37699   2.961   1.716   3.161 -0.4328  0.4166  0.6179
10536SOL    HW137700   3.045   1.732   3.205 -1.2426  0.1545  2.3546
10536SOL    HW237701   2.910   1.795   3.177 -1.0437 -0.0246  0.9088
10537SOL     OW37702   8.859   1.356   9.678 -0.0929 -0.0589  0.2829
10537SOL    HW137703   8.831   1.387   9.764 -0.4139 -1.4710  0.6980
10537SOL    HW237704   8.794   1.291   9.653  1.8909 -2.2544  0.5491
10538SOL     OW37705   6.171   4.566   0.002  0.4106 -0.0431 -0.6088
10538SOL    HW137706   6.180   4.581   0.096 -0.3777  0.7303 -0.6452
10538SOL    HW237707   6.248   4.608  -0.036  0.3059  0.3633 -0.3759
10539SOL     OW37708   1.972   2.541  10.689  0.2427 -0.6007 -0.4992
10539SOL    HW137709   2.009   2.562  10.604  0.0029 -0.9458 -0.6922
10539SOL    HW237710   1.879   2.563  10.682  0.3623  0.0750 -0.0810
10540SOL     OW37711   6.363   8.610   0.545  0.7112  0.3102  0.3943
10540SOL    HW137712   6.416   8.679   0.504  0.3100  0.0160 -0.6422
10540SOL    HW237713   6.395   8.529   0.506 -2.0172  0.2723 -2.0602
10541SOL     OW37714  10.176   7.646   6.689  0.1443 -0.4880 -0.0054
10541SOL    HW137715  10.170   7.559   6.729 -1.0866 -0.9510 -1.1483
10541SOL    HW237716  10.204   7.629   6.599 -1.8479  0.1179 -0.7896
10542SOL     OW37717   7.404   2.006   0.016  0.1519  0.3638 -0.1463
10542SOL    HW137718   7.427   2.036  -0.072  0.3738  0.5861 -0.0151
10542SOL    HW237719   7.467   1.936   0.035  2.8753  2.9933  1.4232
10543SOL     OW37720   5.479   4.599   1.607  0.2395  0.1949  0.1769
10543SOL    HW137721   5.446   4.537   1.542  0.7865 -1.0090  1.0097
10543SOL    HW237722   5.459   4.559   1.691 -0.0152  1.4981  0.7645
10544SOL     OW37723   5.525   3.456   9.920 -0.0800  0.3682  0.0292
10544SOL    HW137724   5.430   3.443   9.910  0.0576  0.0247 -0.9934
10544SOL    HW237725   5.545   3.529   9.863  0.1728  0.9033  0.7928
10545SOL     OW37726   5.737   8.181   8.096 -0.1966  0.2397  0.1128
10545SOL    HW137727   5.646   8.151   8.101  0.2557 -1.4911 -0.9856
10545SOL    HW237728   5.734   8.255   8.034 -0.8878  0.3665  0.2834
10546SOL     OW37729   6.678   0.317   1.505  0.1044 -0.1740  0.3522
10546SOL    HW137730   6.714   0.382   1.564 -0.4482  1.5302 -1.1028
10546SOL    HW237731   6.585   0.314   1.527  0.2400 -0.9750  0.8491
10547SOL     OW37732   6.159   6.820   3.448  0.6501 -0.1139  0.6726
10547SOL    HW137733   6.250   6.830   3.475  0.7389 -0.3871  0.4728
10547SOL    HW237734   6.154   6.865   3.363  1.0426 -1.6925 -0.2152
10548SOL     OW37735  10.233   6.640   9.057 -0.1514 -0.1189  0.3544
10548SOL    HW137736  10.238   6.593   9.140 -0.7918 -1.3870 -0.3001
10548SOL    HW237737  10.165   6.705   9.070  1.3176  1.2657  1.5482
10549SOL     OW37738   5.918   0.939   0.813 -0.2849 -0.1855 -0.0568
10549SOL    HW137739   5.979   0.944   0.886 -0.5059 -1.5877  0.2612
10549SOL    HW237740   5.928   1.022   0.767  1.9597 -0.4478 -0.1090
10550SOL     OW37741   7.556   9.825   8.269 -0.0624 -0.2366 -0.2423
10550SOL    HW137742   7.462   9.815   8.285 -0.0510 -0.6476 -0.4073
10550SOL    HW237743   7.562   9.846   8.175  0.1831 -3.7465 -1.1487
10551SOL     OW37744   3.375   1.651   2.921  0.0486  0.2094 -0.1208
10551SOL    HW137745   3.354   1.561   2.947 -0.2047 -0.1441 -1.4724
10551SOL    HW237746   3.447   1.642   2.858  0.3589  0.9987  0.1063
10552SOL     OW37747   2.979   8.155   8.046 -0.3053 -0.1153  0.1624
10552SOL    HW137748   3.018   8.083   8.096 -0.5500  0.4708  1.2324
10552SOL    HW237749   3.053   8.209   8.020 -0.2011 -0.2449  0.1878
10553SOL     OW37750   0.175   3.458   7.728 -0.0328 -0.3054  0.3315
10553SOL    HW137751   0.168   3.549   7.756 -0.8123 -0.0557 -0.6168
10553SOL    HW237752   0.258   3.427   7.766 -0.0572  0.6067  1.1611
10554SOL     OW37753   8.235   7.620   7.323  0.1305 -0.2748  0.3846
10554SOL    HW137754   8.310   7.655   7.371  1.5128 -2.7616  0.1999
10554SOL    HW237755   8.253   7.643   7.232  0.0648  0.1104  0.4648
10555SOL     OW37756   4.677   3.828  10.245 -0.1275  0.0827 -0.0254
10555SOL    HW137757   4.637   3.745  10.219 -1.7999  0.9139 -0.2879
10555SOL    HW237758   4.646   3.891  10.179  1.8234  0.7625 -0.3456
10556SOL     OW37759   0.076   1.962   3.735 -0.3328  0.2387  0.1095
10556SOL    HW137760   0.139   2.010   3.682  1.2823  0.6134  2.2367
10556SOL    HW237761   0.124   1.886   3.767 -1.2303  0.0441  1.0558
10557SOL     OW37762   6.061   2.709   4.929 -0.5215  0.3733 -0.2341
10557SOL    HW137763   6.016   2.624   4.926 -1.9851  0.9880  1.9171
10557SOL    HW237764   6.009   2.761   4.990  2.1787  1.7223  1.0804
10558SOL     OW37765   2.278   8.107   5.004 -0.4608  0.3316 -0.3953
10558SOL    HW137766   2.260   8.095   5.097 -2.0602 -1.4226 -0.8619
10558SOL    HW237767   2.342   8.179   5.000 -0.4849  0.5478  2.0136
10559SOL     OW37768   3.629   1.526   2.384 -0.2114 -0.3857  0.2726
10559SOL    HW137769   3.581   1.444   2.394  0.4717 -0.5801  2.4341
10559SOL    HW237770   3.577   1.590   2.432 -0.3272  0.2797 -0.7256
10560SOL     OW37771   2.808   0.450   9.456  0.4357 -0.4059  0.1564
10560SOL    HW137772   2.808   0.526   9.515 -0.6324 -1.0828  1.0482
10560SOL    HW237773   2.716   0.431   9.440  0.6923 -0.4189 -1.5403
10561SOL     OW37774   4.410   0.347   0.339 -0.1539 -0.1890  0.1859
10561SOL    HW137775   4.448   0.336   0.426 -0.2856 -0.2115  0.2407
10561SOL    HW237776   4.372   0.262   0.318 -0.0086 -0.2227  0.0499
10562SOL     OW37777   9.568   4.077  10.491 -0.2840 -0.1154 -0.8030
10562SOL    HW137778   9.478   4.045  10.498 -0.9808  1.7823 -0.3634
10562SOL    HW237779   9.559   4.172  10.488  1.7588  0.1456 -0.1496
10563SOL     OW37780   3.352   0.290   1.848  0.5513 -0.1524 -0.0376
10563SOL    HW137781   3.430   0.237   1.832 -0.0968 -1.0786 -0.1512
10563SOL    HW237782   3.342   0.342   1.768  1.4180  0.4665  0.2343
10564SOL     OW37783   2.928   8.518   5.710 -0.7998 -0.0257 -0.1377
10564SOL    HW137784   2.857   8.531   5.773 -1.2400 -2.3309 -0.0595
10564SOL    HW237785   2.887   8.471   5.637  0.0723  1.0762 -1.4017
10565SOL     OW37786   8.467   8.935  10.451  0.0566 -0.4326  0.3666
10565SOL    HW137787   8.385   8.984  10.457  1.6523  2.3718  1.5015
10565SOL    HW237788   8.490   8.939  10.358 -1.0242 -1.2485  0.0348
10566SOL     OW37789  10.911   1.847   0.261  0.1008 -0.1422 -0.1000
10566SOL    HW137790  10.869   1.894   0.333 -1.0076 -0.8022 -0.3054
10566SOL    HW237791  10.909   1.909   0.188  2.7909  1.2138  0.8235
10567SOL     OW37792   6.683   8.288   4.323  0.1646  0.3934 -0.5448
10567SOL    HW137793   6.602   8.291   4.374  0.8647  0.4534  0.5883
10567SOL    HW237794   6.743   8.345   4.371  1.5159 -1.2199 -0.2357
10568SOL     OW37795   2.530   3.105   3.493 -0.1700 -0.3637 -0.2762
10568SOL    HW137796   2.544   3.170   3.561  0.5360 -1.6251  0.8431
10568SOL    HW237797   2.438   3.115   3.468 -0.5149 -0.0359  1.0408
10569SOL     OW37798   6.161   1.116   5.597  0.0185 -0.0699  0.2543
10569SOL    HW137799   6.233   1.102   5.659 -0.9698 -0.8405  1.2896
10569SOL    HW237800   6.158   1.035   5.546 -1.0831 -0.7399  1.3048
10570SOL     OW37801   1.267   0.346   2.305  0.1724  0.0328 -0.2656
10570SOL    HW137802   1.268   0.276   2.369 -0.7245  0.5183  0.2890
10570SOL    HW237803   1.302   0.422   2.351  0.1532  0.2182 -0.5506
10571SOL     OW37804   1.427   9.688   8.149  0.4011  0.1025 -0.0582
10571SOL    HW137805   1.349   9.743   8.156 -0.9503 -1.8918  1.5819
10571SOL    HW237806   1.462   9.684   8.238  0.2444 -1.9336 -0.0480
10572SOL     OW37807  10.383   0.070   8.560  0.6940 -0.5659  0.3558
10572SOL    HW137808  10.473   0.035   8.567  1.1795  0.5017 -0.3662
10572SOL    HW237809  10.360   0.058   8.468  1.6161  2.6990 -0.4087
10573SOL     OW37810   5.943   5.733   8.634  0.0184 -0.0833  0.4788
10573SOL    HW137811   5.940   5.737   8.729 -3.1383  1.7495  0.4195
10573SOL    HW237812   5.930   5.823   8.605  0.0002 -0.7289 -1.7103
10574SOL     OW37813  10.866   3.454   8.635 -0.4547  0.6304  0.0357
10574SOL    HW137814  10.892   3.538   8.674  1.5563  0.2724 -0.4143
10574SOL    HW237815  10.949   3.406   8.624 -1.4634 -1.0776 -0.5089
10575SOL     OW37816   5.318   8.035   1.586  0.4804  0.1347 -0.1352
10575SOL    HW137817   5.391   8.075   1.633  0.6383 -1.3901  1.0188
10575SOL    HW237818   5.244   8.094   1.601  1.3874  1.5683 -1.1148
10576SOL     OW37819   4.401   1.090   6.674 -0.6648 -0.0860 -0.2653
10576SOL    HW137820   4.426   1.133   6.592  1.0765  1.0443  0.7877
10576SOL    HW237821   4.369   1.004   6.647  1.3090 -0.3475 -2.0635
10577SOL     OW37822   4.973   0.215   6.695  0.3949  0.3079  0.6724
10577SOL    HW137823   4.958   0.122   6.680  1.7082  0.1434  0.2582
10577SOL    HW237824   4.890   0.247   6.732 -1.9326  0.0122 -3.6026
10578SOL     OW37825  10.672   8.981   5.815  0.4241  0.5331 -0.7621
10578SOL    HW137826  10.676   9.069   5.776 -0.6015  0.3464 -1.3378
10578SOL    HW237827  10.726   8.987   5.894  1.0873  1.4301 -1.2605
10579SOL     OW37828   9.945   5.482   9.351 -0.4132  0.1102  0.1080
10579SOL    HW137829  10.003   5.426   9.300  2.0831  2.5087  0.0965
10579SOL    HW237830   9.928   5.557   9.294 -0.3522  1.2442  1.5219
10580SOL     OW37831   3.420   7.982   5.114  0.1372  0.1833 -0.4832
10580SOL    HW137832   3.333   8.009   5.086  0.7848  1.7990 -0.9889
10580SOL    HW237833   3.450   7.921   5.047  0.0291  0.8634 -1.1518
10581SOL     OW37834   7.520   1.917   0.848  0.0812  0.1471  0.0172
10581SOL    HW137835   7.446   1.902   0.906 -0.6119  0.3838 -0.7905
10581SOL    HW237836   7.539   1.831   0.810  0.2265  0.0876  0.2203
10582SOL     OW37837   9.932   0.775   1.916 -0.8704  0.0863 -0.1359
10582SOL    HW137838   9.898   0.817   1.837 -2.1427  0.0613  0.3834
10582SOL    HW237839   9.855   0.750   1.965 -0.0955  0.8666  1.5495
10583SOL     OW37840   9.066   8.532   0.398 -0.5944 -0.0979  0.4308
10583SOL    HW137841   9.074   8.465   0.330  3.1274  0.0323  0.5082
10583SOL    HW237842   9.050   8.613   0.350  0.4695 -0.2559 -0.2388
10584SOL     OW37843   5.226  10.911   0.985  0.2445 -0.0576  0.2470
10584SOL    HW137844   5.151  10.851   0.994 -0.5376  1.0953  1.9282
10584SOL    HW237845   5.218  10.970   1.060  2.0693  0.9738 -0.3240
10585SOL     OW37846  10.790   7.549   9.494 -0.5985 -0.5078  0.5693
10585SOL    HW137847  10.835   7.543   9.578  2.6431  0.6418 -0.9158
10585SOL    HW237848  10.810   7.466   9.450 -1.3389 -0.6540  0.5003
10586SOL     OW37849   0.195   0.300   8.959 -0.0351  0.0715 -0.4759
10586SOL    HW137850   0.260   0.244   9.001  1.5961  0.4593 -2.3679
10586SOL    HW237851   0.245   0.354   8.899 -1.4542  3.8137  1.3686
10587SOL     OW37852   3.467   5.052   7.145  0.4215  0.2549  0.1921
10587SOL    HW137853   3.560   5.078   7.144  0.6391 -0.4693  0.9557
10587SOL    HW237854   3.438   5.068   7.235 -0.0032 -0.2052  0.1382
10588SOL     OW37855   2.014   3.515  10.325  1.1559 -0.1783 -0.0788
10588SOL    HW137856   1.928   3.475  10.332  1.1001 -0.1091 -0.3382
10588SOL    HW237857   2.067   3.472  10.392  0.6417  0.5286  0.7895
10589SOL     OW37858   1.024  10.384   3.097  0.1226 -0.7791 -0.9189
10589SOL    HW137859   1.044  10.299   3.138 -0.9955 -0.8444 -0.4894
10589SOL    HW237860   0.971  10.430   3.162  1.0617  0.4319 -0.9772
10590SOL     OW37861   3.537  10.854   6.961 -0.6407 -0.2253  0.1465
10590SOL    HW137862   3.570  10.857   6.872  1.5781  0.6585  0.9304
10590SOL    HW237863   3.529  10.761   6.981 -1.0263 -0.4327 -0.8924
10591SOL     OW37864   3.033   3.921   6.106 -0.0969  0.5851  0.2869
10591SOL    HW137865   3.015   3.944   6.015 -0.7715  1.2348  0.5748
10591SOL    HW237866   3.125   3.945   6.120 -0.2834  1.4368  0.0632
10592SOL     OW37867   1.179   2.079   3.987 -0.1334  0.0272 -0.4679
10592SOL    HW137868   1.112   2.026   4.031 -0.7064  0.5807 -0.6578
10592SOL    HW237869   1.149   2.086   3.897 -0.2026  0.8936 -0.3840
10593SOL     OW37870   1.272  10.817   6.090 -0.0085 -0.4799  0.2483
10593SOL    HW137871   1.179  10.837   6.102 -0.2598 -0.5034 -1.3948
10593SOL    HW237872   1.285  10.736   6.139 -0.6511 -0.0613  1.1485
10594SOL     OW37873   3.176   2.723   6.166 -0.2015  0.3782  0.1587
10594SOL    HW137874   3.271   2.712   6.166 -0.3077 -0.6000  0.1173
10594SOL    HW237875   3.144   2.662   6.232 -0.8295  0.4037 -0.1073
10595SOL     OW37876   4.771   5.711   9.688  0.6621  0.1572 -0.0185
10595SOL    HW137877   4.784   5.674   9.776  1.7060  0.4612 -0.0318
10595SOL    HW237878   4.762   5.805   9.703 -0.5316  0.0739 -0.1220
10596SOL     OW37879   7.383   8.534   5.441 -0.2202 -0.0410 -0.0039
10596SOL    HW137880   7.394   8.617   5.487 -1.0828  0.1942 -0.2059
10596SOL    HW237881   7.355   8.473   5.509 -0.5535  0.0729 -0.0385
10597SOL     OW37882   0.008   0.857   0.155 -0.7360 -0.2511 -0.3406
10597SOL    HW137883   0.041   0.936   0.112 -0.7226  0.8100  1.5080
10597SOL    HW237884   0.063   0.786   0.121 -0.0911  0.6805 -1.2915
10598SOL     OW37885   9.282   5.071   0.198  0.1896 -0.2414 -0.5770
10598SOL    HW137886   9.318   4.989   0.232  0.4128 -0.2185 -0.7517
10598SOL    HW237887   9.239   5.112   0.273  2.0909  0.6039  0.1402
10599SOL     OW37888   4.979   3.451   7.828  0.1760 -0.3417 -0.3432
10599SOL    HW137889   5.039   3.446   7.902 -1.8711  2.0752  1.6494
10599SOL    HW237890   4.927   3.371   7.833 -0.6483  0.2641  1.5630
10600SOL     OW37891   8.491  10.336   3.272 -0.4851  0.5168  0.2905
10600SOL    HW137892   8.410  10.382   3.252 -0.5148  0.5656  0.5167
10600SOL    HW237893   8.549  10.403   3.308 -0.5229  0.3788  0.6073
10601SOL     OW37894   3.307   3.008   3.894  0.3108  0.9134 -0.8147
10601SOL    HW137895   3.341   3.040   3.978  0.0351 -0.6674 -0.0506
10601SOL    HW237896   3.372   2.943   3.866 -0.7334 -0.2437 -0.6428
10602SOL     OW37897   1.518   4.539   2.599  0.1320 -0.7949 -0.2586
10602SOL    HW137898   1.513   4.629   2.630 -0.4822 -1.1322  0.6693
10602SOL    HW237899   1.495   4.486   2.675  1.8086 -1.8086 -0.4113
10603SOL     OW37900   2.798   8.401   5.494 -0.2352 -0.7954 -0.2293
10603SOL    HW137901   2.884   8.359   5.488  0.9986  1.4916  0.1601
10603SOL    HW237902   2.745   8.358   5.426  1.4678 -1.7057 -1.0463
10604SOL     OW37903   4.537   5.928   4.571  0.4352 -0.3007 -0.4597
10604SOL    HW137904   4.536   5.925   4.666  0.9276 -1.5695 -0.4755
10604SOL    HW237905   4.554   5.838   4.544 -1.9722 -0.4589 -1.7983
10605SOL     OW37906  10.256   4.880   5.892  0.7729  0.2703  0.7531
10605SOL    HW137907  10.320   4.951   5.898 -0.6617  1.8622 -1.2616
10605SOL    HW237908  10.178   4.914   5.935 -0.5966  0.8608 -1.9534
10606SOL     OW37909  10.121   9.096  10.702 -0.2719 -0.1829 -0.0047
10606SOL    HW137910  10.183   9.113  10.773 -0.8682  0.3641  0.4023
10606SOL    HW237911  10.067   9.175  10.699  0.4017  0.2598 -1.7597
10607SOL     OW37912   9.414   0.121   1.053 -0.2472 -0.2308 -0.1762
10607SOL    HW137913   9.420   0.026   1.044  1.0336 -0.0724 -1.3683
10607SOL    HW237914   9.505   0.151   1.053 -0.6492  1.0521 -0.4917
10608SOL     OW37915  10.180   5.348   6.723  0.4806  0.3724 -0.1272
10608SOL    HW137916  10.160   5.419   6.661 -0.3697  0.0433 -0.2427
10608SOL    HW237917  10.234   5.287   6.672 -0.0348  0.2101 -0.4910
10609SOL     OW37918   2.094   0.863   4.976  0.5702 -0.6020  0.4545
10609SOL    HW137919   2.052   0.829   5.055 -0.2887 -1.0621 -0.1901
10609SOL    HW237920   2.084   0.794   4.911 -0.8993  0.6737 -0.7855
10610SOL     OW37921   2.259   9.990   8.049  0.6231  0.7494 -0.2281
10610SOL    HW137922   2.203  10.054   8.093 -1.0501 -0.3478 -0.6815
10610SOL    HW237923   2.340   9.991   8.100 -0.4523  1.0992  1.5638
10611SOL     OW37924   7.429   2.553   7.876 -0.5023 -0.0257  0.5035
10611SOL    HW137925   7.396   2.528   7.790 -0.3560  0.6911  0.2336
10611SOL    HW237926   7.492   2.623   7.858 -1.0139  0.6417  1.2455
10612SOL     OW37927  10.113   1.298   5.140  0.3587  0.1227  0.1327
10612SOL    HW137928  10.085   1.212   5.172 -0.1666 -0.3148 -1.4074
10612SOL    HW237929  10.203   1.307   5.172  0.7452 -1.4055 -0.4367
10613SOL     OW37930   3.185   7.813   7.732  0.2116  0.6329  0.1651
10613SOL    HW137931   3.243   7.879   7.695  0.4004  0.3783  0.0013
10613SOL    HW237932   3.151   7.766   7.655  2.1104 -1.1905  0.3501
10614SOL     OW37933   6.913   7.665   4.629 -0.3943 -0.0780  0.1345
10614SOL    HW137934   6.991   7.715   4.652  0.1458 -0.7923 -0.1166
10614SOL    HW237935   6.861   7.663   4.709 -0.1416  0.3668  0.3127
10615SOL     OW37936   9.742   3.339   1.984 -0.5000  0.1390  0.0259
10615SOL    HW137937   9.678   3.317   2.051  0.4577 -0.4332  0.7790
10615SOL    HW237938   9.812   3.385   2.031 -0.8876  1.8466 -0.9715
10616SOL     OW37939   8.310   6.475   7.548  0.0015 -0.7984  0.1728
10616SOL    HW137940   8.225   6.451   7.510  0.0698  0.9293 -1.1532
10616SOL    HW237941   8.301   6.567   7.571  1.3523 -0.7392  0.5328
10617SOL     OW37942   8.027   2.375   4.015  0.4477  0.3138  0.5877
10617SOL    HW137943   8.027   2.455   3.962 -0.6294  0.6038  0.9916
10617SOL    HW237944   8.025   2.304   3.951  1.8439  0.5933  0.2191
10618SOL     OW37945   5.472   7.539  10.379 -0.5853 -0.2856 -0.6007
10618SOL    HW137946   5.480   7.451  10.418 -0.4898  0.5498  1.3826
10618SOL    HW237947   5.540   7.590  10.421 -1.0540  0.9117 -1.2578
10619SOL     OW37948   9.335   7.217   5.325 -0.0217  0.2205 -0.4053
10619SOL    HW137949   9.241   7.215   5.307  0.3632 -0.6360 -2.6718
10619SOL    HW237950   9.344   7.175   5.411 -1.4646 -3.3935 -1.7864
10620SOL     OW37951   6.704  10.411   1.589  0.3845  0.0657  0.3955
10620SOL    HW137952   6.799  10.407   1.591  0.3463 -0.6344  2.5327
10620SOL    HW237953   6.681  10.390   1.498  2.2515  0.8846 -0.3135
10621SOL     OW37954  10.250   0.706   4.247  0.3877 -0.3655  0.1504
10621SOL    HW137955  10.213   0.649   4.314  0.3073 -0.7927 -0.2491
10621SOL    HW237956  10.320   0.655   4.208  0.0169 -0.3787 -0.5246
10622SOL     OW37957   5.972   3.466   2.323  0.1671 -0.5617  0.6441
10622SOL    HW137958   5.924   3.548   2.338  0.5960 -0.1137 -0.3231
10622SOL    HW237959   5.944   3.409   2.394 -0.2281  0.3858  1.2772
10623SOL     OW37960   1.378   3.227  10.433  0.2450  0.4401 -0.6011
10623SOL    HW137961   1.383   3.218  10.528 -1.4423  1.7872 -0.3452
10623SOL    HW237962   1.380   3.321  10.417  0.8499  0.2247 -1.9403
10624SOL     OW37963   4.701   3.971   7.671  0.1332 -0.1907 -0.0852
10624SOL    HW137964   4.605   3.971   7.670  0.0961 -0.2606  1.4480
10624SOL    HW237965   4.725   4.056   7.708  0.6498 -0.4133  0.1009
10625SOL     OW37966   1.904   4.496   3.040 -0.0696  0.2565 -0.2069
10625SOL    HW137967   1.898   4.565   2.974 -2.3214  2.1328  1.7628
10625SOL    HW237968   1.961   4.533   3.108  0.6736 -0.8563 -0.1982
10626SOL     OW37969   4.311   2.287   8.471  0.6478  0.1234  0.2539
10626SOL    HW137970   4.297   2.371   8.427 -2.8523 -0.5204 -0.2018
10626SOL    HW237971   4.326   2.225   8.400 -0.3128 -0.1550  0.2742
10627SOL     OW37972   0.335   6.648   9.900 -0.6361 -0.0873 -0.4389
10627SOL    HW137973   0.301   6.717   9.843  1.0056  0.5106 -0.7190
10627SOL    HW237974   0.360   6.693   9.981  0.0002 -0.4214 -0.4430
10628SOL     OW37975   9.660   2.065   5.411 -0.2504  0.1786 -0.3222
10628SOL    HW137976   9.711   2.018   5.345 -1.1901 -1.8425  0.3176
10628SOL    HW237977   9.575   2.079   5.370 -1.6202 -3.0587  1.0559
10629SOL     OW37978   4.686   6.540   6.114  0.2316 -0.4075  0.7923
10629SOL    HW137979   4.691   6.571   6.204 -2.8301 -0.1886  0.9916
10629SOL    HW237980   4.648   6.453   6.120  0.8329 -0.7693 -0.2794
10630SOL     OW37981   0.067   2.894   1.736  0.3169 -0.1708 -0.2800
10630SOL    HW137982   0.135   2.859   1.794  0.0659 -0.0200  0.1131
10630SOL    HW237983   0.083   2.852   1.651  1.2814  0.3378 -0.3582
10631SOL     OW37984   6.151   0.287   5.577 -0.3146  0.0359  0.5956
10631SOL    HW137985   6.217   0.251   5.637 -0.0743 -0.4083  0.0715
10631SOL    HW237986   6.095   0.342   5.633 -0.8480 -1.3453  1.4709
10632SOL     OW37987   3.904   0.283   1.492  0.1196  0.9320  0.0712
10632SOL    HW137988   3.869   0.313   1.576 -2.3174  0.9083 -0.8606
10632SOL    HW237989   3.985   0.333   1.480  0.4207  1.0863  2.2945
10633SOL     OW37990   9.912   3.523   0.308  0.1442 -0.5077  0.0781
10633SOL    HW137991   9.892   3.438   0.270  1.2504 -0.7285 -0.0344
10633SOL    HW237992  10.003   3.540   0.284 -0.0163  0.6459  0.2159
10634SOL     OW37993   6.978   0.286   9.126  0.2150 -0.1969  0.1168
10634SOL    HW137994   7.003   0.305   9.217 -0.0544 -1.6359  0.5148
10634SOL    HW237995   6.917   0.356   9.103 -0.7030 -0.5112  1.4807
10635SOL     OW37996   6.184   4.359   0.410 -0.3240  0.3913  0.4210
10635SOL    HW137997   6.089   4.345   0.419 -0.1117 -1.2321  0.4060
10635SOL    HW237998   6.221   4.323   0.491  0.3749 -0.1877 -0.1431
10636SOL     OW37999   4.489   8.286   8.858  0.3284 -0.4659  0.2207
10636SOL    HW138000   4.474   8.339   8.779  0.8491  0.0523  0.4591
10636SOL    HW238001   4.457   8.341   8.929 -3.9330 -2.4569  0.1438
10637SOL     OW38002   0.561  10.583   0.606 -0.1568 -0.2296  0.2964
10637SOL    HW138003   0.615  10.527   0.550 -1.0650  0.7088 -1.5943
10637SOL    HW238004   0.477  10.536   0.613  0.4952 -1.2308  2.4643
10638SOL     OW38005   1.733   3.267   9.612  0.0845 -0.0235  0.3030
10638SOL    HW138006   1.745   3.229   9.525 -1.7210 -2.0473  0.8712
10638SOL    HW238007   1.795   3.340   9.614  1.4831 -1.0302 -1.9933
10639SOL     OW38008   4.179   6.511   7.097 -0.5570  0.2120 -0.2406
10639SOL    HW138009   4.145   6.462   7.172 -1.2349  0.3481 -0.4502
10639SOL    HW238010   4.127   6.480   7.023 -0.1400  0.3444 -0.5882
10640SOL     OW38011   5.278   9.108   0.584 -0.0617 -0.5829 -0.4856
10640SOL    HW138012   5.253   9.198   0.562 -1.0109 -1.0573 -1.4774
10640SOL    HW238013   5.214   9.080   0.649  0.1181 -0.6048 -0.3170
10641SOL     OW38014   8.010   8.448   0.088 -0.1072 -0.2341  0.2504
10641SOL    HW138015   8.001   8.543   0.085  1.2984 -0.1014 -0.4154
10641SOL    HW238016   8.037   8.430   0.178 -1.1872 -0.1047  0.6169
10642SOL     OW38017   1.863   4.507  10.222  0.7656  0.1257  0.0313
10642SOL    HW138018   1.818   4.518  10.138  0.2173 -1.0314  0.1573
10642SOL    HW238019   1.928   4.577  10.223 -0.8299  1.6872 -0.2678
10643SOL     OW38020   8.330   8.636   4.017  0.1756 -0.0167  0.1627
10643SOL    HW138021   8.424   8.623   4.009  0.5789  2.4031  0.1870
10643SOL    HW238022   8.307   8.694   3.945 -1.7258 -2.1031 -1.0627
10644SOL     OW38023   4.025   8.344   4.116  0.4343  0.0244 -0.0401
10644SOL    HW138024   3.980   8.396   4.049 -0.5610 -0.9631 -0.1671
10644SOL    HW238025   4.016   8.253   4.085  1.0838 -0.3295  0.7849
10645SOL     OW38026   1.608   1.255   2.526 -0.1729  0.2590 -0.0775
10645SOL    HW138027   1.617   1.332   2.470 -1.7247  0.8214  0.3935
10645SOL    HW238028   1.689   1.206   2.512  0.2834  1.3087 -1.3861
10646SOL     OW38029   8.931   7.750   0.145 -0.5066  0.5424  0.3100
10646SOL    HW138030   8.957   7.676   0.199  1.5428  0.7181 -0.3368
10646SOL    HW238031   9.001   7.758   0.080 -0.6806  2.9838  0.3203
10647SOL     OW38032   5.428   1.210   3.011  0.0578  0.3704  0.1746
10647SOL    HW138033   5.406   1.302   3.025 -0.4994  0.1775  0.5850
10647SOL    HW238034   5.352   1.161   3.044  0.5882 -0.2593  0.4995
10648SOL     OW38035   6.199   2.027   0.991 -0.4460 -0.7430 -0.5509
10648SOL    HW138036   6.246   1.997   1.068  0.2082  0.3036 -0.5169
10648SOL    HW238037   6.107   2.026   1.017 -0.1978  0.0697  0.4226
10649SOL     OW38038  10.226   8.133   6.827 -0.2040  0.7881 -0.1892
10649SOL    HW138039  10.253   8.224   6.815 -2.4043  1.4997 -0.2284
10649SOL    HW238040  10.135   8.131   6.796 -0.1286 -1.4931 -0.4241
10650SOL     OW38041   5.752   8.452   0.239  0.2715 -0.3076  0.2963
10650SOL    HW138042   5.815   8.447   0.167  2.4393  2.2451  1.8452
10650SOL    HW238043   5.780   8.383   0.299  0.7617 -0.0393  0.3786
10651SOL     OW38044   8.475   1.024   3.474  0.5392  0.4646 -0.4899
10651SOL    HW138045   8.522   1.050   3.395 -0.3275  0.2387 -1.0902
10651SOL    HW238046   8.459   0.930   3.463  1.8844  0.0626  0.7398
10652SOL     OW38047   9.874   7.867   0.800 -0.2785  0.1578 -0.5440
10652SOL    HW138048   9.941   7.880   0.734 -1.0970 -0.0937 -1.4490
10652SOL    HW238049   9.922   7.841   0.879  0.7133  0.5578 -1.0093
10653SOL     OW38050   7.017   6.009   3.686 -0.4370 -0.0804 -0.2372
10653SOL    HW138051   7.062   6.021   3.603 -0.1632 -1.4242 -0.2995
10653SOL    HW238052   6.927   6.038   3.668  0.5801  4.1266  0.3065
10654SOL     OW38053   3.453   5.796   7.243 -0.7080 -0.2991 -0.1581
10654SOL    HW138054   3.463   5.833   7.331 -0.3218 -0.0681 -0.2948
10654SOL    HW238055   3.541   5.799   7.206 -1.1591  1.3771 -1.2430
10655SOL     OW38056   3.775   9.293   2.538 -0.3124 -0.1162 -0.4558
10655SOL    HW138057   3.811   9.205   2.521 -0.1495 -0.1935  0.2643
10655SOL    HW238058   3.818   9.320   2.619 -0.2345  0.7050 -0.7681
10656SOL     OW38059   0.301   2.213   3.365  0.3996 -0.2303  0.1918
10656SOL    HW138060   0.296   2.286   3.304 -0.0624 -0.1814  0.2819
10656SOL    HW238061   0.395   2.194   3.373  0.5149  0.3186  0.1364
10657SOL     OW38062   8.648   4.271   7.567  0.0126  0.4419 -0.0868
10657SOL    HW138063   8.717   4.219   7.525  0.5464  0.7473  0.3992
10657SOL    HW238064   8.687   4.357   7.582 -0.1222  0.3262  1.0964
10658SOL     OW38065   2.095   3.992   6.859 -0.4450  0.8672  0.1395
10658SOL    HW138066   2.101   3.949   6.774  2.9904  0.8386  0.2553
10658SOL    HW238067   2.097   3.920   6.922 -1.1765  0.9781  0.3046
10659SOL     OW38068   0.263  10.465   8.324  0.8193  0.1351 -0.3231
10659SOL    HW138069   0.207  10.478   8.248  0.5161  0.5170 -0.0432
10659SOL    HW238070   0.317  10.544   8.327  1.3795 -0.2349 -0.5934
10660SOL     OW38071   3.959   6.186   2.256  0.4040  0.4175 -0.6359
10660SOL    HW138072   3.923   6.272   2.235  1.5857  1.1491  0.1975
10660SOL    HW238073   3.945   6.176   2.350  1.9358  0.5368 -0.3700
10661SOL     OW38074   2.286   3.235   9.851 -0.0066  0.0579  0.0252
10661SOL    HW138075   2.270   3.255   9.944  1.0990  0.0861  0.2209
10661SOL    HW238076   2.356   3.294   9.825 -0.0217 -0.2425 -0.7186
10662SOL     OW38077   3.379  10.795   1.430 -0.0998  0.2342  0.0857
10662SOL    HW138078   3.370  10.867   1.367  0.5913  1.9401  1.8163
10662SOL    HW238079   3.327  10.823   1.506  1.6499 -0.1755  1.5067
10663SOL     OW38080   1.538   1.110   4.243 -0.6589 -0.0420 -0.4896
10663SOL    HW138081   1.584   1.090   4.324 -1.5481 -1.5713 -0.3309
10663SOL    HW238082   1.446   1.114   4.267 -0.9403 -0.5279 -1.4090
10664SOL     OW38083   2.796   3.802   6.731 -0.2859  0.8072  0.1473
10664SOL    HW138084   2.733   3.831   6.665 -0.5066  1.4218  0.6099
10664SOL    HW238085   2.865   3.868   6.728  0.2075  0.2816 -0.1694
10665SOL     OW38086   5.721   2.742   4.618 -0.1390  0.4456  0.5043
10665SOL    HW138087   5.794   2.803   4.610  1.0126 -0.7138  1.7797
10665SOL    HW238088   5.677   2.747   4.533  0.5996  2.1491  0.1738
10666SOL     OW38089   5.168   6.360  10.909  0.9743 -0.0674 -0.0675
10666SOL    HW138090   5.231   6.388  10.975  0.5671  1.6889 -0.3775
10666SOL    HW238091   5.205   6.388  10.825  0.1679  0.3053 -0.3188
10667SOL     OW38092   9.355   9.189   9.047  0.1369  0.1480 -0.5566
10667SOL    HW138093   9.395   9.275   9.044 -0.5780  0.5293  0.4125
10667SOL    HW238094   9.266   9.205   9.078 -0.0946 -0.9035 -0.6430
10668SOL     OW38095   9.672   1.060   8.815 -0.0519 -0.1187 -0.2780
10668SOL    HW138096   9.582   1.091   8.816  0.0637  0.2234  0.8713
10668SOL    HW238097   9.690   1.042   8.722 -1.2207  0.0006 -0.5482
10669SOL     OW38098  10.332  10.478   4.753  0.9115 -0.7771 -0.0906
10669SOL    HW138099  10.288  10.498   4.670  0.9728  2.2691  0.5280
10669SOL    HW238100  10.268  10.427   4.803  0.4008 -1.5399 -1.4613
10670SOL     OW38101   9.792   5.149   0.694 -0.5988 -0.1042 -0.0236
10670SOL    HW138102   9.817   5.210   0.624 -0.2893 -0.0213  0.1592
10670SOL    HW238103   9.703   5.174   0.717 -0.1633  0.8467  0.6608
10671SOL     OW38104   1.976   2.997   3.845  0.2208 -0.4286 -0.1046
10671SOL    HW138105   1.956   2.954   3.928  0.2162  0.0604  0.1549
10671SOL    HW238106   2.072   3.001   3.843  0.3072 -2.1652 -1.0315
10672SOL     OW38107   1.343   0.523   0.304  0.3167 -0.4679  0.1579
10672SOL    HW138108   1.258   0.559   0.329  0.1700 -0.3703 -0.4609
10672SOL    HW238109   1.350   0.541   0.210  0.0755 -2.3910 -0.2612
10673SOL     OW38110   1.034   4.929   8.885  0.0550 -0.3420 -0.0219
10673SOL    HW138111   1.044   4.903   8.794 -2.9896  0.6443 -0.7418
10673SOL    HW238112   1.062   5.021   8.888 -0.0763 -0.3012 -0.0259
10674SOL     OW38113   3.762   3.498   9.726  0.4936  0.2114 -0.2685
10674SOL    HW138114   3.744   3.540   9.642 -0.5540 -0.5229 -0.4243
10674SOL    HW238115   3.773   3.405   9.704  0.0927 -0.0011  0.4265
10675SOL     OW38116   1.262  10.009  10.860  0.0193  0.4749  0.0912
10675SOL    HW138117   1.177  10.005  10.816  0.1034  1.1418 -0.1402
10675SOL    HW238118   1.245  10.060  10.940  0.3562  1.2921 -0.3436
10676SOL     OW38119   6.771   1.130   9.776  0.2690  0.2006  0.8932
10676SOL    HW138120   6.750   1.212   9.732 -0.6582 -0.0023  0.9367
10676SOL    HW238121   6.773   1.151   9.869 -0.5247  0.0697  0.9465
10677SOL     OW38122  10.415   1.336  10.645 -0.1053  0.4102 -0.0093
10677SOL    HW138123  10.344   1.314  10.706 -0.0185  1.5284  0.5059
10677SOL    HW238124  10.415   1.431  10.640  0.9221  0.4002 -0.5404
10678SOL     OW38125  10.924   9.258   1.651  0.1657 -0.1902  0.1705
10678SOL    HW138126  10.966   9.189   1.702 -1.6624 -0.4533  1.4065
10678SOL    HW238127  10.978   9.267   1.573  1.8222 -1.2999  1.1420
10679SOL     OW38128   3.162   0.546   6.321  0.2414 -0.0030 -0.1188
10679SOL    HW138129   3.186   0.454   6.330 -1.3286 -0.3559  0.8565
10679SOL    HW238130   3.210   0.591   6.390  0.9108 -0.1099 -0.5138
10680SOL     OW38131   6.076   5.161   6.895  0.0637 -0.0913 -0.1158
10680SOL    HW138132   6.056   5.181   6.986 -0.2592  1.0198 -0.4072
10680SOL    HW238133   6.158   5.208   6.877  1.1532 -1.8015  0.0910
10681SOL     OW38134   2.301   0.718   3.838 -0.4162  0.8891  0.3985
10681SOL    HW138135   2.230   0.675   3.887 -1.3142  1.0312 -0.7272
10681SOL    HW238136   2.358   0.646   3.811 -0.6468  0.6684  0.4916
10682SOL     OW38137   2.043   0.103   0.203 -0.3687  0.5300  0.3969
10682SOL    HW138138   2.078   0.170   0.145 -0.8015  1.7853  1.5488
10682SOL    HW238139   1.956   0.134   0.227 -0.7511 -0.6625  0.6111
10683SOL     OW38140   2.561   7.338   6.312  0.0172 -0.0872 -0.5367
10683SOL    HW138141   2.468   7.359   6.301 -0.0648 -0.1527  0.0052
10683SOL    HW238142   2.607   7.415   6.278 -0.1914 -0.5878 -2.0302
10684SOL     OW38143   0.464  10.677   0.031  0.6078  0.1972 -0.2123
10684SOL    HW138144   0.389  10.728   0.001  1.1266  1.4236  0.4942
10684SOL    HW238145   0.464  10.689   0.126 -0.3342 -2.6581  0.2307
10685SOL     OW38146   2.187   9.174   8.638 -0.2074  0.1498  0.3953
10685SOL    HW138147   2.119   9.222   8.592 -1.4132  1.2384  3.0838
10685SOL    HW238148   2.140   9.106   8.686  1.0731 -1.4197 -0.4577
10686SOL     OW38149   4.443   9.781   3.376 -0.2815  0.8302  0.3430
10686SOL    HW138150   4.443   9.788   3.281  1.5995  1.5972  0.3691
10686SOL    HW238151   4.395   9.859   3.406  0.3407  1.3384  0.0403
10687SOL     OW38152   3.376   5.700   0.890 -0.0415  0.0735 -0.3503
10687SOL    HW138153   3.301   5.650   0.922  0.5332 -0.3095  0.4447
10687SOL    HW238154   3.448   5.672   0.946  0.9219 -0.2991 -1.7332
10688SOL     OW38155   7.382   8.247   6.700 -0.1138 -0.3325 -0.1403
10688SOL    HW138156   7.374   8.183   6.770  1.0040 -0.1045  0.2083
10688SOL    HW238157   7.326   8.320   6.728 -1.4751 -1.1601 -0.5897
10689SOL     OW38158   9.542   2.117   1.394 -0.3778  0.1418  0.3056
10689SOL    HW138159   9.569   2.198   1.437 -0.3290 -0.1677  0.8712
10689SOL    HW238160   9.509   2.145   1.309  2.6031  0.4885 -0.8629
10690SOL     OW38161   4.354   9.134   6.341 -0.4220  0.1140  0.2266
10690SOL    HW138162   4.397   9.067   6.393 -2.3059 -0.8589  0.5724
10690SOL    HW238163   4.312   9.191   6.405 -1.5404 -0.2628 -0.1546
10691SOL     OW38164   5.237   9.165   3.376  0.0671  0.4562  0.3857
10691SOL    HW138165   5.202   9.245   3.414  0.9965  0.6132  0.9578
10691SOL    HW238166   5.169   9.099   3.391  0.0603  0.7139  1.5884
10692SOL     OW38167   3.022  10.607   5.361  0.4452  0.1238  0.0765
10692SOL    HW138168   2.981  10.529   5.325 -0.8308 -0.0542  1.7519
10692SOL    HW238169   3.050  10.657   5.285 -0.4508 -1.0582 -1.0787
10693SOL     OW38170   9.814   7.475   7.631 -0.0030  0.3129  0.6122
10693SOL    HW138171   9.855   7.425   7.561  0.3931 -1.1633  1.8298
10693SOL    HW238172   9.841   7.565   7.617  0.5350 -0.0509 -0.7796
10694SOL     OW38173  10.518   0.094   6.306  0.2894 -0.2175  0.1601
10694SOL    HW138174  10.460   0.152   6.355 -2.8955 -2.4225 -0.6766
10694SOL    HW238175  10.508   0.121   6.215  1.3106 -0.0575  0.0908
10695SOL     OW38176   9.722   3.204   9.346 -1.0972  0.3637 -0.2866
10695SOL    HW138177   9.755   3.217   9.257  0.2737  0.5010  0.2077
10695SOL    HW238178   9.664   3.129   9.340  0.1409 -0.5710 -1.0421
10696SOL     OW38179   1.896  10.604  10.107 -0.2772  0.4262 -0.0192
10696SOL    HW138180   1.816  10.551  10.102  0.6950 -1.0538 -0.6088
10696SOL    HW238181   1.905  10.626  10.199 -1.0006  0.0256  0.1565
10697SOL     OW38182   4.098   4.993   0.125 -0.6975 -0.3403  0.3188
10697SOL    HW138183   4.027   4.957   0.071 -0.0790  0.2532 -0.9382
10697SOL    HW238184   4.062   5.074   0.161  0.2695  1.6847 -2.8799
10698SOL     OW38185   4.676   8.959  10.859  0.3024  0.2613  0.2617
10698SOL    HW138186   4.583   8.979  10.869  0.4658  0.7075  0.9434
10698SOL    HW238187   4.696   8.984  10.769 -0.4570 -0.7831 -0.2288
10699SOL     OW38188   0.791   2.877   3.412 -1.1350 -0.0745 -0.3392
10699SOL    HW138189   0.755   2.932   3.482 -0.9653  0.2037 -0.4685
10699SOL    HW238190   0.874   2.844   3.448 -1.4743 -0.6529 -0.0715
10700SOL     OW38191   2.185  10.153   7.324  0.6143  0.2261 -0.2293
10700SOL    HW138192   2.249  10.142   7.253 -0.4962 -0.5581 -1.1456
10700SOL    HW238193   2.222  10.103   7.397  0.6099 -1.0171 -1.0525
10701SOL     OW38194   0.352   5.373   5.988  0.2584 -0.4083 -0.3158
10701SOL    HW138195   0.417   5.427   5.943  1.2207 -2.0285 -0.9729
10701SOL    HW238196   0.269   5.396   5.946  0.7427  0.0549 -1.0439
10702SOL     OW38197   2.140   6.834   8.271 -0.0212  0.1742  0.8519
10702SOL    HW138198   2.188   6.890   8.209 -1.5981  0.4522 -0.1532
10702SOL    HW238199   2.169   6.745   8.250  0.6435  0.3903  0.8057
10703SOL     OW38200  10.712   2.990   5.114  0.2656 -0.2668  0.2247
10703SOL    HW138201  10.654   2.951   5.049  0.8403 -0.5559 -0.1292
10703SOL    HW238202  10.796   2.946   5.100  0.7410  0.6028  0.2879
10704SOL     OW38203   6.841   8.549   0.272 -0.0208 -0.0141  0.1695
10704SOL    HW138204   6.906   8.479   0.278 -0.8726 -0.6827  2.7021
10704SOL    HW238205   6.761   8.504   0.245  0.0051  0.4206 -0.6509
10705SOL     OW38206   5.465   0.748   7.987  0.7583  0.2834  0.0164
10705SOL    HW138207   5.407   0.813   7.948  0.1401  1.0182  2.0353
10705SOL    HW238208   5.478   0.683   7.918 -2.8327 -0.1695 -0.4414
10706SOL     OW38209   1.669   8.307   0.527 -0.2773 -0.3988  0.1652
10706SOL    HW138210   1.640   8.345   0.609  0.3894 -1.4138  0.8963
10706SOL    HW238211   1.593   8.260   0.493  0.0627 -1.8653  1.3529
10707SOL     OW38212   8.771   7.213   5.682 -0.1688 -0.3447 -0.2617
10707SOL    HW138213   8.825   7.270   5.736  0.2456 -2.0468  1.1961
10707SOL    HW238214   8.681   7.241   5.699  0.0697  0.3373 -0.1223
10708SOL     OW38215   6.363   5.648   6.717 -0.1643  0.3995  0.1585
10708SOL    HW138216   6.309   5.675   6.791 -0.5304 -2.0788  0.8877
10708SOL    HW238217   6.453   5.651   6.751 -0.2689 -0.0250  0.4780
10709SOL     OW38218  10.588   8.465  10.222  0.4363 -0.2745  0.3252
10709SOL    HW138219  10.635   8.522  10.284  0.6606  1.7617 -1.5930
10709SOL    HW238220  10.541   8.403  10.278 -0.6181  2.3915  2.6384
10710SOL     OW38221   0.738   3.139   9.560  0.4836  0.1230 -0.6498
10710SOL    HW138222   0.744   3.232   9.542  0.6698 -0.1334 -2.0551
10710SOL    HW238223   0.827   3.106   9.549  0.7220 -0.0183  1.2886
10711SOL     OW38224   2.420   1.969   4.151 -0.2872  0.0151 -0.2547
10711SOL    HW138225   2.406   1.974   4.246  0.2450  0.6102 -0.2067
10711SOL    HW238226   2.502   1.921   4.142 -0.2700  0.0779 -0.4154
10712SOL     OW38227   1.468   2.079   0.692  0.4661  0.0911  0.2352
10712SOL    HW138228   1.560   2.060   0.711  0.4621  0.2855  0.4467
10712SOL    HW238229   1.429   1.993   0.676  1.2155  0.1427 -2.3022
10713SOL     OW38230   1.167   8.580   5.832 -0.0435 -0.8981  0.2155
10713SOL    HW138231   1.174   8.505   5.772  2.5348 -1.1845  0.7508
10713SOL    HW238232   1.213   8.551   5.911  0.4695  1.0079  0.6608
10714SOL     OW38233   8.060   2.959   5.754 -0.0178  0.0173  0.4763
10714SOL    HW138234   8.065   2.874   5.797  0.8988 -0.7571 -1.0813
10714SOL    HW238235   8.111   2.949   5.674 -0.0806  1.9729  0.1326
10715SOL     OW38236   0.503   7.486   3.291  0.1857 -0.2189 -0.1781
10715SOL    HW138237   0.507   7.444   3.377 -2.4667  1.5425  0.9545
10715SOL    HW238238   0.594   7.486   3.260  1.0760 -1.8595  2.1042
10716SOL     OW38239   7.310   6.777   6.249  0.2643 -0.7035 -0.0161
10716SOL    HW138240   7.335   6.695   6.205  1.7220  0.5766 -1.7273
10716SOL    HW238241   7.216   6.785   6.231  0.5887 -0.8142 -1.9976
10717SOL     OW38242   6.692   2.482   5.075 -0.3164  0.3281 -0.2743
10717SOL    HW138243   6.689   2.566   5.120  0.3518  1.0956 -1.6040
10717SOL    HW238244   6.753   2.429   5.127  0.5573  1.2395 -0.3391
10718SOL     OW38245   5.193   5.007  10.162  0.0503  0.4627  0.0825
10718SOL    HW138246   5.143   5.084  10.191 -0.6201  0.3023 -0.6042
10718SOL    HW238247   5.204   4.954  10.242 -1.3101  0.2742  0.1739
10719SOL     OW38248   6.066  10.139   1.987 -0.0059  0.2977  0.4306
10719SOL    HW138249   6.070  10.166   1.895 -0.5143  2.1153  0.8966
10719SOL    HW238250   6.128  10.066   1.993  0.2330  0.3085 -1.2919
10720SOL     OW38251   6.393   5.160   4.546 -0.1875  0.2532  0.3482
10720SOL    HW138252   6.409   5.177   4.453 -0.8024  0.6125  0.3020
10720SOL    HW238253   6.349   5.239   4.577  0.2956  0.2648  1.0255
10721SOL     OW38254   7.064   8.750   5.717  0.0313 -0.2481  0.5098
10721SOL    HW138255   7.083   8.691   5.790  0.0301  1.7951  2.2805
10721SOL    HW238256   7.038   8.693   5.645  2.6699 -2.5489  1.2196
10722SOL     OW38257   7.525   3.441  10.635 -0.0631  0.0717  0.5192
10722SOL    HW138258   7.564   3.527  10.617 -1.0161  0.6204  1.0042
10722SOL    HW238259   7.550   3.422  10.725  0.2373 -0.2213  0.3777
10723SOL     OW38260   6.988   6.018   0.514  0.7581 -0.7200 -0.4614
10723SOL    HW138261   7.044   6.084   0.556 -1.8917  1.4442 -0.1015
10723SOL    HW238262   6.980   5.949   0.580  0.7533  0.2648  0.6113
10724SOL     OW38263   6.735   8.536   6.184 -0.2779  0.2672 -0.1617
10724SOL    HW138264   6.696   8.500   6.104 -1.3947  0.4534  0.2758
10724SOL    HW238265   6.815   8.579   6.154  0.8443 -2.0562 -0.7784
10725SOL     OW38266   6.389   0.567   1.758 -0.2375  0.3476  0.1797
10725SOL    HW138267   6.426   0.594   1.674 -0.5592  0.2641  0.0111
10725SOL    HW238268   6.299   0.600   1.756  0.5607  2.8577  1.6559
10726SOL     OW38269   3.201  10.399   7.853  0.3944  0.2936  0.6699
10726SOL    HW138270   3.234  10.322   7.807  0.7577  0.9981 -0.2909
10726SOL    HW238271   3.144  10.442   7.789 -2.9685 -1.1750  2.4301
10727SOL     OW38272   6.398   8.186   2.825 -0.3801  0.0761  0.2743
10727SOL    HW138273   6.452   8.242   2.771 -3.1202  1.7285 -0.9586
10727SOL    HW238274   6.460   8.141   2.883  2.2204  1.8129 -0.9862
10728SOL     OW38275   1.110  10.287   0.774  0.3087 -0.1779  0.2365
10728SOL    HW138276   1.095  10.352   0.842 -0.0956  1.3207 -1.2191
10728SOL    HW238277   1.035  10.228   0.779  0.4206 -0.2447  1.2358
10729SOL     OW38278   4.231   2.535   0.671  0.0804  0.0505 -0.4444
10729SOL    HW138279   4.227   2.625   0.702  1.0211  0.3557 -1.1488
10729SOL    HW238280   4.317   2.504   0.700 -0.3312 -0.6966 -0.0078
10730SOL     OW38281   2.306   8.931   3.946  0.2739  0.1531 -0.1725
10730SOL    HW138282   2.293   8.854   3.890  0.0946  0.1997 -0.1945
10730SOL    HW238283   2.220   8.972   3.951  0.4080  0.4559 -0.3060
10731SOL     OW38284   4.801  10.874   7.492  0.2529  0.7004  0.5020
10731SOL    HW138285   4.783  10.832   7.576  0.1030  0.2070  0.2266
10731SOL    HW238286   4.893  10.899   7.497  1.0017 -1.6580 -0.1573
10732SOL     OW38287   3.645  10.562   2.346 -0.2518 -0.0932  0.3765
10732SOL    HW138288   3.582  10.613   2.295 -0.4551  0.4991  1.2163
10732SOL    HW238289   3.730  10.587   2.309 -0.3753  0.5793  0.5410
10733SOL     OW38290   5.194   3.342   0.086  0.0206 -0.3090 -0.3222
10733SOL    HW138291   5.280   3.370   0.118  1.1560 -1.2907 -2.2778
10733SOL    HW238292   5.202   3.345  -0.009 -1.8865 -1.1281 -0.5568
10734SOL     OW38293   7.716   9.781   1.912 -0.2286 -0.3472 -0.2958
10734SOL    HW138294   7.628   9.751   1.887 -0.2586  0.3549 -1.0731
10734SOL    HW238295   7.710   9.794   2.007 -0.3919 -2.1498 -0.0172
10735SOL     OW38296   6.659   5.305   8.532 -0.0814 -1.0428  0.7675
10735SOL    HW138297   6.590   5.250   8.568 -1.5757  0.2065 -0.0479
10735SOL    HW238298   6.665   5.379   8.593 -0.5241 -0.4179  0.0764
10736SOL     OW38299   1.863   9.504   7.347  0.0132  0.2864  0.0925
10736SOL    HW138300   1.948   9.504   7.390 -0.2371 -0.1549  0.5981
10736SOL    HW238301   1.822   9.585   7.375 -1.7238 -1.6478  3.9354
10737SOL     OW38302   7.058   1.673  10.111 -0.8182 -1.4383  0.8417
10737SOL    HW138303   7.060   1.603  10.046  0.8601 -1.1478  0.5432
10737SOL    HW238304   6.976   1.659  10.158 -2.2371 -1.5096 -1.4785
10738SOL     OW38305   1.844   7.173   9.494  0.2699 -0.2621  0.0140
10738SOL    HW138306   1.846   7.269   9.504 -0.4368 -0.2193 -0.1841
10738SOL    HW238307   1.901   7.156   9.418 -0.1873  0.0740 -0.4121
10739SOL     OW38308   4.551   2.343   6.191 -0.2470 -0.0752 -0.2312
10739SOL    HW138309   4.612   2.405   6.233 -0.4281 -0.0424 -0.0161
10739SOL    HW238310   4.561   2.360   6.098 -0.3713  0.3561 -0.1689
10740SOL     OW38311   4.909   2.835  10.043  0.4259  0.1933 -0.2465
10740SOL    HW138312   4.890   2.926  10.061 -1.6525 -0.4989  1.3360
10740SOL    HW238313   4.952   2.803  10.122  0.3316 -0.4176 -0.4363
10741SOL     OW38314   7.849   1.324   3.335  0.1639  1.2799 -0.5729
10741SOL    HW138315   7.869   1.235   3.364 -0.2017  1.5072  0.3848
10741SOL    HW238316   7.846   1.317   3.239 -0.3341  0.1588 -0.4936
10742SOL     OW38317   5.830  10.892   9.554  0.6136  0.1249  0.1502
10742SOL    HW138318   5.843  10.808   9.509  2.3920 -0.6290  1.8897
10742SOL    HW238319   5.736  10.902   9.560  0.3440 -0.7690 -1.8228
10743SOL     OW38320   3.797   8.401   2.905  0.8130 -0.0628 -0.0918
10743SOL    HW138321   3.865   8.435   2.964  0.5951 -0.4937  0.4139
10743SOL    HW238322   3.758   8.328   2.953  0.8763 -0.6605 -0.9153
10744SOL     OW38323   8.190   1.890   9.174 -0.2211  0.1848  0.1501
10744SOL    HW138324   8.189   1.980   9.208  1.5969 -0.4558  2.1856
10744SOL    HW238325   8.263   1.889   9.113 -2.0032  0.7256 -2.1086
10745SOL     OW38326   2.513   7.705  10.729 -0.0550  0.1947 -0.9402
10745SOL    HW138327   2.442   7.764  10.704 -0.6049 -0.3314 -0.6349
10745SOL    HW238328   2.575   7.709  10.656 -1.3991 -0.9630 -2.1855
10746SOL     OW38329   5.779  10.810   1.812 -0.6116  0.7382 -0.1304
10746SOL    HW138330   5.868  10.779   1.829 -0.8047 -0.2055 -0.7465
10746SOL    HW238331   5.775  10.820   1.717 -1.0378  1.1660 -0.0695
10747SOL     OW38332   8.313   0.383   1.225 -0.1267  0.2538  0.1814
10747SOL    HW138333   8.276   0.435   1.297  3.8380  1.3250  1.7476
10747SOL    HW238334   8.300   0.292   1.252  0.9364  0.6359  2.1768
10748SOL     OW38335   0.306   2.784   9.007  0.5164  0.5487 -0.1696
10748SOL    HW138336   0.303   2.689   8.998 -0.8506  0.5778 -0.2112
10748SOL    HW238337   0.392   2.802   9.044  0.6547 -0.7269  0.1646
10749SOL     OW38338   0.770   6.417   5.476 -0.1420  0.2005 -0.6503
10749SOL    HW138339   0.839   6.401   5.541 -0.1112  0.1260 -0.7007
10749SOL    HW238340   0.688   6.409   5.524 -0.1186  0.1665 -0.6166
10750SOL     OW38341   0.861   0.211   6.237 -0.3548 -0.6035 -0.7733
10750SOL    HW138342   0.885   0.168   6.319 -1.1425  0.0216 -0.1904
10750SOL    HW238343   0.866   0.304   6.257 -0.4616 -0.4451 -1.4674
10751SOL     OW38344  10.095   0.469   7.674  0.2311 -0.0490 -0.0104
10751SOL    HW138345  10.083   0.463   7.579 -0.8593  0.7647  0.0598
10751SOL    HW238346  10.137   0.555   7.687  0.6367 -0.2813  0.2294
10752SOL     OW38347   0.086   5.211   6.440  0.3164 -0.9507 -0.2246
10752SOL    HW138348   0.064   5.129   6.395  1.5418 -2.0864  1.1482
10752SOL    HW238349   0.109   5.184   6.529  0.4924  0.9301  0.3389
10753SOL     OW38350   3.516   2.829   8.538  0.5001 -0.0184  0.2866
10753SOL    HW138351   3.462   2.756   8.568  0.6957 -0.4879 -0.4843
10753SOL    HW238352   3.521   2.818   8.443  2.6276 -0.4726  0.4031
10754SOL     OW38353   2.385   7.814   7.688 -0.0584 -0.1368 -0.6694
10754SOL    HW138354   2.391   7.838   7.781  2.3817  1.9623 -1.2488
10754SOL    HW238355   2.425   7.727   7.683  2.4772  0.8931 -0.0227
10755SOL     OW38356   9.662   8.892   1.584  0.4783  0.0946 -0.1910
10755SOL    HW138357   9.701   8.867   1.500 -0.7342  0.1356 -0.7811
10755SOL    HW238358   9.568   8.895   1.567  0.2127  0.1058  1.1722
10756SOL     OW38359   2.639   3.488   3.424  0.4797  0.0885  0.4342
10756SOL    HW138360   2.630   3.582   3.440 -3.6126 -0.2193  0.8490
10756SOL    HW238361   2.635   3.480   3.329  0.7835  0.2986  0.3999
10757SOL     OW38362   2.186  10.530   4.826  0.4301 -0.3136  0.1772
10757SOL    HW138363   2.209  10.465   4.760  0.5911  0.6741 -0.7493
10757SOL    HW238364   2.218  10.613   4.791 -2.2620  0.7285  0.0180
10758SOL     OW38365   5.808   6.788   0.995  0.1191 -0.3365  0.0845
10758SOL    HW138366   5.838   6.748   1.076  0.3669 -0.0094  0.1568
10758SOL    HW238367   5.888   6.815   0.950  0.0236 -1.3087 -0.6818
10759SOL     OW38368   2.626  10.088   5.297 -0.1962 -0.0862  0.4842
10759SOL    HW138369   2.588  10.129   5.376  0.8714  1.8930  0.0154
10759SOL    HW238370   2.629  10.158   5.233  1.3685 -1.0176 -0.5028
10760SOL     OW38371   2.046   1.356   4.682  0.4631 -0.1109  0.7293
10760SOL    HW138372   1.988   1.281   4.666 -0.4121  0.6673  0.1506
10760SOL    HW238373   2.046   1.404   4.600  0.7388  0.7138  1.2028
10761SOL     OW38374   3.763   4.839   0.739 -0.1776  0.4752  0.0778
10761SOL    HW138375   3.762   4.927   0.701 -1.9649  0.3164 -0.3575
10761SOL    HW238376   3.822   4.846   0.814  0.8374  1.6529 -0.7917
10762SOL     OW38377   7.663  10.464   2.784 -0.0177 -0.0383  0.1590
10762SOL    HW138378   7.604  10.489   2.855  1.2035  3.2026  0.2126
10762SOL    HW238379   7.705  10.384   2.814 -0.9695  0.1807  2.2177
10763SOL     OW38380   0.614   5.503   3.909  0.2744  0.2153 -0.1721
10763SOL    HW138381   0.674   5.577   3.902 -2.0576  2.2463 -0.1362
10763SOL    HW238382   0.527   5.543   3.911 -1.3165 -2.6649 -2.9463
10764SOL     OW38383   0.809   6.704   8.527  0.2973  0.6463 -0.2417
10764SOL    HW138384   0.872   6.679   8.459 -0.5211 -0.3755 -0.6628
10764SOL    HW238385   0.724   6.681   8.489 -0.2798  1.4407  0.5509
10765SOL     OW38386   7.029   0.043   3.491 -0.3875 -0.1478 -0.4931
10765SOL    HW138387   7.098   0.048   3.557  1.5898  0.3593 -2.4779
10765SOL    HW238388   6.949   0.025   3.541  0.9017  0.7048  2.0522
10766SOL     OW38389   7.056   3.317   6.771  0.0853 -0.1000 -0.1602
10766SOL    HW138390   7.088   3.396   6.727  0.4489 -0.1894 -0.0593
10766SOL    HW238391   6.961   3.318   6.756  0.1284  0.1901 -0.4237
10767SOL     OW38392   5.402   7.980  10.798  0.0668  0.2729  0.0494
10767SOL    HW138393   5.412   8.002  10.890 -3.0125  0.4122  0.4810
10767SOL    HW238394   5.375   8.063  10.757 -0.0085 -0.0942 -0.6636
10768SOL     OW38395   1.991   6.122   5.280 -0.7036  0.1592  0.9297
10768SOL    HW138396   1.935   6.168   5.218  0.9851 -1.6162 -2.1670
10768SOL    HW238397   2.070   6.176   5.284  0.3231 -1.0839 -0.8507
10769SOL     OW38398   2.774   0.723   8.132 -0.2284  0.5569  0.2560
10769SOL    HW138399   2.714   0.758   8.067 -1.1136 -0.0931  0.7070
10769SOL    HW238400   2.719   0.671   8.191  0.6957  0.3483  0.9670
10770SOL     OW38401   8.674   1.905   6.521 -0.5192 -0.2400  0.0210
10770SOL    HW138402   8.598   1.848   6.508  0.5020 -1.5102 -0.5657
10770SOL    HW238403   8.676   1.961   6.443  0.4687 -1.8134 -1.1419
10771SOL     OW38404   5.967   0.412   3.508 -0.9402  0.2466 -0.7671
10771SOL    HW138405   5.895   0.422   3.569 -1.6601 -1.4244 -1.2836
10771SOL    HW238406   6.039   0.461   3.547 -2.2468  1.7103 -0.0925
10772SOL     OW38407   9.551   4.556   1.488  0.4204  0.7105 -0.1512
10772SOL    HW138408   9.491   4.530   1.558  0.6720  2.3163  0.7129
10772SOL    HW238409   9.631   4.505   1.504  0.4826  1.0772  0.7563
10773SOL     OW38410   4.075   2.544   1.718  0.5591  0.2341 -0.0002
10773SOL    HW138411   4.006   2.569   1.657 -0.1690 -0.4708  0.5083
10773SOL    HW238412   4.148   2.518   1.663  0.1022  0.1352 -0.5693
10774SOL     OW38413   7.859   9.117  10.865 -0.2588  0.5154  0.1015
10774SOL    HW138414   7.863   9.155  10.777 -0.8134  1.0873  0.3113
10774SOL    HW238415   7.871   9.024  10.852  0.6972  0.7132 -0.4765
10775SOL     OW38416   2.398   2.554   5.161 -0.4890 -0.4800  0.2119
10775SOL    HW138417   2.376   2.614   5.090  0.1815 -0.1010  0.3220
10775SOL    HW238418   2.323   2.558   5.220 -0.7482 -0.2843 -0.1289
10776SOL     OW38419   6.537   0.356   7.573  0.1341 -0.2753  0.1954
10776SOL    HW138420   6.450   0.350   7.613 -0.0528 -1.2239 -0.3229
10776SOL    HW238421   6.537   0.439   7.526  0.4515  1.0306  2.3477
10777SOL     OW38422  10.876   2.691   9.313 -0.3019  0.0754 -0.3112
10777SOL    HW138423  10.809   2.626   9.291  0.0058 -0.7289  0.9907
10777SOL    HW238424  10.913   2.660   9.395  0.9186  1.1024 -0.4411
10778SOL     OW38425   5.885  10.727   7.537  0.1274  0.1264 -0.2821
10778SOL    HW138426   5.815  10.766   7.485 -0.7091  0.4864  1.0760
10778SOL    HW238427   5.912  10.650   7.486 -0.6299  0.4730 -1.2510
10779SOL     OW38428   4.447   6.447  10.562  0.1539  0.1696 -0.3658
10779SOL    HW138429   4.422   6.471  10.473 -0.6278  1.2252  0.1118
10779SOL    HW238430   4.462   6.531  10.606  2.6469 -0.3676 -0.0514
10780SOL     OW38431   1.752   8.682   3.518  0.3718 -0.4084 -0.2104
10780SOL    HW138432   1.744   8.657   3.610 -0.6667  0.0533 -0.1666
10780SOL    HW238433   1.845   8.701   3.507  0.2184  1.6324  1.3167
10781SOL     OW38434   2.415   8.311  10.672 -0.1761  0.1650  1.2212
10781SOL    HW138435   2.337   8.358  10.702 -0.4652 -0.1661  1.0015
10781SOL    HW238436   2.482   8.379  10.662 -0.5764  0.5286  0.9389
10782SOL     OW38437   2.864   2.227  10.573  0.0705 -0.4419 -0.0462
10782SOL    HW138438   2.957   2.205  10.570  0.2826  0.4344 -0.2957
10782SOL    HW238439   2.840   2.218  10.665  0.6184  0.1458  0.1676
10783SOL     OW38440   0.887   9.195   4.928  0.3505  0.3174  0.2358
10783SOL    HW138441   0.977   9.197   4.895  0.1279 -0.0010 -0.3936
10783SOL    HW238442   0.857   9.106   4.910 -0.5746  0.8312 -0.8357
10784SOL     OW38443   7.555   0.914   2.881 -0.2054 -0.4819  0.3265
10784SOL    HW138444   7.536   0.837   2.936 -2.4642 -0.6940 -0.6303
10784SOL    HW238445   7.485   0.913   2.815  0.7925  1.3793 -0.8123
10785SOL     OW38446   4.775   5.441   0.138 -0.0172 -0.6193  0.0694
10785SOL    HW138447   4.818   5.503   0.197 -1.4437 -0.5554  1.0796
10785SOL    HW238448   4.768   5.490   0.055 -1.2448  0.6635  0.8864
10786SOL     OW38449   4.709   9.396   1.984 -0.1084 -0.1727  0.5141
10786SOL    HW138450   4.712   9.491   1.972  0.6847 -0.1795  0.5600
10786SOL    HW238451   4.620   9.371   1.959 -0.7661  0.7513  1.8181
10787SOL     OW38452   0.605  10.825   5.123  0.1368  0.0849 -0.5414
10787SOL    HW138453   0.683  10.782   5.159  0.7781  0.6731 -1.1693
10787SOL    HW238454   0.572  10.765   5.057 -0.8081 -0.8169  0.7141
10788SOL     OW38455   5.353  10.814   4.250  0.0985  0.2301 -0.6329
10788SOL    HW138456   5.294  10.757   4.200 -2.4313  1.7078  0.4741
10788SOL    HW238457   5.381  10.881   4.187  0.2658 -0.2362 -1.0599
10789SOL     OW38458   7.121   0.228   9.662  0.3705 -0.3310 -0.1077
10789SOL    HW138459   7.049   0.173   9.694  0.1537 -0.2304 -0.4178
10789SOL    HW238460   7.112   0.310   9.712 -0.3820  0.0844 -0.8874
10790SOL     OW38461   5.838  10.206   9.854  0.0294  0.2978  0.3331
10790SOL    HW138462   5.864  10.209   9.946  0.3872  0.1435  0.2376
10790SOL    HW238463   5.771  10.138   9.851 -0.1495  0.4618  0.5181
10791SOL     OW38464   6.991   7.417   7.832  0.0301 -0.4678  0.0440
10791SOL    HW138465   6.966   7.340   7.882  0.1291 -0.8174 -0.4451
10791SOL    HW238466   7.085   7.409   7.820 -0.1457 -0.9847 -1.1777
10792SOL     OW38467   4.916   7.873   9.565 -0.1171  0.0585  0.5771
10792SOL    HW138468   5.001   7.848   9.601 -0.1735 -1.3889 -0.2280
10792SOL    HW238469   4.854   7.857   9.637  0.1306 -0.0933  0.7570
10793SOL     OW38470   6.639   7.458   9.771  0.0949 -0.1725  0.4498
10793SOL    HW138471   6.601   7.370   9.767  1.9325 -0.9936  0.0492
10793SOL    HW238472   6.734   7.444   9.769  0.4437  1.8187  0.5528
10794SOL     OW38473   7.426  10.144   2.303  0.0296 -0.4316 -0.0275
10794SOL    HW138474   7.441  10.092   2.224  0.7578  0.5280 -0.5462
10794SOL    HW238475   7.390  10.082   2.366  0.1892 -1.3942 -0.8579
10795SOL     OW38476   9.737   3.395   7.802  0.2698 -0.3098  0.1994
10795SOL    HW138477   9.670   3.377   7.869  1.7676  1.1153  2.1970
10795SOL    HW238478   9.702   3.355   7.722 -1.9368 -1.4986  1.6478
10796SOL     OW38479   6.000   8.225   4.229  0.4492  0.2055 -0.4574
10796SOL    HW138480   6.055   8.247   4.154 -0.4668 -0.7663 -1.4466
10796SOL    HW238481   5.920   8.190   4.191 -0.8258  1.4104  0.9399
10797SOL     OW38482   4.900   9.131   9.190  0.7841 -0.3783 -0.0413
10797SOL    HW138483   4.962   9.066   9.224 -0.2748 -1.0301  0.7304
10797SOL    HW238484   4.870   9.177   9.268  2.2399  1.7649 -0.6615
10798SOL     OW38485   9.111   9.433   5.965  0.3156 -0.4788 -0.1124
10798SOL    HW138486   9.140   9.383   6.041  0.2355 -2.0629 -1.0832
10798SOL    HW238487   9.037   9.485   5.998  0.2701 -1.1485  0.8928
10799SOL     OW38488   0.914   6.427   6.342 -0.3304  0.0215 -0.3397
10799SOL    HW138489   0.825   6.392   6.349 -1.1272  1.5923 -1.8342
10799SOL    HW238490   0.902   6.518   6.317  1.6857 -0.2799 -2.9118
10800SOL     OW38491   9.233   5.548   8.982 -0.2005 -0.2601 -0.6616
10800SOL    HW138492   9.155   5.534   9.036 -0.1892  1.7730 -0.0458
10800SOL    HW238493   9.214   5.627   8.932  0.6671 -0.8933 -2.0590
10801SOL     OW38494   1.553   0.377   3.489  0.1169 -0.6100 -0.5531
10801SOL    HW138495   1.501   0.318   3.435 -1.6011  0.2023  0.1593
10801SOL    HW238496   1.519   0.464   3.470  2.6606  0.2540 -1.6413
10802SOL     OW38497   7.301   8.139   3.613  0.4120  0.1318 -0.1466
10802SOL    HW138498   7.275   8.065   3.558 -2.3099  1.0403 -0.1908
10802SOL    HW238499   7.337   8.097   3.692  0.0590 -1.2085 -0.6606
10803SOL     OW38500   2.434   3.400   0.756 -0.0700 -0.0526  0.1313
10803SOL    HW138501   2.514   3.350   0.774  0.6577  0.8103 -0.5577
10803SOL    HW238502   2.452   3.444   0.673 -0.4553  1.7535  0.9513
10804SOL     OW38503  10.650   4.497   8.210  0.0769  0.0547 -0.1968
10804SOL    HW138504  10.687   4.568   8.262  3.2151  0.8470 -3.2016
10804SOL    HW238505  10.691   4.418   8.244 -1.1350 -0.0363  1.1712
10805SOL     OW38506   3.109   0.813   2.882  0.4082  0.3219  0.6694
10805SOL    HW138507   3.020   0.797   2.913  0.4534 -0.7435  0.3171
10805SOL    HW238508   3.118   0.908   2.880 -2.0517  0.6663 -2.9247
10806SOL     OW38509   0.089   5.444  10.125 -0.2090 -0.1298 -0.1621
10806SOL    HW138510   0.071   5.350  10.132  1.0876 -0.2879  1.9974
10806SOL    HW238511   0.161   5.449  10.061 -0.6209 -0.5399 -0.6689
10807SOL     OW38512   5.078   5.177   4.028  0.4574  0.3596 -0.5278
10807SOL    HW138513   5.008   5.113   4.040  0.2534  0.6070 -0.3770
10807SOL    HW238514   5.032   5.259   4.010  0.7034  0.5520 -0.2815
10808SOL     OW38515   9.219   4.291   8.717 -0.3947  0.4074  0.8860
10808SOL    HW138516   9.202   4.377   8.677  0.5299  0.5644  0.7987
10808SOL    HW238517   9.269   4.244   8.650  0.1197  0.2351  1.3897
10809SOL     OW38518   2.145   1.335   6.316  0.2859 -0.3304 -0.2504
10809SOL    HW138519   2.168   1.254   6.272  1.0948  0.7266 -1.8759
10809SOL    HW238520   2.084   1.379   6.256  0.4688  0.6036  0.2252
10810SOL     OW38521  10.645   4.148   6.940 -0.2219 -0.2632  0.0043
10810SOL    HW138522  10.720   4.130   6.996  1.4373  1.9393 -1.3448
10810SOL    HW238523  10.673   4.220   6.884 -3.8794  1.8136  0.4918
10811SOL     OW38524   0.893   4.039   3.683 -0.2871 -0.2771  0.1948
10811SOL    HW138525   0.854   4.073   3.603  0.4863 -1.2282 -0.6144
10811SOL    HW238526   0.848   4.086   3.753 -0.0434  1.5544 -0.8153
10812SOL     OW38527   4.571   8.746   4.128  0.6669  0.5616  0.3876
10812SOL    HW138528   4.646   8.700   4.165 -0.2422  0.2895  1.9789
10812SOL    HW238529   4.524   8.679   4.078 -0.9103 -0.5088  3.0762
10813SOL     OW38530  10.405   6.283   9.233  0.0281 -1.0469  0.7939
10813SOL    HW138531  10.405   6.207   9.291 -1.2140 -1.3599  0.4101
10813SOL    HW238532  10.351   6.348   9.279  0.2683 -0.7555  0.6650
10814SOL     OW38533   7.866   6.788   6.319 -0.2650  0.5191  0.3886
10814SOL    HW138534   7.861   6.798   6.414 -0.1849 -1.2924  0.6195
10814SOL    HW238535   7.781   6.752   6.294 -0.0735  0.4109 -0.1304
10815SOL     OW38536   1.990   7.722   6.434  0.0039 -0.6300 -0.3814
10815SOL    HW138537   1.930   7.702   6.506 -0.5380  0.8727 -0.3735
10815SOL    HW238538   2.072   7.746   6.478 -0.8167  1.9664 -0.1029
10816SOL     OW38539   7.855   6.449   1.764  0.0651 -0.0437  0.5641
10816SOL    HW138540   7.800   6.375   1.740 -0.4777  0.7409 -0.7104
10816SOL    HW238541   7.830   6.470   1.854 -1.4601  0.0630  0.1342
10817SOL     OW38542   3.254   9.472   9.902  0.1279  0.1910 -0.3744
10817SOL    HW138543   3.163   9.451   9.922  0.3248 -1.2815 -0.9161
10817SOL    HW238544   3.302   9.450   9.982 -0.0063  1.1727 -0.0141
10818SOL     OW38545   1.213   9.719   8.747 -0.4339  0.2564  0.3668
10818SOL    HW138546   1.308   9.720   8.734 -0.4763 -0.2859 -0.0142
10818SOL    HW238547   1.177   9.737   8.660 -0.6800 -0.0468  0.4036
10819SOL     OW38548   9.360   7.653   6.615 -0.4019  0.3622  0.0535
10819SOL    HW138549   9.354   7.716   6.686 -2.1437 -0.4051  0.6561
10819SOL    HW238550   9.270   7.623   6.602 -0.1506  0.5594 -2.5790
10820SOL     OW38551   4.897   9.890   9.633  0.1219 -0.5868 -0.1696
10820SOL    HW138552   4.979   9.934   9.657 -0.5309 -0.6241  2.4663
10820SOL    HW238553   4.836   9.962   9.618  0.1627 -0.5595 -0.2030
10821SOL     OW38554   2.076   5.159   1.362  0.2650 -0.1146  0.3649
10821SOL    HW138555   2.010   5.186   1.297 -0.3757 -0.6768  0.7619
10821SOL    HW238556   2.025   5.116   1.431  1.0234 -0.2600  0.8474
10822SOL     OW38557   0.664   6.256  10.715  0.2056 -0.0387 -0.4672
10822SOL    HW138558   0.615   6.338  10.714  0.4729  0.1162 -0.5881
10822SOL    HW238559   0.609   6.195  10.665 -0.2230 -0.0704  0.0272
10823SOL     OW38560   2.141   1.382   2.553 -0.0908  0.0011  0.5519
10823SOL    HW138561   2.181   1.380   2.640 -1.1952  2.3438  1.2037
10823SOL    HW238562   2.072   1.448   2.561 -1.2573 -0.8648 -1.6907
10824SOL     OW38563   0.722   4.633  10.836  0.3121  0.2168 -0.7069
10824SOL    HW138564   0.763   4.557  10.878  1.5673  0.7220 -0.9564
10824SOL    HW238565   0.748   4.625  10.744 -0.8184  0.1468 -1.0396
10825SOL     OW38566   9.200   2.471   3.062 -0.0720 -0.2150  0.0197
10825SOL    HW138567   9.159   2.387   3.082  0.5067 -0.7384 -0.9671
10825SOL    HW238568   9.243   2.497   3.144  1.9142 -2.1181 -0.3331
10826SOL     OW38569   5.610   4.008   0.290  0.1826 -0.2629  0.8800
10826SOL    HW138570   5.637   4.085   0.240  1.5066 -0.4316  1.3051
10826SOL    HW238571   5.615   4.036   0.382  1.2893 -1.0324  1.0685
10827SOL     OW38572   5.198   6.119   5.949  0.0247 -0.6598  0.0052
10827SOL    HW138573   5.184   6.140   5.857 -0.8572 -2.5655 -0.3587
10827SOL    HW238574   5.263   6.182   5.979 -0.3694  0.6020 -1.6645
10828SOL     OW38575   3.553   7.576   9.836  0.1083 -0.2728 -0.1049
10828SOL    HW138576   3.581   7.646   9.895  0.8691 -0.0184 -0.7474
10828SOL    HW238577   3.513   7.621   9.762 -1.5152 -0.6194  0.5328
10829SOL     OW38578   6.862   9.585   2.208  0.5388  0.3941  0.4262
10829SOL    HW138579   6.882   9.493   2.224  0.5165 -0.0734 -1.9241
10829SOL    HW238580   6.924   9.612   2.140 -1.2129  1.3175 -0.8777
10830SOL     OW38581   3.441   9.452   7.309  0.1969  0.1722  0.3840
10830SOL    HW138582   3.507   9.384   7.325 -0.0254 -0.2399 -0.4347
10830SOL    HW238583   3.436   9.459   7.214  0.1267  1.2545  0.4500
10831SOL     OW38584   2.825   4.459   4.250 -0.4066 -1.2894 -0.2251
10831SOL    HW138585   2.784   4.459   4.337  1.2470  0.5325  0.6182
10831SOL    HW238586   2.752   4.446   4.190 -1.7554 -1.4706  1.3697
10832SOL     OW38587   0.333   0.966   5.723 -0.2961 -0.3402 -0.2411
10832SOL    HW138588   0.337   1.050   5.770 -0.7723 -0.4827  0.0582
10832SOL    HW238589   0.239   0.948   5.713 -0.2537 -1.8302  1.5008
10833SOL     OW38590   7.597   1.710   6.879  0.0466 -0.0995  0.8631
10833SOL    HW138591   7.637   1.625   6.894 -1.9479 -1.6440 -1.6284
10833SOL    HW238592   7.547   1.728   6.959 -0.6351 -2.0129  0.9304
10834SOL     OW38593   0.821   2.895   9.340 -0.1496  0.0491  0.0235
10834SOL    HW138594   0.753   2.943   9.293  0.2609  1.1117  0.4903
10834SOL    HW238595   0.854   2.957   9.406 -0.9919 -1.4993  2.0271
10835SOL     OW38596   6.044   8.485   5.271  0.4156 -0.2578  0.2377
10835SOL    HW138597   6.060   8.533   5.353 -2.3381  2.2449 -0.5134
10835SOL    HW238598   6.073   8.544   5.202 -0.9222 -0.6125 -0.6758
10836SOL     OW38599   7.567   6.554   0.198 -0.3297  0.6673 -0.3212
10836SOL    HW138600   7.557   6.604   0.118  0.1956 -1.1706 -1.6049
10836SOL    HW238601   7.510   6.478   0.187  2.5830 -1.6732 -0.8010
10837SOL     OW38602   8.769  10.099   6.121  0.2768  1.1691  0.4080
10837SOL    HW138603   8.735  10.037   6.057 -0.3587 -1.5485  3.1517
10837SOL    HW238604   8.864  10.089   6.115  0.1779 -0.3797  1.0318
10838SOL     OW38605   6.184   0.621   1.394  0.9806  1.1219  0.1735
10838SOL    HW138606   6.251   0.590   1.334 -0.1611 -2.6116  0.6145
10838SOL    HW238607   6.119   0.663   1.337  0.3568 -1.5387 -1.2325
10839SOL     OW38608  10.589   3.862   8.924 -0.2484  0.4157  0.0397
10839SOL    HW138609  10.542   3.859   9.007 -0.9278  1.3495 -0.2925
10839SOL    HW238610  10.589   3.772   8.893 -0.4146  0.1437  0.8150
10840SOL     OW38611   0.671   2.190  10.704  0.0025  0.0553 -0.5784
10840SOL    HW138612   0.662   2.097  10.722  1.3401  0.1123  0.5409
10840SOL    HW238613   0.764   2.209  10.720 -0.5519  1.8767  0.7349
10841SOL     OW38614   8.602   1.386   7.670  0.8866 -0.0213  0.2566
10841SOL    HW138615   8.688   1.369   7.708  0.4153 -0.4813  1.1469
10841SOL    HW238616   8.545   1.318   7.707  0.0824  0.4266 -0.1222
10842SOL     OW38617   9.944   0.110   3.295  0.0761  0.3864 -0.1408
10842SOL    HW138618   9.867   0.057   3.275  1.0393 -0.4691 -1.7700
10842SOL    HW238619   9.977   0.075   3.378  0.1495 -0.9510 -0.7186
10843SOL     OW38620  10.158   3.544   9.184  0.0588  0.0781  0.3797
10843SOL    HW138621  10.144   3.494   9.104  1.4617  0.9008 -0.4092
10843SOL    HW238622  10.250   3.568   9.183 -0.0815  0.8528  1.8124
10844SOL     OW38623   4.189   0.573   2.974 -0.1058 -0.3883  0.0192
10844SOL    HW138624   4.261   0.610   2.923  0.5241  0.3521  1.3786
10844SOL    HW238625   4.119   0.560   2.911  1.0344 -0.6287 -1.2434
10845SOL     OW38626   0.130   2.670   4.590 -0.0177 -0.1926 -0.3487
10845SOL    HW138627   0.173   2.640   4.510  1.2935 -1.4721  0.7965
10845SOL    HW238628   0.037   2.669   4.568  0.0951 -3.0893 -1.0760
10846SOL     OW38629   8.708   6.999   8.232 -0.2795 -0.4069 -0.1112
10846SOL    HW138630   8.704   7.057   8.155  1.7867  0.6814  0.5264
10846SOL    HW238631   8.801   6.979   8.242 -0.2311  0.8070  3.0196
10847SOL     OW38632   9.625  10.102   2.137  0.5502  0.7930  0.0140
10847SOL    HW138633   9.677  10.065   2.208  2.8593  2.1925 -0.8109
10847SOL    HW238634   9.602  10.190   2.169  0.4976  0.9486 -0.4532
10848SOL     OW38635   0.006   0.994   7.290  0.1830 -0.1263  0.2315
10848SOL    HW138636   0.087   1.014   7.242  0.4010 -0.3126  0.5192
10848SOL    HW238637  -0.044   1.076   7.288  1.4912  0.8021  2.2635
10849SOL     OW38638   3.056   5.170  10.189  0.1864 -0.1112  0.1653
10849SOL    HW138639   3.060   5.230  10.264 -0.7901 -0.9080  0.8872
10849SOL    HW238640   3.144   5.133  10.182  0.3432  0.1317  0.7862
10850SOL     OW38641   9.491   7.937   4.483 -0.0733  0.4742  0.3302
10850SOL    HW138642   9.410   7.886   4.490 -0.1202  0.3924 -0.6667
10850SOL    HW238643   9.465   8.026   4.509 -0.0502  0.0677  1.8051
10851SOL     OW38644  10.326   8.382   5.872  0.0054  0.1656 -0.1994
10851SOL    HW138645  10.341   8.304   5.927 -0.6073  0.1171 -0.0948
10851SOL    HW238646  10.398   8.380   5.809  0.5359  0.0355  0.3907
10852SOL     OW38647   0.416   0.828   7.373  0.2340  0.5874  0.1117
10852SOL    HW138648   0.443   0.742   7.341 -0.0749  0.7829 -0.6896
10852SOL    HW238649   0.477   0.889   7.332  0.7340  0.7228  1.0242
10853SOL     OW38650   4.777   1.526   1.569  0.1339 -0.2809 -0.4306
10853SOL    HW138651   4.857   1.474   1.577  0.9360  0.5512 -2.3024
10853SOL    HW238652   4.706   1.463   1.575  1.0095 -1.3100 -0.6085
10854SOL     OW38653   4.325  10.931   6.093  0.0018 -0.2626 -0.1484
10854SOL    HW138654   4.350  10.838   6.087 -3.2967 -1.3855  1.4199
10854SOL    HW238655   4.238  10.935   6.054 -0.6569  1.8443  1.3791
10855SOL     OW38656   5.111   1.805   3.518  0.1966  0.0085  0.1511
10855SOL    HW138657   5.056   1.757   3.456 -0.6201 -0.5616  1.2844
10855SOL    HW238658   5.182   1.840   3.464 -0.3240 -0.7138 -1.0552
10856SOL     OW38659   9.024   1.747   2.388 -0.2245  0.4160 -0.1625
10856SOL    HW138660   8.970   1.776   2.315 -0.5086  0.6752  0.1482
10856SOL    HW238661   9.083   1.682   2.349 -2.3804 -1.7767 -0.0718
10857SOL     OW38662   0.906   7.094   5.138 -0.4297 -0.3194 -0.4193
10857SOL    HW138663   0.873   7.173   5.180  1.0279  0.1213 -0.0510
10857SOL    HW238664   0.947   7.125   5.057 -0.3534 -0.7683 -0.5563
10858SOL     OW38665   8.691   2.756   5.532  0.0748 -0.4466 -0.4839
10858SOL    HW138666   8.708   2.850   5.535 -0.3333 -0.3972  1.0690
10858SOL    HW238667   8.596   2.749   5.541 -0.0369 -0.9743 -1.9171
10859SOL     OW38668   3.712   5.427   6.939  0.1544  0.1244 -0.2477
10859SOL    HW138669   3.749   5.509   6.907  0.2493  0.8027  1.4714
10859SOL    HW238670   3.636   5.454   6.991  0.6968 -0.7780  1.0727
10860SOL     OW38671   6.369   4.360   8.610 -0.3329 -0.4508  0.1604
10860SOL    HW138672   6.464   4.360   8.606 -0.3452 -0.0353 -0.2654
10860SOL    HW238673   6.346   4.271   8.637  0.1408 -0.8545 -0.7190
10861SOL     OW38674   1.926   6.577  10.867  0.0391 -0.2916 -0.5548
10861SOL    HW138675   1.893   6.526  10.793  1.9719  1.4959 -2.8572
10861SOL    HW238676   1.902   6.667  10.847  1.6055  0.3854  0.3653
10862SOL     OW38677   1.732   5.735   8.372 -0.2514  0.4816  0.1958
10862SOL    HW138678   1.753   5.824   8.345  0.2058  0.3559  0.1421
10862SOL    HW238679   1.815   5.689   8.372 -0.6142 -0.2064 -0.7294
10863SOL     OW38680   3.316   1.139   6.481  0.0853 -0.1232  0.1581
10863SOL    HW138681   3.306   1.051   6.443 -0.4221  1.0489 -2.6473
10863SOL    HW238682   3.330   1.123   6.574 -1.4566 -3.1221 -0.0023
10864SOL     OW38683   3.425   5.156   0.021 -0.4876  0.3697  1.0695
10864SOL    HW138684   3.356   5.213   0.055 -0.7542  0.0391  1.0883
10864SOL    HW238685   3.398   5.068   0.047  0.8395  0.3801  2.6327
10865SOL     OW38686   0.436  10.181   3.088  0.0274  0.0323  0.0890
10865SOL    HW138687   0.490  10.154   3.161  2.4639 -1.8319 -2.1924
10865SOL    HW238688   0.488  10.248   3.043 -1.1473  0.7269 -0.2883
10866SOL     OW38689   3.281   9.562   1.350  0.3851 -0.5164  0.5418
10866SOL    HW138690   3.254   9.506   1.277 -0.8241  0.3377  0.3079
10866SOL    HW238691   3.221   9.541   1.421  0.6610 -0.3397  0.8334
10867SOL     OW38692  10.833   8.136   0.363  0.0173  0.1077  0.6485
10867SOL    HW138693  10.823   8.226   0.392 -1.9426  0.0721  0.2740
10867SOL    HW238694  10.752   8.093   0.391 -0.6322 -0.6646 -2.0780
10868SOL     OW38695   6.206   5.562   4.257 -0.2151  0.6264 -0.3693
10868SOL    HW138696   6.188   5.468   4.266  2.2829  0.1560  0.5233
10868SOL    HW238697   6.243   5.571   4.170  1.7157  0.3070  0.3586
10869SOL     OW38698   1.141   5.593   8.250 -0.8950 -0.1172  0.1059
10869SOL    HW138699   1.186   5.670   8.284 -0.7539  0.1706 -0.7194
10869SOL    HW238700   1.156   5.595   8.156 -2.2653 -0.2662 -0.1383
10870SOL     OW38701   1.004   9.926   0.998 -0.4136 -0.3283 -0.1443
10870SOL    HW138702   0.920   9.880   0.999 -0.6815  0.1174  1.7474
10870SOL    HW238703   1.000   9.985   1.073  1.0688  0.6959 -0.8168
10871SOL     OW38704   4.475   5.688  10.590 -0.0626 -0.2077  0.0689
10871SOL    HW138705   4.521   5.719  10.512 -1.5701 -1.3308 -1.3395
10871SOL    HW238706   4.471   5.593  10.580  1.2458 -0.5957  2.4526
10872SOL     OW38707   6.475   4.872   7.133 -0.4522  0.6409 -0.0682
10872SOL    HW138708   6.476   4.782   7.166  1.6417  0.3611 -0.7703
10872SOL    HW238709   6.490   4.864   7.039 -3.9117  1.5746 -0.8765
10873SOL     OW38710   3.492   2.173   0.920  0.5212  0.6868 -0.1925
10873SOL    HW138711   3.441   2.097   0.946  2.0432  0.8142  3.9463
10873SOL    HW238712   3.427   2.236   0.889 -1.1008 -1.1349 -0.6750
10874SOL     OW38713   9.237   3.203   9.351 -0.1874 -0.3563  0.1705
10874SOL    HW138714   9.222   3.108   9.346 -0.2542 -0.3605  0.4432
10874SOL    HW238715   9.150   3.240   9.361 -0.1522 -0.2714  0.1596
10875SOL     OW38716   4.047   6.671   1.313 -0.1339 -0.2822  0.0813
10875SOL    HW138717   4.094   6.599   1.355 -0.4141 -0.2987  0.3735
10875SOL    HW238718   3.990   6.628   1.248  0.2574 -0.2610 -0.2810
10876SOL     OW38719   9.840   1.426   3.731 -0.4336  0.0286 -0.3700
10876SOL    HW138720   9.785   1.447   3.655 -0.0263  0.0752 -0.6545
10876SOL    HW238721   9.907   1.494   3.732 -0.0370 -0.3550 -0.3689
10877SOL     OW38722   4.681   3.627   7.172  0.6429 -0.0313 -0.1599
10877SOL    HW138723   4.693   3.689   7.101 -0.3795  0.5267  0.1303
10877SOL    HW238724   4.597   3.585   7.152  0.4345  0.0053  0.6147
10878SOL     OW38725   8.404   7.302   8.682 -0.2746 -0.1602 -0.4548
10878SOL    HW138726   8.347   7.225   8.688  0.9294 -0.9422  2.2778
10878SOL    HW238727   8.493   7.268   8.694  0.5012  1.4296 -1.3049
10879SOL     OW38728   9.491   5.053   2.171  0.4125 -0.1087  0.0165
10879SOL    HW138729   9.448   5.100   2.242  3.5931  1.7512  0.9133
10879SOL    HW238730   9.439   5.074   2.093 -1.7855 -0.2584  1.3665
10880SOL     OW38731   6.432   6.786   4.591 -0.1791  0.1805  0.3427
10880SOL    HW138732   6.409   6.740   4.511 -0.1808  0.7151  0.0298
10880SOL    HW238733   6.387   6.870   4.584 -0.3712  0.1391  1.0135
10881SOL     OW38734   4.075   0.717   2.628 -0.5845  0.5192  0.3728
10881SOL    HW138735   4.000   0.692   2.574 -0.4707 -0.7826  0.7999
10881SOL    HW238736   4.049   0.801   2.667 -0.7596  1.3848 -1.4887
10882SOL     OW38737   2.511   9.112  10.374  0.2140  0.1678  0.2251
10882SOL    HW138738   2.538   9.124  10.283 -0.1841 -0.4926  0.0083
10882SOL    HW238739   2.429   9.161  10.381 -0.8151 -1.3654 -0.3475
10883SOL     OW38740   6.208   5.705   3.610  0.0880  0.1762  0.5403
10883SOL    HW138741   6.223   5.798   3.630 -1.3140  0.0112  2.5463
10883SOL    HW238742   6.196   5.704   3.515  1.4197  1.8394  0.2940
10884SOL     OW38743   2.518  10.819   8.221  0.4200 -0.5120  0.1069
10884SOL    HW138744   2.520  10.849   8.312  1.2509 -1.2813  0.3521
10884SOL    HW238745   2.513  10.724   8.227  1.4425 -0.6277 -0.6434
10885SOL     OW38746   5.203   6.315   0.471 -0.0682 -0.0097 -0.4250
10885SOL    HW138747   5.188   6.406   0.443  1.7988  0.4103 -0.2143
10885SOL    HW238748   5.125   6.268   0.443 -0.7334  1.5088 -1.2453
10886SOL     OW38749   2.058   6.609  10.238 -0.4976 -0.2049  0.3719
10886SOL    HW138750   2.062   6.660  10.318  2.7041 -0.6156  0.6158
10886SOL    HW238751   1.967   6.615  10.209 -1.0758  2.3891  2.4181
10887SOL     OW38752   9.172  10.263  10.460 -0.4353 -0.3204  0.2739
10887SOL    HW138753   9.228  10.236  10.533  1.0089  1.8000  0.0236
10887SOL    HW238754   9.180  10.192  10.396 -0.1981 -1.3026  1.3573
10888SOL     OW38755   3.478   5.433   1.339  0.5994 -0.1104  0.9557
10888SOL    HW138756   3.475   5.519   1.382  1.6911 -0.1831  1.2020
10888SOL    HW238757   3.552   5.440   1.278  0.2571 -0.6510  0.4775
10889SOL     OW38758   7.314   9.351   1.214  0.8243  0.2527 -0.3357
10889SOL    HW138759   7.249   9.373   1.148 -1.1591  1.3168  1.8200
10889SOL    HW238760   7.266   9.301   1.280  2.1795  1.0332  1.3326
10890SOL     OW38761   1.613   8.525   7.895  0.2296  0.1330 -0.2222
10890SOL    HW138762   1.582   8.486   7.813  2.2480 -0.4821 -0.7531
10890SOL    HW238763   1.574   8.472   7.964  0.0884 -0.5876 -0.8514
10891SOL     OW38764   3.355   0.507  10.891  0.3583 -0.4425 -0.1988
10891SOL    HW138765   3.298   0.569  10.844 -1.4084 -1.7785  0.0636
10891SOL    HW238766   3.434   0.501  10.838  0.0379  1.0521 -0.8984
10892SOL     OW38767   5.987   4.735  10.137  0.5770 -0.1063 -0.4860
10892SOL    HW138768   5.948   4.648  10.144 -1.6581  0.9390  1.0686
10892SOL    HW238769   5.937   4.779  10.069  0.6768  0.4685 -0.1931
10893SOL     OW38770   8.364   1.458   6.358  0.2684 -0.0425  0.3262
10893SOL    HW138771   8.308   1.414   6.421 -1.8316  0.0130 -1.4041
10893SOL    HW238772   8.412   1.387   6.315  0.5910 -0.2002  0.9394
10894SOL     OW38773   1.511   6.168   7.068 -0.7639  0.0143 -0.0778
10894SOL    HW138774   1.496   6.213   6.984 -2.1379 -2.3187 -1.2007
10894SOL    HW238775   1.508   6.075   7.045 -0.6591 -0.6828  2.5138
10895SOL     OW38776   9.118   9.729   2.626  0.0195 -0.0160 -0.0191
10895SOL    HW138777   9.095   9.769   2.542 -0.8603 -0.9663 -0.2545
10895SOL    HW238778   9.209   9.703   2.617 -0.2472 -0.6805 -0.9203
10896SOL     OW38779   7.032   5.409   0.852  0.2624 -0.0479  0.1430
10896SOL    HW138780   7.055   5.468   0.781  1.6439  0.0112  0.6039
10896SOL    HW238781   7.067   5.451   0.931  0.7455 -1.1632  0.5556
10897SOL     OW38782   1.469   6.576   2.360 -0.3899  0.0690  0.2788
10897SOL    HW138783   1.561   6.573   2.388 -0.2476  1.3299 -0.0200
10897SOL    HW238784   1.450   6.669   2.351 -1.3789 -0.2215 -0.7372
10898SOL     OW38785   9.594   4.273   0.585  0.1738  0.4010 -0.5042
10898SOL    HW138786   9.587   4.335   0.658 -1.8630  0.7537 -0.9486
10898SOL    HW238787   9.547   4.315   0.513 -0.4832 -1.2633 -1.0856
10899SOL     OW38788   1.170   2.060   8.118 -0.4874 -0.0046 -0.0190
10899SOL    HW138789   1.263   2.043   8.103 -0.6064 -1.3614  0.6333
10899SOL    HW238790   1.160   2.060   8.213 -1.4645 -1.8672 -0.0801
10900SOL     OW38791   4.550   8.264   4.323  0.6175  0.2647 -0.1358
10900SOL    HW138792   4.536   8.358   4.336  0.5384  0.1448  0.6875
10900SOL    HW238793   4.481   8.222   4.375  0.8201 -0.2544 -0.2799
10901SOL     OW38794   8.018   2.998   8.938  0.7291 -0.3753 -0.3758
10901SOL    HW138795   7.989   2.908   8.922 -1.2158  0.1409 -0.0161
10901SOL    HW238796   7.961   3.051   8.883  0.5734  0.7686  0.8555
10902SOL     OW38797   2.955   3.893   1.739 -0.4977 -0.2155 -0.2347
10902SOL    HW138798   2.901   3.912   1.662 -0.9260 -0.2951  0.0406
10902SOL    HW238799   2.921   3.810   1.772 -0.3341 -0.1678  0.0573
10903SOL     OW38800   9.693   7.043   0.078  0.1671 -0.2968 -0.0721
10903SOL    HW138801   9.787   7.024   0.077 -0.1254 -1.9169 -0.1260
10903SOL    HW238802   9.669   7.049  -0.015  0.4322  1.4493 -0.0563
10904SOL     OW38803   6.196   3.331  10.017 -0.1592 -0.4237 -0.1058
10904SOL    HW138804   6.148   3.390   9.959  0.5774 -1.8493 -2.2786
10904SOL    HW238805   6.283   3.370  10.024 -0.1328 -0.4534 -0.2709
10905SOL     OW38806   8.241  10.499   6.996  0.2323  0.0834 -0.1038
10905SOL    HW138807   8.222  10.414   6.957 -2.2261  0.8986 -0.8778
10905SOL    HW238808   8.299  10.543   6.934  0.9611 -0.7500 -0.0244
10906SOL     OW38809   7.493   7.317  10.663  0.6840  0.5340  0.8869
10906SOL    HW138810   7.457   7.369  10.734  1.3653  0.7970  1.0509
10906SOL    HW238811   7.568   7.368  10.632 -2.0450  2.8238 -3.0264
10907SOL     OW38812   6.845   8.677   4.660 -0.1157  0.1023  0.3370
10907SOL    HW138813   6.857   8.762   4.618  1.0468 -0.6684 -0.9800
10907SOL    HW238814   6.900   8.681   4.738  0.2022  0.4348  0.0983
10908SOL     OW38815   5.045   3.031   8.291 -0.4247  0.0243 -0.1380
10908SOL    HW138816   5.040   3.072   8.204 -0.4268  3.5141  1.3570
10908SOL    HW238817   5.074   3.101   8.349  0.7769 -2.4898  2.5530
10909SOL     OW38818   4.922   2.053   7.052  0.2837 -0.1601 -0.2420
10909SOL    HW138819   4.974   2.038   6.972  0.1316 -0.5350 -0.2709
10909SOL    HW238820   4.837   2.014   7.032  0.3972 -0.6831  0.2857
10910SOL     OW38821   1.615   1.839   2.226  0.0727 -0.1493 -0.0362
10910SOL    HW138822   1.652   1.879   2.148  1.0305  0.7319  0.8286
10910SOL    HW238823   1.524   1.867   2.228  0.6985  2.0643  0.5296
10911SOL     OW38824   8.110  10.804   8.928  0.0798  0.1042  0.1151
10911SOL    HW138825   8.091  10.863   9.001  0.3847  0.0690  0.2223
10911SOL    HW238826   8.109  10.862   8.851 -0.0708  0.1702  0.1644
10912SOL     OW38827   7.143   1.948   0.248 -0.5641  0.0611 -0.6929
10912SOL    HW138828   7.156   1.853   0.252 -0.7109  0.0839  1.2057
10912SOL    HW238829   7.227   1.985   0.274 -1.4166  0.3500  1.9619
10913SOL     OW38830   6.304   2.553   1.970  0.3382 -0.0042 -0.6042
10913SOL    HW138831   6.266   2.587   2.051  1.2682 -0.2721 -0.0491
10913SOL    HW238832   6.370   2.618   1.945 -0.8695  0.7752 -1.9036
10914SOL     OW38833   9.599  10.631  10.867 -0.5878  0.0739  0.0536
10914SOL    HW138834   9.523  10.648  10.812 -1.7280 -1.8194  0.9358
10914SOL    HW238835   9.613  10.537  10.860  1.3469  0.3096  0.3576
10915SOL     OW38836   5.659   6.061   4.986 -0.4610  0.2280  0.7544
10915SOL    HW138837   5.709   6.019   4.916  1.5634  1.5897  1.2891
10915SOL    HW238838   5.645   5.991   5.050  0.7324 -0.2353  0.5460
10916SOL     OW38839   0.534   8.725   2.622 -0.6829  0.1303  0.2468
10916SOL    HW138840   0.563   8.683   2.703  0.4696  0.2020 -0.1160
10916SOL    HW238841   0.508   8.813   2.648  0.1447  0.3138  0.4714
10917SOL     OW38842   3.459   5.868   5.376 -0.1594 -0.4136 -0.0824
10917SOL    HW138843   3.386   5.878   5.436 -0.1206 -0.3265 -0.0482
10917SOL    HW238844   3.522   5.813   5.423 -1.5562 -3.2867 -1.3499
10918SOL     OW38845   1.089   7.173   5.626 -0.0985  0.5529 -0.0439
10918SOL    HW138846   1.053   7.235   5.690  0.9462  0.3089  0.7975
10918SOL    HW238847   1.074   7.087   5.664  0.3720  0.3932 -0.2132
10919SOL     OW38848   2.996   7.164   8.044 -0.0172  0.1678  0.2280
10919SOL    HW138849   3.055   7.239   8.037 -0.3629  0.7692  2.7176
10919SOL    HW238850   3.037   7.108   8.109 -1.3848 -0.1772  0.8345
10920SOL     OW38851   5.976   9.807   7.829 -0.1346 -0.0500 -0.0684
10920SOL    HW138852   6.030   9.780   7.754 -0.4768 -0.5097 -0.1541
10920SOL    HW238853   5.894   9.759   7.818 -1.3127  2.0287 -0.9650
10921SOL     OW38854   2.382   3.530   8.627  0.0134  0.5628 -0.1622
10921SOL    HW138855   2.464   3.545   8.580  0.2655 -0.4199 -0.0645
10921SOL    HW238856   2.379   3.435   8.640 -0.5924  0.7054  0.8437
10922SOL     OW38857   4.034   7.452   9.760  0.1501 -0.0602  0.0957
10922SOL    HW138858   3.966   7.430   9.696  0.3168  1.9798 -0.8588
10922SOL    HW238859   4.107   7.394   9.736 -0.1894 -0.1327 -0.8279
10923SOL     OW38860   5.156  10.592   7.257  0.5734  0.1277 -0.4466
10923SOL    HW138861   5.061  10.583   7.264  0.3830  2.1889  0.5148
10923SOL    HW238862   5.180  10.542   7.180 -1.2577 -0.6361 -0.5651
10924SOL     OW38863   9.367   7.443  10.117 -0.1404  0.1047 -0.0371
10924SOL    HW138864   9.358   7.448  10.212 -0.1855 -2.2513  0.1552
10924SOL    HW238865   9.450   7.485  10.098 -0.8858  2.0982  0.8020
10925SOL     OW38866   2.399   1.346  10.282  0.1586 -0.6019  0.6966
10925SOL    HW138867   2.375   1.343  10.374  0.2502 -0.6518  0.7190
10925SOL    HW238868   2.327   1.301  10.237 -0.4068  0.3360  0.6286
10926SOL     OW38869   4.172   7.287   8.177  0.2315  0.8607 -0.9407
10926SOL    HW138870   4.134   7.293   8.265  1.1637  0.1509 -0.4643
10926SOL    HW238871   4.126   7.353   8.126 -0.8464  0.7804 -0.1096
10927SOL     OW38872   3.564   7.853   1.517  0.6272  0.2002 -0.3450
10927SOL    HW138873   3.476   7.834   1.484  0.5993  0.8913 -0.6759
10927SOL    HW238874   3.599   7.767   1.541 -0.3764 -0.0180  0.4121
10928SOL     OW38875   1.496   3.794   4.371  0.2693 -0.2249 -0.5349
10928SOL    HW138876   1.499   3.718   4.313  1.1822 -1.7249  1.3669
10928SOL    HW238877   1.414   3.784   4.420  0.4985 -0.1059 -0.1230
10929SOL     OW38878   9.124   6.947   9.859 -0.2206 -0.9969  0.2564
10929SOL    HW138879   9.106   6.988   9.774  0.0139  1.7753  1.4207
10929SOL    HW238880   9.051   6.887   9.873 -0.3873 -1.3444 -1.7718
10930SOL     OW38881   9.928   4.845   7.907  0.2419  0.0695 -0.3884
10930SOL    HW138882   9.985   4.789   7.959  0.5778 -0.1150 -0.9472
10930SOL    HW238883   9.842   4.836   7.949  0.5925  0.2605  0.3836
10931SOL     OW38884  10.857   3.875   2.029 -0.1306 -0.1181  0.3024
10931SOL    HW138885  10.818   3.917   1.952 -0.8080  1.7928  1.6168
10931SOL    HW238886  10.940   3.841   1.997 -0.5232  0.3602 -1.3573
10932SOL     OW38887   3.653   5.425   0.227 -0.1873 -0.0552  0.5307
10932SOL    HW138888   3.618   5.379   0.303  0.6437 -0.5487  0.6249
10932SOL    HW238889   3.743   5.393   0.219 -0.1509  0.2731 -0.4376
10933SOL     OW38890   8.867   2.982   2.196 -0.0940  0.0239 -0.6666
10933SOL    HW138891   8.834   2.930   2.269 -0.4772  2.2248  0.8216
10933SOL    HW238892   8.813   2.955   2.121 -1.9642  0.0571  0.6100
10934SOL     OW38893   2.749  10.400   5.681  0.1790 -0.3629 -0.1492
10934SOL    HW138894   2.742  10.472   5.619 -0.5433  0.8251  1.2640
10934SOL    HW238895   2.659  10.372   5.697  0.3926 -0.9907  0.0038
10935SOL     OW38896   6.919   7.969   5.380  0.9967  0.4807  0.3414
10935SOL    HW138897   6.829   7.951   5.406  1.2622  0.3827  1.2150
10935SOL    HW238898   6.955   7.884   5.358 -0.2521  0.8179 -3.9711
10936SOL     OW38899   6.230   0.316   8.367 -0.6073 -0.0948  0.2869
10936SOL    HW138900   6.213   0.278   8.281  2.6940 -1.6279  0.1465
10936SOL    HW238901   6.263   0.404   8.349 -1.7975  0.3531  0.1791
10937SOL     OW38902   3.255   3.818   7.104 -0.5338  0.2882  0.4847
10937SOL    HW138903   3.241   3.809   7.010  0.2736 -2.3801  0.5357
10937SOL    HW238904   3.191   3.759   7.143  2.5820 -2.8930  1.2621
10938SOL     OW38905   2.257   3.207   1.964 -0.2489  0.2332 -0.1070
10938SOL    HW138906   2.290   3.201   1.874 -0.5875  1.9370 -0.3827
10938SOL    HW238907   2.333   3.231   2.016 -0.4225  1.1545 -0.2616
10939SOL     OW38908   4.883   7.183   5.767 -0.8080  0.3359  0.2889
10939SOL    HW138909   4.816   7.156   5.704 -0.7516  0.0892  0.3309
10939SOL    HW238910   4.915   7.267   5.734 -2.4407  1.4047  1.2658
10940SOL     OW38911   9.790   7.706   4.190  0.1218  0.2503 -0.1784
10940SOL    HW138912   9.696   7.727   4.187  0.0262 -0.2157 -0.5468
10940SOL    HW238913   9.819   7.712   4.099  0.0398 -1.3807 -0.3492
10941SOL     OW38914   2.530   0.185   5.429  0.3448  0.7516  0.0816
10941SOL    HW138915   2.541   0.125   5.503  1.3317 -0.1398 -0.7443
10941SOL    HW238916   2.520   0.271   5.469  0.3599  0.2272  1.2625
10942SOL     OW38917   5.429   8.234   6.714  0.0190 -0.1002 -0.4926
10942SOL    HW138918   5.517   8.269   6.700  0.2816 -0.7161 -0.3879
10942SOL    HW238919   5.415   8.241   6.809 -0.3004  0.5941 -0.5845
10943SOL     OW38920   1.223   8.733   1.749 -0.4836 -0.0027  0.0649
10943SOL    HW138921   1.235   8.647   1.709 -0.2346  0.5135 -1.0213
10943SOL    HW238922   1.294   8.741   1.812 -2.1770 -1.7599  2.3796
10944SOL     OW38923   4.963   0.287   3.989 -0.0674 -0.5259  0.4949
10944SOL    HW138924   4.895   0.232   4.028 -1.1678  0.1890 -0.3690
10944SOL    HW238925   4.958   0.269   3.895  3.5540 -3.3807  0.6169
10945SOL     OW38926   0.694  10.324   5.381 -0.5128  0.2729 -0.0302
10945SOL    HW138927   0.781  10.288   5.363 -0.4919  0.8721 -1.2690
10945SOL    HW238928   0.645  10.251   5.419  0.1004 -0.4992 -0.6841
10946SOL     OW38929   2.129   4.760   9.947 -0.2146  0.1169 -0.0284
10946SOL    HW138930   2.199   4.823   9.961 -1.2005  1.5016 -0.9842
10946SOL    HW238931   2.136   4.737   9.854  1.1058 -2.4710  0.6279
10947SOL     OW38932   8.146   2.733   8.675 -0.4024 -0.0743  0.5131
10947SOL    HW138933   8.130   2.826   8.687 -0.0208  0.0545  0.0413
10947SOL    HW238934   8.226   2.728   8.623 -1.4633 -0.6235 -1.1516
10948SOL     OW38935   9.011   5.543   9.767 -0.0291 -0.1158  0.0470
10948SOL    HW138936   9.058   5.461   9.782  0.6048  0.3859  0.8871
10948SOL    HW238937   9.060   5.608   9.816 -1.3532  0.5162  0.5939
10949SOL     OW38938   3.141   9.752   9.922  0.2537 -0.3329 -0.5954
10949SOL    HW138939   3.069   9.740   9.983  0.6124 -1.7916 -0.4179
10949SOL    HW238940   3.184   9.667   9.918  0.9201  0.0280 -2.0275
10950SOL     OW38941  10.880   8.419   1.418 -0.4634 -0.4470  0.0441
10950SOL    HW138942  10.935   8.408   1.495 -0.7839  0.5086  0.4262
10950SOL    HW238943  10.792   8.436   1.454 -0.5417  0.3908 -0.5127
10951SOL     OW38944   5.745   8.487   3.237 -0.2730 -0.4056 -0.4767
10951SOL    HW138945   5.815   8.446   3.287 -0.9029 -1.7302 -0.6359
10951SOL    HW238946   5.780   8.495   3.148  0.7004  1.5843  0.0540
10952SOL     OW38947  10.107   0.954   4.207  0.7122  0.3475 -0.2129
10952SOL    HW138948  10.015   0.968   4.185  0.5110 -0.3248  0.1705
10952SOL    HW238949  10.121   0.860   4.194  0.3202 -0.3480  3.2986
10953SOL     OW38950  10.195   8.763   6.781 -0.0541  0.4078  0.3425
10953SOL    HW138951  10.191   8.838   6.722  3.1981  0.5190  0.0830
10953SOL    HW238952  10.129   8.702   6.748  0.2023  1.3642 -2.1118
10954SOL     OW38953   1.892   3.014   7.771  0.3836  0.2340 -0.0470
10954SOL    HW138954   1.903   2.968   7.855 -0.2567 -0.0986 -0.1375
10954SOL    HW238955   1.932   2.956   7.706  0.7102  0.4044 -0.0041
10955SOL     OW38956   6.714   4.901   8.652  0.7770  0.0274 -0.1969
10955SOL    HW138957   6.684   4.833   8.713 -1.7179  0.0606 -1.2408
10955SOL    HW238958   6.741   4.974   8.708 -0.5108 -0.2996  0.9048
10956SOL     OW38959   5.519   3.697  10.383  0.3167 -0.1921 -0.0934
10956SOL    HW138960   5.501   3.650  10.302 -1.5903  0.7139 -0.2385
10956SOL    HW238961   5.611   3.721  10.376  1.0672 -2.8172 -0.5392
10957SOL     OW38962   5.238   5.928   5.426 -0.2873  0.3169 -0.0383
10957SOL    HW138963   5.182   6.004   5.420 -0.9141 -0.1259  0.0938
10957SOL    HW238964   5.315   5.958   5.474 -0.2606  1.0078 -0.4993
10958SOL     OW38965   2.247   6.404   5.148 -0.4944 -0.5898 -0.0468
10958SOL    HW138966   2.324   6.460   5.147 -0.8407 -0.1016 -0.0910
10958SOL    HW238967   2.243   6.369   5.237 -0.7447  0.1361  0.2378
10959SOL     OW38968   1.703   3.465   4.844  0.4065  0.1005 -0.6485
10959SOL    HW138969   1.794   3.473   4.872  0.9618 -0.0005 -2.3168
10959SOL    HW238970   1.703   3.393   4.781 -1.4300 -2.0264  1.5853
10960SOL     OW38971   7.428   1.783  10.031  0.3448 -0.5243 -0.4239
10960SOL    HW138972   7.451   1.851   9.968  1.7014 -0.9522 -0.4113
10960SOL    HW238973   7.500   1.721  10.026 -0.6374 -1.7137 -0.0738
10961SOL     OW38974   6.684   2.813   8.222 -0.0336 -0.6343 -1.0337
10961SOL    HW138975   6.742   2.842   8.293  0.7239  0.4087 -2.0353
10961SOL    HW238976   6.742   2.766   8.162 -0.2986  0.0159 -1.8148
10962SOL     OW38977   4.260   3.443   7.330  0.2364  0.7690  0.1787
10962SOL    HW138978   4.224   3.461   7.418 -0.0928  0.1895  0.1721
10962SOL    HW238979   4.182   3.438   7.274  0.4376  0.9937 -0.1179
10963SOL     OW38980   7.068   3.582   9.677  0.3806  0.0205 -0.4299
10963SOL    HW138981   7.143   3.622   9.722 -0.0023 -0.2099  0.4417
10963SOL    HW238982   7.038   3.514   9.738 -0.6050  0.1887 -0.7214
10964SOL     OW38983   5.381   2.503   6.663  0.6996 -0.2305 -0.0538
10964SOL    HW138984   5.454   2.492   6.601  1.4765 -0.7360  0.9343
10964SOL    HW238985   5.324   2.567   6.620  2.2647  1.0324 -0.3624
10965SOL     OW38986   6.343   3.401   7.916 -0.1167  0.3341 -0.0376
10965SOL    HW138987   6.319   3.310   7.899  0.6963  0.2976 -1.1192
10965SOL    HW238988   6.316   3.417   8.006  0.5439 -1.2373  0.4633
10966SOL     OW38989   3.703   5.817   6.155  0.3253 -0.2976  0.3275
10966SOL    HW138990   3.706   5.910   6.176  2.8022 -0.2365  0.0262
10966SOL    HW238991   3.705   5.814   6.059  0.7219 -0.6352  0.3402
10967SOL     OW38992   5.499   8.004   3.577 -0.1935  0.1113  0.2361
10967SOL    HW138993   5.556   8.065   3.623  1.5606 -0.4337 -1.0985
10967SOL    HW238994   5.488   8.043   3.490  0.4922 -1.1679 -0.4522
10968SOL     OW38995   8.771   4.185   8.768 -0.0469  0.1362 -0.1574
10968SOL    HW138996   8.757   4.210   8.677 -0.5685 -0.9227 -0.3831
10968SOL    HW238997   8.735   4.259   8.819  0.3492  0.7795 -0.7977
10969SOL     OW38998   3.386   1.244   8.478  0.1774  0.6664 -0.2079
10969SOL    HW138999   3.410   1.321   8.529  0.7699  0.4425 -0.1481
10969SOL    HW239000   3.329   1.194   8.537 -0.5171  1.2256 -0.3760
10970SOL     OW39001   4.284   6.974   3.897  0.2888 -0.4498 -0.4850
10970SOL    HW139002   4.330   6.932   3.970 -0.5475  0.9780  0.9101
10970SOL    HW239003   4.197   6.993   3.931  0.7716  2.9034 -0.7789
10971SOL     OW39004   2.046   8.967   9.593  0.0276  0.0753  0.2950
10971SOL    HW139005   2.052   8.976   9.688  2.1394 -0.2928  0.2437
10971SOL    HW239006   1.953   8.978   9.574 -0.7293 -1.5549  2.5887
10972SOL     OW39007   7.595   3.528   2.804  0.0645 -0.0930 -0.3494
10972SOL    HW139008   7.507   3.565   2.795  0.4318  0.8293 -0.3144
10972SOL    HW239009   7.621   3.550   2.894  1.5622  2.5572 -1.3155
10973SOL     OW39010   1.231   2.703   8.022 -0.4633 -0.4065 -0.3616
10973SOL    HW139011   1.313   2.665   7.990 -0.9204  0.4962 -2.7862
10973SOL    HW239012   1.253   2.794   8.042 -0.2857 -0.8504  1.6224
10974SOL     OW39013   7.134   8.331   5.262 -0.2008 -0.6091  0.2666
10974SOL    HW139014   7.069   8.304   5.198  0.1348 -0.0680 -0.3077
10974SOL    HW239015   7.089   8.322   5.347 -1.9373  2.1629 -0.2377
10975SOL     OW39016   2.136  10.100   6.984 -0.2356 -0.2884  0.0088
10975SOL    HW139017   2.208  10.097   7.046  0.0824 -1.7659 -0.3941
10975SOL    HW239018   2.070  10.156   7.026  0.6717  0.1592  0.8735
10976SOL     OW39019   0.842   1.230   4.220  0.3047 -0.4488 -0.1266
10976SOL    HW139020   0.921   1.177   4.231 -0.1247 -0.8903  0.9220
10976SOL    HW239021   0.873   1.308   4.173  1.8492  0.4287  2.1468
10977SOL     OW39022   2.917   1.901   6.395  0.1632  0.2377  0.3587
10977SOL    HW139023   2.913   1.852   6.477  3.1461 -0.1044  0.4026
10977SOL    HW239024   2.999   1.951   6.401 -0.6308  1.9116 -1.5159
10978SOL     OW39025   1.678  10.000   6.624  0.0928 -0.7738  0.3666
10978SOL    HW139026   1.604  10.023   6.681 -1.5728 -1.5795 -1.3534
10978SOL    HW239027   1.707   9.914   6.657 -1.1152 -1.4176 -0.1708
10979SOL     OW39028   2.106   7.486   1.779  0.7429  0.1591  0.1540
10979SOL    HW139029   2.068   7.511   1.695  1.0289 -0.8894 -0.3009
10979SOL    HW239030   2.052   7.533   1.844  2.0251  2.9594 -0.6467
10980SOL     OW39031   2.636   6.014   4.789 -0.5039 -0.0244  0.5021
10980SOL    HW139032   2.570   6.049   4.848  0.3016  2.0605  0.2482
10980SOL    HW239033   2.639   6.075   4.716  0.0145 -1.4068 -0.6974
10981SOL     OW39034   8.742   3.683   7.197 -0.1676 -0.0414  0.3901
10981SOL    HW139035   8.692   3.657   7.120 -1.6042  1.3607  0.7878
10981SOL    HW239036   8.725   3.614   7.261 -0.0321 -0.5374 -0.0990
10982SOL     OW39037   4.805   4.255   5.916 -0.4478 -0.6055 -0.2630
10982SOL    HW139038   4.897   4.228   5.914 -0.3538 -0.3030 -0.0931
10982SOL    HW239039   4.760   4.192   5.860 -0.0299 -0.3554 -0.8920
10983SOL     OW39040  10.643   3.976   1.540 -0.1809  0.2330  0.5026
10983SOL    HW139041  10.574   3.910   1.530  0.8432 -0.8520  0.3696
10983SOL    HW239042  10.603   4.058   1.510 -1.2336 -0.4760 -0.0749
10984SOL     OW39043   0.302   3.921  10.611 -0.8291 -0.0169  1.1179
10984SOL    HW139044   0.268   3.963  10.532  1.5508  2.7268  1.4186
10984SOL    HW239045   0.396   3.911  10.595 -0.5815 -1.0819  2.9247
10985SOL     OW39046   3.742   9.195   1.171 -0.1211  1.1212  0.8083
10985SOL    HW139047   3.748   9.161   1.261 -0.5441  2.0191  1.1893
10985SOL    HW239048   3.664   9.154   1.135  0.9283 -0.5058  0.2709
10986SOL     OW39049   4.395   4.194   9.123 -0.1623  0.1905 -0.2108
10986SOL    HW139050   4.337   4.255   9.077 -0.8182 -0.5930 -0.4452
10986SOL    HW239051   4.387   4.218   9.215  0.3559  1.0939 -0.3841
10987SOL     OW39052   2.372   5.676   4.326  0.8379  0.1656  0.4450
10987SOL    HW139053   2.390   5.628   4.407  0.4316 -1.1306 -0.1989
10987SOL    HW239054   2.381   5.768   4.350  1.0838 -0.2047  1.8713
10988SOL     OW39055  10.813   1.148   4.130 -0.0760 -0.4455 -0.9887
10988SOL    HW139056  10.725   1.153   4.092 -0.6021  0.3088  0.2557
10988SOL    HW239057  10.812   1.066   4.181  0.6148 -1.4370 -2.4910
10989SOL     OW39058  10.078   8.688   2.488  0.4591  0.0201 -0.8104
10989SOL    HW139059  10.101   8.617   2.428  0.0293 -0.6781 -0.1639
10989SOL    HW239060  10.162   8.715   2.525  0.5277 -0.7893 -0.3623
10990SOL     OW39061   7.542   2.149   9.084  0.1944  0.2303 -0.6434
10990SOL    HW139062   7.459   2.104   9.067 -1.3186  3.2583 -2.1038
10990SOL    HW239063   7.531   2.186   9.172 -0.1929  0.9476 -0.9864
10991SOL     OW39064   9.395   8.917   5.661  0.3870 -0.5665  0.0536
10991SOL    HW139065   9.389   8.938   5.755 -1.7722  1.1162 -0.3990
10991SOL    HW239066   9.394   8.821   5.658  2.4967 -0.7302  1.8046
10992SOL     OW39067   5.977   7.149   5.973  0.4126  0.2051  0.1478
10992SOL    HW139068   5.939   7.093   6.041  1.3774  1.1062  1.5143
10992SOL    HW239069   6.061   7.108   5.953 -0.5426 -0.9495 -1.7510
10993SOL     OW39070   5.831   7.545   5.878  0.4883 -0.1838  0.3595
10993SOL    HW139071   5.839   7.601   5.801  1.9929  0.0103  0.6261
10993SOL    HW239072   5.810   7.458   5.843 -1.4450  0.3990 -0.0759
10994SOL     OW39073   1.555   0.657   3.475 -0.3228 -0.2309 -0.4529
10994SOL    HW139074   1.525   0.736   3.521  0.6661  0.2432 -0.6168
10994SOL    HW239075   1.482   0.636   3.417 -0.6460  0.4941 -0.3324
10995SOL     OW39076   2.831   5.353   3.498  0.0960 -0.1262  0.6817
10995SOL    HW139077   2.895   5.283   3.508 -1.0843 -1.2154  0.9370
10995SOL    HW239078   2.789   5.335   3.413  0.0696  0.5221  0.5523
10996SOL     OW39079   6.780   9.344   1.942 -0.0422  0.6705 -0.3205
10996SOL    HW139080   6.824   9.338   2.027  0.9874  1.1325 -0.8075
10996SOL    HW239081   6.846   9.382   1.883 -0.8439  0.6539 -1.2525
10997SOL     OW39082   5.782  10.433   1.738  0.6098  0.7043 -0.1713
10997SOL    HW139083   5.741  10.498   1.795 -1.9269  0.5033 -1.5809
10997SOL    HW239084   5.876  10.442   1.754  0.0737  0.9679  3.5864
10998SOL     OW39085  10.152   8.466   6.596  0.1803  0.1423 -0.2855
10998SOL    HW139086  10.148   8.431   6.684 -1.5935 -1.1770 -0.8382
10998SOL    HW239087  10.070   8.514   6.585  0.7084  0.9171 -0.9710
10999SOL     OW39088   4.208   1.799   6.713 -0.0406 -0.3645 -0.2432
10999SOL    HW139089   4.150   1.733   6.674 -1.3922  1.8475 -2.3005
10999SOL    HW239090   4.162   1.827   6.792  0.5480 -1.8153  0.6531
11000SOL     OW39091   4.140   3.108   1.964  0.1879  0.2011 -0.8121
11000SOL    HW139092   4.165   3.185   2.015  0.7678 -0.9575  0.7375
11000SOL    HW239093   4.044   3.106   1.968  0.1970  0.5678 -0.4277
11001SOL     OW39094   4.736  10.055   3.696  0.6424  0.5104  0.0267
11001SOL    HW139095   4.772  10.131   3.741 -0.3821  3.1784 -3.2163
11001SOL    HW239096   4.772  10.060   3.608 -1.0422 -1.6518 -0.8834
11002SOL     OW39097   4.776   9.056   8.702 -0.7639 -0.3688 -0.0765
11002SOL    HW139098   4.830   9.130   8.675 -1.8872 -0.1023 -1.7654
11002SOL    HW239099   4.829   8.979   8.682  0.1735 -0.0673  1.1354
11003SOL     OW39100   5.033   2.776   6.706  0.3017 -0.3042  0.0668
11003SOL    HW139101   5.051   2.740   6.793 -0.6782  1.0506  0.8685
11003SOL    HW239102   4.956   2.728   6.676  0.0925 -0.1430  0.3410
11004SOL     OW39103   6.819   0.815   5.980  0.2451  0.2737  0.1511
11004SOL    HW139104   6.774   0.736   6.010 -0.9338 -0.2914 -2.7869
11004SOL    HW239105   6.750   0.879   5.966  0.8255  0.7887 -0.4371
11005SOL     OW39106   5.555   8.504   2.968 -0.1482 -0.7987  0.1129
11005SOL    HW139107   5.645   8.534   2.953 -0.2238 -1.4931 -2.0954
11005SOL    HW239108   5.561   8.408   2.970 -0.7875 -0.8424  0.3159
11006SOL     OW39109   6.978   9.755   7.789 -0.2570  0.0083  0.6207
11006SOL    HW139110   7.065   9.793   7.785 -0.0751 -0.2926  1.4814
11006SOL    HW239111   6.949   9.751   7.698  0.3255  0.7894  0.3982
11007SOL     OW39112   2.772   9.950  10.529 -0.1439 -0.1414  0.6314
11007SOL    HW139113   2.769  10.046  10.522  0.8673  0.0188  2.0197
11007SOL    HW239114   2.862   9.927  10.507 -0.5513 -0.8654 -0.3532
11008SOL     OW39115   6.574   1.609   4.836 -0.0807 -0.0504 -0.3784
11008SOL    HW139116   6.596   1.529   4.789 -1.3232 -0.1913 -0.7741
11008SOL    HW239117   6.506   1.583   4.898  2.3947 -0.1426  2.5137
11009SOL     OW39118   5.321   4.266   8.066  0.5698 -0.0867 -0.0594
11009SOL    HW139119   5.302   4.348   8.020 -0.2489  0.2520  0.8509
11009SOL    HW239120   5.341   4.293   8.155  0.2260 -0.8803  0.2620
11010SOL     OW39121  10.548   9.674   0.337  0.3391  0.0273 -0.4722
11010SOL    HW139122  10.630   9.719   0.360 -0.2898  0.7092  0.4987
11010SOL    HW239123  10.491   9.743   0.303  0.3351 -0.5415 -1.6961
11011SOL     OW39124   0.190   1.483   2.452  0.0465  0.3034 -0.7448
11011SOL    HW139125   0.195   1.568   2.495  3.0167 -0.3435  0.4133
11011SOL    HW239126   0.113   1.442   2.490  1.8319  0.2550  3.2746
11012SOL     OW39127   7.511   6.659   0.438 -0.0800  0.1431 -0.5785
11012SOL    HW139128   7.531   6.639   0.347 -0.5442 -0.7610 -0.5009
11012SOL    HW239129   7.415   6.664   0.440 -0.0196  1.3231 -0.3630
11013SOL     OW39130   4.762   8.389   5.699  0.0024  0.0436  0.1034
11013SOL    HW139131   4.851   8.391   5.664  0.0483 -1.8810 -0.0007
11013SOL    HW239132   4.706   8.384   5.621 -0.0588 -1.0041  0.1997
11014SOL     OW39133   4.731   5.219   3.765  0.4537 -0.3756  0.0241
11014SOL    HW139134   4.719   5.266   3.847  1.1972  0.0973 -0.1361
11014SOL    HW239135   4.646   5.177   3.750 -0.4631  1.4365 -0.1654
11015SOL     OW39136   6.167   1.870   0.779 -0.3081  0.6062  0.5939
11015SOL    HW139137   6.178   1.930   0.853  0.1669  0.6874  0.4619
11015SOL    HW239138   6.149   1.927   0.705 -1.1529  0.5039  0.7084
11016SOL     OW39139   0.877   2.347   0.571  0.2603 -0.1367  0.3669
11016SOL    HW139140   0.802   2.386   0.526  0.2407  2.2395  2.2735
11016SOL    HW239141   0.839   2.281   0.628 -0.1149 -0.5337 -0.3285
11017SOL     OW39142   4.408   3.114  10.317 -0.7505 -0.4732  0.3207
11017SOL    HW139143   4.313   3.102  10.327 -0.7114 -1.0770  0.0536
11017SOL    HW239144   4.422   3.207  10.332 -1.8795  0.3978 -3.0656
11018SOL     OW39145   7.406   0.540   3.637  0.1277  0.4869 -0.2097
11018SOL    HW139146   7.481   0.573   3.687  0.2196  1.5834 -1.0113
11018SOL    HW239147   7.359   0.619   3.611 -0.3575 -0.0990 -1.1542
11019SOL     OW39148   9.712   3.025   4.635 -0.1369  0.2829  0.0960
11019SOL    HW139149   9.759   3.063   4.709 -0.7086  0.4631  0.3753
11019SOL    HW239150   9.772   3.033   4.561 -0.1291  1.4858  0.2166
11020SOL     OW39151   1.635   6.757   4.785 -0.5398  0.0456 -0.2781
11020SOL    HW139152   1.605   6.675   4.745 -1.6164  0.3061 -0.0379
11020SOL    HW239153   1.730   6.750   4.784 -0.5934 -0.8572 -0.9928
11021SOL     OW39154   8.438   1.884   2.516  0.0786 -0.5848 -0.2040
11021SOL    HW139155   8.441   1.792   2.490 -0.2041 -0.2939 -1.3151
11021SOL    HW239156   8.423   1.932   2.435  2.5124  0.6424 -0.0368
11022SOL     OW39157   5.984   3.202  10.773 -0.2334  0.0624 -0.0114
11022SOL    HW139158   5.983   3.294  10.747  0.4864  0.3613  0.9577
11022SOL    HW239159   5.945   3.156  10.698  0.1968  1.0500 -0.8772
11023SOL     OW39160   9.468  10.568   5.348  0.5602  0.3943  0.2039
11023SOL    HW139161   9.444  10.540   5.437 -0.3914  0.9607  0.1386
11023SOL    HW239162   9.428  10.502   5.291 -0.5278  1.1201  0.1126
11024SOL     OW39163   6.527   8.222   7.427 -0.1273  0.2840  0.1148
11024SOL    HW139164   6.598   8.214   7.490  1.2451  1.6866 -1.1763
11024SOL    HW239165   6.504   8.131   7.406  0.8236 -0.1973  1.0466
11025SOL     OW39166   6.531   9.498   6.136  0.4969  0.2265  0.3321
11025SOL    HW139167   6.460   9.505   6.072  1.4803 -1.4834 -1.0024
11025SOL    HW239168   6.611   9.501   6.085  1.4308  1.4601  1.7597
11026SOL     OW39169   2.577   7.052   4.844 -0.6493 -0.2272  0.3711
11026SOL    HW139170   2.524   7.087   4.772 -0.5953  0.2937  0.5825
11026SOL    HW239171   2.639   6.994   4.800  0.6543  1.5460 -0.2611
11027SOL     OW39172   4.428   5.920   6.915 -0.4491 -0.0414  0.2242
11027SOL    HW139173   4.510   5.900   6.869 -1.1198 -0.3807 -0.8475
11027SOL    HW239174   4.456   5.944   7.003  0.8570  0.5255 -0.3183
11028SOL     OW39175   9.335   9.920   6.953 -0.4034  0.1838  0.1028
11028SOL    HW139176   9.294   9.950   7.034  0.9846  1.3440  0.4077
11028SOL    HW239177   9.333   9.996   6.896  1.0918  0.1933  0.0428
11029SOL     OW39178   4.285   9.673   6.098  0.4859 -0.1928 -0.4063
11029SOL    HW139179   4.229   9.602   6.066  0.5791 -0.5151  0.1226
11029SOL    HW239180   4.349   9.629   6.154 -0.8233  0.5196  1.7579
11030SOL     OW39181  10.003   6.193   9.971  0.1091  0.4782 -0.0127
11030SOL    HW139182  10.089   6.234   9.964  0.5814 -0.7097 -2.3884
11030SOL    HW239183  10.020   6.100   9.952 -1.5823  0.0647  0.3632
11031SOL     OW39184   6.709   1.071  10.178 -0.2502  0.9066 -0.9134
11031SOL    HW139185   6.634   1.043  10.126 -1.4409  2.2677 -0.0451
11031SOL    HW239186   6.684   1.050  10.268  1.8142 -1.5298 -0.7897
11032SOL     OW39187   6.612   8.212  10.155  0.1353 -0.5778  0.0042
11032SOL    HW139188   6.591   8.129  10.196  0.9400 -0.8142 -0.0483
11032SOL    HW239189   6.685   8.193  10.096 -0.3134 -0.0330 -0.7462
11033SOL     OW39190   9.525   5.271   8.041 -0.1815 -0.1977 -0.2138
11033SOL    HW139191   9.546   5.358   8.075  3.2416 -1.7086  2.0360
11033SOL    HW239192   9.445   5.246   8.087 -0.0495  0.9642  0.6952
11034SOL     OW39193   7.268   0.198   2.870  0.8368 -0.6114  0.1314
11034SOL    HW139194   7.292   0.110   2.840  0.9882 -0.9233  1.1269
11034SOL    HW239195   7.337   0.254   2.835  0.5800 -0.8414 -0.7558
11035SOL     OW39196   5.520   0.417  10.512  0.2949 -0.0687  0.2124
11035SOL    HW139197   5.557   0.505  10.514 -0.0814  0.1408 -1.2271
11035SOL    HW239198   5.442   0.423  10.567  1.2438 -0.0058  1.6248
11036SOL     OW39199   2.538  10.608   0.980  0.2416  0.0386 -0.0029
11036SOL    HW139200   2.620  10.596   0.932 -0.6685  0.8790 -1.8832
11036SOL    HW239201   2.565  10.645   1.064  1.7367  1.2281 -0.9491
11037SOL     OW39202  10.027   7.946   8.844 -0.6523 -0.3475  0.3519
11037SOL    HW139203   9.993   7.969   8.757 -1.1576 -1.5368  0.2178
11037SOL    HW239204   9.949   7.926   8.896 -0.3707  0.5457  1.1637
11038SOL     OW39205  10.000   1.263   7.908  0.0535  0.1220  0.0253
11038SOL    HW139206  10.044   1.340   7.943  0.3153  0.5277 -1.1522
11038SOL    HW239207   9.944   1.296   7.838 -1.7323 -0.4556  1.1103
11039SOL     OW39208   6.191   1.533   1.205  0.5729 -0.0411 -0.1585
11039SOL    HW139209   6.104   1.571   1.194 -0.6806 -2.4497  0.7662
11039SOL    HW239210   6.200   1.521   1.300  1.4420 -0.8331 -0.3327
11040SOL     OW39211   7.803   7.610   4.613  0.2644  0.6631 -0.2340
11040SOL    HW139212   7.719   7.648   4.587 -0.5568  0.6000  2.0521
11040SOL    HW239213   7.779   7.535   4.668  1.8046  0.7489  0.6243
11041SOL     OW39214   3.883   4.347   2.573  0.1756  0.1765  0.2427
11041SOL    HW139215   3.869   4.255   2.550  1.8259 -0.4025  1.3747
11041SOL    HW239216   3.929   4.345   2.656  3.1085  1.8894 -1.1647
11042SOL     OW39217   2.512   0.797   8.627  0.3092  0.0783 -0.5005
11042SOL    HW139218   2.584   0.739   8.650 -0.6455 -0.3917  1.5354
11042SOL    HW239219   2.543   0.885   8.648  0.1051 -0.1821  1.0125
11043SOL     OW39220   6.193   9.434   1.128  0.2416  0.0195 -0.2694
11043SOL    HW139221   6.157   9.348   1.146  0.2899 -0.1488 -0.9444
11043SOL    HW239222   6.286   9.419   1.111  0.2279  0.1822 -0.5055
11044SOL     OW39223   8.091   8.461   7.404 -0.2427 -0.1970 -0.3417
11044SOL    HW139224   8.004   8.500   7.414  0.1838  0.6197  0.3715
11044SOL    HW239225   8.119   8.442   7.493  0.0501 -1.0687 -0.6092
11045SOL     OW39226   6.709   4.566   0.644 -0.2270  0.7463 -0.2151
11045SOL    HW139227   6.694   4.472   0.648  0.2971  0.6320 -0.7944
11045SOL    HW239228   6.722   4.593   0.735 -0.6394  0.3119 -0.0238
11046SOL     OW39229   6.081   8.792  10.359  0.8233  0.4891  0.6054
11046SOL    HW139230   6.174   8.770  10.365  0.6824  0.1892  1.9413
11046SOL    HW239231   6.038   8.710  10.336  0.8438  0.5245  0.4411
11047SOL     OW39232   8.913   7.290   1.209  0.4714  0.4744  0.3834
11047SOL    HW139233   8.844   7.353   1.188  0.5914  0.7229  0.7186
11047SOL    HW239234   8.876   7.235   1.277  0.5050  0.4322  0.3674
11048SOL     OW39235   0.171   5.091   0.591  0.4537 -0.2062  0.1137
11048SOL    HW139236   0.235   5.020   0.594 -0.8474 -1.5363 -1.6897
11048SOL    HW239237   0.215   5.165   0.633  1.9389 -1.9755  1.8830
11049SOL     OW39238   6.179   8.924   9.578 -0.0599  0.3464 -0.7071
11049SOL    HW139239   6.211   8.967   9.657  1.5886 -0.1832 -1.0352
11049SOL    HW239240   6.085   8.940   9.578 -0.3651 -0.8496  2.0904
11050SOL     OW39241   4.534   8.915   9.118  0.5132 -0.3784 -0.3861
11050SOL    HW139242   4.464   8.867   9.075  1.2508 -1.8421 -0.0116
11050SOL    HW239243   4.614   8.874   9.087  1.1966  0.8282 -0.2896
11051SOL     OW39244   9.678   3.388   7.182 -0.3306  0.7629 -0.0954
11051SOL    HW139245   9.712   3.452   7.119 -1.2272  0.4927 -0.8567
11051SOL    HW239246   9.650   3.314   7.129 -1.1915  0.5730  0.6131
11052SOL     OW39247   8.827   4.530   2.908  0.1480  0.2186 -0.8007
11052SOL    HW139248   8.915   4.527   2.870  0.7811 -1.9612  0.6182
11052SOL    HW239249   8.836   4.587   2.984  0.8001 -1.1947  0.2362
11053SOL     OW39250   7.869   9.142   1.193  0.4603  0.5099 -0.0306
11053SOL    HW139251   7.838   9.053   1.174 -0.0500  1.0001 -1.6330
11053SOL    HW239252   7.918   9.167   1.115 -0.0210  1.9101  0.0954
11054SOL     OW39253   5.026   5.368   9.824 -0.0377 -0.1426 -0.2966
11054SOL    HW139254   5.100   5.307   9.818  0.3584  0.3572 -0.5915
11054SOL    HW239255   4.953   5.321   9.783  0.7577  0.3104 -2.3452
11055SOL     OW39256   2.969   4.240   7.730  0.4441 -0.1720  0.3165
11055SOL    HW139257   2.962   4.284   7.814 -0.8653 -1.7031  1.0427
11055SOL    HW239258   2.880   4.211   7.710  0.9592 -0.9324 -0.9918
11056SOL     OW39259  10.514  10.046   0.063  0.5489  0.4925 -0.1862
11056SOL    HW139260  10.574  10.089   0.123 -0.7897  0.3432  1.3198
11056SOL    HW239261  10.486  10.114   0.002  1.4161  0.7983 -0.2520
11057SOL     OW39262   1.407   1.052   3.337 -0.3374 -0.0282  0.1760
11057SOL    HW139263   1.410   0.990   3.264  1.1580 -0.4966  0.5837
11057SOL    HW239264   1.498   1.084   3.345 -0.7791  1.1389  0.8842
11058SOL     OW39265   2.658   1.167   9.776  1.1794 -0.8031  0.1187
11058SOL    HW139266   2.620   1.169   9.864  0.9943 -0.0714  0.0245
11058SOL    HW239267   2.735   1.223   9.782  0.6509 -0.0030 -0.4124
11059SOL     OW39268   1.503   2.756   3.283 -0.7836 -0.1808 -0.2859
11059SOL    HW139269   1.476   2.676   3.237  0.9006 -2.0687  1.7304
11059SOL    HW239270   1.453   2.754   3.365 -1.5357  1.4874 -0.6728
11060SOL     OW39271   1.500   3.903   3.036 -0.8628  0.3669 -0.2714
11060SOL    HW139272   1.543   3.918   3.120 -1.8957  2.0294 -0.0032
11060SOL    HW239273   1.444   3.827   3.052 -0.6791  0.3626  0.4001
11061SOL     OW39274   9.538   0.213   4.484 -0.6023  0.0945 -0.2973
11061SOL    HW139275   9.542   0.118   4.484 -0.8389  0.0768  0.5034
11061SOL    HW239276   9.607   0.240   4.545 -1.6862  0.3566  0.8598
11062SOL     OW39277   1.554   4.665   9.428 -0.2298 -0.1575  0.2334
11062SOL    HW139278   1.495   4.668   9.353  0.5961 -2.7132 -0.6176
11062SOL    HW239279   1.583   4.756   9.439 -0.0360  0.2609 -2.8506
11063SOL     OW39280  10.835   0.642   9.596  0.3545  0.6248  0.1412
11063SOL    HW139281  10.877   0.600   9.671  0.4300 -0.9416 -0.7205
11063SOL    HW239282  10.752   0.674   9.629 -0.1326 -1.0757  0.6565
11064SOL     OW39283   2.569   2.183   0.151 -0.0367 -0.4427 -0.2027
11064SOL    HW139284   2.538   2.271   0.127  1.8550 -0.0644 -1.5172
11064SOL    HW239285   2.635   2.199   0.218 -1.3822 -1.0935  1.3333
11065SOL     OW39286  10.670   2.497   1.220 -0.2568  0.4930  0.2988
11065SOL    HW139287  10.723   2.569   1.256  0.7559  0.8437 -1.7693
11065SOL    HW239288  10.613   2.471   1.293  2.4115  0.4137  2.5371
11066SOL     OW39289   7.022   7.625   8.293 -0.0777 -0.0864  0.0570
11066SOL    HW139290   7.041   7.664   8.379  0.4808  0.1299 -0.1618
11066SOL    HW239291   7.101   7.577   8.271 -0.2493 -0.2012 -0.3078
11067SOL     OW39292   7.714   9.368   5.331  0.6658  0.1195 -0.0689
11067SOL    HW139293   7.669   9.382   5.414 -0.7927  2.3685 -1.1307
11067SOL    HW239294   7.656   9.311   5.281 -0.4437  1.8920 -0.9136
11068SOL     OW39295   6.224   0.878   0.318 -0.4489  0.2817 -0.1675
11068SOL    HW139296   6.158   0.837   0.373  0.7453 -0.8151  0.4838
11068SOL    HW239297   6.174   0.939   0.263 -1.7584  0.8565  1.5746
11069SOL     OW39298   3.825   5.594   3.399  0.3837  0.3080 -0.2740
11069SOL    HW139299   3.877   5.516   3.419 -1.0369 -1.2192 -2.1766
11069SOL    HW239300   3.886   5.652   3.353  0.9258 -0.6556 -0.8090
11070SOL     OW39301   1.088   9.766  10.752 -0.3582  0.3573  0.8475
11070SOL    HW139302   1.141   9.808  10.684 -2.0675 -0.5596 -1.1562
11070SOL    HW239303   1.130   9.680  10.766 -1.4412 -0.5137 -0.9932
11071SOL     OW39304   3.665   2.414   8.083 -0.2952 -0.2633 -0.3598
11071SOL    HW139305   3.750   2.392   8.046  0.7801  0.9733  1.2403
11071SOL    HW239306   3.685   2.469   8.159 -2.3772 -2.2743  1.8244
11072SOL     OW39307   0.611   9.750   0.487 -0.1998  0.2358 -0.5671
11072SOL    HW139308   0.623   9.759   0.581 -1.2451  1.2656 -0.5140
11072SOL    HW239309   0.663   9.673   0.463 -2.0319 -1.7149  1.2771
11073SOL     OW39310   5.260  10.519   9.481  0.4309  0.2543  0.0583
11073SOL    HW139311   5.217  10.604   9.470  0.8078  0.2610 -1.7740
11073SOL    HW239312   5.332  10.536   9.541  0.4867  1.2266 -0.2653
11074SOL     OW39313   9.276  10.019   5.373  0.3735 -0.7870  0.2455
11074SOL    HW139314   9.295  10.085   5.440  0.0341  2.3453 -2.4870
11074SOL    HW239315   9.192  10.046   5.336 -0.2123 -3.3310 -0.4738
11075SOL     OW39316   7.463   7.473   0.394 -0.2763  0.2016  0.3919
11075SOL    HW139317   7.485   7.399   0.450 -0.9845 -1.5423 -1.5161
11075SOL    HW239318   7.367   7.474   0.391 -0.2728  0.9814  0.1059
11076SOL     OW39319   2.474   6.360   9.382  0.3662 -0.3277 -0.3973
11076SOL    HW139320   2.494   6.392   9.470  0.3248 -2.0287  0.2707
11076SOL    HW239321   2.549   6.306   9.358  0.2719 -0.0626 -1.3222
11077SOL     OW39322   0.421   6.014   1.580  0.3728 -0.3299 -0.1339
11077SOL    HW139323   0.394   6.078   1.513 -3.0334 -0.1430  1.1881
11077SOL    HW239324   0.442   6.067   1.656  0.4974 -0.6899  0.0818
11078SOL     OW39325   5.191   6.030   7.842  0.0351 -0.4605  0.2688
11078SOL    HW139326   5.146   5.949   7.816  0.4956 -0.2612 -1.2385
11078SOL    HW239327   5.267   6.035   7.784 -0.5738  1.6082 -0.4230
11079SOL     OW39328   4.374  10.241   1.772 -0.5269 -0.6321 -0.0956
11079SOL    HW139329   4.378  10.155   1.814  0.1515 -1.7467 -2.2775
11079SOL    HW239330   4.293  10.239   1.721 -2.9405  1.8250  3.1955
11080SOL     OW39331  10.917   7.515   7.917 -0.2125 -0.1665  0.0339
11080SOL    HW139332  10.884   7.583   7.858 -1.5539  0.2654  1.2293
11080SOL    HW239333  10.960   7.452   7.859 -0.8325  0.6059 -1.3168
11081SOL     OW39334   0.438   3.499  10.197 -0.6917  0.1334 -0.4785
11081SOL    HW139335   0.515   3.526  10.246  0.4238 -1.9086 -0.9717
11081SOL    HW239336   0.459   3.517  10.106 -0.5125 -0.9403 -0.6722
11082SOL     OW39337   7.092   6.242   6.858  0.6126  0.0850 -0.1710
11082SOL    HW139338   7.072   6.313   6.797 -2.8248 -0.4777  0.0761
11082SOL    HW239339   7.084   6.282   6.945  0.8871 -0.1114 -0.0546
11083SOL     OW39340   4.324   0.203   5.723  0.4677  0.1124  0.0277
11083SOL    HW139341   4.372   0.165   5.797  0.8572  1.8070  0.6880
11083SOL    HW239342   4.243   0.152   5.719 -0.0094  0.5712  2.2554
11084SOL     OW39343   4.239   4.779   8.139 -0.0153  0.2032 -0.0785
11084SOL    HW139344   4.317   4.730   8.111 -0.1609  0.1044 -0.3139
11084SOL    HW239345   4.272   4.839   8.206  0.5123  1.0672 -1.0632
11085SOL     OW39346   3.461   3.096   8.509 -0.1702 -0.2846 -0.3984
11085SOL    HW139347   3.471   3.001   8.513  1.0995 -0.2314 -1.4354
11085SOL    HW239348   3.545   3.127   8.474 -1.0416  1.0909 -1.3586
11086SOL     OW39349   0.441   9.574   9.958  0.0656  0.3434  0.0530
11086SOL    HW139350   0.351   9.600   9.978 -0.5711 -0.0484 -2.0769
11086SOL    HW239351   0.481   9.560  10.044 -1.8363  0.7131  1.0642
11087SOL     OW39352   4.540   0.627   9.721 -0.4402 -0.3200 -0.3182
11087SOL    HW139353   4.469   0.564   9.730  0.6711 -1.2935  2.5436
11087SOL    HW239354   4.501   0.700   9.673 -2.8207 -1.5779 -0.4529
11088SOL     OW39355   8.677   1.031   0.429 -0.5357  0.5258 -0.1974
11088SOL    HW139356   8.631   0.968   0.373 -0.4949  1.9948 -2.0037
11088SOL    HW239357   8.759   1.048   0.383 -0.5680  1.8976  0.2173
11089SOL     OW39358   4.988   7.268   6.140  0.0223  0.0748 -0.4597
11089SOL    HW139359   4.941   7.325   6.201 -0.0504 -0.3560 -0.1084
11089SOL    HW239360   4.918   7.225   6.090  0.0906  1.1639 -1.5538
11090SOL     OW39361   9.486   2.603   7.485  0.3837 -0.4909 -0.2334
11090SOL    HW139362   9.434   2.670   7.441  2.5574  1.0836 -0.5862
11090SOL    HW239363   9.438   2.583   7.565 -0.7790  0.8376 -0.5699
11091SOL     OW39364   0.623   1.543   1.237  0.1279  0.2931 -0.1674
11091SOL    HW139365   0.615   1.612   1.172  1.5164  0.9574  0.3212
11091SOL    HW239366   0.554   1.481   1.215 -1.2534  1.8880 -0.5373
11092SOL     OW39367   2.431   4.044   4.320 -0.3774  0.5742  0.0860
11092SOL    HW139368   2.494   4.097   4.271  2.2701 -1.7647  0.6737
11092SOL    HW239369   2.466   4.042   4.409 -0.2786 -2.1252  0.0689
11093SOL     OW39370   3.842   9.402   0.512 -0.0065  0.0657 -0.7592
11093SOL    HW139371   3.933   9.398   0.542 -0.3742  0.3556  0.4430
11093SOL    HW239372   3.794   9.347   0.573 -0.5864 -0.4522 -1.6583
11094SOL     OW39373  10.635   7.754   4.228 -0.1582 -0.0076 -0.1100
11094SOL    HW139374  10.695   7.829   4.228 -0.3321  0.2648  3.1848
11094SOL    HW239375  10.548   7.792   4.237 -0.2656 -0.5514  1.3972
11095SOL     OW39376   5.253   6.126   8.456 -0.3930  0.0796 -0.5275
11095SOL    HW139377   5.219   6.048   8.411  0.5152 -0.1253 -0.8893
11095SOL    HW239378   5.275   6.186   8.385 -0.1191  0.2526 -0.2970
11096SOL     OW39379   6.508   1.924   1.623 -0.4989  0.2524 -0.6303
11096SOL    HW139380   6.420   1.938   1.587 -1.4521 -1.0224  1.0447
11096SOL    HW239381   6.500   1.844   1.675  1.2631  0.9393  0.8112
11097SOL     OW39382   0.281   0.061   7.415 -0.6334  0.4326  0.3582
11097SOL    HW139383   0.300   0.093   7.327  1.3712 -0.4784  0.4152
11097SOL    HW239384   0.348   0.102   7.470 -0.1328 -1.1482  0.9746
11098SOL     OW39385   8.726   8.801   7.909  0.2941 -0.0032  0.1305
11098SOL    HW139386   8.711   8.865   7.977 -1.4727  0.0952 -0.2874
11098SOL    HW239387   8.678   8.835   7.833  1.2173 -0.6945 -0.7930
11099SOL     OW39388   1.977   9.041   9.290  0.3241  0.1225  0.2715
11099SOL    HW139389   2.056   9.088   9.318 -0.0391  0.4542  0.7406
11099SOL    HW239390   1.919   9.044   9.365 -0.6070  0.8993 -0.4551
11100SOL     OW39391   7.175   7.656   5.707  0.1845 -0.9196  0.3892
11100SOL    HW139392   7.249   7.645   5.767  0.3902  1.9825  0.7887
11100SOL    HW239393   7.128   7.732   5.741 -1.0901 -0.6892 -1.7486
11101SOL     OW39394   4.089   7.288   1.732 -0.2029 -0.3891 -0.2896
11101SOL    HW139395   4.099   7.196   1.755 -1.2803 -0.4393  0.0534
11101SOL    HW239396   4.126   7.295   1.644  1.4172 -0.7796  0.3416
11102SOL     OW39397   2.459   1.501   8.115 -0.1054 -0.2326  0.7581
11102SOL    HW139398   2.388   1.469   8.059  0.3029 -1.5580  0.9573
11102SOL    HW239399   2.419   1.567   8.170 -0.7170  0.4940 -0.5113
11103SOL     OW39400   1.599   6.835   4.399  0.3680  0.2695  0.6880
11103SOL    HW139401   1.535   6.800   4.337  0.4959  1.4253 -0.1226
11103SOL    HW239402   1.668   6.768   4.402  1.1412  0.8627 -1.6818
11104SOL     OW39403   2.868   1.531   9.274 -0.2248 -0.0352 -0.5661
11104SOL    HW139404   2.832   1.452   9.233 -0.7130 -0.6349  0.9510
11104SOL    HW239405   2.923   1.499   9.345 -0.0416  0.9832 -0.2304
11105SOL     OW39406   8.268   5.898   8.877  0.4390  0.2409 -0.6262
11105SOL    HW139407   8.294   5.956   8.949 -1.6739  1.5864 -0.8472
11105SOL    HW239408   8.350   5.873   8.836  1.6361  0.2191  1.6428
11106SOL     OW39409   4.577  10.557   8.196 -0.5271  0.1236 -0.3546
11106SOL    HW139410   4.533  10.590   8.274 -1.0348 -0.9601 -0.1604
11106SOL    HW239411   4.507  10.542   8.133 -0.1509  0.7393 -0.9355
11107SOL     OW39412   4.869   4.562   7.271  0.0064 -0.4540 -0.1549
11107SOL    HW139413   4.935   4.614   7.225 -0.2911 -0.8156 -0.9946
11107SOL    HW239414   4.910   4.476   7.283  0.0614 -0.3796  0.2175
11108SOL     OW39415   0.914   4.934   0.570 -0.3034  0.3295  0.2086
11108SOL    HW139416   0.916   4.916   0.664  3.6837  0.7581  0.3990
11108SOL    HW239417   0.893   5.028   0.565  1.8183  0.9037  0.9426
11109SOL     OW39418   0.469   3.314   3.372  0.0745  0.2759 -0.4952
11109SOL    HW139419   0.435   3.255   3.305  0.3556  1.1910 -1.4971
11109SOL    HW239420   0.559   3.285   3.386  0.2400  0.5101 -1.0474
11110SOL     OW39421   7.236   4.898   5.695  0.1504 -0.5148  0.0236
11110SOL    HW139422   7.155   4.909   5.646  0.0730 -0.7353  0.1029
11110SOL    HW239423   7.267   4.987   5.711 -0.1163 -0.4313  0.0654
11111SOL     OW39424   4.220   3.187   0.303  0.3409  0.7907 -0.4716
11111SOL    HW139425   4.148   3.124   0.306 -0.1063  1.1822 -2.0813
11111SOL    HW239426   4.277   3.154   0.233 -1.0146  3.2383 -2.9184
11112SOL     OW39427   9.705   7.273   3.583 -0.2361 -0.0964 -0.2587
11112SOL    HW139428   9.642   7.235   3.644  0.1180  0.4386  0.4470
11112SOL    HW239429   9.701   7.367   3.600 -0.2632  0.0860 -1.1931
11113SOL     OW39430  10.509   7.227   8.413  0.0135 -0.2878 -0.1321
11113SOL    HW139431  10.589   7.180   8.388  0.5606  1.1413 -1.1869
11113SOL    HW239432  10.449   7.214   8.340  0.3401  1.0181 -0.6486
11114SOL     OW39433   9.647   2.997   1.972 -0.6085  0.2638 -0.2325
11114SOL    HW139434   9.626   3.032   2.059 -2.3832 -1.1566 -0.0283
11114SOL    HW239435   9.563   2.996   1.926 -0.3866 -2.2516 -0.7304
11115SOL     OW39436   8.372   9.467   7.666  0.1209  0.2259  0.1935
11115SOL    HW139437   8.422   9.522   7.605  2.5828 -0.2266  1.6549
11115SOL    HW239438   8.330   9.530   7.725  1.4899  0.6094  0.7960
11116SOL     OW39439  10.326   3.578   3.433  0.0242  0.2303  0.0225
11116SOL    HW139440  10.327   3.545   3.343  0.7501 -0.1077  0.1408
11116SOL    HW239441  10.309   3.672   3.425 -3.1896 -0.2756 -0.2647
11117SOL     OW39442   2.894   0.196   9.002 -0.0536  0.6079 -0.3710
11117SOL    HW139443   2.969   0.143   8.975  0.4990  0.8276  0.6820
11117SOL    HW239444   2.818   0.151   8.966  0.4407 -0.6719  0.1569
11118SOL     OW39445   3.397   2.201   4.546  0.6393 -0.8294 -0.2079
11118SOL    HW139446   3.429   2.281   4.507 -1.6082 -0.9250 -2.5102
11118SOL    HW239447   3.447   2.131   4.504  0.9524 -0.7522  0.0353
11119SOL     OW39448   4.691   2.193   8.212 -0.0919  0.4243  0.4356
11119SOL    HW139449   4.677   2.102   8.186  2.2964 -0.0286  0.4881
11119SOL    HW239450   4.692   2.242   8.129 -0.7630  0.3229  0.3617
11120SOL     OW39451   4.262   5.234   0.575  0.3084  0.3165 -0.0005
11120SOL    HW139452   4.349   5.263   0.549  1.4930 -1.6780  1.4234
11120SOL    HW239453   4.253   5.148   0.534  0.0395 -0.5405  1.7646
11121SOL     OW39454   4.303   5.392   7.673  0.0703  0.1823 -0.0575
11121SOL    HW139455   4.214   5.422   7.656 -0.3407 -0.8055  0.2574
11121SOL    HW239456   4.336   5.361   7.589 -0.4182 -0.7671  0.0824
11122SOL     OW39457   7.446   6.068   7.154  0.2504 -0.2990  0.2541
11122SOL    HW139458   7.462   6.056   7.248 -1.3235 -1.5013  0.4098
11122SOL    HW239459   7.355   6.099   7.149  0.8817  1.5683 -0.8079
11123SOL     OW39460   5.527   9.206   7.848  0.6188 -0.9895  0.3178
11123SOL    HW139461   5.471   9.257   7.908 -0.3091 -0.6113 -0.8309
11123SOL    HW239462   5.544   9.125   7.895  2.2086  0.3550  2.2562
11124SOL     OW39463   0.080   9.752   8.905  0.0105  0.6121 -0.1369
11124SOL    HW139464   0.032   9.714   8.832 -1.1540  1.2710  0.2612
11124SOL    HW239465   0.151   9.690   8.923 -0.3814 -0.1211 -1.0743
11125SOL     OW39466   2.911   0.499   2.824  0.1817 -0.2031  0.0815
11125SOL    HW139467   2.955   0.414   2.830 -0.5014 -0.5511  0.2396
11125SOL    HW239468   2.878   0.502   2.734  2.2569  0.9394 -0.7060
11126SOL     OW39469   4.544   1.798   9.276  0.1817  0.0096 -0.0980
11126SOL    HW139470   4.610   1.772   9.340  1.3023  3.1161  0.1905
11126SOL    HW239471   4.521   1.888   9.301  0.0202  1.0434 -3.4624
11127SOL     OW39472   4.173   6.228   3.026  0.5751  0.6149  0.0479
11127SOL    HW139473   4.116   6.167   3.073  1.2178 -0.1656 -0.1564
11127SOL    HW239474   4.131   6.313   3.035  0.4699  0.4128  1.6666
11128SOL     OW39475   3.329   3.859   0.538 -0.0964  0.6068 -0.0131
11128SOL    HW139476   3.372   3.915   0.473  0.4570  0.9148  0.6112
11128SOL    HW239477   3.379   3.777   0.534  1.0953  1.2312  1.2730
11129SOL     OW39478   3.529   2.068   5.322  0.4287  0.1425 -0.4689
11129SOL    HW139479   3.538   2.097   5.231  0.0391  1.3374 -0.1470
11129SOL    HW239480   3.613   2.027   5.342  0.9843  0.9911 -0.9906
11130SOL     OW39481   6.977   9.167   0.253 -0.6942 -0.2055  0.3339
11130SOL    HW139482   6.997   9.073   0.253  0.0983 -0.0458 -0.4077
11130SOL    HW239483   7.062   9.210   0.241 -0.5481  0.7507  3.6427
11131SOL     OW39484   4.038   3.393   0.693  0.5293 -0.4573 -0.1189
11131SOL    HW139485   4.088   3.376   0.613 -1.5526 -1.5476 -1.3107
11131SOL    HW239486   4.047   3.487   0.708  1.2959 -0.3037 -1.4256
11132SOL     OW39487   7.997   7.298   3.019 -0.4061 -0.3420 -0.3159
11132SOL    HW139488   8.082   7.320   2.981 -0.6956  0.7077 -0.4022
11132SOL    HW239489   7.934   7.351   2.970 -1.0745 -0.8395 -0.0198
11133SOL     OW39490  10.627   0.528   7.239 -0.0402 -0.0494 -0.0793
11133SOL    HW139491  10.664   0.470   7.305 -0.8705 -0.8280 -0.2741
11133SOL    HW239492  10.675   0.508   7.159 -0.7142 -0.9267 -0.2883
11134SOL     OW39493   8.296   0.105   1.340  0.2540 -0.2327  0.0440
11134SOL    HW139494   8.227   0.041   1.322  0.3451  0.3346 -2.8556
11134SOL    HW239495   8.324   0.085   1.429 -1.9413 -2.0793  0.4343
11135SOL     OW39496   5.226   0.336   9.654  0.2960  0.2184  0.4719
11135SOL    HW139497   5.153   0.364   9.599  0.0705 -0.5161  0.3752
11135SOL    HW239498   5.192   0.342   9.744  0.0618 -0.2403  0.4202
11136SOL     OW39499   3.251   4.336   6.384 -0.0774  0.1132 -0.8841
11136SOL    HW139500   3.186   4.361   6.450  0.2272 -0.6026 -0.2933
11136SOL    HW239501   3.204   4.337   6.301 -1.3452 -2.0934 -0.2786
11137SOL     OW39502   7.233   6.255   8.832  0.2137 -0.3319 -0.1306
11137SOL    HW139503   7.286   6.276   8.908  0.3295  0.6191 -0.4616
11137SOL    HW239504   7.171   6.188   8.863 -0.0967  0.4289  0.9322
11138SOL     OW39505   6.946   7.797   0.280  0.0973  0.1381  0.7513
11138SOL    HW139506   6.948   7.879   0.328  1.3640 -0.6275  2.0890
11138SOL    HW239507   7.036   7.784   0.251  0.8752 -2.4912  3.7476
11139SOL     OW39508   7.631   6.135   6.927  0.1556 -0.0752  0.3884
11139SOL    HW139509   7.577   6.105   7.000 -0.4723  0.4399  0.1459
11139SOL    HW239510   7.717   6.151   6.967 -0.1476  0.0905  0.9984
11140SOL     OW39511   5.268   8.972   3.048  0.0343 -0.5334  0.2594
11140SOL    HW139512   5.222   9.055   3.063  0.4647  0.0636 -1.4949
11140SOL    HW239513   5.354   8.985   3.089  0.0752 -0.1374  0.0493
11141SOL     OW39514   5.233   0.626   3.109 -0.2053 -0.6267 -0.3395
11141SOL    HW139515   5.190   0.608   3.192  0.5951  0.8568  0.4410
11141SOL    HW239516   5.299   0.557   3.101 -0.1310 -0.6508  0.3895
11142SOL     OW39517   8.421   7.925   3.616 -0.4413  0.6878  0.4236
11142SOL    HW139518   8.489   7.989   3.594 -0.0430  0.1314 -0.0081
11142SOL    HW239519   8.419   7.866   3.541 -1.0622  0.4130  0.6532
11143SOL     OW39520   5.379   5.743   1.017 -0.0634  0.5042  0.4304
11143SOL    HW139521   5.305   5.803   1.011 -0.7194 -0.3851 -0.7867
11143SOL    HW239522   5.401   5.741   1.110  0.1514  2.8044  0.4865
11144SOL     OW39523   3.014   7.851   0.320 -0.0163  0.1114 -0.4364
11144SOL    HW139524   3.086   7.863   0.383  1.5725  1.8345 -2.4143
11144SOL    HW239525   2.985   7.940   0.300 -0.6458 -0.4057 -1.9382
11145SOL     OW39526   3.509   8.114   3.488 -0.3946 -0.4275  0.0712
11145SOL    HW139527   3.552   8.058   3.553  0.2208  0.1887  0.2074
11145SOL    HW239528   3.516   8.203   3.525 -0.4310 -0.1296 -0.6225
11146SOL     OW39529   9.416   7.024   8.567 -0.5824  0.3548  0.0659
11146SOL    HW139530   9.512   7.033   8.570 -0.6242  0.5310  1.0785
11146SOL    HW239531   9.392   7.055   8.480  0.4229 -1.0966 -0.7851
11147SOL     OW39532   2.690  10.528   2.873 -0.7199  0.0311 -0.3463
11147SOL    HW139533   2.664  10.561   2.959 -0.8838  1.0524 -0.7708
11147SOL    HW239534   2.737  10.601   2.833 -0.5309 -0.4800 -1.0769
11148SOL     OW39535  10.536   0.448   8.991  0.1009  0.4793  0.1822
11148SOL    HW139536  10.593   0.501   8.934 -0.6030  0.8355 -0.1963
11148SOL    HW239537  10.514   0.371   8.939  0.2023  0.3582  0.3167
11149SOL     OW39538   5.673  10.777  10.665  0.4174 -0.3692 -0.4636
11149SOL    HW139539   5.739  10.710  10.649 -1.4828 -2.1570 -1.3283
11149SOL    HW239540   5.632  10.753  10.748 -0.6093 -0.6294 -1.0189
11150SOL     OW39541   6.220   0.165   8.597 -0.0365  0.3698 -0.1184
11150SOL    HW139542   6.165   0.091   8.574  0.4580  0.2205 -0.8820
11150SOL    HW239543   6.225   0.216   8.516 -0.1245  1.0792  0.3120
11151SOL     OW39544  10.242   6.297   8.417 -0.7795  0.4406 -0.3994
11151SOL    HW139545  10.290   6.379   8.411  1.3125 -0.6812  0.2197
11151SOL    HW239546  10.195   6.303   8.501 -1.4272  1.3628 -0.8057
11152SOL     OW39547   7.782   5.245   1.501 -0.3564 -0.1296 -0.0654
11152SOL    HW139548   7.723   5.296   1.445 -0.8141  0.5908  1.0373
11152SOL    HW239549   7.812   5.307   1.568 -1.4719 -1.4239  1.7427
11153SOL     OW39550   4.407   9.421   6.770 -0.1896  0.1468 -0.0716
11153SOL    HW139551   4.397   9.468   6.852 -1.5090  1.8801 -1.1717
11153SOL    HW239552   4.497   9.440   6.742  0.2285 -0.3622  0.8663
11154SOL     OW39553   3.562  10.808  10.682 -0.1721  1.0006 -0.5929
11154SOL    HW139554   3.527  10.811  10.593  0.1693  0.6824 -0.7387
11154SOL    HW239555   3.550  10.898  10.715 -0.1549  1.1584 -1.0132
11155SOL     OW39556   3.613   6.012  10.735 -0.2659  0.4496  0.0200
11155SOL    HW139557   3.694   6.019  10.683 -0.1314  1.4203  0.3280
11155SOL    HW239558   3.546   5.989  10.671  0.1540  0.2066 -0.3417
11156SOL     OW39559   6.697   2.860   9.652  0.0083  0.3243 -0.1797
11156SOL    HW139560   6.638   2.901   9.715  1.3315 -0.7416  1.8738
11156SOL    HW239561   6.657   2.775   9.635 -0.4474  0.6887 -0.9392
11157SOL     OW39562   1.736   2.591   6.015  0.2215  0.1134  0.4959
11157SOL    HW139563   1.757   2.665   6.072  0.3617  0.7224 -0.3425
11157SOL    HW239564   1.671   2.540   6.065  0.0841  0.8236  1.0517
11158SOL     OW39565   5.803   9.833   0.912  0.1416  0.1586 -0.6095
11158SOL    HW139566   5.734   9.777   0.949  1.8067 -1.3095  0.4342
11158SOL    HW239567   5.756   9.891   0.852 -2.1142 -0.1782  0.6890
11159SOL     OW39568   1.973   8.010   4.546  0.0710  0.2582 -0.2676
11159SOL    HW139569   2.067   8.002   4.557 -0.0285 -1.5748 -0.4679
11159SOL    HW239570   1.939   8.018   4.636  0.3680  0.3046 -0.1587
11160SOL     OW39571   3.298   1.937  10.091  0.0453 -0.0253 -0.0787
11160SOL    HW139572   3.248   2.009  10.053  0.2817  0.4463  0.4895
11160SOL    HW239573   3.259   1.858  10.054 -2.3473  0.2108  1.7698
11161SOL     OW39574   8.838   9.043   4.090 -0.2310  0.1666 -0.2046
11161SOL    HW139575   8.903   8.998   4.036 -0.3457 -1.8679  1.2585
11161SOL    HW239576   8.885   9.066   4.170 -1.0538 -0.4149  0.4535
11162SOL     OW39577   4.311   3.253   9.881  0.3310  0.0362 -0.2123
11162SOL    HW139578   4.377   3.265   9.812  0.4305 -1.1520 -0.3462
11162SOL    HW239579   4.347   3.184   9.936 -0.0536  0.5307  0.6662
11163SOL     OW39580   9.216   0.298   0.004 -0.1340 -0.4955  0.1288
11163SOL    HW139581   9.151   0.237  -0.031 -2.5352 -0.0464  3.3488
11163SOL    HW239582   9.284   0.242   0.041  0.5462 -1.0165 -1.8166
11164SOL     OW39583   6.817   4.035   6.026  0.4603 -0.5762 -0.3904
11164SOL    HW139584   6.834   4.000   5.939 -1.5084 -0.4813 -0.8688
11164SOL    HW239585   6.885   4.101   6.039  0.8553 -0.6747 -1.8120
11165SOL     OW39586   3.389   4.853   7.995  0.1299  0.2696 -0.1106
11165SOL    HW139587   3.301   4.888   7.979  0.3053  1.0544  0.5856
11165SOL    HW239588   3.432   4.856   7.910 -0.1449  0.9485 -0.2268
11166SOL     OW39589   3.825   8.956   2.359  0.0488 -0.1864  0.7415
11166SOL    HW139590   3.869   8.990   2.281 -0.3799  1.4863  1.1947
11166SOL    HW239591   3.887   8.971   2.430 -0.2981  0.0272  1.0042
11167SOL     OW39592   1.420   2.773   4.022  0.3733  0.2048  0.0760
11167SOL    HW139593   1.326   2.773   4.042  0.1619  2.2390 -0.7057
11167SOL    HW239594   1.458   2.715   4.088 -1.5170 -1.4403 -0.1711
11168SOL     OW39595   4.343   2.808   3.147  0.1685 -0.2685  0.3169
11168SOL    HW139596   4.302   2.878   3.197  1.0184  0.4341  0.0707
11168SOL    HW239597   4.273   2.771   3.094  0.2982  2.6964 -2.1709
11169SOL     OW39598   4.664   4.185   1.955  0.2393 -0.1810 -0.1179
11169SOL    HW139599   4.583   4.138   1.935 -0.2155  0.8502 -0.8531
11169SOL    HW239600   4.670   4.184   2.050  1.2817 -3.3515 -0.1158
11170SOL     OW39601   5.697   7.274   5.486 -0.3523  0.3794 -0.2736
11170SOL    HW139602   5.620   7.219   5.475 -1.7471  2.2089 -0.0821
11170SOL    HW239603   5.728   7.255   5.574 -1.8958  1.1748  0.4709
11171SOL     OW39604   7.384   2.869   0.643  0.0437 -0.2353  0.8823
11171SOL    HW139605   7.401   2.922   0.565  0.4937 -0.3877  0.8731
11171SOL    HW239606   7.289   2.871   0.653  0.0687  0.9165  1.1159
11172SOL     OW39607   2.258   3.991   8.383  0.3946  0.1507  0.2442
11172SOL    HW139608   2.195   3.931   8.423 -0.2150 -1.5602 -2.9268
11172SOL    HW239609   2.343   3.952   8.400  0.1066 -0.8445 -0.5046
11173SOL     OW39610   5.610   8.007   1.776  0.2159 -0.1649 -0.4969
11173SOL    HW139611   5.548   8.077   1.793 -2.7304 -1.9186 -3.0504
11173SOL    HW239612   5.635   7.976   1.863 -0.1656  2.4672  0.6457
11174SOL     OW39613   9.079   6.879   9.490 -0.0851  0.1354 -0.2602
11174SOL    HW139614   9.072   6.790   9.455 -0.9139  0.0770  0.0460
11174SOL    HW239615   8.999   6.891   9.542  0.6269  0.5901  0.7699
11175SOL     OW39616   6.498   1.959   8.530 -0.1872  0.1536  0.0696
11175SOL    HW139617   6.480   1.971   8.624 -1.0845 -2.5863  0.3183
11175SOL    HW239618   6.477   1.868   8.513  0.0070  0.5709 -2.8360
11176SOL     OW39619   8.108   6.145   5.505 -0.5906 -0.3058  0.1601
11176SOL    HW139620   8.030   6.108   5.547 -0.2622  2.1769  3.3828
11176SOL    HW239621   8.124   6.227   5.552  2.5560  0.5487 -2.0425
11177SOL     OW39622   6.519   9.051   6.110 -0.5742  0.6145 -0.4846
11177SOL    HW139623   6.506   9.130   6.162 -0.3127  1.2061 -1.2914
11177SOL    HW239624   6.590   9.004   6.153 -1.0475  0.5811  0.2682
11178SOL     OW39625   4.440   0.319   6.686  0.0340  0.2175  0.4071
11178SOL    HW139626   4.474   0.283   6.767  0.7611 -0.4576 -0.1844
11178SOL    HW239627   4.395   0.246   6.644  0.7367  0.2195 -0.3753
11179SOL     OW39628   0.014   2.405   4.958  1.0700 -0.1097 -0.5922
11179SOL    HW139629   0.101   2.427   4.925  0.8247  0.8382 -0.6601
11179SOL    HW239630  -0.046   2.435   4.890  0.6617 -0.1734 -0.2675
11180SOL     OW39631  10.007   6.427   9.779  0.6525 -0.0208  0.4171
11180SOL    HW139632  10.028   6.400   9.689 -0.4044 -1.4137  0.5534
11180SOL    HW239633  10.083   6.399   9.830 -0.8046 -4.0414  0.7366
11181SOL     OW39634   4.403   6.146   6.698 -0.0315 -0.0550  0.3031
11181SOL    HW139635   4.407   6.057   6.732  0.8295 -0.1319  0.0013
11181SOL    HW239636   4.488   6.184   6.718  0.4440 -0.0335 -1.5535
11182SOL     OW39637   1.198   0.420   4.767 -0.3172 -0.4652 -0.2163
11182SOL    HW139638   1.270   0.358   4.755 -0.2736 -0.7628  1.4231
11182SOL    HW239639   1.122   0.366   4.787 -0.6149 -0.0643 -0.2537
11183SOL     OW39640   4.445   6.906   8.656  0.2358 -0.4512 -0.0241
11183SOL    HW139641   4.420   6.838   8.593  0.3376  0.0492 -0.6113
11183SOL    HW239642   4.527   6.875   8.694  1.0703  0.0228 -1.3669
11184SOL     OW39643  10.037  10.848   8.600 -0.1967 -0.3646 -0.3278
11184SOL    HW139644  10.098  10.863   8.673  0.7677  1.8826 -1.4940
11184SOL    HW239645  10.085  10.877   8.523 -2.1843 -0.0564 -1.5119
11185SOL     OW39646   9.855   0.244  10.453 -0.4472  0.3292 -0.4083
11185SOL    HW139647   9.869   0.149  10.454 -0.5248  0.2708 -2.0485
11185SOL    HW239648   9.854   0.269  10.546 -1.1194 -1.3641  0.0870
11186SOL     OW39649   1.960   1.599   3.150 -0.0991  0.3908  0.2570
11186SOL    HW139650   1.971   1.692   3.173 -1.8909  1.2105 -1.8053
11186SOL    HW239651   2.024   1.585   3.081 -0.1698  0.2289  0.2253
11187SOL     OW39652  10.518   2.958  10.481  0.5072  0.5680 -0.1423
11187SOL    HW139653  10.558   2.891  10.536 -0.3555 -0.5659 -0.8291
11187SOL    HW239654  10.583   2.977  10.415  1.2067  1.2816  0.7334
11188SOL     OW39655   9.399   5.303   8.296 -0.1907  0.7882  0.2226
11188SOL    HW139656   9.485   5.266   8.319  0.4000  1.2394 -1.1617
11188SOL    HW239657   9.336   5.246   8.340  0.8299  1.1386  2.2379
11189SOL     OW39658   1.561   2.009   6.458 -0.4491 -0.1676 -0.6006
11189SOL    HW139659   1.514   1.932   6.427 -2.1009  1.0835 -1.3793
11189SOL    HW239660   1.647   2.004   6.417 -0.1854 -2.0189  0.0802
11190SOL     OW39661  10.503   5.922   0.440 -0.3630  0.2478 -0.2425
11190SOL    HW139662  10.520   5.850   0.380  1.6180  0.9777 -0.6493
11190SOL    HW239663  10.409   5.939   0.431 -0.3777 -0.5316 -2.1435
11191SOL     OW39664   2.866   6.313   0.095  0.3309  0.6977 -0.5671
11191SOL    HW139665   2.861   6.372   0.019 -0.4060  0.7944 -0.4506
11191SOL    HW239666   2.812   6.355   0.161  1.5752  1.0051  0.2971
11192SOL     OW39667   0.561   2.731   9.092  0.2282  0.3117 -0.6541
11192SOL    HW139668   0.621   2.718   9.018  2.1279 -0.2906  0.8907
11192SOL    HW239669   0.586   2.817   9.127 -0.3870  0.4168 -0.4631
11193SOL     OW39670   9.692   8.951   7.218 -0.1381 -0.0749 -0.4520
11193SOL    HW139671   9.638   8.894   7.164  3.2960 -4.2044 -0.1003
11193SOL    HW239672   9.756   8.989   7.158  0.2830 -0.2149 -0.1051
11194SOL     OW39673   7.360   8.335  10.781 -0.3502  0.6038 -0.1478
11194SOL    HW139674   7.304   8.406  10.811  0.6283  1.3114  0.0375
11194SOL    HW239675   7.310   8.292  10.711 -1.6400  0.4386  0.8275
11195SOL     OW39676   4.959   1.021   5.459  0.1883 -0.0941 -0.2009
11195SOL    HW139677   5.001   1.065   5.533  2.2630  0.3422 -1.5510
11195SOL    HW239678   5.011   0.941   5.446 -0.3772 -0.3458 -0.9499
11196SOL     OW39679   9.198  10.904   6.401  0.0243  0.3934  0.6432
11196SOL    HW139680   9.121  10.905   6.344  0.1174  0.7960  0.5211
11196SOL    HW239681   9.233  10.993   6.396  0.3375  0.2884  0.9159
11197SOL     OW39682   9.834   7.236   7.455  0.1941  0.0129  0.4807
11197SOL    HW139683   9.875   7.280   7.381 -0.4157 -0.7021 -0.3054
11197SOL    HW239684   9.811   7.149   7.421  1.2624 -0.8870  1.9391
11198SOL     OW39685   8.670   3.018   7.168 -0.0205  0.7573  0.3168
11198SOL    HW139686   8.740   2.955   7.154 -1.6881 -0.7916 -1.6399
11198SOL    HW239687   8.654   3.056   7.082  0.1355  3.0557  1.2381
11199SOL     OW39688   5.846   7.385   5.267  0.0426  0.3502 -0.0245
11199SOL    HW139689   5.802   7.344   5.342  1.4254 -0.0334  0.6063
11199SOL    HW239690   5.863   7.314   5.206  1.0916  0.2241  0.3975
11200SOL     OW39691   3.101   7.245   5.186 -0.0867  0.0101  0.3073
11200SOL    HW139692   3.125   7.329   5.227  1.3066 -1.1595  2.0835
11200SOL    HW239693   3.006   7.248   5.179 -0.1544  1.3074  1.3642
11201SOL     OW39694   4.286   0.238   0.735 -0.0512 -0.4411  0.0279
11201SOL    HW139695   4.364   0.267   0.688  0.2395 -1.6643 -0.2777
11201SOL    HW239696   4.213   0.260   0.677 -0.0484  1.4364  0.6589
11202SOL     OW39697  10.431   7.075   5.357 -0.3631 -0.5888  0.1983
11202SOL    HW139698  10.344   7.046   5.329  0.6825 -1.5362 -2.3701
11202SOL    HW239699  10.483   6.995   5.362  0.9533  0.1526 -0.7312
11203SOL     OW39700   8.232   9.760   4.251 -0.1147 -0.4075  0.2044
11203SOL    HW139701   8.261   9.757   4.160 -1.6466 -0.7939 -0.3079
11203SOL    HW239702   8.139   9.782   4.245 -0.2594 -0.5560  1.6762
11204SOL     OW39703   1.290   4.690   0.033  0.5534 -0.5222  0.5473
11204SOL    HW139704   1.316   4.714   0.122  0.6810 -0.9122  0.6197
11204SOL    HW239705   1.360   4.725  -0.023 -0.0531  0.6281  0.4961
11205SOL     OW39706   0.897   9.510   4.579 -0.0041 -0.1098  0.2327
11205SOL    HW139707   0.865   9.599   4.593 -0.2394 -0.1743  0.1082
11205SOL    HW239708   0.944   9.489   4.660  1.8252  0.8768 -0.4998
11206SOL     OW39709   6.982   1.670   1.640  0.3956 -1.2496 -0.0370
11206SOL    HW139710   6.942   1.756   1.628  0.4327 -0.9403  1.7092
11206SOL    HW239711   6.976   1.628   1.555  0.4830  0.5258 -0.9534
11207SOL     OW39712   7.938   6.463   1.319  0.4753  0.2157  0.3642
11207SOL    HW139713   7.903   6.541   1.275  0.1373 -0.0681  0.1309
11207SOL    HW239714   7.972   6.496   1.402 -0.9261  0.3990  0.8949
11208SOL     OW39715   1.581   1.412   8.115  0.0885  0.1791 -0.2010
11208SOL    HW139716   1.534   1.463   8.048  0.2283 -0.3204 -0.6812
11208SOL    HW239717   1.542   1.325   8.111  0.4746 -0.0031 -0.0058
11209SOL     OW39718   2.483   7.798   0.511  0.2425  0.2225 -0.4873
11209SOL    HW139719   2.570   7.834   0.527 -0.0891  1.0622 -0.5416
11209SOL    HW239720   2.463   7.822   0.420  0.6871 -1.5314 -1.0941
11210SOL     OW39721   1.969   4.306   1.166 -0.1671 -0.2815  0.3280
11210SOL    HW139722   2.018   4.224   1.155 -1.0941 -0.9326  0.8719
11210SOL    HW239723   1.889   4.280   1.211 -0.7505  0.8443 -0.0129
11211SOL     OW39724   8.894   5.336   9.313 -0.1910  0.2237  0.0376
11211SOL    HW139725   8.969   5.328   9.372 -0.5127 -0.0568  0.4155
11211SOL    HW239726   8.933   5.352   9.227  0.3699 -1.3990 -0.0467
11212SOL     OW39727   0.433   4.480   9.070 -0.1021  0.1368 -0.8986
11212SOL    HW139728   0.387   4.420   9.012 -0.1251 -0.8972  0.1672
11212SOL    HW239729   0.435   4.563   9.021 -2.8313  0.1645 -1.0929
11213SOL     OW39730   1.582   9.443   9.369  0.0952 -0.0624  0.3335
11213SOL    HW139731   1.624   9.377   9.313  0.9516  0.7265  0.0294
11213SOL    HW239732   1.492   9.446   9.337  0.4003 -0.1066 -0.5613
11214SOL     OW39733   5.526   3.205   0.434 -0.1927  0.0753 -0.2588
11214SOL    HW139734   5.554   3.171   0.349 -0.2688  2.0032 -1.0998
11214SOL    HW239735   5.530   3.129   0.492  1.6646 -0.8857 -1.5341
11215SOL     OW39736   2.402   6.843   5.438  0.0593  0.2035  0.2810
11215SOL    HW139737   2.457   6.920   5.420 -1.4934  1.3878  0.4032
11215SOL    HW239738   2.366   6.860   5.525 -2.0261  0.4308 -0.5760
11216SOL     OW39739  10.081   0.031   5.741 -0.6550  0.2284 -0.3398
11216SOL    HW139740  10.092   0.046   5.647  2.3254 -0.2456 -0.1535
11216SOL    HW239741  10.145  -0.036   5.763 -0.5718  1.0128  2.2069
11217SOL     OW39742   6.581   6.177   5.796  0.8666 -0.0869 -0.0313
11217SOL    HW139743   6.561   6.101   5.850  0.6920  1.3270  2.0357
11217SOL    HW239744   6.510   6.181   5.732  1.5264 -2.2914 -0.9983
11218SOL     OW39745   6.440   4.326   5.602 -0.5144  0.1959  0.2467
11218SOL    HW139746   6.432   4.383   5.525 -0.5047  0.4618  0.4413
11218SOL    HW239747   6.425   4.385   5.676 -0.4343 -0.0442  0.4514
11219SOL     OW39748   3.372   7.129   1.416 -0.1851  0.4260  0.0788
11219SOL    HW139749   3.356   7.211   1.462 -0.2209 -0.5238  1.8434
11219SOL    HW239750   3.286   7.104   1.381 -0.2702  0.9027 -0.0573
11220SOL     OW39751  10.687  10.119   1.542  0.1532  0.1403 -0.6789
11220SOL    HW139752  10.627  10.049   1.568  1.7851 -0.3844  1.9765
11220SOL    HW239753  10.630  10.193   1.524 -1.4256 -0.9330 -0.3660
11221SOL     OW39754   6.131   7.919  10.139 -0.2775  0.9045  0.1105
11221SOL    HW139755   6.106   7.853  10.203 -0.2495  0.3848 -0.4079
11221SOL    HW239756   6.198   7.876  10.085 -1.8318  0.5562 -1.6425
11222SOL     OW39757   9.676   4.727   0.377  0.0077  0.1746 -0.0296
11222SOL    HW139758   9.759   4.681   0.368  0.3638  0.6606  0.6475
11222SOL    HW239759   9.660   4.729   0.471  0.1788  1.7260 -0.0075
11223SOL     OW39760   3.529   3.917  10.871 -0.2742  0.0941  0.2289
11223SOL    HW139761   3.585   3.874  10.936  0.1420  0.8199  0.3642
11223SOL    HW239762   3.550   4.010  10.880  1.6040  0.0593 -2.6200
11224SOL     OW39763   6.673   7.026   3.715 -0.1534 -0.2767 -0.1348
11224SOL    HW139764   6.756   7.021   3.762  0.0665 -0.9586 -0.5713
11224SOL    HW239765   6.646   7.117   3.723  1.1385  0.2001 -0.8171
11225SOL     OW39766   2.127   1.732   3.684  0.1661 -0.5849 -0.5497
11225SOL    HW139767   2.191   1.662   3.678  2.9281  1.7060  0.0121
11225SOL    HW239768   2.172   1.802   3.732 -2.4838  1.5006 -0.8617
11226SOL     OW39769   7.313   4.996   9.460 -0.2199 -0.6116  0.5398
11226SOL    HW139770   7.326   4.912   9.505 -1.1386 -2.2699 -2.0695
11226SOL    HW239771   7.281   4.972   9.373  1.0085  2.4086 -0.8961
11227SOL     OW39772   2.272   7.184   6.153 -0.3299  0.1063 -0.5661
11227SOL    HW139773   2.278   7.273   6.188  0.0219 -0.9005  2.1688
11227SOL    HW239774   2.351   7.140   6.185  0.1745 -0.8687 -2.9826
11228SOL     OW39775   9.314   8.538   2.761 -0.0370 -0.2393  0.2857
11228SOL    HW139776   9.373   8.530   2.686 -0.2836  2.5296 -0.3082
11228SOL    HW239777   9.248   8.601   2.733 -3.3205 -3.0584  0.9755
11229SOL     OW39778   7.852   1.330   3.779  0.0566 -0.2747 -0.5403
11229SOL    HW139779   7.849   1.252   3.835  0.7655 -0.1027 -0.2495
11229SOL    HW239780   7.809   1.303   3.698 -1.7176 -0.2920  0.3544
11230SOL     OW39781   6.051   4.962   3.394  0.1093 -0.2919 -0.1928
11230SOL    HW139782   6.138   4.965   3.433 -0.0950 -0.8360  0.3241
11230SOL    HW239783   6.037   5.049   3.357 -0.0696  0.5627  1.7799
11231SOL     OW39784   1.058   7.836   4.768 -0.5072  1.0792  0.6372
11231SOL    HW139785   1.068   7.771   4.699  1.0630  2.6766 -0.7160
11231SOL    HW239786   0.979   7.885   4.743 -0.5120  1.0236  0.5421
11232SOL     OW39787   2.264   0.339   0.891  0.3386  0.7423  0.6912
11232SOL    HW139788   2.302   0.355   0.804 -3.1358  0.4589 -1.0653
11232SOL    HW239789   2.274   0.422   0.937 -1.3749  2.3440 -1.5957
11233SOL     OW39790   5.008   2.534   9.041  0.5459  0.2013  0.2401
11233SOL    HW139791   5.042   2.570   8.959  1.0745 -0.4854  0.1581
11233SOL    HW239792   5.015   2.607   9.103 -1.6846  1.3831 -0.7668
11234SOL     OW39793   4.365   4.044   2.928  0.2905 -0.1032  0.6403
11234SOL    HW139794   4.435   4.108   2.913 -0.0747  0.4115  1.1059
11234SOL    HW239795   4.411   3.965   2.957  0.6066  0.7072  2.5138
11235SOL     OW39796   9.999   0.924   8.133  0.2187 -0.2581  1.0887
11235SOL    HW139797  10.059   0.958   8.199  1.7153  0.3755 -0.5096
11235SOL    HW239798   9.934   0.994   8.122 -0.1781 -0.4656  2.0173
11236SOL     OW39799   2.727   0.666   9.178  0.2538 -0.9674  0.0222
11236SOL    HW139800   2.631   0.658   9.180  0.3210 -1.5253  1.8177
11236SOL    HW239801   2.757   0.587   9.134 -0.0799 -1.0501 -0.0605
11237SOL     OW39802   9.886   4.340   2.642 -0.1885  0.1332  0.3148
11237SOL    HW139803   9.809   4.363   2.590  1.9191  0.0689 -3.1499
11237SOL    HW239804   9.892   4.409   2.708 -1.7776  1.5514 -0.9305
11238SOL     OW39805   1.094   0.865   2.834 -0.1087 -0.4152  0.2978
11238SOL    HW139806   1.063   0.822   2.754 -0.0703  0.2899 -0.0987
11238SOL    HW239807   1.015   0.893   2.879 -0.1987 -1.8784  1.1327
11239SOL     OW39808   7.017   9.867   8.159 -0.2815 -0.3125  0.3382
11239SOL    HW139809   6.989   9.799   8.220 -0.3619  0.7543  1.5133
11239SOL    HW239810   7.111   9.851   8.146 -0.7477 -2.1031 -1.3218
11240SOL     OW39811   3.232   6.485   3.738  0.3514  0.5642  0.4258
11240SOL    HW139812   3.230   6.496   3.643  1.0853 -0.6596  0.2456
11240SOL    HW239813   3.150   6.525   3.768  0.4968  1.7175 -0.6150
11241SOL     OW39814   5.132   1.297   9.316  0.1710 -0.1100 -0.6609
11241SOL    HW139815   5.198   1.316   9.383 -1.4209  0.6587  0.7416
11241SOL    HW239816   5.061   1.253   9.362 -0.6100 -0.3193 -2.0036
11242SOL     OW39817   6.103   9.978   2.370  0.0210 -0.1167 -0.1107
11242SOL    HW139818   6.122   9.934   2.453 -0.0399  3.2805  1.8740
11242SOL    HW239819   6.188   9.996   2.331  0.0803 -0.9228 -0.3677
11243SOL     OW39820  10.148   2.313   4.742 -0.5906 -0.3532  0.5356
11243SOL    HW139821  10.125   2.226   4.774 -0.2997 -0.6622 -0.0678
11243SOL    HW239822  10.139   2.371   4.818 -1.0720 -0.8586  0.8681
11244SOL     OW39823   6.311   3.929   2.611 -0.1451 -0.3034 -0.1476
11244SOL    HW139824   6.295   3.873   2.535  0.2042 -1.7578  0.8006
11244SOL    HW239825   6.242   3.905   2.673 -1.8011  2.4510 -0.7855
11245SOL     OW39826   6.470   6.772   9.852  0.8893  0.1516  0.3345
11245SOL    HW139827   6.530   6.723   9.795 -0.1558 -0.2251 -0.4674
11245SOL    HW239828   6.404   6.807   9.792  0.0425  0.1698  1.2637
11246SOL     OW39829   1.689   8.813   7.801 -0.1521 -0.7030 -0.3688
11246SOL    HW139830   1.613   8.852   7.843  1.0554  0.7946  0.5158
11246SOL    HW239831   1.686   8.721   7.827 -0.0260 -0.0503  2.1934
11247SOL     OW39832   3.528   2.431   3.894 -0.9241  0.4714  0.2474
11247SOL    HW139833   3.486   2.347   3.913  0.3155 -0.0991  0.6161
11247SOL    HW239834   3.466   2.497   3.924 -1.6499 -0.3189  0.5332
11248SOL     OW39835   8.303   6.944   6.983 -0.6624 -0.6042 -0.2380
11248SOL    HW139836   8.311   7.034   6.952  2.7973 -0.5561  0.4638
11248SOL    HW239837   8.307   6.891   6.903  2.4736 -0.2462 -0.4371
11249SOL     OW39838   5.593   0.345   6.002 -0.0330 -0.3077 -0.8741
11249SOL    HW139839   5.540   0.424   5.992 -1.2830 -1.1559 -1.2048
11249SOL    HW239840   5.553   0.281   5.943 -0.2565 -1.7822  0.7695
11250SOL     OW39841   0.755   4.293  10.190  0.0808 -0.0865 -0.4005
11250SOL    HW139842   0.826   4.297  10.254  0.7592 -1.5512 -1.0124
11250SOL    HW239843   0.796   4.319  10.108 -0.4987  0.6445 -0.4597
11251SOL     OW39844   0.402   3.989   9.211  0.1006 -0.2959 -0.5171
11251SOL    HW139845   0.384   3.943   9.129 -2.5168 -0.9494  0.3181
11251SOL    HW239846   0.333   3.960   9.270  0.9681  1.3745  1.4386
11252SOL     OW39847   1.696  10.811   6.936 -0.0846  0.3399 -0.1126
11252SOL    HW139848   1.786  10.842   6.936 -0.2972  1.1524 -1.9312
11252SOL    HW239849   1.648  10.878   6.886 -1.6086 -0.2782  0.4521
11253SOL     OW39850   0.818   4.141   5.105 -0.0092 -0.3849  0.0426
11253SOL    HW139851   0.735   4.107   5.138 -0.2198 -0.1095 -0.2014
11253SOL    HW239852   0.819   4.232   5.134  1.3509 -1.0192  2.2501
11254SOL     OW39853   6.594   5.651   4.506 -0.2038  0.0079  0.5543
11254SOL    HW139854   6.573   5.659   4.413  0.4566  0.4026  0.4306
11254SOL    HW239855   6.689   5.641   4.508 -0.0548  1.3401  1.2581
11255SOL     OW39856   9.360   5.381   4.552  0.0710  0.2840  0.0150
11255SOL    HW139857   9.423   5.450   4.574 -1.3084  1.2915  1.0168
11255SOL    HW239858   9.398   5.301   4.588  2.4831  0.1442 -2.5723
11256SOL     OW39859   2.685   5.032   6.580  0.2554  0.2885 -0.0049
11256SOL    HW139860   2.603   4.984   6.595  1.0799 -1.1284  0.1438
11256SOL    HW239861   2.659   5.124   6.580 -1.4987 -0.1645 -1.0114
11257SOL     OW39862   1.862   6.960   7.058  0.4723  0.2183 -0.1937
11257SOL    HW139863   1.933   7.005   7.013  0.7479 -1.0168 -1.0235
11257SOL    HW239864   1.782   6.997   7.020  0.6773  0.5082 -0.3464
11258SOL     OW39865   7.239   0.594   4.877 -0.0639 -0.0142  0.4219
11258SOL    HW139866   7.212   0.520   4.931  0.8807  0.7540  2.0337
11258SOL    HW239867   7.333   0.584   4.867  0.1434  1.1467  0.9926
11259SOL     OW39868   3.306   7.201   7.771  0.4608  0.3346 -0.2812
11259SOL    HW139869   3.252   7.138   7.724 -0.0820  0.6185 -0.0509
11259SOL    HW239870   3.395   7.185   7.740  0.1137  0.5382 -1.4206
11260SOL     OW39871   2.837  10.721   2.764  0.3326  0.5581 -0.1832
11260SOL    HW139872   2.894  10.795   2.785  0.0435  0.8912 -0.5469
11260SOL    HW239873   2.897  10.653   2.732  0.7141  0.2302  1.1757
11261SOL     OW39874   2.973   5.932   0.550 -0.5628  0.1459 -0.0311
11261SOL    HW139875   3.023   5.886   0.483 -2.4023 -0.3179 -1.1733
11261SOL    HW239876   3.013   6.018   0.556  0.5498 -0.3095 -0.6600
11262SOL     OW39877   0.376   7.615   1.720  0.3432  0.5577 -0.0787
11262SOL    HW139878   0.401   7.601   1.629  0.1414  0.1317 -0.0745
11262SOL    HW239879   0.454   7.650   1.762  0.5111  0.5227 -0.3606
11263SOL     OW39880   9.504   3.167   4.878 -0.3335 -0.2217  0.0053
11263SOL    HW139881   9.574   3.231   4.877  0.3779 -0.8153  2.9229
11263SOL    HW239882   9.547   3.084   4.900 -1.8772 -0.6024  1.9071
11264SOL     OW39883   2.630   7.195   6.541 -0.2217 -0.3198 -0.1580
11264SOL    HW139884   2.623   7.276   6.591  1.1758 -0.5110  0.3837
11264SOL    HW239885   2.588   7.215   6.457  0.7965  1.2131 -0.3377
11265SOL     OW39886   5.041   3.171   0.254 -1.0396 -0.4706  0.3633
11265SOL    HW139887   5.079   3.214   0.177 -1.4953 -0.4643  0.1348
11265SOL    HW239888   5.107   3.179   0.322  0.0849 -1.9566 -0.4969
11266SOL     OW39889   2.966   9.280   5.274  0.1103  0.2127  0.2128
11266SOL    HW139890   3.060   9.299   5.270  0.1674  0.0974  0.8354
11266SOL    HW239891   2.930   9.319   5.195  0.7597 -0.1787 -0.2924
11267SOL     OW39892   1.004   9.434   0.112  0.4539  0.1467 -0.2762
11267SOL    HW139893   1.045   9.426   0.198  1.7758 -2.0171 -1.0017
11267SOL    HW239894   1.053   9.503   0.068  0.9037  0.0865  0.1273
11268SOL     OW39895   2.161   3.413  10.502  0.1227 -0.0370 -0.0125
11268SOL    HW139896   2.172   3.454  10.588 -1.8448  1.5169 -0.4211
11268SOL    HW239897   2.246   3.374  10.483  0.9741  0.6324  2.0909
11269SOL     OW39898   9.917   7.793   7.710  0.2076  0.2575  0.3023
11269SOL    HW139899   9.908   7.769   7.618  2.2208 -2.5958  0.7332
11269SOL    HW239900  10.011   7.810   7.722  0.1422 -0.4118  2.0230
11270SOL     OW39901   2.881   3.585   2.100 -0.3914  0.2876  0.8788
11270SOL    HW139902   2.924   3.664   2.068  1.5370 -1.2580 -0.5781
11270SOL    HW239903   2.885   3.593   2.195  4.1009 -0.0817  0.9541
11271SOL     OW39904   8.541   0.604   8.283 -0.3285 -0.6188 -0.1899
11271SOL    HW139905   8.555   0.513   8.259  0.2672 -0.9756  1.4373
11271SOL    HW239906   8.595   0.653   8.221 -0.9638 -1.3168 -1.3354
11272SOL     OW39907   3.691   1.593   4.593  0.1715 -0.8021 -0.1701
11272SOL    HW139908   3.683   1.499   4.610 -1.3252 -0.6907 -0.0875
11272SOL    HW239909   3.605   1.629   4.616  0.4983  0.4928 -0.8555
11273SOL     OW39910   2.520   9.847   3.232 -0.6642  0.0461  0.3244
11273SOL    HW139911   2.468   9.811   3.303  0.5636 -1.7658  0.3521
11273SOL    HW239912   2.606   9.807   3.241  0.6449  2.5726 -0.0213
11274SOL     OW39913   7.347   6.828   0.165  0.1187  0.3449 -0.3355
11274SOL    HW139914   7.274   6.856   0.110  0.2898  2.0081  0.2214
11274SOL    HW239915   7.410   6.791   0.103 -0.4448  0.5442 -1.0469
11275SOL     OW39916   5.457   5.869   9.304  0.3347 -0.6320  0.0936
11275SOL    HW139917   5.414   5.784   9.315  0.4090 -1.0343 -2.2788
11275SOL    HW239918   5.522   5.854   9.235  0.0445  1.4480 -0.6877
11276SOL     OW39919   9.905   0.905   6.396  0.2380 -0.7326  0.6408
11276SOL    HW139920   9.890   0.821   6.353 -0.1707  0.3676 -1.5187
11276SOL    HW239921   9.819   0.949   6.393  1.0503  0.8783 -0.9339
11277SOL     OW39922   3.464   7.114   9.868  0.4215  0.2533 -0.3281
11277SOL    HW139923   3.396   7.177   9.848  0.4185  0.6594  0.9180
11277SOL    HW239924   3.462   7.053   9.795  0.6428  1.8571 -1.7415
11278SOL     OW39925   5.027   3.096  10.234 -0.7984  0.1278  0.1942
11278SOL    HW139926   5.115   3.106  10.199 -0.5126 -0.4480  0.7316
11278SOL    HW239927   5.035   3.027  10.300 -0.8822  2.5221  2.8900
11279SOL     OW39928   9.396  10.928   2.821 -0.0915  0.4923  0.0054
11279SOL    HW139929   9.329  10.865   2.848  0.2855  0.7249  1.5661
11279SOL    HW239930   9.458  10.929   2.893  0.3461  2.0334 -0.3683
11280SOL     OW39931   5.650   9.237  10.026 -0.0249 -0.4463 -0.5939
11280SOL    HW139932   5.573   9.270  10.072  0.8534 -0.1281  0.6935
11280SOL    HW239933   5.700   9.315  10.001  1.0873 -0.6936  0.7481
11281SOL     OW39934   3.938  10.526   1.472 -0.1431  0.4324  0.2362
11281SOL    HW139935   4.003  10.489   1.412 -0.3310  1.4221 -0.6152
11281SOL    HW239936   3.887  10.451   1.502  1.5744 -0.4173  1.1906
11282SOL     OW39937  10.731   9.442  10.540 -0.2713 -0.4824 -0.1346
11282SOL    HW139938  10.652   9.396  10.568  0.8236 -0.7123  3.0165
11282SOL    HW239939  10.743   9.511  10.606  2.3260 -0.7036 -0.2654
11283SOL     OW39940   0.885   8.657   9.149 -0.2506  0.2631 -0.0038
11283SOL    HW139941   0.964   8.710   9.137  1.6647 -2.5417 -0.8938
11283SOL    HW239942   0.901   8.609   9.231 -1.3201  0.1065  0.1192
11284SOL     OW39943   4.234  10.390   1.995  0.5568  0.1091  0.0601
11284SOL    HW139944   4.215  10.349   1.910  0.2081  1.6641 -0.6455
11284SOL    HW239945   4.328  10.406   1.993  0.6383 -0.3362  0.1982
11285SOL     OW39946   3.014   4.783  10.916 -0.0773  0.0843 -0.6866
11285SOL    HW139947   3.050   4.855  10.865 -1.7142  0.5180 -1.2891
11285SOL    HW239948   2.930   4.763  10.874 -1.0505 -0.1575  1.2534
11286SOL     OW39949  10.354   6.881   1.106 -0.6275 -0.2236 -0.0157
11286SOL    HW139950  10.341   6.796   1.064  1.9916 -0.8286  0.2172
11286SOL    HW239951  10.304   6.875   1.188  0.9770 -2.3533  0.9235
11287SOL     OW39952   1.646   2.476   0.714 -0.3292  0.3039  0.2923
11287SOL    HW139953   1.670   2.394   0.670  0.8034  0.7195  0.0867
11287SOL    HW239954   1.720   2.534   0.698  1.0778 -0.0605  4.2262
11288SOL     OW39955   1.902   9.351   0.811 -0.0341  0.6529  0.4354
11288SOL    HW139956   1.811   9.382   0.814 -0.0045  0.7087  0.7566
11288SOL    HW239957   1.914   9.320   0.721 -0.8646 -0.8576  0.8131
11289SOL     OW39958   0.197   8.049   6.941 -0.3100 -0.0818  0.6698
11289SOL    HW139959   0.275   8.046   6.997 -1.2193  1.4325  2.1158
11289SOL    HW239960   0.196   7.964   6.898  1.3920 -0.6553  1.6444
11290SOL     OW39961   0.893   3.843   0.276  0.1504  0.4399 -0.1282
11290SOL    HW139962   0.975   3.872   0.235  0.2897  0.8865  0.4550
11290SOL    HW239963   0.921   3.799   0.356 -0.1678  0.3631 -0.0603
11291SOL     OW39964   4.810   3.980   4.290 -0.1021 -0.2774 -0.2276
11291SOL    HW139965   4.855   3.913   4.239 -1.9288 -1.0404 -0.9137
11291SOL    HW239966   4.772   3.933   4.363  0.2517  0.3750  0.3933
11292SOL     OW39967   9.267   9.809   1.593  0.1321 -0.1522 -0.3329
11292SOL    HW139968   9.263   9.873   1.522 -0.9654 -0.0643 -0.2202
11292SOL    HW239969   9.288   9.860   1.671 -3.4793  0.6461  0.3014
11293SOL     OW39970   6.718   4.010   9.838  0.4836  0.7106 -0.1977
11293SOL    HW139971   6.740   4.065   9.913 -3.3784  1.4962  0.5400
11293SOL    HW239972   6.653   4.060   9.789 -0.1471 -1.5029 -1.7958
11294SOL     OW39973   2.634   3.314   3.630 -0.1076 -0.2407 -0.1186
11294SOL    HW139974   2.550   3.354   3.651 -0.0089 -1.0094  1.9919
11294SOL    HW239975   2.662   3.358   3.550 -3.0858 -0.8499 -1.6598
11295SOL     OW39976   6.989   0.010   7.016 -0.6821 -0.0071  0.2537
11295SOL    HW139977   6.923   0.080   7.015 -0.7672 -0.0836 -0.8269
11295SOL    HW239978   7.011  -0.003   6.924  0.6419 -0.1858  0.5708
11296SOL     OW39979   3.548  10.045   0.669 -0.1523  0.0536  1.2198
11296SOL    HW139980   3.457  10.033   0.645  0.4510  1.0603 -1.9904
11296SOL    HW239981   3.575  10.126   0.625  2.4847 -0.6367  1.3584
11297SOL     OW39982   5.836   6.201   0.352  0.4591 -0.6161  0.6322
11297SOL    HW139983   5.883   6.169   0.275  0.8248 -0.5126  0.8117
11297SOL    HW239984   5.886   6.168   0.426  0.0361 -0.8217  0.8284
11298SOL     OW39985   4.323   4.656   3.488 -0.3107  0.2438 -0.0390
11298SOL    HW139986   4.257   4.713   3.528  0.7328  0.3202  1.6614
11298SOL    HW239987   4.282   4.625   3.408 -2.0711  0.9843  0.5259
11299SOL     OW39988   4.466   1.331   3.054 -0.8812  0.0643 -0.2917
11299SOL    HW139989   4.532   1.398   3.075 -0.9581  0.0743 -0.0769
11299SOL    HW239990   4.496   1.253   3.101 -2.3195  0.7204  1.8892
11300SOL     OW39991  10.607   0.130   1.830 -0.2350 -0.4584  0.2548
11300SOL    HW139992  10.702   0.123   1.840  0.0584 -0.9915 -2.2708
11300SOL    HW239993  10.577   0.040   1.815 -1.1869 -0.3185  1.1776
11301SOL     OW39994   2.582   7.779   1.228  0.5688  0.3691 -0.1314
11301SOL    HW139995   2.599   7.746   1.316  0.5074  0.9360  0.1029
11301SOL    HW239996   2.668   7.799   1.192  0.5816  0.3399 -0.1166
11302SOL     OW39997   0.611   0.592   6.559 -0.6324  0.0214 -0.0615
11302SOL    HW139998   0.520   0.572   6.584 -1.1892  1.0623 -1.1495
11302SOL    HW239999   0.632   0.529   6.490 -0.4445 -0.3497  0.3282
11303SOL     OW40000   2.420   6.598  10.477 -0.0387  0.1852  0.1856
11303SOL    HW140001   2.403   6.504  10.469  1.3861  0.0019 -1.0280
11303SOL    HW240002   2.349   6.630  10.533 -1.7964 -1.2195 -1.1276
11304SOL     OW40003   9.913   1.197   6.997 -0.0373 -0.3716 -0.4876
11304SOL    HW140004   9.990   1.249   7.021  0.9078 -1.1506 -1.6866
11304SOL    HW240005   9.939   1.106   7.014 -1.2762 -0.5524  0.5558
11305SOL     OW40006   6.877   9.750   9.389  0.2330  0.2340 -1.2162
11305SOL    HW140007   6.865   9.695   9.467 -0.9511  0.9450 -0.8722
11305SOL    HW240008   6.829   9.705   9.320  0.0616  0.3411 -1.1684
11306SOL     OW40009  10.098   1.472   7.729  0.0347 -0.1456  0.5913
11306SOL    HW140010  10.094   1.473   7.633  1.6557  1.4808  0.4775
11306SOL    HW240011  10.098   1.565   7.753  0.1490 -0.5262  2.1303
11307SOL     OW40012   4.181   3.620   9.966 -0.3411 -0.0139  0.1463
11307SOL    HW140013   4.236   3.611  10.043  0.5933  1.9701 -0.2213
11307SOL    HW240014   4.168   3.715   9.957 -1.2085 -0.2602 -1.5874
11308SOL     OW40015   4.495   3.255   3.943 -0.2046  0.2570  0.1518
11308SOL    HW140016   4.544   3.232   4.022 -0.7630 -1.4250  0.0447
11308SOL    HW240017   4.418   3.199   3.946 -1.2710  1.6365 -0.5672
11309SOL     OW40018   3.725   3.210  10.684 -0.0628 -0.2140  0.3696
11309SOL    HW140019   3.631   3.202  10.702  0.1047 -0.8486  1.0410
11309SOL    HW240020   3.742   3.144  10.617 -0.6482  2.0150 -2.1625
11310SOL     OW40021   9.323   6.118   7.344  0.5600 -0.1411 -0.0201
11310SOL    HW140022   9.369   6.148   7.266 -1.4007  0.2820 -1.0631
11310SOL    HW240023   9.305   6.025   7.328 -2.0692  0.4981 -1.3104
11311SOL     OW40024   6.994   8.445   4.901  0.1691 -0.3003  0.0256
11311SOL    HW140025   7.078   8.457   4.856 -0.1696 -0.5724 -0.6885
11311SOL    HW240026   6.961   8.533   4.915  0.8683 -0.1599  0.8906
11312SOL     OW40027   5.589   1.500  10.816 -0.4620  0.5671  0.4930
11312SOL    HW140028   5.619   1.529  10.903  1.1245 -0.5505  0.3647
11312SOL    HW240029   5.628   1.413  10.805  0.0987  1.0348 -1.6995
11313SOL     OW40030   6.512   6.878   7.667  0.1571 -0.0839 -0.0642
11313SOL    HW140031   6.579   6.869   7.734 -0.3101 -0.6631  0.3438
11313SOL    HW240032   6.431   6.854   7.711 -0.3165  0.5691 -0.5579
11314SOL     OW40033   3.786   3.439   2.816 -0.3334  0.4487  0.0675
11314SOL    HW140034   3.760   3.443   2.724 -0.1411 -0.8270 -0.0583
11314SOL    HW240035   3.821   3.350   2.828  0.3205  0.8320  1.1938
11315SOL     OW40036   3.336   7.448   8.735 -0.1014  0.2592 -0.9810
11315SOL    HW140037   3.297   7.504   8.802  1.2488  1.7786 -1.3719
11315SOL    HW240038   3.399   7.506   8.690  1.4198 -1.6027 -1.3844
11316SOL     OW40039  10.443   9.899   8.723  0.1891  0.2635 -0.2035
11316SOL    HW140040  10.472   9.830   8.664  2.5341  1.1570 -0.1976
11316SOL    HW240041  10.479   9.874   8.808  0.1657  0.9527  0.0117
11317SOL     OW40042  10.763   3.736   7.747  0.1957  0.4386 -0.1091
11317SOL    HW140043  10.777   3.683   7.668  0.0969 -2.2228  1.5573
11317SOL    HW240044  10.672   3.723   7.769 -0.2774  2.6475 -0.4665
11318SOL     OW40045   2.960   4.601   9.517  0.0703  0.1366 -0.2619
11318SOL    HW140046   2.984   4.681   9.471  0.2676  0.2180 -0.0227
11318SOL    HW240047   2.895   4.628   9.582 -0.3586 -0.0122 -0.6227
11319SOL     OW40048   8.532  10.154   3.066 -0.2803  0.0401 -0.1075
11319SOL    HW140049   8.514  10.214   3.138 -0.7323 -2.2132  1.7825
11319SOL    HW240050   8.628  10.151   3.061 -0.0664 -2.1237  2.6701
11320SOL     OW40051   8.160   6.330   6.458 -0.2981 -0.4058 -0.3982
11320SOL    HW140052   8.139   6.422   6.445  0.1495 -0.3057 -0.4474
11320SOL    HW240053   8.252   6.330   6.485 -1.0439 -0.6233  2.4439
11321SOL     OW40054   6.133   7.237   6.883 -0.3025 -0.5443  0.1283
11321SOL    HW140055   6.107   7.281   6.802 -0.2788 -2.0844 -0.7559
11321SOL    HW240056   6.094   7.290   6.953  0.2736  1.2130 -0.8366
11322SOL     OW40057   4.880   4.688   8.946 -0.2258  0.0017 -0.2657
11322SOL    HW140058   4.819   4.624   8.911  0.4982 -0.4989 -0.6270
11322SOL    HW240059   4.839   4.720   9.027 -0.4646 -1.1201  0.0645
11323SOL     OW40060   8.003   8.993   9.053  0.0057 -0.4296  0.4030
11323SOL    HW140061   7.936   8.984   8.985 -1.3644  0.4769  1.5604
11323SOL    HW240062   8.073   9.042   9.012 -1.0767  0.6618 -0.2013
11324SOL     OW40063   5.670   1.269   0.465 -0.3746 -0.0902  0.0403
11324SOL    HW140064   5.637   1.264   0.375  3.6278 -1.8468 -1.5501
11324SOL    HW240065   5.653   1.181   0.501 -2.4645  0.7676  1.3210
11325SOL     OW40066   9.362   1.271   4.240 -0.3155  0.1579  0.1542
11325SOL    HW140067   9.328   1.217   4.169 -0.1118 -0.2234  0.3380
11325SOL    HW240068   9.444   1.228   4.265 -0.5774  0.0562  0.8718
11326SOL     OW40069   5.717   0.072   1.191  0.1442  0.4849  0.2493
11326SOL    HW140070   5.632   0.028   1.193  0.1733  0.4430  1.1589
11326SOL    HW240071   5.779   0.007   1.223  0.3369  0.8669  0.6818
11327SOL     OW40072   0.780   2.544   6.517  0.5809  0.2429 -0.2028
11327SOL    HW140073   0.768   2.462   6.470  0.8751  0.1485 -0.1139
11327SOL    HW240074   0.761   2.612   6.453 -2.4457  0.1282  0.4033
11328SOL     OW40075   1.347   1.640   3.609 -0.0195 -0.3342  0.1462
11328SOL    HW140076   1.363   1.655   3.516 -2.1139 -0.9040 -0.3688
11328SOL    HW240077   1.375   1.549   3.623  1.2703  0.0747  0.3539
11329SOL     OW40078   5.524   4.998   4.872  0.1005 -0.2290 -0.6741
11329SOL    HW140079   5.468   4.965   4.802  0.6361  1.4436 -1.9656
11329SOL    HW240080   5.612   4.994   4.835  0.5266 -0.3198  0.3277
11330SOL     OW40081   8.972   9.717   5.740  0.0958  0.4247  0.0752
11330SOL    HW140082   8.951   9.739   5.649  1.0758  3.5608  0.5052
11330SOL    HW240083   9.067   9.705   5.740 -0.1213 -1.6805  0.3650
11331SOL     OW40084  10.558   0.564   8.074 -0.0363  0.6945 -0.0464
11331SOL    HW140085  10.529   0.497   8.135 -0.3254  1.2379  0.4264
11331SOL    HW240086  10.483   0.623   8.066 -0.1462  0.4176 -1.2393
11332SOL     OW40087   5.065   6.198   2.978 -0.2342  0.1941  0.1929
11332SOL    HW140088   4.985   6.151   2.953  1.5585 -2.6463 -0.7801
11332SOL    HW240089   5.091   6.244   2.898  1.0840 -2.1087 -0.8039
11333SOL     OW40090   3.274   6.753   9.699 -0.4704 -0.4907  0.5120
11333SOL    HW140091   3.294   6.696   9.625  0.7314 -0.3258  0.6879
11333SOL    HW240092   3.216   6.820   9.663  1.6897  0.7780 -0.8265
11334SOL     OW40093   3.652   9.454   5.238 -0.0360 -0.5608  0.7134
11334SOL    HW140094   3.710   9.412   5.302 -0.4678 -3.1155 -0.4777
11334SOL    HW240095   3.712   9.495   5.175  0.3932 -0.0220  1.4490
11335SOL     OW40096   3.489   2.744   9.812 -0.4191 -0.0221  0.2557
11335SOL    HW140097   3.483   2.826   9.861  0.7594  1.0054 -1.1723
11335SOL    HW240098   3.581   2.719   9.819 -0.3215 -0.1010 -0.9477
11336SOL     OW40099   7.359   8.416   5.890 -0.1361  0.3338  0.4910
11336SOL    HW140100   7.414   8.489   5.859  1.3544 -1.3396 -1.0723
11336SOL    HW240101   7.323   8.378   5.810 -1.3970 -0.2946  1.3232
11337SOL     OW40102   0.626   0.318   9.072 -0.2090 -0.4956 -0.0821
11337SOL    HW140103   0.669   0.235   9.096  1.6997  0.4034 -0.1782
11337SOL    HW240104   0.592   0.352   9.154  0.5486 -0.5632  0.2741
11338SOL     OW40105   3.814   3.950   0.308  0.2033 -0.0565  0.3117
11338SOL    HW140106   3.887   4.004   0.337 -1.9418  2.9437  0.6002
11338SOL    HW240107   3.776   3.915   0.388 -0.0175  0.3046  0.3691
11339SOL     OW40108   9.551   9.483   7.653  0.3984 -0.5027  0.9402
11339SOL    HW140109   9.559   9.453   7.744  0.7831 -1.5325  0.5828
11339SOL    HW240110   9.507   9.410   7.608  1.6277 -0.6766 -0.0272
11340SOL     OW40111   3.220   9.052   9.294 -1.0109  0.4050 -0.0970
11340SOL    HW140112   3.136   9.096   9.283 -0.6787  0.7852 -1.3644
11340SOL    HW240113   3.283   9.112   9.254 -0.2543 -0.2495  0.0843
11341SOL     OW40114   6.920   7.473   5.322 -0.2546 -0.3447 -0.2652
11341SOL    HW140115   6.938   7.549   5.377 -0.9690  1.0074 -1.8177
11341SOL    HW240116   6.834   7.490   5.285  1.0720 -0.0868 -3.4996
11342SOL     OW40117   3.735  10.169   8.702 -0.5537 -0.5923 -0.3924
11342SOL    HW140118   3.829  10.185   8.689 -0.0376 -2.3359  0.7093
11342SOL    HW240119   3.702  10.148   8.615 -0.1775  1.0522 -0.9696
11343SOL     OW40120  10.866   8.775   4.152  0.2976 -0.6100  0.6118
11343SOL    HW140121  10.876   8.796   4.245 -2.8027  1.3911  0.6474
11343SOL    HW240122  10.798   8.707   4.150  0.9578 -1.2599 -0.1667
11344SOL     OW40123   9.622   2.196   8.579 -0.0278  0.3185  0.1170
11344SOL    HW140124   9.709   2.157   8.570 -0.6674 -0.8063 -2.0160
11344SOL    HW240125   9.566   2.139   8.526 -2.2062  0.6277  1.9890
11345SOL     OW40126   8.228   5.278   7.873 -0.2436  0.2793 -0.3866
11345SOL    HW140127   8.145   5.287   7.920  0.5070  0.8624  0.8732
11345SOL    HW240128   8.295   5.284   7.941  0.8161 -0.9603 -1.2885
11346SOL     OW40129   5.174   9.597   6.827  0.8182 -0.0110  0.3499
11346SOL    HW140130   5.212   9.509   6.827  1.9822  0.4659  0.6613
11346SOL    HW240131   5.191   9.630   6.738  1.9298  0.5087  0.7326
11347SOL     OW40132   0.443   9.627   7.109  0.1768  0.2729  0.6162
11347SOL    HW140133   0.519   9.569   7.100  1.3418  1.7210  0.8535
11347SOL    HW240134   0.379   9.574   7.156  1.9611 -0.1602  2.7048
11348SOL     OW40135   5.138   4.302   0.064  0.3511 -0.3794  0.7716
11348SOL    HW140136   5.077   4.361   0.109  1.4343  0.6718  0.9293
11348SOL    HW240137   5.093   4.277  -0.017 -0.2660  0.4062  0.8632
11349SOL     OW40138  10.459   1.189   5.537 -0.0751 -0.9506 -1.0434
11349SOL    HW140139  10.375   1.221   5.505  0.1081  2.4839  1.2794
11349SOL    HW240140  10.448   1.095   5.546 -3.4748 -0.7117 -1.3866
11350SOL     OW40141   3.382   9.427   1.991  0.0406 -0.2453  1.2299
11350SOL    HW140142   3.354   9.515   1.965 -0.7890 -0.7388  0.4342
11350SOL    HW240143   3.395   9.380   1.909  2.0505 -0.4203  1.5902
11351SOL     OW40144   3.177   0.045  10.062  0.4567 -0.2403  0.0412
11351SOL    HW140145   3.226  -0.010  10.001  1.3463  0.7635 -0.1741
11351SOL    HW240146   3.089   0.052  10.023  0.4561 -1.1467 -0.1356
11352SOL     OW40147   0.718   4.118   4.157  0.1477 -0.5039  0.1161
11352SOL    HW140148   0.756   4.070   4.230  0.4277 -0.6130 -0.0991
11352SOL    HW240149   0.628   4.086   4.152  0.0181 -0.2292  0.6410
11353SOL     OW40150   1.054   6.409   1.401  0.5402  0.4209 -0.4223
11353SOL    HW140151   1.127   6.446   1.450 -1.4083  0.1833  2.9867
11353SOL    HW240152   1.029   6.331   1.451 -1.7437  0.2331 -1.7154
11354SOL     OW40153   5.764   9.094   2.149  0.3858 -0.5159 -0.4840
11354SOL    HW140154   5.719   9.083   2.232 -0.1889  1.2243 -0.5138
11354SOL    HW240155   5.838   9.035   2.153  1.2399  0.6032  1.9317
11355SOL     OW40156   2.594   0.106   8.948 -0.1829 -0.6160  0.4780
11355SOL    HW140157   2.511   0.078   8.910  0.5554 -0.2849 -1.5480
11355SOL    HW240158   2.628   0.170   8.886  2.1557 -1.6820  0.5472
11356SOL     OW40159   8.844   8.941   1.966  0.4181 -0.2759 -0.0769
11356SOL    HW140160   8.757   8.974   1.985  0.0918 -1.5604  0.7752
11356SOL    HW240161   8.839   8.848   1.986  1.8577 -0.4631 -0.4807
11357SOL     OW40162   6.497   3.049   4.913  0.1254 -0.0051  0.0593
11357SOL    HW140163   6.548   3.116   4.960  1.5981 -0.5444 -0.6754
11357SOL    HW240164   6.560   2.978   4.897 -0.9804 -0.8753 -0.5657
11358SOL     OW40165   0.278   0.508   9.755  0.0649  0.1855  0.3243
11358SOL    HW140166   0.284   0.527   9.661 -1.9989 -1.2718 -0.1731
11358SOL    HW240167   0.331   0.429   9.767 -0.6831 -0.3722  0.0894
11359SOL     OW40168   8.190   9.207   8.921 -0.1435  0.0104 -0.3196
11359SOL    HW140169   8.232   9.128   8.887  0.5663 -0.3733  1.3657
11359SOL    HW240170   8.224   9.217   9.010 -0.3653  2.1045 -0.4034
11360SOL     OW40171   0.695  10.292   3.211 -0.2385  0.5030  0.3069
11360SOL    HW140172   0.623  10.336   3.257  0.1210  1.2119  0.2078
11360SOL    HW240173   0.740  10.242   3.279  0.0588  1.2402  0.6541
11361SOL     OW40174   8.793   2.146   9.328  0.1035  0.2343 -0.3357
11361SOL    HW140175   8.721   2.140   9.265 -1.5225  1.2791  1.3117
11361SOL    HW240176   8.817   2.239   9.327 -0.5919  0.4598  1.2097
11362SOL     OW40177   1.764   8.234   2.605  0.0720 -0.0857 -0.1730
11362SOL    HW140178   1.747   8.234   2.699 -0.9825  0.1936 -0.3545
11362SOL    HW240179   1.677   8.231   2.564  0.5279 -0.6819 -1.1373
11363SOL     OW40180   5.049  10.548  10.273  0.0702  0.2540 -0.5995
11363SOL    HW140181   5.096  10.496  10.338 -0.9815 -0.4259 -0.3537
11363SOL    HW240182   5.040  10.489  10.198 -0.7336  0.2343 -0.4910
11364SOL     OW40183   9.890   7.243   6.912  0.0435 -0.2157  0.3771
11364SOL    HW140184   9.934   7.168   6.873  0.1819 -0.4085  0.8870
11364SOL    HW240185   9.923   7.246   7.002 -1.3206 -0.6513  0.9147
11365SOL     OW40186  10.812   5.426   0.470 -0.2196  0.4177  0.4684
11365SOL    HW140187  10.902   5.455   0.488  0.0269 -1.0180  1.8176
11365SOL    HW240188  10.787   5.377   0.548 -1.5993 -0.5899 -0.5522
11366SOL     OW40189   5.393   5.537  10.672  0.0887 -0.1800  0.4010
11366SOL    HW140190   5.341   5.606  10.714 -0.5024 -0.0442 -0.5302
11366SOL    HW240191   5.429   5.487  10.746  0.9044  1.3648  1.1117
11367SOL     OW40192   4.519   4.827   3.200 -0.2783 -0.1137  0.0092
11367SOL    HW140193   4.544   4.914   3.168 -0.5464  0.4735  1.3230
11367SOL    HW240194   4.449   4.843   3.263 -0.1703 -1.2615  0.4563
11368SOL     OW40195   9.859   1.249  10.572 -0.4575  0.0697  0.7760
11368SOL    HW140196   9.910   1.329  10.562 -0.1945  0.1829  2.7138
11368SOL    HW240197   9.883   1.196  10.496 -1.0898  2.0234 -0.8933
11369SOL     OW40198   2.046   6.673   7.426  0.0450  0.0701  0.8269
11369SOL    HW140199   2.060   6.600   7.366  1.0348  0.0870  1.0247
11369SOL    HW240200   2.034   6.749   7.368 -0.3728 -0.1386  0.6332
11370SOL     OW40201   1.760   9.839   2.185 -0.1263  0.0473 -0.2915
11370SOL    HW140202   1.806   9.853   2.267  0.9688  0.7759 -1.0130
11370SOL    HW240203   1.703   9.764   2.202  1.1402 -0.7180  0.6972
11371SOL     OW40204   5.672   8.870   7.212  0.5743 -0.8560  1.0373
11371SOL    HW140205   5.725   8.875   7.132 -1.1720 -0.6724 -0.1709
11371SOL    HW240206   5.627   8.786   7.206 -2.1338  0.5377  0.0376
11372SOL     OW40207   3.621   7.498   4.304  0.2260  0.3068  0.3375
11372SOL    HW140208   3.685   7.535   4.364 -0.0065  2.9254 -0.8786
11372SOL    HW240209   3.538   7.503   4.351  0.3664  0.3366  0.5828
11373SOL     OW40210   8.387   1.912   1.159 -0.2270 -0.1508 -0.1472
11373SOL    HW140211   8.306   1.902   1.210 -1.0625  0.5510 -1.2954
11373SOL    HW240212   8.357   1.921   1.069  1.1669 -0.1826 -0.6273
11374SOL     OW40213   4.018   8.244   7.525 -0.5166  0.3658 -0.5886
11374SOL    HW140214   4.009   8.148   7.526  1.7938 -0.0367  3.1830
11374SOL    HW240215   4.112   8.258   7.515 -0.6769  2.1676  0.1569
11375SOL     OW40216  10.534   8.746   2.224 -0.0548 -0.1878  0.2230
11375SOL    HW140217  10.490   8.748   2.139 -1.2900  0.2463  0.8481
11375SOL    HW240218  10.483   8.807   2.279  0.9265 -0.1904  1.1698
11376SOL     OW40219  10.152   2.886   6.352 -0.0004  0.7928 -0.2757
11376SOL    HW140220  10.163   2.981   6.344  0.6990  0.9749  2.0489
11376SOL    HW240221  10.090   2.875   6.424 -0.8064 -0.5473 -1.1204
11377SOL     OW40222   0.233   2.954   6.753  0.1963 -0.2980  0.6908
11377SOL    HW140223   0.303   2.988   6.697 -0.1837 -1.3080 -0.4386
11377SOL    HW240224   0.209   2.871   6.713  0.3062 -1.3451  2.7030
11378SOL     OW40225   6.327   4.579   7.397 -0.5292  0.4057  0.4744
11378SOL    HW140226   6.270   4.556   7.471 -0.6759 -0.6204  0.0555
11378SOL    HW240227   6.389   4.641   7.434 -1.0829  0.5038  1.2739
11379SOL     OW40228   6.689   5.817   9.239 -0.5004 -0.4124 -0.2654
11379SOL    HW140229   6.673   5.775   9.323 -1.5959  0.0403 -0.2366
11379SOL    HW240230   6.602   5.828   9.200 -0.1127  0.4851 -0.9141
11380SOL     OW40231   2.080   3.939   9.080  0.0345  0.0137 -0.1436
11380SOL    HW140232   2.083   3.887   8.999  1.5375 -1.7359  0.9319
11380SOL    HW240233   2.145   4.008   9.067 -0.8813  0.7334 -1.0126
11381SOL     OW40234   4.668   1.869   7.613  0.1502 -0.0558 -0.3282
11381SOL    HW140235   4.683   1.905   7.526  1.5744 -0.1392 -0.1301
11381SOL    HW240236   4.621   1.787   7.597  1.2604 -0.5672 -1.0958
11382SOL     OW40237   6.330  10.828   4.498  0.0269 -0.1290 -0.2340
11382SOL    HW140238   6.305  10.913   4.462  0.0030 -0.0633 -0.0673
11382SOL    HW240239   6.255  10.772   4.483 -0.1628  0.0243  0.1272
11383SOL     OW40240   9.962   5.188   0.970 -0.1828 -0.4899 -0.1809
11383SOL    HW140241   9.931   5.187   0.880  0.7302 -1.6685 -0.5053
11383SOL    HW240242  10.040   5.132   0.970  1.2595  1.4031  0.8540
11384SOL     OW40243   8.201   0.516   6.259  0.1867 -0.3087 -0.0727
11384SOL    HW140244   8.214   0.579   6.188  0.9501 -1.3177 -0.8740
11384SOL    HW240245   8.158   0.565   6.328 -1.1713  0.5673 -1.4772
11385SOL     OW40246   0.691   3.901   1.920 -0.1763  0.1717  0.1340
11385SOL    HW140247   0.692   3.996   1.931  0.3129  0.5432 -2.4853
11385SOL    HW240248   0.783   3.875   1.926 -0.3622 -0.2908  1.5079
11386SOL     OW40249   6.822   7.726   4.115 -0.2439  0.5172 -0.3411
11386SOL    HW140250   6.831   7.744   4.208 -0.3827 -1.0521  0.0078
11386SOL    HW240251   6.911   7.727   4.081 -0.3330  3.7264 -0.7945
11387SOL     OW40252   1.751   1.100   0.375 -0.2766  0.4128 -0.4418
11387SOL    HW140253   1.843   1.077   0.365 -0.4316 -0.3891 -0.1227
11387SOL    HW240254   1.752   1.174   0.437  0.0170 -1.3418  1.7878
11388SOL     OW40255   6.963   8.721   8.440 -0.2119 -0.3784 -0.2664
11388SOL    HW140256   6.967   8.816   8.426 -0.7383 -0.5353 -1.6694
11388SOL    HW240257   7.018   8.685   8.371  0.3052 -1.0953  0.5037
11389SOL     OW40258   2.590   4.284   2.336  0.7227  0.0287 -0.0745
11389SOL    HW140259   2.519   4.318   2.281  1.3672  0.2125 -0.8107
11389SOL    HW240260   2.616   4.202   2.294 -0.7257 -1.3750  1.6127
11390SOL     OW40261   7.546   5.643   4.158 -1.0204  0.4125 -0.9055
11390SOL    HW140262   7.611   5.586   4.201 -2.0176 -1.6412 -1.9689
11390SOL    HW240263   7.598   5.698   4.099 -0.0303  0.5443  0.0457
11391SOL     OW40264   6.419   7.685   0.111  0.3190 -0.0997  0.8649
11391SOL    HW140265   6.391   7.764   0.156 -0.4458 -1.7123  3.4956
11391SOL    HW240266   6.512   7.699   0.093  0.1673  1.4401  1.1787
11392SOL     OW40267   5.961   6.758   8.066 -0.0950  0.2144  0.3117
11392SOL    HW140268   5.867   6.746   8.078  0.0982 -0.7657  0.9964
11392SOL    HW240269   5.986   6.689   8.005  0.2044  0.3718  0.2577
11393SOL     OW40270   6.385   4.171   4.206 -0.1566 -0.1265  0.1858
11393SOL    HW140271   6.292   4.150   4.202 -0.6919  2.1049 -2.8750
11393SOL    HW240272   6.407   4.168   4.299 -3.3915 -0.2656  1.0510
11394SOL     OW40273  10.698   0.034   9.476 -0.1936 -0.0278  0.6257
11394SOL    HW140274  10.739   0.077   9.400 -0.7918  0.3758  0.5270
11394SOL    HW240275  10.743   0.072   9.551  2.3267 -2.3634  0.4637
11395SOL     OW40276  10.313   7.633   7.271 -0.4968  0.5845  0.2138
11395SOL    HW140277  10.393   7.684   7.279 -1.0887  1.4160  1.1148
11395SOL    HW240278  10.280   7.625   7.361 -1.4012  0.2216 -0.1307
11396SOL     OW40279   6.463   1.765   2.690 -0.0114  0.3947  0.1001
11396SOL    HW140280   6.505   1.834   2.638  0.1345  0.5565  0.4306
11396SOL    HW240281   6.532   1.733   2.748 -0.0285 -0.1579 -0.1774
11397SOL     OW40282   9.450   7.021   0.210 -0.1550 -0.0871  0.4272
11397SOL    HW140283   9.536   7.044   0.175 -0.3869 -0.6364 -0.5383
11397SOL    HW240284   9.467   6.953   0.275  0.4938  2.3214  2.9791
11398SOL     OW40285   9.546   0.137   7.148  0.1229 -0.0576 -0.2971
11398SOL    HW140286   9.616   0.198   7.123 -0.7492  0.9294 -0.4360
11398SOL    HW240287   9.547   0.138   7.244  0.1417  0.1454 -0.2986
11399SOL     OW40288   4.255   8.085   2.247 -0.2772  0.0119 -0.1332
11399SOL    HW140289   4.260   8.162   2.304  1.1287  0.7083 -1.1443
11399SOL    HW240290   4.344   8.050   2.246 -0.5390 -0.6686 -0.9895
11400SOL     OW40291   1.558   0.877   6.178 -0.2891  1.0992  0.3329
11400SOL    HW140292   1.564   0.937   6.103  3.1024 -0.1107 -0.4996
11400SOL    HW240293   1.503   0.806   6.146 -2.4511  2.5584  0.5619
11401SOL     OW40294   8.687   8.377   0.555  0.6892 -0.3741  0.1614
11401SOL    HW140295   8.753   8.308   0.565  0.0971 -0.6939  2.1759
11401SOL    HW240296   8.604   8.333   0.572  0.1617  0.5173 -0.0548
11402SOL     OW40297   6.824   0.206   8.290  0.4139  0.0680 -0.2542
11402SOL    HW140298   6.911   0.245   8.286 -0.1469  1.3113 -2.9434
11402SOL    HW240299   6.766   0.280   8.309 -0.0239 -0.9735  2.9546
11403SOL     OW40300   3.723   9.478   1.437  0.3880  0.2477  0.3381
11403SOL    HW140301   3.742   9.386   1.454  2.4275  0.3170 -1.1826
11403SOL    HW240302   3.805   9.524   1.458  0.2725  1.3403 -1.4185
11404SOL     OW40303   6.673   2.726   5.206 -0.0438  0.0580 -0.5021
11404SOL    HW140304   6.611   2.701   5.274  1.1578  0.5009  0.8056
11404SOL    HW240305   6.740   2.777   5.252  0.8716  0.2678 -1.9994
11405SOL     OW40306   1.874   7.903  10.581 -0.2183  0.0483 -0.1981
11405SOL    HW140307   1.897   7.959  10.507 -1.1661 -0.0456 -0.5849
11405SOL    HW240308   1.787   7.934  10.607  0.5208  0.7924  1.5678
11406SOL     OW40309   3.494   4.973   2.478 -0.3686  0.4502  0.5047
11406SOL    HW140310   3.434   4.900   2.495 -0.2583 -0.3283 -2.0563
11406SOL    HW240311   3.489   4.987   2.384  0.3521  3.1642  0.7840
11407SOL     OW40312   3.087   8.484  10.001 -0.0275  0.1499  0.4325
11407SOL    HW140313   3.065   8.429   9.926  0.8818 -0.7763  0.8171
11407SOL    HW240314   3.113   8.567   9.963 -0.5660  0.0347 -0.2113
11408SOL     OW40315   7.761   5.187   0.563 -0.1732  0.1498 -0.9603
11408SOL    HW140316   7.741   5.274   0.528 -0.7458 -0.0577 -1.1778
11408SOL    HW240317   7.820   5.203   0.636 -0.2324  0.7167 -1.0289
11409SOL     OW40318   2.974   0.154   1.728  0.1659 -0.0401  0.4138
11409SOL    HW140319   2.964   0.165   1.823  1.6244  0.3806  0.5353
11409SOL    HW240320   2.921   0.225   1.691  0.4341  0.4563  0.9475
11410SOL     OW40321   7.286   2.552   7.634  0.1078 -0.3395  0.5897
11410SOL    HW140322   7.276   2.647   7.627  0.9231 -0.2718  0.1221
11410SOL    HW240323   7.217   2.516   7.578  0.4621  0.0151 -0.0932
11411SOL     OW40324   0.103   6.486   0.258 -0.0093 -0.2872 -1.1297
11411SOL    HW140325   0.010   6.509   0.267  0.1471  0.0256 -0.1938
11411SOL    HW240326   0.103   6.413   0.197 -0.9867 -1.0535 -0.2561
11412SOL     OW40327   4.397  10.095   6.971 -0.0829 -0.0781  0.3109
11412SOL    HW140328   4.423  10.127   7.057 -0.9260  0.7585  0.2706
11412SOL    HW240329   4.372  10.174   6.922 -0.9135 -0.6657 -0.2481
11413SOL     OW40330   2.956   5.111   5.618  0.1608 -0.3214  0.0310
11413SOL    HW140331   2.959   5.078   5.528  0.7433  0.7168 -0.3480
11413SOL    HW240332   2.864   5.103   5.643 -0.7923  2.7131 -1.9778
11414SOL     OW40333   0.300   7.942  10.599  0.1545 -0.2929 -0.5925
11414SOL    HW140334   0.274   7.876  10.663 -2.9821  0.3649 -1.0027
11414SOL    HW240335   0.356   7.895  10.537  1.1558 -1.5489  1.1866
11415SOL     OW40336  10.282   8.251   3.839  0.1434 -0.0334 -0.4209
11415SOL    HW140337  10.275   8.158   3.857  0.0646  0.3957  2.1438
11415SOL    HW240338  10.232   8.293   3.909 -0.3153  1.9252 -1.8445
11416SOL     OW40339   4.434   4.610   6.199  0.0480  0.5730 -0.7637
11416SOL    HW140340   4.418   4.669   6.273  0.4035 -0.4805  0.1897
11416SOL    HW240341   4.356   4.554   6.195  0.1208  0.4895 -1.0534
11417SOL     OW40342   0.684   0.572   0.228  0.1860  0.5170  0.0824
11417SOL    HW140343   0.693   0.556   0.134  0.5456 -0.4931  0.2741
11417SOL    HW240344   0.650   0.661   0.234 -1.1582  0.1172 -1.0457
11418SOL     OW40345   8.036   0.994   3.761 -0.2302  0.4989 -0.3034
11418SOL    HW140346   8.094   1.064   3.791  0.3817  1.1552 -2.7622
11418SOL    HW240347   8.090   0.915   3.762  0.4137  0.8960 -1.5053
11419SOL     OW40348   7.166   6.872   1.055  0.5690  0.0695 -0.4109
11419SOL    HW140349   7.155   6.796   1.113 -1.7831  1.8666  1.7259
11419SOL    HW240350   7.250   6.857   1.012  1.6338 -2.2727  2.1585
11420SOL     OW40351   2.928   0.027   2.896  0.2783  0.6009 -0.8766
11420SOL    HW140352   3.021   0.015   2.917  0.2508  1.1244 -0.4536
11420SOL    HW240353   2.929   0.061   2.806  0.4039 -1.3372 -1.6636
11421SOL     OW40354   1.279   9.605   6.178 -0.7908 -0.2788  0.2371
11421SOL    HW140355   1.313   9.638   6.095  0.4624 -0.1508  0.7773
11421SOL    HW240356   1.220   9.674   6.208  0.1673  0.5281  0.3275
11422SOL     OW40357   6.947   3.656   2.906 -0.0832  0.1074 -0.7450
11422SOL    HW140358   6.953   3.705   2.825  1.9932 -1.2938 -1.5266
11422SOL    HW240359   7.007   3.700   2.966 -0.6230  0.3754 -0.3967
11423SOL     OW40360   8.322   1.906   9.727 -0.3101 -0.0705 -0.3750
11423SOL    HW140361   8.376   1.879   9.802 -1.5512  0.2306  0.6567
11423SOL    HW240362   8.313   1.827   9.674  1.7406  0.0396 -0.9815
11424SOL     OW40363   1.704   4.287   7.186 -0.1509 -0.5650 -0.3228
11424SOL    HW140364   1.619   4.288   7.143 -1.1508 -3.3715  1.2883
11424SOL    HW240365   1.716   4.375   7.220 -0.9023  0.7496 -3.2230
11425SOL     OW40366   6.566   5.178   5.809  0.1188  0.6281 -1.1685
11425SOL    HW140367   6.588   5.199   5.718  1.4149  1.5171 -0.6744
11425SOL    HW240368   6.633   5.115   5.837  0.2379  1.0062 -0.5800
11426SOL     OW40369   9.252   2.592  10.741  0.4938  0.0788 -0.1127
11426SOL    HW140370   9.277   2.683  10.754  2.0198 -0.1206 -1.3062
11426SOL    HW240371   9.296   2.545  10.812 -1.1816  0.3623  1.1587
11427SOL     OW40372   7.174   8.728   6.899  0.0507 -0.3806  0.2456
11427SOL    HW140373   7.096   8.673   6.892  0.2430 -0.4857 -1.4839
11427SOL    HW240374   7.164   8.793   6.831  1.7313 -0.7428 -0.3962
11428SOL     OW40375   0.010   8.606   6.374 -0.5905  0.3302  0.2610
11428SOL    HW140376   0.019   8.619   6.280 -0.0521  1.1617  0.4149
11428SOL    HW240377  -0.065   8.548   6.384 -1.2846  1.0541 -0.6416
11429SOL     OW40378   3.248  10.494  10.787 -0.3898  0.1265 -0.3647
11429SOL    HW140379   3.253  10.540  10.871  0.6617 -0.1341 -0.2760
11429SOL    HW240380   3.251  10.563  10.722  0.4941  0.2395 -0.2159
11430SOL     OW40381   8.017   4.224   0.214  0.1440  0.0984  0.5352
11430SOL    HW140382   8.088   4.180   0.262  0.2323  1.0630  1.3145
11430SOL    HW240383   7.960   4.152   0.186  0.4967 -0.5634  1.4356
11431SOL     OW40384   1.776   4.322   4.180 -0.1952  0.1118  0.4097
11431SOL    HW140385   1.727   4.377   4.119 -0.8388  0.5620  1.3168
11431SOL    HW240386   1.868   4.338   4.157 -0.3885  1.1161  0.2641
11432SOL     OW40387   7.729   6.917   3.244  0.0997  0.2823  0.3714
11432SOL    HW140388   7.690   6.932   3.158  1.8014  0.7196 -0.3650
11432SOL    HW240389   7.667   6.860   3.289 -0.8394  0.0623 -1.1353
11433SOL     OW40390   6.282   0.213   7.595  0.2061 -0.2886 -0.2576
11433SOL    HW140391   6.204   0.268   7.593  0.6000  0.5050  2.5787
11433SOL    HW240392   6.254   0.129   7.559 -1.7956  0.1431  0.2072
11434SOL     OW40393  10.877   9.908  10.380 -0.1231 -0.0906  0.0187
11434SOL    HW140394  10.872   9.996  10.343  0.6981 -0.7213 -1.7208
11434SOL    HW240395  10.787   9.875  10.376 -0.2699  0.3314 -0.2192
11435SOL     OW40396   2.719   0.297   8.509  0.4726 -0.6545 -0.1806
11435SOL    HW140397   2.812   0.306   8.530  0.0275 -0.4075  1.9809
11435SOL    HW240398   2.717   0.259   8.422  2.5766  1.0418 -1.0577
11436SOL     OW40399   2.490   1.868   4.951  0.0357  0.5326  0.2012
11436SOL    HW140400   2.450   1.848   4.867 -1.0373 -0.3374  0.8958
11436SOL    HW240401   2.508   1.963   4.947 -0.1508  0.5383 -0.9150
11437SOL     OW40402   6.987   7.522   3.220 -0.7292  0.1784 -0.7245
11437SOL    HW140403   6.966   7.608   3.183 -0.2554 -0.0002 -1.4227
11437SOL    HW240404   7.039   7.479   3.152  2.0746  0.6491  0.9790
11438SOL     OW40405   3.352   3.490   2.190  0.1586 -0.5133 -0.2454
11438SOL    HW140406   3.271   3.440   2.184 -0.3689  0.2022  0.5864
11438SOL    HW240407   3.375   3.510   2.100 -0.4189 -0.9983 -0.5064
11439SOL     OW40408   9.805   8.319   7.403 -0.2475  0.1301 -0.2521
11439SOL    HW140409   9.772   8.268   7.329  0.5005 -1.2095  0.3043
11439SOL    HW240410   9.845   8.254   7.461  0.0940  1.2765  0.8360
11440SOL     OW40411   6.639   6.510   3.070 -0.5216 -0.4580 -0.2705
11440SOL    HW140412   6.609   6.558   2.992  0.6338 -1.7483 -1.5651
11440SOL    HW240413   6.610   6.420   3.056 -0.3085 -0.7070  0.8088
11441SOL     OW40414   3.168   7.603   0.292 -0.2883 -0.5226 -0.0451
11441SOL    HW140415   3.210   7.637   0.212 -0.4575 -0.7946 -0.2500
11441SOL    HW240416   3.093   7.661   0.306  0.5026  0.3695  0.6851
11442SOL     OW40417   1.601   8.563  10.645 -0.2791 -0.1596  0.2700
11442SOL    HW140418   1.619   8.475  10.613  0.7222  0.0507  0.2312
11442SOL    HW240419   1.662   8.576  10.718  0.7853  1.0969 -0.7809
11443SOL     OW40420   2.360   0.773   7.297 -0.0546  0.2343 -0.0184
11443SOL    HW140421   2.268   0.776   7.274 -0.1149  0.0068  0.1808
11443SOL    HW240422   2.390   0.864   7.290 -0.4062  0.3857  0.3610
11444SOL     OW40423   8.943   8.288   3.207 -0.2428 -0.4962 -0.1447
11444SOL    HW140424   8.856   8.281   3.168 -0.5233  1.2111  0.1295
11444SOL    HW240425   9.002   8.258   3.138 -1.0278 -2.0726 -0.1985
11445SOL     OW40426   6.054   5.614   4.619 -0.2450 -0.1057  0.4531
11445SOL    HW140427   5.987   5.633   4.554 -1.8320  0.5204  2.1964
11445SOL    HW240428   6.016   5.642   4.702  2.4196  0.8450  1.4534
11446SOL     OW40429   9.521   9.452   3.964  0.2538 -0.8937 -0.2480
11446SOL    HW140430   9.528   9.511   3.888  1.0716  0.1653  0.6298
11446SOL    HW240431   9.564   9.371   3.935  2.3121  0.1503 -0.3030
11447SOL     OW40432  10.103   1.521   6.551  0.0915  0.0498  0.2974
11447SOL    HW140433  10.139   1.505   6.639 -1.8642 -2.2218  0.7918
11447SOL    HW240434  10.111   1.616   6.539  1.7887  0.2318  2.2873
11448SOL     OW40435   2.293   6.286   9.765 -0.3416 -0.5335  0.3315
11448SOL    HW140436   2.256   6.306   9.679 -1.7906 -0.5099  0.9375
11448SOL    HW240437   2.260   6.198   9.786  0.2354 -0.6621  0.7456
11449SOL     OW40438   5.893   6.983   6.166  0.2215  0.7392  0.1278
11449SOL    HW140439   5.940   6.910   6.207 -1.2834 -0.5216 -0.2624
11449SOL    HW240440   5.840   7.020   6.236 -0.3122  0.3236 -0.0459
11450SOL     OW40441  10.766   0.155  10.456  0.1992  0.4155 -0.2792
11450SOL    HW140442  10.851   0.151  10.411  0.6823  0.0663  0.6439
11450SOL    HW240443  10.702   0.161  10.385  0.9387 -0.1669 -1.0165
11451SOL     OW40444   5.648   6.799   1.361  0.0198  0.3402  0.5674
11451SOL    HW140445   5.732   6.826   1.397 -0.4659  0.2397  1.8280
11451SOL    HW240446   5.598   6.880   1.352  0.2388  0.3991 -0.1756
11452SOL     OW40447   5.761   6.031   3.743  0.5586  0.2403  0.6812
11452SOL    HW140448   5.759   6.110   3.690 -0.4665 -0.1293  0.1463
11452SOL    HW240449   5.751   6.063   3.833 -0.7887  0.6788  0.4014
11453SOL     OW40450   7.853   1.275   8.598 -0.3983 -0.3119 -0.2525
11453SOL    HW140451   7.846   1.246   8.507  0.4245 -2.2920  0.2602
11453SOL    HW240452   7.858   1.194   8.648 -1.8912  0.7140  1.6798
11454SOL     OW40453   5.500   0.096   5.897  0.3032 -0.9893  0.1273
11454SOL    HW140454   5.532   0.014   5.935 -1.3867 -1.7765 -0.0953
11454SOL    HW240455   5.407   0.083   5.884 -0.1998  1.2694  0.8563
11455SOL     OW40456   3.489   2.282   8.250  0.1556  0.4646 -0.1132
11455SOL    HW140457   3.446   2.358   8.289 -0.4078  0.0985 -0.0025
11455SOL    HW240458   3.553   2.319   8.189 -0.8010  1.0328 -0.8054
11456SOL     OW40459   5.647   5.987  10.757 -0.3833 -0.4664 -1.0027
11456SOL    HW140460   5.578   6.047  10.785  0.7022 -0.4422  1.9834
11456SOL    HW240461   5.657   5.927  10.831 -0.0509 -3.1208 -3.0839
11457SOL     OW40462  10.014   4.550   9.823  0.0025  0.5501 -0.4692
11457SOL    HW140463   9.946   4.587   9.880 -0.6031  1.8518 -1.9504
11457SOL    HW240464  10.093   4.600   9.845 -0.2559  1.1246 -0.8071
11458SOL     OW40465   3.408   0.591   9.180 -0.8171 -0.1536 -0.3495
11458SOL    HW140466   3.455   0.511   9.157 -0.4203 -0.1901  0.5517
11458SOL    HW240467   3.434   0.610   9.270 -1.6538  0.4575 -0.2183
11459SOL     OW40468   6.853   3.596   4.903 -0.0929 -0.0949  0.1400
11459SOL    HW140469   6.868   3.572   4.995 -1.3526  0.7556  0.5994
11459SOL    HW240470   6.809   3.519   4.865 -0.7328  0.0303  0.6058
11460SOL     OW40471   4.134   1.595   9.953  0.2243  0.8013 -0.4353
11460SOL    HW140472   4.203   1.657   9.927  1.7495 -0.1168  1.2030
11460SOL    HW240473   4.053   1.635   9.921  1.4746  1.9483 -2.4204
11461SOL     OW40474   7.945   0.553   1.890 -0.1670  0.2435 -0.3495
11461SOL    HW140475   7.941   0.595   1.976  0.8195 -2.7101  1.2991
11461SOL    HW240476   7.913   0.464   1.906  1.1318 -0.7474 -2.8015
11462SOL     OW40477   1.503   2.002   3.951  0.7570 -0.6208 -0.4364
11462SOL    HW140478   1.513   1.921   3.902  2.3260 -1.3190  0.9258
11462SOL    HW240479   1.585   2.010   4.001  0.8729  2.0809 -0.9133
11463SOL     OW40480   4.804   2.772   6.385  0.2511 -0.1468  0.0666
11463SOL    HW140481   4.776   2.861   6.407 -0.9094  0.1619 -2.3381
11463SOL    HW240482   4.792   2.722   6.466  0.6983  1.7993  1.3978
11464SOL     OW40483   5.721   9.590   6.001 -0.1806 -0.3540  0.4226
11464SOL    HW140484   5.716   9.685   6.003  1.8782 -0.1676 -0.4288
11464SOL    HW240485   5.710   9.567   5.908 -0.5736 -0.9510  0.6086
11465SOL     OW40486   0.642   5.957   6.398 -0.4137 -0.1255 -0.0084
11465SOL    HW140487   0.555   5.972   6.363 -0.7753  0.5542  1.1367
11465SOL    HW240488   0.636   5.872   6.442 -0.6956  0.2249  0.6416
11466SOL     OW40489   9.638   5.802   4.284  0.1511 -0.2853 -0.6625
11466SOL    HW140490   9.689   5.721   4.291 -2.3680 -1.9158  0.2270
11466SOL    HW240491   9.566   5.780   4.225  0.6543  2.0838 -2.2719
11467SOL     OW40492   9.072   0.445   0.465  0.3682  0.1592 -0.1861
11467SOL    HW140493   9.130   0.385   0.418  0.6728  0.4226 -0.1473
11467SOL    HW240494   9.053   0.400   0.548 -0.3685 -0.4194 -0.6467
11468SOL     OW40495   2.378   7.302   9.803 -0.0289 -0.1248 -0.1179
11468SOL    HW140496   2.413   7.350   9.728  0.9163 -2.0789 -1.0124
11468SOL    HW240497   2.376   7.366   9.874  0.1762  1.4737 -1.4836
11469SOL     OW40498   3.386   0.928   7.563  0.7622 -0.0719 -0.4090
11469SOL    HW140499   3.310   0.987   7.557  1.5620  1.2959  1.7749
11469SOL    HW240500   3.348   0.840   7.563 -0.8508  0.5760  0.5362
11470SOL     OW40501   6.128   2.211  10.469 -0.0268 -0.0788  0.2755
11470SOL    HW140502   6.070   2.135  10.462 -0.9406  0.5682  0.7158
11470SOL    HW240503   6.188   2.202  10.394  0.1939 -1.4768  0.5867
11471SOL     OW40504   4.216   1.034   0.167 -0.4370 -0.2267 -0.3047
11471SOL    HW140505   4.250   1.096   0.102  0.5396 -0.9519 -0.5098
11471SOL    HW240506   4.152   1.085   0.217  1.5358  1.4762  0.6402
11472SOL     OW40507   7.010   9.228   0.790 -0.2630  0.5910  0.0810
11472SOL    HW140508   6.992   9.287   0.717 -1.0950 -0.8710 -0.9609
11472SOL    HW240509   7.081   9.173   0.759 -0.2085  0.3517  0.6196
11473SOL     OW40510   5.355   7.501   8.919  0.2200  0.0442  0.0506
11473SOL    HW140511   5.354   7.407   8.902  0.0320 -0.3527  1.9681
11473SOL    HW240512   5.397   7.509   9.004  0.7466  1.7603 -0.3394
11474SOL     OW40513   5.343   2.725   6.929 -0.3498  0.3988 -0.3585
11474SOL    HW140514   5.404   2.754   6.997 -1.9658 -0.1758  1.4226
11474SOL    HW240515   5.389   2.653   6.885  0.5556  0.4520  0.4653
11475SOL     OW40516   9.834   3.048   2.372 -0.1093  0.3156  0.0584
11475SOL    HW140517   9.861   3.104   2.299  0.2577  0.6047  0.4065
11475SOL    HW240518   9.903   3.060   2.438  0.5067 -1.3081 -0.2379
11476SOL     OW40519  10.562   8.193   9.320 -0.3705  0.0540  1.0164
11476SOL    HW140520  10.631   8.202   9.254  1.1946  0.6371  2.6623
11476SOL    HW240521  10.532   8.102   9.310  0.5851 -0.1931  0.2010
11477SOL     OW40522   3.369  10.831   7.785  0.5238  0.4452 -0.9922
11477SOL    HW140523   3.342  10.919   7.759  1.5518  1.4541  1.0613
11477SOL    HW240524   3.385  10.838   7.879 -0.5959 -2.2860 -0.4994
11478SOL     OW40525   7.790   0.841  10.412 -0.1579  0.0016 -0.1018
11478SOL    HW140526   7.784   0.747  10.392  1.9297 -0.3269  0.4955
11478SOL    HW240527   7.880   0.864  10.388 -1.3739  2.5439 -2.7638
11479SOL     OW40528   7.769   5.396   9.287  0.1729 -0.2025  0.3013
11479SOL    HW140529   7.695   5.370   9.232  0.5675  0.8629 -0.7899
11479SOL    HW240530   7.833   5.326   9.276  0.4550  0.2383 -1.0387
11480SOL     OW40531   5.762   8.037   6.536 -0.1280  0.1125 -0.1455
11480SOL    HW140532   5.712   8.046   6.455  0.4084 -1.3506 -0.6894
11480SOL    HW240533   5.697   8.015   6.602 -0.3828 -0.3898 -0.5526
11481SOL     OW40534   3.658   9.911  10.256  0.5728  0.1315 -0.1989
11481SOL    HW140535   3.632   9.940  10.169  0.5182 -1.5616 -0.7759
11481SOL    HW240536   3.581   9.926  10.311  1.1347  2.7912  0.0116
11482SOL     OW40537   3.484   7.915   3.257  0.4659  0.1333 -0.0128
11482SOL    HW140538   3.566   7.900   3.211  0.6086  0.1847  0.2210
11482SOL    HW240539   3.508   7.974   3.329  0.3843 -0.5506  0.5754
11483SOL     OW40540   8.598   4.530   8.551  0.1853 -0.0878 -0.2807
11483SOL    HW140541   8.543   4.573   8.616  0.5662 -0.9122  0.6124
11483SOL    HW240542   8.663   4.596   8.527 -0.5607  0.5526 -0.5866
11484SOL     OW40543   3.967   2.222  10.696 -0.3379 -0.2729 -0.2020
11484SOL    HW140544   4.035   2.236  10.630 -0.0909  1.5298  0.4061
11484SOL    HW240545   3.887   2.208  10.644 -0.0667  0.6819 -0.9014
11485SOL     OW40546   2.020   9.279   5.255  0.2846  0.3873  0.1646
11485SOL    HW140547   1.950   9.265   5.191  1.0157 -1.8214 -0.2209
11485SOL    HW240548   2.092   9.316   5.204  0.5735 -0.5880 -0.1613
11486SOL     OW40549   3.990   2.462   3.180 -0.8668  0.2301 -0.6934
11486SOL    HW140550   3.921   2.424   3.126 -1.1979 -0.4892  0.1980
11486SOL    HW240551   4.046   2.509   3.119 -1.4296 -0.2542 -1.6004
11487SOL     OW40552   5.357   4.536   7.040 -0.6165  0.4984 -0.5812
11487SOL    HW140553   5.270   4.545   7.002 -0.4593 -1.4989 -1.5618
11487SOL    HW240554   5.348   4.467   7.105  0.6187 -1.3793 -2.2663
11488SOL     OW40555   5.647  10.321   3.641 -0.3604  0.5954  0.5685
11488SOL    HW140556   5.702  10.385   3.595 -1.6798  0.4226 -1.3601
11488SOL    HW240557   5.667  10.238   3.598 -1.9623  0.5040 -0.0466
11489SOL     OW40558  10.479   3.304   0.014  0.1267  0.2003 -0.0791
11489SOL    HW140559  10.500   3.378  -0.043  0.9636  1.3197  1.5806
11489SOL    HW240560  10.542   3.310   0.085 -1.0118 -0.9936  1.1000
11490SOL     OW40561   3.624   2.835  10.801  0.3370 -0.0948 -0.6551
11490SOL    HW140562   3.684   2.766  10.773 -1.6947 -2.0519 -0.4889
11490SOL    HW240563   3.564   2.846  10.727 -1.9167 -1.6165  0.8024
11491SOL     OW40564   1.697   8.065   4.297 -0.8344  0.3457 -0.3349
11491SOL    HW140565   1.756   8.050   4.370 -1.4278 -1.1676 -0.1363
11491SOL    HW240566   1.656   8.150   4.316 -1.1156 -0.1128  1.2035
11492SOL     OW40567   3.850   6.542   1.514  0.1216  0.1198 -0.0117
11492SOL    HW140568   3.884   6.601   1.447  0.1572 -0.0636 -0.1560
11492SOL    HW240569   3.757   6.563   1.519  0.3395  0.9711  0.7359
11493SOL     OW40570   3.392   9.765   6.492 -0.4042 -0.3921 -0.0500
11493SOL    HW140571   3.467   9.825   6.502 -0.7007 -0.3104  2.3757
11493SOL    HW240572   3.432   9.680   6.473  0.2313 -0.0948 -0.0792
11494SOL     OW40573   8.067   1.436  10.599  0.0832  0.2143 -0.0692
11494SOL    HW140574   8.035   1.436  10.509 -0.6734  0.9022  0.1839
11494SOL    HW240575   8.061   1.345  10.628  2.8019 -0.5445 -1.5276
11495SOL     OW40576   9.235   9.658   6.191  0.5740 -0.0048 -0.7321
11495SOL    HW140577   9.231   9.566   6.217 -1.4763 -0.3788 -2.0782
11495SOL    HW240578   9.230   9.707   6.273 -0.6327 -1.1177 -0.1033
11496SOL     OW40579   9.238   1.411   2.819 -0.4192 -0.0322  0.4490
11496SOL    HW140580   9.333   1.398   2.819 -0.5707 -1.2703  0.8654
11496SOL    HW240581   9.224   1.485   2.760  0.7559 -0.1703 -0.0344
11497SOL     OW40582   7.876   3.901   1.962  0.8656 -0.0470 -0.2092
11497SOL    HW140583   7.858   3.976   2.018  0.4341  0.5078 -1.0731
11497SOL    HW240584   7.908   3.939   1.880 -0.3279 -0.7554 -1.0299
11498SOL     OW40585   1.129   1.742   9.855 -0.6104 -0.7109 -0.0814
11498SOL    HW140586   1.219   1.723   9.882 -0.4603 -1.1122 -0.8538
11498SOL    HW240587   1.135   1.825   9.807 -0.8456 -0.1099  0.8907
11499SOL     OW40588   0.598   7.637   2.584  0.4728  0.4554  0.1253
11499SOL    HW140589   0.529   7.618   2.520  1.0824 -1.1297 -0.1161
11499SOL    HW240590   0.555   7.692   2.650 -1.0918 -0.6579  0.0888
11500SOL     OW40591   8.432   9.236   0.596 -0.8327 -0.7079  0.3079
11500SOL    HW140592   8.412   9.148   0.629  0.9004 -0.9639  0.7750
11500SOL    HW240593   8.353   9.287   0.615 -1.1378 -1.6875  1.8566
11501SOL     OW40594   9.015   7.143   4.511  0.4591 -0.1572 -0.0707
11501SOL    HW140595   9.081   7.111   4.573 -0.8765  0.0262  1.5264
11501SOL    HW240596   8.949   7.074   4.508 -0.4528  0.6687  0.2631
11502SOL     OW40597   5.868   9.237   9.017  0.3483 -0.1598  0.1462
11502SOL    HW140598   5.879   9.195   8.932  2.8084 -1.3363  0.9809
11502SOL    HW240599   5.800   9.185   9.060 -0.4114  0.0165 -0.7760
11503SOL     OW40600   8.617  10.135   2.675 -0.4515 -0.2662  0.1434
11503SOL    HW140601   8.685  10.102   2.617  0.2181  1.0957  0.1019
11503SOL    HW240602   8.665  10.185   2.741 -1.2901 -0.8050  1.1774
11504SOL     OW40603  10.657   5.115  10.203 -0.0665 -0.0958 -0.0555
11504SOL    HW140604  10.618   5.036  10.240  0.8361 -0.0042  1.1537
11504SOL    HW240605  10.584   5.159  10.159 -0.7942 -1.1010  0.1106
11505SOL     OW40606   2.656   5.725   0.312 -0.0885 -0.2736  0.3761
11505SOL    HW140607   2.566   5.752   0.330 -0.2414  0.0467 -0.8216
11505SOL    HW240608   2.698   5.721   0.399 -1.1118  0.0532  0.8958
11506SOL     OW40609   7.198   4.161   0.452  0.3675  0.1615  0.4719
11506SOL    HW140610   7.205   4.166   0.548  1.3795  1.7675  0.3499
11506SOL    HW240611   7.122   4.104   0.437 -1.6468  2.1760  2.2665
11507SOL     OW40612   0.846   9.164   9.619  0.5235  0.1351  0.2024
11507SOL    HW140613   0.757   9.192   9.643  0.6385  0.2556  0.4968
11507SOL    HW240614   0.872   9.104   9.690  0.8514  0.4570  0.3556
11508SOL     OW40615   0.437   9.245   7.029  0.1194 -0.2830  0.5621
11508SOL    HW140616   0.354   9.269   6.988  0.2433 -0.9265 -0.0825
11508SOL    HW240617   0.414   9.220   7.119 -0.3569 -0.3109  0.4313
11509SOL     OW40618   1.241   6.689   3.701 -0.1943 -0.0301 -0.4654
11509SOL    HW140619   1.316   6.733   3.661  0.7586 -0.7042  0.5179
11509SOL    HW240620   1.275   6.655   3.783 -1.4814 -0.7247 -0.2007
11510SOL     OW40621   1.734   7.463   8.346  0.1242 -0.6281 -0.2844
11510SOL    HW140622   1.661   7.465   8.283  0.6092  0.5889 -0.8360
11510SOL    HW240623   1.752   7.555   8.366  0.8452 -0.9508  0.6348
11511SOL     OW40624   5.836   2.019   3.438  0.3536 -0.1583 -0.3079
11511SOL    HW140625   5.875   1.949   3.489 -0.8709 -0.8513 -0.2802
11511SOL    HW240626   5.751   1.984   3.410 -0.1699  1.2088 -0.5128
11512SOL     OW40627   8.766   4.683   8.990 -0.0708  0.6865  0.3085
11512SOL    HW140628   8.835   4.748   8.999  2.5180 -1.9183  0.8891
11512SOL    HW240629   8.725   4.679   9.077  0.9530  0.3691  0.7948
11513SOL     OW40630   1.289   1.380   6.669 -0.1862  0.0407  0.4257
11513SOL    HW140631   1.272   1.289   6.694  0.5073 -0.2554 -0.1639
11513SOL    HW240632   1.383   1.384   6.656 -0.4939  0.1251 -2.3232
11514SOL     OW40633   1.797   5.042   6.658  0.0093  0.1473 -0.0091
11514SOL    HW140634   1.853   4.972   6.625 -0.0103  0.2081 -0.1716
11514SOL    HW240635   1.731   5.055   6.589 -1.3439 -1.2161  0.9650
11515SOL     OW40636   4.660   2.584   9.249 -0.5705  0.7365 -0.0578
11515SOL    HW140637   4.741   2.555   9.290 -0.4526  0.8734 -0.1933
11515SOL    HW240638   4.635   2.663   9.297  0.1977  1.5769 -1.0052
11516SOL     OW40639   7.536   1.542   3.934  0.6204 -0.6789 -0.0318
11516SOL    HW140640   7.482   1.618   3.956  1.4475 -0.0735 -0.0144
11516SOL    HW240641   7.568   1.510   4.018  2.5325  0.6903 -0.1840
11517SOL     OW40642   2.498   7.999   6.964 -0.4717  0.4597  0.2692
11517SOL    HW140643   2.448   7.917   6.975 -1.8298  1.1751 -0.2794
11517SOL    HW240644   2.567   7.994   7.030 -0.3883 -1.2225  0.1058
11518SOL     OW40645   9.849   1.393   5.200  0.7840 -0.3875  0.0194
11518SOL    HW140646   9.793   1.392   5.121  2.2379  2.4206 -1.1901
11518SOL    HW240647   9.931   1.352   5.172  0.9758 -0.2481  0.3724
11519SOL     OW40648   7.433   1.608   7.755 -0.2602  0.3619 -0.1807
11519SOL    HW140649   7.441   1.609   7.850 -2.8214  2.4332  0.1419
11519SOL    HW240650   7.346   1.572   7.738  0.1401  0.0329 -1.7550
11520SOL     OW40651   9.657   8.438   4.049  0.4856  0.1725 -0.0552
11520SOL    HW140652   9.651   8.458   4.142 -0.1018  2.4520 -0.5219
11520SOL    HW240653   9.748   8.411   4.035  0.3538 -1.0815  1.2978
11521SOL     OW40654   5.844   8.509   1.787  0.0331  0.2025 -0.2477
11521SOL    HW140655   5.898   8.588   1.784 -1.3468  1.1807 -0.3034
11521SOL    HW240656   5.796   8.510   1.704 -2.4538  1.1700  1.0803
11522SOL     OW40657   7.740   6.705   1.719 -0.2536 -0.1393  0.5109
11522SOL    HW140658   7.786   6.620   1.720  0.8955  0.4426 -0.4245
11522SOL    HW240659   7.653   6.685   1.685 -0.4980 -1.1558  1.6394
11523SOL     OW40660   4.546  10.229   8.772  0.0664 -0.2325  0.0163
11523SOL    HW140661   4.505  10.286   8.838  0.4623  0.5543 -0.4099
11523SOL    HW240662   4.536  10.277   8.690  2.3147  0.2441 -0.0288
11524SOL     OW40663   3.503   7.883  10.261 -0.2749  0.0844 -0.0251
11524SOL    HW140664   3.580   7.940  10.252 -1.2461  1.4516 -0.0552
11524SOL    HW240665   3.526   7.822  10.331  0.2953  1.3842  0.9523
11525SOL     OW40666  10.479   6.187   5.881  0.1082  0.1324  0.4614
11525SOL    HW140667  10.437   6.224   5.959 -0.4610 -1.2671  0.8435
11525SOL    HW240668  10.410   6.138   5.837  0.2665  1.3701 -1.2723
11526SOL     OW40669   0.630   6.922   6.838 -0.2820  0.1886  0.0252
11526SOL    HW140670   0.646   6.850   6.898 -0.5812 -0.0033 -0.1240
11526SOL    HW240671   0.671   6.895   6.756  1.4254  1.0814  0.5344
11527SOL     OW40672   5.576   7.944   9.234 -1.3453 -0.2294  0.2142
11527SOL    HW140673   5.529   8.022   9.263 -1.3934 -0.6402  1.2766
11527SOL    HW240674   5.605   7.965   9.145 -2.0648  0.6795  0.1817
11528SOL     OW40675   3.610   2.742   5.015 -0.3856 -0.4520  0.1963
11528SOL    HW140676   3.525   2.699   5.021 -0.9031  0.7296  2.6207
11528SOL    HW240677   3.590   2.829   4.979  0.0090 -0.6279 -0.4695
11529SOL     OW40678   9.821   8.313   5.076  0.2117  0.2644 -0.0576
11529SOL    HW140679   9.738   8.354   5.052  0.8288  0.7652 -1.4808
11529SOL    HW240680   9.844   8.354   5.159 -1.3312 -0.4636  0.7672
11530SOL     OW40681   6.185   4.127   8.714  0.4122 -0.1056 -0.0192
11530SOL    HW140682   6.180   4.167   8.801 -0.2633  0.2525 -0.2118
11530SOL    HW240683   6.109   4.162   8.668  0.6095 -0.5139 -0.6628
11531SOL     OW40684   2.534   9.220   8.981  0.5455  0.2773 -0.0193
11531SOL    HW140685   2.462   9.160   8.964  1.2872 -0.2908 -1.3064
11531SOL    HW240686   2.609   9.183   8.933  1.5904  1.0575  0.9459
11532SOL     OW40687   7.044   6.908   8.114 -0.2651 -0.2990 -0.0917
11532SOL    HW140688   7.118   6.848   8.124  0.5834  0.3620 -1.8646
11532SOL    HW240689   7.036   6.950   8.199  2.5007  0.7559 -0.2280
11533SOL     OW40690   0.360   4.614   0.562  0.0179 -0.1846 -0.3950
11533SOL    HW140691   0.452   4.636   0.575 -0.0289  0.4423 -1.0241
11533SOL    HW240692   0.358   4.568   0.478 -0.4697  1.6532 -1.4730
11534SOL     OW40693  10.269   2.338   1.683  0.2130 -0.4331  0.0977
11534SOL    HW140694  10.360   2.313   1.699  0.3871  0.6233  0.9697
11534SOL    HW240695  10.268   2.433   1.696 -0.9074 -0.3434 -0.4676
11535SOL     OW40696   9.375   3.390   9.198 -0.1664 -0.7586 -0.3638
11535SOL    HW140697   9.315   3.399   9.124 -1.9627 -2.3571  0.8015
11535SOL    HW240698   9.338   3.318   9.250  0.4119  0.9417  2.6294
11536SOL     OW40699   1.245   1.637   7.986 -0.1360 -0.5546 -0.1861
11536SOL    HW140700   1.270   1.726   7.960  1.2471 -0.4555  1.3142
11536SOL    HW240701   1.323   1.585   7.971 -0.2656 -1.0787  0.9077
11537SOL     OW40702   9.070   5.889   9.444  0.5057 -0.1815 -0.2690
11537SOL    HW140703   9.160   5.879   9.474 -0.0427  1.9583  2.4133
11537SOL    HW240704   9.020   5.826   9.497  0.0176  0.9682  0.6631
11538SOL     OW40705   2.046   4.503   6.713 -0.1908 -0.5482 -0.1319
11538SOL    HW140706   1.968   4.520   6.766 -0.8793 -0.6332 -1.1002
11538SOL    HW240707   2.107   4.461   6.774 -0.9026 -0.4966  0.6360
11539SOL     OW40708   6.182  10.804   0.458  0.3773  0.0253 -0.7270
11539SOL    HW140709   6.255  10.858   0.490  1.6016 -0.8569 -1.9365
11539SOL    HW240710   6.215  10.715   0.461 -1.1043 -0.5369 -0.1672
11540SOL     OW40711   0.697   0.202   3.437 -0.2580  0.5783  0.2570
11540SOL    HW140712   0.639   0.244   3.373  0.3805  2.4577  0.8467
11540SOL    HW240713   0.744   0.275   3.478  1.0068 -0.7462  1.2604
11541SOL     OW40714  10.705   7.861   5.274 -0.0651  0.4962 -0.3047
11541SOL    HW140715  10.664   7.870   5.360  0.4875  1.4006 -0.1187
11541SOL    HW240716  10.798   7.848   5.292 -0.1032 -0.4437 -0.7460
11542SOL     OW40717   3.418   3.615   9.439 -0.9991  0.4295  0.3393
11542SOL    HW140718   3.377   3.701   9.431 -2.0746  0.1727  2.4134
11542SOL    HW240719   3.490   3.629   9.499 -1.8831 -0.3048  1.6081
11543SOL     OW40720  10.520   3.783   5.603  0.4145 -0.2569 -0.4979
11543SOL    HW140721  10.432   3.798   5.569 -0.7649 -0.2011  2.2389
11543SOL    HW240722  10.575   3.771   5.526 -1.3378  2.9807 -2.4553
11544SOL     OW40723   4.139  10.232   4.556 -0.2106 -0.0153  0.3176
11544SOL    HW140724   4.163  10.303   4.495 -3.2376  1.0143  0.1571
11544SOL    HW240725   4.068  10.269   4.609 -1.3707 -2.6754  0.7766
11545SOL     OW40726  10.064   7.586   2.085  0.2625  0.0811 -0.3025
11545SOL    HW140727  10.014   7.513   2.047  0.8263 -0.1953 -0.5322
11545SOL    HW240728  10.045   7.660   2.027  0.4765 -0.1368 -0.6589
11546SOL     OW40729   6.300  10.302   8.739  0.0864 -0.4976 -0.3950
11546SOL    HW140730   6.279  10.277   8.829  0.5930 -0.7159 -0.3385
11546SOL    HW240731   6.242  10.377   8.722  1.2311  0.6980  0.7234
11547SOL     OW40732   5.662   7.474   1.003 -0.1926 -0.6114 -0.0202
11547SOL    HW140733   5.755   7.464   1.022 -0.0132 -0.6094 -0.8626
11547SOL    HW240734   5.644   7.409   0.935 -0.1851  1.1025 -1.7820
11548SOL     OW40735   8.235   1.346   6.061  0.3145  0.1585  0.2247
11548SOL    HW140736   8.331   1.346   6.052  0.4194 -1.4942  1.0800
11548SOL    HW240737   8.220   1.375   6.150 -0.0287  0.9431 -0.0792
11549SOL     OW40738   4.919   9.256   3.457 -0.2570  0.0236 -0.0325
11549SOL    HW140739   4.892   9.266   3.548 -1.8849 -0.6140 -0.4114
11549SOL    HW240740   4.929   9.161   3.446  2.3061  0.2031  0.0883
11550SOL     OW40741  10.388   0.885   1.165 -0.8140 -0.3148  0.4644
11550SOL    HW140742  10.460   0.931   1.208  0.1029 -1.3303  0.0589
11550SOL    HW240743  10.338   0.955   1.121 -0.1248  0.4093  0.8119
11551SOL     OW40744   9.807   4.196   8.894 -0.5975  0.4158  0.0809
11551SOL    HW140745   9.744   4.151   8.950 -1.4692  1.4164 -0.0517
11551SOL    HW240746   9.755   4.262   8.849  0.3843  0.6407 -0.7534
11552SOL     OW40747   9.501   6.279   8.388 -0.0591  0.0012 -0.2366
11552SOL    HW140748   9.486   6.272   8.294 -0.4175 -0.7777 -0.1330
11552SOL    HW240749   9.435   6.221   8.427 -0.0038  0.4218  0.5001
11553SOL     OW40750   1.252   8.956   7.573  0.2085 -0.1943  0.2457
11553SOL    HW140751   1.247   8.878   7.518  0.6609 -1.1879  1.5701
11553SOL    HW240752   1.216   9.026   7.519 -1.5055 -1.5711 -0.4944
11554SOL     OW40753   1.378   9.427   0.846  0.5220 -0.0033  0.0743
11554SOL    HW140754   1.386   9.522   0.860  0.8651  0.0132 -0.2098
11554SOL    HW240755   1.295   9.404   0.886  0.7992  0.2875  0.8489
11555SOL     OW40756   7.182   7.682   3.501 -0.1900 -0.0768  0.3786
11555SOL    HW140757   7.114   7.680   3.569 -0.6174 -2.8668 -0.0090
11555SOL    HW240758   7.156   7.613   3.440  2.6532 -0.8257 -0.1069
11556SOL     OW40759   4.609   4.515   9.251 -0.0782 -0.1701 -0.1472
11556SOL    HW140760   4.592   4.563   9.170  1.9784  1.5224  0.3118
11556SOL    HW240761   4.688   4.464   9.232 -0.9058 -1.6155  0.1242
11557SOL     OW40762   4.399   0.642   2.805 -0.7313 -0.0373  0.3547
11557SOL    HW140763   4.399   0.550   2.781  0.4153 -0.1288  0.6796
11557SOL    HW240764   4.420   0.688   2.723 -0.5538 -0.1108  0.3589
11558SOL     OW40765   7.294   2.759   7.311 -0.6552 -0.9491 -0.4901
11558SOL    HW140766   7.219   2.804   7.271 -0.0571  0.8597  0.2851
11558SOL    HW240767   7.286   2.780   7.404  0.9313 -0.4859 -0.4261
11559SOL     OW40768   5.636   2.538   7.157 -0.5246  0.4381  0.0984
11559SOL    HW140769   5.568   2.528   7.224 -1.6072  0.6602 -0.9188
11559SOL    HW240770   5.596   2.596   7.092  0.9310  1.1616 -0.1815
11560SOL     OW40771   6.582   3.395   2.295  0.4980 -0.2073  0.3881
11560SOL    HW140772   6.621   3.319   2.252 -0.2209 -1.0475  1.1742
11560SOL    HW240773   6.554   3.362   2.381  0.0300  0.9103  0.6829
11561SOL     OW40774   4.479  10.410   0.743  0.0469 -0.0714  0.2419
11561SOL    HW140775   4.459  10.439   0.832 -0.1532  2.4587 -0.5630
11561SOL    HW240776   4.483  10.314   0.750 -1.0163 -0.0162  2.7331
11562SOL     OW40777   9.412   0.596   4.343 -0.1258  0.0994  0.1698
11562SOL    HW140778   9.324   0.565   4.323  0.1461 -0.9413  0.5062
11562SOL    HW240779   9.405   0.635   4.430 -0.1086 -0.6673  0.5231
11563SOL     OW40780   4.374  10.841   9.407 -0.1440  0.5002  0.3698
11563SOL    HW140781   4.377  10.900   9.483 -0.5017  1.4823 -0.3490
11563SOL    HW240782   4.457  10.794   9.410  0.0429  0.8578  1.1079
11564SOL     OW40783   8.823  10.176   3.134  0.1028  0.3240  0.0758
11564SOL    HW140784   8.891  10.193   3.199  0.1316  2.0619 -0.3570
11564SOL    HW240785   8.843  10.236   3.061 -1.7527  0.7510 -0.1485
11565SOL     OW40786   7.624   0.672   1.113  0.6510 -0.5389 -0.1244
11565SOL    HW140787   7.642   0.679   1.020  0.5053  0.4740 -0.0931
11565SOL    HW240788   7.695   0.721   1.155  0.3839 -0.4697  0.2568
11566SOL     OW40789  10.125  10.646   1.994 -0.3069  0.0869  0.0972
11566SOL    HW140790  10.043  10.629   2.041 -1.3486  0.1006 -1.6485
11566SOL    HW240791  10.142  10.566   1.945 -0.5010  0.8714 -1.2969
11567SOL     OW40792   4.612  10.388   0.121 -0.1136 -0.0662 -0.2253
11567SOL    HW140793   4.517  10.380   0.132 -0.3421  2.5982  0.1939
11567SOL    HW240794   4.623  10.405   0.027 -0.0209 -0.4275 -0.2831
11568SOL     OW40795   7.790   9.380   8.801 -0.2533  0.8084 -0.2826
11568SOL    HW140796   7.842   9.300   8.797 -1.0798  0.2782 -1.0336
11568SOL    HW240797   7.738   9.371   8.881 -0.3196  0.6028 -0.3472
11569SOL     OW40798   8.734   5.450   7.288 -0.2464 -0.5020 -0.1877
11569SOL    HW140799   8.792   5.374   7.281  1.0699  0.4513 -0.0420
11569SOL    HW240800   8.660   5.418   7.341 -0.3912 -2.0300 -1.2415
11570SOL     OW40801   4.767   1.415   5.480  0.0059 -0.0919  0.2903
11570SOL    HW140802   4.724   1.466   5.549  0.9918 -1.0882  1.7074
11570SOL    HW240803   4.783   1.478   5.411 -1.8232  0.7540  0.5665
11571SOL     OW40804   4.229   4.089   2.686 -0.3400  0.1043  0.0260
11571SOL    HW140805   4.226   4.004   2.641  1.0495  0.5154 -0.8823
11571SOL    HW240806   4.264   4.068   2.773 -2.5572 -0.6138  0.8172
11572SOL     OW40807   7.567   0.262   7.622  0.1568  0.1107 -0.1777
11572SOL    HW140808   7.538   0.348   7.654 -1.5132 -0.9587  1.3590
11572SOL    HW240809   7.657   0.277   7.593 -0.1746  2.4380 -0.2318
11573SOL     OW40810   2.509   5.520   7.078 -0.0863  0.3493 -0.0408
11573SOL    HW140811   2.530   5.428   7.065 -1.2306 -0.1032  1.0734
11573SOL    HW240812   2.428   5.533   7.029 -1.0996  0.1778  1.5214
11574SOL     OW40813   2.439   1.006   5.336 -0.0098  0.4826  0.0445
11574SOL    HW140814   2.347   1.019   5.314 -0.2512 -1.0132  0.0586
11574SOL    HW240815   2.476   1.094   5.339 -1.4350  1.1037  0.0386
11575SOL     OW40816   8.644   7.019   6.251 -0.1758  0.3251 -0.1422
11575SOL    HW140817   8.639   6.939   6.198  0.5758  0.7432 -0.8688
11575SOL    HW240818   8.616   7.089   6.192  2.2492  1.0265 -0.5354
11576SOL     OW40819   7.332   1.041   8.226  0.0512 -0.2439 -0.0136
11576SOL    HW140820   7.398   1.052   8.157  0.1587 -0.4243  0.0581
11576SOL    HW240821   7.336   1.122   8.276  0.8594 -0.6004  0.5282
11577SOL     OW40822   8.235   5.063   2.787 -0.0239 -0.4200  0.4692
11577SOL    HW140823   8.236   4.995   2.854  0.0109 -1.3490 -0.4501
11577SOL    HW240824   8.149   5.055   2.746  0.4323 -0.7512 -0.4593
11578SOL     OW40825   9.655   8.179   8.143  0.3576  0.7573  0.1996
11578SOL    HW140826   9.606   8.098   8.135 -0.3923  0.9802  2.0852
11578SOL    HW240827   9.741   8.153   8.178  0.3963  0.7040  0.0639
11579SOL     OW40828   1.939   5.870   1.733  0.0405 -0.2942 -0.2669
11579SOL    HW140829   1.900   5.789   1.698  0.2028 -0.0803 -0.9554
11579SOL    HW240830   1.961   5.848   1.823  1.2222 -1.4308 -0.8010
11580SOL     OW40831   0.611  10.103   5.526  0.8272  0.3060 -0.1104
11580SOL    HW140832   0.524  10.136   5.507  1.2855  3.1441  1.9311
11580SOL    HW240833   0.603  10.061   5.612  1.5181  1.0205  0.3203
11581SOL     OW40834   5.430   8.262   6.979 -0.3776  0.1037  0.2529
11581SOL    HW140835   5.499   8.283   7.042  0.3775 -0.2156 -0.4544
11581SOL    HW240836   5.351   8.255   7.032 -0.2984  2.5427  0.8337
11582SOL     OW40837   0.489  10.150   3.752  0.2972 -0.1292  0.3610
11582SOL    HW140838   0.505  10.234   3.794 -1.9793  1.6112 -1.9519
11582SOL    HW240839   0.406  10.120   3.788  1.1267 -1.4861  1.2195
11583SOL     OW40840   6.941   4.058   5.397  0.2776  0.3243 -0.1312
11583SOL    HW140841   6.895   3.976   5.376  0.6644  0.3491 -1.0991
11583SOL    HW240842   6.873   4.125   5.394 -0.2173 -0.0483  1.5037
11584SOL     OW40843   6.119   0.872   5.465 -0.1156 -0.8747  0.2931
11584SOL    HW140844   6.207   0.835   5.455  0.0049 -0.5133 -0.0346
11584SOL    HW240845   6.100   0.910   5.379 -0.2862 -0.2970  0.5844
11585SOL     OW40846  10.025   0.426  10.366  0.1314 -0.5561  0.4187
11585SOL    HW140847  10.118   0.407  10.355  0.2227  0.5227 -0.9192
11585SOL    HW240848   9.983   0.340  10.368  0.7011 -1.0989 -3.5298
11586SOL     OW40849   9.889   9.915   8.727  0.4615  0.0172 -0.0795
11586SOL    HW140850   9.854   9.873   8.806  1.3407 -0.0959  0.2590
11586SOL    HW240851   9.837   9.879   8.656 -0.1730 -0.0791  0.4249
11587SOL     OW40852   1.207  10.225   2.188 -0.5540  0.3289 -0.2660
11587SOL    HW140853   1.299  10.246   2.168 -0.3886 -0.2475 -0.1423
11587SOL    HW240854   1.209  10.132   2.214 -1.4222 -0.2296 -2.0276
11588SOL     OW40855   4.771   2.979   3.322  0.1963  0.5215  0.6205
11588SOL    HW140856   4.719   2.951   3.247  0.9451  1.4104 -0.2655
11588SOL    HW240857   4.749   2.917   3.392 -0.1420 -0.6243 -0.4796
11589SOL     OW40858  10.007   1.146   9.280 -0.8120 -0.2223  0.2124
11589SOL    HW140859  10.083   1.194   9.312  0.1843 -0.6108 -1.4390
11589SOL    HW240860  10.036   1.108   9.197 -2.9192 -0.1068 -0.6354
11590SOL     OW40861   7.449   8.775   5.548  0.1691 -0.2373  0.1390
11590SOL    HW140862   7.385   8.822   5.600 -0.1534 -0.5202 -0.0004
11590SOL    HW240863   7.505   8.844   5.511  0.7414 -0.0658  1.2928
11591SOL     OW40864   2.681   9.336   5.971 -0.2667  0.1328 -0.1927
11591SOL    HW140865   2.750   9.275   5.994  0.1693  0.6695 -0.0493
11591SOL    HW240866   2.666   9.323   5.878  0.5943  0.5773 -0.3965
11592SOL     OW40867   5.370   4.480   0.940  0.3794 -0.1042 -0.1172
11592SOL    HW140868   5.356   4.406   0.998  4.0159 -0.3854  0.6914
11592SOL    HW240869   5.414   4.443   0.864  1.0930  1.0069 -0.2776
11593SOL     OW40870   3.831   7.425   7.797 -0.0336 -0.1866  0.0584
11593SOL    HW140871   3.767   7.486   7.833  1.2536  0.7763  0.7756
11593SOL    HW240872   3.821   7.345   7.850  0.2146  0.3991  1.0093
11594SOL     OW40873   0.312   4.057  10.346  0.1374 -0.5050 -0.0992
11594SOL    HW140874   0.397   4.076  10.307  0.2902  0.1541  0.5210
11594SOL    HW240875   0.250   4.065  10.274  0.5135 -0.2405 -0.4012
11595SOL     OW40876   2.875   3.021   8.461 -0.1569 -0.0068  0.4179
11595SOL    HW140877   2.883   2.931   8.495  2.9603  0.0389  0.0742
11595SOL    HW240878   2.922   3.019   8.378 -0.6041  1.8237  0.0887
11596SOL     OW40879   8.767   8.121  10.509  0.2497  0.0984  0.0553
11596SOL    HW140880   8.693   8.085  10.462  0.8623 -0.9345 -0.1338
11596SOL    HW240881   8.744   8.111  10.601 -0.5952  1.3843  0.0092
11597SOL     OW40882  10.029   8.262   3.131 -0.2466 -0.4026 -0.1298
11597SOL    HW140883  10.054   8.170   3.139 -0.4328 -0.4823 -0.4447
11597SOL    HW240884  10.011   8.274   3.038  3.4445  0.9119 -0.8351
11598SOL     OW40885   6.973   5.896   3.042  0.0421  0.1626  0.6322
11598SOL    HW140886   7.014   5.823   2.995 -0.7560  0.6706 -0.9162
11598SOL    HW240887   6.930   5.854   3.118  2.5350 -0.4880  1.7803
11599SOL     OW40888   9.430   2.129   0.158  0.0628 -0.7842 -0.0595
11599SOL    HW140889   9.488   2.178   0.215 -0.1572  0.5543 -0.9472
11599SOL    HW240890   9.476   2.127   0.074 -1.4759  1.0347 -1.0226
11600SOL     OW40891   2.779   6.776   6.749  0.1770  1.0012 -0.1599
11600SOL    HW140892   2.830   6.695   6.757 -0.3300  0.5790 -1.0433
11600SOL    HW240893   2.785   6.799   6.656 -1.5311  0.7432 -0.3569
11601SOL     OW40894   1.432  10.714   6.517  0.0896  0.2825 -0.5364
11601SOL    HW140895   1.459  10.805   6.511  0.6708  0.2535  1.1686
11601SOL    HW240896   1.509  10.668   6.550 -0.5753 -0.6160 -0.1779
11602SOL     OW40897   7.170   1.515   2.796  0.0075 -0.0385 -0.1312
11602SOL    HW140898   7.176   1.595   2.744 -0.9608  1.6138  2.1684
11602SOL    HW240899   7.253   1.511   2.844  0.8321 -1.4742 -1.5582
11603SOL     OW40900   2.307   8.454   2.558  0.1442  0.0383  0.1463
11603SOL    HW140901   2.370   8.389   2.589 -0.3244 -0.9951 -0.9671
11603SOL    HW240902   2.224   8.426   2.596 -0.4437 -1.2658 -1.9057
11604SOL     OW40903   2.064   1.887   2.803 -0.3462  0.3571  0.3878
11604SOL    HW140904   2.106   1.973   2.796  1.5988 -0.5372  0.4006
11604SOL    HW240905   2.036   1.867   2.714 -2.0058  1.5225  0.5999
11605SOL     OW40906   5.034   9.842   4.463  0.1517 -0.5925  0.2958
11605SOL    HW140907   5.025   9.924   4.511 -1.9699 -0.5176 -0.0959
11605SOL    HW240908   5.084   9.865   4.385  0.8789 -0.0255  0.9105
11606SOL     OW40909   5.769   5.354   2.426 -0.3876  0.1220 -0.2702
11606SOL    HW140910   5.788   5.448   2.436 -3.0221  0.8274 -1.1621
11606SOL    HW240911   5.676   5.351   2.404 -0.0401 -2.6332 -1.7030
11607SOL     OW40912   3.411   4.211   1.518  0.2134  0.2773 -0.4432
11607SOL    HW140913   3.441   4.140   1.575 -0.8636  0.4346  0.3381
11607SOL    HW240914   3.316   4.203   1.516  0.2029  0.5128 -1.9334
11608SOL     OW40915   6.067   3.124   6.092 -0.0919 -0.8648 -0.2877
11608SOL    HW140916   6.054   3.033   6.065 -2.0961 -0.2749 -1.5548
11608SOL    HW240917   6.030   3.175   6.020  0.0009  0.9227  0.8896
11609SOL     OW40918   5.954   9.574  10.419  0.3366  0.1490 -0.3687
11609SOL    HW140919   6.022   9.634  10.449  0.4155 -0.2168  0.2060
11609SOL    HW240920   5.980   9.489  10.454  0.4269 -0.3060 -1.4882
11610SOL     OW40921   9.887   6.612   4.835 -0.1447 -0.3627 -0.0093
11610SOL    HW140922   9.966   6.665   4.843 -0.6368  0.6978 -1.6105
11610SOL    HW240923   9.862   6.620   4.743 -1.1076 -2.1529  0.0449
11611SOL     OW40924   8.138   1.993   8.363  0.0791  0.3688  0.6327
11611SOL    HW140925   8.056   1.961   8.400 -1.1243  0.1808 -1.9662
11611SOL    HW240926   8.121   2.086   8.345 -0.5185 -0.1534 -2.0172
11612SOL     OW40927   0.719   4.556   9.068  0.1531 -0.0792 -0.1003
11612SOL    HW140928   0.765   4.483   9.026  0.9228  0.4977 -0.2830
11612SOL    HW240929   0.627   4.529   9.069  0.3748 -0.8865 -0.5064
11613SOL     OW40930   1.325  10.549   4.168  0.3820  0.2109 -0.0581
11613SOL    HW140931   1.247  10.602   4.152  0.3584 -0.1304 -1.1351
11613SOL    HW240932   1.296  10.459   4.154  0.8946  0.0637 -0.1700
11614SOL     OW40933   6.768   4.611   7.886  0.2403 -0.1190  0.6232
11614SOL    HW140934   6.732   4.699   7.891  1.3914  0.3882  0.2168
11614SOL    HW240935   6.735   4.576   7.802 -1.2909 -0.5900  1.3874
11615SOL     OW40936   3.225   1.577   2.456  0.1677 -0.0343  0.2160
11615SOL    HW140937   3.262   1.516   2.521  0.5486 -1.1963 -1.0541
11615SOL    HW240938   3.136   1.594   2.488 -0.4765 -2.4186 -0.1129
11616SOL     OW40939   1.503   5.199  10.286  0.3559 -0.1420  0.3663
11616SOL    HW140940   1.420   5.222  10.328 -1.2652 -1.8140 -1.6817
11616SOL    HW240941   1.509   5.257  10.211  2.7042  2.1039  2.1166
11617SOL     OW40942   8.115   1.891   3.751 -0.6342  0.0139  0.6425
11617SOL    HW140943   8.124   1.925   3.662  0.9392  1.5616  1.3311
11617SOL    HW240944   8.021   1.878   3.763 -1.1779  2.5063 -0.3122
11618SOL     OW40945   1.626  10.843   9.100 -0.1615  0.3609  0.2957
11618SOL    HW140946   1.672  10.801   9.028 -0.4481  1.0706 -0.3064
11618SOL    HW240947   1.539  10.864   9.066  0.0375  1.6085  0.5162
11619SOL     OW40948   5.038   2.648   6.324  0.0330 -0.5199  0.0147
11619SOL    HW140949   5.017   2.580   6.260  0.5855  0.2788 -1.0430
11619SOL    HW240950   4.955   2.693   6.340  0.0668 -0.1173 -0.8815
11620SOL     OW40951   5.683   5.056   2.330  0.3422 -0.2872 -0.1684
11620SOL    HW140952   5.775   5.048   2.354  0.1118 -0.9608  0.5457
11620SOL    HW240953   5.637   5.005   2.397 -0.6396  1.0128  0.1938
11621SOL     OW40954   4.579   5.967   4.110  0.0302  0.3383 -0.0623
11621SOL    HW140955   4.580   6.037   4.175 -1.0074  2.2310 -1.9408
11621SOL    HW240956   4.611   5.890   4.156 -0.3986  1.6371  2.5744
11622SOL     OW40957   4.819   5.814   3.165  0.5023  0.2919 -0.0021
11622SOL    HW140958   4.739   5.829   3.115  1.3270  1.5235 -1.0139
11622SOL    HW240959   4.818   5.720   3.183 -0.9951  0.2249 -0.2818
11623SOL     OW40960   2.928   4.063   3.429  0.6708  0.5647 -0.3955
11623SOL    HW140961   2.833   4.072   3.440  0.5685  0.1984 -0.9351
11623SOL    HW240962   2.948   3.979   3.470  0.6895  0.4218 -0.6986
11624SOL     OW40963   0.236   4.235   9.282 -0.5409 -0.6541 -0.4760
11624SOL    HW140964   0.250   4.250   9.376 -2.2506 -0.8172 -0.1635
11624SOL    HW240965   0.281   4.153   9.264  0.8913  0.0263 -0.0977
11625SOL     OW40966   3.186   7.244   2.039 -0.2708  0.2435 -0.7750
11625SOL    HW140967   3.111   7.210   1.989 -0.3908 -0.5061 -0.0914
11625SOL    HW240968   3.155   7.329   2.071 -1.6192 -0.9304  1.2168
11626SOL     OW40969   7.100   6.403   7.091 -0.0748 -0.1138 -0.7667
11626SOL    HW140970   7.059   6.488   7.104  0.4628  0.2950 -1.6775
11626SOL    HW240971   7.187   6.412   7.131 -0.5566 -0.7358  0.4858
11627SOL     OW40972   2.322   3.926   6.513 -0.6107  0.1780  0.4855
11627SOL    HW140973   2.344   3.845   6.560  1.1743  1.8872  2.8274
11627SOL    HW240974   2.399   3.944   6.459 -1.5787 -0.3660 -1.1292
11628SOL     OW40975   6.538   8.036   3.031  0.0545  0.5503 -0.0484
11628SOL    HW140976   6.573   8.003   3.114 -0.1200  1.7299  0.5268
11628SOL    HW240977   6.522   7.958   2.979  3.0752 -0.1219 -0.1864
11629SOL     OW40978   3.922  10.903   9.024 -0.0040  0.0705 -0.3605
11629SOL    HW140979   3.854  10.836   9.015  1.5092 -1.5882 -0.0079
11629SOL    HW240980   3.976  10.873   9.097  0.7083  1.7164 -0.1696
11630SOL     OW40981   2.816   6.834  10.381  0.3912 -0.2654  0.1214
11630SOL    HW140982   2.786   6.907  10.327  0.4615  0.0370  0.4880
11630SOL    HW240983   2.820   6.869  10.470  0.7183 -0.6310  0.2565
11631SOL     OW40984   4.398   8.002   8.784  0.4873  0.0524 -0.3044
11631SOL    HW140985   4.376   7.929   8.843 -0.8218  0.9667  0.3898
11631SOL    HW240986   4.318   8.053   8.778  1.5981  1.9151 -0.0996
11632SOL     OW40987   5.074   5.969  10.404  0.2224 -0.1447  0.2510
11632SOL    HW140988   5.163   6.002  10.403  0.0139  0.4321  0.2390
11632SOL    HW240989   5.058   5.946  10.496 -0.0523  0.9849  0.5014
11633SOL     OW40990   3.885   9.736   0.375 -0.0556 -0.3386 -0.3948
11633SOL    HW140991   3.977   9.761   0.386  0.3579 -1.5783 -0.8456
11633SOL    HW240992   3.870   9.672   0.444 -0.0728 -1.4090 -1.3673
11634SOL     OW40993   4.108   8.093   8.893  0.0296 -0.5470  0.2192
11634SOL    HW140994   4.115   8.138   8.978 -1.1504 -1.0407  0.5999
11634SOL    HW240995   4.137   8.004   8.912  2.2871 -0.0530 -0.5171
11635SOL     OW40996   1.513   7.398   4.022 -0.2798 -0.3261  0.1874
11635SOL    HW140997   1.549   7.389   3.934  0.0770  0.0597  0.2889
11635SOL    HW240998   1.489   7.491   4.029  1.2774  0.0498  1.0803
11636SOL     OW40999   4.253   4.416   0.536  0.0487  0.3720  0.3947
11636SOL    HW141000   4.185   4.361   0.576 -0.5175  1.4747  0.9769
11636SOL    HW241001   4.329   4.358   0.529 -0.5978 -0.5534  0.7821
11637SOL     OW41002   6.699   0.176   9.170  0.0657 -0.5904 -0.0129
11637SOL    HW141003   6.640   0.201   9.241 -1.4404  2.0900 -2.0246
11637SOL    HW241004   6.643   0.129   9.108 -0.2513  2.4152 -2.1876
11638SOL     OW41005  10.334   3.308   7.953 -0.5848 -0.4381  0.1724
11638SOL    HW141006  10.399   3.239   7.960 -1.8082 -1.6885 -0.2023
11638SOL    HW241007  10.339   3.336   7.861  0.3367  0.4285  0.4752
11639SOL     OW41008   0.702   3.739   0.804 -0.3505  0.0024 -0.1156
11639SOL    HW141009   0.607   3.730   0.806 -0.8467  2.9645 -2.5507
11639SOL    HW241010   0.727   3.715   0.715  0.7796  1.6602 -0.2983
11640SOL     OW41011   9.518   0.041   7.903  0.1758  0.0699 -0.4263
11640SOL    HW141012   9.572  -0.030   7.937  0.0033 -0.7094 -1.7359
11640SOL    HW241013   9.470   0.073   7.980 -2.2251 -3.4081 -0.2695
11641SOL     OW41014   6.151   3.524   5.756 -0.4177  0.5754 -0.0430
11641SOL    HW141015   6.184   3.434   5.765  0.6581  1.0724  1.2945
11641SOL    HW241016   6.115   3.527   5.667 -0.7950 -1.2674 -0.0074
11642SOL     OW41017   0.134   0.438   1.299  0.6617 -0.3206 -0.1796
11642SOL    HW141018   0.225   0.409   1.292  0.5899 -0.6065  0.0814
11642SOL    HW241019   0.090   0.396   1.226  1.1054  1.2576 -1.4260
11643SOL     OW41020   8.885   4.791   7.350  0.5608  0.0469 -0.2055
11643SOL    HW141021   8.937   4.731   7.403  0.4711  0.2975  0.1723
11643SOL    HW241022   8.896   4.877   7.392 -0.1941  0.0946 -0.0840
11644SOL     OW41023   5.257  10.817   4.827 -0.4247 -0.3052  0.1023
11644SOL    HW141024   5.217  10.817   4.740  1.8239  0.6261 -1.0191
11644SOL    HW241025   5.328  10.753   4.821  2.3189  2.4872 -0.1702
11645SOL     OW41026   9.880   7.285   6.383  0.1118 -0.0528  0.6975
11645SOL    HW141027   9.936   7.284   6.461  1.2800  0.6976 -0.0971
11645SOL    HW241028   9.792   7.268   6.417  0.7940 -1.3177  1.9886
11646SOL     OW41029   4.885   4.812  10.573 -0.1060 -0.3710 -0.0472
11646SOL    HW141030   4.833   4.752  10.626  0.2897  0.4952  1.3829
11646SOL    HW241031   4.950   4.848  10.634  0.4992  0.5236 -1.1727
11647SOL     OW41032   9.110   0.493   1.414  0.3021  0.0251  0.5323
11647SOL    HW141033   9.151   0.483   1.328 -1.3880 -0.3769 -0.2576
11647SOL    HW241034   9.168   0.444   1.473  1.7433  0.7108 -0.2611
11648SOL     OW41035   8.324   3.244   3.171  0.1887  0.0422  0.1990
11648SOL    HW141036   8.378   3.312   3.210  0.7867 -0.4829  0.3035
11648SOL    HW241037   8.367   3.225   3.087 -0.3812  0.2916 -0.1578
11649SOL     OW41038   7.063   6.303   9.602 -0.1487  0.2822  0.3944
11649SOL    HW141039   7.054   6.384   9.551  0.4692  0.3853  0.4510
11649SOL    HW241040   7.034   6.234   9.543 -1.2593  0.5996  0.5435
11650SOL     OW41041   0.153   2.869   9.382  0.5577 -0.5334 -0.3485
11650SOL    HW141042   0.223   2.806   9.362  0.2577 -1.4675  1.3438
11650SOL    HW241043   0.076   2.834   9.339  0.3727 -1.4181  0.6604
11651SOL     OW41044   6.677   2.178   1.068 -0.4556  0.5220  0.8657
11651SOL    HW141045   6.680   2.090   1.032 -1.4423 -0.6053  3.2814
11651SOL    HW241046   6.618   2.226   1.011 -2.7311 -1.4355  1.4065
11652SOL     OW41047   4.874   3.669   2.973  0.0132  0.3057 -0.2790
11652SOL    HW141048   4.938   3.643   2.907 -1.1947  0.3062 -1.5102
11652SOL    HW241049   4.801   3.607   2.961 -0.8884  1.2896 -0.0214
11653SOL     OW41050   6.912   9.622   5.459 -0.0658 -0.2791  0.5058
11653SOL    HW141051   6.908   9.615   5.364 -1.0350 -1.5153  0.6081
11653SOL    HW241052   6.826   9.657   5.484 -0.0742 -0.6092  0.9585
11654SOL     OW41053   9.766   2.898   9.967 -0.1900  0.3015 -0.0113
11654SOL    HW141054   9.752   2.856  10.051 -0.7524  1.3358  0.4204
11654SOL    HW241055   9.861   2.895   9.955  0.0942  1.7768  1.5356
11655SOL     OW41056   3.440   5.349  10.100 -0.3757  0.3857 -0.3330
11655SOL    HW141057   3.380   5.275  10.098 -0.2955  0.3288 -0.6904
11655SOL    HW241058   3.383   5.426  10.098 -0.6206  0.4189  2.8030
11656SOL     OW41059   0.345   6.579   1.128  0.0598  0.1136  0.0409
11656SOL    HW141060   0.305   6.498   1.096 -0.7591  0.6019 -0.1944
11656SOL    HW241061   0.314   6.588   1.218  0.3539  0.0413  0.1517
11657SOL     OW41062   4.349   2.295  10.698 -0.1986  0.2871  0.0485
11657SOL    HW141063   4.273   2.272  10.645 -0.3406  1.6306 -0.3578
11657SOL    HW241064   4.424   2.280  10.641  0.0248 -2.3710  0.8777
11658SOL     OW41065   1.019   2.015   0.132 -0.1023  0.3314 -0.1290
11658SOL    HW141066   1.099   2.048   0.172 -0.3902 -0.7474  1.4274
11658SOL    HW241067   0.966   2.093   0.116  0.7412  0.9345 -0.0245
11659SOL     OW41068  10.859   2.760   5.178 -0.4761  0.0623 -0.1343
11659SOL    HW141069  10.874   2.708   5.258 -0.1159 -0.6355 -0.6447
11659SOL    HW241070  10.777   2.726   5.143  0.1188 -0.6811 -0.8522
11660SOL     OW41071   6.098   4.217   8.981  0.1566 -0.1269 -0.0110
11660SOL    HW141072   6.035   4.283   9.010 -0.6630 -1.1084  0.5301
11660SOL    HW241073   6.071   4.137   9.027  0.1906 -1.2020 -1.7585
11661SOL     OW41074   8.424   0.461   8.742 -0.2998 -0.1773  0.2819
11661SOL    HW141075   8.358   0.427   8.802  0.3645 -0.5766  0.8025
11661SOL    HW241076   8.410   0.556   8.742  0.5390  0.0020  2.1515
11662SOL     OW41077   2.492   6.954   6.170 -0.4701  0.4466 -0.5975
11662SOL    HW141078   2.573   7.004   6.156  0.2357 -1.1882 -3.0027
11662SOL    HW241079   2.494   6.931   6.263  1.0124  1.7756 -0.2495
11663SOL     OW41080   5.783  10.103   7.368  0.2794  0.1142 -0.0079
11663SOL    HW141081   5.739  10.103   7.453 -1.1634  1.9515 -0.7001
11663SOL    HW241082   5.853  10.039   7.378 -2.0264 -2.3830  1.4020
11664SOL     OW41083  10.555   5.570   2.582 -0.7348 -0.6537 -0.2521
11664SOL    HW141084  10.465   5.603   2.574 -0.6734 -0.3601  0.2516
11664SOL    HW241085  10.606   5.626   2.524 -0.6719  0.0063  0.4181
11665SOL     OW41086   3.293   9.521   2.601  0.0050  0.3865  0.4242
11665SOL    HW141087   3.206   9.558   2.591  0.7503  1.8491 -1.1576
11665SOL    HW241088   3.351   9.598   2.602  1.2834 -0.5364  1.6127
11666SOL     OW41089   0.502   3.898   5.736  0.5339 -0.0430  0.0837
11666SOL    HW141090   0.577   3.924   5.683  0.5390  0.1406  0.1800
11666SOL    HW241091   0.537   3.833   5.797  0.7110  0.3754  0.4265
11667SOL     OW41092   8.412   0.023   5.794 -0.3834 -0.3601 -0.0854
11667SOL    HW141093   8.322   0.005   5.820  0.3089 -2.1434  1.3612
11667SOL    HW241094   8.417  -0.005   5.703 -1.1825 -0.6803 -0.0392
11668SOL     OW41095   4.822   4.351   9.607 -0.3112  0.1627 -0.4043
11668SOL    HW141096   4.772   4.431   9.597 -0.3375 -0.0141 -1.7797
11668SOL    HW241097   4.912   4.376   9.587 -0.5114 -0.3961 -2.1696
11669SOL     OW41098   8.403   6.608   3.996  0.1931 -0.4817 -0.1443
11669SOL    HW141099   8.334   6.591   4.060 -1.0302 -0.4984 -1.4051
11669SOL    HW241100   8.437   6.521   3.975  0.4918 -0.4887  0.3652
11670SOL     OW41101   7.841   5.993   9.368  0.9154  0.2358 -0.4637
11670SOL    HW141102   7.868   5.939   9.443 -0.2780 -1.1846 -1.0004
11670SOL    HW241103   7.905   6.063   9.365  0.6717  0.6812  2.2378
11671SOL     OW41104   6.632   1.404   4.672  0.3693 -0.3328 -0.1348
11671SOL    HW141105   6.567   1.335   4.657  0.2237  0.0960 -1.5797
11671SOL    HW241106   6.699   1.362   4.726  1.2809 -2.2215 -2.5871
11672SOL     OW41107   1.290   8.108   1.678 -0.1172 -0.2095  0.2568
11672SOL    HW141108   1.248   8.053   1.612  0.3246 -1.5233  1.0295
11672SOL    HW241109   1.360   8.152   1.630 -1.0179  0.3689 -0.5640
11673SOL     OW41110   8.974   7.307   6.594 -0.3728  0.2550 -0.0222
11673SOL    HW141111   8.928   7.229   6.560 -0.5999  1.1880 -2.0201
11673SOL    HW241112   9.058   7.274   6.624 -0.6146 -0.8285 -0.4710
11674SOL     OW41113   3.768   2.149   3.303 -0.0009 -0.2501  0.2589
11674SOL    HW141114   3.857   2.182   3.291  0.2490 -0.5090  1.3065
11674SOL    HW241115   3.745   2.109   3.219  0.3796  0.9412 -0.4351
11675SOL     OW41116   6.300   4.104   3.232  0.1490 -0.5108  0.0463
11675SOL    HW141117   6.242   4.034   3.262  0.2943 -1.2240 -1.2660
11675SOL    HW241118   6.363   4.115   3.304 -0.2137 -1.3363  0.5061
11676SOL     OW41119   7.248   2.090   4.887 -0.5219  0.0524  0.1487
11676SOL    HW141120   7.287   2.090   4.799  1.1087  0.9427  0.8188
11676SOL    HW241121   7.159   2.123   4.874 -0.3709 -0.0075 -1.1783
11677SOL     OW41122   6.368   9.925   7.622  0.1750  0.4303  0.0825
11677SOL    HW141123   6.458   9.897   7.641  0.7190 -0.5558 -3.2797
11677SOL    HW241124   6.339   9.969   7.702  2.5497 -1.8369  2.3729
11678SOL     OW41125   0.577   5.978   9.398 -0.3003 -0.1202  0.4130
11678SOL    HW141126   0.605   6.035   9.469  1.5888  1.0198 -1.1375
11678SOL    HW241127   0.654   5.924   9.378 -0.7928 -0.4424 -0.7255
11679SOL     OW41128   7.905   6.972   0.405  0.0860 -0.2006  0.0754
11679SOL    HW141129   7.882   6.994   0.495  2.4670 -0.8890  0.9292
11679SOL    HW241130   7.862   6.888   0.389  0.7049 -0.7106  1.0406
11680SOL     OW41131   5.333   0.856   2.997  0.3223  0.2791  0.6409
11680SOL    HW141132   5.417   0.873   3.038  1.4559 -0.4297 -1.2795
11680SOL    HW241133   5.308   0.769   3.028 -0.1201  0.8067  1.8236
11681SOL     OW41134   3.708   4.998   5.829 -0.1595 -0.2457 -0.5326
11681SOL    HW141135   3.707   4.961   5.740  1.7400 -0.5505 -0.4643
11681SOL    HW241136   3.751   4.931   5.882 -0.3891  0.3580  0.4317
11682SOL     OW41137   8.640   0.527   4.930 -0.1261  0.1125  0.2160
11682SOL    HW141138   8.677   0.616   4.929 -0.2524  0.1652  0.1926
11682SOL    HW241139   8.570   0.530   4.864 -1.5068  0.5859  1.6318
11683SOL     OW41140   4.318   6.234   0.887 -0.2316  0.0815  0.0740
11683SOL    HW141141   4.247   6.177   0.917  0.8290 -0.9365  0.6966
11683SOL    HW241142   4.305   6.239   0.792 -0.1474 -1.4917 -0.0512
11684SOL     OW41143   2.423   3.616   4.719 -0.5800 -0.4834  0.8199
11684SOL    HW141144   2.357   3.580   4.778 -3.0950 -0.3685 -1.7241
11684SOL    HW241145   2.407   3.710   4.719 -0.3875 -0.4455  0.2179
11685SOL     OW41146   7.788   1.199   5.937  0.1089  0.1877  0.0876
11685SOL    HW141147   7.798   1.269   5.872 -0.8594 -0.0486 -0.3310
11685SOL    HW241148   7.699   1.211   5.972 -0.4635 -1.4441 -0.7419
11686SOL     OW41149   2.317   9.221   7.447 -0.4205  0.6447  0.2795
11686SOL    HW141150   2.314   9.127   7.464 -0.0449  0.4409 -0.6970
11686SOL    HW241151   2.388   9.253   7.503 -0.7131  0.3894  0.7968
11687SOL     OW41152   1.493   2.554   4.225  0.1588 -0.2087 -0.1213
11687SOL    HW141153   1.529   2.550   4.313  1.0447 -0.6064 -0.4861
11687SOL    HW241154   1.432   2.481   4.221  0.3250 -0.3608  0.0775
11688SOL     OW41155   3.082  10.651   1.312  0.0552  0.2252  0.2860
11688SOL    HW141156   3.055  10.657   1.220  1.1042  2.5260  0.0595
11688SOL    HW241157   3.001  10.632   1.359 -0.5381 -0.7836 -1.0704
11689SOL     OW41158   7.265   6.543  10.748  0.1548  0.6692 -0.2099
11689SOL    HW141159   7.267   6.624  10.698 -2.3430  0.8344 -0.1511
11689SOL    HW241160   7.221   6.566  10.830  3.2026  0.1626  1.7515
11690SOL     OW41161   0.295   0.054   7.944 -0.5417  0.3694  0.2046
11690SOL    HW141162   0.236   0.129   7.955  1.6195  2.6014 -1.9696
11690SOL    HW241163   0.254   0.001   7.876 -0.7980  1.0547 -0.1850
11691SOL     OW41164   7.451   7.668   0.978 -0.2483 -0.2324 -0.2228
11691SOL    HW141165   7.417   7.592   1.025  1.2088 -1.4371 -1.0592
11691SOL    HW241166   7.503   7.715   1.042 -0.8128 -0.1450  0.1826
11692SOL     OW41167   5.265   8.215   4.410 -0.1770  0.8235 -0.0775
11692SOL    HW141168   5.272   8.257   4.496  0.6990  1.5171 -0.4681
11692SOL    HW241169   5.171   8.214   4.391 -0.3896  0.5145  0.9549
11693SOL     OW41170   8.692   2.207   7.624  0.1278 -0.2216 -0.2745
11693SOL    HW141171   8.663   2.190   7.534  0.4091  3.5264 -1.2366
11693SOL    HW241172   8.611   2.220   7.673  0.0007 -0.0019 -0.5394
11694SOL     OW41173   3.094   5.083   5.068 -0.0504  0.6202 -0.1099
11694SOL    HW141174   3.180   5.073   5.026 -0.5681 -0.1719 -1.0152
11694SOL    HW241175   3.106   5.156   5.129  0.9420  1.3401 -1.1105
11695SOL     OW41176   4.870   1.217   0.022 -0.2884 -0.3279  0.3441
11695SOL    HW141177   4.921   1.222   0.103 -0.3611 -0.2462  0.3853
11695SOL    HW241178   4.793   1.272   0.038  0.5319  1.0972 -0.3795
11696SOL     OW41179  10.860   1.305   1.298  0.5012  0.1297  0.6643
11696SOL    HW141180  10.876   1.353   1.379  2.3850  1.7809 -0.5945
11696SOL    HW241181  10.920   1.231   1.302  0.9668  0.4982  0.5566
11697SOL     OW41182   1.731   8.433   1.920  0.2360  0.2291 -0.1211
11697SOL    HW141183   1.752   8.379   1.997 -0.4789  0.1274  0.0102
11697SOL    HW241184   1.813   8.437   1.871  0.5060 -0.3279  0.2680
11698SOL     OW41185   8.304   9.013   8.557 -0.1259  0.7292  0.0796
11698SOL    HW141186   8.328   9.002   8.465 -0.5348  0.9914 -0.0619
11698SOL    HW241187   8.340   8.936   8.600 -1.1117 -0.1010 -0.5299
11699SOL     OW41188   9.021   9.122   1.384  0.3115  0.2109  0.2625
11699SOL    HW141189   9.034   9.100   1.476 -0.9518 -0.8118  0.2245
11699SOL    HW241190   9.097   9.176   1.361  0.0258  1.5583  2.2395
11700SOL     OW41191   4.069   0.966   5.186 -0.3333  0.2857 -0.5568
11700SOL    HW141192   4.066   1.043   5.243  0.3130 -0.0160 -0.1008
11700SOL    HW241193   4.163   0.950   5.172 -0.4609  0.7741 -2.3002
11701SOL     OW41194   9.685   1.632   1.878  0.2861 -0.8163  0.0458
11701SOL    HW141195   9.719   1.545   1.859  0.8573 -0.6202  0.1500
11701SOL    HW241196   9.610   1.642   1.819  0.4223 -1.2491 -0.2003
11702SOL     OW41197   5.085   9.699   2.386 -0.2311  0.0078 -0.7997
11702SOL    HW141198   5.006   9.740   2.422  0.3049 -0.8739  1.5971
11702SOL    HW241199   5.154   9.765   2.398  0.0275 -0.4322  0.2225
11703SOL     OW41200   6.405   1.643   6.371  0.0678 -0.1507 -0.5140
11703SOL    HW141201   6.438   1.623   6.459 -0.9532 -0.1234 -0.1205
11703SOL    HW241202   6.352   1.567   6.347 -2.6575  1.3212  0.4079
11704SOL     OW41203   6.519   1.734   1.842 -0.2655  0.2374  0.0143
11704SOL    HW141204   6.455   1.693   1.902 -1.2178  1.5332 -0.0799
11704SOL    HW241205   6.593   1.757   1.898 -0.1142 -0.7240  0.2374
11705SOL     OW41206   4.239   4.247   7.860  0.0118 -0.2483  0.4324
11705SOL    HW141207   4.227   4.279   7.950 -0.6627 -2.8620  1.3940
11705SOL    HW241208   4.328   4.211   7.859  1.0055  2.0617 -0.8169
11706SOL     OW41209  10.089   9.728   8.288  0.2494  0.1958  0.1548
11706SOL    HW141210  10.118   9.732   8.379  0.8936 -1.8991  0.1016
11706SOL    HW241211  10.129   9.804   8.246 -0.0350  1.1792  1.5984
11707SOL     OW41212   1.018  10.416   2.404 -0.3711  0.5300  0.5491
11707SOL    HW141213   0.940  10.466   2.426 -0.5414  0.4041  0.2349
11707SOL    HW241214   1.016  10.408   2.309  0.3428  1.0463  0.4788
11708SOL     OW41215   6.426   3.534   8.918 -0.0500 -0.1130 -0.1776
11708SOL    HW141216   6.335   3.519   8.942  0.1308 -0.2352  0.4610
11708SOL    HW241217   6.470   3.451   8.936  0.3626  0.2237  0.4175
11709SOL     OW41218   3.561   8.277   1.215 -0.0441 -0.3490 -0.4856
11709SOL    HW141219   3.562   8.330   1.294  0.7145  1.1213 -1.4276
11709SOL    HW241220   3.471   8.280   1.185 -0.5754 -1.7972  0.8485
11710SOL     OW41221   2.865   2.779   3.732 -0.4470  0.3060  0.1696
11710SOL    HW141222   2.799   2.820   3.676  0.0524  1.5429  0.4610
11710SOL    HW241223   2.864   2.832   3.812 -0.3924 -0.7836  0.9039
11711SOL     OW41224   1.559   8.376   7.011 -0.6494  0.4057 -0.2610
11711SOL    HW141225   1.499   8.303   7.031  0.2897 -0.1017  0.8553
11711SOL    HW241226   1.502   8.446   6.982 -1.6545 -0.5462 -0.6790
11712SOL     OW41227   2.689   4.324   1.542  0.1170 -0.0287 -0.0010
11712SOL    HW141228   2.691   4.308   1.636  0.2027  0.2140  0.0396
11712SOL    HW241229   2.720   4.243   1.503 -0.7536 -0.4454  0.1422
11713SOL     OW41230   1.683  10.531   5.486 -0.3039 -0.6767  0.2383
11713SOL    HW141231   1.656  10.623   5.482 -2.0472 -1.0594  1.7244
11713SOL    HW241232   1.773  10.534   5.517  1.0137  0.5985 -3.1884
11714SOL     OW41233   9.974   3.194   7.480 -0.1530 -0.0763 -0.0617
11714SOL    HW141234   9.908   3.263   7.482  1.2063  1.3452 -1.2430
11714SOL    HW241235  10.011   3.198   7.392  0.5157 -1.8178  0.0874
11715SOL     OW41236   6.863  10.136   4.003 -0.6672  0.2816  0.2076
11715SOL    HW141237   6.928  10.074   4.036  0.1108  0.4768 -0.8946
11715SOL    HW241238   6.910  10.187   3.937 -2.7112 -1.7590 -3.0934
11716SOL     OW41239   7.045   3.822   8.401  0.5276  0.0075  0.2741
11716SOL    HW141240   6.958   3.785   8.382  1.0509 -0.9495 -0.3060
11716SOL    HW241241   7.058   3.888   8.332  1.4129 -1.7925 -1.3682
11717SOL     OW41242   5.169   0.571   7.553 -0.1586  0.2505  0.5206
11717SOL    HW141243   5.104   0.606   7.614 -0.1944  1.1248  0.0005
11717SOL    HW241244   5.118   0.514   7.495 -0.8321  2.2436 -0.9524
11718SOL     OW41245  10.128   9.446   2.363 -0.5795  0.0864 -0.5766
11718SOL    HW141246  10.153   9.354   2.374 -0.8827  0.0008 -0.6231
11718SOL    HW241247  10.211   9.490   2.341 -0.0518  0.1465  1.3227
11719SOL     OW41248   1.555   1.426  10.328  0.9868 -0.2082  0.3106
11719SOL    HW141249   1.601   1.349  10.363  0.7060 -0.6758 -0.3355
11719SOL    HW241250   1.622   1.473  10.278  1.3523  0.3839  1.3323
11720SOL     OW41251   3.848   5.294   2.705 -0.0252  0.2954 -0.0205
11720SOL    HW141252   3.835   5.383   2.740 -1.1501  0.1888 -0.1216
11720SOL    HW241253   3.760   5.266   2.679 -0.5320 -2.5531  3.9865
11721SOL     OW41254   8.157   5.843   7.985 -0.4173  0.5793  0.0146
11721SOL    HW141255   8.154   5.938   7.981  2.4099  0.7044 -0.7839
11721SOL    HW241256   8.185   5.816   7.898 -0.4864 -0.9436  0.4368
11722SOL     OW41257   1.367   6.626   1.896 -0.3025 -0.6040  0.3981
11722SOL    HW141258   1.349   6.699   1.836  3.5470  1.2177  1.1711
11722SOL    HW241259   1.328   6.654   1.979  1.8900  1.1901  0.9350
11723SOL     OW41260   1.255   3.051   3.307 -0.4849  0.6244 -0.3336
11723SOL    HW141261   1.240   2.971   3.256  2.5815 -0.1766 -0.2165
11723SOL    HW241262   1.271   3.019   3.396  1.8951  1.1711 -0.5053
11724SOL     OW41263   3.173   6.581   9.285 -0.5184  0.1057 -0.0512
11724SOL    HW141264   3.106   6.530   9.239  0.4480 -0.5399 -0.7621
11724SOL    HW241265   3.202   6.524   9.356 -0.8680  0.4722  0.3904
11725SOL     OW41266   1.493   7.465   6.879 -0.0131 -0.0120 -0.6257
11725SOL    HW141267   1.424   7.454   6.814 -0.4784  0.6377 -0.2472
11725SOL    HW241268   1.564   7.409   6.848  0.0759  0.8927 -2.1158
11726SOL     OW41269   9.173   1.929   6.055  0.0253  0.0121  0.2370
11726SOL    HW141270   9.097   1.928   5.997 -1.5151  1.4277  2.0753
11726SOL    HW241271   9.247   1.908   5.998 -1.5600 -0.1780 -1.8966
11727SOL     OW41272   3.677   4.988   5.529  0.2666  0.0850  0.1145
11727SOL    HW141273   3.669   4.977   5.434  0.9692  1.7771 -0.1738
11727SOL    HW241274   3.741   5.058   5.540 -0.0968  0.1955  1.8408
11728SOL     OW41275   1.809   6.456   6.334 -0.1558 -0.1696  0.0537
11728SOL    HW141276   1.869   6.511   6.383  0.9323 -1.0590 -0.2583
11728SOL    HW241277   1.724   6.469   6.378  0.4821  0.1904  1.2268
11729SOL     OW41278   2.736   0.266   7.374 -0.1541 -0.3307  0.5163
11729SOL    HW141279   2.666   0.315   7.417  1.0679  0.9986  1.0771
11729SOL    HW241280   2.775   0.328   7.313 -0.6462 -1.6276 -1.1981
11730SOL     OW41281   3.401   5.512   5.945  0.0623 -0.9367 -0.5834
11730SOL    HW141282   3.406   5.492   6.039  1.2157  2.5079  0.2215
11730SOL    HW241283   3.481   5.476   5.908  0.9278  0.0110  0.3214
11731SOL     OW41284   6.165   7.807   2.289 -0.0861  0.5723  0.0159
11731SOL    HW141285   6.163   7.711   2.286 -0.7790  0.4771  1.9548
11731SOL    HW241286   6.169   7.827   2.383 -2.6577  2.4425 -0.1775
11732SOL     OW41287   1.427   8.367   8.830 -0.0410  0.3578  0.1064
11732SOL    HW141288   1.520   8.387   8.838 -0.0014  0.1454  0.1708
11732SOL    HW241289   1.389   8.395   8.913  0.0497 -0.0286  0.2805
11733SOL     OW41290   9.788   6.657  10.314  0.7308 -0.2968  0.0873
11733SOL    HW141291   9.750   6.676  10.228  3.0455  0.9502 -0.7505
11733SOL    HW241292   9.864   6.602  10.295  0.3150 -1.4471  1.5381
11734SOL     OW41293   2.635   6.373   6.677  0.5647  0.1415  0.3391
11734SOL    HW141294   2.664   6.307   6.614  0.1904  1.0133 -0.7825
11734SOL    HW241295   2.539   6.367   6.676  0.4560  1.5046 -0.7218
11735SOL     OW41296   1.202   8.171   9.730  0.3293  0.7354 -0.4921
11735SOL    HW141297   1.189   8.216   9.813  1.4566  0.2389 -0.0284
11735SOL    HW241298   1.205   8.078   9.753 -2.7204  0.2824 -1.5230
11736SOL     OW41299   5.528   9.163   8.784  0.4267  0.3063  0.4932
11736SOL    HW141300   5.436   9.137   8.786  0.6911 -0.6945  0.2039
11736SOL    HW241301   5.531   9.242   8.837 -0.8500  1.1928 -0.6663
11737SOL     OW41302   2.593   3.286   1.072 -0.3179  0.3301 -0.0402
11737SOL    HW141303   2.612   3.300   1.165  0.4442  1.8840 -0.3919
11737SOL    HW241304   2.498   3.294   1.065 -0.3894  0.1193  0.6126
11738SOL     OW41305   6.598   5.695   9.493  0.2148  0.1707 -0.1185
11738SOL    HW141306   6.533   5.680   9.425  1.1202 -1.5650 -0.6642
11738SOL    HW241307   6.564   5.650   9.570  1.0007 -1.2474 -0.5710
11739SOL     OW41308   0.293  10.198   2.542  0.3336 -0.2811  0.6647
11739SOL    HW141309   0.382  10.187   2.507 -0.1299  0.4490 -0.8025
11739SOL    HW241310   0.302  10.265   2.610  0.8432  0.0982  0.2306
11740SOL     OW41311   6.332   8.619   8.999 -0.6269  0.2335 -0.0274
11740SOL    HW141312   6.270   8.545   8.998 -1.4805  0.9142  0.7581
11740SOL    HW241313   6.373   8.614   9.085 -1.7364  1.4877  0.6133
11741SOL     OW41314   7.220   1.968   6.704 -0.2089 -0.6068 -0.1129
11741SOL    HW141315   7.301   1.918   6.696  1.1402  1.5130 -0.5592
11741SOL    HW241316   7.181   1.965   6.617 -0.5559 -1.4944  0.0605
11742SOL     OW41317   6.477   8.658   1.025  0.0416  0.4509  0.7106
11742SOL    HW141318   6.519   8.596   1.086 -0.6851 -0.0581  0.7079
11742SOL    HW241319   6.548   8.685   0.967  0.2381 -0.9520  0.2475
11743SOL     OW41320   5.457   3.944  10.491 -0.2008 -0.5517 -0.2960
11743SOL    HW141321   5.518   4.014  10.469 -1.0474 -0.0849 -1.2169
11743SOL    HW241322   5.501   3.864  10.465  0.8057 -0.3922  0.8301
11744SOL     OW41323   6.482   3.901   7.889  0.1374 -0.0682 -0.3907
11744SOL    HW141324   6.461   3.985   7.928  0.6713  0.0065 -0.2508
11744SOL    HW241325   6.461   3.911   7.797 -3.4436 -1.0146  0.2000
11745SOL     OW41326   7.850   1.579   5.643  0.0498 -0.5391  0.0797
11745SOL    HW141327   7.854   1.564   5.548 -0.3009  1.4114 -0.3064
11745SOL    HW241328   7.844   1.492   5.681  0.1331 -1.3785 -1.6990
11746SOL     OW41329   0.496   3.506   2.197  0.3749 -0.2845  0.0430
11746SOL    HW141330   0.568   3.535   2.140 -0.4785  0.6027 -0.6177
11746SOL    HW241331   0.535   3.499   2.284  1.4653 -0.6875 -0.4563
11747SOL     OW41332   9.505   2.546   8.945  0.0462  0.6633  0.0258
11747SOL    HW141333   9.499   2.464   8.896 -0.9797  0.7143  0.0466
11747SOL    HW241334   9.591   2.544   8.986  1.2136  0.8760 -2.2460
11748SOL     OW41335   4.716   2.301   6.966 -0.1751 -0.7369 -0.1490
11748SOL    HW141336   4.806   2.316   6.996 -0.0472 -1.5421 -0.1013
11748SOL    HW241337   4.663   2.314   7.044 -0.4299  2.5494 -0.7630
11749SOL     OW41338   6.843   2.539   5.533  0.2862  0.0708 -0.8137
11749SOL    HW141339   6.889   2.620   5.514 -0.6975  0.1583 -3.2616
11749SOL    HW241340   6.856   2.524   5.627  1.3844  2.4639 -0.5293
11750SOL     OW41341  10.693   2.987   4.427  0.3185  0.0433  0.5153
11750SOL    HW141342  10.603   3.019   4.429  0.3728  0.3017 -0.5866
11750SOL    HW241343  10.746   3.060   4.460 -0.0444 -0.9197  3.5192
11751SOL     OW41344   0.244   5.757  10.270 -0.0459 -0.1797  0.0548
11751SOL    HW141345   0.283   5.670  10.280  0.0112 -0.4507 -2.0840
11751SOL    HW241346   0.167   5.755  10.327 -0.4225 -1.8812 -0.4545
11752SOL     OW41347   4.996   5.699   1.806  0.9827 -0.3694  0.4218
11752SOL    HW141348   5.066   5.765   1.804  0.2967  0.3735 -1.4347
11752SOL    HW241349   4.938   5.728   1.877  0.5290  1.2599 -0.5543
11753SOL     OW41350  10.803   2.347   9.640  0.3265 -0.3138 -0.3819
11753SOL    HW141351  10.843   2.433   9.651 -0.8549  0.0780  1.3496
11753SOL    HW241352  10.710   2.362   9.655  0.2489 -2.1001  1.2659
11754SOL     OW41353   3.371   7.834   8.230 -0.3004  0.3257 -0.0390
11754SOL    HW141354   3.432   7.816   8.301 -0.6844  0.5205  0.3436
11754SOL    HW241355   3.342   7.748   8.200  1.8633  0.0940 -1.7554
11755SOL     OW41356   0.004   2.087   5.931 -0.1063  0.0258  0.1452
11755SOL    HW141357   0.094   2.106   5.958 -0.2549 -1.5584  1.9426
11755SOL    HW241358   0.012   2.054   5.842  0.7652  2.4294 -0.7347
11756SOL     OW41359   7.050   1.331   1.129  0.0014 -0.2141  0.1800
11756SOL    HW141360   7.016   1.405   1.078  0.3074  1.7839  2.6474
11756SOL    HW241361   6.973   1.294   1.173  0.3128  1.8424  2.7180
11757SOL     OW41362   2.543   7.062   3.709  0.2776  0.0085 -0.0576
11757SOL    HW141363   2.632   7.028   3.703  0.1002 -0.3560 -0.7602
11757SOL    HW241364   2.498   7.023   3.634 -0.3302  0.6090 -0.0085
11758SOL     OW41365   6.106   0.928   2.265  0.2157 -0.5277  0.1009
11758SOL    HW141366   6.130   0.940   2.173 -0.4763  0.6355  0.0452
11758SOL    HW241367   6.164   0.860   2.297 -0.5879 -2.0869 -1.6079
11759SOL     OW41368   7.982   1.699   4.061  0.3334 -0.1828  0.2837
11759SOL    HW141369   7.947   1.762   3.998  0.2381 -1.3312 -0.8445
11759SOL    HW241370   8.053   1.655   4.014  1.3762  0.0864  1.5570
11760SOL     OW41371   3.598   5.061  10.767  0.6969  0.0290  0.3738
11760SOL    HW141372   3.562   5.096  10.848  2.1911  1.0053  0.6690
11760SOL    HW241373   3.538   4.991  10.741 -0.9910  1.1399  1.1539
11761SOL     OW41374   0.443   7.683   1.427 -0.7688  0.2197  0.0767
11761SOL    HW141375   0.430   7.620   1.357 -2.6646  0.3342  0.2790
11761SOL    HW241376   0.521   7.733   1.400 -0.3321 -0.9782 -0.9720
11762SOL     OW41377   0.243   9.526   1.889 -0.3013 -0.0654  0.3803
11762SOL    HW141378   0.303   9.585   1.934  2.7401 -1.2940 -1.7828
11762SOL    HW241379   0.231   9.453   1.950  0.6252  0.0702  0.7376
11763SOL     OW41380   5.795   1.876  10.464 -0.1389 -0.1241 -0.1774
11763SOL    HW141381   5.724   1.921  10.510 -2.2133 -1.1942 -2.1658
11763SOL    HW241382   5.819   1.805  10.523 -2.2789 -1.0680 -0.3540
11764SOL     OW41383   9.599   9.993   8.655 -0.4135  0.0382  1.2415
11764SOL    HW141384   9.504  10.006   8.665 -1.0984 -0.6138 -2.7514
11764SOL    HW241385   9.616   9.909   8.698 -2.2348 -1.1078 -0.1113
11765SOL     OW41386   9.708   8.053   9.650 -0.0837 -0.3458  0.2700
11765SOL    HW141387   9.639   7.990   9.673  0.7478 -1.6514 -0.6536
11765SOL    HW241388   9.665   8.138   9.653 -1.8583 -1.1490 -0.6766
11766SOL     OW41389   0.308   3.367   0.327  0.1717  0.0351 -0.0476
11766SOL    HW141390   0.221   3.405   0.317  0.7596  1.0999 -1.5181
11766SOL    HW241391   0.337   3.394   0.414 -1.2225 -0.9384  0.7491
11767SOL     OW41392   2.572   9.680   1.454 -0.0796 -0.5848 -0.1438
11767SOL    HW141393   2.627   9.757   1.442 -0.5213 -0.1200  0.7277
11767SOL    HW241394   2.628   9.616   1.497 -0.2926  0.0096  1.0598
11768SOL     OW41395   2.665   4.087   0.623 -0.1767 -0.0279 -0.0444
11768SOL    HW141396   2.631   3.999   0.606  0.5373 -0.1973 -0.6259
11768SOL    HW241397   2.591   4.134   0.662 -0.8333 -0.6195 -0.5557
11769SOL     OW41398   2.387   3.237   3.827  0.1134 -0.3105  0.2407
11769SOL    HW141399   2.397   3.305   3.761  1.4724 -0.7313 -0.0185
11769SOL    HW241400   2.391   3.283   3.911  0.5303 -0.0058  0.0584
11770SOL     OW41401   8.859   4.131   5.781  0.2419  0.1038 -0.1630
11770SOL    HW141402   8.942   4.125   5.829 -0.6610 -0.5339  1.4022
11770SOL    HW241403   8.862   4.057   5.720 -1.1872 -3.1548  3.3494
11771SOL     OW41404   4.532   5.559   7.771 -0.0001 -0.3416  0.5005
11771SOL    HW141405   4.449   5.522   7.739 -0.1361  0.0466  0.3894
11771SOL    HW241406   4.566   5.607   7.695  0.3442 -0.5282  0.5383
11772SOL     OW41407  10.893  10.483   0.378 -0.9355  0.2920 -0.1612
11772SOL    HW141408  10.914  10.573   0.353 -2.2158  0.5993 -0.2315
11772SOL    HW241409  10.901  10.433   0.297  1.1647  0.0269  0.1454
11773SOL     OW41410   9.920   4.959  10.210  0.3769 -0.1321 -0.5360
11773SOL    HW141411  10.003   4.941  10.253 -0.1573  0.1818  0.6613
11773SOL    HW241412   9.929   5.048  10.177  0.0440  0.4151  0.7928
11774SOL     OW41413   5.718  10.045   3.583 -0.4565  0.5770 -0.3175
11774SOL    HW141414   5.644   9.999   3.545  0.3158 -1.4069  0.4455
11774SOL    HW241415   5.716  10.022   3.676  1.2262  0.2867 -0.3185
11775SOL     OW41416   7.837   0.272   4.361 -0.0904  0.3516  0.5352
11775SOL    HW141417   7.782   0.267   4.283  0.1883  0.7505  0.3053
11775SOL    HW241418   7.925   0.289   4.327 -0.0667  1.1359  0.9591
11776SOL     OW41419   6.122   2.023   0.167 -0.4787 -0.1176 -0.2383
11776SOL    HW141420   6.078   2.097   0.126 -1.1788  0.7773  1.9940
11776SOL    HW241421   6.060   1.992   0.233  0.6841 -1.3258  0.3319
11777SOL     OW41422   3.685   5.213   3.465  0.1580  0.0489  0.3282
11777SOL    HW141423   3.633   5.174   3.395  0.2821  0.5932 -0.0783
11777SOL    HW241424   3.776   5.205   3.434  0.2270  0.1009  0.5194
11778SOL     OW41425   9.859   5.163   3.084 -0.1105 -0.5174 -0.1695
11778SOL    HW141426   9.818   5.086   3.047  0.9164 -0.9449 -0.4567
11778SOL    HW241427   9.944   5.169   3.040 -0.2647  0.9092 -0.3204
11779SOL     OW41428   3.456   6.338   1.530 -0.1974  0.0621 -0.1820
11779SOL    HW141429   3.472   6.433   1.527  1.5745 -0.2022 -0.3164
11779SOL    HW241430   3.367   6.327   1.496  0.0645  1.5616 -1.4404
11780SOL     OW41431   3.481   1.976   4.786 -0.0900  0.3899 -0.2369
11780SOL    HW141432   3.414   2.036   4.752 -0.5447  1.4696  2.3192
11780SOL    HW241433   3.439   1.935   4.861  1.8561  0.5188  0.9693
11781SOL     OW41434   5.283   1.234   2.617 -0.4936 -0.5975  0.3819
11781SOL    HW141435   5.269   1.309   2.674  0.3466  0.0006 -0.1888
11781SOL    HW241436   5.375   1.212   2.628 -0.3215 -0.4802 -0.7329
11782SOL     OW41437   1.953   8.328   5.299  0.4005 -0.1757  0.1573
11782SOL    HW141438   1.884   8.337   5.234  0.0893  0.8236  0.6056
11782SOL    HW241439   1.969   8.234   5.305 -1.3479 -0.4874  0.4998
11783SOL     OW41440   8.546   1.493   4.769  0.4831 -0.0291  0.7239
11783SOL    HW141441   8.582   1.556   4.831 -0.0505  1.3716 -0.3315
11783SOL    HW241442   8.559   1.408   4.811  1.2900  0.7614  2.1618
11784SOL     OW41443   7.164   8.040   3.938  0.2982 -0.2535  0.0887
11784SOL    HW141444   7.239   8.099   3.932  0.1171 -0.0765 -0.5722
11784SOL    HW241445   7.144   8.018   3.847 -1.4080  0.9179  0.1382
11785SOL     OW41446   7.166  10.702   2.522  0.4929  0.1062  0.2056
11785SOL    HW141447   7.114  10.740   2.452  2.3177  1.3430 -0.5497
11785SOL    HW241448   7.102  10.674   2.587 -1.1182  1.1126 -0.8845
11786SOL     OW41449   6.412   3.847   5.616 -0.2632 -0.1669  0.2744
11786SOL    HW141450   6.324   3.814   5.637 -0.9067  1.6465  0.5949
11786SOL    HW241451   6.396   3.916   5.552  0.9638  0.0999  0.2483
11787SOL     OW41452   4.135   7.124   5.692 -0.2512  0.7703  0.0513
11787SOL    HW141453   4.173   7.058   5.635  0.7665  1.4446 -0.0803
11787SOL    HW241454   4.049   7.142   5.655 -0.8052 -0.9151  0.4523
11788SOL     OW41455   2.142   7.251   1.940  0.2132  0.0052  0.0042
11788SOL    HW141456   2.142   7.324   1.877  0.4344 -0.1145 -0.1358
11788SOL    HW241457   2.051   7.225   1.946  0.4347 -1.4167 -1.9441
11789SOL     OW41458   7.934   0.543   1.369  0.3048 -1.1531  0.6419
11789SOL    HW141459   7.913   0.631   1.337  2.3137  0.0056  2.2052
11789SOL    HW241460   7.855   0.515   1.416  0.3288  0.7988  1.9786
11790SOL     OW41461   4.564   5.461   3.615 -0.6266 -0.2631  0.5747
11790SOL    HW141462   4.626   5.503   3.675 -0.7805  0.7528  0.0437
11790SOL    HW241463   4.482   5.458   3.663 -0.1847 -1.7330  1.3337
11791SOL     OW41464   4.152   2.824   6.221  0.0766  0.4542 -0.2205
11791SOL    HW141465   4.205   2.855   6.294 -1.3399  2.9108 -0.1150
11791SOL    HW241466   4.212   2.773   6.167  1.7150  0.5063  1.4565
11792SOL     OW41467   8.838   0.561   5.837 -0.1351 -0.4136 -0.0980
11792SOL    HW141468   8.848   0.638   5.780  0.6940 -1.2820 -1.1677
11792SOL    HW241469   8.836   0.597   5.925 -0.2654  0.8810 -0.6052
11793SOL     OW41470  10.874   9.263   6.899  0.1046  0.7296 -0.7614
11793SOL    HW141471  10.867   9.291   6.807 -1.5006  1.1142 -0.5503
11793SOL    HW241472  10.783   9.261   6.930  0.6404  0.7636  0.8741
11794SOL     OW41473   2.908   5.452   6.547  0.1655 -0.0528 -0.3126
11794SOL    HW141474   2.852   5.468   6.623  0.8155  2.0374 -0.2102
11794SOL    HW241475   2.983   5.510   6.560  0.9009 -0.5711 -1.9471
11795SOL     OW41476   1.002   7.903   7.508 -0.4679  0.0850  0.2111
11795SOL    HW141477   1.008   7.989   7.466  0.3539  0.6770  1.5030
11795SOL    HW241478   0.925   7.909   7.565 -0.8668 -0.3142 -0.2710
11796SOL     OW41479  10.450   0.247   6.667  0.2663 -0.0583  0.1296
11796SOL    HW141480  10.422   0.282   6.582 -3.3437 -3.2650 -0.3459
11796SOL    HW241481  10.395   0.293   6.731 -0.0459 -0.5005  0.1886
11797SOL     OW41482   1.377   9.995   9.252 -0.0122 -0.4652 -0.2656
11797SOL    HW141483   1.375   9.969   9.160  0.3361  1.5192 -0.8905
11797SOL    HW241484   1.463  10.037   9.262  0.4804 -1.7620  1.3188
11798SOL     OW41485   9.678   2.024   6.241 -0.1601  0.6432  0.7213
11798SOL    HW141486   9.620   1.951   6.264 -0.2678  0.8381  1.0736
11798SOL    HW241487   9.643   2.057   6.159 -0.5421  0.7492  0.9226
11799SOL     OW41488   2.549   5.720   1.704 -0.6134 -0.0253 -0.0564
11799SOL    HW141489   2.558   5.626   1.714 -0.4628  0.0062  0.1210
11799SOL    HW241490   2.607   5.757   1.771 -0.8107  0.1919 -0.0022
11800SOL     OW41491   0.727   4.864   5.448 -0.2913 -0.1537  0.5590
11800SOL    HW141492   0.738   4.785   5.396 -3.3410  0.6184 -1.5273
11800SOL    HW241493   0.652   4.846   5.504 -0.5175  0.9784  0.6470
11801SOL     OW41494   6.120   4.811   4.333 -0.3268  0.1968 -0.1980
11801SOL    HW141495   6.045   4.820   4.392  0.0957  0.8601  0.2462
11801SOL    HW241496   6.087   4.756   4.261 -0.8248 -0.6881  0.6789
11802SOL     OW41497  10.793   9.327   8.617 -0.6657 -0.5136  0.3893
11802SOL    HW141498  10.756   9.239   8.618  1.1546 -1.3110  0.7677
11802SOL    HW241499  10.725   9.382   8.656 -1.2619 -1.9857  1.5020
11803SOL     OW41500   0.916   1.654   5.692 -0.5194  0.3933 -0.6905
11803SOL    HW141501   0.986   1.607   5.647 -0.6070 -0.4648  0.0413
11803SOL    HW241502   0.896   1.599   5.768  0.0698  2.0868  0.7505
11804SOL     OW41503   5.456   8.111   8.120 -0.0209  0.5600  0.6938
11804SOL    HW141504   5.401   8.152   8.186 -1.6105  0.5446 -0.5461
11804SOL    HW241505   5.432   8.156   8.038 -0.9426 -1.9474 -0.5189
11805SOL     OW41506   7.245   2.132   1.583  0.1582 -0.1906  0.6012
11805SOL    HW141507   7.243   2.075   1.506  0.6471 -1.7198  1.6687
11805SOL    HW241508   7.172   2.102   1.637 -1.7108  2.4502 -0.2546
11806SOL     OW41509   3.081  10.617   7.020 -0.1149  0.2254 -0.1987
11806SOL    HW141510   3.113  10.702   7.050 -0.9929  0.1493  0.9926
11806SOL    HW241511   3.103  10.556   7.091 -1.8744 -0.0321  0.1799
11807SOL     OW41512   0.376   9.556   2.851  0.2043 -0.3882 -0.0141
11807SOL    HW141513   0.407   9.589   2.766  0.5890 -2.3658 -0.6989
11807SOL    HW241514   0.442   9.586   2.914 -0.6132  1.9759 -0.1936
11808SOL     OW41515   1.430   9.483  10.068 -0.2823  0.2547 -0.2428
11808SOL    HW141516   1.402   9.498  10.158  0.0166  0.5472 -0.1984
11808SOL    HW241517   1.426   9.569  10.027  2.1003  0.6374  0.1959
11809SOL     OW41518   8.011   0.971  10.326  0.1647 -0.2744  0.4733
11809SOL    HW141519   8.098   0.940  10.303  0.0902 -0.9209  1.0307
11809SOL    HW241520   8.024   1.024  10.405  0.2382  0.8314 -0.2561
11810SOL     OW41521   9.787   5.004  10.527 -0.0086 -0.2667  0.3755
11810SOL    HW141522   9.820   5.090  10.502 -0.3916  0.3069  1.7638
11810SOL    HW241523   9.719   5.022  10.592 -0.4173 -1.5979  0.3473
11811SOL     OW41524   1.616   3.844   5.995 -0.0953  0.0634  0.2819
11811SOL    HW141525   1.691   3.856   6.054 -1.6046  0.9300  2.1669
11811SOL    HW241526   1.615   3.923   5.941 -0.4887  0.8140  1.3331
11812SOL     OW41527   0.926   8.576   5.089 -0.1119 -0.5099  0.0856
11812SOL    HW141528   0.837   8.607   5.106 -0.0266 -0.8412  1.2366
11812SOL    HW241529   0.982   8.650   5.115  0.0401 -1.1713  1.7500
11813SOL     OW41530   2.074   9.751  10.038  0.2289 -0.0204 -0.3919
11813SOL    HW141531   2.146   9.812  10.024 -0.9693  2.0374  1.6084
11813SOL    HW241532   2.005   9.781   9.980 -0.6860  1.2150  1.2451
11814SOL     OW41533   7.783   4.759   6.608  0.2551 -0.6498 -0.4877
11814SOL    HW141534   7.769   4.836   6.553 -3.2448 -1.7192 -1.3731
11814SOL    HW241535   7.784   4.793   6.697  1.1794  0.6436 -0.9749
11815SOL     OW41536   6.601   9.553   2.189  0.0233  0.0642  0.5574
11815SOL    HW141537   6.695   9.562   2.206  0.0011  0.1720  0.6223
11815SOL    HW241538   6.576   9.475   2.237  0.1941 -0.2831  0.0846
11816SOL     OW41539  10.759  10.171   2.351  0.0133 -0.0478  0.0731
11816SOL    HW141540  10.672  10.158   2.390  0.1727 -2.2268 -0.1689
11816SOL    HW241541  10.819  10.173   2.426  0.0587 -1.7944  0.1234
11817SOL     OW41542   7.404   9.523  10.576 -0.0017  0.1548 -0.1747
11817SOL    HW141543   7.340   9.479  10.632 -0.2646 -0.1083 -0.6798
11817SOL    HW241544   7.393   9.484  10.490  1.3260 -0.4005 -0.1254
11818SOL     OW41545   8.362   2.370   3.785 -0.2771 -0.2974  0.1101
11818SOL    HW141546   8.396   2.430   3.852 -0.6824  0.6273 -0.4877
11818SOL    HW241547   8.297   2.422   3.738  0.4424 -0.7363 -1.4113
11819SOL     OW41548   5.219   9.038   4.593  0.2993  0.1043  0.4819
11819SOL    HW141549   5.225   9.084   4.509  0.1504 -1.4602 -0.4339
11819SOL    HW241550   5.178   8.954   4.571  0.9180 -0.6341  2.0089
11820SOL     OW41551   9.662  10.241   4.149 -0.0932  0.3276 -0.2795
11820SOL    HW141552   9.730  10.307   4.162 -0.4340  1.0122 -1.8473
11820SOL    HW241553   9.638  10.248   4.057 -0.4317 -1.7202 -0.3896
11821SOL     OW41554   2.296   2.518   2.393 -0.1670 -0.0136  0.8366
11821SOL    HW141555   2.310   2.424   2.382  0.3135  0.1973 -0.6864
11821SOL    HW241556   2.378   2.550   2.431  0.1646 -0.0452  0.1687
11822SOL     OW41557   9.296   2.344  10.194  0.1905 -0.0923  0.4124
11822SOL    HW141558   9.368   2.303  10.242  0.2053 -0.1224  0.3646
11822SOL    HW241559   9.258   2.272  10.143  1.2406  0.2661 -0.9413
11823SOL     OW41560   9.856   3.659  10.492 -0.2395 -0.2315 -0.2300
11823SOL    HW141561   9.776   3.707  10.513 -1.7177 -1.8002 -2.0088
11823SOL    HW241562   9.862   3.663  10.397  0.1451 -2.6507 -0.3501
11824SOL     OW41563   3.095   9.012   0.010  0.3960 -0.0483  0.2389
11824SOL    HW141564   3.024   8.971  -0.040 -0.1037  0.7352  0.2903
11824SOL    HW241565   3.162   8.944   0.016  0.0334 -0.4962 -0.6025
11825SOL     OW41566   7.689   9.673   7.619  0.4921  0.0757 -0.8266
11825SOL    HW141567   7.722   9.705   7.535  2.1130  3.2809  0.8320
11825SOL    HW241568   7.767   9.664   7.674 -0.4667 -2.3004  0.3364
11826SOL     OW41569   0.744   8.062   5.959  0.5947  0.3556  0.1149
11826SOL    HW141570   0.739   7.999   5.888  0.0292 -0.2499  0.6808
11826SOL    HW241571   0.653   8.085   5.977  0.8142  2.0460 -0.6907
11827SOL     OW41572   2.250   6.608   0.214  0.6599 -0.5169 -0.4618
11827SOL    HW141573   2.332   6.620   0.262  1.1058 -1.1699 -1.0407
11827SOL    HW241574   2.236   6.691   0.169  0.4943 -0.0683  0.3934
11828SOL     OW41575   1.929   3.545   1.940 -0.0484  0.1745  0.6284
11828SOL    HW141576   1.889   3.581   2.019 -1.2135 -1.2527  0.7080
11828SOL    HW241577   1.942   3.452   1.958 -0.7511 -0.2852 -0.9952
11829SOL     OW41578   9.709   2.196   6.763 -0.5335 -0.1733  0.3914
11829SOL    HW141579   9.714   2.288   6.787 -0.7616 -0.4919  1.7443
11829SOL    HW241580   9.721   2.195   6.668 -1.3431  1.3188  0.2498
11830SOL     OW41581   5.865   4.549   8.607  0.2766  0.0362 -0.4317
11830SOL    HW141582   5.947   4.569   8.563 -0.9391  1.7829 -2.0784
11830SOL    HW241583   5.798   4.560   8.539 -1.2523 -2.7387  0.4513
11831SOL     OW41584   9.728   3.437   6.583 -0.0715 -0.1374 -0.2817
11831SOL    HW141585   9.769   3.389   6.654  1.4653 -1.8692 -2.2223
11831SOL    HW241586   9.634   3.434   6.603  0.0732 -2.8547  0.3679
11832SOL     OW41587   8.806  10.838   6.376 -0.4990 -0.0385 -0.1455
11832SOL    HW141588   8.758  10.809   6.454 -1.2088  0.8610 -0.2383
11832SOL    HW241589   8.858  10.762   6.351 -1.3984 -0.8346  0.3301
11833SOL     OW41590   5.453   6.778   6.998 -0.3703  0.3440  0.0183
11833SOL    HW141591   5.494   6.699   6.963  0.1409  0.7912 -0.4225
11833SOL    HW241592   5.469   6.844   6.931 -0.3503  0.9481  0.6121
11834SOL     OW41593   6.984   3.602   4.622 -0.5230 -0.3501 -0.4508
11834SOL    HW141594   6.939   3.600   4.706  1.3135 -1.8867  0.6014
11834SOL    HW241595   7.071   3.565   4.641  0.5359  0.7847 -2.6995
11835SOL     OW41596   6.351   3.654   8.102  0.3639 -0.0561 -0.2072
11835SOL    HW141597   6.289   3.637   8.172  2.5139  0.0729  1.8640
11835SOL    HW241598   6.299   3.698   8.034 -1.9373 -0.7569  0.9990
11836SOL     OW41599   5.989   8.969   7.901  0.5543 -0.4431 -0.8189
11836SOL    HW141600   5.976   9.047   7.955  3.8437  0.9068 -1.7289
11836SOL    HW241601   6.033   8.907   7.960 -1.1218 -1.2719 -0.3923
11837SOL     OW41602   3.379   4.608   2.908  0.3147 -0.1368 -0.3932
11837SOL    HW141603   3.371   4.650   2.822  0.9137  0.7375 -0.0295
11837SOL    HW241604   3.304   4.548   2.912 -1.3160  1.7907 -0.4361
11838SOL     OW41605   4.102   0.158   6.497  0.3764 -0.0384  0.0722
11838SOL    HW141606   4.010   0.169   6.520  0.8454  0.0789  2.0955
11838SOL    HW241607   4.136   0.248   6.491  0.4727 -0.0868 -0.1109
11839SOL     OW41608   2.207   3.557  10.731  0.5520 -0.3832 -0.4289
11839SOL    HW141609   2.217   3.650  10.712 -0.3010 -0.2725 -0.3856
11839SOL    HW241610   2.270   3.540  10.801  0.3387  0.2919 -0.0608
11840SOL     OW41611   5.175   3.946   8.208 -0.1550  0.3535  0.1741
11840SOL    HW141612   5.200   3.991   8.289 -0.7982 -0.4749  0.8500
11840SOL    HW241613   5.081   3.962   8.200 -0.4560 -1.0896  0.5836
11841SOL     OW41614   7.074   2.186   0.359  0.4150  0.4185  0.3611
11841SOL    HW141615   7.016   2.152   0.427  0.9900 -0.2029  0.5582
11841SOL    HW241616   7.102   2.108   0.310 -0.5985  0.9234 -1.1065
11842SOL     OW41617   2.625   4.800   2.179 -0.3907 -0.2604  0.0564
11842SOL    HW141618   2.636   4.881   2.228 -0.3376 -0.5051  0.4490
11842SOL    HW241619   2.679   4.813   2.100  1.2043 -0.6689  1.0296
11843SOL     OW41620   8.117   6.305   3.958  0.8838  0.5202 -0.5169
11843SOL    HW141621   8.036   6.309   4.009 -0.8553 -1.2418 -2.8986
11843SOL    HW241622   8.176   6.366   4.002 -1.5102  1.4597  1.6740
11844SOL     OW41623   4.669   7.127   8.102 -0.6201  0.5016  0.1476
11844SOL    HW141624   4.760   7.158   8.100 -1.2601  2.4850 -1.9517
11844SOL    HW241625   4.672   7.042   8.059  0.5422 -0.6236  2.2725
11845SOL     OW41626   4.339   2.001  10.436  0.0151 -0.1928  0.3430
11845SOL    HW141627   4.250   1.983  10.466 -0.5306 -1.8037 -2.0459
11845SOL    HW241628   4.395   1.953  10.497 -1.0249 -2.9192 -0.7005
11846SOL     OW41629   2.132   6.777   3.306 -0.0344  0.3082  0.2367
11846SOL    HW141630   2.078   6.759   3.229  0.5105 -1.8598  0.3150
11846SOL    HW241631   2.170   6.863   3.289 -0.2997  0.0838 -1.6890
11847SOL     OW41632   6.613   0.065   0.120 -0.0162 -0.0959 -0.1110
11847SOL    HW141633   6.649   0.072   0.031 -0.2489  1.5455 -0.0945
11847SOL    HW241634   6.519   0.055   0.107 -0.2678  1.8500 -0.0557
11848SOL     OW41635   7.001  10.872  10.635 -0.1233  0.1618 -0.1262
11848SOL    HW141636   6.919  10.858  10.683 -1.5091  0.7836 -2.1800
11848SOL    HW241637   6.977  10.861  10.543  2.2956 -0.4004 -0.7642
11849SOL     OW41638   3.679   8.649  10.415 -0.0319  0.4789 -0.2117
11849SOL    HW141639   3.735   8.607  10.481  1.1252 -0.4565 -1.7236
11849SOL    HW241640   3.710   8.740  10.413  0.3442  0.3638  0.0940
11850SOL     OW41641   1.650   1.040   0.700 -0.2150  0.0813  0.0307
11850SOL    HW141642   1.615   1.129   0.709 -0.0165  0.2484 -0.7916
11850SOL    HW241643   1.632   1.016   0.609 -0.2590 -0.7222  0.2453
11851SOL     OW41644   2.965   1.732   7.062 -0.1241  0.9141  0.5185
11851SOL    HW141645   3.017   1.803   7.100  1.5809  0.0066  0.0199
11851SOL    HW241646   2.953   1.670   7.133  0.3879  0.6553  0.3878
11852SOL     OW41647   8.520   3.303   8.723  0.2915 -0.7604 -0.3457
11852SOL    HW141648   8.499   3.367   8.791  0.0380 -0.7815 -0.4033
11852SOL    HW241649   8.529   3.355   8.644 -1.1262 -0.9157 -0.6428
11853SOL     OW41650   9.784   6.815   0.346 -0.1876  0.2411 -0.0843
11853SOL    HW141651   9.786   6.890   0.405 -1.2367  0.3051 -0.0984
11853SOL    HW241652   9.871   6.812   0.306 -0.3489  1.8810 -0.6176
11854SOL     OW41653   8.547   5.203  10.575  0.1324  0.1795 -0.6337
11854SOL    HW141654   8.613   5.209  10.506  1.0096  0.4641  0.2170
11854SOL    HW241655   8.583   5.254  10.647  0.9914 -3.1041  1.4695
11855SOL     OW41656   1.891   1.753   6.756  0.0466 -0.1414 -0.4531
11855SOL    HW141657   1.816   1.766   6.814  0.0776  1.0071 -0.6518
11855SOL    HW241658   1.967   1.773   6.810  0.0467  1.5173 -1.0175
11856SOL     OW41659   0.057   3.691   4.617 -0.4911  0.6425 -0.0612
11856SOL    HW141660   0.063   3.706   4.522 -1.0179  3.9413  0.2975
11856SOL    HW241661   0.145   3.710   4.650  0.4472 -3.0379 -0.0046
11857SOL     OW41662   8.738   4.466   1.058  0.1574  0.2809  0.1897
11857SOL    HW141663   8.651   4.440   1.088 -0.2286 -0.5822 -1.5260
11857SOL    HW241664   8.797   4.404   1.101 -0.2883 -0.3936 -0.1481
11858SOL     OW41665   8.973  10.405   8.540  0.0062 -0.2748  0.6293
11858SOL    HW141666   8.958  10.449   8.457  2.5926  0.6194  0.5377
11858SOL    HW241667   9.068  10.397   8.546 -0.1354 -0.8922  3.2027
11859SOL     OW41668   4.889   3.179   4.444 -0.4776  0.1126 -0.0928
11859SOL    HW141669   4.937   3.145   4.520 -0.2137  2.3022  0.7766
11859SOL    HW241670   4.819   3.233   4.482 -1.2213  0.1087 -1.4080
11860SOL     OW41671   9.503   8.214  10.410  1.0210 -0.4731  0.2193
11860SOL    HW141672   9.408   8.208  10.398  1.0229  0.2667 -0.2195
11860SOL    HW241673   9.515   8.225  10.504  0.5720  0.9448  0.1277
11861SOL     OW41674   4.258   6.680   3.390 -0.0616  0.4313 -0.0396
11861SOL    HW141675   4.288   6.614   3.328  2.1101  1.2190  0.0950
11861SOL    HW241676   4.223   6.750   3.335  0.3957  0.4460 -0.3154
11862SOL     OW41677   0.685   9.588   1.304 -0.0381 -0.2778 -0.3515
11862SOL    HW141678   0.643   9.540   1.375 -0.9923 -2.6365 -2.3336
11862SOL    HW241679   0.627   9.663   1.288 -1.0646 -0.9890 -0.0831
11863SOL     OW41680   3.220   5.677   7.557 -0.2180 -0.0828  0.1062
11863SOL    HW141681   3.155   5.697   7.625  0.3084  3.2436 -0.2000
11863SOL    HW241682   3.267   5.759   7.545 -0.6866 -0.2598 -4.7618
11864SOL     OW41683   7.692   8.269   5.781 -0.5609  0.2212 -0.6927
11864SOL    HW141684   7.679   8.183   5.821  0.4185  0.7980  0.9784
11864SOL    HW241685   7.640   8.266   5.700  0.6234 -2.4607 -1.4782
11865SOL     OW41686   8.853   3.580   0.371  0.4997 -0.0640 -0.0918
11865SOL    HW141687   8.771   3.580   0.420 -0.3832  1.4644 -1.4736
11865SOL    HW241688   8.849   3.501   0.318 -0.9976  0.9185 -1.5244
11866SOL     OW41689   9.333   2.352   2.866 -0.1329  0.6000 -0.2290
11866SOL    HW141690   9.262   2.391   2.916  0.0462  0.9247 -0.2255
11866SOL    HW241691   9.410   2.402   2.891  0.0382  0.4670 -0.4873
11867SOL     OW41692   4.213   7.871   1.238 -0.3927  0.1594  0.0427
11867SOL    HW141693   4.150   7.886   1.308  0.7550  0.4563  1.0487
11867SOL    HW241694   4.188   7.786   1.202  0.1409 -0.9468  2.1176
11868SOL     OW41695   3.156   6.097   5.107  0.4959 -0.0933  0.3668
11868SOL    HW141696   3.238   6.057   5.138  1.1938  0.1491 -1.0930
11868SOL    HW241697   3.091   6.070   5.172  1.6931 -0.4297  1.4769
11869SOL     OW41698   8.944   3.146   7.953 -0.1061  0.4297  0.1189
11869SOL    HW141699   8.948   3.078   7.885  0.4591 -0.3985  0.9621
11869SOL    HW241700   8.919   3.226   7.905 -1.2806 -0.4623 -0.8097
11870SOL     OW41701   6.568   8.817   5.570 -0.2656  0.0954 -0.1563
11870SOL    HW141702   6.639   8.879   5.554  0.1569 -0.4683 -0.5379
11870SOL    HW241703   6.612   8.735   5.591 -0.8189  0.0042  0.6787
11871SOL     OW41704   4.959   6.991   8.688 -0.7162 -0.4283 -0.0157
11871SOL    HW141705   4.979   7.053   8.758  0.5660 -1.8515  0.9317
11871SOL    HW241706   5.037   6.991   8.633 -1.5602  0.3816 -1.2673
11872SOL     OW41707   4.331  10.508   7.761 -0.1741  0.2837 -0.6450
11872SOL    HW141708   4.236  10.506   7.776  0.1914 -2.9291  2.5516
11872SOL    HW241709   4.365  10.563   7.832  0.4926 -1.4006  0.4036
11873SOL     OW41710   2.627   1.034   5.606  0.1521  0.9135 -0.7014
11873SOL    HW141711   2.560   1.101   5.621 -2.5045 -1.6944 -0.0420
11873SOL    HW241712   2.578   0.953   5.592  3.1948 -1.1343 -0.5112
11874SOL     OW41713   4.269   6.001   4.478 -0.3975  0.0533 -0.3096
11874SOL    HW141714   4.291   5.973   4.389  0.3511 -1.5401  0.3531
11874SOL    HW241715   4.353   6.014   4.521 -0.6806  3.0582 -0.4117
11875SOL     OW41716   3.473   9.761   1.255  0.8464 -0.6070 -0.1287
11875SOL    HW141717   3.406   9.695   1.272  0.3236  0.2215  1.2888
11875SOL    HW241718   3.428   9.828   1.204  0.1342  0.5829  1.9329
11876SOL     OW41719   6.943   0.940   0.266 -0.1390  0.1930 -0.5228
11876SOL    HW141720   6.986   1.002   0.207 -0.8837  1.7455  0.5089
11876SOL    HW241721   6.985   0.954   0.351 -0.5900 -0.4370 -0.1846
11877SOL     OW41722   2.218   0.531   2.735  0.3636  0.3142  0.4764
11877SOL    HW141723   2.255   0.501   2.652 -3.3410 -2.5428 -0.4011
11877SOL    HW241724   2.190   0.621   2.717 -0.8991 -0.4249 -1.6504
11878SOL     OW41725   0.462   7.436   9.489  0.1818  0.2219  0.5658
11878SOL    HW141726   0.475   7.483   9.571 -0.5187 -0.2548  0.9589
11878SOL    HW241727   0.536   7.462   9.435  1.1533 -0.1678  1.6788
11879SOL     OW41728   3.800   4.998   7.245 -0.3237 -0.3470 -0.3821
11879SOL    HW141729   3.790   4.907   7.217  2.9765 -0.4673 -1.5622
11879SOL    HW241730   3.805   5.047   7.163 -2.1058  0.9645  0.2437
11880SOL     OW41731   9.594   9.954   0.472 -0.6826 -0.0532 -0.2526
11880SOL    HW141732   9.586  10.035   0.523  1.2556 -0.9968  1.7220
11880SOL    HW241733   9.627   9.982   0.386  0.9994  1.2144  0.7503
11881SOL     OW41734   4.888   2.394   0.397  0.1401  0.3552 -0.5050
11881SOL    HW141735   4.969   2.403   0.448 -0.0478  1.0640 -0.3280
11881SOL    HW241736   4.834   2.469   0.423 -0.0434  0.6230 -1.5886
11882SOL     OW41737   9.378   2.880  10.430  0.4489 -0.1124 -0.2448
11882SOL    HW141738   9.455   2.825  10.438  1.9608  1.7638 -1.0321
11882SOL    HW241739   9.392   2.929  10.348 -0.2520  2.1647  0.8903
11883SOL     OW41740  10.503   4.021   0.123 -0.1186 -1.5171 -0.0453
11883SOL    HW141741  10.416   4.015   0.082 -0.0680 -0.3352 -0.3624
11883SOL    HW241742  10.554   4.073   0.062  0.3395 -0.8039  0.9293
11884SOL     OW41743   1.349  10.894   3.249  0.3126  0.4690 -0.2031
11884SOL    HW141744   1.421  10.845   3.210 -0.1459  1.2971 -2.2677
11884SOL    HW241745   1.280  10.829   3.264  1.1904 -0.1955  1.0992
11885SOL     OW41746   6.280   3.938   1.803  0.2496 -0.1684 -0.2249
11885SOL    HW141747   6.306   4.021   1.843  0.6292 -0.1693 -0.4641
11885SOL    HW241748   6.296   3.872   1.871 -1.9834  0.1719  0.7161
11886SOL     OW41749   7.204  10.005   8.877 -0.9180 -0.0368  0.3249
11886SOL    HW141750   7.127   9.983   8.930 -1.9353 -0.8815 -1.4076
11886SOL    HW241751   7.174  10.075   8.819 -0.6077 -0.7778 -0.7827
11887SOL     OW41752   3.046   8.443  10.265  0.1905  0.2347  0.4785
11887SOL    HW141753   3.042   8.468  10.172  0.8154  1.2765  0.7259
11887SOL    HW241754   3.087   8.517  10.309  2.5691 -1.3496  1.1676
11888SOL     OW41755   6.682   6.713   6.693  0.4192 -0.0711  0.1631
11888SOL    HW141756   6.588   6.700   6.698  0.3398  0.5499  0.3302
11888SOL    HW241757   6.701   6.716   6.599  0.3151 -0.4619  0.1266
11889SOL     OW41758   4.188   3.684   1.453 -0.3453  0.0096  0.2865
11889SOL    HW141759   4.228   3.715   1.372 -3.1064  1.5936 -0.6420
11889SOL    HW241760   4.097   3.664   1.428 -1.5178  1.2887  3.0920
11890SOL     OW41761   2.179   6.843   4.569 -0.5448 -0.3318  0.2382
11890SOL    HW141762   2.237   6.855   4.644  0.6871 -1.0257 -0.5810
11890SOL    HW241763   2.172   6.930   4.530  2.6173 -0.7423 -1.5349
11891SOL     OW41764  10.007   8.417   2.782  0.1524  0.3705  0.1425
11891SOL    HW141765  10.098   8.404   2.811  0.5745 -0.9604 -1.5706
11891SOL    HW241766   9.959   8.437   2.862  1.7975  0.1959  1.2299
11892SOL     OW41767   6.132   8.636   5.066  0.3017 -0.0320 -0.1596
11892SOL    HW141768   6.159   8.610   4.978 -0.1306  1.0857 -0.6464
11892SOL    HW241769   6.177   8.719   5.082 -2.5314  1.7612 -0.9039
11893SOL     OW41770   6.472   7.443   9.272  0.4384  0.0300  0.4696
11893SOL    HW141771   6.405   7.455   9.205  0.2545 -1.3116  0.3828
11893SOL    HW241772   6.554   7.434   9.224  0.3341 -0.7412  0.4365
11894SOL     OW41773   7.593   6.696   4.921 -0.7068  0.4599  0.0795
11894SOL    HW141774   7.612   6.789   4.933 -0.4435  0.5020 -0.6313
11894SOL    HW241775   7.534   6.675   4.994  1.2173  0.5556  1.7656
11895SOL     OW41776  10.145   1.332   7.116  0.0394  0.1805 -0.7700
11895SOL    HW141777  10.217   1.347   7.055 -0.1976  1.3086 -0.7912
11895SOL    HW241778  10.142   1.412   7.170  1.5962 -1.5306  2.1565
11896SOL     OW41779   7.983   5.126   9.420  0.0590  0.0337 -0.5279
11896SOL    HW141780   7.907   5.167   9.461  0.9007  0.8480  0.2402
11896SOL    HW241781   7.995   5.174   9.338  1.3507  1.7498  0.5978
11897SOL     OW41782  10.106   0.299   5.751 -0.5985 -0.4046  1.1813
11897SOL    HW141783  10.192   0.340   5.751 -1.7915  2.3998  3.0987
11897SOL    HW241784  10.125   0.205   5.754  2.3076 -0.0543 -1.1333
11898SOL     OW41785   4.716   8.672   1.827  0.1115  0.4144  0.0650
11898SOL    HW141786   4.789   8.624   1.788 -0.7373 -0.9581  0.1066
11898SOL    HW241787   4.716   8.756   1.781  1.9284  0.6115  0.3135
11899SOL     OW41788   9.099  10.526  10.123 -0.1865  0.1113 -0.3621
11899SOL    HW141789   9.143  10.568  10.049  0.8786 -0.7955 -0.2757
11899SOL    HW241790   9.012  10.565  10.125 -0.0998  0.4280 -1.8600
11900SOL     OW41791   0.394   0.563  10.353  0.1253 -0.2926 -0.1715
11900SOL    HW141792   0.371   0.470  10.346  0.0674 -0.2544 -0.5354
11900SOL    HW241793   0.458   0.577  10.283 -0.3157  0.0766 -0.5097
11901SOL     OW41794   5.258   8.790   8.776 -0.5341 -0.4833 -0.2944
11901SOL    HW141795   5.248   8.738   8.696  2.0851  0.2916 -1.2098
11901SOL    HW241796   5.291   8.728   8.841 -0.9239 -0.7143 -0.3092
11902SOL     OW41797   8.339   8.714   2.867  0.1735 -0.4458  0.3952
11902SOL    HW141798   8.360   8.708   2.960  0.1323  0.3137  0.4566
11902SOL    HW241799   8.409   8.768   2.830 -1.4707  1.9324  0.5508
11903SOL     OW41800   2.164   8.637   4.136  0.4070 -0.5643 -0.0263
11903SOL    HW141801   2.108   8.645   4.058 -0.7136 -1.3168  0.6650
11903SOL    HW241802   2.117   8.685   4.204  0.7961 -0.8965  0.4807
11904SOL     OW41803  10.633   9.488   2.971  0.0793 -0.5757  0.1322
11904SOL    HW141804  10.573   9.427   2.927 -0.8508  0.1897  0.2971
11904SOL    HW241805  10.672   9.436   3.042  1.2773 -1.7017 -1.2851
11905SOL     OW41806   4.442   0.057   7.467  0.2111 -0.1234 -0.7817
11905SOL    HW141807   4.360   0.098   7.496  0.7981 -1.2191  2.9284
11905SOL    HW241808   4.417  -0.032   7.443  0.1703 -0.1584 -0.6103
11906SOL     OW41809   5.409   0.839   3.302 -0.5836  0.1124 -0.1082
11906SOL    HW141810   5.366   0.846   3.388  0.1204  1.0112  0.1895
11906SOL    HW241811   5.488   0.788   3.319 -1.0904 -0.8236 -0.4911
11907SOL     OW41812   7.618   3.586   1.713 -0.1318  0.6321  0.4571
11907SOL    HW141813   7.596   3.635   1.793  2.6699  0.5257  1.3948
11907SOL    HW241814   7.625   3.495   1.743  0.5465  0.5327  0.0069
11908SOL     OW41815   9.143   5.550   4.437  0.4249 -0.2595 -0.8382
11908SOL    HW141816   9.079   5.569   4.506 -0.2870 -0.1644 -1.5099
11908SOL    HW241817   9.226   5.537   4.483 -0.1451 -0.6976  0.0686
11909SOL     OW41818   1.200   5.773   9.966 -0.5962 -0.2352 -0.0491
11909SOL    HW141819   1.217   5.868   9.964 -4.1534  0.5479  0.1503
11909SOL    HW241820   1.175   5.752   9.876 -1.2818 -0.6509  0.2383
11910SOL     OW41821   7.384   9.972   9.357  0.0071  0.0823 -0.0332
11910SOL    HW141822   7.302   9.923   9.345  0.4033 -0.6799  0.2874
11910SOL    HW241823   7.370  10.023   9.436  0.2907 -1.0558  0.7873
11911SOL     OW41824   0.853   0.961   4.266  0.4505  0.3778  0.9778
11911SOL    HW141825   0.900   0.927   4.190 -1.1934 -0.6059  0.3317
11911SOL    HW241826   0.764   0.977   4.234  0.2927  2.1505  2.1380
11912SOL     OW41827   9.360   7.714   8.192  0.5739  0.8108  0.1050
11912SOL    HW141828   9.334   7.667   8.271  3.5636 -0.3348  0.5586
11912SOL    HW241829   9.290   7.778   8.177 -0.9185 -0.0917  2.6623
11913SOL     OW41830   8.920   0.552   2.343  0.0103 -0.1909  0.4401
11913SOL    HW141831   8.885   0.609   2.274 -0.2198  0.6454  1.2379
11913SOL    HW241832   8.979   0.493   2.297 -0.9434 -0.3415 -0.6410
11914SOL     OW41833   4.073   2.679   8.102 -0.3508 -0.3247 -0.2427
11914SOL    HW141834   4.082   2.738   8.028 -0.7873  0.1897  0.0967
11914SOL    HW241835   4.118   2.723   8.174  0.3769 -0.9817 -0.2765
11915SOL     OW41836   3.805   3.644   5.401 -0.2378 -0.0894  0.4115
11915SOL    HW141837   3.814   3.716   5.464 -1.6669  0.0228  0.5148
11915SOL    HW241838   3.875   3.660   5.337  0.3579  0.5822  1.2035
11916SOL     OW41839   3.319   0.108   2.581 -0.1068 -0.5367  0.1033
11916SOL    HW141840   3.377   0.111   2.505 -0.2139  0.8133  0.0544
11916SOL    HW241841   3.248   0.049   2.555 -0.4952  0.4207 -1.1187
11917SOL     OW41842   0.866   5.216   9.150 -0.2043 -0.1866  0.2213
11917SOL    HW141843   0.915   5.284   9.105 -1.3789 -0.6320 -1.8414
11917SOL    HW241844   0.933   5.156   9.183  0.7327  0.7969  0.1678
11918SOL     OW41845   4.902   0.256   4.281  0.0812 -0.0234 -0.4412
11918SOL    HW141846   4.843   0.264   4.356 -0.0913 -0.7114 -0.4926
11918SOL    HW241847   4.843   0.236   4.207  0.2686  0.4332 -0.7194
11919SOL     OW41848   0.189   2.791   3.810  0.1722 -0.8022  0.2108
11919SOL    HW141849   0.217   2.814   3.722 -0.4534  0.3928  0.2988
11919SOL    HW241850   0.216   2.700   3.821  1.5562 -0.5341 -0.6796
11920SOL     OW41851   7.777   7.554   1.562  0.5430  0.3818 -0.3100
11920SOL    HW141852   7.701   7.498   1.578 -0.2442  1.4041 -0.3179
11920SOL    HW241853   7.842   7.526   1.626  1.3137 -2.4685 -2.1556
11921SOL     OW41854   4.995  10.278   2.061  0.2881  0.0370 -0.4191
11921SOL    HW141855   5.050  10.291   1.984 -2.2577  2.2574 -2.0520
11921SOL    HW241856   5.034  10.332   2.129  1.1512  0.0596 -0.9235
11922SOL     OW41857   3.935   3.341   0.989 -0.7211  0.1038 -0.2397
11922SOL    HW141858   3.896   3.342   1.077 -1.4291 -2.0504 -0.4662
11922SOL    HW241859   3.872   3.388   0.935 -2.2791 -1.8460 -0.2559
11923SOL     OW41860  10.927   6.204   3.203 -0.4223 -0.3249  0.1762
11923SOL    HW141861  10.837   6.185   3.177  0.4368 -2.6164 -1.4040
11923SOL    HW241862  10.949   6.283   3.154 -2.0885  1.4576  2.0647
11924SOL     OW41863   5.292   0.154   2.585  0.2994  0.2693  0.6262
11924SOL    HW141864   5.263   0.088   2.521  1.2662  1.4485 -1.1148
11924SOL    HW241865   5.225   0.222   2.579 -0.0878 -0.0157  1.5773
11925SOL     OW41866   7.311   1.261   1.049 -0.0820 -0.0709 -0.0670
11925SOL    HW141867   7.227   1.295   1.080 -0.0746 -0.3209  0.2345
11925SOL    HW241868   7.326   1.182   1.101  1.2647  1.0041  1.2657
11926SOL     OW41869  10.565   1.641   1.041 -0.2678  0.4257 -0.7894
11926SOL    HW141870  10.530   1.709   0.983 -0.7791  0.1512 -0.8140
11926SOL    HW241871  10.658   1.660   1.048 -0.5538  1.6713 -0.0653
11927SOL     OW41872   9.727   0.852   4.992  0.1225 -0.0702  0.3377
11927SOL    HW141873   9.790   0.828   4.925  1.1999  1.0279  0.9178
11927SOL    HW241874   9.655   0.892   4.944  0.3740 -0.3080 -0.2466
11928SOL     OW41875   3.709   7.174   5.693  0.0430 -0.2390 -0.4133
11928SOL    HW141876   3.761   7.185   5.614  1.8303 -0.4890  0.6664
11928SOL    HW241877   3.765   7.123   5.752 -0.6447  1.1153  1.5313
11929SOL     OW41878   9.109   6.312   7.859 -0.3593 -0.3839 -0.3411
11929SOL    HW141879   9.118   6.296   7.765 -0.4257 -0.3175 -0.3583
11929SOL    HW241880   9.075   6.401   7.865  1.5513  0.3625 -0.1906
11930SOL     OW41881   5.792   2.825   3.655  0.2452 -0.2121  0.1706
11930SOL    HW141882   5.842   2.811   3.575 -0.1089 -0.2905 -0.0371
11930SOL    HW241883   5.741   2.745   3.667 -2.3968  1.0668 -1.4667
11931SOL     OW41884   3.477   9.097   5.812  0.0059  0.4753 -0.3332
11931SOL    HW141885   3.491   9.056   5.726 -1.9816 -1.3854  0.1689
11931SOL    HW241886   3.507   9.032   5.875 -0.1319  1.1488  0.4458
11932SOL     OW41887   1.697   0.592   6.771  0.2861  0.1837  0.6376
11932SOL    HW141888   1.606   0.615   6.792  1.1688  2.0355  2.8255
11932SOL    HW241889   1.738   0.676   6.749  1.9723 -0.2948  1.8545
11933SOL     OW41890   9.952   6.775   8.899 -0.5194 -0.1540 -0.8600
11933SOL    HW141891   9.897   6.854   8.896 -1.2873 -0.7014 -1.5308
11933SOL    HW241892  10.010   6.790   8.974 -1.7589  0.3320  0.0475
11934SOL     OW41893   4.369   9.944   4.533 -0.5551  0.2359 -0.1488
11934SOL    HW141894   4.322   9.879   4.481 -0.2626 -1.5630  1.7084
11934SOL    HW241895   4.458   9.909   4.542 -0.2439  1.1378  0.4789
11935SOL     OW41896   1.694   2.525   0.999  0.5662 -0.1002 -0.0032
11935SOL    HW141897   1.775   2.482   1.026  0.1114 -0.1382  1.3790
11935SOL    HW241898   1.675   2.490   0.912  1.0705 -1.4689  0.4172
11936SOL     OW41899   2.410   0.788   5.160  0.0801  0.6488 -0.2647
11936SOL    HW141900   2.374   0.825   5.080  2.8515  1.9240 -1.0719
11936SOL    HW241901   2.419   0.863   5.219  0.3471  0.1701  0.3148
11937SOL     OW41902   1.514  10.631   0.960  0.3990 -0.1779  0.2083
11937SOL    HW141903   1.557  10.679   0.889 -1.5492  0.7945 -0.3959
11937SOL    HW241904   1.476  10.699   1.015  0.0234 -0.9803  0.9534
11938SOL     OW41905  10.149   3.112   3.304  0.1865  0.0160  0.0337
11938SOL    HW141906  10.070   3.143   3.349 -2.0835 -3.0578 -1.5543
11938SOL    HW241907  10.190   3.053   3.367 -0.1220 -0.2811 -0.0445
11939SOL     OW41908   7.470   0.813   9.032  0.1913 -0.3334 -0.4450
11939SOL    HW141909   7.471   0.858   9.116  1.2731 -0.3868 -0.4158
11939SOL    HW241910   7.383   0.833   8.995 -0.5636 -0.8784  0.9623
11940SOL     OW41911   8.252   1.672   4.492 -0.0332  0.2413  0.3777
11940SOL    HW141912   8.327   1.693   4.548 -0.0208 -0.2885  0.5707
11940SOL    HW241913   8.282   1.690   4.403  0.2615  0.2191  0.4718
11941SOL     OW41914   4.958   6.846   8.955  0.1116 -0.2182 -0.3550
11941SOL    HW141915   4.966   6.942   8.949  1.7385 -0.3144 -0.0793
11941SOL    HW241916   4.945   6.828   9.048  0.6463 -0.3042 -0.2927
11942SOL     OW41917   6.461   3.873   4.011 -0.2992 -0.2099  0.6104
11942SOL    HW141918   6.496   3.961   4.025 -1.1291 -0.0648  2.0411
11942SOL    HW241919   6.463   3.832   4.098 -1.7486 -0.8979  0.3590
11943SOL     OW41920   7.167  10.299   4.736 -0.4047  0.0483  0.3508
11943SOL    HW141921   7.140  10.262   4.820  0.0011 -0.8530  0.0897
11943SOL    HW241922   7.122  10.247   4.670  1.5082 -1.1802 -0.0797
11944SOL     OW41923   0.098   2.937  10.654 -0.5964 -0.6325  0.6709
11944SOL    HW141924   0.156   3.013  10.646 -0.4958 -0.5009  2.4073
11944SOL    HW241925   0.154   2.862  10.636 -0.3278 -0.3994  0.5220
11945SOL     OW41926   9.799   7.538   7.189 -0.3729  0.2437  0.1931
11945SOL    HW141927   9.763   7.596   7.122 -0.9048  0.6433  0.8130
11945SOL    HW241928   9.827   7.597   7.259 -2.5309 -0.2830  1.6172
11946SOL     OW41929   2.995   4.585   2.974  0.2177  0.1490 -0.0714
11946SOL    HW141930   3.031   4.513   2.922  1.0147  0.5519 -0.0915
11946SOL    HW241931   3.045   4.583   3.055 -0.2547  0.2299  0.2264
11947SOL     OW41932   9.181   1.856   3.962 -0.5382 -0.0631 -0.2470
11947SOL    HW141933   9.097   1.895   3.938 -1.0133 -0.1752  1.1101
11947SOL    HW241934   9.197   1.789   3.896 -1.0332  0.6151 -1.0700
11948SOL     OW41935   6.643   7.554   5.317 -0.4659  0.0782 -0.0555
11948SOL    HW141936   6.638   7.572   5.411 -1.3351  1.1032 -0.2840
11948SOL    HW241937   6.633   7.459   5.311  0.5497 -0.1158  0.9369
11949SOL     OW41938   2.801   8.506  10.424  0.3354 -0.2673 -1.0190
11949SOL    HW141939   2.775   8.594  10.451  0.9745 -0.3668 -0.0400
11949SOL    HW241940   2.858   8.520  10.349  1.0309  0.2127 -0.4208
11950SOL     OW41941   2.625   8.950   7.042 -0.2055 -0.1615 -0.6214
11950SOL    HW141942   2.638   8.859   7.017  1.2016 -0.4970  1.1559
11950SOL    HW241943   2.666   9.000   6.971  1.6050 -1.0099 -0.2331
11951SOL     OW41944  10.815   5.898   0.276  0.0010 -0.0700 -0.1920
11951SOL    HW141945  10.839   5.846   0.353  3.2587  0.0184 -0.9794
11951SOL    HW241946  10.749   5.959   0.307  0.3806 -0.7923  2.2255
11952SOL     OW41947   5.719   9.440   4.950 -0.2625  0.5940  0.1109
11952SOL    HW141948   5.784   9.505   4.978  1.2296  0.2073 -2.1763
11952SOL    HW241949   5.749   9.413   4.863 -2.7640 -0.6329 -0.4468
11953SOL     OW41950   1.749   2.160   1.080 -0.1551 -0.0685  0.4433
11953SOL    HW141951   1.696   2.162   1.000  1.2244 -1.2841 -0.5280
11953SOL    HW241952   1.813   2.091   1.066  2.2795  1.8715  1.2186
11954SOL     OW41953   4.198   6.015   6.002  0.1391 -0.2470  0.1657
11954SOL    HW141954   4.155   6.100   5.985  2.9954  1.1644 -0.5881
11954SOL    HW241955   4.136   5.951   5.968 -0.8038  1.7348 -2.2470
11955SOL     OW41956   5.418   8.762   6.043  0.0300  0.2849 -0.0462
11955SOL    HW141957   5.377   8.832   5.992 -2.2901 -0.4442  0.6836
11955SOL    HW241958   5.508   8.791   6.056 -0.1856  1.9628 -1.8272
11956SOL     OW41959   2.406   6.820   4.380 -0.0789 -0.3217  0.2591
11956SOL    HW141960   2.323   6.774   4.366 -0.2475 -0.0245  0.2737
11956SOL    HW241961   2.388   6.910   4.352  0.4319 -0.4124 -0.3928
11957SOL     OW41962   5.316   9.351   7.708 -0.2945  0.3493  0.0845
11957SOL    HW141963   5.383   9.355   7.640  0.0361  0.8021  0.4306
11957SOL    HW241964   5.233   9.342   7.660  0.0369 -0.6036 -0.3311
11958SOL     OW41965   5.927   9.912   3.370  0.0429 -0.2564 -0.3821
11958SOL    HW141966   5.885   9.828   3.350  0.3214 -0.7865  1.0887
11958SOL    HW241967   5.863   9.978   3.343 -1.3088 -1.0141  0.8183
11959SOL     OW41968   6.942   0.937   4.879 -0.0164  0.0307  0.4417
11959SOL    HW141969   6.971   0.982   4.799  0.2285 -0.2755  0.3580
11959SOL    HW241970   6.915   1.008   4.937 -0.9982  0.2205 -0.2229
11960SOL     OW41971   3.749   6.513   3.392 -0.5192 -1.1622  0.0257
11960SOL    HW141972   3.811   6.495   3.463 -1.2638 -2.2103  0.4432
11960SOL    HW241973   3.758   6.438   3.333 -0.4723 -0.6886 -0.5752
11961SOL     OW41974   1.580   1.671   0.641 -0.1725 -0.9028  0.0462
11961SOL    HW141975   1.619   1.641   0.724 -0.0679  0.7081  0.6045
11961SOL    HW241976   1.486   1.669   0.657 -0.1294  0.2510  0.5360
11962SOL     OW41977   0.435   7.291  10.865 -0.3875  1.0114  0.1315
11962SOL    HW141978   0.487   7.216  10.894 -0.0900  0.7307 -1.0373
11962SOL    HW241979   0.356   7.289  10.919  0.0932  0.4897  0.8329
11963SOL     OW41980   4.467   2.630   9.970 -0.7119 -0.1405  0.4619
11963SOL    HW141981   4.532   2.616  10.037  1.9349  0.1265 -1.8671
11963SOL    HW241982   4.458   2.546   9.926 -0.4024  0.3180 -0.5049
11964SOL     OW41983   3.692  10.825   8.605 -0.0378 -0.0435  0.4278
11964SOL    HW141984   3.628  10.858   8.542  0.2968  1.1471  0.6804
11964SOL    HW241985   3.683  10.730   8.601 -0.2041  0.0164 -1.2225
11965SOL     OW41986   8.053   2.856   6.597  0.5830 -0.1506  0.0560
11965SOL    HW141987   7.998   2.852   6.675 -0.0187 -0.8151 -0.3881
11965SOL    HW241988   8.024   2.782   6.543  0.8799  0.3860 -0.8651
11966SOL     OW41989   4.087   0.726   8.797 -0.0304  0.5840 -0.5052
11966SOL    HW141990   4.069   0.678   8.716  2.1374  1.1460 -1.3969
11966SOL    HW241991   4.125   0.660   8.855 -0.7196  0.3834 -0.2754
11967SOL     OW41992   0.784   5.198   0.128  0.4446 -0.2386 -0.1777
11967SOL    HW141993   0.864   5.147   0.115  0.3652 -0.3147 -0.3616
11967SOL    HW241994   0.730   5.144   0.185 -0.2100 -0.9722 -1.4576
11968SOL     OW41995   5.095  10.117   9.703  0.0098  0.4892  0.5883
11968SOL    HW141996   5.150  10.178   9.752  0.9630  1.1537 -1.2011
11968SOL    HW241997   5.132  10.031   9.722  0.2040  0.6999  1.1975
11969SOL     OW41998   6.373   4.702  10.807 -0.4417  0.0780  0.6427
11969SOL    HW141999   6.352   4.702  10.713  1.0600 -1.0770  0.2679
11969SOL    HW242000   6.353   4.791  10.836  0.1654  0.7931 -1.0352
11970SOL     OW42001   7.712  10.316   7.186 -0.0558  0.0624 -0.0156
11970SOL    HW142002   7.749  10.383   7.244 -0.5227 -1.9655  2.8656
11970SOL    HW242003   7.641  10.361   7.140 -1.4214  1.2690  2.9797
11971SOL     OW42004   2.070   3.175   5.243  0.0993 -0.4018 -0.7173
11971SOL    HW142005   2.029   3.261   5.251 -2.4466 -1.6707  2.1075
11971SOL    HW242006   1.996   3.114   5.242  1.8263 -2.6195 -2.0462
11972SOL     OW42007   0.872   0.954   2.992  0.3512  0.0681 -0.1993
11972SOL    HW142008   0.832   1.037   2.967  0.9561  0.2643 -0.5442
11972SOL    HW242009   0.815   0.887   2.955  1.2037  0.3464 -2.1387
11973SOL     OW42010   9.875   6.143   6.674 -0.0017 -0.2474  0.1143
11973SOL    HW142011   9.800   6.201   6.665  1.6241  1.7314 -2.2118
11973SOL    HW242012   9.838   6.057   6.688 -2.6003  1.0145  1.6250
11974SOL     OW42013   3.970   2.301   1.083 -0.1554  0.3646  0.1614
11974SOL    HW142014   4.063   2.323   1.076 -0.1236  0.1953  0.0349
11974SOL    HW242015   3.951   2.256   1.001 -0.1431 -0.3670  0.5583
11975SOL     OW42016   8.955   1.636   4.060 -0.0233 -0.0264  0.0397
11975SOL    HW142017   9.035   1.610   4.104  1.1579 -2.0488 -2.9448
11975SOL    HW242018   8.984   1.680   3.980 -1.9903  1.9267  0.2932
11976SOL     OW42019   3.287   1.348   5.275  0.2480 -0.6503 -0.2461
11976SOL    HW142020   3.296   1.307   5.362 -0.3920 -2.1105 -0.8347
11976SOL    HW242021   3.194   1.366   5.267  0.1703 -1.3285 -0.9692
11977SOL     OW42022  10.037   0.346   4.928  0.6105 -0.2910  0.2140
11977SOL    HW142023  10.033   0.345   5.023  0.6344 -2.5138  0.2589
11977SOL    HW242024  10.127   0.370   4.907  0.7348 -0.2632  0.7769
11978SOL     OW42025  10.577   5.516   0.730 -0.0696 -0.1250  0.1386
11978SOL    HW142026  10.638   5.444   0.714  1.2587  0.7541  1.0583
11978SOL    HW242027  10.559   5.512   0.824 -1.1114 -0.1069 -0.0484
11979SOL     OW42028   9.566   1.629   8.219  0.1944  0.4481 -0.6277
11979SOL    HW142029   9.516   1.667   8.147  0.3240  0.1633 -0.8694
11979SOL    HW242030   9.648   1.678   8.220  0.5773 -0.1649 -1.2757
11980SOL     OW42031   6.069   1.943   1.999 -0.4055  0.0696  0.4945
11980SOL    HW142032   6.106   2.001   2.065  0.4786  0.4075 -0.2724
11980SOL    HW242033   6.144   1.916   1.945 -1.1360  0.0957 -0.5821
11981SOL     OW42034   5.763   9.360   2.163  0.1112 -0.1622  0.3443
11981SOL    HW142035   5.758   9.267   2.140  1.8247  0.2309 -1.9717
11981SOL    HW242036   5.855   9.375   2.185 -0.1578  0.9769  0.7578
11982SOL     OW42037   6.643   8.018   4.065  0.1941  1.3041  0.5228
11982SOL    HW142038   6.700   8.000   4.140  0.6525  0.5230  0.0010
11982SOL    HW242039   6.693   8.079   4.011 -0.8750  3.3523  1.7048
11983SOL     OW42040   0.918  10.374   9.915  0.2532  0.3891 -0.8262
11983SOL    HW142041   0.962  10.386   9.831  0.1557  0.5380 -0.8568
11983SOL    HW242042   0.825  10.387   9.896 -0.1011 -2.1856 -1.2371
11984SOL     OW42043   4.502   0.296   0.592  0.7931  0.2557  0.1740
11984SOL    HW142044   4.580   0.245   0.571  0.4153 -0.8503  1.3256
11984SOL    HW242045   4.535   0.371   0.640  1.1713 -0.1254  0.5177
11985SOL     OW42046  10.608   0.048   4.546 -0.0356 -0.4278 -0.0170
11985SOL    HW142047  10.683   0.054   4.487  0.5920 -0.0380  0.8085
11985SOL    HW242048  10.533   0.034   4.488 -0.0981  3.9560 -1.3484
11986SOL     OW42049   3.795   6.762   5.958 -0.1625 -0.0516 -0.1687
11986SOL    HW142050   3.703   6.760   5.932 -0.2548  0.9130  0.0616
11986SOL    HW242051   3.796   6.719   6.044 -0.4096  0.0270 -0.1263
11987SOL     OW42052   1.592   9.495   5.211 -0.3001 -0.1280 -0.0137
11987SOL    HW142053   1.660   9.553   5.244 -1.6609  1.6301 -0.1353
11987SOL    HW242054   1.587   9.515   5.117  0.2549 -1.5759 -0.3636
11988SOL     OW42055   2.990   2.778   7.135  0.0703  0.0107 -0.1194
11988SOL    HW142056   3.060   2.732   7.088 -1.2495 -1.6767 -0.5679
11988SOL    HW242057   2.991   2.740   7.223  0.4214  0.8063  0.2325
11989SOL     OW42058   5.149   3.680  10.037  0.4850  0.0636  0.0707
11989SOL    HW142059   5.072   3.674   9.982  1.1203  0.1759 -0.8445
11989SOL    HW242060   5.128   3.626  10.114 -0.5163  0.1462 -0.1338
11990SOL     OW42061   4.496   9.367   1.332 -0.4900  0.5322 -0.5770
11990SOL    HW142062   4.495   9.459   1.303 -0.0523  0.2707 -1.4687
11990SOL    HW242063   4.466   9.318   1.255 -1.2899 -0.0358  0.0803
11991SOL     OW42064   0.154   1.451   9.228  0.2899  0.1328  0.3749
11991SOL    HW142065   0.155   1.359   9.255  0.7671  0.4172  1.3573
11991SOL    HW242066   0.139   1.447   9.133  0.7783 -0.9708  0.3204
11992SOL     OW42067   9.664   6.898   6.172  0.4613  0.3667  0.3933
11992SOL    HW142068   9.611   6.859   6.102  1.7618 -1.2888  0.2475
11992SOL    HW242069   9.624   6.984   6.188 -0.8357  0.1290 -1.2607
11993SOL     OW42070   5.500   8.974   6.613  0.1736  0.4951 -0.4604
11993SOL    HW142071   5.571   9.038   6.613 -0.0771  0.7991  0.7683
11993SOL    HW242072   5.431   9.014   6.560  0.1650  1.0887 -0.0118
11994SOL     OW42073   4.462   8.067   5.817  0.1439  0.0844 -0.0868
11994SOL    HW142074   4.466   8.155   5.855 -0.7018  0.2478 -0.3448
11994SOL    HW242075   4.421   8.013   5.885 -3.3795  0.8191 -1.4058
11995SOL     OW42076   5.769   8.536   1.300  0.2524 -0.0899  0.3962
11995SOL    HW142077   5.686   8.573   1.331  0.4904  0.2868  0.5757
11995SOL    HW242078   5.756   8.441   1.307 -0.3860 -0.0516 -0.1557
11996SOL     OW42079   4.221   1.446   3.029  0.0823 -0.0536  0.5140
11996SOL    HW142080   4.292   1.383   3.034 -0.4547 -0.8192 -0.9170
11996SOL    HW242081   4.263   1.531   3.042  1.4037 -0.4302 -1.0318
11997SOL     OW42082   7.955   6.639   2.267  0.3081  0.3829 -0.0383
11997SOL    HW142083   7.990   6.550   2.259 -0.3341  0.1317 -0.1881
11997SOL    HW242084   7.927   6.661   2.178 -0.2629  0.4136  0.1423
11998SOL     OW42085   6.204   8.305   3.384 -0.3934  0.1137 -0.4551
11998SOL    HW142086   6.115   8.339   3.369 -0.5290  0.5294  1.1372
11998SOL    HW242087   6.239   8.292   3.296 -1.1227  2.3840 -1.1678
11999SOL     OW42088   8.891   9.226   6.257 -0.3437  0.5072  0.9413
11999SOL    HW142089   8.844   9.144   6.245 -0.9747  0.5720  2.7197
11999SOL    HW242090   8.963   9.205   6.316  0.3748  0.9299  0.2282
12000SOL     OW42091   8.486   0.618   0.030 -0.2152 -0.2352  0.2639
12000SOL    HW142092   8.570   0.592   0.068  0.7542  0.3021 -1.3848
12000SOL    HW242093   8.425   0.617   0.104  1.1897 -0.8095  1.4822
12001SOL     OW42094   6.631   6.091  10.808 -0.1820  0.1755 -0.1263
12001SOL    HW142095   6.641   6.107  10.714  2.7606 -1.0153 -0.1317
12001SOL    HW242096   6.710   6.043  10.833 -2.1378 -2.0361  2.4552
12002SOL     OW42097  10.546   3.629   8.796 -0.7091 -0.4071 -0.2184
12002SOL    HW142098  10.582   3.556   8.745 -0.6497 -1.2176  0.9345
12002SOL    HW242099  10.456   3.639   8.763  0.2077  1.1288 -2.5799
12003SOL     OW42100   9.869   1.574   6.147  0.1150  0.0508  0.0818
12003SOL    HW142101   9.915   1.647   6.107  0.5355 -0.0936  0.2906
12003SOL    HW242102   9.777   1.591   6.130  0.1846  0.7827  0.3851
12004SOL     OW42103   2.599   5.391   4.391 -0.6080  0.0371 -0.5966
12004SOL    HW142104   2.550   5.316   4.358 -0.5028 -0.5559  0.5511
12004SOL    HW242105   2.591   5.457   4.322 -3.1565  0.0230 -0.3925
12005SOL     OW42106   1.714   2.261  10.837 -0.6233  0.1042 -0.4106
12005SOL    HW142107   1.742   2.346  10.871 -0.4111  0.2772 -0.9984
12005SOL    HW242108   1.668   2.282  10.755 -0.4322 -0.3561 -0.6396
12006SOL     OW42109   8.015   6.580   2.977  0.7112  0.1481  0.2431
12006SOL    HW142110   7.961   6.604   2.902 -0.3531 -0.2523  0.8573
12006SOL    HW242111   7.968   6.615   3.053  0.4178 -1.6174  0.9324
12007SOL     OW42112   4.529   3.979   6.580 -0.1380  0.0269 -0.7633
12007SOL    HW142113   4.618   3.978   6.614 -0.3564  0.2771 -0.1844
12007SOL    HW242114   4.520   4.065   6.537 -0.2085  0.1421 -0.5217
12008SOL     OW42115   3.136   9.334   2.128  0.3826 -0.2939  0.0356
12008SOL    HW142116   3.213   9.365   2.080  1.1005 -1.3486  0.4726
12008SOL    HW242117   3.153   9.360   2.219 -1.1299  2.0064 -0.2483
12009SOL     OW42118   4.713   2.593   0.505  0.1132 -0.2469 -0.3991
12009SOL    HW142119   4.725   2.672   0.557 -0.7929 -0.0240 -0.5159
12009SOL    HW242120   4.650   2.618   0.437 -2.2941 -1.7427  1.1286
12010SOL     OW42121   8.534   0.111   8.872  0.1099 -0.2666  0.1443
12010SOL    HW142122   8.546   0.174   8.800 -0.7400 -1.3987 -1.0293
12010SOL    HW242123   8.618   0.112   8.918  1.0396 -0.2344 -1.4755
12011SOL     OW42124   0.609   0.412   4.535  0.2069 -0.2914  0.1575
12011SOL    HW142125   0.704   0.423   4.530  0.0910  0.5764 -0.2993
12011SOL    HW242126   0.578   0.428   4.446 -0.3811 -0.4950  0.3170
12012SOL     OW42127   0.572   8.236   6.771  0.7795 -0.8736 -0.1126
12012SOL    HW142128   0.608   8.254   6.684  2.9639 -1.3875  0.6252
12012SOL    HW242129   0.539   8.147   6.766 -1.0395 -0.2017 -0.9634
12013SOL     OW42130   2.045   0.614   2.144  0.2177  0.6624 -0.6315
12013SOL    HW142131   2.120   0.624   2.085  0.3706 -0.0739 -0.5691
12013SOL    HW242132   2.065   0.535   2.195 -0.6781  0.3620 -0.7285
12014SOL     OW42133   2.272   0.615   4.180 -0.4676 -0.1937 -0.2034
12014SOL    HW142134   2.239   0.540   4.230  0.1418  1.1278  2.3594
12014SOL    HW242135   2.250   0.594   4.089 -2.3224 -2.4167  0.6383
12015SOL     OW42136   2.749   1.228   8.633 -0.4042  0.3690 -0.0506
12015SOL    HW142137   2.687   1.184   8.575 -1.0573 -0.2936  1.0972
12015SOL    HW242138   2.708   1.312   8.652  0.0066  0.7640 -0.8421
12016SOL     OW42139   8.292   4.250  10.768  0.2302 -0.2403 -0.0310
12016SOL    HW142140   8.378   4.227  10.801  0.5147  0.0942 -0.5309
12016SOL    HW242141   8.291   4.216  10.678 -1.0875 -2.5131  0.7547
12017SOL     OW42142   3.929   1.681   5.026  0.0135  0.5258  0.1478
12017SOL    HW142143   3.936   1.771   4.995  0.4951  0.5736  0.3735
12017SOL    HW242144   3.995   1.675   5.096  0.9478 -0.3843 -0.7696
12018SOL     OW42145   7.962  10.122   6.245 -0.0032 -1.0210 -0.4343
12018SOL    HW142146   7.977  10.028   6.231 -1.8233 -1.2799 -0.9078
12018SOL    HW242147   8.007  10.165   6.173 -2.1865 -1.8126 -2.4121
12019SOL     OW42148   5.996   5.149  10.589  0.7443 -0.1396  0.0205
12019SOL    HW142149   5.996   5.058  10.618 -0.2059 -0.5387 -1.1761
12019SOL    HW242150   5.908   5.181  10.607  0.0474 -0.4563 -2.4659
12020SOL     OW42151   4.338   3.776   8.303 -0.5055 -0.6333 -0.2375
12020SOL    HW142152   4.411   3.746   8.249 -0.5961  0.0408 -0.7397
12020SOL    HW242153   4.266   3.787   8.241 -2.0122 -4.2610  0.6327
12021SOL     OW42154   4.854   8.998   7.870  0.1035 -0.0632 -0.3093
12021SOL    HW142155   4.766   8.996   7.908  0.3177 -0.1706  0.1882
12021SOL    HW242156   4.839   9.013   7.776 -0.3949  1.5740 -0.0124
12022SOL     OW42157   6.653   1.815   6.587 -0.2429 -0.0492 -0.5501
12022SOL    HW142158   6.603   1.742   6.622 -1.8670 -0.0794 -2.7037
12022SOL    HW242159   6.619   1.892   6.633  2.1272 -0.5997  2.4105
12023SOL     OW42160   3.314   3.165   0.154  0.2742  0.3489  0.4648
12023SOL    HW142161   3.283   3.225   0.222  2.2941  0.0556  1.7372
12023SOL    HW242162   3.241   3.104   0.140 -0.7417  1.3384  1.2386
12024SOL     OW42163  10.230   3.862   8.201  0.0056 -0.2005  0.3864
12024SOL    HW142164  10.289   3.862   8.127  1.8982  1.8201  1.7753
12024SOL    HW242165  10.205   3.954   8.213 -0.6615 -0.5396  1.9107
12025SOL     OW42166  10.394   0.269   4.319 -0.2780 -0.1460  0.6366
12025SOL    HW142167  10.351   0.231   4.396 -5.0611  1.8405 -0.6845
12025SOL    HW242168  10.420   0.357   4.347 -1.6031  0.4105  0.1786
12026SOL     OW42169   3.960   6.226   8.601  0.1692 -0.2933  0.4885
12026SOL    HW142170   3.922   6.160   8.658  2.9860 -1.6703  0.9276
12026SOL    HW242171   3.963   6.305   8.654 -0.0792 -0.7390  1.1777
12027SOL     OW42172   1.369   0.682   9.649  0.1757 -0.5197  0.6590
12027SOL    HW142173   1.435   0.667   9.717  1.5320 -0.6271 -0.6201
12027SOL    HW242174   1.406   0.641   9.571 -0.1804  1.7178 -0.7512
12028SOL     OW42175  10.467   9.090  10.278  0.0954 -0.1340  0.1489
12028SOL    HW142176  10.444   9.150  10.207  2.2884  2.0488  1.1275
12028SOL    HW242177  10.397   9.100  10.342 -1.1416 -1.0186 -1.0165
12029SOL     OW42178   1.204   7.719  10.788  0.2093 -0.2787  0.2235
12029SOL    HW142179   1.163   7.806  10.789 -1.2315 -0.9223 -0.1471
12029SOL    HW242180   1.188   7.685  10.876  0.5491 -0.2880  0.2847
12030SOL     OW42181   1.064   1.103   8.937  0.1986  0.0669  0.0523
12030SOL    HW142182   1.002   1.087   8.865 -0.0303  0.5095  0.1457
12030SOL    HW242183   1.063   1.022   8.988 -1.0376  0.3956  0.5887
12031SOL     OW42184   1.203   6.610   8.599  0.5049  0.0800 -0.4131
12031SOL    HW142185   1.149   6.657   8.663 -1.1148 -1.4055 -0.6263
12031SOL    HW242186   1.194   6.518   8.623  2.1412 -0.2852 -1.1046
12032SOL     OW42187   5.825   0.314   1.271 -0.0714  0.2123 -0.0076
12032SOL    HW142188   5.777   0.231   1.269  0.7462 -0.2881 -2.5669
12032SOL    HW242189   5.867   0.320   1.185  1.9658  2.0775  1.0028
12033SOL     OW42190   0.565   2.354   3.604  0.4840 -0.4013 -0.4360
12033SOL    HW142191   0.600   2.442   3.588  1.5754 -0.8719 -0.7231
12033SOL    HW242192   0.470   2.365   3.600  0.5874  0.8692  0.0971
12034SOL     OW42193  10.700   1.015  10.393 -0.5031 -0.5078  0.5455
12034SOL    HW142194  10.774   0.955  10.378 -1.4063 -1.1888 -1.5091
12034SOL    HW242195  10.645   0.970  10.457 -1.0574 -1.8192 -0.8101
12035SOL     OW42196   2.185   5.058  10.331  0.8703 -0.1874  0.4235
12035SOL    HW142197   2.198   5.111  10.253 -1.1294  1.1371  0.9430
12035SOL    HW242198   2.270   5.060  10.376  1.1511  1.6355 -0.1360
12036SOL     OW42199   8.231   2.072   0.133 -0.2816  0.1668 -0.2023
12036SOL    HW142200   8.262   2.162   0.132 -0.3905  0.2048 -0.0757
12036SOL    HW242201   8.165   2.069   0.202 -0.1685 -0.0443 -0.1011
12037SOL     OW42202   0.962   4.299   3.341  0.2694  0.1307 -0.4416
12037SOL    HW142203   1.054   4.308   3.318  0.4184  0.2706  0.2201
12037SOL    HW242204   0.918   4.285   3.256  0.9122 -0.1120 -0.7408
12038SOL     OW42205   9.951  10.339   2.078 -0.3231 -0.2971  0.5457
12038SOL    HW142206   9.939  10.248   2.104  0.0314 -0.8930 -1.2187
12038SOL    HW242207   9.949  10.337   1.982 -0.7628  1.6240  0.4732
12039SOL     OW42208   8.646   0.251   3.102 -0.0600  0.4208 -0.1303
12039SOL    HW142209   8.684   0.246   3.190  0.2618  3.5594  0.0247
12039SOL    HW242210   8.714   0.216   3.045  0.7499  0.6504  0.6685
12040SOL     OW42211   9.928   5.926   5.555 -0.4139  0.6756  0.0476
12040SOL    HW142212   9.833   5.937   5.552 -0.5055  0.5626  1.7828
12040SOL    HW242213   9.946   5.894   5.643  0.9365 -2.2792 -1.1603
12041SOL     OW42214   4.049   4.243   8.990 -0.6943 -0.2543  0.0526
12041SOL    HW142215   4.023   4.186   8.918 -0.7530  0.1679 -0.2644
12041SOL    HW242216   4.064   4.184   9.063  0.4999 -0.8073 -0.6145
12042SOL     OW42217   4.682   3.481   5.919 -0.6611 -0.0839 -0.6190
12042SOL    HW142218   4.662   3.437   6.001  2.0477  0.9511  0.7133
12042SOL    HW242219   4.723   3.413   5.864 -1.2356 -0.4424 -0.6140
12043SOL     OW42220   4.350   8.643   3.555 -0.3912 -0.2416  0.2304
12043SOL    HW142221   4.293   8.639   3.632 -1.0548  0.7720 -0.1897
12043SOL    HW242222   4.367   8.552   3.532 -0.5596 -0.5539  1.2988
12044SOL     OW42223  10.083   0.797   6.655  0.2794 -0.1094  0.2488
12044SOL    HW142224  10.119   0.869   6.604  1.3447 -0.6742  0.1731
12044SOL    HW242225   9.994   0.786   6.621  0.6165  0.1923 -0.7838
12045SOL     OW42226  10.328   6.282   9.571 -0.1323 -0.5811  0.3201
12045SOL    HW142227  10.340   6.365   9.617 -0.8465 -0.4515  0.2796
12045SOL    HW242228  10.237   6.283   9.542  0.8758  0.4972 -3.3812
12046SOL     OW42229   8.720   5.033   5.033  0.1863  0.2025  0.5000
12046SOL    HW142230   8.690   4.949   4.999  2.6482 -1.1564  1.4250
12046SOL    HW242231   8.725   5.090   4.956 -2.0652 -0.2447 -0.0555
12047SOL     OW42232   0.072   7.722   4.233 -0.2082  0.6729 -0.4643
12047SOL    HW142233   0.053   7.708   4.325 -0.4770  1.4610 -0.3969
12047SOL    HW242234   0.161   7.689   4.222 -0.1554  0.6267  0.0854
12048SOL     OW42235   9.038   0.355   8.044 -0.0263  0.1728 -0.1810
12048SOL    HW142236   8.967   0.294   8.024  0.7336 -1.3285  1.4769
12048SOL    HW242237   9.038   0.361   8.139 -0.2011  3.0024 -0.2685
12049SOL     OW42238   2.232   8.298   0.521 -0.3334  0.0378  0.6669
12049SOL    HW142239   2.305   8.240   0.544 -0.2332  0.2001  0.7626
12049SOL    HW242240   2.160   8.239   0.498  0.1422 -0.1386 -0.4731
12050SOL     OW42241  10.413   7.586  10.247 -0.4180 -0.8267  0.1148
12050SOL    HW142242  10.468   7.648  10.199  2.2828 -2.6051  0.6879
12050SOL    HW242243  10.388   7.633  10.326  0.5522 -0.0448 -0.0237
12051SOL     OW42244   6.722   9.732   3.774 -0.3588  0.0479 -0.4589
12051SOL    HW142245   6.786   9.794   3.739  0.4691  0.7786  2.1560
12051SOL    HW242246   6.743   9.649   3.731  0.2820  0.9525 -1.9882
12052SOL     OW42247   7.006   7.642   6.424  0.3904  0.3281  0.0075
12052SOL    HW142248   7.022   7.595   6.506 -0.4095  0.2186  0.1081
12052SOL    HW242249   6.987   7.574   6.360  0.0182  0.4621 -0.0304
12053SOL     OW42250   1.913  10.417   0.333 -0.0085 -0.3725 -0.1037
12053SOL    HW142251   1.857  10.360   0.281 -2.8764  1.9582  0.1672
12053SOL    HW242252   1.886  10.401   0.423  0.2203  0.3131  0.0895
12054SOL     OW42253   6.545   5.884  10.381 -0.0732  0.0355  0.3800
12054SOL    HW142254   6.573   5.812  10.324  0.8934  0.6958  0.0110
12054SOL    HW242255   6.462   5.913  10.343  1.0684  1.1637 -1.3608
12055SOL     OW42256  10.456   6.308   4.882 -0.4316  0.4935 -0.4657
12055SOL    HW142257  10.469   6.213   4.894 -0.0922  0.5118 -0.6573
12055SOL    HW242258  10.493   6.326   4.796  1.3048  1.1212  0.3503
12056SOL     OW42259   2.237   8.944   6.427  0.9563  0.2780  0.4638
12056SOL    HW142260   2.228   9.039   6.427  0.4181  0.2374  1.1847
12056SOL    HW242261   2.253   8.921   6.519 -0.3363 -0.4418  0.5330
12057SOL     OW42262   9.294   8.503   6.308  0.1698 -0.5985  0.2059
12057SOL    HW142263   9.231   8.538   6.372 -1.8481  1.6206 -2.7258
12057SOL    HW242264   9.361   8.571   6.302  1.0016 -1.3556  0.7810
12058SOL     OW42265   5.858   6.162  10.848  0.1281 -0.2436 -0.3666
12058SOL    HW142266   5.810   6.086  10.815  0.1406  0.6186 -2.5211
12058SOL    HW242267   5.859   6.150  10.943  1.2600 -3.6063 -0.6728
12059SOL     OW42268   0.937   9.791   0.650  0.3634  0.0356 -0.8134
12059SOL    HW142269   0.887   9.784   0.731  1.8876 -2.1295  0.0321
12059SOL    HW242270   0.874   9.769   0.581 -0.5925  0.4986 -0.1110
12060SOL     OW42271   8.122   4.936   7.628  0.4864  0.1105 -0.1980
12060SOL    HW142272   8.067   4.981   7.692  0.1271  0.8173 -0.9743
12060SOL    HW242273   8.061   4.890   7.570  0.8675 -1.8078  0.8489
12061SOL     OW42274   7.757   0.367   2.763 -0.1167 -0.1585 -0.5810
12061SOL    HW142275   7.788   0.438   2.707  0.3637 -0.1692 -0.3349
12061SOL    HW242276   7.662   0.376   2.763 -0.0022  1.9219  1.2965
12062SOL     OW42277   9.313   3.011   9.759 -0.0725  0.0110  0.1400
12062SOL    HW142278   9.232   3.062   9.755 -2.0058 -2.7528  0.5206
12062SOL    HW242279   9.335   2.995   9.667  0.5248  1.3768  0.0181
12063SOL     OW42280   8.132   5.065  10.747 -0.0259 -0.8028 -0.5956
12063SOL    HW142281   8.190   4.989  10.756 -0.2458 -0.8699  0.4303
12063SOL    HW242282   8.114   5.092  10.837 -1.0197 -0.3545 -0.9108
12064SOL     OW42283   7.448   3.885   5.093 -0.5960  0.3290  0.0204
12064SOL    HW142284   7.385   3.864   5.162 -0.2147 -2.2097 -0.3100
12064SOL    HW242285   7.406   3.858   5.012  0.4946 -0.4475 -0.3132
12065SOL     OW42286   7.883   7.955   7.454 -0.0462  0.1975 -0.9256
12065SOL    HW142287   7.900   8.032   7.508  1.3644  0.7019 -2.0141
12065SOL    HW242288   7.871   7.990   7.366  1.7506 -0.8975 -1.6433
12066SOL     OW42289   6.903   5.224   7.976  0.0574  0.0150 -0.2560
12066SOL    HW142290   6.981   5.238   8.030 -0.2222 -0.2365  0.2242
12066SOL    HW242291   6.831   5.217   8.039 -0.0112 -2.3877 -0.4747
12067SOL     OW42292   8.147   6.550   6.837 -0.0501  1.1918 -0.2007
12067SOL    HW142293   8.070   6.588   6.878 -0.8778  1.2992 -1.7568
12067SOL    HW242294   8.113   6.476   6.786  0.7770  1.5779 -1.3556
12068SOL     OW42295   7.889  10.007   3.168  0.2157 -0.0708 -0.4232
12068SOL    HW142296   7.913  10.099   3.152  0.7608  0.0430  0.9224
12068SOL    HW242297   7.969   9.967   3.200  0.3148 -1.3478 -2.1107
12069SOL     OW42298   4.375   3.623   4.211 -0.2889  0.9018 -0.5492
12069SOL    HW142299   4.328   3.705   4.226 -1.2458  0.6055 -1.7181
12069SOL    HW242300   4.421   3.637   4.128 -0.4815  0.2546 -0.7689
12070SOL     OW42301   8.442   2.737   8.634 -0.1367 -0.3999  0.3181
12070SOL    HW142302   8.423   2.647   8.658 -1.7999  0.0527  0.7817
12070SOL    HW242303   8.477   2.777   8.714 -2.2565  0.1352  1.0416
12071SOL     OW42304   3.407   3.368   3.423 -0.1610 -0.6078  0.6113
12071SOL    HW142305   3.402   3.438   3.488 -0.3610 -0.1448  0.1027
12071SOL    HW242306   3.333   3.311   3.445  0.3239 -0.9613  1.3620
12072SOL     OW42307  10.248   6.671   2.782 -0.0115 -0.0526 -0.0118
12072SOL    HW142308  10.319   6.642   2.726  0.5183  1.4489 -0.1620
12072SOL    HW242309  10.282   6.750   2.824 -0.8305 -0.4755  1.5246
12073SOL     OW42310   0.757   3.062   7.296  0.1343  0.2871 -0.5733
12073SOL    HW142311   0.731   3.056   7.204  0.9022 -0.3686 -0.7603
12073SOL    HW242312   0.851   3.043   7.296  0.2858  0.9437  0.2704
12074SOL     OW42313   1.741   8.988  10.696  0.2347  0.0760 -0.9510
12074SOL    HW142314   1.802   8.915  10.707  0.6825  0.4309 -1.0264
12074SOL    HW242315   1.663   8.962  10.745 -0.7927 -1.7616 -3.3675
12075SOL     OW42316   7.010  10.485   6.631  0.4863  0.0547  0.6477
12075SOL    HW142317   6.927  10.481   6.680  0.8135 -0.6184  1.1655
12075SOL    HW242318   6.987  10.452   6.544  0.4571 -1.3210  1.1549
12076SOL     OW42319   7.543  10.684  10.081 -0.5107 -0.6699 -0.2596
12076SOL    HW142320   7.544  10.752  10.014 -1.6201  1.5267  1.7732
12076SOL    HW242321   7.635  10.664  10.097 -0.1497  0.3493 -0.9475
12077SOL     OW42322   0.164   0.699  10.620 -0.1437 -0.2880 -0.7718
12077SOL    HW142323   0.181   0.691  10.714 -0.1964  2.1779 -0.4814
12077SOL    HW242324   0.078   0.659  10.607 -0.7803  0.6146  0.5125
12078SOL     OW42325   3.418   4.692   9.943 -0.2902 -0.1726  0.0982
12078SOL    HW142326   3.385   4.782   9.932  0.7737  0.2053 -0.1891
12078SOL    HW242327   3.487   4.684   9.876 -1.2604 -1.6630 -0.7833
12079SOL     OW42328   6.733   7.065   8.805  0.3448 -0.0852 -0.4704
12079SOL    HW142329   6.762   7.097   8.719  0.2616 -0.8251 -0.7876
12079SOL    HW242330   6.814   7.040   8.849  0.4470  0.9286 -0.0567
12080SOL     OW42331   7.437   1.754   0.501 -0.0047  0.4285  0.0846
12080SOL    HW142332   7.472   1.839   0.475 -2.1362  1.3868  0.0885
12080SOL    HW242333   7.467   1.694   0.433  0.8788  1.3439 -0.3554
12081SOL     OW42334   8.241   2.599   7.969 -0.2062  0.3459 -0.1398
12081SOL    HW142335   8.177   2.527   7.965 -1.2735  1.1532  1.4457
12081SOL    HW242336   8.318   2.564   7.923 -0.5793 -1.9320  0.8110
12082SOL     OW42337  10.245   4.100   8.947  0.0469  0.0331 -0.3690
12082SOL    HW142338  10.208   4.014   8.927  0.1484 -0.2541  0.6143
12082SOL    HW242339  10.320   4.108   8.888  1.9250 -1.8988  1.5520
12083SOL     OW42340  10.793   0.059   6.542 -0.1713 -0.4899  0.0977
12083SOL    HW142341  10.845  -0.020   6.556  2.1705  0.5651 -1.9361
12083SOL    HW242342  10.706   0.026   6.518  0.2928 -2.3957  0.8725
12084SOL     OW42343   3.027   8.145   1.978 -0.3668  0.3449  0.8974
12084SOL    HW142344   3.093   8.208   2.005 -0.4431  1.2623 -0.8956
12084SOL    HW242345   3.063   8.104   1.899 -0.1729 -2.1583  2.1757
12085SOL     OW42346   9.693   3.069  10.674 -0.8146 -0.2280  0.2130
12085SOL    HW142347   9.635   3.117  10.616  0.1176  0.1700 -0.4210
12085SOL    HW242348   9.750   3.137  10.712  0.1293 -0.7539 -0.2355
12086SOL     OW42349   1.352  10.427   6.898 -0.0403 -0.0022  0.6786
12086SOL    HW142350   1.432  10.476   6.914 -0.2707 -0.1737  2.6860
12086SOL    HW242351   1.361  10.394   6.809  0.8209  2.3262 -0.1887
12087SOL     OW42352   6.387   5.827   6.338  0.8509 -0.5557  0.2527
12087SOL    HW142353   6.407   5.881   6.414  0.6954 -1.1437  0.7238
12087SOL    HW242354   6.341   5.751   6.374  0.1647 -0.5159 -0.5052
12088SOL     OW42355   8.248   4.717   7.716 -0.1891  0.5470 -0.1363
12088SOL    HW142356   8.219   4.800   7.678  0.6789  0.6503 -0.5992
12088SOL    HW242357   8.209   4.715   7.803 -0.2376  1.4318 -0.1323
12089SOL     OW42358   7.896   3.631   6.555 -0.0461  0.1845 -0.5649
12089SOL    HW142359   7.922   3.545   6.523 -0.5849 -0.0525 -0.3799
12089SOL    HW242360   7.882   3.683   6.476  1.7329  0.5621 -0.6722
12090SOL     OW42361   0.891   9.788  10.471 -0.1857  0.2445  0.3392
12090SOL    HW142362   0.806   9.808  10.432 -0.0594  1.3801  0.6083
12090SOL    HW242363   0.889   9.832  10.556  1.7967  2.9917 -0.8767
12091SOL     OW42364  10.852   7.365   5.765  0.1200  0.1771 -0.2321
12091SOL    HW142365  10.927   7.329   5.718 -0.4672 -0.7886 -0.4645
12091SOL    HW242366  10.865   7.338   5.856 -0.3831 -0.7944 -0.4260
12092SOL     OW42367   5.522   5.979   8.298  0.2438  0.2492 -0.1709
12092SOL    HW142368   5.464   6.055   8.305  1.9809  1.5484  0.8891
12092SOL    HW242369   5.549   5.960   8.388 -0.6171 -2.0656 -0.3304
12093SOL     OW42370   9.567   3.154   5.213 -0.2925 -0.5184  0.2007
12093SOL    HW142371   9.528   3.115   5.134 -1.0419 -0.2609  0.4304
12093SOL    HW242372   9.584   3.080   5.271  0.7298 -0.7612 -0.3944
12094SOL     OW42373   4.780   5.429   6.016 -0.1161 -0.0813  0.5254
12094SOL    HW142374   4.699   5.420   5.965 -0.7346  1.9012  1.1045
12094SOL    HW242375   4.755   5.410   6.106  0.2544 -0.2764  0.5921
12095SOL     OW42376   2.368   4.785   9.150  0.0950 -0.6215  0.8032
12095SOL    HW142377   2.399   4.766   9.062  0.1903 -1.1398  0.9408
12095SOL    HW242378   2.444   4.821   9.195 -0.5838  2.0829 -0.0207
12096SOL     OW42379   9.015   9.437   7.994 -0.4152 -0.5360  0.3763
12096SOL    HW142380   8.942   9.463   7.937 -1.6886  1.0936  2.5739
12096SOL    HW242381   9.058   9.519   8.018  1.2379 -1.3461  0.3217
12097SOL     OW42382   3.366   3.861   4.401 -0.1227  0.5482 -0.2669
12097SOL    HW142383   3.399   3.897   4.483  0.3664  3.1253 -1.5016
12097SOL    HW242384   3.271   3.873   4.407 -0.2954 -0.9587  0.6146
12098SOL     OW42385   4.396   5.383   8.335  0.2970 -0.1399 -0.2653
12098SOL    HW142386   4.346   5.377   8.417  1.1416  0.9592  0.3485
12098SOL    HW242387   4.337   5.346   8.269 -1.0946  0.5636  0.5399
12099SOL     OW42388   3.719   2.508   0.038 -0.0914 -0.1856  0.4842
12099SOL    HW142389   3.632   2.547   0.054  0.7440  1.3466  1.5497
12099SOL    HW242390   3.710   2.418   0.068 -1.2796  0.0003  0.7549
12100SOL     OW42391   1.494   4.667   0.994 -0.1544 -0.0490 -0.1702
12100SOL    HW142392   1.544   4.747   1.009  0.3704 -0.7743  2.5203
12100SOL    HW242393   1.558   4.604   0.961 -0.1366  0.0540 -0.3356
12101SOL     OW42394   4.071   8.306   1.031  0.0931  0.4215 -0.1047
12101SOL    HW142395   4.101   8.334   0.945  0.4456 -0.0741 -0.1477
12101SOL    HW242396   4.062   8.387   1.081  1.3684  0.6070 -0.1369
12102SOL     OW42397   7.740   5.464   0.579 -0.5212 -0.1060 -0.6191
12102SOL    HW142398   7.767   5.553   0.603  0.6664 -0.7445  0.5731
12102SOL    HW242399   7.663   5.447   0.634 -0.5870  0.0886 -0.6492
12103SOL     OW42400   3.697   2.548  10.220 -0.2370  0.0628  0.0130
12103SOL    HW142401   3.760   2.616  10.195  0.7406 -0.8667 -0.1281
12103SOL    HW242402   3.745   2.490  10.278 -1.2032 -0.2491  0.5276
12104SOL     OW42403  10.522  10.518   6.065 -0.3538 -0.3786  0.1065
12104SOL    HW142404  10.573  10.480   6.137 -0.7098  1.5080  1.4253
12104SOL    HW242405  10.584  10.523   5.992  0.9974  0.6013  1.2624
12105SOL     OW42406   6.695  10.495   9.657 -0.0920  0.7540  0.1718
12105SOL    HW142407   6.689  10.407   9.618 -0.5651  0.2279  1.3962
12105SOL    HW242408   6.777  10.530   9.622  0.8677 -0.7613  0.8069
12106SOL     OW42409   4.991   7.433   4.038 -0.1887  0.0131 -0.2690
12106SOL    HW142410   4.910   7.426   4.088  0.8058 -0.0601  1.4024
12106SOL    HW242411   4.986   7.519   3.995 -0.9932  0.1448  0.0874
12107SOL     OW42412   8.147   9.592   1.886 -0.3381 -0.2092 -0.2208
12107SOL    HW142413   8.196   9.512   1.904  0.3834 -0.1110 -1.5731
12107SOL    HW242414   8.180   9.621   1.800  0.2850  2.1649  0.7242
12108SOL     OW42415   8.211   0.227   0.210 -0.0694 -0.7182  0.0994
12108SOL    HW142416   8.250   0.274   0.284 -0.2113  0.5228 -0.5971
12108SOL    HW242417   8.282   0.218   0.147 -0.0634 -1.4048  0.1909
12109SOL     OW42418   1.379   0.529   7.448  0.1096  0.0553 -0.5472
12109SOL    HW142419   1.448   0.565   7.504 -0.4256  0.8642 -0.3968
12109SOL    HW242420   1.427   0.479   7.381  0.8486  0.7092 -0.5243
12110SOL     OW42421   9.072   2.439   1.825  0.2202  0.2010 -0.3844
12110SOL    HW142422   9.061   2.378   1.898 -1.6911  0.3054 -0.5315
12110SOL    HW242423   9.108   2.386   1.755  1.0873 -0.1361  0.2962
12111SOL     OW42424   8.030  10.804   8.523 -0.4130  0.2071  0.2370
12111SOL    HW142425   7.935  10.819   8.526 -0.3196  0.6581  1.2352
12111SOL    HW242426   8.064  10.848   8.601  0.6097 -0.0477 -0.0519
12112SOL     OW42427  10.220  10.596   1.036  0.3881 -0.1258  0.0187
12112SOL    HW142428  10.148  10.651   1.009 -0.2109 -0.5882  0.6326
12112SOL    HW242429  10.297  10.631   0.991 -0.2521  0.2558 -0.7755
12113SOL     OW42430   5.687   0.152   2.651  0.2847 -0.5411  0.0890
12113SOL    HW142431   5.628   0.169   2.578  0.0908  0.4691  0.4611
12113SOL    HW242432   5.772   0.183   2.620 -0.2251  2.1247  1.0671
12114SOL     OW42433  10.295   8.148   4.261 -0.1861  1.1178  0.5209
12114SOL    HW142434  10.210   8.113   4.289  0.2636 -0.1557  0.3623
12114SOL    HW242435  10.273   8.210   4.192 -0.9131 -1.0829 -1.3941
12115SOL     OW42436   1.169   2.716   1.305  0.0034  0.0313 -0.3676
12115SOL    HW142437   1.176   2.625   1.273 -1.8287 -0.3167  0.0817
12115SOL    HW242438   1.203   2.769   1.233 -1.0854 -0.9099 -1.6401
12116SOL     OW42439  10.400   4.431   7.016 -0.1450 -0.2753  0.3693
12116SOL    HW142440  10.311   4.427   6.981 -0.6070 -0.2942  1.4839
12116SOL    HW242441  10.456   4.447   6.940 -1.0334 -0.8991 -0.4365
12117SOL     OW42442   6.361   5.154  10.071 -0.1688  0.0596 -0.7769
12117SOL    HW142443   6.403   5.235  10.044  1.3386 -0.1939  0.6413
12117SOL    HW242444   6.393   5.089  10.008 -0.6813  0.3770 -1.3810
12118SOL     OW42445   3.795   7.692   2.767  0.1855 -0.1174  0.2930
12118SOL    HW142446   3.715   7.643   2.784  0.8648 -1.5710 -0.4494
12118SOL    HW242447   3.797   7.703   2.672 -0.1506  1.7625  0.4721
12119SOL     OW42448   6.211   5.689   6.943  0.1910 -0.3327 -0.0386
12119SOL    HW142449   6.150   5.622   6.911 -0.7576 -0.1058  1.2283
12119SOL    HW242450   6.159   5.770   6.945  1.2682  0.4371 -1.3615
12120SOL     OW42451   1.465   9.808  10.064 -0.3688  0.6146 -0.1883
12120SOL    HW142452   1.524   9.867  10.018 -1.5676  0.4669 -2.0165
12120SOL    HW242453   1.378   9.843  10.048 -0.9252 -0.1584  0.9624
12121SOL     OW42454   7.107   2.115   5.624  0.1981  0.3762  0.2664
12121SOL    HW142455   7.041   2.059   5.584 -0.9859  3.0444 -1.8235
12121SOL    HW242456   7.122   2.077   5.711 -1.9570 -1.9488 -0.2813
12122SOL     OW42457   6.816  10.271   5.517 -0.0647 -0.0912 -0.8692
12122SOL    HW142458   6.899  10.288   5.473 -0.1761 -0.8151 -1.3665
12122SOL    HW242459   6.807  10.343   5.580  0.5020  0.4852 -1.4346
12123SOL     OW42460   5.741   7.749   7.606  0.5509  0.3194 -0.9494
12123SOL    HW142461   5.719   7.669   7.557  0.0457  0.1488 -0.4567
12123SOL    HW242462   5.720   7.728   7.697  1.3961  0.6663 -0.6632
12124SOL     OW42463   1.960   7.255   5.152  0.0155 -0.0428  0.3695
12124SOL    HW142464   1.896   7.306   5.201  1.6116  2.5018 -0.0125
12124SOL    HW242465   2.012   7.211   5.220  0.7203  1.5867  0.9480
12125SOL     OW42466   7.591   8.318   3.818  0.2878 -0.1636 -0.2657
12125SOL    HW142467   7.660   8.378   3.846 -1.9868  1.8749  1.5696
12125SOL    HW242468   7.592   8.322   3.723  0.4604  2.6486 -0.2229
12126SOL     OW42469   1.598   0.624  10.764  0.0346  0.3567  0.3900
12126SOL    HW142470   1.633   0.588  10.845  2.3231 -1.8003 -1.3974
12126SOL    HW242471   1.511   0.584  10.756  0.5068 -0.8510  0.9426
12127SOL     OW42472   1.618   2.351   7.172 -0.3026  0.1136 -0.1766
12127SOL    HW142473   1.525   2.360   7.194 -0.7346 -0.4981 -1.6204
12127SOL    HW242474   1.630   2.257   7.157  0.9512 -0.0537  1.5631
12128SOL     OW42475   0.254   1.911   0.393 -0.3472 -0.8238 -0.2496
12128SOL    HW142476   0.306   1.969   0.448 -1.2878 -0.6686  0.4966
12128SOL    HW242477   0.172   1.958   0.378 -1.6616 -2.4194  1.4276
12129SOL     OW42478   4.225   3.395   5.275 -0.0092  0.5835  0.5921
12129SOL    HW142479   4.152   3.367   5.330  0.1982 -0.5831  0.2979
12129SOL    HW242480   4.289   3.324   5.282  0.7939  1.2582  0.2767
12130SOL     OW42481   4.387   3.372   0.413  0.0827 -0.1304 -0.6126
12130SOL    HW142482   4.337   3.453   0.408  1.6601  0.8158 -2.2416
12130SOL    HW242483   4.325   3.303   0.389 -1.0888  0.6465  0.1075
12131SOL     OW42484   0.806   4.178   3.905  0.6414  0.3429  0.1843
12131SOL    HW142485   0.795   4.131   3.987 -0.4487  2.8089  1.5657
12131SOL    HW242486   0.741   4.248   3.908  0.5178  0.5178 -2.8370
12132SOL     OW42487   0.066   8.612   8.038 -0.9636  0.3435  0.4762
12132SOL    HW142488   0.104   8.646   7.956 -0.7691  0.7143  0.7161
12132SOL    HW242489   0.142   8.597   8.094 -0.8623 -2.1905 -0.2222
12133SOL     OW42490   5.907   2.015   2.867 -1.0088  0.3626 -0.2822
12133SOL    HW142491   5.909   2.003   2.962 -2.0567  0.6824 -0.2164
12133SOL    HW242492   5.926   1.928   2.832 -3.0382 -0.3210  0.2219
12134SOL     OW42493   7.963   0.257   4.947  0.0913 -0.4327 -0.0196
12134SOL    HW142494   7.953   0.241   4.853 -0.6418 -1.2659  0.1897
12134SOL    HW242495   8.041   0.313   4.953  0.3080 -0.5909 -1.0966
12135SOL     OW42496   3.385   4.655   8.183 -0.2113 -0.0261 -0.3454
12135SOL    HW142497   3.459   4.599   8.157 -1.2663 -0.8853 -1.6593
12135SOL    HW242498   3.357   4.696   8.101  0.7115  2.7295  0.6256
12136SOL     OW42499   8.469   7.632   3.994  0.3244 -0.5973  0.1313
12136SOL    HW142500   8.479   7.574   3.919  0.0513 -2.2391  1.2999
12136SOL    HW242501   8.383   7.609   4.030  1.0395 -0.8693  1.7444
12137SOL     OW42502   8.719   1.057   6.841 -0.3911  0.0517 -0.7302
12137SOL    HW142503   8.667   1.135   6.820 -0.2367 -0.3733 -2.9136
12137SOL    HW242504   8.658   0.999   6.886 -0.9387  0.8118 -0.4676
12138SOL     OW42505   5.325   5.053   3.329  0.5035  0.0141 -0.2210
12138SOL    HW142506   5.250   5.110   3.313 -0.9027 -0.6734  3.0933
12138SOL    HW242507   5.401   5.111   3.322 -0.5059  1.2804 -1.2629
12139SOL     OW42508   3.228   4.884   9.623 -0.6544  0.2138  0.7441
12139SOL    HW142509   3.196   4.825   9.691  0.7107 -0.2880  0.9937
12139SOL    HW242510   3.186   4.968   9.641 -1.0195 -0.1543  1.6444
12140SOL     OW42511   6.231   0.578   2.669  0.5907  0.0944  0.0219
12140SOL    HW142512   6.294   0.606   2.736  1.4150 -1.4850 -0.0490
12140SOL    HW242513   6.158   0.541   2.718  1.3384 -1.3672  0.1101
12141SOL     OW42514   8.217   0.352   5.012  0.1963 -0.6038 -0.0431
12141SOL    HW142515   8.184   0.420   5.071 -0.9322 -0.4466 -0.8294
12141SOL    HW242516   8.288   0.311   5.061  1.9086  2.0686 -0.0636
12142SOL     OW42517   9.622   9.918  10.910  0.5251 -0.0585 -0.0129
12142SOL    HW142518   9.613   9.824  10.928  1.2626 -0.2275 -0.5124
12142SOL    HW242519   9.701   9.925  10.858 -0.4873  0.6405 -1.5210
12143SOL     OW42520   7.880  10.163   0.258 -0.1376 -0.4590  0.7566
12143SOL    HW142521   7.934  10.190   0.332 -0.5793 -0.7502  1.1869
12143SOL    HW242522   7.794  10.148   0.295 -0.9482  1.5098 -0.1677
12144SOL     OW42523   5.443   8.235   4.114  0.3878 -0.4631  0.2699
12144SOL    HW142524   5.451   8.195   4.028  1.7313 -1.7261  0.9326
12144SOL    HW242525   5.359   8.203   4.148  0.5754 -1.2318  0.0344
12145SOL     OW42526   6.300   0.541   4.653  0.0029 -0.0794  0.2804
12145SOL    HW142527   6.342   0.583   4.728  0.6558  0.4452 -0.3826
12145SOL    HW242528   6.264   0.460   4.690 -0.2548  0.4794  1.3052
12146SOL     OW42529   5.937   4.444   1.502 -0.0233  0.1082  0.1960
12146SOL    HW142530   5.950   4.421   1.594  0.4957  0.9411  0.3393
12146SOL    HW242531   5.933   4.360   1.457 -0.0258 -0.3025  0.9499
12147SOL     OW42532   7.794   0.906   0.479  0.0781  0.2037  0.0028
12147SOL    HW142533   7.841   0.974   0.526 -1.0634  0.4177  0.8796
12147SOL    HW242534   7.786   0.939   0.390  1.3585  0.2580 -0.1120
12148SOL     OW42535   3.498   1.070   2.011 -0.0742  0.1494  0.1081
12148SOL    HW142536   3.504   0.987   2.057  0.3779 -0.8922 -1.7435
12148SOL    HW242537   3.438   1.054   1.939 -1.0006  1.8199  0.4409
12149SOL     OW42538   7.844   0.082   2.157 -0.2197 -0.6578  0.0625
12149SOL    HW142539   7.761   0.119   2.185 -1.2653 -0.0211 -3.4358
12149SOL    HW242540   7.851  -0.000   2.206 -1.2254  0.7568  2.8257
12150SOL     OW42541   8.885   7.979   1.329 -0.7472  0.3804  0.6104
12150SOL    HW142542   8.917   7.913   1.390 -2.0901  0.1776  1.1334
12150SOL    HW242543   8.795   7.995   1.357 -1.0433  1.0582 -0.6729
12151SOL     OW42544   4.423   3.818   9.695  0.3689  0.2151  0.3644
12151SOL    HW142545   4.349   3.856   9.648 -1.0923  0.0054  2.3412
12151SOL    HW242546   4.413   3.724   9.685 -1.1612  0.0548  2.6374
12152SOL     OW42547   8.590   0.713   6.045  0.2932 -0.2824  0.4127
12152SOL    HW142548   8.677   0.700   6.081  0.4774 -0.1983  0.0100
12152SOL    HW242549   8.577   0.808   6.048  0.7443 -0.1585 -0.6956
12153SOL     OW42550   9.266   9.321   8.393  0.1914  0.1598 -0.0563
12153SOL    HW142551   9.185   9.287   8.355 -0.1893  0.2535  0.6542
12153SOL    HW242552   9.269   9.284   8.481 -0.3393  2.0345  0.8194
12154SOL     OW42553  10.672   1.892   9.672 -0.3701  0.3032  0.3268
12154SOL    HW142554  10.656   1.935   9.756 -0.8483  2.7958 -0.9521
12154SOL    HW242555  10.742   1.944   9.632  0.1219 -1.0820 -0.6880
12155SOL     OW42556   7.067   7.212   7.514 -0.3481  0.4011 -0.6352
12155SOL    HW142557   7.097   7.219   7.423 -0.9018  1.1617 -0.7687
12155SOL    HW242558   7.063   7.118   7.530 -1.0896  0.2284 -1.6895
12156SOL     OW42559   6.198   5.649   6.441  0.1850 -0.3931 -0.2654
12156SOL    HW142560   6.219   5.558   6.418  1.5680 -0.1526 -0.0148
12156SOL    HW242561   6.144   5.641   6.520 -0.9298 -1.0336 -1.0518
12157SOL     OW42562   4.945   7.171   8.129 -0.2564 -0.3104  0.4251
12157SOL    HW142563   5.011   7.119   8.173 -2.1054 -2.1568  1.1823
12157SOL    HW242564   4.929   7.245   8.188  1.1998  0.2629  0.1392
12158SOL     OW42565   6.746   6.364   1.731 -0.2565  0.2288 -0.1484
12158SOL    HW142566   6.760   6.350   1.637 -2.5461  1.8960 -0.8473
12158SOL    HW242567   6.682   6.436   1.734  0.6022  0.9827  2.7283
12159SOL     OW42568   5.566   3.164   8.926 -0.7825  0.3038  0.0868
12159SOL    HW142569   5.617   3.109   8.987  2.3487  0.2841 -2.3232
12159SOL    HW242570   5.621   3.240   8.911 -2.2773  1.1430 -1.4199
12160SOL     OW42571   6.646   0.695   2.966 -0.5762  0.0006 -0.3296
12160SOL    HW142572   6.690   0.764   3.015 -1.0114  1.0338 -1.3222
12160SOL    HW242573   6.639   0.622   3.027  2.4603 -0.2380 -0.1262
12161SOL     OW42574   1.073   4.490  10.586 -0.2689  0.4237  0.6413
12161SOL    HW142575   1.099   4.577  10.614 -0.3393 -0.0645  2.3137
12161SOL    HW242576   1.013   4.459  10.654  0.9334 -1.5325  0.8954
12162SOL     OW42577   3.476   1.810   0.298 -0.2103 -0.3053  0.0819
12162SOL    HW142578   3.511   1.764   0.222  1.6167 -3.0023  2.3324
12162SOL    HW242579   3.538   1.881   0.314 -0.4405  0.0874 -0.7111
12163SOL     OW42580   0.552   6.225   5.968  0.0719  0.1178  0.0745
12163SOL    HW142581   0.516   6.252   6.053 -0.9471  0.0506 -0.3241
12163SOL    HW242582   0.613   6.155   5.989 -0.6285 -0.3213  0.7066
12164SOL     OW42583  10.404   1.352   0.194 -0.0611 -0.0481 -0.2753
12164SOL    HW142584  10.386   1.285   0.260 -0.6888 -1.9534 -2.2763
12164SOL    HW242585  10.494   1.379   0.212 -0.3449 -0.2268  1.5821
12165SOL     OW42586   5.101  10.834   2.669  0.5366 -0.0569 -0.2763
12165SOL    HW142587   5.008  10.840   2.649  0.3421 -0.6375  0.4016
12165SOL    HW242588   5.145  10.863   2.590 -0.2198 -0.1214 -0.7251
12166SOL     OW42589   1.703   0.823   5.205 -0.4753 -0.2124  0.3271
12166SOL    HW142590   1.647   0.801   5.279 -0.1461  0.0591  0.6649
12166SOL    HW242591   1.661   0.784   5.129 -1.1047 -0.0359  0.5833
12167SOL     OW42592   8.386   1.059   4.636 -0.2903 -0.0526 -0.3122
12167SOL    HW142593   8.346   1.144   4.618 -0.3866  0.5888  2.4782
12167SOL    HW242594   8.480   1.074   4.625 -0.3917 -0.0615 -1.3507
12168SOL     OW42595   5.349   7.169   4.876 -0.2186  0.0618  0.4461
12168SOL    HW142596   5.272   7.131   4.917  0.2742  0.5525  1.8906
12168SOL    HW242597   5.409   7.095   4.863 -0.2989 -0.0708  0.8244
12169SOL     OW42598   8.538   6.875   0.285  0.1227 -0.2017 -0.0325
12169SOL    HW142599   8.566   6.891   0.195  2.2955 -2.0840  0.2392
12169SOL    HW242600   8.444   6.856   0.277  0.6217 -2.3108 -2.2375
12170SOL     OW42601   9.438   5.669   7.161  0.0786 -0.0261 -0.0435
12170SOL    HW142602   9.524   5.685   7.124  0.1457 -0.6216 -0.1488
12170SOL    HW242603   9.422   5.745   7.217  1.8661 -1.1976  2.1878
12171SOL     OW42604   9.547   0.871   7.410  0.4849 -0.4542 -0.1576
12171SOL    HW142605   9.611   0.941   7.396  0.5911 -0.6155 -0.4916
12171SOL    HW242606   9.487   0.879   7.336  1.2872 -1.5781 -0.9553
12172SOL     OW42607  10.565   3.854   6.755 -0.1128  0.0609 -0.0746
12172SOL    HW142608  10.655   3.883   6.770 -0.0899  0.9108 -1.6323
12172SOL    HW242609  10.534   3.906   6.681 -2.2464  0.4962  1.0303
12173SOL     OW42610   1.237   4.052   7.641  0.2560 -0.1037 -0.4780
12173SOL    HW142611   1.219   3.964   7.609 -1.3792 -1.0228  2.6317
12173SOL    HW242612   1.225   4.108   7.564 -0.7526 -2.3655 -2.0677
12174SOL     OW42613   6.341   3.115   4.354 -0.6228 -0.4937  0.2402
12174SOL    HW142614   6.368   3.047   4.293 -0.9683 -1.4508  1.1188
12174SOL    HW242615   6.398   3.104   4.430 -1.4869 -0.6083  0.8909
12175SOL     OW42616   6.782   6.527   5.729  0.7306  0.1253 -0.2952
12175SOL    HW142617   6.722   6.598   5.705 -0.2999 -0.6917 -0.2251
12175SOL    HW242618   6.781   6.467   5.654  1.3624  0.0358 -0.2370
12176SOL     OW42619   6.681   9.959   9.655  0.2522  0.3505  0.4561
12176SOL    HW142620   6.690   9.885   9.715 -0.5202  1.0364  1.4596
12176SOL    HW242621   6.620  10.018   9.700  0.1942  1.1988 -0.7087
12177SOL     OW42622   6.891   4.207   7.159  0.3376  0.1472  0.2840
12177SOL    HW142623   6.910   4.145   7.089  1.6372  2.3730 -1.4691
12177SOL    HW242624   6.796   4.204   7.169  0.3119 -1.6443 -0.1287
12178SOL     OW42625   0.383   2.686   5.154 -0.2464  0.1684 -0.2460
12178SOL    HW142626   0.446   2.639   5.208  0.4021  0.1674 -0.9806
12178SOL    HW242627   0.299   2.642   5.169  0.3258 -1.1870 -0.8607
12179SOL     OW42628   0.329   8.816   4.456  0.1701  0.4095  0.0391
12179SOL    HW142629   0.264   8.768   4.507 -0.5595  0.6335 -0.6544
12179SOL    HW242630   0.348   8.894   4.508  1.9477 -0.9278  1.5604
12180SOL     OW42631   8.047  10.640   9.934  0.4906 -0.0874  0.2895
12180SOL    HW142632   8.074  10.732   9.934  0.6306 -0.0984  2.0816
12180SOL    HW242633   8.072  10.608   9.848  1.7794  1.1697  0.1598
12181SOL     OW42634   5.027   5.035   0.950 -0.3530 -0.4501 -0.5750
12181SOL    HW142635   5.017   4.963   0.888 -0.9770  0.8784 -2.0929
12181SOL    HW242636   4.946   5.085   0.942 -0.4521 -0.2240  1.3518
12182SOL     OW42637   6.929   2.231   9.234 -0.3392 -0.2820 -0.4993
12182SOL    HW142638   6.923   2.296   9.163  0.4925  0.6716  0.2753
12182SOL    HW242639   6.960   2.152   9.190 -0.5771  0.0634 -1.3259
12183SOL     OW42640   5.621   5.861   9.640  0.0088 -0.3054  0.2806
12183SOL    HW142641   5.706   5.877   9.599 -0.9508 -0.7531 -2.0387
12183SOL    HW242642   5.639   5.799   9.710  1.6425 -0.0634  0.1134
12184SOL     OW42643   1.438   3.999   8.781  0.1359 -0.1854 -0.2364
12184SOL    HW142644   1.349   4.030   8.761 -0.4458 -1.3102  0.5378
12184SOL    HW242645   1.434   3.904   8.772  0.8053 -0.4159  1.4838
12185SOL     OW42646   0.213   3.382   8.806 -0.6436 -0.1035 -0.2433
12185SOL    HW142647   0.308   3.384   8.817 -0.7776 -1.8894  1.8838
12185SOL    HW242648   0.193   3.291   8.783 -2.0706 -0.8292  3.2205
12186SOL     OW42649   6.390   1.559   7.413  0.0883 -0.3588 -0.0478
12186SOL    HW142650   6.359   1.500   7.482 -1.4705 -3.2952 -2.9749
12186SOL    HW242651   6.480   1.532   7.397 -0.3055 -1.3478 -0.7021
12187SOL     OW42652   0.747   1.954   3.571  0.0520 -0.8166 -0.0444
12187SOL    HW142653   0.777   1.910   3.492 -0.0399  0.8839 -1.0755
12187SOL    HW242654   0.748   1.886   3.639 -0.3236 -2.4121 -1.5919
12188SOL     OW42655   0.396  10.760  10.074  0.1442 -0.0924 -0.1514
12188SOL    HW142656   0.491  10.759  10.088  0.1274  0.0278 -0.0224
12188SOL    HW242657   0.385  10.754   9.979  0.3103  1.0723 -0.2647
12189SOL     OW42658   1.295   3.636   1.150 -0.1079 -0.3902  0.4761
12189SOL    HW142659   1.214   3.679   1.178  1.9800  4.3690  0.0848
12189SOL    HW242660   1.284   3.623   1.056 -0.4766  0.0417  0.4565
12190SOL     OW42661   0.086  10.870   9.764 -0.2059  0.0764 -0.1279
12190SOL    HW142662   0.096  10.928   9.689  1.2823  0.0883  0.0313
12190SOL    HW242663   0.001  10.892   9.801  0.9976  3.5852  1.0522
12191SOL     OW42664   9.567   0.445   2.796  0.3897 -0.4561  0.0589
12191SOL    HW142665   9.519   0.425   2.877 -0.7236 -0.6326 -0.6254
12191SOL    HW242666   9.555   0.367   2.742 -0.9991  0.5950 -1.2411
12192SOL     OW42667   1.531   4.188   0.901  0.7825 -0.4566 -0.4688
12192SOL    HW142668   1.559   4.251   0.834  0.5213  1.7608  1.3616
12192SOL    HW242669   1.436   4.184   0.893  0.7839 -0.4651 -0.4800
12193SOL     OW42670   4.870   2.068   2.473  0.6496 -0.4238  0.4266
12193SOL    HW142671   4.935   2.114   2.527  1.2844 -0.7304 -0.0688
12193SOL    HW242672   4.821   2.138   2.430 -0.5636 -0.1193  2.1492
12194SOL     OW42673   8.521   7.967   4.125  0.1311  0.4177 -0.2680
12194SOL    HW142674   8.457   7.973   4.054  0.1320  1.5673 -0.1944
12194SOL    HW242675   8.475   7.918   4.194 -0.5988  1.0322 -0.3011
12195SOL     OW42676   9.887  10.678   2.250  0.7110  0.7858  0.0426
12195SOL    HW142677   9.912  10.723   2.331 -0.8362  0.8022  0.5480
12195SOL    HW242678   9.820  10.616   2.277  0.4462  0.5220 -1.1822
12196SOL     OW42679   0.877   9.474   3.292 -0.3543  0.4245 -0.5267
12196SOL    HW142680   0.799   9.422   3.312  0.1543 -0.1205  0.0764
12196SOL    HW242681   0.873   9.488   3.198 -1.8509  1.4937 -0.3395
12197SOL     OW42682   2.429   8.081   8.402  0.5357  0.1566  0.3150
12197SOL    HW142683   2.427   7.994   8.440  1.4283  0.2352  0.5520
12197SOL    HW242684   2.518   8.092   8.369  1.6356  2.3148  3.5379
12198SOL     OW42685   5.595   5.104   3.367  0.1992 -0.2979 -0.4668
12198SOL    HW142686   5.613   5.011   3.357  2.7168  0.1332 -0.5259
12198SOL    HW242687   5.653   5.147   3.305 -0.2124  1.3655  0.2367
12199SOL     OW42688   0.844   6.240   8.682 -0.9319  0.3854 -0.1013
12199SOL    HW142689   0.786   6.226   8.608 -0.7538 -0.6069 -0.0649
12199SOL    HW242690   0.845   6.335   8.694 -1.4891  0.5063 -0.9384
12200SOL     OW42691   6.133   2.383   9.963 -0.4273 -0.7762  0.1615
12200SOL    HW142692   6.095   2.385  10.050 -0.5094  0.2520  0.1191
12200SOL    HW242693   6.227   2.369   9.977  0.3073  3.3344  0.7640
12201SOL     OW42694   6.317   3.908   7.107 -0.3970 -0.7309  0.0075
12201SOL    HW142695   6.254   3.838   7.090  0.2882 -0.4737 -4.9683
12201SOL    HW242696   6.289   3.980   7.050  1.8623  1.1362  1.0629
12202SOL     OW42697   7.128   8.009   7.074  0.3774 -0.4807  0.1123
12202SOL    HW142698   7.104   8.101   7.083  1.4880 -0.2005  0.4355
12202SOL    HW242699   7.121   7.975   7.163  1.3359 -0.3327  0.2607
12203SOL     OW42700   8.533   8.040   1.717  0.1103  0.1121 -0.2960
12203SOL    HW142701   8.448   8.021   1.677  1.3483 -2.4800 -1.8783
12203SOL    HW242702   8.521   8.126   1.757 -2.8557  0.4098 -1.5705
12204SOL     OW42703   7.547   1.703   8.872  0.3502 -0.3172 -0.1472
12204SOL    HW142704   7.606   1.760   8.921  0.8461 -0.2538 -0.8031
12204SOL    HW242705   7.545   1.740   8.784  0.7023 -1.3155 -0.5948
12205SOL     OW42706   7.642   4.808   9.455  0.5804  0.2789  0.2181
12205SOL    HW142707   7.638   4.882   9.516 -2.0486  0.0161  0.4837
12205SOL    HW242708   7.638   4.730   9.511  2.4551 -0.1033 -0.1125
12206SOL     OW42709   2.442  10.151   8.689  0.0941 -0.1492  0.1184
12206SOL    HW142710   2.350  10.176   8.692  0.4727  1.2993  2.9662
12206SOL    HW242711   2.475  10.190   8.609 -1.1403  1.8803  0.5328
12207SOL     OW42712   9.729  10.506   3.951  0.0499  0.0926 -0.4315
12207SOL    HW142713   9.695  10.595   3.964 -1.6573 -0.4486 -0.9576
12207SOL    HW242714   9.739  10.497   3.857 -0.7449 -0.5877 -0.4635
12208SOL     OW42715   3.852   1.855   6.552  0.7913 -0.4516 -0.0272
12208SOL    HW142716   3.908   1.915   6.503 -1.8369  0.3254 -2.3332
12208SOL    HW242717   3.837   1.899   6.635  0.0048  1.5388 -1.1578
12209SOL     OW42718   9.763   2.529   3.099  0.0372  0.0925 -0.8888
12209SOL    HW142719   9.801   2.575   3.174  1.3399 -1.8750 -0.2828
12209SOL    HW242720   9.676   2.503   3.130  0.6670 -0.9419  0.0795
12210SOL     OW42721   0.031   8.270   5.910 -0.4616  0.4384  0.4743
12210SOL    HW142722  -0.064   8.278   5.917 -0.5271  0.1948 -0.0809
12210SOL    HW242723   0.055   8.328   5.838 -0.3960 -0.7434 -0.4914
12211SOL     OW42724   7.799   3.011   7.384 -0.2257  0.2564  0.1261
12211SOL    HW142725   7.725   3.045   7.333  1.4395  0.3867 -2.3857
12211SOL    HW242726   7.847   3.090   7.411 -1.1711  0.2019  2.2007
12212SOL     OW42727   0.318   2.217   5.161 -0.3881  0.0536  0.4311
12212SOL    HW142728   0.269   2.208   5.243  0.2203 -0.1493  0.7871
12212SOL    HW242729   0.364   2.301   5.170 -0.3290  0.0360  0.2904
12213SOL     OW42730   8.659   5.964   8.672 -0.0222 -0.6620 -0.0987
12213SOL    HW142731   8.608   5.892   8.635 -2.4026 -0.5442  2.6461
12213SOL    HW242732   8.626   6.042   8.626  1.4871 -1.0335 -1.9801
12214SOL     OW42733   8.537   7.425   1.360  0.0564 -0.2668  0.3766
12214SOL    HW142734   8.564   7.429   1.452 -1.1595 -0.5303  0.7737
12214SOL    HW242735   8.448   7.389   1.363 -0.3090  0.4634 -0.8472
12215SOL     OW42736   7.161  10.608   8.846 -0.2005 -0.5563 -0.0165
12215SOL    HW142737   7.227  10.672   8.875 -0.8508  0.1583 -0.0798
12215SOL    HW242738   7.157  10.620   8.751  0.0750 -1.0907 -0.0990
12216SOL     OW42739   7.094   6.199   7.887 -0.2554 -0.2881 -0.3454
12216SOL    HW142740   7.062   6.131   7.945  0.6543 -0.3677  0.0732
12216SOL    HW242741   7.028   6.204   7.817 -0.1378 -1.8634 -0.5922
12217SOL     OW42742   5.321   3.386   9.270 -0.6601 -0.8307 -0.1679
12217SOL    HW142743   5.227   3.405   9.273 -0.7351 -1.1719 -0.2876
12217SOL    HW242744   5.331   3.325   9.197  0.1269  1.7595 -2.3386
12218SOL     OW42745   8.546   5.947   4.320 -0.4513 -0.3763  0.0269
12218SOL    HW142746   8.503   6.028   4.350 -1.1270 -1.2811  1.6631
12218SOL    HW242747   8.474   5.887   4.303 -0.0825  0.0129 -3.4657
12219SOL     OW42748   3.822   3.057   6.927 -0.1563  0.2797 -0.4821
12219SOL    HW142749   3.757   3.072   6.858 -1.1712  0.8675  0.5660
12219SOL    HW242750   3.896   3.018   6.882 -1.2213 -0.3863 -1.7227
12220SOL     OW42751   2.278   3.127   3.397 -0.1416  0.1344  0.3087
12220SOL    HW142752   2.184   3.110   3.401 -0.4223  1.7171  1.2389
12220SOL    HW242753   2.289   3.181   3.318 -0.1860  0.7720  0.7252
12221SOL     OW42754   5.425  10.261   0.559 -0.3560  0.3281 -0.3613
12221SOL    HW142755   5.385  10.238   0.476 -0.0690  1.0604 -0.7097
12221SOL    HW242756   5.420  10.356   0.562  1.1554  0.4203 -0.3155
12222SOL     OW42757   7.859   7.420   5.881 -0.3692  0.1621 -0.0900
12222SOL    HW142758   7.804   7.479   5.829 -1.2446 -0.1181  0.4990
12222SOL    HW242759   7.819   7.420   5.968 -2.8098 -4.1984 -0.9115
12223SOL     OW42760   4.343   0.468   1.385  0.6564  0.2577  0.1997
12223SOL    HW142761   4.428   0.430   1.405  1.5062  1.1891 -1.3543
12223SOL    HW242762   4.324   0.526   1.459  3.0483  2.6244 -0.8524
12224SOL     OW42763   1.922   4.219   6.909  0.1670  0.2337 -0.5346
12224SOL    HW142764   1.980   4.150   6.875  1.8155  1.6803 -0.8231
12224SOL    HW242765   1.972   4.259   6.980 -1.0321  0.7342  0.0524
12225SOL     OW42766   5.199   4.156   1.998  0.0317 -0.3756 -0.5853
12225SOL    HW142767   5.205   4.218   2.071  0.6545  2.5182 -2.8809
12225SOL    HW242768   5.110   4.168   1.964 -0.1634 -1.4925 -0.5060
12226SOL     OW42769   3.473   9.779   7.720  0.3028  0.0503  0.3626
12226SOL    HW142770   3.484   9.753   7.629 -1.0650 -1.9146  0.6705
12226SOL    HW242771   3.560   9.772   7.759  0.9622  1.2455 -0.8357
12227SOL     OW42772   5.317   5.823  10.542  0.1734 -0.8136  0.1879
12227SOL    HW142773   5.344   5.903  10.587  2.2435 -0.9099 -0.7603
12227SOL    HW242774   5.373   5.754  10.579  1.2705 -1.0591 -1.7582
12228SOL     OW42775   8.199   2.750   3.255 -0.1071 -0.3041 -0.2127
12228SOL    HW142776   8.197   2.842   3.229  2.1674 -0.2210 -0.2729
12228SOL    HW242777   8.161   2.749   3.343  1.9931  1.1203  0.7916
12229SOL     OW42778   2.923   5.898   4.055 -0.0688 -0.4293  0.0131
12229SOL    HW142779   3.017   5.900   4.041 -0.1738 -1.6076 -1.1194
12229SOL    HW242780   2.890   5.837   3.988 -1.4773 -1.0202  1.1800
12230SOL     OW42781   5.332   4.494   4.453  0.4336 -0.1550  0.3317
12230SOL    HW142782   5.269   4.451   4.510  0.5339  1.1281  1.4433
12230SOL    HW242783   5.279   4.556   4.402  0.9378  2.3725  2.6546
12231SOL     OW42784   7.687   0.232   9.145 -0.4641 -0.0942  0.0188
12231SOL    HW142785   7.716   0.227   9.236 -1.0341  1.7519  0.3461
12231SOL    HW242786   7.599   0.192   9.146  0.0018 -1.1500  0.0171
12232SOL     OW42787   0.923   9.296   6.278  0.2280 -0.2257 -0.0193
12232SOL    HW142788   0.881   9.382   6.276 -2.0816 -1.2838 -1.4060
12232SOL    HW242789   0.910   9.265   6.367  0.3381  0.5265  0.2630
12233SOL     OW42790   9.617   8.505   8.455 -0.2575  0.0501  0.4984
12233SOL    HW142791   9.696   8.513   8.401 -0.3341 -1.9510 -0.0173
12233SOL    HW242792   9.549   8.549   8.405 -0.5655 -2.6330 -1.6957
12234SOL     OW42793   2.679   1.125   0.124 -0.4356  0.2210  0.4116
12234SOL    HW142794   2.674   1.090   0.213  0.5552 -2.0803 -0.3643
12234SOL    HW242795   2.597   1.173   0.113 -0.3150  1.0915  2.7419
12235SOL     OW42796   9.754  10.526   8.084 -0.0004  0.7189 -0.3629
12235SOL    HW142797   9.742  10.550   8.176 -0.4303 -0.8286  0.0157
12235SOL    HW242798   9.849  10.525   8.071  0.0875  0.1882  0.2898
12236SOL     OW42799  10.792   9.454   8.283  0.1860  0.6659 -0.1097
12236SOL    HW142800  10.852   9.466   8.357  0.4752  2.0461 -0.5292
12236SOL    HW242801  10.820   9.371   8.244  1.6425  1.1141 -0.1038
12237SOL     OW42802   6.649   6.600   6.017 -0.4173 -0.1596 -0.1668
12237SOL    HW142803   6.711   6.529   6.004  0.1478  0.2408  0.2917
12237SOL    HW242804   6.653   6.650   5.935  0.7551  0.5316  0.2814
12238SOL     OW42805   2.918   9.348   8.916  0.5380  0.0465 -0.2322
12238SOL    HW142806   2.856   9.421   8.916  0.2672 -0.1172 -2.4671
12238SOL    HW242807   2.875   9.280   8.967  0.3906  1.0920  1.0969
12239SOL     OW42808   5.024   5.656   1.290  0.8180 -0.5673 -0.2029
12239SOL    HW142809   5.062   5.728   1.239  0.1841  0.2343  0.4124
12239SOL    HW242810   4.932   5.681   1.301  0.2730 -2.0972 -1.0221
12240SOL     OW42811   1.550   3.989   7.093  0.2942  0.4643  0.0966
12240SOL    HW142812   1.508   4.074   7.076 -1.2072 -0.4860 -1.2609
12240SOL    HW242813   1.610   3.977   7.019  0.1385  0.1402  0.0215
12241SOL     OW42814   3.707   0.462   1.974  0.0487 -0.3499  0.4615
12241SOL    HW142815   3.720   0.470   2.069  3.4432 -1.2116  0.2171
12241SOL    HW242816   3.670   0.374   1.963  1.5659 -1.0913  0.9439
12242SOL     OW42817   9.207   8.458   9.370 -0.2081  0.0515 -0.2783
12242SOL    HW142818   9.236   8.541   9.407 -0.9074  0.1551  0.0642
12242SOL    HW242819   9.284   8.423   9.325  0.4815  0.2470  0.7071
12243SOL     OW42820   7.137   4.241   1.718  0.2339 -0.2590 -0.1584
12243SOL    HW142821   7.183   4.266   1.798 -0.3057  1.4957 -0.3717
12243SOL    HW242822   7.139   4.145   1.719  1.5769 -0.2539  1.1602
12244SOL     OW42823   4.019   6.801   4.742 -0.9892  0.2079  0.1130
12244SOL    HW142824   4.071   6.723   4.764 -2.7415 -0.4339  2.3907
12244SOL    HW242825   4.075   6.874   4.765 -0.0559 -0.4028 -0.1600
12245SOL     OW42826   8.942   0.622   1.235 -0.2382 -0.5166 -0.0671
12245SOL    HW142827   8.951   0.546   1.177  0.2055 -0.0976 -0.5540
12245SOL    HW242828   9.004   0.605   1.306 -0.5273 -0.8620  0.1055
12246SOL     OW42829   7.318   6.088   6.561  0.7157  0.3078 -0.4671
12246SOL    HW142830   7.282   6.079   6.649  0.1299 -0.0842 -0.7397
12246SOL    HW242831   7.267   6.026   6.508  1.7300 -0.1993 -0.8781
12247SOL     OW42832   2.906   2.217   8.151  0.2566 -0.4220  0.4738
12247SOL    HW142833   2.948   2.174   8.076  0.0173  0.1291  0.0079
12247SOL    HW242834   2.838   2.272   8.111 -0.4172 -0.7395  1.1642
12248SOL     OW42835   3.637   0.542   0.979 -0.2773 -0.2843  0.5186
12248SOL    HW142836   3.655   0.599   1.054  1.0994 -0.3822  0.2821
12248SOL    HW242837   3.622   0.603   0.907  1.2470 -0.1778  0.2537
12249SOL     OW42838   1.251   5.202   9.324  0.2213 -0.0685 -0.5376
12249SOL    HW142839   1.253   5.130   9.261 -0.5512  0.5503 -1.2902
12249SOL    HW242840   1.273   5.280   9.273  2.7624  0.0509  0.6036
12250SOL     OW42841   9.761   6.900   6.503  0.0070  0.3881  0.1503
12250SOL    HW142842   9.789   6.888   6.413 -1.0678  1.7780 -0.4114
12250SOL    HW242843   9.832   6.949   6.544  0.6956 -0.6246  0.2043
12251SOL     OW42844   9.646   0.792   9.168  0.1477  0.3845  0.1209
12251SOL    HW142845   9.677   0.866   9.220  0.9469 -0.0246  0.2422
12251SOL    HW242846   9.725   0.743   9.146 -0.3366 -0.2629 -0.2259
12252SOL     OW42847   2.414   4.565   9.300  0.0365 -0.1248  0.2560
12252SOL    HW142848   2.395   4.645   9.251  0.9548 -0.1873 -0.2238
12252SOL    HW242849   2.503   4.578   9.333 -0.0066 -0.7312  0.6241
12253SOL     OW42850   3.053   3.433   0.016  0.4521 -0.4061  0.2789
12253SOL    HW142851   2.965   3.462   0.042  0.6963  1.5972 -0.9270
12253SOL    HW242852   3.106   3.444   0.095  0.0678  0.5024  0.4283
12254SOL     OW42853   9.312   5.468  10.657 -0.2774 -0.0948 -0.5162
12254SOL    HW142854   9.383   5.495  10.715  0.2193  0.1930 -1.2522
12254SOL    HW242855   9.330   5.511  10.574 -1.8016  0.7155 -0.4714
12255SOL     OW42856  10.082   6.889   8.180  0.2255 -0.1328  0.8008
12255SOL    HW142857  10.051   6.938   8.257 -0.7142 -0.0958  0.4101
12255SOL    HW242858  10.017   6.907   8.112  0.5498 -0.9095  0.2682
12256SOL     OW42859   7.992   7.984   3.308  0.0832  0.0286 -0.3675
12256SOL    HW142860   8.065   7.969   3.247 -0.2937  1.6556 -1.3004
12256SOL    HW242861   7.917   7.941   3.267  0.4016 -1.2184  0.3408
12257SOL     OW42862   2.463   0.119   5.692  0.0171 -0.5636 -0.1661
12257SOL    HW142863   2.484   0.202   5.735  0.5452 -0.5317 -0.4832
12257SOL    HW242864   2.374   0.099   5.722  0.2740 -0.4048  0.7243
12258SOL     OW42865   2.226   8.557   0.639 -0.2898 -0.0848 -0.6568
12258SOL    HW142866   2.226   8.469   0.599  0.5377 -0.4087  0.0223
12258SOL    HW242867   2.138   8.567   0.675 -0.0548 -1.1286  0.2735
12259SOL     OW42868   2.224   5.939   6.195  0.1231  0.1868 -0.8373
12259SOL    HW142869   2.215   5.954   6.289  1.0500 -2.9993 -0.1257
12259SOL    HW242870   2.142   5.972   6.157 -0.9657  0.0815  1.2833
12260SOL     OW42871   7.834   3.257   1.848 -0.8800 -0.3597 -0.4161
12260SOL    HW142872   7.882   3.232   1.769 -1.3735  0.3625 -0.9594
12260SOL    HW242873   7.746   3.279   1.817 -2.0380 -2.9752  0.7199
12261SOL     OW42874   4.648   6.655   1.617  0.2119  0.1485  0.2362
12261SOL    HW142875   4.608   6.578   1.577  0.6262 -0.3556  0.7677
12261SOL    HW242876   4.728   6.670   1.566  0.8952 -0.6735  1.0244
12262SOL     OW42877   1.317   3.543   0.482  0.1130 -0.5953 -0.0343
12262SOL    HW142878   1.236   3.493   0.496 -1.7109  2.2553  0.2952
12262SOL    HW242879   1.364   3.535   0.565 -0.5897 -0.9350  0.3407
12263SOL     OW42880   3.889   3.477   3.051  0.0659  0.5697 -0.6283
12263SOL    HW142881   3.856   3.461   2.962  0.7698 -1.9917 -0.5150
12263SOL    HW242882   3.908   3.389   3.086  0.7062  1.5548  1.7187
12264SOL     OW42883   1.982   7.840   7.906  0.3146  0.0348  0.0650
12264SOL    HW142884   1.930   7.837   7.826  1.9111 -2.1737 -0.9871
12264SOL    HW242885   1.946   7.772   7.962 -0.7297  1.5022  1.2753
12265SOL     OW42886   2.653   1.768   3.381  0.0660  0.4024 -0.3703
12265SOL    HW142887   2.696   1.836   3.330 -0.6001 -0.2757 -1.8917
12265SOL    HW242888   2.597   1.722   3.318  0.1491 -1.2585  0.7029
12266SOL     OW42889   2.034   0.192   0.922 -0.1274 -0.3433  0.0507
12266SOL    HW142890   2.083   0.266   0.884 -1.9278  2.3583  2.5591
12266SOL    HW242891   1.957   0.184   0.865 -0.8075  0.9871  0.7294
12267SOL     OW42892   8.781   0.828   0.011  0.1255 -0.3980  0.5719
12267SOL    HW142893   8.867   0.816   0.051 -0.0886 -1.4170  0.7536
12267SOL    HW242894   8.770   0.923   0.005  1.2671 -0.2621  0.5236
12268SOL     OW42895  10.153   7.531   8.707  0.1373 -0.6113 -0.5301
12268SOL    HW142896  10.152   7.555   8.799  2.4855 -0.4240 -0.4764
12268SOL    HW242897  10.070   7.485   8.692 -0.3865 -0.4417  1.5988
12269SOL     OW42898   3.721   3.252   5.243 -0.8359  0.1735  0.0846
12269SOL    HW142899   3.673   3.317   5.294 -0.0533 -0.3482  1.5288
12269SOL    HW242900   3.680   3.169   5.265 -0.9086  0.0059 -0.6542
12270SOL     OW42901   6.022   3.081   5.286 -0.1032 -0.2540  0.6569
12270SOL    HW142902   6.098   3.097   5.341  0.2420  0.5414 -0.0330
12270SOL    HW242903   5.996   3.168   5.254 -1.3559 -0.4942  0.9452
12271SOL     OW42904   8.178   8.812  10.618 -0.1198 -0.7619  0.0964
12271SOL    HW142905   8.190   8.853  10.704  0.4533 -1.4238  0.3422
12271SOL    HW242906   8.197   8.882  10.555  1.3314 -0.7577  0.5096
12272SOL     OW42907   1.071   1.143   5.495 -0.0602 -0.1412 -0.2487
12272SOL    HW142908   1.044   1.051   5.505  0.9778 -0.5210 -0.7997
12272SOL    HW242909   1.167   1.140   5.496 -0.0189  1.0515  0.6194
12273SOL     OW42910   3.580   9.613   3.813  0.1803 -0.0995  0.8207
12273SOL    HW142911   3.506   9.668   3.788  0.1881  0.5985  2.2353
12273SOL    HW242912   3.647   9.631   3.746 -0.9196 -0.7927 -0.5126
12274SOL     OW42913   3.521   1.025   3.259 -0.2275  0.2958 -0.0019
12274SOL    HW142914   3.470   0.975   3.322  1.2771 -1.1787  0.1198
12274SOL    HW242915   3.465   1.029   3.181 -1.6182  1.1193  1.0003
12275SOL     OW42916   2.476   7.456   9.021  0.0111 -0.3839 -0.2792
12275SOL    HW142917   2.421   7.486   9.094  0.7471  0.7343 -0.1541
12275SOL    HW242918   2.500   7.367   9.044 -0.0350 -0.1608  0.6868
12276SOL     OW42919  10.134   1.459   8.086  0.2359  0.6320 -0.2382
12276SOL    HW142920  10.104   1.491   8.171  0.7821 -2.2636  1.1590
12276SOL    HW242921  10.162   1.537   8.039  0.6193  2.2753  2.5292
12277SOL     OW42922   3.536   4.970   0.465  0.7479 -0.2904 -0.6750
12277SOL    HW142923   3.486   4.981   0.546 -0.6350  1.4882 -1.7093
12277SOL    HW242924   3.537   4.875   0.451  0.0743 -0.5569  0.8220
12278SOL     OW42925   8.047   1.261   7.987 -0.1274 -0.3200  0.4179
12278SOL    HW142926   8.101   1.327   7.943 -1.7765 -1.2437 -3.3896
12278SOL    HW242927   8.105   1.224   8.054  1.6092  3.2697  1.1281
12279SOL     OW42928   1.506   9.307   0.611  0.2599  0.6839 -0.2455
12279SOL    HW142929   1.429   9.321   0.667 -0.6811 -2.2022 -0.6766
12279SOL    HW242930   1.566   9.257   0.665  0.2926 -0.1831 -1.0717
12280SOL     OW42931  10.498   3.128   1.028  0.5195 -0.2369  0.0644
12280SOL    HW142932  10.572   3.084   0.985  0.5556  0.4424 -0.5855
12280SOL    HW242933  10.531   3.215   1.049 -0.4851  0.5346 -1.4026
12281SOL     OW42934   9.149   0.832   6.010 -0.2004  0.2393 -0.1293
12281SOL    HW142935   9.224   0.819   5.952 -0.9648 -1.3770 -0.8315
12281SOL    HW242936   9.169   0.913   6.057  1.0593  0.9041 -1.6941
12282SOL     OW42937   2.785  10.279   2.143 -0.0909 -0.3747  0.1639
12282SOL    HW142938   2.695  10.258   2.119 -0.4212 -0.6679  1.5590
12282SOL    HW242939   2.790  10.260   2.237  1.5070 -0.6197  0.0607
12283SOL     OW42940   7.518   6.825   3.952 -0.2875 -0.4003  0.3702
12283SOL    HW142941   7.470   6.750   3.988 -1.2911  0.4116  0.7970
12283SOL    HW242942   7.468   6.901   3.981  0.8082  0.4524  0.1024
12284SOL     OW42943   7.421   8.436   2.116  0.5816  0.4721  0.2434
12284SOL    HW142944   7.514   8.457   2.121  0.1097  3.2539 -0.9522
12284SOL    HW242945   7.394   8.427   2.207  2.0824 -0.9612  0.6011
12285SOL     OW42946   1.425   3.922   8.293  0.2022  0.7318  0.4698
12285SOL    HW142947   1.437   4.011   8.260 -2.0507  0.8349 -0.2082
12285SOL    HW242948   1.465   3.866   8.226  0.2286  1.1753  0.1098
12286SOL     OW42949   6.368   7.030   8.312  0.3774  0.1769  0.6262
12286SOL    HW142950   6.324   7.087   8.249 -0.6256  0.3514  1.4576
12286SOL    HW242951   6.372   6.945   8.269 -0.9687  0.1059  0.6041
12287SOL     OW42952   0.651   9.551   9.048  0.2121 -0.0060  0.3572
12287SOL    HW142953   0.588   9.606   9.095 -0.8126 -1.0907  0.3164
12287SOL    HW242954   0.610   9.465   9.046  1.8594 -0.8413  0.6083
12288SOL     OW42955   9.207   2.103  10.873  0.1958 -0.5430 -0.1987
12288SOL    HW142956   9.186   2.149  10.954 -2.9494 -0.8232 -0.7213
12288SOL    HW242957   9.291   2.139  10.846 -1.0142  3.3543  0.5706
12289SOL     OW42958   1.108   2.234   6.110 -0.3880  0.7311 -0.0409
12289SOL    HW142959   1.197   2.230   6.147 -0.3556 -1.1989 -0.2386
12289SOL    HW242960   1.073   2.146   6.122 -2.5631  1.6166  0.6244
12290SOL     OW42961   0.259   9.819   8.177 -0.3939  0.5579 -0.2824
12290SOL    HW142962   0.286   9.737   8.136 -2.8854 -0.1774 -0.6021
12290SOL    HW242963   0.335   9.846   8.230  0.2169 -2.3300  0.4600
12291SOL     OW42964   9.228   9.685   5.695 -0.1953  0.6353 -0.1885
12291SOL    HW142965   9.251   9.771   5.732 -0.2364 -0.2960  2.1865
12291SOL    HW242966   9.305   9.661   5.643  0.4759  1.4337  0.3952
12292SOL     OW42967   4.996   9.977   3.522  0.3111  0.0445  0.2342
12292SOL    HW142968   4.976  10.024   3.603  0.3056  0.7950 -0.1939
12292SOL    HW242969   5.050   9.903   3.550  0.9979  0.7492  0.8463
12293SOL     OW42970  10.308   4.430   7.783 -0.3903  0.1857  0.1218
12293SOL    HW142971  10.285   4.411   7.692  0.5825  1.3705 -0.4031
12293SOL    HW242972  10.399   4.401   7.791 -0.4262  0.2248  0.6734
12294SOL     OW42973   7.353   0.111   6.423 -0.2961  0.3236 -0.4557
12294SOL    HW142974   7.356   0.137   6.331 -1.0043 -0.0290 -0.5876
12294SOL    HW242975   7.292   0.172   6.464 -1.5298 -0.7117 -0.6526
12295SOL     OW42976   3.621  10.238   8.233  0.4457  0.4491 -0.5673
12295SOL    HW142977   3.611  10.325   8.272  0.2496  0.3249 -0.3350
12295SOL    HW242978   3.617  10.253   8.138  0.0777  0.6517 -0.5198
12296SOL     OW42979   2.345   8.554   1.828 -0.0086 -0.7674  0.1323
12296SOL    HW142980   2.366   8.590   1.915  0.5821 -0.4682 -0.1307
12296SOL    HW242981   2.340   8.459   1.842  1.2154 -0.8286  0.2784
12297SOL     OW42982  10.893   1.236   2.970 -0.0002 -0.0846  0.1735
12297SOL    HW142983  10.852   1.303   2.916  0.4713  0.1840  0.1527
12297SOL    HW242984  10.976   1.216   2.926  1.1759  1.3202  1.6744
12298SOL     OW42985   8.379   9.513   7.987 -0.4698 -0.1123  0.1129
12298SOL    HW142986   8.466   9.517   8.026  0.2229 -0.6798 -1.3115
12298SOL    HW242987   8.381   9.575   7.915 -1.5379  0.5016  0.5898
12299SOL     OW42988   6.746   0.908   8.703 -0.4677 -0.0410  0.7655
12299SOL    HW142989   6.763   0.929   8.612 -1.9445  1.7538  0.8530
12299SOL    HW242990   6.753   0.812   8.707  1.4533 -0.0406 -0.7853
12300SOL     OW42991   3.216   7.629   7.181  0.1169 -0.6774  0.7437
12300SOL    HW142992   3.267   7.617   7.261  1.1208 -0.6556  0.1255
12300SOL    HW242993   3.138   7.676   7.209  1.4013  1.1616  1.3948
12301SOL     OW42994   8.169   8.561   5.825 -0.8436 -0.3118  0.4485
12301SOL    HW142995   8.209   8.489   5.874 -1.2113 -1.3896 -0.8113
12301SOL    HW242996   8.164   8.632   5.889  0.7654 -0.9472  1.3465
12302SOL     OW42997   3.018   5.411   9.041 -0.5681 -0.2778 -0.7768
12302SOL    HW142998   3.111   5.388   9.041 -0.6211 -0.5521  0.0835
12302SOL    HW242999   2.973   5.327   9.045 -0.7915 -0.1265  1.0433
12303SOL     OW43000   5.101   5.179   2.404  0.1068  0.4678  0.0858
12303SOL    HW143001   5.033   5.244   2.422  0.8621  1.0279  1.0063
12303SOL    HW243002   5.091   5.114   2.474  1.7584  1.5902  1.4207
12304SOL     OW43003   4.970   7.488   9.121  0.2399 -0.1090  0.3608
12304SOL    HW143004   4.907   7.540   9.070  0.0781 -0.0939  0.5745
12304SOL    HW243005   4.991   7.544   9.196  0.4207 -0.1618  0.3498
12305SOL     OW43006   9.466   6.496   2.510  0.2972  0.4134 -0.5604
12305SOL    HW143007   9.371   6.500   2.522  0.5339  1.4045  1.5297
12305SOL    HW243008   9.482   6.410   2.472 -1.3052 -0.5670  0.8265
12306SOL     OW43009   4.238   5.036  10.073 -0.4256 -0.0684  0.4275
12306SOL    HW143010   4.258   5.119  10.116  2.0143  0.0556 -0.7669
12306SOL    HW243011   4.149   5.048  10.038 -0.2286  1.9404  0.5132
12307SOL     OW43012   3.099  10.781   5.169  0.5719  0.6078  0.3466
12307SOL    HW143013   3.159  10.754   5.100 -0.4507  0.2845 -0.4454
12307SOL    HW243014   3.142  10.855   5.211  2.0981 -0.4128  0.6507
12308SOL     OW43015   1.900   7.981   5.708  0.3199  0.7346  0.2968
12308SOL    HW143016   1.963   7.920   5.669  0.2260  1.3381 -0.8542
12308SOL    HW243017   1.845   7.927   5.764 -1.2319 -0.7121 -2.4233
12309SOL     OW43018   9.007  10.811   6.165 -0.0744  0.0632 -0.0260
12309SOL    HW143019   9.051  10.864   6.099 -0.7111 -0.1649 -0.6440
12309SOL    HW243020   8.916  10.807   6.136 -0.5973  0.8299  1.4227
12310SOL     OW43021   2.100   3.409   7.143  0.1429  0.1119 -0.2094
12310SOL    HW143022   2.069   3.319   7.132 -0.7323  0.4589 -0.7148
12310SOL    HW243023   2.174   3.417   7.082 -0.7806  0.1890 -1.3442
12311SOL     OW43024  10.404  10.518   7.765 -0.8828 -0.2295 -0.8569
12311SOL    HW143025  10.360  10.516   7.680  0.1563 -1.2715 -1.3984
12311SOL    HW243026  10.410  10.427   7.792 -0.1593 -0.0067 -0.2166
12312SOL     OW43027   8.072   4.102   5.761 -0.3879 -0.7433 -0.6442
12312SOL    HW143028   8.118   4.060   5.834 -0.3949 -1.2824 -0.9467
12312SOL    HW243029   7.990   4.134   5.799 -0.3188 -0.8777 -0.3800
12313SOL     OW43030   5.419   4.937   1.417  0.6915  0.1545 -0.4699
12313SOL    HW143031   5.421   4.877   1.492 -0.3846 -0.3377 -0.8162
12313SOL    HW243032   5.327   4.942   1.393  0.4783  3.2067  0.5117
12314SOL     OW43033   6.333   4.474  10.545 -0.8636 -0.1447 -0.4379
12314SOL    HW143034   6.401   4.516  10.492  0.7981 -1.0388  0.8618
12314SOL    HW243035   6.332   4.383  10.514 -0.1322 -0.5866  0.7570
12315SOL     OW43036  10.839   9.026   8.814  0.2839  0.1930 -0.8301
12315SOL    HW143037  10.888   9.012   8.733 -0.2888  1.7215 -1.4709
12315SOL    HW243038  10.834   8.939   8.854  0.5944 -0.5982 -2.4216
12316SOL     OW43039   3.474   9.292   3.727 -0.5885  0.0228  0.5025
12316SOL    HW143040   3.481   9.197   3.715 -0.5470  0.2707 -1.8548
12316SOL    HW243041   3.381   9.306   3.745 -0.9267 -0.3374 -0.8540
12317SOL     OW43042  10.308   3.321   7.329 -0.8525 -0.8551  0.0654
12317SOL    HW143043  10.389   3.309   7.379  0.2689  0.1846 -1.4127
12317SOL    HW243044  10.323   3.273   7.247 -0.3642  1.8834 -1.5927
12318SOL     OW43045   4.880   2.028   1.295  0.1301  0.1121  0.4640
12318SOL    HW143046   4.918   2.116   1.295  2.2493 -0.6595 -2.8476
12318SOL    HW243047   4.837   2.019   1.210 -1.4846 -1.5667  1.3580
12319SOL     OW43048   3.008   5.985   6.171 -0.2743  0.0382 -0.7562
12319SOL    HW143049   3.044   5.951   6.253  1.8972  0.2698 -1.5430
12319SOL    HW243050   2.956   5.913   6.135  0.2913 -0.7189 -0.0735
12320SOL     OW43051   3.803   6.044  10.484  0.2576  0.3252  0.3909
12320SOL    HW143052   3.830   5.954  10.464  0.4934  0.0897  1.6868
12320SOL    HW243053   3.742   6.066  10.414  1.4015 -0.2610 -0.8450
12321SOL     OW43054  10.668   9.922   4.276  0.3956 -0.6499  0.0243
12321SOL    HW143055  10.656  10.006   4.231 -1.6271 -0.8857  0.0192
12321SOL    HW243056  10.689   9.861   4.206  0.4088 -0.4219 -0.1736
12322SOL     OW43057   5.873   4.803   8.443  0.0904 -0.1441  0.0059
12322SOL    HW143058   5.954   4.763   8.477  0.5301  0.1602 -0.6631
12322SOL    HW243059   5.904   4.871   8.383 -0.6762 -0.2143 -0.4686
12323SOL     OW43060   8.814   0.016   1.980 -0.5340 -0.5761 -0.1893
12323SOL    HW143061   8.774   0.077   1.918 -0.4002  0.0696  0.3521
12323SOL    HW243062   8.839   0.070   2.055  0.8437 -1.0476 -0.2699
12324SOL     OW43063   0.868   0.658   9.041  0.0166  0.1382  0.3497
12324SOL    HW143064   0.915   0.577   9.018 -0.7887 -0.8981  2.1089
12324SOL    HW243065   0.810   0.673   8.967 -0.0065 -1.0706  0.0902
12325SOL     OW43066   0.923   8.386   6.351 -0.1259 -0.2635 -0.0612
12325SOL    HW143067   1.007   8.411   6.388 -0.9072  2.3794  0.1178
12325SOL    HW243068   0.938   8.384   6.256 -0.0446  1.1126 -0.0937
12326SOL     OW43069   9.263   7.693   5.231  0.5544  0.1570 -0.1759
12326SOL    HW143070   9.277   7.702   5.326  0.0291 -0.4830 -0.0298
12326SOL    HW243071   9.293   7.776   5.195 -0.6580  1.0200  0.7027
12327SOL     OW43072   4.402   0.591   5.389  0.2735 -0.0184 -0.4490
12327SOL    HW143073   4.311   0.617   5.403 -0.4603 -1.8970 -1.4945
12327SOL    HW243074   4.422   0.534   5.463 -0.0849 -1.2305 -1.2632
12328SOL     OW43075  10.197   6.065   9.691 -0.1458  0.4519 -0.4320
12328SOL    HW143076  10.257   6.055   9.765  0.9217  0.1702 -1.3184
12328SOL    HW243077  10.231   6.139   9.641 -0.6535  0.4160 -0.8424
12329SOL     OW43078  10.168   0.706   8.484  0.3064  0.2034  0.2238
12329SOL    HW143079  10.078   0.681   8.506 -0.4819  2.2094 -0.4608
12329SOL    HW243080  10.158   0.773   8.416  2.2349  1.6725  1.2974
12330SOL     OW43081   1.212  10.394   5.436  0.2558  0.3030  0.3810
12330SOL    HW143082   1.230  10.448   5.513  1.3059  0.7916 -0.1994
12330SOL    HW243083   1.149  10.329   5.468 -1.1346  1.9122  1.0612
12331SOL     OW43084   6.742  10.623   3.326 -0.2271  0.4057  0.2186
12331SOL    HW143085   6.785  10.579   3.399 -0.8295  1.3764  1.1982
12331SOL    HW243086   6.719  10.553   3.265  3.7719 -0.0793 -0.9837
12332SOL     OW43087   9.887   1.169   3.472 -0.3859 -0.2663  0.6777
12332SOL    HW143088   9.949   1.241   3.474  1.1185 -1.4545 -0.3878
12332SOL    HW243089   9.869   1.156   3.379  0.1662 -1.8588  0.7580
12333SOL     OW43090   6.420   7.836   1.834  0.0017 -0.5308 -0.5335
12333SOL    HW143091   6.356   7.845   1.905  0.3203  1.6713 -0.4565
12333SOL    HW243092   6.382   7.885   1.761  2.0460  1.9174 -0.0988
12334SOL     OW43093   6.882   1.636   2.500 -0.3981 -0.3703  0.2120
12334SOL    HW143094   6.794   1.646   2.464 -0.4043  1.7020  0.6435
12334SOL    HW243095   6.905   1.724   2.532  1.4542 -1.0689  0.9667
12335SOL     OW43096   3.858   7.886   8.466  0.2090  0.1752  0.3222
12335SOL    HW143097   3.945   7.858   8.495 -0.1481 -1.2038  0.1233
12335SOL    HW243098   3.810   7.904   8.547  0.1348 -0.8068  0.5098
12336SOL     OW43099   2.431   7.970   9.414  0.0008  0.2299  0.1626
12336SOL    HW143100   2.365   7.947   9.479  0.4830 -0.5221  0.3955
12336SOL    HW243101   2.513   7.973   9.462  0.7954 -2.8022 -0.7841
12337SOL     OW43102   9.633   1.715   9.013 -0.7870 -0.2980 -0.0642
12337SOL    HW143103   9.724   1.715   9.041 -1.0186 -0.4644  0.7227
12337SOL    HW243104   9.601   1.803   9.035 -0.7832 -0.2015 -0.4473
12338SOL     OW43105   6.989   5.979   8.792 -0.6322 -0.0162  0.7857
12338SOL    HW143106   6.984   5.904   8.850 -1.6053 -0.1449  0.5507
12338SOL    HW243107   6.925   6.041   8.826  1.0269  1.2730  1.7338
12339SOL     OW43108  10.536   5.113  10.802  0.3728  0.1272 -0.0353
12339SOL    HW143109  10.467   5.085  10.742  0.1819  0.2320  0.1359
12339SOL    HW243110  10.612   5.060  10.777 -0.2708 -1.3459  0.9765
12340SOL     OW43111   2.869   8.927   3.679  0.3855 -0.1909  0.2696
12340SOL    HW143112   2.901   9.008   3.718 -0.8363  0.8148 -0.7174
12340SOL    HW243113   2.946   8.871   3.672  1.3623  1.0929  0.4848
12341SOL     OW43114   9.789   5.310   8.314  0.2457  0.4318 -0.0355
12341SOL    HW143115   9.881   5.286   8.328  0.5104  1.9367  1.0308
12341SOL    HW243116   9.740   5.249   8.369  0.6568  0.1376  0.0096
12342SOL     OW43117   1.064  10.652   5.363  0.1088  0.0185 -0.4117
12342SOL    HW143118   1.082  10.626   5.453  2.1053  1.8678 -0.2115
12342SOL    HW243119   1.075  10.571   5.312  1.4060 -0.5473  0.7138
12343SOL     OW43120   8.895   4.369   6.266 -0.2113 -0.4624  0.0036
12343SOL    HW143121   8.890   4.463   6.281  1.2037 -0.2266 -0.8751
12343SOL    HW243122   8.846   4.331   6.339  1.2108  0.8552  1.7412
12344SOL     OW43123   6.745   5.865   7.123 -0.0172  0.4974 -0.7357
12344SOL    HW143124   6.748   5.801   7.194  0.0690  0.4801 -0.7542
12344SOL    HW243125   6.658   5.904   7.128  0.6518  1.9311  0.6649
12345SOL     OW43126   0.517   1.685  10.781  0.3840 -0.0538 -0.3172
12345SOL    HW143127   0.465   1.623  10.832  0.0562  0.5048  0.0428
12345SOL    HW243128   0.459   1.712  10.710 -0.5454  1.8960  1.0454
12346SOL     OW43129   5.027   2.439   2.591  0.8867 -0.1612  0.1246
12346SOL    HW143130   4.971   2.367   2.621  0.6563 -0.5754 -1.2407
12346SOL    HW243131   5.066   2.473   2.671  1.4257 -2.1508  0.7689
12347SOL     OW43132   3.550   2.773   8.952  0.3166 -0.0691  0.9470
12347SOL    HW143133   3.540   2.801   9.043  1.1609  0.0511  1.0066
12347SOL    HW243134   3.625   2.714   8.953  1.3958  1.2434  0.0548
12348SOL     OW43135   7.860   6.226   1.488  0.0121 -0.0866  0.3134
12348SOL    HW143136   7.913   6.282   1.431 -0.1947 -0.0156  0.1925
12348SOL    HW243137   7.787   6.282   1.515 -0.2065 -0.3076  0.1737
12349SOL     OW43138   7.672   7.497   4.877 -0.0673 -0.2827 -0.0364
12349SOL    HW143139   7.737   7.511   4.947  0.9432 -1.1118 -0.7846
12349SOL    HW243140   7.654   7.403   4.879 -1.1768 -0.0830  0.0715
12350SOL     OW43141   0.227   2.515   4.794 -0.1368  0.3092 -0.0230
12350SOL    HW143142   0.205   2.552   4.709 -1.4705  0.5782  0.4207
12350SOL    HW243143   0.251   2.591   4.847  0.1670  0.1970  0.0028
12351SOL     OW43144   3.214   5.415   7.517  0.3285 -0.1812  0.5324
12351SOL    HW143145   3.225   5.378   7.605  0.5643  1.4439  1.2347
12351SOL    HW243146   3.218   5.510   7.531 -2.7200  0.2684 -0.7944
12352SOL     OW43147  10.887   9.263   7.564 -0.0044 -0.3479 -0.5739
12352SOL    HW143148  10.980   9.261   7.543  0.0566 -0.3198 -0.3055
12352SOL    HW243149  10.843   9.242   7.481  0.2314 -0.1229 -0.7556
12353SOL     OW43150   5.167   8.619   9.580 -0.1065 -0.2261  0.1938
12353SOL    HW143151   5.198   8.700   9.622  0.8767 -0.6567  0.3328
12353SOL    HW243152   5.186   8.550   9.644  0.4058 -0.7532 -0.5079
12354SOL     OW43153   3.078   2.520   5.362 -0.5348  0.6635  0.4590
12354SOL    HW143154   3.151   2.539   5.303 -0.9379  0.2698 -0.1818
12354SOL    HW243155   3.064   2.601   5.411  0.1812  0.8108  0.4305
12355SOL     OW43156   3.680   5.594   9.328  0.2165  0.0603  0.2290
12355SOL    HW143157   3.608   5.535   9.304  1.6142 -0.5604 -2.9077
12355SOL    HW243158   3.744   5.538   9.372  0.3993 -0.1797 -0.3460
12356SOL     OW43159   1.157   8.679   7.456  0.5122 -0.0720  0.8109
12356SOL    HW143160   1.103   8.608   7.490  1.5656 -2.4665 -2.1172
12356SOL    HW243161   1.100   8.725   7.394  0.6950 -0.1563  0.5814
12357SOL     OW43162   3.314   4.670   1.396  0.3321  0.6075  0.4864
12357SOL    HW143163   3.300   4.638   1.307 -0.2210 -2.3550  1.5464
12357SOL    HW243164   3.296   4.764   1.390 -0.1794  0.4225 -2.4040
12358SOL     OW43165   2.602   3.448   2.980 -0.0303  0.4659 -0.2944
12358SOL    HW143166   2.512   3.470   3.005 -0.7286 -0.4331 -1.8947
12358SOL    HW243167   2.596   3.421   2.889  1.9754  0.9459 -0.6099
12359SOL     OW43168   6.995   5.577   9.513 -0.2884  0.2489 -0.5536
12359SOL    HW143169   7.005   5.620   9.428 -0.7018  0.8619 -0.3021
12359SOL    HW243170   7.073   5.602   9.562 -0.4517  0.5833 -0.4629
12360SOL     OW43171   2.581  10.625   4.850  0.3183  0.9711 -0.3861
12360SOL    HW143172   2.539  10.565   4.788  1.9253 -0.4074 -0.1976
12360SOL    HW243173   2.663  10.650   4.808  0.7084  1.2358  0.5072
12361SOL     OW43174  10.924   5.022   8.141  0.0751 -0.5691 -0.3039
12361SOL    HW143175  10.960   4.951   8.088 -0.1084 -0.7282 -0.2181
12361SOL    HW243176  10.990   5.090   8.138  0.6436 -1.0827  0.3328
12362SOL     OW43177  10.235   5.722   7.544 -0.3010  0.0103 -0.6666
12362SOL    HW143178  10.283   5.642   7.568  0.4262  0.6074 -0.1029
12362SOL    HW243179  10.167   5.729   7.611 -0.3829 -0.1532 -0.7321
12363SOL     OW43180   3.425   9.754   8.687 -0.0180  0.2937  0.2836
12363SOL    HW143181   3.349   9.765   8.629  2.5858  2.3606 -3.1520
12363SOL    HW243182   3.438   9.660   8.692 -1.5762 -0.0172 -0.8069
12364SOL     OW43183   7.274   5.020   0.243  0.1121  0.2490  0.0825
12364SOL    HW143184   7.292   5.114   0.254  0.3745  0.0678  1.3878
12364SOL    HW243185   7.206   5.002   0.308 -0.9972 -0.1788 -1.1529
12365SOL     OW43186   9.202   8.404   8.449  0.2462 -0.1706  0.3130
12365SOL    HW143187   9.134   8.358   8.499  1.1559 -0.2655  1.4954
12365SOL    HW243188   9.275   8.342   8.446  0.5597  0.2272 -0.2962
12366SOL     OW43189  10.527   6.775  10.863  0.4332  0.0963  0.1297
12366SOL    HW143190  10.579   6.699  10.838  0.8651  0.5390 -0.3390
12366SOL    HW243191  10.504   6.817  10.780  2.2108  1.7930  0.4414
12367SOL     OW43192   2.347   9.709   9.482 -0.5126  0.1026  0.2362
12367SOL    HW143193   2.299   9.786   9.511 -0.7990  0.0871 -0.1919
12367SOL    HW243194   2.353   9.653   9.559 -1.9198 -0.2775  0.0914
12368SOL     OW43195   8.111   0.867   2.178 -0.2811  0.1118  0.4619
12368SOL    HW143196   8.163   0.836   2.104 -0.4128  1.9743 -0.4751
12368SOL    HW243197   8.095   0.789   2.231 -0.5700 -1.3704 -1.6888
12369SOL     OW43198   1.475   6.568   7.351  0.3122 -0.2988  0.1980
12369SOL    HW143199   1.396   6.519   7.372  0.2395 -1.0330 -1.5933
12369SOL    HW243200   1.445   6.639   7.295  0.8963 -0.5561 -0.4585
12370SOL     OW43201   6.890   2.081  10.647 -0.3713 -0.1644 -0.2895
12370SOL    HW143202   6.849   2.006  10.690  0.0378 -0.5292 -0.5167
12370SOL    HW243203   6.886   2.152  10.711  1.0667 -0.9503  0.7403
12371SOL     OW43204   8.645   7.731   5.987 -0.5555  0.4927 -0.1327
12371SOL    HW143205   8.634   7.826   5.999 -1.5864  0.3896 -0.1628
12371SOL    HW243206   8.568   7.705   5.936  1.4674  0.2239 -3.3634
12372SOL     OW43207   3.051   1.585   0.990  0.3167 -0.1712 -0.6661
12372SOL    HW143208   3.126   1.622   0.943 -0.3728 -0.1132 -1.7561
12372SOL    HW243209   3.071   1.601   1.082  1.9687 -0.7998 -0.8856
12373SOL     OW43210   3.526   9.573  10.088  0.0498 -0.0795 -0.2465
12373SOL    HW143211   3.618   9.550  10.083  0.1151  0.0732  0.2730
12373SOL    HW243212   3.482   9.492  10.114  0.2917  0.3800  1.6884
12374SOL     OW43213   4.050   4.425   9.746 -0.3568  0.7324  0.2284
12374SOL    HW143214   4.004   4.477   9.812 -0.3300  0.2758  0.6075
12374SOL    HW243215   4.086   4.490   9.685 -1.9992  1.0793 -0.4278
12375SOL     OW43216   8.471   9.918   9.668  0.3489  0.2765  0.7793
12375SOL    HW143217   8.382   9.936   9.639  0.6096  1.8543  0.8483
12375SOL    HW243218   8.461   9.888   9.758 -0.1420 -0.1316  0.5962
12376SOL     OW43219   6.516   4.263   9.804  0.6088 -0.1285  0.2209
12376SOL    HW143220   6.520   4.212   9.722  0.0614  2.0823 -1.2581
12376SOL    HW243221   6.575   4.337   9.789  0.5651  0.2666  1.8855
12377SOL     OW43222   3.318   8.353   7.539  0.2537 -0.6466 -0.3214
12377SOL    HW143223   3.225   8.345   7.560  0.0500  1.2234 -0.3081
12377SOL    HW243224   3.364   8.315   7.614 -0.5081  1.3084  1.2174
12378SOL     OW43225   5.468   1.107  10.711  0.3476  0.3799 -0.2145
12378SOL    HW143226   5.409   1.124  10.784 -1.3160  0.3614 -1.5029
12378SOL    HW243227   5.542   1.166  10.725  0.0549  0.3839  1.4467
12379SOL     OW43228   6.310   6.273   1.506  0.1133 -0.5238 -0.5255
12379SOL    HW143229   6.323   6.319   1.423 -0.3274 -2.0747 -1.4974
12379SOL    HW243230   6.397   6.243   1.531  0.4575  1.0399  0.2837
12380SOL     OW43231   4.517   2.352   9.888  0.1816 -0.1222  0.3516
12380SOL    HW143232   4.423   2.340   9.880  0.1112  0.4701  0.2407
12380SOL    HW243233   4.553   2.319   9.805  0.0076  0.2773  0.1137
12381SOL     OW43234  10.553  10.921   8.157 -1.0196  0.3057 -0.0183
12381SOL    HW143235  10.507  10.869   8.091  0.1124 -1.2514  0.3765
12381SOL    HW243236  10.521  10.889   8.241 -0.4882  0.4251  0.2345
12382SOL     OW43237   4.257   1.187   8.030  0.6934 -0.4371  0.4447
12382SOL    HW143238   4.303   1.104   8.026  1.5872  0.0186  0.9839
12382SOL    HW243239   4.270   1.219   8.119  0.4586  0.3280  0.2202
12383SOL     OW43240   9.111   5.229   4.016  0.0583 -0.1969 -0.3718
12383SOL    HW143241   9.192   5.178   4.013  0.5442  0.6053 -2.7494
12383SOL    HW243242   9.127   5.296   4.083  1.3380 -0.1062 -0.7447
12384SOL     OW43243   6.923   7.949   1.425  0.4867 -0.1578  0.4202
12384SOL    HW143244   6.963   8.029   1.459  1.4644 -1.4897  2.6361
12384SOL    HW243245   6.996   7.898   1.391  0.1766 -0.9464  0.9001
12385SOL     OW43246   2.705   4.896   5.849  0.5307  0.4138  0.0319
12385SOL    HW143247   2.695   4.962   5.780  1.7134  0.4132 -0.1624
12385SOL    HW243248   2.628   4.907   5.904 -0.9306 -0.1861 -1.7822
12386SOL     OW43249   4.572   9.326   3.499  0.5269  0.0364 -0.2834
12386SOL    HW143250   4.615   9.251   3.540  0.8030  0.3108 -0.0642
12386SOL    HW243251   4.488   9.334   3.545  0.3622 -0.3251 -0.5182
12387SOL     OW43252   4.907   0.197  10.167  0.2259  0.2889  0.3220
12387SOL    HW143253   4.994   0.201  10.126 -0.2378 -0.7243 -0.8395
12387SOL    HW243254   4.847   0.185  10.093 -0.7403 -0.6936  1.2417
12388SOL     OW43255   6.028   6.843   9.392 -0.1203 -0.0511 -0.2219
12388SOL    HW143256   5.940   6.875   9.410 -0.8232 -2.4914  1.1620
12388SOL    HW243257   6.073   6.849   9.476  0.8677  0.6046 -0.7783
12389SOL     OW43258   1.231   8.906   1.091 -0.1465 -0.0568 -0.7308
12389SOL    HW143259   1.208   8.991   1.128  1.1030  0.4441 -1.0486
12389SOL    HW243260   1.323   8.914   1.066  0.4057 -1.9166  0.4331
12390SOL     OW43261   3.098   4.260   3.512 -0.1172  0.3248  0.2400
12390SOL    HW143262   3.074   4.319   3.441 -0.5097 -1.4048 -1.1305
12390SOL    HW243263   3.037   4.186   3.504 -0.8873  0.5035  3.0331
12391SOL     OW43264   3.931   5.898   0.356 -0.0474  0.4323 -0.0183
12391SOL    HW143265   3.862   5.964   0.359  0.0776  0.6875 -1.8239
12391SOL    HW243266   3.917   5.853   0.272 -0.6766 -2.4567  1.4986
12392SOL     OW43267  10.325   8.578   1.126  0.2430  0.3822  0.0442
12392SOL    HW143268  10.256   8.515   1.107  2.2444 -1.2070 -2.7473
12392SOL    HW243269  10.283   8.664   1.121 -2.2221 -0.5392  2.3629
12393SOL     OW43270   3.005   9.540   2.579  0.0494 -0.1658 -0.2605
12393SOL    HW143271   2.980   9.498   2.661 -0.8697 -0.5144 -0.7059
12393SOL    HW243272   2.963   9.487   2.511 -0.0950  0.7317 -0.8929
12394SOL     OW43273   0.336   1.520  10.895 -0.1822 -0.4512  0.3583
12394SOL    HW143274   0.289   1.452  10.847 -0.3353 -0.0735 -0.0352
12394SOL    HW243275   0.298   1.517  10.983  0.5294 -1.5624  0.6419
12395SOL     OW43276   4.773   6.729   6.746  0.1381 -0.0867  0.2537
12395SOL    HW143277   4.746   6.637   6.750 -2.2091  0.3976 -2.0526
12395SOL    HW243278   4.868   6.725   6.755  0.1219 -2.7379  0.2358
12396SOL     OW43279   2.549  10.563   6.619 -0.2427  0.3017 -0.3129
12396SOL    HW143280   2.638  10.595   6.632 -0.4082  0.0738  1.6906
12396SOL    HW243281   2.522  10.601   6.535  0.7981  2.5949  0.2939
12397SOL     OW43282   3.860  10.406   5.284 -0.2461  0.6518  0.1465
12397SOL    HW143283   3.828  10.449   5.205 -1.5506  0.3926  0.5236
12397SOL    HW243284   3.877  10.315   5.257  1.6991  1.1231 -0.4316
12398SOL     OW43285  10.213   4.083   2.788 -0.2599  0.0373  0.1191
12398SOL    HW143286  10.122   4.070   2.762 -0.4590  0.2770  0.6758
12398SOL    HW243287  10.233   4.008   2.844 -0.0918 -0.0511 -0.0572
12399SOL     OW43288   1.033   3.208   4.363 -0.1072 -0.4409  0.4714
12399SOL    HW143289   0.940   3.232   4.363 -0.0011  0.1524 -1.4540
12399SOL    HW243290   1.077   3.283   4.403 -0.4246 -0.6352  1.2006
12400SOL     OW43291   5.949   1.582   4.941 -0.0051  0.5399 -0.1158
12400SOL    HW143292   5.866   1.536   4.953 -0.2360  1.1520  0.7124
12400SOL    HW243293   5.925   1.672   4.921  0.4520  0.4547 -1.0825
12401SOL     OW43294   2.709   1.268  10.460  0.2489 -0.3684  0.7146
12401SOL    HW143295   2.686   1.201  10.397  1.3634 -0.0576 -0.0501
12401SOL    HW243296   2.771   1.226  10.519  0.8313 -0.0669  0.3262
12402SOL     OW43297  10.091   5.273   0.679  0.8480  0.4519  0.3750
12402SOL    HW143298  10.163   5.317   0.725  0.0079  1.0638  1.1500
12402SOL    HW243299  10.109   5.180   0.690  2.0222  0.5784 -0.2726
12403SOL     OW43300   1.667   4.301   6.836  0.1071 -0.4251  0.5577
12403SOL    HW143301   1.758   4.280   6.813 -0.5948 -3.2422 -0.0214
12403SOL    HW243302   1.646   4.241   6.907 -1.7954 -1.0646 -0.4722
12404SOL     OW43303   5.151   5.783   9.856  0.2610 -0.1727  0.5195
12404SOL    HW143304   5.180   5.725   9.786 -0.3071  0.6797 -0.4560
12404SOL    HW243305   5.119   5.861   9.811 -0.3085  0.3258  1.7247
12405SOL     OW43306   2.122   0.583   6.788 -0.0943 -0.2335 -0.1149
12405SOL    HW143307   2.099   0.675   6.787  2.2172  0.4227 -1.9101
12405SOL    HW243308   2.130   0.561   6.881 -1.2891  1.1743  0.3536
12406SOL     OW43309   4.635   0.080  10.530  0.1209 -0.2984 -0.5200
12406SOL    HW143310   4.705   0.023  10.562  0.5668 -0.0314 -1.0037
12406SOL    HW243311   4.652   0.164  10.572  2.1135  0.7558 -3.1498
12407SOL     OW43312  10.911   8.672  10.278 -0.4872  0.3513 -0.6159
12407SOL    HW143313  10.820   8.643  10.282 -1.7245  3.8181 -0.8721
12407SOL    HW243314  10.914   8.734  10.206  2.2505 -0.0013 -0.9222
12408SOL     OW43315   7.317   5.133  10.054 -0.2602  0.2557 -0.0370
12408SOL    HW143316   7.384   5.135  10.123 -0.2935  1.4368 -0.0206
12408SOL    HW243317   7.359   5.175   9.979 -0.7037  0.2512 -0.2911
12409SOL     OW43318   5.860   4.739   5.009  0.1993 -0.4600 -0.7242
12409SOL    HW143319   5.906   4.713   4.930  1.3361 -0.9314  0.0683
12409SOL    HW243320   5.868   4.664   5.068 -2.3189 -0.9033 -0.8312
12410SOL     OW43321   5.912   2.144  10.855 -0.3533  0.1452  0.3932
12410SOL    HW143322   5.824   2.144  10.819  0.2882  0.7825 -1.2684
12410SOL    HW243323   5.969   2.152  10.779  1.0572  2.6240  1.5871
12411SOL     OW43324   2.870   5.161   8.988  0.6615 -0.6845  0.0024
12411SOL    HW143325   2.879   5.107   8.909  0.7403  1.0148 -1.2019
12411SOL    HW243326   2.795   5.217   8.970  0.4908 -0.4832  1.2911
12412SOL     OW43327   0.597   8.949   0.136 -0.5495 -0.1481  0.2070
12412SOL    HW143328   0.671   9.010   0.143 -1.4483  0.7810  3.4380
12412SOL    HW243329   0.637   8.863   0.145  0.3032  0.2479  0.3180
12413SOL     OW43330   6.896   7.172   1.899 -0.5163 -0.1833 -0.5801
12413SOL    HW143331   6.849   7.216   1.827 -1.0466  0.0201 -0.1157
12413SOL    HW243332   6.850   7.199   1.978 -1.5545 -2.4202 -0.3354
12414SOL     OW43333   5.781   5.457   4.020 -0.2787  0.1001  0.5966
12414SOL    HW143334   5.696   5.427   3.988 -0.3946  1.1831 -0.1782
12414SOL    HW243335   5.776   5.446   4.115 -1.0193 -0.4937  0.4995
12415SOL     OW43336   2.903   2.800   3.319  0.2599 -0.2339  0.0261
12415SOL    HW143337   2.932   2.838   3.236  0.8148 -1.9730 -0.6254
12415SOL    HW243338   2.813   2.772   3.303  0.3679 -0.5732 -0.0113
12416SOL     OW43339   9.608   2.541   2.195 -0.0809 -0.0166  0.1135
12416SOL    HW143340   9.685   2.484   2.204 -0.0265  0.1436  0.6712
12416SOL    HW243341   9.630   2.597   2.120  0.5801  0.3847  0.5947
12417SOL     OW43342   6.866   2.460   2.351  0.0322  0.0216  0.2205
12417SOL    HW143343   6.925   2.415   2.411 -0.6071 -1.1964 -0.0363
12417SOL    HW243344   6.882   2.418   2.266  0.5292  1.3443 -0.3791
12418SOL     OW43345   4.274   4.844  10.723 -0.0261  0.3412 -0.0348
12418SOL    HW143346   4.185   4.866  10.694 -0.6560 -0.0676  1.4736
12418SOL    HW243347   4.277   4.748  10.719  0.6777  0.3878 -0.9401
12419SOL     OW43348   5.036   8.150   9.102  0.0258  0.1525 -0.3004
12419SOL    HW143349   5.132   8.150   9.098  0.0217  2.0025 -1.3773
12419SOL    HW243350   5.009   8.211   9.034 -1.9635 -0.7740 -0.4118
12420SOL     OW43351   3.969   5.169   9.984  0.2500 -0.4674 -0.7193
12420SOL    HW143352   3.971   5.075   9.970 -2.4043 -0.6168 -0.5873
12420SOL    HW243353   3.882   5.196   9.955  1.2869  2.1504 -1.7723
12421SOL     OW43354   2.296   5.868   8.929 -0.0196  0.3339 -0.1352
12421SOL    HW143355   2.297   5.935   8.997 -0.6464  1.3266 -1.0793
12421SOL    HW243356   2.203   5.847   8.916  0.0734  0.3120 -0.8218
12422SOL     OW43357   1.121   1.803   5.576 -0.2832  0.2199  0.3715
12422SOL    HW143358   1.036   1.763   5.594  0.4055 -2.5314 -1.7758
12422SOL    HW243359   1.102   1.873   5.514 -0.9265 -1.1046 -0.9801
12423SOL     OW43360   9.855   0.247   3.928  0.4129  0.3414  0.3829
12423SOL    HW143361   9.909   0.287   3.996  0.0217  0.5198  0.5956
12423SOL    HW243362   9.789   0.314   3.907  0.5679  0.3144 -0.2197
12424SOL     OW43363   4.723   8.538   6.477 -0.6457 -0.7552 -0.2896
12424SOL    HW143364   4.784   8.511   6.408 -1.4515 -1.4128 -0.7652
12424SOL    HW243365   4.668   8.461   6.491 -0.3044 -0.7498  1.3188
12425SOL     OW43366   1.159   6.325   0.662  0.1795 -0.3573 -0.2649
12425SOL    HW143367   1.151   6.286   0.749  0.9340  0.7015  0.2980
12425SOL    HW243368   1.245   6.296   0.631  0.5338  0.4442 -0.0464
12426SOL     OW43369   5.567   7.242  10.428 -0.3946 -0.4237  0.5568
12426SOL    HW143370   5.620   7.177  10.474  0.0046 -1.2354 -0.9743
12426SOL    HW243371   5.477   7.212  10.439 -0.1731 -1.6477 -0.6697
12427SOL     OW43372   4.332   0.347   5.252 -0.3731 -1.0791  0.4022
12427SOL    HW143373   4.362   0.422   5.303 -0.1615 -1.1092  0.3246
12427SOL    HW243374   4.273   0.384   5.186  0.7223 -0.8015 -0.4652
12428SOL     OW43375   7.993   8.152   9.465 -0.2939  0.0838  0.1195
12428SOL    HW143376   7.953   8.210   9.399 -1.3958  1.8199  2.1669
12428SOL    HW243377   8.043   8.211   9.522  0.5032 -1.3273  0.9438
12429SOL     OW43378   2.853   5.891   8.637 -0.4553 -0.0256  0.2997
12429SOL    HW143379   2.847   5.936   8.553  1.2909  0.9752  0.6582
12429SOL    HW243380   2.769   5.907   8.679 -1.0489  0.1496 -0.9007
12430SOL     OW43381   0.837   9.272   9.970 -0.4030 -1.1303 -0.4599
12430SOL    HW143382   0.842   9.252  10.064 -0.1097  0.9882  0.0181
12430SOL    HW243383   0.853   9.188   9.927 -1.7395 -2.4078  1.3729
12431SOL     OW43384   1.095   0.374   5.953  0.3914  0.2016  0.4678
12431SOL    HW143385   1.021   0.320   5.924  1.8925 -1.8432  0.3027
12431SOL    HW243386   1.147   0.389   5.874 -0.4357  2.7517  0.3073
12432SOL     OW43387   3.279   4.833   9.346  0.2189 -0.1514 -0.2510
12432SOL    HW143388   3.281   4.846   9.441 -2.0512  0.2667 -0.2116
12432SOL    HW243389   3.186   4.835   9.323  0.7222 -0.0772 -2.5225
12433SOL     OW43390   7.739   1.575   3.106 -0.5423  0.3978 -0.3795
12433SOL    HW143391   7.697   1.493   3.131  1.3222 -0.0688  1.4777
12433SOL    HW243392   7.674   1.643   3.123 -1.3783 -0.5112  0.0858
12434SOL     OW43393   9.379   8.420   3.502  0.1883 -0.1866 -0.0512
12434SOL    HW143394   9.325   8.367   3.560  0.0487  0.9187  0.8658
12434SOL    HW243395   9.317   8.461   3.443  0.2533 -0.6687 -0.4605
12435SOL     OW43396  10.582  10.929   2.794  0.0723  0.1364  0.0247
12435SOL    HW143397  10.564  11.023   2.792  1.0763  0.3684  0.9530
12435SOL    HW243398  10.644  10.915   2.724 -0.8470 -0.0259 -0.7760
12436SOL     OW43399   9.822   8.412   8.633 -0.5364  0.1236 -0.1889
12436SOL    HW143400   9.741   8.434   8.589 -1.8959  2.3272  2.9950
12436SOL    HW243401   9.887   8.472   8.595 -1.1486  0.5241 -0.6204
12437SOL     OW43402   6.155   6.731   6.817 -0.1766 -0.1824 -0.1381
12437SOL    HW143403   6.175   6.694   6.903 -0.4903 -1.8928 -0.7442
12437SOL    HW243404   6.083   6.676   6.784 -1.1922  1.4687 -0.8294
12438SOL     OW43405   7.248   8.062  10.718 -0.0295 -0.2603  0.1524
12438SOL    HW143406   7.266   7.975  10.754  1.3166  0.4297  1.2487
12438SOL    HW243407   7.245   8.120  10.795 -0.0742  0.7893 -0.6184
12439SOL     OW43408   4.634   4.187   5.706  0.1972 -0.2158 -0.8466
12439SOL    HW143409   4.540   4.208   5.701  0.4190  1.0033 -0.3362
12439SOL    HW243410   4.677   4.263   5.665  0.9543 -0.9309 -1.4055
12440SOL     OW43411   3.041   7.530   0.761 -0.8888  0.1169  0.0535
12440SOL    HW143412   3.040   7.497   0.671  1.3922  0.1353 -0.0138
12440SOL    HW243413   3.127   7.506   0.795 -2.2085 -1.2511  2.7750
12441SOL     OW43414   6.155   3.651   4.474 -0.4633  0.1947  0.2044
12441SOL    HW143415   6.188   3.677   4.560 -0.9177  1.3040  0.0576
12441SOL    HW243416   6.224   3.594   4.439  0.7018  1.3699  0.4710
12442SOL     OW43417   5.637   9.101   9.100 -0.0620 -0.2683 -0.0760
12442SOL    HW143418   5.694   9.030   9.070  0.8068  0.5043 -0.2727
12442SOL    HW243419   5.554   9.058   9.119  0.3620 -1.2929 -0.4866
12443SOL     OW43420   2.786   7.089   0.825  0.0831 -0.8204  0.2296
12443SOL    HW143421   2.710   7.088   0.766  0.6307 -3.2474 -0.5665
12443SOL    HW243422   2.806   7.181   0.837 -2.2540 -0.1394 -0.5023
12444SOL     OW43423   8.874   9.446   5.765  0.4396 -0.4352 -0.0311
12444SOL    HW143424   8.937   9.431   5.836 -0.4034  0.6461  0.9827
12444SOL    HW243425   8.904   9.525   5.722  0.5575 -0.7010 -0.4395
12445SOL     OW43426   0.494  10.511   2.406 -0.4622 -0.1418  0.0693
12445SOL    HW143427   0.418  10.468   2.367 -1.0299 -1.6245  2.6222
12445SOL    HW243428   0.458  10.586   2.454  0.0342  0.6924 -0.8181
12446SOL     OW43429   9.291   8.263   6.108  0.0810  0.1050 -0.1161
12446SOL    HW143430   9.234   8.317   6.162 -0.0401 -1.0101  0.9247
12446SOL    HW243431   9.303   8.313   6.027  0.1750  1.7778  0.8874
12447SOL     OW43432   4.807   1.967   3.141  0.4686  0.1106  0.4549
12447SOL    HW143433   4.838   2.003   3.224  0.6767  0.3750  0.2625
12447SOL    HW243434   4.713   1.988   3.140  0.4284 -0.0533  0.7047
12448SOL     OW43435   1.973   0.552   7.510 -0.4747 -0.1666  0.0827
12448SOL    HW143436   1.918   0.482   7.544 -0.4008  0.5752  1.7936
12448SOL    HW243437   1.912   0.612   7.466 -0.7180 -0.5653 -0.1217
12449SOL     OW43438   1.376   7.846   9.823  0.4883 -0.4875 -0.2996
12449SOL    HW143439   1.415   7.880   9.743 -0.7122  1.9490  0.0818
12449SOL    HW243440   1.282   7.857   9.811  0.3191  0.9102  1.7870
12450SOL     OW43441   2.240   4.255   8.354  0.3014  0.6333  0.0758
12450SOL    HW143442   2.239   4.162   8.378 -0.3688  0.5564 -0.2339
12450SOL    HW243443   2.149   4.276   8.334  0.3350  1.5322  0.7910
12451SOL     OW43444   3.247   0.621   3.003  0.1135 -0.1011 -0.0855
12451SOL    HW143445   3.337   0.645   2.982  0.2676  1.1356  1.7214
12451SOL    HW243446   3.194   0.690   2.962  0.0159 -0.5113 -0.6623
12452SOL     OW43447   0.977   2.775   8.874  0.0982  0.1810  0.0611
12452SOL    HW143448   1.064   2.754   8.842 -0.4899 -2.1213 -0.2699
12452SOL    HW243449   0.991   2.821   8.957  1.6007  0.7147 -0.4725
12453SOL     OW43450   8.955   1.289   5.874 -0.1158  0.3400 -0.4845
12453SOL    HW143451   8.929   1.380   5.888  1.1498  0.6605 -0.1189
12453SOL    HW243452   9.051   1.291   5.875 -0.0752 -1.0196 -0.3331
12454SOL     OW43453   1.248   1.388   4.174 -0.1305  0.1893  0.7676
12454SOL    HW143454   1.224   1.461   4.230 -0.7471 -0.9705  2.0494
12454SOL    HW243455   1.177   1.381   4.111 -1.3833 -0.8735  2.2307
12455SOL     OW43456   9.494  10.839   7.663  0.2009 -0.1086 -0.6298
12455SOL    HW143457   9.531  10.860   7.749 -0.9352 -1.1597  0.1490
12455SOL    HW243458   9.403  10.867   7.669 -0.1371 -1.0530 -1.1608
12456SOL     OW43459   4.960   1.056   1.018  0.0877  0.3320 -0.3579
12456SOL    HW143460   4.980   1.034   0.927 -2.0519 -2.9981 -0.2167
12456SOL    HW243461   4.864   1.055   1.022  0.1341 -0.8349  2.1165
12457SOL     OW43462   4.507   7.592   1.951 -0.2872 -0.2324  0.3866
12457SOL    HW143463   4.516   7.502   1.919 -0.3811 -0.3285  0.6282
12457SOL    HW243464   4.522   7.586   2.045  1.2179  0.2452  0.1991
12458SOL     OW43465   5.609   7.254   2.814 -0.3252 -0.7836  0.0066
12458SOL    HW143466   5.517   7.249   2.840 -0.2912 -0.5426  0.1827
12458SOL    HW243467   5.632   7.165   2.788 -0.6139 -0.8404 -0.0593
12459SOL     OW43468   5.547   1.261   9.200 -0.3669 -0.2927  0.0854
12459SOL    HW143469   5.469   1.206   9.212 -0.5265  0.0371  0.5791
12459SOL    HW243470   5.539   1.329   9.267 -0.1095  0.2597 -0.4301
12460SOL     OW43471  10.175   5.933   6.124  0.1178  0.8182 -0.2232
12460SOL    HW143472  10.128   5.950   6.042  1.1462  2.3409 -0.5367
12460SOL    HW243473  10.226   5.854   6.106 -2.3330 -0.9691  0.1785
12461SOL     OW43474   3.957   4.335   1.218 -0.1051 -0.1061  1.0542
12461SOL    HW143475   4.026   4.298   1.273  0.6458  0.2167  0.3522
12461SOL    HW243476   3.993   4.418   1.187 -0.5902 -0.1979  0.2239
12462SOL     OW43477   7.572   1.799   0.086  0.5610 -0.5529  0.1691
12462SOL    HW143478   7.635   1.748   0.137 -0.0239 -1.7503 -0.2676
12462SOL    HW243479   7.491   1.747   0.089 -0.5677  1.1653  1.0927
12463SOL     OW43480   9.146  10.563   3.271 -0.2061  0.3604  0.2850
12463SOL    HW143481   9.184  10.481   3.239 -0.3946 -0.0027  0.9555
12463SOL    HW243482   9.052  10.545   3.274 -0.1600  0.1844  1.5212
12464SOL     OW43483   1.247   5.569   8.008 -0.2316  0.0328 -0.4494
12464SOL    HW143484   1.253   5.639   7.942 -2.8077 -0.6397 -1.4929
12464SOL    HW243485   1.219   5.492   7.959  0.4522 -1.2110  1.0370
12465SOL     OW43486   1.972   9.829   5.498 -0.0948 -0.0423 -0.5371
12465SOL    HW143487   2.055   9.820   5.451 -1.2484 -0.1571 -2.6976
12465SOL    HW243488   1.964   9.748   5.548  0.9568 -0.1638 -0.5427
12466SOL     OW43489   2.248   9.528   8.083  0.0587  0.1407  0.4879
12466SOL    HW143490   2.266   9.526   7.989  0.4157  0.0595  0.5561
12466SOL    HW243491   2.207   9.613   8.098 -3.0038 -1.1057 -0.2655
12467SOL     OW43492   7.720  10.805   6.350 -0.1048  0.3855  0.2829
12467SOL    HW143493   7.762  10.818   6.435 -0.3795  0.5118  0.3989
12467SOL    HW243494   7.783  10.752   6.300 -0.1230 -0.0284  0.6999
12468SOL     OW43495   3.416   9.787   9.953  0.2276 -0.4212  0.0468
12468SOL    HW143496   3.456   9.731  10.019  0.9875 -1.6851 -1.4136
12468SOL    HW243497   3.323   9.789   9.976  0.2286 -2.0809  0.2978
12469SOL     OW43498   3.273   4.597   0.398 -0.4867  0.0298 -0.1679
12469SOL    HW143499   3.275   4.668   0.333  0.0518 -1.9341 -2.4146
12469SOL    HW243500   3.242   4.521   0.350  0.0110 -1.5523  1.8876
12470SOL     OW43501   4.815   5.760   2.009 -0.1149  0.2492  0.2108
12470SOL    HW143502   4.807   5.828   2.077 -0.0876  0.7771 -0.3092
12470SOL    HW243503   4.752   5.786   1.942  1.5523  1.0666 -1.0918
12471SOL     OW43504   5.413   9.868   8.810 -0.3966  0.0500 -0.0503
12471SOL    HW143505   5.408   9.962   8.830 -1.2659  0.0161 -0.0516
12471SOL    HW243506   5.336   9.851   8.756  0.0963 -0.5487 -0.5802
12472SOL     OW43507   4.038   5.062   6.346 -0.6135  0.0886 -0.5310
12472SOL    HW143508   3.957   5.026   6.384 -0.8782  1.7157  0.5319
12472SOL    HW243509   4.049   5.013   6.265 -2.7224 -0.1424 -0.7463
12473SOL     OW43510   1.288   7.036   9.819  0.0750  0.4856 -0.0974
12473SOL    HW143511   1.217   7.014   9.760  2.1330 -0.5711 -2.3622
12473SOL    HW243512   1.300   6.958   9.873  0.0458  0.3514 -0.2845
12474SOL     OW43513   3.208  10.184   1.963 -0.2623 -0.4415  0.0150
12474SOL    HW143514   3.115  10.205   1.962 -0.1279  0.1733 -0.9334
12474SOL    HW243515   3.247  10.248   2.023 -0.0114  1.4643 -2.0474
12475SOL     OW43516   4.491   3.293   2.212 -0.5119  0.4273 -0.2327
12475SOL    HW143517   4.511   3.228   2.279 -3.7842 -0.2956  0.1880
12475SOL    HW243518   4.477   3.242   2.132 -0.3476  0.9053 -0.5732
12476SOL     OW43519   5.346   9.092  10.478  0.1601 -0.4852  0.2083
12476SOL    HW143520   5.344   9.060  10.568 -1.6517 -1.2548 -0.0790
12476SOL    HW243521   5.413   9.039  10.435 -0.1352 -1.2505  0.6917
12477SOL     OW43522   8.162   7.189   9.991  0.0462 -0.0923  0.0377
12477SOL    HW143523   8.097   7.201  10.061  0.4908 -1.3844  0.7075
12477SOL    HW243524   8.170   7.276   9.951 -1.0615  0.4121  0.8466
12478SOL     OW43525   2.221   4.303   5.022 -0.4487  0.0919  0.0328
12478SOL    HW143526   2.215   4.380   4.965 -2.0199 -0.2015 -0.2518
12478SOL    HW243527   2.134   4.297   5.063 -0.4453 -1.6526 -0.1405
12479SOL     OW43528   7.918   7.510   3.269  0.1803  0.0054  0.4987
12479SOL    HW143529   7.904   7.435   3.212 -1.7405  1.1917 -0.7175
12479SOL    HW243530   8.011   7.530   3.260  0.4358 -1.3897 -0.2191
12480SOL     OW43531   5.088   1.905   5.591 -0.2483 -0.0337  0.3679
12480SOL    HW143532   5.065   1.985   5.637  2.1147 -0.8218  3.2517
12480SOL    HW243533   5.143   1.934   5.518 -1.6826  1.0617 -0.3348
12481SOL     OW43534   0.032   2.268  10.296  0.7121 -0.0024  0.6652
12481SOL    HW143535   0.064   2.194  10.244  0.3935  0.8182 -0.7526
12481SOL    HW243536   0.102   2.333  10.290  0.1995  0.5205  0.3533
12482SOL     OW43537   4.225  10.436   3.635  0.0715 -0.6468 -0.3293
12482SOL    HW143538   4.312  10.437   3.675  0.1646 -0.8768 -0.5234
12482SOL    HW243539   4.239  10.399   3.548  0.2553  1.9495 -1.4816
12483SOL     OW43540   0.304   3.985   8.937 -0.1210  0.0210  0.2471
12483SOL    HW143541   0.347   4.006   8.854  3.2641 -3.7790  0.6776
12483SOL    HW243542   0.237   4.052   8.948  0.4705  1.7755 -4.5983
12484SOL     OW43543   7.305   9.383   9.064 -0.6184 -0.1484 -0.2763
12484SOL    HW143544   7.323   9.424   8.979  0.3621 -0.6222 -0.3171
12484SOL    HW243545   7.296   9.290   9.044 -1.6730 -0.1134 -0.0231
12485SOL     OW43546   1.250   6.419   7.625  0.4301 -0.3166 -0.0967
12485SOL    HW143547   1.324   6.425   7.685 -0.4737  2.0456  0.8822
12485SOL    HW243548   1.203   6.340   7.652 -0.1546  0.8650  2.6102
12486SOL     OW43549   7.577   4.340  10.806  0.4312  0.4254  0.1295
12486SOL    HW143550   7.578   4.414  10.746 -1.2433  0.6800  0.3702
12486SOL    HW243551   7.609   4.375  10.889 -0.9774  1.0596  0.4192
12487SOL     OW43552   3.183   9.775   4.099 -0.0279 -0.2537 -0.4030
12487SOL    HW143553   3.218   9.688   4.080 -1.9772 -1.2661  0.3310
12487SOL    HW243554   3.111   9.786   4.036 -3.1221 -1.4209  2.6308
12488SOL     OW43555   1.010  10.887   5.011 -0.7596 -0.2150  0.9725
12488SOL    HW143556   0.961  10.837   5.076  0.3165 -1.5935  0.7838
12488SOL    HW243557   1.070  10.823   4.973  0.2068  1.0941  0.2248
12489SOL     OW43558   0.028  10.776   6.573 -0.6854 -0.0158 -0.0982
12489SOL    HW143559   0.115  10.753   6.541 -0.4788  2.4847 -1.5335
12489SOL    HW243560  -0.001  10.698   6.620  2.1222 -1.0783  0.0415
12490SOL     OW43561  10.603   6.420   5.756 -0.7028  0.6042  0.0818
12490SOL    HW143562  10.659   6.464   5.820  1.4558 -0.3305 -1.0612
12490SOL    HW243563  10.566   6.346   5.804  1.9404 -0.8738  0.0403
12491SOL     OW43564   0.432   0.418   1.829  0.0041 -0.4067 -0.1363
12491SOL    HW143565   0.497   0.423   1.758  0.0647  0.4748 -0.0335
12491SOL    HW243566   0.459   0.343   1.882  0.3157 -0.6963 -0.6935
12492SOL     OW43567   7.021   0.673   0.279  0.1301  0.7492 -0.1389
12492SOL    HW143568   7.064   0.681   0.194 -0.3137 -0.5664 -0.5199
12492SOL    HW243569   6.991   0.761   0.299 -0.1834  1.0036 -1.5865
12493SOL     OW43570   9.602   0.780   2.907  0.0597 -0.4401  0.1597
12493SOL    HW143571   9.629   0.868   2.881  0.7451 -0.7940 -0.3274
12493SOL    HW243572   9.561   0.743   2.829  0.1322 -0.7057  0.2468
12494SOL     OW43573   3.889   9.645   0.104 -0.6451 -0.7307 -0.3064
12494SOL    HW143574   3.819   9.703   0.076  0.7617  1.6332  0.7403
12494SOL    HW243575   3.923   9.685   0.184  3.5550 -0.2246 -2.0649
12495SOL     OW43576   3.839   4.240   5.918  0.0691 -0.5180 -0.0542
12495SOL    HW143577   3.920   4.194   5.899  1.2616  1.0521  0.9268
12495SOL    HW243578   3.797   4.188   5.987  1.2851 -0.2910  0.8945
12496SOL     OW43579   8.068   2.563   8.885 -0.1115  0.4718 -0.7735
12496SOL    HW143580   8.050   2.629   8.817  3.4162  0.7853 -1.6285
12496SOL    HW243581   8.124   2.608   8.948  1.3780 -1.3202 -0.7206
12497SOL     OW43582   6.119   3.968   5.802  0.3581 -0.2735 -0.0622
12497SOL    HW143583   6.194   4.003   5.849  0.0699 -1.9945  1.8789
12497SOL    HW243584   6.104   3.882   5.843 -2.1251 -0.3443 -0.9515
12498SOL     OW43585   8.075   5.667   9.378  0.1114  0.9171  0.2407
12498SOL    HW143586   8.152   5.720   9.399  0.0766  0.7425  0.8184
12498SOL    HW243587   8.008   5.697   9.440 -0.2644  1.0120 -0.2054
12499SOL     OW43588   2.102   9.166   6.776  0.0682 -0.2132 -0.0730
12499SOL    HW143589   2.097   9.073   6.757 -1.6946  0.0920 -1.3601
12499SOL    HW243590   2.106   9.171   6.872 -0.2913 -1.5801  0.0256
12500SOL     OW43591   3.038  10.495   0.275  0.0040 -0.2823 -0.2759
12500SOL    HW143592   3.012  10.556   0.207  0.7908 -0.0227 -0.3541
12500SOL    HW243593   2.971  10.426   0.272 -0.5132  0.2237 -0.6372
12501SOL     OW43594   5.187   1.864   6.615 -0.1415 -0.4512 -0.3688
12501SOL    HW143595   5.188   1.862   6.520 -1.7139  1.1194 -0.4792
12501SOL    HW243596   5.204   1.774   6.642  2.5721 -0.5329 -2.0399
12502SOL     OW43597  10.498   9.855   2.506  0.1405 -0.4439  0.4941
12502SOL    HW143598  10.454   9.828   2.426 -0.7805  0.2479  0.7534
12502SOL    HW243599  10.441   9.825   2.577 -0.3004  1.0800  0.8160
12503SOL     OW43600   8.241   5.471   7.398  0.0452 -0.6364 -0.4226
12503SOL    HW143601   8.290   5.497   7.320  0.6569 -1.7461 -0.4256
12503SOL    HW243602   8.194   5.550   7.425  1.5668  0.3573 -0.6104
12504SOL     OW43603   5.045   2.253   1.286 -0.0208 -0.0455 -0.3112
12504SOL    HW143604   5.055   2.310   1.210  0.2067  0.2737 -0.0434
12504SOL    HW243605   5.131   2.215   1.299 -0.3063 -0.8943 -0.8326
12505SOL     OW43606   1.674  10.213   7.870  0.1907 -0.5139  0.3671
12505SOL    HW143607   1.693  10.122   7.848  2.4069 -0.0878  0.2911
12505SOL    HW243608   1.745  10.263   7.829 -1.1265  1.3002  0.1596
12506SOL     OW43609   2.961   1.975   4.979  0.0155  0.3899  0.3928
12506SOL    HW143610   2.879   1.928   4.993 -0.3401  1.4087  2.0094
12506SOL    HW243611   2.970   2.031   5.056  0.3921  2.9933 -1.4017
12507SOL     OW43612   9.422   3.712   2.657  0.1485 -0.0543 -0.3226
12507SOL    HW143613   9.483   3.642   2.680  0.0798 -0.0061  0.0215
12507SOL    HW243614   9.350   3.702   2.720 -0.3881 -0.3554 -0.9788
12508SOL     OW43615   6.929   7.176   4.470 -0.0258  0.5808 -0.1134
12508SOL    HW143616   6.992   7.226   4.522 -1.1104 -0.8358  2.7826
12508SOL    HW243617   6.851   7.232   4.468  0.0856  0.7275 -0.4208
12509SOL     OW43618   0.933   3.248   1.299 -0.0102 -0.2469 -0.2649
12509SOL    HW143619   0.918   3.268   1.391 -1.3275  1.3098 -0.7702
12509SOL    HW243620   0.997   3.177   1.300  0.3970  0.0791  1.8294
12510SOL     OW43621   5.258   9.059   8.761 -0.4860  1.0376  0.2576
12510SOL    HW143622   5.177   9.058   8.813 -0.9111  1.1255 -0.3977
12510SOL    HW243623   5.294   8.971   8.772  1.1361  1.9103  3.2968
12511SOL     OW43624   9.970   1.816   6.042  0.1471  0.4449  0.1353
12511SOL    HW143625   9.924   1.825   5.958  1.1346  1.6931 -0.3065
12511SOL    HW243626  10.049   1.766   6.021 -0.4261 -0.6969  0.6629
12512SOL     OW43627   3.538   6.726  10.331 -0.1900  0.5903  0.4235
12512SOL    HW143628   3.520   6.667  10.404  0.3330  0.9186  0.8311
12512SOL    HW243629   3.537   6.813  10.371 -0.7423  0.8400 -0.1267
12513SOL     OW43630   9.333   0.366   4.735 -0.3462 -0.4058  0.1398
12513SOL    HW143631   9.342   0.288   4.790 -0.3224  0.3366  1.2161
12513SOL    HW243632   9.394   0.429   4.773 -1.2140  0.5306  0.0262
12514SOL     OW43633   2.080   0.671   4.775 -0.2329  0.2584  0.1910
12514SOL    HW143634   2.028   0.603   4.731 -1.6216  2.0935 -1.1571
12514SOL    HW243635   2.167   0.663   4.736 -0.1922 -1.1116  0.5085
12515SOL     OW43636   5.627   0.406   8.223 -0.2257  0.3571 -0.0993
12515SOL    HW143637   5.570   0.481   8.208 -0.6135  0.1263  0.1882
12515SOL    HW243638   5.644   0.408   8.318 -1.7198 -0.9515  0.2382
12516SOL     OW43639  10.648   3.213   8.159  0.1896  0.0257 -0.1715
12516SOL    HW143640  10.700   3.292   8.145  2.0960 -1.0070  0.6234
12516SOL    HW243641  10.588   3.209   8.085  2.1531  0.6292 -1.8879
12517SOL     OW43642   5.155   6.544   2.855  0.0820  1.0032  0.3549
12517SOL    HW143643   5.249   6.565   2.855 -0.1134  1.9032  0.2530
12517SOL    HW243644   5.113   6.621   2.893 -0.7927  1.4130 -1.3687
12518SOL     OW43645   5.799   2.952   6.555 -0.1748 -0.1508 -0.2311
12518SOL    HW143646   5.852   2.984   6.629 -0.7136 -0.6632  0.3894
12518SOL    HW243647   5.738   3.024   6.538  0.0608  0.0372 -0.2840
12519SOL     OW43648   1.666  10.738   0.762 -0.4171 -0.2679  0.0043
12519SOL    HW143649   1.735  10.716   0.824  0.4532  3.2442  0.5447
12519SOL    HW243650   1.671  10.671   0.695  1.9456 -1.4439  1.2321
12520SOL     OW43651   8.263   3.002  10.501 -0.3340 -0.1232  0.3442
12520SOL    HW143652   8.346   3.005  10.454 -0.2891 -0.4884  0.3979
12520SOL    HW243653   8.220   3.084  10.479 -0.0459 -0.0213  0.1546
12521SOL     OW43654   0.284   8.572   4.019  0.8554  0.6503  0.3254
12521SOL    HW143655   0.203   8.574   3.967 -0.3276 -0.9496  1.9689
12521SOL    HW243656   0.350   8.538   3.959  0.1002  1.1146 -0.8036
12522SOL     OW43657   4.442   6.853   8.340  0.2390  0.1821 -0.8227
12522SOL    HW143658   4.508   6.804   8.389 -0.3845  0.7718  0.6840
12522SOL    HW243659   4.432   6.805   8.258 -0.0182 -1.9739  0.3884
12523SOL     OW43660   3.998  10.267   3.076 -0.0670  0.0234  0.1734
12523SOL    HW143661   4.039  10.344   3.036  0.8780 -1.3601 -1.6657
12523SOL    HW243662   3.909  10.295   3.097 -0.4856  0.9948 -2.5364
12524SOL     OW43663  10.471   2.485  10.267  0.2187 -0.3218  0.1370
12524SOL    HW143664  10.434   2.565  10.228 -0.6570  0.4311  2.3825
12524SOL    HW243665  10.432   2.414  10.217 -1.2729  0.5794 -0.0433
12525SOL     OW43666   3.034   3.392   5.707  0.1016 -0.0295  0.0550
12525SOL    HW143667   3.088   3.470   5.693 -2.9795  2.3263  0.2024
12525SOL    HW243668   3.016   3.359   5.619  1.4048 -0.6146 -0.0115
12526SOL     OW43669   5.700   5.632  10.775  0.3479  0.3320 -0.8221
12526SOL    HW143670   5.682   5.693  10.846  0.3511  0.0030 -0.5365
12526SOL    HW243671   5.660   5.549  10.804  0.0481  0.2854 -1.3541
12527SOL     OW43672   0.509   9.325   2.746  0.4085 -0.5899  0.2474
12527SOL    HW143673   0.449   9.250   2.739  0.1538 -0.4749  1.1248
12527SOL    HW243674   0.453   9.399   2.767  0.9349 -0.6779  2.1557
12528SOL     OW43675   9.550   2.984   7.388  0.1884 -0.4364  0.2392
12528SOL    HW143676   9.646   2.983   7.388  0.2054 -2.1815  0.7868
12528SOL    HW243677   9.525   2.892   7.400 -1.5370  0.2938  3.2964
12529SOL     OW43678   1.161   3.785   9.080 -0.0434 -0.6121 -0.1495
12529SOL    HW143679   1.140   3.830   8.998 -0.1728 -0.8752 -0.2585
12529SOL    HW243680   1.082   3.793   9.133 -0.0825 -0.7562 -0.1871
12530SOL     OW43681   8.750   7.433   6.727  0.2730 -0.2213  0.0742
12530SOL    HW143682   8.782   7.523   6.741  1.8163 -0.6041 -0.7251
12530SOL    HW243683   8.812   7.396   6.664 -1.2278 -1.3706 -0.7713
12531SOL     OW43684   1.230   9.538  10.808 -0.4104  0.3790  0.2532
12531SOL    HW143685   1.299   9.516  10.744 -1.7283 -3.2744 -0.1329
12531SOL    HW243686   1.274   9.532  10.893  0.2207  0.1946 -0.0767
12532SOL     OW43687   6.710   9.486   0.360 -0.0749 -0.4088 -0.0799
12532SOL    HW143688   6.674   9.465   0.274 -0.0897  0.7886 -0.3937
12532SOL    HW243689   6.647   9.547   0.399  1.0030  0.8000 -0.1596
12533SOL     OW43690   6.495  10.870   2.962 -0.5618  0.1731 -0.3328
12533SOL    HW143691   6.551  10.947   2.974 -1.1882  1.3260 -3.8093
12533SOL    HW243692   6.543  10.799   3.005  0.8528  2.1283  1.5300
12534SOL     OW43693   3.937   8.184   1.737  0.4761 -0.1167 -0.4328
12534SOL    HW143694   3.940   8.239   1.816 -0.8082  0.3174 -0.6586
12534SOL    HW243695   4.028   8.162   1.720  0.6803 -1.5938  2.1007
12535SOL     OW43696   3.866   0.001   7.508 -0.5531  0.5513 -0.0787
12535SOL    HW143697   3.938   0.049   7.467  0.2003  1.0289  1.7448
12535SOL    HW243698   3.878  -0.090   7.478 -0.1187  0.8949 -0.9966
12536SOL     OW43699   9.276   7.624   0.243 -0.2864 -0.0856 -0.3913
12536SOL    HW143700   9.331   7.590   0.313 -0.2893 -0.2585 -0.4737
12536SOL    HW243701   9.296   7.718   0.240 -1.0873  0.1312  0.5781
12537SOL     OW43702   0.858   7.115   6.010 -0.0171  0.1913 -0.1125
12537SOL    HW143703   0.767   7.138   6.032 -0.6556 -1.5336 -0.6956
12537SOL    HW243704   0.909   7.193   6.031 -1.4794  0.8293  1.3067
12538SOL     OW43705   0.665   2.049   5.222  0.3837 -0.5029 -0.4892
12538SOL    HW143706   0.620   2.077   5.142  0.7018  0.2565 -0.4145
12538SOL    HW243707   0.600   1.996   5.268 -0.3936  0.4228 -0.4715
12539SOL     OW43708   3.804   7.555   4.514  0.0623  0.2635  0.2900
12539SOL    HW143709   3.793   7.622   4.582  0.4243  1.5473 -0.8648
12539SOL    HW243710   3.763   7.477   4.550  0.1432  0.9405  1.9277
12540SOL     OW43711   3.221   2.029   5.309 -0.4261 -0.2521  0.3912
12540SOL    HW143712   3.168   2.109   5.316 -0.4730 -0.0228 -1.7650
12540SOL    HW243713   3.311   2.061   5.310 -0.4393 -0.1812 -0.0479
12541SOL     OW43714   1.468   6.311  10.336  0.9670  0.2912 -0.0048
12541SOL    HW143715   1.448   6.393  10.381  0.3297 -0.4541  1.1334
12541SOL    HW243716   1.464   6.332  10.243 -1.0321  1.1532  0.2308
12542SOL     OW43717  10.762   0.288   8.837 -0.1631  0.2461  0.2428
12542SOL    HW143718  10.701   0.348   8.796  0.1191  0.8690  0.7141
12542SOL    HW243719  10.710   0.211   8.858 -0.7533  0.7082  0.4952
12543SOL     OW43720   5.141   3.572   1.165  0.5629  0.3166 -0.1401
12543SOL    HW143721   5.093   3.651   1.138  0.9225  0.9527  0.9856
12543SOL    HW243722   5.169   3.591   1.255  1.6912 -0.6215 -0.2706
12544SOL     OW43723   0.842   9.082   1.799  0.6620  0.0254  0.5785
12544SOL    HW143724   0.897   9.012   1.766  0.6603 -0.6397  1.9181
12544SOL    HW243725   0.904   9.147   1.832  0.6752 -0.5383  1.7109
12545SOL     OW43726  10.740   7.021   5.469 -0.4555 -0.0260 -0.0373
12545SOL    HW143727  10.670   6.956   5.472 -0.7948  0.3142 -0.5069
12545SOL    HW243728  10.697   7.101   5.439  0.3638 -0.1140 -1.5015
12546SOL     OW43729   9.196   1.273  10.144 -0.0306 -0.3385 -0.1847
12546SOL    HW143730   9.189   1.231  10.058 -2.4435 -0.9086  0.2228
12546SOL    HW243731   9.274   1.328  10.137 -0.7945  0.5596 -3.1254
12547SOL     OW43732   1.119   7.269   8.860 -0.4137 -0.6541  0.4696
12547SOL    HW143733   1.114   7.356   8.898  0.4834 -0.9793  1.4079
12547SOL    HW243734   1.161   7.282   8.775  0.7543 -0.2690  1.0749
12548SOL     OW43735   5.830   6.213   1.193 -0.0610 -0.4269  0.2875
12548SOL    HW143736   5.764   6.229   1.126  1.6997  2.3039 -0.9702
12548SOL    HW243737   5.779   6.198   1.273 -2.2092  0.6511 -0.7782
12549SOL     OW43738  10.472   5.792   8.024  0.1479  0.6817 -0.5241
12549SOL    HW143739  10.472   5.818   8.116  1.8702  0.2083 -0.3449
12549SOL    HW243740  10.463   5.696   8.026  0.5876  0.6290 -0.8106
12550SOL     OW43741   6.489   0.224   4.950 -0.1475  0.0093 -0.5642
12550SOL    HW143742   6.471   0.270   5.032  0.9012 -2.3841  1.1225
12550SOL    HW243743   6.408   0.177   4.931  0.8268 -2.9072  1.6423
12551SOL     OW43744   8.033   3.017   1.213  0.0128 -0.1331  1.2890
12551SOL    HW143745   8.099   3.021   1.282 -0.0487  0.0543  1.3358
12551SOL    HW243746   8.042   2.928   1.177  1.5406  0.4708  0.0764
12552SOL     OW43747   8.042   6.868   4.388  0.1112 -0.1518  0.0516
12552SOL    HW143748   7.986   6.837   4.317 -0.9034  1.0716  0.2886
12552SOL    HW243749   8.087   6.789   4.419  0.4961 -0.7331 -1.8553
12553SOL     OW43750   4.880   6.121   3.550  0.0710  0.3449  0.2450
12553SOL    HW143751   4.801   6.083   3.588  0.0901  0.0694  0.0164
12553SOL    HW243752   4.889   6.078   3.465  0.3863  0.4806  0.2066
12554SOL     OW43753   4.458  10.131   0.743 -0.1351 -0.0218  0.7152
12554SOL    HW143754   4.377  10.106   0.789 -0.2557  0.3119  0.6862
12554SOL    HW243755   4.459  10.076   0.665 -0.5241  0.2281  0.5285
12555SOL     OW43756   9.402  10.168   9.263  0.1196 -0.3362  0.2510
12555SOL    HW143757   9.457  10.221   9.321 -1.7172  1.2472  0.6617
12555SOL    HW243758   9.463  10.130   9.200  1.8683 -0.1210  1.7378
12556SOL     OW43759   3.031  10.523   8.910 -0.5870  0.0204 -0.0486
12556SOL    HW143760   3.075  10.542   8.993 -0.0288  0.9355 -0.5424
12556SOL    HW243761   2.983  10.442   8.927 -0.3657  0.1152  1.1241
12557SOL     OW43762   3.404   2.860   4.219  0.5204 -0.3919 -0.3597
12557SOL    HW143763   3.336   2.794   4.233  1.3325 -1.3459 -0.8139
12557SOL    HW243764   3.355   2.942   4.208 -0.7316 -1.3248 -2.5867
12558SOL     OW43765   3.279   5.993   8.499  0.3673 -0.0626  0.1800
12558SOL    HW143766   3.215   5.923   8.490 -0.1650  0.3357  0.7801
12558SOL    HW243767   3.237   6.069   8.460  0.7996  0.0093 -0.1513
12559SOL     OW43768   8.495   1.727   4.619 -0.4726  0.5749  0.1116
12559SOL    HW143769   8.548   1.794   4.662  1.9457 -0.5701 -0.9104
12559SOL    HW243770   8.527   1.644   4.656 -1.8382 -0.1549 -0.2654
12560SOL     OW43771   1.722   0.257  10.156 -0.1917  0.4875  0.1403
12560SOL    HW143772   1.669   0.302  10.221  0.1342 -0.4698  1.1036
12560SOL    HW243773   1.764   0.327  10.105 -1.0988  1.2405  0.4177
12561SOL     OW43774   9.624   7.276   6.535 -0.0753 -0.0411 -0.1225
12561SOL    HW143775   9.531   7.258   6.525 -0.3689  0.9033  0.7458
12561SOL    HW243776   9.628   7.349   6.598  1.2076  0.4184 -0.6992
12562SOL     OW43777   5.282   3.420   5.969 -0.1489  0.4142 -0.2160
12562SOL    HW143778   5.301   3.466   6.050  1.4082 -0.1995 -0.1917
12562SOL    HW243779   5.272   3.489   5.904 -0.2810  0.8706  0.2866
12563SOL     OW43780   8.783   6.226   7.625  1.0783 -0.0811  0.1380
12563SOL    HW143781   8.695   6.189   7.620  0.7329  0.7449  0.0992
12563SOL    HW243782   8.810   6.237   7.534  1.0037  0.1802  0.1467
12564SOL     OW43783   0.818   4.403   0.765 -0.4205 -0.1474 -0.1028
12564SOL    HW143784   0.889   4.340   0.772 -0.7096 -0.5397 -0.6504
12564SOL    HW243785   0.739   4.349   0.759 -0.6441  0.2564 -0.9218
12565SOL     OW43786   2.354   7.321   5.798 -0.0931 -0.1408 -0.4630
12565SOL    HW143787   2.328   7.229   5.806  1.3955 -0.5215  0.6018
12565SOL    HW243788   2.450   7.318   5.791  0.0427  1.3582  0.3558
12566SOL     OW43789   0.596   8.875   4.328  0.1651  0.0257  0.2600
12566SOL    HW143790   0.509   8.868   4.367 -0.2872 -0.3388 -0.7864
12566SOL    HW243791   0.582   8.866   4.234  1.1455  1.6750 -0.0935
12567SOL     OW43792   2.058   1.791   4.868 -0.1784 -0.6293 -0.4073
12567SOL    HW143793   2.011   1.712   4.841 -1.3807 -0.5140  1.1739
12567SOL    HW243794   2.119   1.761   4.935 -0.3165 -0.2902 -0.1259
12568SOL     OW43795   4.691   8.542   1.331  0.2595 -0.3357  0.3580
12568SOL    HW143796   4.607   8.524   1.373  0.4245 -1.8647  0.0758
12568SOL    HW243797   4.700   8.637   1.336 -1.5296 -0.1257  0.3135
12569SOL     OW43798   2.664   7.984   9.555 -0.0512  0.4742  0.3348
12569SOL    HW143799   2.713   8.058   9.591 -0.9844  0.5222  1.5360
12569SOL    HW243800   2.729   7.935   9.504  1.1379  0.8091  1.4797
12570SOL     OW43801   0.311   9.091   4.578 -0.2232 -1.0589 -0.3377
12570SOL    HW143802   0.353   9.166   4.535  2.8357 -1.9091  0.8614
12570SOL    HW243803   0.315   9.113   4.671  2.7001 -3.4224  0.2607
12571SOL     OW43804   4.789   8.883   0.527 -0.4565  0.2548  0.1345
12571SOL    HW143805   4.739   8.956   0.561 -1.5504 -1.6422  2.9838
12571SOL    HW243806   4.854   8.864   0.595  0.9135 -0.4255 -1.2846
12572SOL     OW43807   7.472   7.876   6.378  0.4968 -0.2304 -0.7214
12572SOL    HW143808   7.456   7.799   6.432 -0.4299  0.9117  0.7491
12572SOL    HW243809   7.403   7.938   6.404  1.1533  1.0637 -1.8999
12573SOL     OW43810   8.129   9.575  10.387  0.5011 -0.6065 -0.4696
12573SOL    HW143811   8.176   9.522  10.321  2.9936  1.7354 -0.7453
12573SOL    HW243812   8.193   9.589  10.456  0.4613  3.0078 -0.9816
12574SOL     OW43813   4.130   2.761   9.680 -0.1835 -0.3804 -0.1836
12574SOL    HW143814   4.114   2.667   9.671 -0.3137 -0.2571 -1.3195
12574SOL    HW243815   4.173   2.770   9.766 -0.7784 -1.3871  0.2346
12575SOL     OW43816  10.336   9.140   1.813 -0.0692 -0.3466  0.2355
12575SOL    HW143817  10.302   9.164   1.899 -1.2120  0.5820 -0.4515
12575SOL    HW243818  10.300   9.206   1.754 -1.0654 -2.1679 -1.2941
12576SOL     OW43819   0.854   9.286   6.919  0.1619 -0.1303  0.4239
12576SOL    HW143820   0.887   9.200   6.895  0.1922 -0.1261  0.4497
12576SOL    HW243821   0.933   9.340   6.930  0.1166  0.6544 -2.3492
12577SOL     OW43822   0.864   1.574   7.132  0.6937  0.5038  0.4322
12577SOL    HW143823   0.814   1.622   7.198 -1.1824  0.7433 -1.0583
12577SOL    HW243824   0.856   1.482   7.157  0.1721  0.6132  0.6803
12578SOL     OW43825   0.553   4.955   9.342 -0.1055  0.0427 -0.5229
12578SOL    HW143826   0.489   4.998   9.399  0.2648 -0.5305  0.3389
12578SOL    HW243827   0.500   4.906   9.279 -0.5163  0.5805 -0.6044
12579SOL     OW43828   9.988   0.348   8.513  0.3641  0.1784 -0.3639
12579SOL    HW143829  10.005   0.442   8.524  0.0408  0.1318  0.7525
12579SOL    HW243830   9.976   0.316   8.603 -1.0456 -0.6320 -0.8153
12580SOL     OW43831   5.254   4.358   9.879  0.3313 -0.0754  0.5089
12580SOL    HW143832   5.163   4.329   9.866  0.5916 -0.4262 -0.6364
12580SOL    HW243833   5.253   4.402   9.964 -1.6447  2.7327 -0.7960
12581SOL     OW43834   0.056   0.421   0.323 -0.3765  0.0376 -0.1099
12581SOL    HW143835   0.004   0.423   0.403 -1.4668 -0.0288 -0.7921
12581SOL    HW243836  -0.006   0.443   0.254  0.2841 -1.0162 -1.0731
12582SOL     OW43837   1.186   2.498   0.601  0.2698 -0.0369  0.1115
12582SOL    HW143838   1.161   2.410   0.574 -1.6361  0.3675  0.4489
12582SOL    HW243839   1.258   2.484   0.663  1.9693 -1.1650 -1.9747
12583SOL     OW43840   2.275   2.509   5.767  0.4866 -0.0625  0.1164
12583SOL    HW143841   2.237   2.566   5.700  1.6354 -0.1796 -0.6568
12583SOL    HW243842   2.295   2.428   5.720  1.4116 -0.1044  0.5703
12584SOL     OW43843  10.751   5.025   5.260 -0.4094 -0.6396  0.1067
12584SOL    HW143844  10.794   4.948   5.224 -0.3467 -0.1884 -0.8078
12584SOL    HW243845  10.820   5.072   5.308  0.1022  0.0089 -1.2322
12585SOL     OW43846   0.018   5.768   0.521  0.6826 -0.4258  0.0722
12585SOL    HW143847   0.084   5.818   0.568 -0.5965  0.3234  1.1571
12585SOL    HW243848  -0.028   5.719   0.590 -1.0907  0.5198 -0.3902
12586SOL     OW43849   8.177   6.345   3.367  0.6474  0.0890  0.0415
12586SOL    HW143850   8.194   6.431   3.407 -1.4799  0.6855 -0.2234
12586SOL    HW243851   8.175   6.285   3.441 -0.9055  0.8024  0.6312
12587SOL     OW43852   1.810   0.589   8.270 -0.2095 -0.1097  0.6345
12587SOL    HW143853   1.830   0.624   8.356 -2.7538  2.4223  0.3549
12587SOL    HW243854   1.851   0.503   8.268  1.8984  0.7064  3.4507
12588SOL     OW43855   1.821   2.540   8.035  0.2040 -0.3575 -0.4951
12588SOL    HW143856   1.877   2.611   8.003 -0.0047 -0.1552 -0.4133
12588SOL    HW243857   1.856   2.518   8.121 -1.2464  1.3700  0.6218
12589SOL     OW43858   3.194   8.722   8.469  0.1676 -0.0052  0.6891
12589SOL    HW143859   3.284   8.702   8.446 -0.1727 -0.0654 -0.6901
12589SOL    HW243860   3.149   8.731   8.385 -1.1774 -0.2612  1.3450
12590SOL     OW43861   7.761  10.834   8.547 -0.2576  0.4249  0.3089
12590SOL    HW143862   7.715  10.871   8.472  0.9782  1.8933  0.2308
12590SOL    HW243863   7.712  10.865   8.623  0.5880  2.0716  0.2330
12591SOL     OW43864   6.499   4.572  10.313 -0.0510 -0.1978  0.1606
12591SOL    HW143865   6.540   4.621  10.384  0.1012  0.7482 -0.5595
12591SOL    HW243866   6.481   4.638  10.245 -2.6820 -0.5622  0.4025
12592SOL     OW43867   8.978   7.358   6.148 -0.3674 -0.6124 -0.1180
12592SOL    HW143868   9.034   7.304   6.093  1.1064  0.7892 -0.0661
12592SOL    HW243869   8.897   7.370   6.098 -0.0335 -1.4023 -0.8577
12593SOL     OW43870  10.085   3.047  10.480 -0.2113  0.2327 -0.5760
12593SOL    HW143871  10.007   3.020  10.431 -0.2705 -2.0170  0.6332
12593SOL    HW243872  10.089   3.142  10.467 -3.3911  0.5155 -0.3448
12594SOL     OW43873   9.983   0.860   4.555  0.0299 -0.2363  0.2745
12594SOL    HW143874   9.953   0.840   4.643 -0.0320 -0.2879  0.2412
12594SOL    HW243875   9.951   0.788   4.501 -1.2490  0.5498 -0.0572
12595SOL     OW43876   8.088  10.681   6.434  0.6005  0.4988  0.4221
12595SOL    HW143877   8.062  10.609   6.492 -0.6801 -0.7741 -1.5942
12595SOL    HW243878   8.175  10.656   6.402  1.2236  1.1083  1.5677
12596SOL     OW43879   1.545   5.371   9.033 -0.1826  0.0507 -0.2444
12596SOL    HW143880   1.490   5.320   8.973 -1.9848  1.3191  0.2122
12596SOL    HW243881   1.584   5.439   8.978 -1.3572  0.8483 -0.1365
12597SOL     OW43882   1.858   0.655   9.948  0.5962  0.0127  0.0701
12597SOL    HW143883   1.890   0.690   9.865  0.7965  0.5158  0.3508
12597SOL    HW243884   1.795   0.721   9.979  0.0620 -0.4696  0.0214
12598SOL     OW43885   2.583   2.533  10.725 -0.0328 -0.4091 -0.0800
12598SOL    HW143886   2.608   2.454  10.676  0.1558 -0.3616 -0.0613
12598SOL    HW243887   2.498   2.511  10.763  0.1979 -0.7507  0.2521
12599SOL     OW43888   4.728   7.650   3.875 -0.2272 -0.1750 -0.6186
12599SOL    HW143889   4.686   7.581   3.926  2.4183 -2.7341 -1.6049
12599SOL    HW243890   4.711   7.628   3.784  0.9025  0.2888 -0.9658
12600SOL     OW43891   2.199   4.326   6.363 -0.3851  0.1838 -0.7925
12600SOL    HW143892   2.104   4.313   6.360 -0.7165  2.4081 -1.6687
12600SOL    HW243893   2.211   4.420   6.357  1.8898  0.0058 -0.0435
12601SOL     OW43894   5.341   9.985   5.569 -0.3179 -0.2405 -0.4921
12601SOL    HW143895   5.324  10.055   5.505  0.5523  0.4868  0.0547
12601SOL    HW243896   5.328  10.027   5.654 -2.1445 -1.3797 -0.1461
12602SOL     OW43897   5.395   8.774   5.591  0.2266  0.1044  0.2608
12602SOL    HW143898   5.416   8.682   5.580 -0.7621 -0.2856  1.3842
12602SOL    HW243899   5.438   8.818   5.517 -0.0618 -1.3654 -0.8239
12603SOL     OW43900   5.036   7.850   3.933  0.0034  0.2234 -0.1231
12603SOL    HW143901   4.969   7.867   3.999  0.6115  1.3243  0.2385
12603SOL    HW243902   5.114   7.893   3.967 -0.0195  2.1204 -2.2401
12604SOL     OW43903   6.712   0.642   1.364  0.1477  0.2464  0.2573
12604SOL    HW143904   6.780   0.624   1.299  0.4587  2.2172 -0.0024
12604SOL    HW243905   6.760   0.642   1.448 -0.0546 -1.1119  0.4071
12605SOL     OW43906   5.713   7.777   4.523 -0.0785 -0.7612  0.7877
12605SOL    HW143907   5.678   7.843   4.464 -0.0467 -1.9899 -0.6509
12605SOL    HW243908   5.709   7.818   4.610 -0.1170  1.0885 -0.0398
12606SOL     OW43909   6.264   9.342   0.269 -0.6997 -0.1692 -0.2390
12606SOL    HW143910   6.276   9.289   0.348  0.3943  0.4914  0.0485
12606SOL    HW243911   6.351   9.371   0.245 -1.0063 -0.3840 -1.7387
12607SOL     OW43912  10.370   5.462  10.297 -0.5666  0.2850 -0.5982
12607SOL    HW143913  10.433   5.391  10.308 -0.4007  0.7131  1.6606
12607SOL    HW243914  10.423   5.537  10.270 -0.7176 -0.3179 -2.7871
12608SOL     OW43915   2.646   8.553   7.338 -0.3043 -0.3540 -0.1470
12608SOL    HW143916   2.719   8.607   7.308 -1.4944  1.3765 -0.0659
12608SOL    HW243917   2.632   8.490   7.266  2.2466 -1.8183  0.5328
12609SOL     OW43918   2.207   1.679   9.319  0.3132 -1.2975  0.2470
12609SOL    HW143919   2.240   1.735   9.390  0.2217  0.2818 -0.8998
12609SOL    HW243920   2.147   1.619   9.362 -1.3088  0.9180  1.2870
12610SOL     OW43921   6.891   3.019   7.505  0.1652  0.3899  0.3592
12610SOL    HW143922   6.806   3.056   7.525  0.3030  1.6672 -1.2333
12610SOL    HW243923   6.954   3.081   7.542  0.4412 -0.2729  1.0555
12611SOL     OW43924   6.182   1.743   5.394 -0.2663 -0.0204 -0.5722
12611SOL    HW143925   6.123   1.673   5.366 -0.5340 -0.1114  0.1953
12611SOL    HW243926   6.249   1.698   5.446  0.2342  0.1404 -1.0795
12612SOL     OW43927   2.352   6.710   1.733 -0.3348  0.8893  0.6137
12612SOL    HW143928   2.306   6.626   1.726  0.3637  0.6443 -1.6317
12612SOL    HW243929   2.282   6.776   1.731 -0.8024  0.4261  1.2296
12613SOL     OW43930   2.546   9.124   0.943  0.2225  0.1950 -0.4187
12613SOL    HW143931   2.472   9.068   0.967 -1.1744  1.8176 -0.7204
12613SOL    HW243932   2.546   9.193   1.008  1.1188  0.5434 -0.7706
12614SOL     OW43933   7.125   0.433   0.275  0.1296  0.0676  0.0209
12614SOL    HW143934   7.086   0.520   0.283 -0.0447  0.2117 -1.8610
12614SOL    HW243935   7.117   0.412   0.182 -1.5698 -2.7676  0.6746
12615SOL     OW43936   1.572   8.583   6.680  0.2471 -0.1586 -0.0791
12615SOL    HW143937   1.590   8.515   6.615 -2.1954  0.5586 -1.6246
12615SOL    HW243938   1.564   8.535   6.762  1.3915 -1.3477 -0.6229
12616SOL     OW43939   0.795   2.068   7.104 -0.3254  0.0652  0.5379
12616SOL    HW143940   0.773   1.975   7.099 -0.7302  0.2198 -1.4465
12616SOL    HW243941   0.871   2.078   7.047 -0.8217  1.0766  0.0110
12617SOL     OW43942   2.369   9.646   0.092 -0.0550  0.0400 -0.7339
12617SOL    HW143943   2.425   9.577   0.128 -1.4182 -0.3351  0.7594
12617SOL    HW243944   2.313   9.601   0.029 -0.3022 -0.0455 -0.4549
12618SOL     OW43945   8.855   8.165   3.457 -0.2122 -0.0697 -0.1117
12618SOL    HW143946   8.942   8.143   3.490  0.0091 -0.2149 -0.7718
12618SOL    HW243947   8.872   8.227   3.386 -0.8353  2.9647  2.1847
12619SOL     OW43948   4.983   8.577   6.764 -0.0610  0.0116  0.8932
12619SOL    HW143949   4.981   8.623   6.848 -0.8899 -1.2578  1.6018
12619SOL    HW243950   5.071   8.540   6.760 -0.5828 -1.4759  2.1132
12620SOL     OW43951   8.040   5.419   6.670  0.3497  0.0620  0.5978
12620SOL    HW143952   7.982   5.353   6.709  0.3447 -0.4390 -0.2279
12620SOL    HW243953   8.128   5.384   6.682  0.2270 -1.6981 -2.5490
12621SOL     OW43954  10.826   2.075   5.422 -0.3179  0.0729 -0.0821
12621SOL    HW143955  10.807   2.118   5.339  0.1741  0.8290  0.1919
12621SOL    HW243956  10.902   2.020   5.404 -0.4144 -0.0166 -0.2154
12622SOL     OW43957   2.754  10.813   0.205 -0.4785 -0.1580 -0.5417
12622SOL    HW143958   2.848  10.802   0.188 -0.9718 -0.4782 -3.8070
12622SOL    HW243959   2.725  10.727   0.234  0.2682  0.0691  0.9846
12623SOL     OW43960   4.761   0.805  10.864 -0.5306  0.0745  0.0486
12623SOL    HW143961   4.836   0.846  10.907 -0.5567  0.5583 -0.3546
12623SOL    HW243962   4.766   0.713  10.889  1.2214 -0.2595 -1.3837
12624SOL     OW43963   3.409   0.001   4.289 -0.0446 -0.1657  0.0831
12624SOL    HW143964   3.503   0.014   4.299  0.0202  0.7657 -1.3649
12624SOL    HW243965   3.370   0.049   4.362  0.5845 -0.4106  0.5892
12625SOL     OW43966   3.839   6.902   9.234 -0.0138 -0.0309 -0.4918
12625SOL    HW143967   3.918   6.879   9.186  0.3814  0.4153 -0.0714
12625SOL    HW243968   3.860   6.986   9.276 -0.4214 -0.3030  0.2773
12626SOL     OW43969   4.300   5.024   3.900  0.6041  0.6220 -0.2426
12626SOL    HW143970   4.276   5.033   3.992 -0.0411 -1.9198 -0.0874
12626SOL    HW243971   4.363   4.952   3.899  0.4083  0.4451 -1.8210
12627SOL     OW43972   3.715  10.118   4.559 -0.0147  0.1211 -0.3234
12627SOL    HW143973   3.627  10.093   4.530  0.2536 -0.2010 -0.8842
12627SOL    HW243974   3.702  10.155   4.646 -0.5772 -0.9393  0.0704
12628SOL     OW43975   6.523   3.244   1.076  0.1247 -0.0002  0.1352
12628SOL    HW143976   6.433   3.217   1.096  0.1440  1.0942  1.9062
12628SOL    HW243977   6.572   3.162   1.070 -1.1380 -0.6873 -1.9397
12629SOL     OW43978   8.536   6.258  10.659  0.4305 -0.7964  0.1071
12629SOL    HW143979   8.506   6.217  10.578 -0.2587  1.8900 -1.1140
12629SOL    HW243980   8.456   6.280  10.706  0.3804  3.0768 -1.4398
12630SOL     OW43981   4.057   8.228   4.393 -0.0627  0.1963  0.3258
12630SOL    HW143982   4.046   8.292   4.323  0.8468  1.2142  1.0788
12630SOL    HW243983   4.111   8.159   4.354  0.1993  0.6183 -0.0690
12631SOL     OW43984   2.431   9.473   9.002  0.4364 -0.9851 -0.1505
12631SOL    HW143985   2.362   9.485   8.936  0.0884  1.4229  0.5246
12631SOL    HW243986   2.453   9.380   8.998 -0.8270 -1.2558 -2.3903
12632SOL     OW43987   9.133   3.784   3.320 -0.7389  0.2427 -0.2905
12632SOL    HW143988   9.046   3.820   3.334 -1.1536  0.3489 -2.6710
12632SOL    HW243989   9.170   3.837   3.249  1.5851  0.6680  1.1223
12633SOL     OW43990   8.786   4.809  10.090 -0.0744  0.8087  0.2835
12633SOL    HW143991   8.804   4.783  10.000  1.8098  0.3355  0.7430
12633SOL    HW243992   8.694   4.789  10.103  0.2128 -1.4959 -0.7874
12634SOL     OW43993   2.695   2.859   9.293 -0.3284  0.6463  0.0412
12634SOL    HW143994   2.607   2.856   9.256 -0.5156  1.1381  0.4458
12634SOL    HW243995   2.683   2.850   9.387  0.1293 -0.3008  0.0220
12635SOL     OW43996   7.309   1.149   0.789  0.1265  0.5971  0.1394
12635SOL    HW143997   7.220   1.112   0.790  1.3222 -2.6532 -0.7486
12635SOL    HW243998   7.320   1.188   0.876 -2.0905  1.0022  0.3010
12636SOL     OW43999   0.074   0.786   1.120  0.6777 -0.2998 -0.0116
12636SOL    HW144000  -0.004   0.763   1.070  0.2624 -1.3736  1.0759
12636SOL    HW244001   0.147   0.762   1.063  0.2315  0.8527 -1.0930
12637SOL     OW44002  10.848   7.429   3.208 -0.1473 -0.3536  0.1588
12637SOL    HW144003  10.942   7.445   3.198 -0.4964  1.2567 -1.1034
12637SOL    HW244004  10.808   7.514   3.188 -1.9563 -1.4653 -1.1850
12638SOL     OW44005   9.949  10.591   6.808 -0.6987 -0.0938  0.2461
12638SOL    HW144006   9.884  10.660   6.791 -0.5067  0.6985  2.4541
12638SOL    HW244007  10.034  10.636   6.801 -0.5106 -0.4428  0.2802
12639SOL     OW44008   3.089   8.754   3.679  0.0795 -0.3495 -0.1150
12639SOL    HW144009   3.021   8.693   3.707 -1.1686  2.0921  2.7745
12639SOL    HW244010   3.164   8.734   3.735 -0.7726  1.3852  1.8193
12640SOL     OW44011   7.799   5.030   5.199 -0.5017 -0.0662 -0.0932
12640SOL    HW144012   7.736   5.025   5.271  0.4718  2.8844  1.1302
12640SOL    HW244013   7.762   5.093   5.138  1.3544  2.1787  0.9267
12641SOL     OW44014   4.284   5.998   1.106  0.1449 -0.4806  0.1031
12641SOL    HW144015   4.212   6.040   1.059 -0.0904  0.9194  1.6189
12641SOL    HW244016   4.241   5.936   1.165  0.1468  0.5275  1.1784
12642SOL     OW44017   8.494   9.803   6.385 -0.1879 -0.6383 -0.0361
12642SOL    HW144018   8.476   9.866   6.315 -2.0811  1.1021  1.9101
12642SOL    HW244019   8.409   9.769   6.410  0.5862 -2.2149  0.6123
12643SOL     OW44020   1.380   5.917   9.238 -0.5282 -0.3544  0.1065
12643SOL    HW144021   1.292   5.905   9.275 -0.9836 -0.7355 -1.0594
12643SOL    HW244022   1.417   5.829   9.235  0.1425 -0.1279  1.1401
12644SOL     OW44023   5.687   8.120  10.820 -0.8096  0.3465  0.0812
12644SOL    HW144024   5.707   8.027  10.811  0.6757  0.4902  1.2739
12644SOL    HW244025   5.595   8.123  10.845 -0.7805 -0.8336  0.3959
12645SOL     OW44026   5.029   9.063   6.180  0.1359  0.1370 -0.2103
12645SOL    HW144027   5.069   8.976   6.170  2.4760  0.9711  0.9820
12645SOL    HW244028   4.996   9.085   6.093 -1.5991 -2.3763 -0.2882
12646SOL     OW44029   5.502   8.694   9.189 -0.0732 -0.4031 -0.0699
12646SOL    HW144030   5.453   8.638   9.250 -0.2059  1.7281  1.8930
12646SOL    HW244031   5.579   8.721   9.238  1.0937 -0.5490 -1.7567
12647SOL     OW44032   7.348  10.577   5.821 -0.3317 -0.6299 -0.3806
12647SOL    HW144033   7.330  10.483   5.814 -1.3868 -0.6261  1.5370
12647SOL    HW244034   7.418  10.584   5.886 -0.0845 -0.1016 -0.6966
12648SOL     OW44035   5.225   8.302   7.511  0.3359 -0.2446  0.2818
12648SOL    HW144036   5.235   8.387   7.556  2.7940 -0.5932  0.5067
12648SOL    HW244037   5.275   8.241   7.565  0.0529 -1.4890 -0.8410
12649SOL     OW44038   9.657   3.016   3.223 -0.3776 -0.0380  0.5397
12649SOL    HW144039   9.744   3.012   3.183 -1.3152  0.8441 -1.7540
12649SOL    HW244040   9.614   2.936   3.192 -1.1870  0.7650 -0.4921
12650SOL     OW44041   3.086   9.651   7.516  0.1728 -0.2725 -0.4146
12650SOL    HW144042   2.995   9.680   7.515 -0.0269 -0.8992 -0.6348
12650SOL    HW244043   3.120   9.681   7.600 -0.3827 -0.4672 -0.1167
12651SOL     OW44044   0.015   7.474   4.842  0.0637  0.1843 -0.5301
12651SOL    HW144045   0.035   7.561   4.878  1.8442 -0.1367 -0.6687
12651SOL    HW244046  -0.050   7.491   4.773  1.0876  1.5424 -1.2054
12652SOL     OW44047   4.822   6.524  10.104  0.6540  0.8407  0.3820
12652SOL    HW144048   4.862   6.444  10.138  0.6196  1.6607  2.5181
12652SOL    HW244049   4.740   6.533  10.153 -0.2809  1.2152 -1.1765
12653SOL     OW44050  10.340   6.741   5.976  0.1465 -0.7494  0.1361
12653SOL    HW144051  10.308   6.651   5.971 -0.8532 -0.4710  1.0444
12653SOL    HW244052  10.410   6.745   5.911 -1.7893 -1.3589 -2.1102
12654SOL     OW44053   5.157   0.466   0.893 -0.5528  0.3580 -0.0935
12654SOL    HW144054   5.227   0.407   0.922 -0.1332  0.4638 -0.8787
12654SOL    HW244055   5.099   0.472   0.969  0.9219  1.2495  1.0372
12655SOL     OW44056   6.697   2.641   9.386  0.2732  0.3951  0.0758
12655SOL    HW144057   6.678   2.560   9.435 -0.8890  1.5072  1.5657
12655SOL    HW244058   6.611   2.679   9.370  0.8659  2.5157  1.5291
12656SOL     OW44059   7.745   6.403   8.900  0.1351 -0.2858 -0.1310
12656SOL    HW144060   7.813   6.363   8.845  1.3214 -0.7670  1.5936
12656SOL    HW244061   7.668   6.347   8.888  1.3095 -2.2807  1.0379
12657SOL     OW44062   5.219  10.207   5.063 -0.4819  0.0696  0.1355
12657SOL    HW144063   5.131  10.208   5.026 -0.4526 -1.0548 -0.0200
12657SOL    HW244064   5.250  10.117   5.049  0.1947  0.0830  1.3633
12658SOL     OW44065   0.048   8.244   1.059  0.4068 -0.4937 -0.3962
12658SOL    HW144066   0.134   8.214   1.030  0.3176 -0.7476 -0.3996
12658SOL    HW244067   0.066   8.326   1.106  0.6490 -0.5399 -0.4061
12659SOL     OW44068   6.753   6.622   1.573 -0.1308  0.2718  0.1107
12659SOL    HW144069   6.813   6.627   1.647  1.6233 -2.8729 -0.8762
12659SOL    HW244070   6.755   6.709   1.534  1.7605  0.9954  1.6578
12660SOL     OW44071   4.822   9.594   3.777  0.5573  0.1241 -0.4878
12660SOL    HW144072   4.798   9.573   3.687  2.1944  0.1986 -0.9715
12660SOL    HW244073   4.783   9.679   3.794 -1.2525 -0.6556 -0.4929
12661SOL     OW44074   8.474   3.890  10.024 -0.0937  0.3422 -0.0616
12661SOL    HW144075   8.472   3.848   9.938 -1.3367 -1.6808  0.8761
12661SOL    HW244076   8.488   3.983  10.005  0.9235 -0.1995 -2.3567
12662SOL     OW44077  10.026   1.905   8.795 -0.3361 -0.6109 -0.0059
12662SOL    HW144078  10.070   1.987   8.772 -1.4636 -0.4295 -1.7174
12662SOL    HW244079   9.939   1.932   8.824 -0.3649 -1.1433  0.4020
12663SOL     OW44080   7.309   1.225   8.397  0.2138 -0.0038 -0.1416
12663SOL    HW144081   7.255   1.284   8.450 -0.9683  0.5484 -1.8961
12663SOL    HW244082   7.394   1.270   8.391 -0.4500  1.2100 -0.8615
12664SOL     OW44083   3.415   0.928   4.336 -0.5803  0.2642 -0.5837
12664SOL    HW144084   3.493   0.887   4.298 -0.4024 -0.5740  0.6212
12664SOL    HW244085   3.362   0.954   4.261  0.3617 -0.1414 -1.4055
12665SOL     OW44086  10.146   6.347   8.677  0.1687 -0.6312 -0.0963
12665SOL    HW144087  10.080   6.399   8.723 -0.4781 -0.8471 -0.7669
12665SOL    HW244088  10.228   6.367   8.723  0.2193  2.0736 -1.1495
12666SOL     OW44089   2.152   8.011   8.068 -0.5220  0.2228 -0.3566
12666SOL    HW144090   2.076   7.977   8.020 -1.4349  0.0782  1.1310
12666SOL    HW244091   2.126   8.007   8.160  1.6493 -0.7236  0.2763
12667SOL     OW44092   3.450   1.748   9.875  0.2554 -0.2140 -0.0479
12667SOL    HW144093   3.543   1.747   9.850 -0.1628  0.3782 -1.7886
12667SOL    HW244094   3.410   1.811   9.815 -1.3495 -0.7421  0.4178
12668SOL     OW44095   7.232   9.085   1.961  0.4526  0.1148  0.8482
12668SOL    HW144096   7.319   9.068   1.996  0.5920  1.4707  1.1894
12668SOL    HW244097   7.237   9.054   1.870  0.8086 -1.2114  1.2961
12669SOL     OW44098   1.213   5.425  10.774  0.1209  0.9553 -0.1838
12669SOL    HW144099   1.240   5.343  10.733 -0.3075  0.5967  0.2404
12669SOL    HW244100   1.118   5.420  10.778  0.0568  1.7467 -0.7052
12670SOL     OW44101   5.929   6.790   9.970 -0.1050 -0.6183 -0.0091
12670SOL    HW144102   5.955   6.873   9.931 -1.3932 -1.8985 -4.1057
12670SOL    HW244103   6.012   6.748   9.994  0.6870  0.8962 -0.0067
12671SOL     OW44104   3.845   0.436   5.998  0.7641  0.1410 -0.5141
12671SOL    HW144105   3.763   0.451   5.952  1.0658  1.8489 -0.5502
12671SOL    HW244106   3.820   0.422   6.089  0.4446  0.8344 -0.4944
12672SOL     OW44107   0.782   2.405   5.390  0.3759 -0.8221  0.1506
12672SOL    HW144108   0.843   2.378   5.321 -0.0006  0.4605 -0.7056
12672SOL    HW244109   0.831   2.467   5.442  0.4935 -1.4135  0.7554
12673SOL     OW44110   2.751   0.639   8.689 -0.0228 -0.6519  0.3874
12673SOL    HW144111   2.669   0.605   8.725 -0.7660  1.3724  0.7373
12673SOL    HW244112   2.816   0.619   8.757 -0.7676  0.1070  1.3622
12674SOL     OW44113   9.716   4.250   5.967  0.1222 -0.0150 -0.1456
12674SOL    HW144114   9.798   4.284   6.003 -1.1264  0.8874  2.0291
12674SOL    HW244115   9.651   4.317   5.987 -1.4977 -1.4828 -0.2138
12675SOL     OW44116   3.950   5.778   9.362 -0.2513  0.2560 -0.4184
12675SOL    HW144117   3.940   5.808   9.272  0.2295  1.2285 -0.1720
12675SOL    HW244118   3.981   5.856   9.409  0.4063 -0.4714  0.3976
12676SOL     OW44119   6.473   1.854   4.301 -0.4924  0.2299  0.0007
12676SOL    HW144120   6.385   1.837   4.335 -1.4619  1.4253 -1.7742
12676SOL    HW244121   6.490   1.781   4.242 -0.1528 -0.1450  0.5500
12677SOL     OW44122   5.766   5.657   2.407  0.4873  0.5712  0.0657
12677SOL    HW144123   5.744   5.658   2.314 -0.5944  0.3711  0.3062
12677SOL    HW244124   5.835   5.722   2.416 -0.7480  2.0329 -0.5646
12678SOL     OW44125   7.581   6.206   9.753  0.1492  0.2857 -0.5685
12678SOL    HW144126   7.575   6.234   9.844  2.0170  1.3364 -0.7016
12678SOL    HW244127   7.492   6.210   9.720 -0.6044 -0.3982  1.2772
12679SOL     OW44128   3.451   2.317   8.640 -0.0561  0.0487  0.0052
12679SOL    HW144129   3.540   2.283   8.627 -0.4252 -0.5505 -1.1103
12679SOL    HW244130   3.461   2.412   8.638  0.6594 -0.0043  0.6578
12680SOL     OW44131   6.994   4.406   3.085  0.6359  0.0100 -0.2802
12680SOL    HW144132   7.039   4.365   3.158  0.7002 -1.9222 -1.3395
12680SOL    HW244133   6.976   4.334   3.024 -0.5495  1.3360 -1.5849
12681SOL     OW44134   9.385   3.278   2.087 -0.4471 -0.1304  0.6015
12681SOL    HW144135   9.341   3.233   2.160  0.3609 -0.4495  0.8990
12681SOL    HW244136   9.370   3.371   2.104 -2.0144 -0.2459  0.0620
12682SOL     OW44137   2.283   3.107   9.143 -0.5478 -0.2587 -0.0227
12682SOL    HW144138   2.262   3.164   9.069 -2.6908  0.5385  1.1214
12682SOL    HW244139   2.337   3.162   9.201  0.4550 -0.6253 -0.5822
12683SOL     OW44140   6.686   7.433  10.438  0.1944  0.6213 -0.2421
12683SOL    HW144141   6.726   7.468  10.358  1.2480  1.2839  0.5378
12683SOL    HW244142   6.744   7.464  10.508 -1.1714  0.7633  0.8565
12684SOL     OW44143   0.537   5.811   2.634 -0.2197  0.1353  0.5985
12684SOL    HW144144   0.446   5.839   2.624  0.2067  1.6474  0.6343
12684SOL    HW244145   0.543   5.782   2.725 -0.7725 -0.4241  0.4595
12685SOL     OW44146  10.805   2.171   4.857 -0.0181 -0.3755 -0.1796
12685SOL    HW144147  10.851   2.216   4.929 -1.0067  2.5138 -1.2073
12685SOL    HW244148  10.851   2.200   4.778 -2.0028  0.6356 -1.0333
12686SOL     OW44149   2.656   5.440   1.486  0.5526 -0.0093 -0.0232
12686SOL    HW144150   2.695   5.360   1.451  0.0392 -0.2472 -0.0661
12686SOL    HW244151   2.684   5.441   1.578 -0.1320 -0.6958  0.2085
12687SOL     OW44152   5.344   2.175   5.244  0.2725  0.0019  0.1762
12687SOL    HW144153   5.415   2.216   5.194  0.0889 -1.3098 -1.2632
12687SOL    HW244154   5.266   2.188   5.190 -0.0106 -1.0696  0.2979
12688SOL     OW44155   5.376  10.691  10.581  0.2543 -0.5069  0.0258
12688SOL    HW144156   5.410  10.666  10.496  3.5272  0.5786  0.8735
12688SOL    HW244157   5.337  10.777  10.567 -1.1234 -1.2219 -0.7238
12689SOL     OW44158   7.238   4.412   0.072  0.7596  0.2852 -1.0233
12689SOL    HW144159   7.222   4.375  -0.015  0.5741  0.5425 -1.0995
12689SOL    HW244160   7.153   4.406   0.116  0.9651 -0.2803 -0.6922
12690SOL     OW44161   8.494   8.221   8.010 -0.7415 -0.2234 -0.2247
12690SOL    HW144162   8.573   8.258   8.050 -0.4496 -0.0274 -0.9658
12690SOL    HW244163   8.436   8.202   8.084 -1.1002  2.1791  0.1943
12691SOL     OW44164   7.937  10.039   3.789  0.0575  0.0312 -0.3760
12691SOL    HW144165   7.980   9.958   3.817 -0.5538 -0.0160  0.4688
12691SOL    HW244166   7.845  10.015   3.780 -0.0096  0.4547 -0.8510
12692SOL     OW44167   4.355   5.703  10.855  0.1232  0.4657 -0.0433
12692SOL    HW144168   4.422   5.702  10.787 -0.3452  0.0141 -0.5134
12692SOL    HW244169   4.277   5.736  10.811  0.0151  0.8984  0.4750
12693SOL     OW44170   0.290   3.663  10.373  0.5786  0.4844  0.3758
12693SOL    HW144171   0.377   3.688  10.405  1.0439  0.3403 -0.7356
12693SOL    HW244172   0.307   3.602  10.301 -0.4242  0.6984 -0.0664
12694SOL     OW44173   1.716   9.490   8.138  0.3015  0.2278  0.1309
12694SOL    HW144174   1.731   9.581   8.164 -2.8794  1.0229 -0.4034
12694SOL    HW244175   1.622   9.478   8.146  0.6572 -3.3167  0.9306
12695SOL     OW44176   7.306   9.109   9.008  0.4352 -0.0153 -0.1249
12695SOL    HW144177   7.227   9.105   8.954  0.9171  1.5558 -1.0163
12695SOL    HW244178   7.283   9.064   9.089 -1.2401  0.0643 -0.5271
12696SOL     OW44179   8.467   9.786   1.111  0.0762  0.6609  0.4604
12696SOL    HW144180   8.462   9.771   1.206  0.3303 -0.1933  0.3461
12696SOL    HW244181   8.465   9.698   1.073  0.2214  0.9910 -0.3199
12697SOL     OW44182   7.263   8.378   9.145  0.1303  0.3283  0.3677
12697SOL    HW144183   7.337   8.431   9.115  0.0232  0.4351  0.2924
12697SOL    HW244184   7.281   8.290   9.111  0.2740  0.3321  0.4338
12698SOL     OW44185   1.389   7.775   1.378  0.2680 -0.6431 -0.2617
12698SOL    HW144186   1.456   7.773   1.310 -0.1552 -1.5888 -0.6678
12698SOL    HW244187   1.436   7.752   1.458  0.3746 -1.7062 -0.6107
12699SOL     OW44188   0.964   9.512   1.400  0.0267  0.5929  0.0637
12699SOL    HW144189   0.953   9.417   1.404  0.8051  0.5107  0.4169
12699SOL    HW244190   0.876   9.546   1.387 -0.2005 -0.2012 -0.5241
12700SOL     OW44191   6.238   8.612   9.768  0.2843 -0.0296  0.1885
12700SOL    HW144192   6.178   8.611   9.694 -0.1135  0.4048  0.5010
12700SOL    HW244193   6.324   8.626   9.728 -0.1857  2.8908 -0.0742
12701SOL     OW44194   5.862  10.236   2.163 -0.2239  0.0858  0.1673
12701SOL    HW144195   5.935  10.208   2.108 -2.1143  0.3323 -2.6715
12701SOL    HW244196   5.881  10.328   2.183  0.8702 -0.2294  0.6865
12702SOL     OW44197   2.712   3.601   9.254  0.4838 -0.7943  0.3564
12702SOL    HW144198   2.658   3.651   9.193  0.1128  0.2554  1.4904
12702SOL    HW244199   2.718   3.657   9.331  0.3642 -2.3615  1.5488
12703SOL     OW44200   1.309   5.073   5.412  0.3901 -0.6576 -0.1555
12703SOL    HW144201   1.378   5.125   5.371 -0.0841 -0.3469 -0.5652
12703SOL    HW244202   1.354   4.994   5.443  0.7699 -0.8672 -1.1986
12704SOL     OW44203   2.620   4.251   6.422 -0.4768  0.2854  0.0158
12704SOL    HW144204   2.559   4.290   6.358 -0.3123  0.0353 -0.2965
12704SOL    HW244205   2.698   4.230   6.371 -0.7482 -0.9166  0.0621
12705SOL     OW44206   1.660   7.503   0.645 -0.4771 -0.9258 -0.0531
12705SOL    HW144207   1.674   7.432   0.582  0.1870 -0.0699 -0.8916
12705SOL    HW244208   1.724   7.569   0.622 -1.7564  0.4058  0.0331
12706SOL     OW44209   8.636   8.552   4.138  0.2035  0.2983 -0.7243
12706SOL    HW144210   8.668   8.637   4.107 -1.1986  0.5462 -1.5232
12706SOL    HW244211   8.679   8.488   4.081 -0.0355  0.5746 -1.2198
12707SOL     OW44212   7.544   8.905   5.204  0.0880 -0.1238  0.0634
12707SOL    HW144213   7.466   8.960   5.194 -0.0049 -0.1728  0.4937
12707SOL    HW244214   7.565   8.876   5.115 -1.9695 -2.3333  0.1956
12708SOL     OW44215   5.373   4.409   6.590  0.0371 -0.6388 -0.3954
12708SOL    HW144216   5.377   4.446   6.678  1.0354  0.8236 -1.0295
12708SOL    HW244217   5.463   4.389   6.567  0.0480  0.7318 -1.7659
12709SOL     OW44218   3.458   0.584   7.674 -0.0353  0.1828  0.6344
12709SOL    HW144219   3.400   0.639   7.622 -1.0316  0.3039  1.8271
12709SOL    HW244220   3.449   0.496   7.635 -2.4701 -0.2108  1.8637
12710SOL     OW44221   8.717   7.620   9.216  0.0345  0.7146  0.2378
12710SOL    HW144222   8.676   7.705   9.199  0.5321  1.2349  1.5124
12710SOL    HW244223   8.795   7.641   9.268  1.1475 -0.3782 -0.9322
12711SOL     OW44224   5.560   9.510   7.524  0.7279 -0.2691  0.0123
12711SOL    HW144225   5.617   9.544   7.455  0.3998  0.7879  0.2309
12711SOL    HW244226   5.492   9.577   7.533  0.6952 -0.4388  1.2656
12712SOL     OW44227   0.138   8.327   2.876 -0.3164  0.3460  0.7957
12712SOL    HW144228   0.213   8.269   2.879 -0.9317 -0.6269 -0.8596
12712SOL    HW244229   0.070   8.280   2.925 -0.9950 -0.7019 -1.0398
12713SOL     OW44230   5.877   6.535   7.675  0.4703 -0.8050 -0.2051
12713SOL    HW144231   5.905   6.455   7.630 -0.5913 -0.8291 -0.8445
12713SOL    HW244232   5.782   6.535   7.668  0.4603  0.6145 -0.3751
12714SOL     OW44233   3.727   0.574   8.692 -0.5345 -0.3258  0.3691
12714SOL    HW144234   3.785   0.504   8.661  0.4445 -0.1992  1.8180
12714SOL    HW244235   3.757   0.652   8.645  0.1226 -0.3707  0.6983
12715SOL     OW44236   2.161   4.872   8.358 -0.7028  0.5304 -0.0517
12715SOL    HW144237   2.255   4.856   8.348 -0.9999 -0.9890 -0.6456
12715SOL    HW244238   2.155   4.967   8.372  0.8986  0.6886 -0.1908
12716SOL     OW44239   1.864   7.444   3.794  0.1401  0.0526 -0.1319
12716SOL    HW144240   1.945   7.430   3.842  2.7945 -2.5933 -4.6288
12716SOL    HW244241   1.891   7.490   3.715 -3.0656  0.4352 -1.1479
12717SOL     OW44242   1.049   2.482   6.956  0.1434 -0.3402  0.3655
12717SOL    HW144243   1.018   2.479   6.866 -0.9219 -2.1722  0.7383
12717SOL    HW244244   1.114   2.412   6.961 -1.1939 -1.5705  1.4483
12718SOL     OW44245   3.684   6.312   7.637 -0.7910  0.1390 -0.3630
12718SOL    HW144246   3.651   6.301   7.726  0.0443 -0.2876 -0.0997
12718SOL    HW244247   3.618   6.367   7.594 -1.3563  0.0942  0.4216
12719SOL     OW44248   1.858   7.766   3.271  0.2417 -0.3852 -0.2137
12719SOL    HW144249   1.925   7.763   3.203 -0.1418 -1.5681 -0.5664
12719SOL    HW244250   1.809   7.846   3.253  1.0168  0.0504 -0.4619
12720SOL     OW44251   1.792   7.669  10.379 -0.4520 -0.0066  0.3663
12720SOL    HW144252   1.727   7.600  10.372 -0.0824 -0.2281 -1.3582
12720SOL    HW244253   1.756   7.730  10.443 -1.7161 -0.7909  0.4222
12721SOL     OW44254   7.693   0.269   0.703 -0.3478  0.2050  0.4802
12721SOL    HW144255   7.747   0.200   0.741 -0.0450 -0.0060 -0.3162
12721SOL    HW244256   7.652   0.312   0.779  1.5068  0.8636  1.1664
12722SOL     OW44257   8.113   9.409   8.541  0.1817 -0.6057 -0.8020
12722SOL    HW144258   8.100   9.486   8.486  1.6768  0.2976  0.0606
12722SOL    HW244259   8.046   9.347   8.511 -0.4763  0.6782 -2.1107
12723SOL     OW44260   7.238   3.543   4.938 -0.5711 -0.1480  0.1197
12723SOL    HW144261   7.201   3.466   4.895  0.6401 -0.5951 -0.1620
12723SOL    HW244262   7.312   3.509   4.988 -0.3602  0.7580  0.4419
12724SOL     OW44263   4.731   1.818   3.579 -0.1226  0.4551  0.2355
12724SOL    HW144264   4.673   1.745   3.556 -0.3774  1.5457 -3.2363
12724SOL    HW244265   4.676   1.896   3.569  0.9962  1.3064  0.5435
12725SOL     OW44266   0.145   4.593   7.890 -0.0290  0.0657 -0.6047
12725SOL    HW144267   0.136   4.666   7.950 -1.3307  1.0549 -1.9198
12725SOL    HW244268   0.055   4.576   7.859  0.5281 -0.6959 -1.9140
12726SOL     OW44269  10.813   0.659   6.093 -1.0255  0.3392 -0.1646
12726SOL    HW144270  10.775   0.626   6.173 -1.0282 -1.2105 -0.7800
12726SOL    HW244271  10.892   0.706   6.121 -1.4713  0.5326  0.7913
12727SOL     OW44272   5.602   6.512   1.949  0.7415 -0.2229  0.3882
12727SOL    HW144273   5.657   6.498   2.026  0.2007 -0.6938  0.6975
12727SOL    HW244274   5.514   6.484   1.976  0.1793  1.1894  0.1414
12728SOL     OW44275   8.425   3.376   6.702  0.2282 -0.0419  0.4054
12728SOL    HW144276   8.387   3.426   6.630  0.3219 -1.4351 -0.6424
12728SOL    HW244277   8.520   3.384   6.690  0.2500 -0.9573 -0.1486
12729SOL     OW44278   0.794   8.772   3.470 -0.0263  0.4594 -0.2983
12729SOL    HW144279   0.813   8.688   3.512  0.0641  0.0952 -1.0443
12729SOL    HW244280   0.768   8.829   3.542  2.1197  0.4622  0.5743
12730SOL     OW44281   8.264   2.701   4.064  0.9268  0.3812 -0.2014
12730SOL    HW144282   8.244   2.782   4.112 -2.4211 -0.1297 -0.4862
12730SOL    HW244283   8.336   2.725   4.006 -0.2777  3.3407 -0.6633
12731SOL     OW44284   3.143   9.621   0.954  0.4457 -0.6379  0.2783
12731SOL    HW144285   3.141   9.537   0.999  3.5621  0.6218  3.2425
12731SOL    HW244286   3.188   9.604   0.871 -0.6677 -2.1451 -0.0480
12732SOL     OW44287   4.818   8.144  10.691 -0.6827  0.1106 -0.2982
12732SOL    HW144288   4.729   8.112  10.705 -1.3847  1.9751 -0.1764
12732SOL    HW244289   4.809   8.210  10.622  0.7833 -0.3830 -1.0047
12733SOL     OW44290   6.709   2.259   9.379 -0.6587  0.4824 -0.2052
12733SOL    HW144291   6.654   2.196   9.332  1.3330 -1.9645  0.5264
12733SOL    HW244292   6.785   2.271   9.322  0.3062 -0.0628  0.9282
12734SOL     OW44293   3.649   8.223   0.030  0.2636 -0.0316  0.1760
12734SOL    HW144294   3.700   8.185  -0.042  0.9248  1.2805 -0.0813
12734SOL    HW244295   3.666   8.317   0.024  0.5342  0.0930  2.1830
12735SOL     OW44296   3.467   4.348   5.602  0.6743  0.1543  0.1740
12735SOL    HW144297   3.473   4.395   5.519 -0.0311 -2.9236 -1.7835
12735SOL    HW244298   3.557   4.344   5.634  1.3339 -0.5373 -1.6603
12736SOL     OW44299   2.901  10.127   8.366  0.1830 -0.4420 -0.3590
12736SOL    HW144300   2.992  10.116   8.392  0.3990  1.3579 -0.2141
12736SOL    HW244301   2.900  10.209   8.317 -1.5968  0.4080  0.9729
12737SOL     OW44302   4.749   4.021   7.044  0.5202 -0.7047  0.3132
12737SOL    HW144303   4.736   3.951   6.979 -0.1235 -0.1392 -0.1872
12737SOL    HW244304   4.842   4.018   7.064  0.9979 -0.1095 -1.5718
12738SOL     OW44305   7.373  10.428   4.137 -0.3116  0.3625  0.0640
12738SOL    HW144306   7.372  10.345   4.089  0.5916 -0.3324  1.1903
12738SOL    HW244307   7.426  10.486   4.082  0.4803 -0.3309  0.0634
12739SOL     OW44308   4.944   8.627   7.297  0.1966  0.4061  0.0842
12739SOL    HW144309   4.881   8.699   7.298 -1.2853 -0.8076 -1.0926
12739SOL    HW244310   4.904   8.560   7.352  0.8587 -0.0726 -0.0175
12740SOL     OW44311  10.541   4.267  10.217  0.1937 -0.3813 -0.2284
12740SOL    HW144312  10.448   4.288  10.220  0.0071 -1.2405  0.8146
12740SOL    HW244313  10.546   4.186  10.166  0.2427 -0.8797  0.5525
12741SOL     OW44314   8.209   1.757   5.215 -0.0865  0.0966 -0.0950
12741SOL    HW144315   8.294   1.801   5.213 -0.1953  0.2963 -0.9942
12741SOL    HW244316   8.230   1.664   5.205  0.1083 -0.0136  1.2166
12742SOL     OW44317   0.709   8.923   5.593  0.7882 -0.1897 -0.0923
12742SOL    HW144318   0.694   8.869   5.516  0.4096  0.9016 -0.8003
12742SOL    HW244319   0.801   8.948   5.588  1.1100 -1.1916  0.5315
12743SOL     OW44320   2.423   1.308   6.447 -0.4650 -0.5223  0.0010
12743SOL    HW144321   2.484   1.256   6.393  0.3772 -1.6777  1.9646
12743SOL    HW244322   2.356   1.337   6.385 -1.6708 -4.9275 -1.1137
12744SOL     OW44323   8.163   3.173   5.894 -0.3406  0.0046  0.4946
12744SOL    HW144324   8.129   3.120   5.822  1.5672 -2.9675  1.6196
12744SOL    HW244325   8.092   3.174   5.959 -1.0390  0.3509 -0.2581
12745SOL     OW44326   8.284   4.126   1.292  0.3849 -0.5342  0.6558
12745SOL    HW144327   8.340   4.204   1.295 -0.3853  0.1082 -0.7650
12745SOL    HW244328   8.195   4.160   1.287  0.0696 -1.4722 -0.6639
12746SOL     OW44329   2.634   9.326   7.788 -0.2424 -0.0155 -0.7841
12746SOL    HW144330   2.623   9.422   7.785  0.2518  0.0476 -0.6657
12746SOL    HW244331   2.550   9.292   7.757 -1.0040  0.4257  0.6864
12747SOL     OW44332   1.478   8.431   3.412 -0.3690  0.2971 -0.1474
12747SOL    HW144333   1.426   8.351   3.415 -1.3687  0.8867 -1.0246
12747SOL    HW244334   1.523   8.434   3.497 -0.1590 -1.2739 -0.1768
12748SOL     OW44335   5.533   1.584  10.108 -0.1307 -0.6537 -0.2807
12748SOL    HW144336   5.442   1.583  10.081 -0.1203  1.3258 -0.5314
12748SOL    HW244337   5.541   1.510  10.168 -1.9276 -0.7927 -0.1555
12749SOL     OW44338   9.724   7.804   6.689  0.9384 -0.2651  0.0286
12749SOL    HW144339   9.696   7.762   6.770 -0.4385 -0.0856 -0.3291
12749SOL    HW244340   9.819   7.813   6.698  1.2197 -2.9065  0.3435
12750SOL     OW44341   8.287   9.300   0.313  0.0473 -0.1179 -0.9014
12750SOL    HW144342   8.208   9.247   0.322 -0.3220  0.4761 -0.5590
12750SOL    HW244343   8.257   9.390   0.326  0.9095  0.0542  0.0223
12751SOL     OW44344  10.394   0.930   0.837 -0.5636  0.2514 -0.3648
12751SOL    HW144345  10.371   1.020   0.813 -1.0362  0.7622  1.7424
12751SOL    HW244346  10.489   0.932   0.848 -0.5851  0.5449 -0.2210
12752SOL     OW44347   2.723   7.397  10.018  0.1346 -0.1586  0.4473
12752SOL    HW144348   2.688   7.402   9.929 -0.7634  0.8782  0.8226
12752SOL    HW244349   2.744   7.488  10.040 -0.0407 -0.3472  1.4303
12753SOL     OW44350   9.289   4.355   7.750  0.2816 -0.5261  0.1543
12753SOL    HW144351   9.324   4.393   7.670 -0.7223  0.6059  0.2257
12753SOL    HW244352   9.194   4.365   7.742  0.0176 -2.3351  0.5383
12754SOL     OW44353   7.696   1.142   2.647  0.0050 -0.5884  0.8242
12754SOL    HW144354   7.743   1.059   2.650  1.2190 -0.0276 -1.0713
12754SOL    HW244355   7.764   1.208   2.646 -0.9318  0.4227  1.6035
12755SOL     OW44356   2.790   3.942   0.884  0.1085 -0.0558  0.1954
12755SOL    HW144357   2.718   3.883   0.859 -1.0037  0.9911  0.8025
12755SOL    HW244358   2.824   3.975   0.801 -0.0008 -0.6936 -0.1106
12756SOL     OW44359   6.469   8.941   4.072 -0.3371 -0.1941 -0.1332
12756SOL    HW144360   6.436   8.953   4.161 -0.1414  0.1252 -0.1011
12756SOL    HW244361   6.428   8.860   4.041 -0.6594 -0.1314  0.1302
12757SOL     OW44362  10.266   6.951   4.992 -0.4770  0.7505  0.1219
12757SOL    HW144363  10.232   7.039   4.977 -2.3427  0.0685  0.1324
12757SOL    HW244364  10.350   6.950   4.946 -1.2672  1.9581 -1.4343
12758SOL     OW44365   4.957   7.499   1.250  0.0476 -0.0256 -0.2578
12758SOL    HW144366   4.946   7.404   1.262 -0.5780  0.0569 -0.1337
12758SOL    HW244367   4.878   7.537   1.289  0.5130  0.5761  0.0971
12759SOL     OW44368  10.044   5.936   8.440  0.5851  0.6126 -0.1845
12759SOL    HW144369  10.097   5.880   8.497 -1.8280 -0.7978  0.8561
12759SOL    HW244370  10.022   6.012   8.493  1.6891  1.3247 -0.7032
12760SOL     OW44371   2.196  10.054   1.057  0.4917 -0.7307  0.2121
12760SOL    HW144372   2.101  10.042   1.063  0.4874 -0.2917  1.2382
12760SOL    HW244373   2.230   9.965   1.046  0.0448 -1.0798  1.3998
12761SOL     OW44374   1.659   5.730   6.888  0.2889 -0.1721 -0.3486
12761SOL    HW144375   1.690   5.689   6.968  1.5696 -0.2900 -0.8894
12761SOL    HW244376   1.564   5.734   6.899  0.3688 -0.9597  0.7958
12762SOL     OW44377   8.525   4.350   0.772 -0.3530 -0.3300  0.0407
12762SOL    HW144378   8.512   4.297   0.851 -4.2453 -1.1396 -0.9500
12762SOL    HW244379   8.508   4.440   0.801 -1.7575 -0.6203  0.1908
12763SOL     OW44380   5.233   5.421   3.018 -0.2313  0.3663 -0.0002
12763SOL    HW144381   5.275   5.449   3.100  1.7339  0.3533 -0.9249
12763SOL    HW244382   5.161   5.483   3.006  0.7233  1.6772  0.7113
12764SOL     OW44383   8.153   2.446   6.283 -0.2741  0.0847  0.7902
12764SOL    HW144384   8.191   2.478   6.365 -1.4996  0.0411  1.3998
12764SOL    HW244385   8.083   2.508   6.263 -1.2107 -0.9336  0.7942
12765SOL     OW44386   2.831   9.082   0.571  0.1947 -0.5186 -0.1633
12765SOL    HW144387   2.742   9.104   0.545  0.2242 -1.0553 -0.7518
12765SOL    HW244388   2.885   9.153   0.535 -0.0043 -0.1268  0.3037
12766SOL     OW44389   6.709   3.181   6.055  0.4169  0.1027  0.4658
12766SOL    HW144390   6.624   3.136   6.048  0.9720 -0.9411  0.2691
12766SOL    HW244391   6.752   3.165   5.971  0.9291  0.3979  0.6655
12767SOL     OW44392   1.850  10.604   7.557 -0.1254  0.2701 -0.4612
12767SOL    HW144393   1.922  10.650   7.513  0.0128  1.2334  0.7037
12767SOL    HW244394   1.893  10.538   7.611  0.0961  1.8865  1.4874
12768SOL     OW44395   6.805   2.975   3.372  0.8010 -0.1492  0.4174
12768SOL    HW144396   6.805   3.009   3.461  0.7293  0.4936  0.1802
12768SOL    HW244397   6.750   3.036   3.323 -3.1394 -2.9952  0.8294
12769SOL     OW44398   3.860   8.034   0.654  0.3096 -0.2042 -0.2733
12769SOL    HW144399   3.924   7.966   0.675  0.5401  0.2489  0.5010
12769SOL    HW244400   3.798   7.990   0.594  0.6431 -0.9922 -0.0558
12770SOL     OW44401   6.226  10.740  10.735  0.0308  0.6888 -0.4185
12770SOL    HW144402   6.273  10.657  10.744 -1.9643 -0.2699  2.5121
12770SOL    HW244403   6.254  10.792  10.811 -0.8759  1.5481 -0.6553
12771SOL     OW44404   6.489   5.454   4.644 -0.4402  0.4296  0.2982
12771SOL    HW144405   6.515   5.522   4.582 -0.4017 -0.4470 -0.6929
12771SOL    HW244406   6.548   5.463   4.718 -0.6211  1.6419  0.3027
12772SOL     OW44407   1.371   1.302   1.772 -0.1033 -0.3607  0.2626
12772SOL    HW144408   1.315   1.236   1.732  1.3550 -1.6498  0.3039
12772SOL    HW244409   1.408   1.351   1.698 -1.3606  0.6220  0.2380
12773SOL     OW44410   9.010  10.895  10.105  0.5166  0.4885  0.2535
12773SOL    HW144411   9.099  10.891  10.141  0.0729  0.8321  1.4098
12773SOL    HW244412   9.023  10.892  10.010  1.7873  0.9085  0.3974
12774SOL     OW44413   1.879   1.053   6.077 -0.6038  0.1743  0.1796
12774SOL    HW144414   1.812   1.101   6.125  0.5234  2.3653 -0.3247
12774SOL    HW244415   1.943   1.029   6.145 -0.8537 -0.0710  0.3325
12775SOL     OW44416   9.691   1.561   2.425 -0.2181  0.3813  0.3313
12775SOL    HW144417   9.648   1.643   2.402 -1.2707 -0.5270 -1.1670
12775SOL    HW244418   9.620   1.497   2.430  0.5912 -0.4771  1.2949
12776SOL     OW44419   7.418   6.613   8.206  0.1671  0.4064  0.1097
12776SOL    HW144420   7.503   6.624   8.247  0.3000 -1.9379  0.6291
12776SOL    HW244421   7.429   6.537   8.148 -2.0064 -1.2447  1.6916
12777SOL     OW44422   8.019   4.229   1.201  0.1498 -0.3741  0.0940
12777SOL    HW144423   7.966   4.158   1.163  0.9416  0.0010 -1.8441
12777SOL    HW244424   7.957   4.300   1.215 -0.2449 -0.6719 -0.1012
12778SOL     OW44425   0.079   4.868   7.937  0.3245 -0.0675  0.3933
12778SOL    HW144426   0.130   4.864   7.856  0.6478  1.4976  0.4816
12778SOL    HW244427  -0.010   4.888   7.907 -0.1987 -2.3030  0.2743
12779SOL     OW44428   3.849   1.815   1.476  0.6862 -0.0423 -0.4122
12779SOL    HW144429   3.829   1.840   1.386  1.4552  0.7453 -0.3744
12779SOL    HW244430   3.865   1.898   1.522 -0.9320 -0.3246  0.7862
12780SOL     OW44431   9.867   4.082  10.051 -0.0084 -0.1534 -0.6319
12780SOL    HW144432   9.783   4.046  10.024 -1.0557  2.3142 -0.9803
12780SOL    HW244433   9.867   4.076  10.147 -0.3241 -0.6914 -0.6680
12781SOL     OW44434   4.016   3.452   0.272  0.3734  0.1668 -0.0733
12781SOL    HW144435   3.984   3.363   0.257  1.0719 -0.1266  0.1578
12781SOL    HW244436   4.059   3.477   0.190 -0.4859  0.5960 -0.4158
12782SOL     OW44437   5.074   4.233   4.124  0.0966 -0.5029 -0.4923
12782SOL    HW144438   5.041   4.164   4.065 -2.2529 -0.9260  1.1976
12782SOL    HW244439   4.998   4.287   4.143  1.4877  1.4543 -0.2221
12783SOL     OW44440   1.359   8.985   1.659  0.3351 -0.2302 -0.4216
12783SOL    HW144441   1.310   9.064   1.682 -1.2797 -1.4531  0.5518
12783SOL    HW244442   1.302   8.913   1.686  1.4793 -1.7461 -1.8791
12784SOL     OW44443   7.555   8.618   8.410  0.2885 -0.1435  0.8724
12784SOL    HW144444   7.604   8.696   8.438  0.6286 -0.2668  0.6224
12784SOL    HW244445   7.617   8.546   8.419  0.4829 -0.1598 -0.4082
12785SOL     OW44446   5.204   6.482   5.838 -0.1521  0.0498  0.3003
12785SOL    HW144447   5.219   6.561   5.787  3.4328 -1.9035 -2.0908
12785SOL    HW244448   5.133   6.437   5.793  0.0646  0.3716 -0.3740
12786SOL     OW44449   2.140   1.566   2.224  0.5323 -0.3605 -0.1444
12786SOL    HW144450   2.111   1.567   2.133  0.2204  1.4634 -0.0616
12786SOL    HW244451   2.233   1.543   2.220  1.0595  1.6924 -1.1416
12787SOL     OW44452   5.508   8.595   2.026  0.5917 -0.3542 -0.5473
12787SOL    HW144453   5.466   8.659   2.084  1.6243 -0.0851 -0.0806
12787SOL    HW244454   5.594   8.632   2.008  1.2916 -1.7077 -0.0986
12788SOL     OW44455  10.838   9.865   7.770  0.1828 -0.5055  0.1210
12788SOL    HW144456  10.789   9.943   7.794  0.3469 -0.3949  0.0970
12788SOL    HW244457  10.906   9.857   7.837  0.6542 -0.1824 -0.3108
12789SOL     OW44458   6.609   9.844  10.234  0.1710  0.2760  0.1315
12789SOL    HW144459   6.531   9.792  10.215 -0.0195  0.5502  0.1619
12789SOL    HW244460   6.673   9.816  10.168  0.3421 -0.5792  0.6384
12790SOL     OW44461   9.257   5.875   7.232  0.1211 -0.3481  0.0662
12790SOL    HW144462   9.183   5.866   7.292 -0.9636 -0.6648 -1.2709
12790SOL    HW244463   9.221   5.855   7.146  1.0106  2.4399 -1.0770
12791SOL     OW44464   5.072   2.094   7.284  0.7772 -0.2000  0.2308
12791SOL    HW144465   5.150   2.080   7.231  0.2125 -0.9157 -0.4444
12791SOL    HW244466   5.000   2.091   7.221  0.0393 -1.6402  1.0950
12792SOL     OW44467   9.603   0.260   2.548  0.1349  0.1617 -0.1469
12792SOL    HW144468   9.539   0.188   2.549  0.6347 -0.3397 -1.3278
12792SOL    HW244469   9.686   0.217   2.566  0.7239  0.0578 -2.6800
12793SOL     OW44470   2.128   9.607   1.543  0.5828  0.5866  0.0522
12793SOL    HW144471   2.078   9.579   1.467  1.5133 -0.4074 -0.2244
12793SOL    HW244472   2.070   9.667   1.589  0.4848  2.2928 -2.1320
12794SOL     OW44473   4.784   5.069   4.541 -0.5734 -0.0938  0.1988
12794SOL    HW144474   4.784   5.146   4.598 -2.1975  0.7344 -0.8635
12794SOL    HW244475   4.814   4.998   4.598  2.1040  1.4617  0.9342
12795SOL     OW44476   8.949   9.384   2.343 -0.0246  0.0227 -0.1041
12795SOL    HW144477   9.013   9.435   2.392 -0.2247  1.8897 -1.6698
12795SOL    HW244478   8.946   9.299   2.388  1.3218  0.9128  1.7742
12796SOL     OW44479   0.615   7.653   0.077  0.0803  0.6075  0.3876
12796SOL    HW144480   0.548   7.706   0.121 -0.9597  0.9505 -1.5015
12796SOL    HW244481   0.567   7.605   0.010  1.9122  2.4395 -2.4526
12797SOL     OW44482   6.289   6.971   9.750 -0.5651 -0.3259  0.2748
12797SOL    HW144483   6.233   6.991   9.825  1.3698 -1.2606  2.0859
12797SOL    HW244484   6.333   7.054   9.730 -0.8807 -0.1434  0.3259
12798SOL     OW44485   9.841   0.080   2.560 -0.5148  0.0141 -0.0294
12798SOL    HW144486   9.795  -0.002   2.542 -0.8473  0.1948 -0.0081
12798SOL    HW244487   9.867   0.074   2.652  1.9919 -1.3150 -0.7209
12799SOL     OW44488   0.981   8.159   4.912 -0.1559 -0.0922 -0.0028
12799SOL    HW144489   1.057   8.130   4.861 -1.3835 -0.3425 -1.7776
12799SOL    HW244490   0.907   8.112   4.873 -1.0579 -1.1515  2.7603
12800SOL     OW44491   9.079   2.661   9.775 -0.4469  0.6282 -0.6831
12800SOL    HW144492   9.005   2.601   9.775  0.1097 -0.0968 -1.9479
12800SOL    HW244493   9.054   2.730   9.713 -0.3882  0.8220 -0.4946
12801SOL     OW44494   4.622   8.123   8.574 -0.2207 -0.2656 -0.0726
12801SOL    HW144495   4.533   8.125   8.538  0.5128 -1.1999 -2.1111
12801SOL    HW244496   4.669   8.191   8.525  0.9315 -1.8854 -1.3169
12802SOL     OW44497   8.276   1.854   3.984 -0.1300 -0.5290 -0.3502
12802SOL    HW144498   8.279   1.949   3.999 -0.9672 -0.6330  0.5340
12802SOL    HW244499   8.230   1.844   3.901  0.5739 -0.1374 -0.7983
12803SOL     OW44500   3.300   0.046   1.179  0.5189 -0.6509 -0.2436
12803SOL    HW144501   3.346   0.130   1.181  0.0019 -0.3448 -0.8347
12803SOL    HW244502   3.261   0.042   1.092  1.2174 -1.8781 -0.5283
12804SOL     OW44503   4.973   5.423   3.728  0.5404  0.1408 -0.9887
12804SOL    HW144504   4.884   5.390   3.712  0.9000 -1.2612 -0.3055
12804SOL    HW244505   4.969   5.462   3.815  0.6800 -0.2602 -0.8018
12805SOL     OW44506  10.358   1.670   8.628  0.0523 -0.1607  0.2096
12805SOL    HW144507  10.268   1.655   8.656 -0.0374  1.1550  0.6621
12805SOL    HW244508  10.390   1.583   8.605 -2.1354 -0.4146 -2.4194
12806SOL     OW44509   3.915   8.407   8.511  0.0905 -0.3532 -0.3042
12806SOL    HW144510   3.945   8.317   8.523 -1.4590 -0.9317 -0.5727
12806SOL    HW244511   3.876   8.431   8.596 -1.7800 -0.8625 -0.9774
12807SOL     OW44512   1.627  10.549   6.625  0.2924 -0.4756  0.0860
12807SOL    HW144513   1.711  10.511   6.648  1.4571  0.3382 -2.3875
12807SOL    HW244514   1.572  10.475   6.601  1.5352 -0.8585 -1.7563
12808SOL     OW44515   4.934   2.859   4.232  0.5118 -0.2912 -0.1594
12808SOL    HW144516   4.929   2.800   4.157  0.2975 -1.4522  0.7451
12808SOL    HW244517   4.887   2.813   4.302 -0.9613  1.5964  0.1778
12809SOL     OW44518   8.959   5.518   5.320  0.1471 -0.0471  1.0391
12809SOL    HW144519   9.016   5.587   5.286 -1.7906  0.8815 -0.4839
12809SOL    HW244520   8.887   5.565   5.362 -0.5466 -1.1576  1.1283
12810SOL     OW44521   1.102   8.852   5.824  0.4227  0.4518  0.2008
12810SOL    HW144522   1.117   8.760   5.841  1.2377  0.5661  0.1038
12810SOL    HW244523   1.077   8.889   5.909  1.9239  0.5059  0.6487
12811SOL     OW44524   0.793   7.278   1.683  0.6957 -0.2003  0.2627
12811SOL    HW144525   0.816   7.214   1.750  0.3026 -0.4226  0.1857
12811SOL    HW244526   0.873   7.330   1.672  0.4149  0.6263  1.7706
12812SOL     OW44527   6.964   4.915   7.945  0.0925 -0.0879  0.1346
12812SOL    HW144528   6.971   5.010   7.943  1.4624 -0.1893 -0.5283
12812SOL    HW244529   6.899   4.894   7.877 -1.0781  0.4243  1.0744
12813SOL     OW44530   1.467   2.643   4.566 -0.1567 -0.1568  0.1877
12813SOL    HW144531   1.532   2.577   4.544 -0.3078 -0.0143 -0.7343
12813SOL    HW244532   1.393   2.624   4.508  0.0074  1.1358 -0.5083
12814SOL     OW44533   7.001   2.411   9.472  0.2413 -0.2459 -0.3143
12814SOL    HW144534   7.034   2.346   9.535 -0.6531 -0.1674  0.2614
12814SOL    HW244535   6.964   2.359   9.401 -0.6722 -0.3986  0.2497
12815SOL     OW44536   0.617   9.175   5.724  0.0098  0.4227 -0.2644
12815SOL    HW144537   0.656   9.096   5.686 -1.3102 -1.4269  1.9284
12815SOL    HW244538   0.673   9.196   5.799 -0.6668  0.3759  0.2748
12816SOL     OW44539   9.199   0.551   3.120 -0.1029  0.0708 -0.4448
12816SOL    HW144540   9.206   0.559   3.215  0.6750 -0.7753 -0.4204
12816SOL    HW244541   9.226   0.636   3.087 -1.2620  0.6866  0.1077
12817SOL     OW44542   6.603   3.692   5.723 -0.1889  0.0711  0.4281
12817SOL    HW144543   6.524   3.668   5.772 -0.8434 -0.0990 -0.6825
12817SOL    HW244544   6.574   3.762   5.664  0.1839 -0.8530 -0.8816
12818SOL     OW44545   0.218   6.155   6.358 -0.2865 -0.1300 -0.5644
12818SOL    HW144546   0.130   6.167   6.392 -0.3250 -0.8681 -0.3854
12818SOL    HW244547   0.239   6.063   6.377  0.4924  0.0187 -0.6596
12819SOL     OW44548   2.176   6.395   2.160  0.1707  0.1362 -0.5196
12819SOL    HW144549   2.238   6.325   2.180  0.0886 -0.0340 -0.8456
12819SOL    HW244550   2.110   6.353   2.104 -0.6777  0.1051  0.4700
12820SOL     OW44551   1.170   9.004   2.829  0.5129 -0.3492 -0.4830
12820SOL    HW144552   1.211   8.960   2.903  0.4236 -0.9657 -0.7886
12820SOL    HW244553   1.081   9.022   2.858 -0.0671 -2.1317 -1.0079
12821SOL     OW44554   5.059   1.831   5.281 -0.1296 -0.6668 -0.5525
12821SOL    HW144555   5.029   1.921   5.294 -1.4477 -1.2885  1.1946
12821SOL    HW244556   5.152   1.833   5.300 -0.3396  0.1823  0.4738
12822SOL     OW44557   4.732   2.637   7.171 -0.6112  0.1398 -1.0022
12822SOL    HW144558   4.653   2.584   7.170 -1.2900  1.0656  0.1415
12822SOL    HW244559   4.797   2.582   7.216 -1.4818  0.4388  0.7387
12823SOL     OW44560   9.383  10.434   7.805  0.5065  0.4710 -0.1513
12823SOL    HW144561   9.320  10.505   7.796 -1.8796 -1.4725  0.3026
12823SOL    HW244562   9.415  10.420   7.716 -1.5256 -0.0389 -0.8426
12824SOL     OW44563   7.490   9.349   2.748 -0.0521 -0.0917 -0.2174
12824SOL    HW144564   7.502   9.282   2.816 -0.5864  1.0947  1.1124
12824SOL    HW244565   7.519   9.307   2.667  1.1623 -1.3845  0.8299
12825SOL     OW44566   0.406   0.130   8.922  0.1664  0.5127  0.2434
12825SOL    HW144567   0.473   0.180   8.876 -0.0485  0.0389 -0.6085
12825SOL    HW244568   0.353   0.091   8.852 -0.0808 -0.3474  0.8927
12826SOL     OW44569   0.345   0.432   5.936  0.0400 -0.4054  0.3310
12826SOL    HW144570   0.415   0.374   5.969 -0.0633 -0.7578 -0.0592
12826SOL    HW244571   0.293   0.453   6.013 -0.5845 -1.7557  0.3088
12827SOL     OW44572   5.546   3.164  10.610  0.0711  0.1054  0.2485
12827SOL    HW144573   5.557   3.117  10.693 -0.5083 -1.2951 -0.4390
12827SOL    HW244574   5.509   3.249  10.635 -3.4989 -1.5372  1.2604
12828SOL     OW44575   6.881   3.246   4.369  0.0306 -0.2975  0.4908
12828SOL    HW144576   6.833   3.254   4.452 -0.6836 -1.0932  0.1569
12828SOL    HW244577   6.838   3.175   4.322  0.5530  0.0163 -0.4918
12829SOL     OW44578   4.083   4.348   9.338 -0.0579 -0.1501 -0.1636
12829SOL    HW144579   4.066   4.279   9.275 -0.5977  0.8920 -1.1914
12829SOL    HW244580   4.060   4.429   9.293  0.4619  0.7091  1.0360
12830SOL     OW44581   8.296   2.758   5.659 -0.3190 -0.4960  0.5150
12830SOL    HW144582   8.207   2.738   5.631  0.4234 -0.5355 -2.0801
12830SOL    HW244583   8.332   2.813   5.589  2.0837 -1.5112  0.8487
12831SOL     OW44584   3.548   0.388   8.485 -0.3622 -0.0862 -0.1694
12831SOL    HW144585   3.518   0.479   8.493  0.1091 -0.0195  0.8984
12831SOL    HW244586   3.479   0.336   8.525 -0.9725 -0.2877 -1.4079
12832SOL     OW44587   0.842   7.734   4.325  0.3425  0.0835  0.0334
12832SOL    HW144588   0.766   7.778   4.286  0.0297  0.2043  0.7663
12832SOL    HW244589   0.911   7.742   4.259  0.4911  2.2497  0.4076
12833SOL     OW44590   9.380   3.241   2.715  0.0599 -0.9211  0.4211
12833SOL    HW144591   9.323   3.166   2.694  0.0720 -1.3973  1.9822
12833SOL    HW244592   9.467   3.213   2.688 -0.3015 -0.4046 -1.4638
12834SOL     OW44593   8.064   9.022   7.332  0.1945 -0.1940 -0.3049
12834SOL    HW144594   8.097   9.106   7.300 -0.0990 -0.7612 -2.2237
12834SOL    HW244595   7.969   9.033   7.335  0.1485 -0.4909 -0.6605
12835SOL     OW44596   7.052  10.376   6.385  0.6202 -0.1291 -0.8070
12835SOL    HW144597   7.132  10.421   6.356 -0.1938  2.5761  0.7783
12835SOL    HW244598   6.986  10.400   6.319  0.0036  1.7986  0.4211
12836SOL     OW44599   9.376   3.220   8.720  0.2669 -0.5006  0.0087
12836SOL    HW144600   9.416   3.232   8.634 -0.4550 -0.9184 -0.3939
12836SOL    HW244601   9.303   3.161   8.704 -1.1570  1.0594  0.5398
12837SOL     OW44602   8.045   4.818   1.464 -0.3245  0.0642  0.3580
12837SOL    HW144603   8.006   4.886   1.410  1.4784  0.2918 -0.7211
12837SOL    HW244604   8.064   4.861   1.547 -2.7319 -0.1823  1.1068
12838SOL     OW44605   9.407   1.006   8.436  0.5247 -0.3260  0.0925
12838SOL    HW144606   9.330   1.052   8.471  0.7773 -0.6949  1.1560
12838SOL    HW244607   9.372   0.954   8.364 -0.1522 -0.1687  0.2948
12839SOL     OW44608   3.388   1.546   8.475 -0.0299  0.2459 -0.1769
12839SOL    HW144609   3.470   1.515   8.513 -1.7138 -1.0817  2.7245
12839SOL    HW244610   3.414   1.605   8.405  3.3620 -0.9721 -0.0925
12840SOL     OW44611  10.373   0.765   2.557 -0.9246 -0.0677  0.4422
12840SOL    HW144612  10.393   0.712   2.479  0.1927  1.5827 -0.4479
12840SOL    HW244613  10.413   0.717   2.630  1.0651  0.0537 -0.4958
12841SOL     OW44614   3.242   4.872   7.667 -0.2149  0.9361 -0.1487
12841SOL    HW144615   3.203   4.812   7.730 -1.5873  0.3548 -1.4778
12841SOL    HW244616   3.306   4.818   7.619  0.0604  1.0921  0.0424
12842SOL     OW44617   9.413   9.130   4.631 -0.6011  0.1992  0.0440
12842SOL    HW144618   9.507   9.149   4.639 -0.4204 -0.1610 -1.1012
12842SOL    HW244619   9.406   9.076   4.553 -1.5578 -1.3173  1.1421
12843SOL     OW44620   7.298   7.515   2.088  0.3379 -0.0603  0.1886
12843SOL    HW144621   7.227   7.573   2.117 -1.3816 -1.6200 -0.6579
12843SOL    HW244622   7.271   7.428   2.119  0.3049 -1.1796 -2.7056
12844SOL     OW44623   3.373   8.614   2.003  0.0374 -0.3224  0.4369
12844SOL    HW144624   3.379   8.521   2.021 -0.9118 -0.5309 -0.2664
12844SOL    HW244625   3.456   8.650   2.034  0.1752 -1.3028  1.2473
12845SOL     OW44626  10.606   7.556   2.185  0.3065  0.0698 -0.0501
12845SOL    HW144627  10.679   7.533   2.242 -0.4071  0.0462  0.8822
12845SOL    HW244628  10.646   7.606   2.114  1.2206  0.1212  0.4800
12846SOL     OW44629   2.675   0.415   0.172  0.0988 -0.0383 -0.4193
12846SOL    HW144630   2.672   0.322   0.196 -0.5837  0.0249 -0.2262
12846SOL    HW244631   2.635   0.460   0.247 -0.0438  0.3625 -0.7345
12847SOL     OW44632   8.657   9.548  10.311 -0.3547 -0.0637  0.0203
12847SOL    HW144633   8.730   9.596  10.273  0.0562 -1.6453 -1.3065
12847SOL    HW244634   8.690   9.516  10.395 -0.3486  1.1825  0.5149
12848SOL     OW44635   9.592   6.808   7.617  0.0268 -0.1375  0.3162
12848SOL    HW144636   9.538   6.802   7.538  1.6943 -0.8556 -0.8472
12848SOL    HW244637   9.649   6.731   7.612  2.0769  1.2855  0.7291
12849SOL     OW44638   6.074   0.020   1.455  0.0848 -0.1896 -0.3386
12849SOL    HW144639   6.129  -0.053   1.484  1.8520  0.3696 -2.0580
12849SOL    HW244640   6.041  -0.007   1.369  0.2136  0.7392 -0.6942
12850SOL     OW44641   2.505   6.883   6.430 -0.4918  0.0145 -0.5495
12850SOL    HW144642   2.585   6.918   6.469  0.2824 -1.0768 -1.1163
12850SOL    HW244643   2.437   6.901   6.495  0.0440  1.6499 -0.3954
12851SOL     OW44644   2.798   8.976   7.867 -0.0353  0.1498 -0.4586
12851SOL    HW144645   2.766   8.910   7.805 -0.8198  2.6436 -2.8886
12851SOL    HW244646   2.722   9.031   7.885  0.9035  1.2038  0.4306
12852SOL     OW44647   9.958   7.087   0.090  0.2746 -0.0581  0.4786
12852SOL    HW144648  10.011   7.135   0.153  0.9434 -1.0145  0.6643
12852SOL    HW244649  10.015   7.075   0.015 -0.3016  0.4958 -0.0551
12853SOL     OW44650   3.335   8.673  10.787 -0.0381 -0.0805 -0.2826
12853SOL    HW144651   3.297   8.598  10.740  0.2719 -0.2955 -0.1963
12853SOL    HW244652   3.329   8.648  10.880 -0.0798  0.0720 -0.2443
12854SOL     OW44653   1.869   9.718   5.131  0.0789  0.2990 -0.8977
12854SOL    HW144654   1.940   9.736   5.192  0.6616 -0.3338 -1.3775
12854SOL    HW244655   1.909   9.664   5.063 -1.3009 -1.7582 -0.1642
12855SOL     OW44656   7.020  10.644   1.605  0.2927 -0.7878 -0.4432
12855SOL    HW144657   7.026  10.629   1.699  0.1515 -0.1779 -0.3329
12855SOL    HW244658   6.978  10.565   1.571 -1.5328 -0.1705  0.2733
12856SOL     OW44659   4.941  10.248   6.565 -0.0987  0.2249  0.2641
12856SOL    HW144660   4.889  10.277   6.640  1.6746  0.6862  1.3601
12856SOL    HW244661   4.901  10.165   6.540 -1.6023  0.7408  0.7872
12857SOL     OW44662   4.759   2.479   6.302 -0.2171  0.3838  0.0440
12857SOL    HW144663   4.796   2.442   6.382  0.1476 -2.5979 -1.3621
12857SOL    HW244664   4.828   2.469   6.237 -0.7937  1.9964 -0.8852
12858SOL     OW44665   1.593   1.170   5.280  0.0759 -0.9515  0.1272
12858SOL    HW144666   1.672   1.124   5.253  0.8454  0.1607  0.4194
12858SOL    HW244667   1.573   1.229   5.208  0.9209  0.4973  1.0249
12859SOL     OW44668   3.389   5.027   0.691 -0.0821 -0.1254  0.4352
12859SOL    HW144669   3.319   5.092   0.686  1.2469  1.2651 -1.9779
12859SOL    HW244670   3.445   5.059   0.762 -0.6260  0.0654  0.7879
12860SOL     OW44671   3.926   3.859   2.263 -0.3390  0.1043 -0.3982
12860SOL    HW144672   3.861   3.791   2.245  0.7125 -1.0846  0.1708
12860SOL    HW244673   3.937   3.858   2.358  0.9711 -0.1699 -0.5371
12861SOL     OW44674   0.736   2.271   6.153 -0.1051  0.0535  0.3315
12861SOL    HW144675   0.785   2.293   6.073  1.0107 -0.3695  0.8847
12861SOL    HW244676   0.657   2.325   6.148 -0.1546 -0.1141 -1.1592
12862SOL     OW44677   3.427   6.694   2.033  0.1749  0.1982  0.6578
12862SOL    HW144678   3.426   6.676   1.939  0.1658 -0.8223  0.8439
12862SOL    HW244679   3.364   6.765   2.045  0.2834  0.4295 -0.1212
12863SOL     OW44680   1.903   4.132   8.837  0.0623 -0.1171 -0.5873
12863SOL    HW144681   1.950   4.050   8.821  0.0096 -0.3015  0.1671
12863SOL    HW244682   1.972   4.196   8.855  0.0456 -0.3483  0.3451
12864SOL     OW44683   5.104   4.567  10.760  0.2435  0.0362  0.3999
12864SOL    HW144684   5.099   4.597  10.851  0.5490 -2.3317  1.2598
12864SOL    HW244685   5.014   4.571  10.728  0.0643  0.4667  0.9502
12865SOL     OW44686   3.739  10.358   3.101 -0.1144  0.2992  0.2923
12865SOL    HW144687   3.700  10.417   3.164 -2.6055  1.5480 -2.2023
12865SOL    HW244688   3.667  10.302   3.072  0.4543  0.8921 -2.5706
12866SOL     OW44689   7.941   8.816   8.714  0.4253  0.1483  0.2078
12866SOL    HW144690   8.000   8.741   8.719 -0.4575 -0.4898  2.0724
12866SOL    HW244691   7.977   8.870   8.644  2.4922 -0.7965  0.4595
12867SOL     OW44692   3.757   7.793   0.126 -0.0406 -0.1129 -1.1695
12867SOL    HW144693   3.732   7.816   0.036  1.2847 -0.9574 -1.7863
12867SOL    HW244694   3.783   7.701   0.121 -0.7437 -0.4193  0.2768
12868SOL     OW44695   6.110   8.666   7.546 -0.1579 -0.1008 -0.2064
12868SOL    HW144696   6.173   8.657   7.617 -1.7682 -1.6711  1.1151
12868SOL    HW244697   6.161   8.701   7.473  2.4369 -2.0299  0.5318
12869SOL     OW44698   5.860   7.287   1.543 -0.4083  0.1098 -0.5087
12869SOL    HW144699   5.811   7.225   1.596 -0.9946  0.0319 -1.1267
12869SOL    HW244700   5.952   7.272   1.567 -0.6029 -0.4716 -0.1110
12870SOL     OW44701   4.512   4.522   6.753 -0.4209  0.2772  0.2978
12870SOL    HW144702   4.540   4.469   6.827  0.7851 -0.1730 -0.4352
12870SOL    HW244703   4.512   4.612   6.785  0.4214  0.1192  0.7581
12871SOL     OW44704   4.851   3.626   5.140 -0.1092  0.0423  0.3776
12871SOL    HW144705   4.863   3.646   5.047 -0.3184  0.1454  0.3738
12871SOL    HW244706   4.799   3.546   5.141  1.4938 -1.0460  0.3749
12872SOL     OW44707   6.634   9.549  10.908 -0.2194  0.1919 -0.1680
12872SOL    HW144708   6.713   9.591  10.941 -1.5407  2.7345  0.0222
12872SOL    HW244709   6.577   9.622  10.882 -1.6210 -1.5793 -2.4624
12873SOL     OW44710   9.436   9.929   6.078 -0.6372  0.2105  0.0701
12873SOL    HW144711   9.493  10.004   6.090  0.2031 -0.3825 -0.0925
12873SOL    HW244712   9.389   9.921   6.161  1.2713 -0.7084  1.1401
12874SOL     OW44713   2.523   1.646   3.603  0.0958  0.4491  0.1622
12874SOL    HW144714   2.554   1.685   3.521 -3.1459  0.9886 -0.9686
12874SOL    HW244715   2.503   1.721   3.659  2.5065  0.0827  1.6590
12875SOL     OW44716   2.997  10.284   4.566 -0.3165 -0.2417 -0.2481
12875SOL    HW144717   3.066  10.337   4.608 -0.2550  0.0781 -0.7431
12875SOL    HW244718   2.949  10.245   4.639 -0.1828  0.2712  0.1222
12876SOL     OW44719   6.759   8.885   2.381 -0.3254 -0.4577  0.3250
12876SOL    HW144720   6.717   8.901   2.296  1.6970 -0.0130 -0.6684
12876SOL    HW244721   6.773   8.973   2.417  2.5561 -0.3109 -0.8850
12877SOL     OW44722   8.178   0.261   4.425  0.1637  0.2621  0.4823
12877SOL    HW144723   8.156   0.252   4.518 -0.8673  1.7899  0.4231
12877SOL    HW244724   8.190   0.355   4.412 -0.6159  0.1725 -1.1093
12878SOL     OW44725   5.153   7.914   1.332  0.2320 -0.3255  0.1388
12878SOL    HW144726   5.164   7.916   1.427 -1.2918  2.1371  0.3521
12878SOL    HW244727   5.198   7.992   1.300  1.1954 -1.4077 -1.2596
12879SOL     OW44728   5.261  10.365  10.880  0.1846 -0.3230 -0.1042
12879SOL    HW144729   5.301  10.433  10.934 -2.3244  0.1913  1.2804
12879SOL    HW244730   5.236  10.410  10.799 -2.3255  0.7929  1.1759
12880SOL     OW44731   1.127   9.481   3.832  0.0754 -0.2190 -0.2936
12880SOL    HW144732   1.076   9.438   3.901 -1.5610  1.3526 -0.4427
12880SOL    HW244733   1.106   9.431   3.753  0.4831 -0.8817  0.0039
12881SOL     OW44734   9.133   3.887  10.800  0.1099  0.0857 -0.3115
12881SOL    HW144735   9.053   3.889  10.746 -0.3123 -0.0952  0.3000
12881SOL    HW244736   9.101   3.879  10.890  0.8484 -1.5200 -0.1565
12882SOL     OW44737   3.810   8.667   6.744  0.4457  0.3720  0.2783
12882SOL    HW144738   3.714   8.670   6.745  0.2214 -1.9446 -2.1591
12882SOL    HW244739   3.833   8.594   6.802  0.5689 -0.3053 -0.5986
12883SOL     OW44740   9.238   6.990   9.313  0.1900 -0.5595 -0.0021
12883SOL    HW144741   9.185   6.945   9.378 -0.1129 -2.2804 -1.3678
12883SOL    HW244742   9.235   6.933   9.236  1.4219  0.8662 -1.1629
12884SOL     OW44743   3.869   0.195   8.312 -0.1906  0.0670 -0.1496
12884SOL    HW144744   3.938   0.216   8.248  0.1498 -0.8363 -0.1046
12884SOL    HW244745   3.839   0.279   8.344  2.2549  0.5062  1.2789
12885SOL     OW44746   5.479   1.708   7.036  0.4113 -0.8344 -0.2351
12885SOL    HW144747   5.497   1.614   7.037  2.0856 -0.5538 -0.9649
12885SOL    HW244748   5.561   1.748   7.064 -0.0322  0.4493 -0.6955
12886SOL     OW44749   7.679   7.115  10.559 -0.8296  0.7506  0.0458
12886SOL    HW144750   7.611   7.165  10.604 -1.2362 -1.4399  2.0170
12886SOL    HW244751   7.751   7.110  10.622 -1.1923 -1.9416  0.3538
12887SOL     OW44752   2.812   1.980   0.140 -0.0754 -0.3094  0.2721
12887SOL    HW144753   2.894   2.023   0.114  1.1517 -2.2244  0.8300
12887SOL    HW244754   2.747   2.050   0.136  2.0218  1.9875  2.3791
12888SOL     OW44755   5.056   9.492   4.828 -0.4491  0.5641  0.2288
12888SOL    HW144756   5.003   9.555   4.780  1.1385  2.7837  1.2154
12888SOL    HW244757   5.025   9.497   4.918 -0.2021  0.0593  0.3463
12889SOL     OW44758   9.716   7.045  10.735  0.7069  0.4975 -0.0685
12889SOL    HW144759   9.746   6.976  10.675 -0.7572  0.8466 -1.2498
12889SOL    HW244760   9.757   7.125  10.703  0.6226  0.5416 -0.0662
12890SOL     OW44761   3.048   9.098   8.366 -0.0010  0.2296  0.1099
12890SOL    HW144762   3.024   9.117   8.457  0.8515  1.2191  0.1534
12890SOL    HW244763   2.968   9.111   8.317 -0.4574 -0.2462  0.7056
12891SOL     OW44764   6.116   1.500   5.259 -0.2526  0.0485  0.2136
12891SOL    HW144765   6.031   1.488   5.216 -0.0030 -2.2652  0.2645
12891SOL    HW244766   6.116   1.436   5.330  0.3793  2.0424  2.1101
12892SOL     OW44767   1.740  10.669   8.203  0.5161 -0.6999 -0.2109
12892SOL    HW144768   1.759  10.704   8.290  1.6699 -0.8683 -0.3807
12892SOL    HW244769   1.656  10.708   8.180  1.1752  1.0313  0.1121
12893SOL     OW44770   6.418   8.125   8.470  0.2865  0.4572  0.3560
12893SOL    HW144771   6.334   8.121   8.517  0.0053 -0.3428 -0.1955
12893SOL    HW244772   6.421   8.043   8.421  0.7324  1.1327 -0.7661
12894SOL     OW44773   3.151   1.324   9.562 -0.8189 -0.1697 -0.2573
12894SOL    HW144774   3.140   1.417   9.544 -1.3160  0.1058  1.2800
12894SOL    HW244775   3.185   1.287   9.481  1.3536  1.6882 -0.2953
12895SOL     OW44776   7.510   4.394   9.264  0.0038 -0.0397  0.4152
12895SOL    HW144777   7.596   4.393   9.222  0.0912 -1.0590  0.5794
12895SOL    HW244778   7.507   4.312   9.314 -0.8956  0.1904  0.7611
12896SOL     OW44779   4.572   1.619   7.590 -0.1840 -0.2401  0.0740
12896SOL    HW144780   4.492   1.631   7.641 -0.1686 -0.9775  0.2867
12896SOL    HW244781   4.592   1.526   7.599  0.3636 -0.1810 -0.4758
12897SOL     OW44782   5.561   9.061   0.923  0.6701 -0.4535  0.3137
12897SOL    HW144783   5.534   9.025   0.838 -3.6639  1.0237  0.8197
12897SOL    HW244784   5.554   8.987   0.983 -1.7574 -0.3617  0.2395
12898SOL     OW44785   5.554  10.783   6.037 -0.1138 -0.1386 -0.2177
12898SOL    HW144786   5.566  10.815   6.126  0.7459 -0.4119 -0.2269
12898SOL    HW244787   5.485  10.716   6.045  1.0839 -1.3295  0.5428
12899SOL     OW44788   6.636   4.114   4.085 -0.3464 -0.1507  0.0239
12899SOL    HW144789   6.626   4.036   4.139 -1.7619  0.1560  0.2537
12899SOL    HW244790   6.563   4.170   4.111 -0.3046  0.5531 -1.2982
12900SOL     OW44791   6.634   5.305   5.156  0.1232 -0.2036  0.1177
12900SOL    HW144792   6.538   5.304   5.153  0.1499 -1.2387 -2.3532
12900SOL    HW244793   6.661   5.279   5.068  2.6958  0.9098  0.4924
12901SOL     OW44794  10.786   0.284   2.714 -0.1273  0.1298 -0.3993
12901SOL    HW144795  10.787   0.218   2.645  1.1893 -2.0102  1.4873
12901SOL    HW244796  10.698   0.278   2.752  0.2020 -1.1971  0.2452
12902SOL     OW44797   9.832   1.093   6.730  0.3286 -0.6168 -0.4047
12902SOL    HW144798   9.753   1.145   6.740 -0.3240 -2.0329  3.5967
12902SOL    HW244799   9.884   1.113   6.808  2.7328 -1.7099 -1.6166
12903SOL     OW44800   4.599   0.083   4.290  0.0876  0.2460 -0.2875
12903SOL    HW144801   4.636  -0.001   4.260  0.8264  0.8395 -1.0999
12903SOL    HW244802   4.622   0.088   4.382 -1.3319 -1.1559  0.1983
12904SOL     OW44803   1.361   9.532   7.925  0.1055  0.0314 -0.0049
12904SOL    HW144804   1.294   9.477   7.965 -1.5944  2.6652  1.0700
12904SOL    HW244805   1.405   9.574   7.999  1.8237 -0.3282 -0.7616
12905SOL     OW44806   2.459   6.397   0.353 -0.2157 -0.0456 -0.8352
12905SOL    HW144807   2.371   6.377   0.383  0.5171  0.4271  1.8541
12905SOL    HW244808   2.517   6.360   0.419  1.4631  2.5421 -0.6937
12906SOL     OW44809   4.507  10.535  10.131 -0.0408  0.6250 -0.0211
12906SOL    HW144810   4.412  10.524  10.130 -0.2136  1.6502 -2.3446
12906SOL    HW244811   4.522  10.612  10.186 -0.3144 -0.7339  2.0594
12907SOL     OW44812   7.112   5.422   9.020 -0.4337  0.0808  0.0641
12907SOL    HW144813   7.148   5.455   9.103  0.7475  0.4849 -0.5746
12907SOL    HW244814   7.093   5.502   8.970 -2.1290 -0.1335  0.3238
12908SOL     OW44815   0.356   2.153   7.136 -0.2937  0.0890  0.5581
12908SOL    HW144816   0.366   2.153   7.041 -2.1071  0.2035  0.3321
12908SOL    HW244817   0.297   2.079   7.154  2.2257 -1.7563  1.9108
12909SOL     OW44818   9.567   6.762   2.451  0.1905 -0.3900  0.1639
12909SOL    HW144819   9.569   6.674   2.489  1.4521 -0.8618 -0.9418
12909SOL    HW244820   9.476   6.774   2.423 -0.2340 -0.9200  1.2531
12910SOL     OW44821   7.811   2.163   5.257 -0.6416 -0.1188  0.1821
12910SOL    HW144822   7.874   2.125   5.196 -0.6858  0.1632 -0.0419
12910SOL    HW244823   7.834   2.126   5.342 -0.7498 -0.7277 -0.0481
12911SOL     OW44824   3.929   4.492   2.887 -0.4369 -0.0273 -0.2561
12911SOL    HW144825   3.919   4.542   2.968  1.2140  1.7985 -1.0914
12911SOL    HW244826   3.984   4.418   2.911 -1.8983 -0.8286  0.7490
12912SOL     OW44827   4.061   7.808   4.687 -0.6128  0.2618  0.4228
12912SOL    HW144828   4.005   7.742   4.729 -0.1772  0.4520  1.3273
12912SOL    HW244829   4.075   7.775   4.599 -0.9257 -0.5401  0.6666
12913SOL     OW44830   5.780   2.621   9.783  0.3672  0.0505 -0.3522
12913SOL    HW144831   5.762   2.709   9.752  0.6900 -0.1817 -1.2198
12913SOL    HW244832   5.695   2.587   9.811  0.3080  0.7795  0.3909
12914SOL     OW44833  10.003   1.159   1.949  0.2978  0.0765 -0.1216
12914SOL    HW144834   9.915   1.127   1.932  0.3720 -0.1452 -0.0897
12914SOL    HW244835   9.990   1.245   1.988  0.1116  0.3764 -0.8297
12915SOL     OW44836   2.821   3.308  10.165 -0.0881 -0.5854 -0.9330
12915SOL    HW144837   2.749   3.311  10.102 -1.0850  0.8821  0.1962
12915SOL    HW244838   2.778   3.289  10.249  0.5539  1.7942  0.0321
12916SOL     OW44839   5.597   1.335   0.212 -0.0507 -0.3528 -0.1964
12916SOL    HW144840   5.531   1.305   0.149 -0.3954  1.0821 -0.5660
12916SOL    HW244841   5.615   1.425   0.185  0.7168 -0.1295  1.0253
12917SOL     OW44842   5.396   0.024   8.097  0.6371  0.2844  0.5798
12917SOL    HW144843   5.317  -0.029   8.087  2.3401 -2.3388  0.0333
12917SOL    HW244844   5.468  -0.037   8.083  2.7910  2.9454 -1.0181
12918SOL     OW44845   7.235   5.448   7.405 -0.2033 -0.0863  0.0792
12918SOL    HW144846   7.255   5.541   7.404 -1.4055  0.1888 -0.9410
12918SOL    HW244847   7.152   5.442   7.452  0.3722 -0.7771  1.0471
12919SOL     OW44848   5.550   6.767   2.034  0.4222  0.0396  0.0284
12919SOL    HW144849   5.634   6.807   2.054  1.0122 -0.7165 -0.8391
12919SOL    HW244850   5.572   6.687   1.987 -0.7868 -0.0430 -0.4427
12920SOL     OW44851   1.612   4.907   0.996  0.3078 -0.1047  0.3933
12920SOL    HW144852   1.665   4.937   0.923  0.5751  0.6362  0.8700
12920SOL    HW244853   1.600   4.986   1.050 -1.6800 -0.1196  0.0534
12921SOL     OW44854   2.670   0.130   2.864 -0.1031  0.2161  0.8006
12921SOL    HW144855   2.669   0.225   2.876 -0.3554  0.6196 -1.8457
12921SOL    HW244856   2.729   0.097   2.932  1.6142  2.4644  0.4901
12922SOL     OW44857   0.300   4.931  10.335 -0.1990  0.5100  0.1490
12922SOL    HW144858   0.359   4.906  10.406  1.3212  0.1854 -1.1707
12922SOL    HW244859   0.265   4.848  10.303 -0.9641  0.6641  0.5689
12923SOL     OW44860   4.613   9.831   4.634 -0.7263  0.5509 -0.1804
12923SOL    HW144861   4.616   9.756   4.693 -1.4833 -0.4126 -1.3070
12923SOL    HW244862   4.644   9.905   4.686 -2.6694  0.0353  1.8325
12924SOL     OW44863   0.831   0.114   9.463 -0.1534 -0.2796 -0.4928
12924SOL    HW144864   0.894   0.108   9.391 -0.5155 -0.4636 -0.7976
12924SOL    HW244865   0.788   0.199   9.450  2.8931  1.8825  2.1046
12925SOL     OW44866   0.815   3.478   9.877 -0.1915 -0.0963 -0.0754
12925SOL    HW144867   0.879   3.548   9.867  0.5652 -0.7512  0.0191
12925SOL    HW244868   0.773   3.472   9.791  4.0983 -3.6121 -2.3749
12926SOL     OW44869   2.910   1.159   8.849 -0.2165  0.0515  0.3480
12926SOL    HW144870   2.912   1.063   8.855 -0.6252 -0.0302 -0.6288
12926SOL    HW244871   2.840   1.177   8.786  1.0291  0.9218 -0.8342
12927SOL     OW44872   4.001   1.291   7.956 -0.3850  0.0656 -0.2128
12927SOL    HW144873   3.971   1.264   7.869 -0.1234  1.0414 -0.6205
12927SOL    HW244874   4.093   1.263   7.959 -0.0118  1.1794 -0.7695
12928SOL     OW44875   1.479   7.821  10.809 -0.0043 -0.1488 -0.3366
12928SOL    HW144876   1.393   7.805  10.771 -0.3949 -0.6830  0.7118
12928SOL    HW244877   1.461   7.838  10.902  1.0050 -0.0919 -0.1386
12929SOL     OW44878   3.879   3.240   6.505 -0.4249  0.0541 -0.7824
12929SOL    HW144879   3.910   3.272   6.421 -3.0774  3.0993 -0.7880
12929SOL    HW244880   3.791   3.206   6.487 -1.5807  1.9545  0.8377
12930SOL     OW44881   1.740   3.064   9.391 -0.1092  0.3422 -0.2570
12930SOL    HW144882   1.658   3.036   9.350 -0.1862 -0.3482  0.3573
12930SOL    HW244883   1.792   2.984   9.397  0.2783  0.6214  0.1212
12931SOL     OW44884   4.138   2.273  10.497  0.1966  0.3504 -0.0518
12931SOL    HW144885   4.160   2.361  10.467 -1.6504  0.7096 -0.4904
12931SOL    HW244886   4.113   2.227  10.417 -2.6024  0.6365  0.5508
12932SOL     OW44887   6.550   4.478   8.244  0.5795  0.3783  0.0973
12932SOL    HW144888   6.629   4.435   8.212  0.3166  1.2421 -1.8967
12932SOL    HW244889   6.479   4.418   8.222  0.5650  0.1514  0.7600
12933SOL     OW44890  10.121   8.821  10.449  0.3098 -0.3783 -0.0147
12933SOL    HW144891  10.099   8.787  10.536  1.4715  0.4179  0.6193
12933SOL    HW244892  10.051   8.883  10.429 -1.5285 -2.6085 -0.9375
12934SOL     OW44893   6.976   7.041   5.302 -0.2328 -0.2423  0.3749
12934SOL    HW144894   6.997   6.951   5.326  0.1253  0.0027  1.0111
12934SOL    HW244895   7.052   7.071   5.252 -0.0408 -0.0799  0.7540
12935SOL     OW44896   7.410   9.750  10.302  0.7009  0.2288 -0.1604
12935SOL    HW144897   7.361   9.832  10.296 -0.7955 -0.7158 -1.6864
12935SOL    HW244898   7.458   9.744  10.219  0.8820 -0.4003 -0.0185
12936SOL     OW44899   0.607   3.746   9.682  0.2529 -0.1034  0.2097
12936SOL    HW144900   0.550   3.767   9.608 -2.0590 -1.9934  1.3030
12936SOL    HW244901   0.669   3.682   9.647 -0.8549 -1.0280 -0.1411
12937SOL     OW44902   3.691   3.997   3.606  0.0130 -0.4499  0.2089
12937SOL    HW144903   3.621   4.002   3.541  1.3958 -2.9759 -1.6313
12937SOL    HW244904   3.646   3.978   3.689 -1.5964 -0.0234 -0.5304
12938SOL     OW44905   4.636   6.594   2.029 -0.0869  0.1458  0.1849
12938SOL    HW144906   4.630   6.523   2.092  2.2921  1.0179  1.5224
12938SOL    HW244907   4.702   6.564   1.966  0.2510  0.7636  0.2376
12939SOL     OW44908   9.723   1.562   5.365  0.2513 -0.4205 -0.1671
12939SOL    HW144909   9.779   1.572   5.442 -1.6471 -1.2203  1.3874
12939SOL    HW244910   9.770   1.500   5.310  0.9764 -0.9471  1.0069
12940SOL     OW44911   2.654   3.523   2.432  0.5930 -0.0448  0.8100
12940SOL    HW144912   2.707   3.602   2.437 -0.2047  0.5694 -0.0443
12940SOL    HW244913   2.643   3.506   2.339  2.6033 -2.4815  0.8995
12941SOL     OW44914   1.541   5.637   6.057 -0.2452  0.1924 -0.6047
12941SOL    HW144915   1.596   5.710   6.086 -0.5456  0.1020  0.2127
12941SOL    HW244916   1.466   5.680   6.016 -0.0659  0.3262 -0.8010
12942SOL     OW44917   2.809   5.686   0.559  0.0776  0.4166  0.2204
12942SOL    HW144918   2.746   5.696   0.630 -2.1528  2.0757 -1.8041
12942SOL    HW244919   2.851   5.772   0.552 -2.5346  1.6606 -2.7357
12943SOL     OW44920   1.391   1.762   9.151 -0.0518 -0.2929  0.1144
12943SOL    HW144921   1.373   1.855   9.163  0.5664 -0.0323 -0.8606
12943SOL    HW244922   1.471   1.760   9.099 -0.0789 -1.3719  0.0987
12944SOL     OW44923  10.423   2.018   0.707 -0.2153  0.5045 -0.2027
12944SOL    HW144924  10.328   2.017   0.723 -0.1251  2.4545  0.7192
12944SOL    HW244925  10.437   2.093   0.650  0.8125  0.4334 -0.0585
12945SOL     OW44926   3.251   7.521   6.150 -0.0176 -0.2604  0.2055
12945SOL    HW144927   3.206   7.606   6.153  0.5582  0.1051 -1.0303
12945SOL    HW244928   3.190   7.464   6.104  0.1530 -0.1619 -0.1439
12946SOL     OW44929   4.535  10.761   1.208 -0.1900  0.0816  0.1282
12946SOL    HW144930   4.599  10.823   1.244  0.7563 -1.3557  1.0352
12946SOL    HW244931   4.581  10.677   1.208 -1.8326 -0.8493  0.0938
12947SOL     OW44932   0.942   7.273   9.997 -0.9089 -0.5367 -0.5557
12947SOL    HW144933   0.944   7.331   9.921  0.0725 -0.5229 -0.5313
12947SOL    HW244934   0.902   7.325  10.067 -0.6731 -0.1246 -0.7270
12948SOL     OW44935   1.064   1.601   3.643 -0.2270  0.2543 -0.1419
12948SOL    HW144936   1.152   1.637   3.630  1.3732 -2.6975  1.4915
12948SOL    HW244937   1.008   1.678   3.651  2.1143  2.2586 -1.5504
12949SOL     OW44938   7.405   3.106   3.135 -0.2563 -0.3212 -0.6552
12949SOL    HW144939   7.491   3.087   3.172 -0.6505 -1.0805 -0.0943
12949SOL    HW244940   7.421   3.174   3.069  0.7493 -0.3809 -0.4830
12950SOL     OW44941  10.018   3.151   5.264 -0.4762  0.5837  0.0405
12950SOL    HW144942   9.995   3.238   5.231 -2.4546  0.9016  2.0341
12950SOL    HW244943  10.090   3.167   5.325 -2.1515  1.2242  1.9702
12951SOL     OW44944  10.084   3.781   1.894 -0.1922  0.0442  0.0852
12951SOL    HW144945   9.999   3.743   1.874  0.2044 -0.6233 -0.3784
12951SOL    HW244946  10.085   3.864   1.846 -0.2394 -0.3610 -0.6290
12952SOL     OW44947   6.960   7.350   9.780  0.3997 -0.4891 -0.3756
12952SOL    HW144948   7.054   7.355   9.801  0.0920 -1.5371  1.4786
12952SOL    HW244949   6.919   7.325   9.863 -1.7248  1.5125 -0.7282
12953SOL     OW44950   0.001   3.722   1.406  0.1271  0.0580 -0.2478
12953SOL    HW144951  -0.041   3.658   1.463 -0.6208  0.7295 -0.0126
12953SOL    HW244952   0.043   3.671   1.338 -2.4196 -0.6427 -1.4225
12954SOL     OW44953   2.045   5.594   3.134 -0.0108 -0.5491  0.0981
12954SOL    HW144954   1.994   5.606   3.215 -0.7702  0.0915 -0.4574
12954SOL    HW244955   2.090   5.511   3.146  0.3054 -0.2188  1.4060
12955SOL     OW44956   6.912   2.676   8.134  0.9194 -0.0010 -0.2727
12955SOL    HW144957   7.006   2.677   8.114  1.2468  0.3161  1.1769
12955SOL    HW244958   6.876   2.607   8.079  2.0770 -0.4126 -0.5361
12956SOL     OW44959   4.281   6.745   7.830 -0.0034 -0.2106 -1.0232
12956SOL    HW144960   4.347   6.781   7.889 -0.0716 -0.6617 -0.6683
12956SOL    HW244961   4.231   6.821   7.801  1.2763  0.2750 -2.0713
12957SOL     OW44962   2.105   8.489   0.379  0.5862 -0.3047  0.2367
12957SOL    HW144963   2.171   8.427   0.409  0.9394 -0.9251 -1.6946
12957SOL    HW244964   2.022   8.443   0.388  0.8706 -1.2042 -1.4321
12958SOL     OW44965   1.755   5.979   1.524 -0.2299  0.7772 -0.2293
12958SOL    HW144966   1.683   5.977   1.461 -0.5945 -0.0734  0.2010
12958SOL    HW244967   1.823   5.924   1.485  0.0530  1.2712 -0.4549
12959SOL     OW44968  10.678   6.416   0.422 -0.1981 -0.0947  0.6709
12959SOL    HW144969  10.618   6.342   0.415 -2.4515  1.4838  2.1708
12959SOL    HW244970  10.744   6.386   0.485 -0.6903 -1.0710  0.7447
12960SOL     OW44971   8.879   8.803   4.375  0.3025 -0.0005 -0.4908
12960SOL    HW144972   8.973   8.817   4.370  0.6445 -1.7047  0.3200
12960SOL    HW244973   8.847   8.814   4.286  1.1739  1.1247 -0.6775
12961SOL     OW44974   1.344   1.279   6.357 -0.2668  0.3834  0.5301
12961SOL    HW144975   1.383   1.244   6.277 -0.6351  0.0536  0.4923
12961SOL    HW244976   1.415   1.280   6.421  0.1179  0.9990  0.0883
12962SOL     OW44977   8.115   9.359   5.245  0.2209  0.2240 -0.2113
12962SOL    HW144978   8.057   9.291   5.277  2.8424 -1.4957  1.2449
12962SOL    HW244979   8.082   9.440   5.284 -0.6722 -0.8302  1.3132
12963SOL     OW44980  10.407   1.912   4.746 -0.6749 -0.5608 -0.0739
12963SOL    HW144981  10.321   1.918   4.787 -0.0956 -1.7432  1.4147
12963SOL    HW244982  10.469   1.930   4.818  0.3281  0.1411 -1.0810
12964SOL     OW44983   9.018   9.454  10.686  0.4119 -0.3516 -0.2526
12964SOL    HW144984   9.103   9.441  10.646 -0.2668 -0.2936 -1.7920
12964SOL    HW244985   9.022   9.542  10.725  0.7874 -0.0178 -1.0324
12965SOL     OW44986   9.482   9.314   0.418 -0.4446 -0.0472  0.0027
12965SOL    HW144987   9.517   9.289   0.333 -3.6007  0.4149 -1.5657
12965SOL    HW244988   9.521   9.251   0.479  2.8731  0.3755 -1.4599
12966SOL     OW44989   8.294  10.378   1.087 -0.1329 -0.2109  0.2397
12966SOL    HW144990   8.344  10.447   1.131  0.6458  0.0842 -1.0348
12966SOL    HW244991   8.337  10.369   1.002 -2.5757  0.4187 -1.1418
12967SOL     OW44992   4.754   1.702   9.434 -0.2822  0.1555 -0.5117
12967SOL    HW144993   4.775   1.720   9.525 -0.1209  1.1803 -0.7424
12967SOL    HW244994   4.796   1.618   9.416 -1.4150 -0.7116  0.7161
12968SOL     OW44995   0.644   4.080   2.184  0.4268 -0.1153  0.0100
12968SOL    HW144996   0.724   4.081   2.131  0.2057 -0.1822 -0.3256
12968SOL    HW244997   0.607   4.168   2.175  0.3379 -0.1560 -0.0290
12969SOL     OW44998   2.121   9.770   5.250 -0.7936 -0.3653  0.3477
12969SOL    HW144999   2.192   9.715   5.284 -1.2543 -1.6023 -0.6115
12969SOL    HW245000   2.158   9.809   5.171  0.1508  2.2184  1.9243
12970SOL     OW45001   9.220   3.399   5.463 -0.1932 -0.1014 -0.1436
12970SOL    HW145002   9.160   3.335   5.502 -0.2412  1.2183  2.1719
12970SOL    HW245003   9.162   3.465   5.424 -0.1745 -0.4207 -0.7213
12971SOL     OW45004   2.281  10.103   7.600  0.6959  0.3692  0.0389
12971SOL    HW145005   2.332  10.125   7.677  1.3317 -1.1614  0.0887
12971SOL    HW245006   2.333  10.035   7.555  0.0839  0.8311 -1.4335
12972SOL     OW45007   3.552   4.211  10.863 -0.4502  0.4706  0.4807
12972SOL    HW145008   3.546   4.259  10.946 -1.6274 -0.3953  0.9321
12972SOL    HW245009   3.495   4.258  10.803  0.1332  0.8982  0.2509
12973SOL     OW45010   6.442  10.144   2.218 -0.0158 -0.5621  0.3753
12973SOL    HW145011   6.430  10.112   2.308 -0.9147 -2.6011 -0.4019
12973SOL    HW245012   6.388  10.223   2.214 -1.9851 -1.7949  0.9831
12974SOL     OW45013   9.272   2.050   4.870  0.6229 -0.1510  0.3691
12974SOL    HW145014   9.356   2.039   4.824  0.7908  0.1567  0.6047
12974SOL    HW245015   9.273   2.140   4.902 -1.1859  1.0135 -2.4492
12975SOL     OW45016   8.881   2.508   9.620 -0.2182 -0.2537  0.3562
12975SOL    HW145017   8.888   2.553   9.536 -0.7057  0.3665  0.6415
12975SOL    HW245018   8.960   2.454   9.625  0.0500  0.0748 -0.2813
12976SOL     OW45019   6.554   0.494   2.211 -0.3822 -0.1530 -0.5161
12976SOL    HW145020   6.575   0.554   2.283 -0.4064 -0.2134 -0.4583
12976SOL    HW245021   6.636   0.483   2.164 -0.5174  0.3994 -0.8826
12977SOL     OW45022   3.340  10.378   4.548 -0.2945 -0.0382 -0.0374
12977SOL    HW145023   3.335  10.287   4.519 -0.9559  0.0724 -0.2840
12977SOL    HW245024   3.402  10.419   4.487 -1.3676  0.0940 -1.0863
12978SOL     OW45025   0.806   1.181   1.719  0.1306 -0.3837  0.1694
12978SOL    HW145026   0.775   1.271   1.731 -0.6811 -0.1884 -2.6298
12978SOL    HW245027   0.877   1.171   1.782 -1.4748  1.2981  2.4150
12979SOL     OW45028   6.278  10.024   7.320  0.2914 -0.7905 -0.0515
12979SOL    HW145029   6.342  10.089   7.351 -0.9844  0.1380  0.7130
12979SOL    HW245030   6.259  10.051   7.230 -0.3988  0.0591  0.3344
12980SOL     OW45031  10.919   8.345   8.558  0.0032  0.2689 -0.0768
12980SOL    HW145032  10.851   8.343   8.491  1.2556  0.4021 -1.4079
12980SOL    HW245033  10.989   8.291   8.522  0.9464  0.8191  0.8710
12981SOL     OW45034   3.803   7.691   5.097  0.3355  0.1947 -0.4874
12981SOL    HW145035   3.803   7.596   5.103  0.3637  0.0593 -2.1086
12981SOL    HW245036   3.718   7.718   5.132 -0.3882 -0.5829 -1.5700
12982SOL     OW45037   3.807   3.687   9.288  0.2369  0.4840  0.2458
12982SOL    HW145038   3.796   3.776   9.254 -0.2417 -0.4702 -2.3301
12982SOL    HW245039   3.897   3.684   9.320 -0.5901  2.6846  3.1711
12983SOL     OW45040   2.684   2.140   4.292  0.2430  0.1913 -0.2927
12983SOL    HW145041   2.688   2.053   4.252 -0.6516  0.4300 -0.9323
12983SOL    HW245042   2.597   2.143   4.334  0.7431  0.3413  0.7717
12984SOL     OW45043   0.846  10.687   3.898  0.3446  0.4387 -0.3358
12984SOL    HW145044   0.807  10.715   3.815  0.0671  1.4723  0.1316
12984SOL    HW245045   0.829  10.759   3.958  0.4483 -0.3412  0.6561
12985SOL     OW45046   8.097   6.505   1.622 -0.2549 -0.2035  0.2446
12985SOL    HW145047   8.129   6.562   1.692 -1.0004 -0.1691  0.5676
12985SOL    HW245048   8.023   6.459   1.661  0.3485 -1.4275  0.0057
12986SOL     OW45049   4.141   1.756   1.137  0.3133  0.8720 -0.4047
12986SOL    HW145050   4.078   1.690   1.166  0.1859  1.4299  0.6149
12986SOL    HW245051   4.091   1.814   1.080  0.2248  0.5597 -0.6469
12987SOL     OW45052   3.960   6.701  10.747 -0.2499  0.5584 -0.4460
12987SOL    HW145053   3.949   6.609  10.773 -1.8499  0.4073 -1.4879
12987SOL    HW245054   4.044   6.703  10.701 -0.4318 -0.5026 -0.8594
12988SOL     OW45055   3.779   9.608   8.247  0.4219  0.0288 -0.4520
12988SOL    HW145056   3.857   9.567   8.209  1.7270  0.5427  1.5224
12988SOL    HW245057   3.708   9.545   8.230  1.4911 -0.9952 -1.2766
12989SOL     OW45058   3.974   6.041   0.748  0.2306 -0.5252  0.0951
12989SOL    HW145059   3.976   5.954   0.710  2.1701 -0.7777  0.6744
12989SOL    HW245060   4.019   6.097   0.685 -0.7876  0.0387 -0.1610
12990SOL     OW45061  10.311   1.079   8.673 -0.0562 -0.4090 -0.0274
12990SOL    HW145062  10.400   1.102   8.697 -0.1102 -0.0694 -0.1442
12990SOL    HW245063  10.256   1.128   8.734 -0.1467 -3.0968  2.2048
12991SOL     OW45064   1.240   4.322   3.262 -0.1089  0.8367 -0.3970
12991SOL    HW145065   1.316   4.330   3.320 -0.2364  0.6816 -0.2079
12991SOL    HW245066   1.264   4.252   3.200 -0.1854  0.6371 -0.2010
12992SOL     OW45067   6.690   4.240   5.422  0.0100 -0.3108 -0.2519
12992SOL    HW145068   6.716   4.306   5.486 -2.7574  0.3398  0.3262
12992SOL    HW245069   6.603   4.212   5.449 -1.8322  0.7962 -4.2208
12993SOL     OW45070   5.383   2.660   6.035 -0.0517  0.1279  0.1197
12993SOL    HW145071   5.343   2.632   5.953  0.3920  0.1930 -0.1222
12993SOL    HW245072   5.433   2.583   6.065 -0.8042 -0.1451  0.7114
12994SOL     OW45073   1.182   8.950   7.836  0.0230 -0.1528  0.5693
12994SOL    HW145074   1.090   8.973   7.825  0.0906  1.9226  3.0800
12994SOL    HW245075   1.220   8.959   7.749 -2.1626 -1.3695 -0.5862
12995SOL     OW45076   3.842  10.182   0.761 -0.3205 -0.0118  0.3252
12995SOL    HW145077   3.834  10.100   0.712 -2.1703 -0.4148  1.2174
12995SOL    HW245078   3.816  10.250   0.699 -2.8464 -0.5387  0.6882
12996SOL     OW45079   5.839   6.460   0.933 -0.1631  0.6048 -0.2521
12996SOL    HW145080   5.917   6.434   0.982 -1.4052 -2.3731  0.3839
12996SOL    HW245081   5.867   6.457   0.841  0.7612  0.7126  0.0137
12997SOL     OW45082   4.212   8.025   4.842  0.1834 -0.4025  0.1438
12997SOL    HW145083   4.150   7.973   4.791 -2.5868  2.5836  0.1124
12997SOL    HW245084   4.172   8.029   4.930 -0.4849  2.5963 -0.1936
12998SOL     OW45085   6.845   8.489   5.226  0.3323 -0.5723  0.0212
12998SOL    HW145086   6.871   8.465   5.137 -0.5240  0.6628 -0.5977
12998SOL    HW245087   6.922   8.534   5.261  0.3871 -0.3093 -0.4162
12999SOL     OW45088   0.493   6.733   7.430 -0.1589 -0.2026  0.2315
12999SOL    HW145089   0.464   6.778   7.509  1.4475 -0.4528  1.0069
12999SOL    HW245090   0.446   6.777   7.359 -1.1569  0.4471  1.2585
13000SOL     OW45091   9.063   8.033   7.088 -0.1670 -0.0671 -0.2042
13000SOL    HW145092   8.967   8.037   7.086 -0.1315  0.7265 -0.6426
13000SOL    HW245093   9.084   7.946   7.055 -0.6753  0.6077 -2.4645
13001SOL     OW45094   2.013   6.205   9.161 -0.5462  0.0549  0.1940
13001SOL    HW145095   1.922   6.232   9.145 -1.0972 -1.6328  0.3420
13001SOL    HW245096   2.010   6.110   9.161  0.8286 -0.0463  2.4496
13002SOL     OW45097   9.557  10.712   4.050  0.8853 -0.2128 -0.0774
13002SOL    HW145098   9.539  10.801   4.079  1.0502 -0.3722  0.5414
13002SOL    HW245099   9.559  10.661   4.131  1.6730 -0.6210 -0.3439
13003SOL     OW45100   6.081   9.347   7.984  0.4678  0.0945 -0.6676
13003SOL    HW145101   6.153   9.307   8.033  0.6761 -0.4672 -1.4070
13003SOL    HW245102   6.031   9.395   8.050  0.3093 -1.2532  0.2339
13004SOL     OW45103   0.904   1.088   8.657 -0.0410  0.1175 -0.0370
13004SOL    HW145104   0.819   1.045   8.663  0.8455 -1.6114  0.8354
13004SOL    HW245105   0.926   1.084   8.564 -0.4512 -0.3532 -0.1212
13005SOL     OW45106   7.168   2.226   3.391  0.0157 -0.2610 -0.3075
13005SOL    HW145107   7.170   2.133   3.413 -1.0030 -0.4436 -0.8754
13005SOL    HW245108   7.092   2.234   3.333  0.6804  0.7498 -1.0634
13006SOL     OW45109   0.309   3.569   9.626 -0.1794  0.4742 -0.1726
13006SOL    HW145110   0.259   3.604   9.553 -0.0337 -0.0947 -0.5530
13006SOL    HW245111   0.390   3.536   9.586  0.2052  0.7696  0.3405
13007SOL     OW45112   3.423   3.052   4.523 -0.3053  0.0964 -0.0413
13007SOL    HW145113   3.492   3.000   4.564  0.0147  1.2010  0.8780
13007SOL    HW245114   3.467   3.131   4.491 -0.9554  0.3079 -0.4503
13008SOL     OW45115   2.279   6.472   4.484  0.2311 -0.7676  0.2272
13008SOL    HW145116   2.293   6.378   4.470 -1.7383 -1.4344  2.1047
13008SOL    HW245117   2.322   6.490   4.568 -0.5714 -0.3053  0.5439
13009SOL     OW45118   8.720   6.239   6.158 -0.2941 -0.3493  0.4798
13009SOL    HW145119   8.719   6.194   6.073  1.4295 -0.8983  0.7293
13009SOL    HW245120   8.710   6.332   6.136 -0.3255 -0.5262 -0.2830
13010SOL     OW45121   8.555   3.849   1.033 -0.3435  0.1481 -0.0926
13010SOL    HW145122   8.642   3.869   1.069  0.1426 -1.1478 -0.4776
13010SOL    HW245123   8.498   3.844   1.109  0.1341  0.0514  0.2663
13011SOL     OW45124   1.160   2.129   8.383  1.0467 -0.2283 -0.0812
13011SOL    HW145125   1.104   2.113   8.459  0.1870  1.1401 -0.3883
13011SOL    HW245126   1.234   2.179   8.418  1.7611 -1.4456  0.2040
13012SOL     OW45127   2.118  10.595  10.921  0.1450  0.2030 -0.0521
13012SOL    HW145128   2.085  10.528  10.862 -0.0758 -0.4286  0.7701
13012SOL    HW245129   2.104  10.678  10.874 -0.7508 -0.2173 -0.5456
13013SOL     OW45130  10.218  10.547   0.178  0.7354 -0.0626 -0.3265
13013SOL    HW145131  10.276  10.620   0.160  1.2221 -0.2443  0.4785
13013SOL    HW245132  10.270  10.487   0.231 -0.4033  0.1183  1.0607
13014SOL     OW45133  10.267   1.379   6.343 -0.0525  0.3327  0.3898
13014SOL    HW145134  10.212   1.410   6.415 -0.8358  1.8397 -0.7776
13014SOL    HW245135  10.355   1.410   6.365 -0.4743  1.7376  0.2298
13015SOL     OW45136   5.720  10.896   7.379  0.0024 -0.3844 -0.0368
13015SOL    HW145137   5.762  10.879   7.295  1.1594 -1.8364  0.7817
13015SOL    HW245138   5.650  10.958   7.359  0.2135 -0.7299 -2.0657
13016SOL     OW45139   6.210   5.463   3.707 -0.3633  0.6395  0.2779
13016SOL    HW145140   6.240   5.544   3.667 -0.8016  0.1146 -1.1624
13016SOL    HW245141   6.129   5.486   3.751  0.0993  1.2114  0.8602
13017SOL     OW45142   8.671   7.325   9.905 -0.0218  0.0963 -0.1934
13017SOL    HW145143   8.596   7.351   9.851  0.1714  2.5487  0.5542
13017SOL    HW245144   8.635   7.265   9.970 -1.1383  0.4585 -0.4643
13018SOL     OW45145   5.984   5.066   0.521  0.3948 -0.3114 -0.9337
13018SOL    HW145146   6.011   4.975   0.531  0.6124 -0.0598  1.4179
13018SOL    HW245147   5.914   5.064   0.455  0.6791 -2.1071 -1.2177
13019SOL     OW45148   4.395   6.462   0.214 -0.8604 -0.0352  0.1743
13019SOL    HW145149   4.436   6.544   0.243 -2.2875  0.9827 -0.5572
13019SOL    HW245150   4.443   6.437   0.136 -0.6005  0.2615  0.2381
13020SOL     OW45151   4.753   2.816   3.535 -0.3217 -0.3890  0.0652
13020SOL    HW145152   4.745   2.854   3.623 -2.2894  1.5900 -0.8763
13020SOL    HW245153   4.706   2.732   3.541 -0.6702 -0.1484  0.8450
13021SOL     OW45154   6.255   2.885   6.993 -0.1435 -0.4835 -0.0602
13021SOL    HW145155   6.190   2.930   7.046  0.7788 -2.4280  2.9671
13021SOL    HW245156   6.208   2.812   6.952 -0.1904 -1.0375  0.9596
13022SOL     OW45157   6.413   6.382   9.924 -0.5030  0.1130 -0.1571
13022SOL    HW145158   6.455   6.406   9.842 -0.3799 -0.0477 -0.1434
13022SOL    HW245159   6.352   6.454   9.942 -0.0254  0.4948 -0.0308
13023SOL     OW45160   8.569   4.895   8.509  0.2020 -0.3131 -0.0607
13023SOL    HW145161   8.560   4.847   8.590  0.0497 -0.7309 -0.3244
13023SOL    HW245162   8.487   4.880   8.462 -0.5484  1.5500  0.5612
13024SOL     OW45163   0.525   9.045   4.920 -0.1902  0.4859  0.0065
13024SOL    HW145164   0.554   9.109   4.855 -0.3018  0.1064 -0.4209
13024SOL    HW245165   0.605   9.019   4.966 -0.1294  0.8476  0.1053
13025SOL     OW45166   4.488   1.455   9.133 -0.1693  0.1593  0.0150
13025SOL    HW145167   4.451   1.528   9.082 -1.6175 -0.4128  0.1922
13025SOL    HW245168   4.571   1.435   9.090 -0.7122  0.5921 -1.2748
13026SOL     OW45169   4.949   3.413   3.525 -0.1908  0.2666 -0.0457
13026SOL    HW145170   4.977   3.387   3.612 -1.8959  1.0045  0.7590
13026SOL    HW245171   4.869   3.463   3.539  0.2630  1.6441 -1.9236
13027SOL     OW45172   8.046   9.708   7.231  0.4494 -0.0780 -0.1761
13027SOL    HW145173   8.078   9.630   7.186 -0.0460 -0.1766 -0.3562
13027SOL    HW245174   8.123   9.742   7.276  0.9534  0.0037 -1.0660
13028SOL     OW45175   9.086  10.087   6.044  0.2308  0.3432 -0.4415
13028SOL    HW145176   9.146  10.159   6.024 -1.9679  2.0804 -1.1769
13028SOL    HW245177   9.096  10.073   6.139  1.3457  0.9583 -0.4469
13029SOL     OW45178   7.082   0.952   1.240 -0.3908 -0.0958 -0.2453
13029SOL    HW145179   7.019   0.896   1.195 -0.1446 -2.5091  2.1663
13029SOL    HW245180   7.033   0.990   1.313 -0.5757  3.0963 -1.8502
13030SOL     OW45181   3.784   0.629   7.020  0.0397  0.1709  0.0169
13030SOL    HW145182   3.747   0.602   6.935 -0.1691  0.6864 -0.0571
13030SOL    HW245183   3.707   0.639   7.077  0.2225 -0.9349  0.5018
13031SOL     OW45184  10.352   7.881   6.253  0.3810 -0.2604  0.4159
13031SOL    HW145185  10.447   7.893   6.254  0.3402  0.0364  0.6697
13031SOL    HW245186  10.332   7.859   6.161  0.7088 -0.4669  0.3928
13032SOL     OW45187   3.067   8.236  10.701 -1.0476  0.7288 -0.2444
13032SOL    HW145188   3.064   8.236  10.606  0.0263 -1.3183 -0.3458
13032SOL    HW245189   3.158   8.254  10.723 -0.2690 -2.8060  0.1416
13033SOL     OW45190  10.415   2.317   1.182  0.1690  0.5769 -0.5835
13033SOL    HW145191  10.484   2.259   1.150  0.6519  0.7215  0.1722
13033SOL    HW245192  10.439   2.336   1.272 -1.7076 -0.6954  0.2493
13034SOL     OW45193   8.830   7.566   7.813 -0.0176 -0.1680  0.3458
13034SOL    HW145194   8.879   7.501   7.761  0.8805 -0.3955  1.4311
13034SOL    HW245195   8.895   7.631   7.838 -0.9724  1.3641 -0.9819
13035SOL     OW45196   9.908   8.966   0.460 -0.2518  0.1154 -0.1514
13035SOL    HW145197   9.830   9.013   0.430  0.0221 -0.2152 -1.4398
13035SOL    HW245198   9.963   9.034   0.498 -1.1828  0.3418  0.8370
13036SOL     OW45199   4.889  10.838   3.225  0.4502 -0.7175  0.6086
13036SOL    HW145200   4.893  10.743   3.239 -0.9430 -0.9206 -0.2556
13036SOL    HW245201   4.972  10.870   3.260  1.2210 -2.3231  0.3520
13037SOL     OW45202  10.048  10.074   9.134 -0.1681 -1.0298 -0.3724
13037SOL    HW145203  10.035  10.138   9.064 -0.5397 -0.8103 -0.1078
13037SOL    HW245204  10.138  10.044   9.123 -0.2321 -1.0157 -0.9602
13038SOL     OW45205   4.244   2.848   4.922 -0.2013 -0.6481  0.3797
13038SOL    HW145206   4.270   2.896   5.001 -0.6752 -0.8742  0.6741
13038SOL    HW245207   4.182   2.782   4.952 -0.2488 -0.8579 -0.1563
13039SOL     OW45208   7.877   3.144   5.752 -1.3618  0.3648 -0.1616
13039SOL    HW145209   7.924   3.061   5.743 -1.7616  0.2353 -1.2173
13039SOL    HW245210   7.903   3.194   5.675 -1.0799  1.2532  0.4970
13040SOL     OW45211  10.887   6.373   6.639 -0.4403 -0.0212  0.1023
13040SOL    HW145212  10.833   6.325   6.577 -1.6426  1.9850 -0.5086
13040SOL    HW245213  10.886   6.463   6.607  1.1958  0.5641  1.5202
13041SOL     OW45214   8.993   9.739   6.013  0.1879 -0.8693 -0.5025
13041SOL    HW145215   8.994   9.765   5.921  0.7554 -0.8421 -0.4859
13041SOL    HW245216   9.077   9.697   6.028  0.6251  0.2601  0.3336
13042SOL     OW45217   9.483   0.934   1.572 -0.1855  0.2689 -0.0555
13042SOL    HW145218   9.451   0.891   1.492 -0.1772 -1.8678  1.0390
13042SOL    HW245219   9.415   0.998   1.593 -2.4454 -2.1951  0.6231
13043SOL     OW45220  10.033   9.523   1.755 -0.2398  0.1415  0.2984
13043SOL    HW145221   9.943   9.491   1.749  0.3247 -1.2256 -1.4124
13043SOL    HW245222  10.050   9.562   1.669  1.0152 -0.1777  0.3964
13044SOL     OW45223   1.977   9.194   5.955  0.2854 -0.3000  0.0879
13044SOL    HW145224   1.989   9.146   5.873  0.5486  0.1217 -0.1200
13044SOL    HW245225   2.060   9.238   5.970 -0.4767  1.4876 -0.6155
13045SOL     OW45226   1.990   1.481  10.105 -0.0160 -0.1038 -0.3327
13045SOL    HW145227   1.985   1.536  10.027  1.1307  1.3447  0.5604
13045SOL    HW245228   2.005   1.542  10.177  0.6626 -1.5261  0.7970
13046SOL     OW45229   6.978   0.064   5.779  0.0620 -0.4494  0.1602
13046SOL    HW145230   7.000   0.063   5.873 -0.5906 -0.0929  0.3177
13046SOL    HW245231   7.038   0.000   5.741  1.8999  0.9934  0.4740
13047SOL     OW45232  10.199   8.344  10.908  0.5244 -0.2119  0.1958
13047SOL    HW145233  10.124   8.372  10.961  0.0422 -1.3218  0.1090
13047SOL    HW245234  10.163   8.329  10.821  1.3033  1.5538 -0.4846
13048SOL     OW45235   2.323   1.499   5.439 -0.0393 -0.3797 -0.2636
13048SOL    HW145236   2.387   1.491   5.510  0.7872  0.8330 -0.8312
13048SOL    HW245237   2.355   1.572   5.387 -1.4766 -0.2660 -1.0267
13049SOL     OW45238   3.516   8.683   6.776  0.8940 -0.5827 -0.0899
13049SOL    HW145239   3.439   8.689   6.719 -0.7753  1.7407  2.1686
13049SOL    HW245240   3.502   8.603   6.826 -0.8767  0.5283  1.2846
13050SOL     OW45241   7.359   1.052   1.244  0.2968  0.3537 -0.0678
13050SOL    HW145242   7.279   1.000   1.249 -0.1685  0.9988 -0.5822
13050SOL    HW245243   7.412   1.009   1.177  0.2192  0.1390  0.0090
13051SOL     OW45244  10.078   9.961   4.991  0.5529 -0.1560 -0.0328
13051SOL    HW145245  10.055   9.915   4.910  1.1192 -0.2007 -0.1696
13051SOL    HW245246  10.085   9.892   5.056  0.5645 -0.1717 -0.0505
13052SOL     OW45247   7.437   7.020   7.281  0.2969  0.0629  0.0407
13052SOL    HW145248   7.454   6.930   7.256  0.3679  0.5424 -1.8010
13052SOL    HW245249   7.373   7.014   7.352 -0.3289 -1.4176 -0.6173
13053SOL     OW45250   1.035  10.444   8.037 -0.3463  0.0641  0.5870
13053SOL    HW145251   1.047  10.443   8.133  0.6203 -0.8563  0.4796
13053SOL    HW245252   1.107  10.499   8.005 -1.0219  0.8694  0.4111
13054SOL     OW45253   9.343   3.114   5.961 -0.7596 -0.3913  0.3154
13054SOL    HW145254   9.365   3.123   6.054 -0.2804  0.1165  0.1596
13054SOL    HW245255   9.315   3.023   5.952  1.2576 -1.0743  0.5424
13055SOL     OW45256   9.764   6.217   8.095 -0.6737  0.3907 -0.0648
13055SOL    HW145257   9.673   6.239   8.077 -0.7943  0.2492  0.3499
13055SOL    HW245258   9.799   6.295   8.139 -0.6430  0.3810 -0.0721
13056SOL     OW45259   9.255   7.858   2.228 -0.7148 -0.6978  0.3735
13056SOL    HW145260   9.252   7.806   2.309  0.0925  0.0034  0.8769
13056SOL    HW245261   9.348   7.861   2.205 -0.8260 -0.0531 -0.0227
13057SOL     OW45262   3.236   7.062   4.557 -0.2337  0.5172  0.2086
13057SOL    HW145263   3.280   7.024   4.633 -0.4189  0.6185  0.3679
13057SOL    HW245264   3.160   7.108   4.594 -0.0765  0.9406  0.0072
13058SOL     OW45265   7.047   7.994   3.683  0.3371  0.1373 -0.6643
13058SOL    HW145266   7.101   8.011   3.605  0.7647  0.7961 -0.2320
13058SOL    HW245267   6.997   7.916   3.660  2.0442 -0.9811 -0.8014
13059SOL     OW45268   3.339   1.375  10.356 -0.0303  0.1214 -0.6070
13059SOL    HW145269   3.368   1.373  10.264  0.3769  0.5791 -0.4952
13059SOL    HW245270   3.416   1.404  10.404 -0.5435  0.9094 -0.2458
13060SOL     OW45271   0.306  10.282   9.215  0.4922 -0.4833 -0.0251
13060SOL    HW145272   0.226  10.311   9.259  1.7786  2.2843  0.7050
13060SOL    HW245273   0.346  10.220   9.276 -0.4575 -0.9215  0.1680
13061SOL     OW45274   9.073   6.311  10.768 -0.5253 -0.5858  0.3519
13061SOL    HW145275   9.121   6.236  10.804 -0.7036  0.1338  2.1747
13061SOL    HW245276   8.992   6.273  10.734 -0.1784 -1.3473  0.3429
13062SOL     OW45277   8.801   1.972   4.599 -0.4592 -0.6183 -0.0008
13062SOL    HW145278   8.888   1.999   4.628 -0.7977  0.7982 -0.2279
13062SOL    HW245279   8.741   2.010   4.664 -1.2053  2.3383 -2.2078
13063SOL     OW45280   8.540   4.047  10.501 -0.3659  0.3171 -0.1897
13063SOL    HW145281   8.602   4.108  10.462 -0.1614  0.0638 -0.2617
13063SOL    HW245282   8.509   3.994  10.428  0.6751 -0.7370  0.1112
13064SOL     OW45283   7.037   6.143   5.818 -0.4612  0.3988 -0.2500
13064SOL    HW145284   7.037   6.238   5.810 -0.3085  0.3030 -1.5610
13064SOL    HW245285   7.033   6.111   5.728 -1.3188 -0.8373  0.2011
13065SOL     OW45286   6.237   8.319   4.895 -0.3313 -0.2110  0.0752
13065SOL    HW145287   6.144   8.336   4.904 -0.8297 -1.4866 -1.9916
13065SOL    HW245288   6.247   8.227   4.921  0.1456 -0.4063 -0.7727
13066SOL     OW45289   3.726   9.202   6.506 -0.8767  0.2601  0.1363
13066SOL    HW145290   3.788   9.138   6.472 -2.5509 -1.3911  0.0068
13066SOL    HW245291   3.647   9.151   6.524 -2.3461  2.3214 -0.1142
13067SOL     OW45292   7.838   6.889   8.151  0.0380 -0.3109  0.5662
13067SOL    HW145293   7.842   6.960   8.087  2.1749 -2.7414 -2.2779
13067SOL    HW245294   7.930   6.871   8.172 -0.4427 -2.3131  1.0832
13068SOL     OW45295   2.635   0.720   3.491  0.2499  0.0527 -0.1910
13068SOL    HW145296   2.675   0.807   3.486 -0.7859  0.7084  1.8736
13068SOL    HW245297   2.709   0.660   3.502  0.9069  0.7996 -0.4539
13069SOL     OW45298   9.361   2.754   9.023 -0.0499 -0.0427 -0.0196
13069SOL    HW145299   9.419   2.818   8.981 -0.4343 -0.2911 -0.9760
13069SOL    HW245300   9.401   2.669   9.004 -0.1423 -0.1484  0.2580
13070SOL     OW45301  10.492   3.350   3.400  0.0314 -0.2269 -0.0495
13070SOL    HW145302  10.454   3.432   3.431  1.0679  1.1763 -2.1949
13070SOL    HW245303  10.546   3.320   3.473 -0.7358  0.7347  0.9625
13071SOL     OW45304   7.038   2.841   3.663 -0.4037 -0.1107  0.2004
13071SOL    HW145305   6.951   2.803   3.680 -0.9746  0.9137 -0.3409
13071SOL    HW245306   7.042   2.849   3.568  0.5469 -0.7173  0.1800
13072SOL     OW45307   3.178   6.981  10.832 -0.8086  0.2335  0.3254
13072SOL    HW145308   3.149   6.921  10.763  0.6261 -0.6233  0.4392
13072SOL    HW245309   3.116   6.968  10.903 -0.4407 -1.2520  0.4042
13073SOL     OW45310   2.547   4.859   8.050 -0.0368  0.3339  0.2171
13073SOL    HW145311   2.477   4.904   8.003  0.7456 -0.3307 -1.6915
13073SOL    HW245312   2.507   4.778   8.081 -0.3573  0.3991 -0.0251
13074SOL     OW45313   5.954   7.092  10.308 -0.9033 -0.1526 -0.1618
13074SOL    HW145314   5.963   7.110  10.214 -0.0393 -0.1498 -0.0810
13074SOL    HW245315   5.936   7.177  10.347  0.3889  0.1095 -0.1248
13075SOL     OW45316   6.431   1.600   9.761 -0.2231  0.1382 -0.0455
13075SOL    HW145317   6.365   1.667   9.782 -1.0225 -0.7157  0.2669
13075SOL    HW245318   6.380   1.519   9.753  0.6638 -0.3487 -0.9041
13076SOL     OW45319   8.376   5.062   9.355 -0.0345 -0.1498  0.5955
13076SOL    HW145320   8.352   5.042   9.265  1.7462  0.0554  0.0308
13076SOL    HW245321   8.410   4.979   9.390  0.9098  0.1880  0.4974
13077SOL     OW45322   2.592   7.020   9.571 -0.0154  0.5155 -0.1560
13077SOL    HW145323   2.658   7.079   9.535  1.3338  0.3311  1.8458
13077SOL    HW245324   2.618   6.934   9.540  0.5437  0.4775  0.3989
13078SOL     OW45325   6.053   9.599   9.943 -0.2624  0.8346  0.2750
13078SOL    HW145326   6.077   9.631  10.030 -0.5993  3.1721 -0.4155
13078SOL    HW245327   6.129   9.548   9.915  0.8657  2.0226  1.0153
13079SOL     OW45328   2.454   9.255   1.773  0.4553 -0.6459 -0.2168
13079SOL    HW145329   2.422   9.344   1.758  0.1712 -0.5697  0.7680
13079SOL    HW245330   2.378   9.200   1.756 -0.3152 -0.4564  2.2335
13080SOL     OW45331   1.424   6.885   5.655 -0.3122 -0.5961  0.4370
13080SOL    HW145332   1.388   6.862   5.570  2.6706  0.5027 -1.2800
13080SOL    HW245333   1.401   6.977   5.668 -2.5286 -1.2805  1.9048
13081SOL     OW45334   2.255   1.663   9.027 -0.3181 -0.2625 -0.1021
13081SOL    HW145335   2.224   1.749   8.997 -0.7949 -0.5085 -0.3104
13081SOL    HW245336   2.252   1.669   9.123 -1.1896 -0.3464 -0.1183
13082SOL     OW45337   3.490   1.862   3.324  0.5710 -0.3800  0.2455
13082SOL    HW145338   3.468   1.952   3.348 -1.0794 -0.6096 -0.2576
13082SOL    HW245339   3.474   1.857   3.230  0.6663 -1.1946  0.2606
13083SOL     OW45340   5.411   0.316   7.833  0.2336 -0.1484 -0.1317
13083SOL    HW145341   5.411   0.221   7.829  0.8674 -0.1618  0.0049
13083SOL    HW245342   5.355   0.338   7.907 -1.6527 -0.3348 -1.4554
13084SOL     OW45343   6.436   6.378   6.264  0.0250  0.0900 -0.7629
13084SOL    HW145344   6.410   6.288   6.247  1.2775 -0.1522 -1.5103
13084SOL    HW245345   6.429   6.422   6.180  0.3453  0.4388 -0.6144
13085SOL     OW45346   1.911   7.296   7.604  0.3990  0.3411  0.3766
13085SOL    HW145347   1.835   7.239   7.592  0.2766  0.3765  0.9868
13085SOL    HW245348   1.986   7.237   7.604  0.4596  0.3757 -1.0386
13086SOL     OW45349   1.512   9.522  10.664 -0.0533 -0.2098 -0.2052
13086SOL    HW145350   1.590   9.576  10.654  0.4536 -0.5330  1.5572
13086SOL    HW245351   1.546   9.433  10.675 -0.8620 -0.9552 -2.9637
13087SOL     OW45352   3.986  10.675   9.996 -0.2352 -0.1650 -0.0510
13087SOL    HW145353   4.012  10.638  10.080 -0.5856 -1.2527 -0.4071
13087SOL    HW245354   3.895  10.704  10.010 -0.3710 -0.5572 -0.1240
13088SOL     OW45355   3.978   4.275   4.336  0.5247  0.3536 -0.0363
13088SOL    HW145356   3.887   4.274   4.366  0.1208  0.1456 -1.2295
13088SOL    HW245357   3.982   4.349   4.275  0.8399 -0.3746 -0.9158
13089SOL     OW45358   7.579   9.877   7.762 -0.1057  0.0445  0.1703
13089SOL    HW145359   7.596   9.820   7.687 -0.5885  0.0841  0.0254
13089SOL    HW245360   7.609   9.963   7.735  1.5843 -0.3252  0.7678
13090SOL     OW45361   4.057   1.151   9.917  0.1357 -0.5328  0.4622
13090SOL    HW145362   4.080   1.160   9.825  1.0660  0.5824  0.7798
13090SOL    HW245363   4.136   1.118   9.959  0.0435 -0.0792  1.0097
13091SOL     OW45364  10.564   8.061   5.725 -0.7705  0.4419 -0.5602
13091SOL    HW145365  10.551   7.990   5.787 -0.6152  1.0672  0.2004
13091SOL    HW245366  10.504   8.041   5.653 -2.1151  0.5155  0.4940
13092SOL     OW45367   4.301   2.880   2.073  0.0489 -0.0167  0.5330
13092SOL    HW145368   4.367   2.835   2.020 -0.9590  0.2315 -1.0261
13092SOL    HW245369   4.288   2.963   2.027  0.4099  1.0083  2.2153
13093SOL     OW45370   5.697   1.790   9.715  0.2509 -0.1322  0.1114
13093SOL    HW145371   5.614   1.745   9.697 -0.4573  1.9345 -2.3297
13093SOL    HW245372   5.764   1.735   9.676 -0.0758 -1.2487  1.0901
13094SOL     OW45373   9.970   0.901   1.180  0.2127 -0.0927  0.1609
13094SOL    HW145374   9.938   0.988   1.157 -0.1575  0.7965  3.4424
13094SOL    HW245375   9.904   0.840   1.145  0.4365  0.8965 -2.1047
13095SOL     OW45376   8.014   1.928   5.211  0.2324 -0.1550  0.6310
13095SOL    HW145377   8.070   1.850   5.211  1.0971  0.4399 -0.3121
13095SOL    HW245378   8.064   1.994   5.164 -1.1399  0.4966  0.0121
13096SOL     OW45379   3.304   0.900  10.188  0.5189 -0.0968 -0.9984
13096SOL    HW145380   3.261   0.837  10.131 -1.3120  0.2970 -0.1264
13096SOL    HW245381   3.297   0.863  10.276 -0.1102  1.0193 -0.5468
13097SOL     OW45382   8.675   2.754   2.744 -0.1700  1.0442 -0.2727
13097SOL    HW145383   8.607   2.811   2.780  0.1663  0.4977  1.3407
13097SOL    HW245384   8.744   2.814   2.715 -0.6459  1.5321 -0.3991
13098SOL     OW45385   5.184   0.451   1.289 -0.1420 -0.4461  0.0748
13098SOL    HW145386   5.270   0.488   1.307 -0.6883  1.1288 -0.4142
13098SOL    HW245387   5.202   0.369   1.244  1.1369  0.8659 -1.9533
13099SOL     OW45388   8.806   8.884   6.406  0.3665  0.0637 -0.0603
13099SOL    HW145389   8.854   8.918   6.482  0.2282  1.1401 -0.4449
13099SOL    HW245390   8.873   8.870   6.340  0.5607 -1.3485  0.3971
13100SOL     OW45391   6.729   8.652   7.635  0.6809 -0.5907  0.1743
13100SOL    HW145392   6.822   8.667   7.617  0.6445 -0.5439  0.0206
13100SOL    HW245393   6.685   8.726   7.592  0.7709  1.0854  2.7246
13101SOL     OW45394   6.404   7.092   6.134 -0.2599 -0.4059 -0.3116
13101SOL    HW145395   6.426   7.167   6.189  0.3335 -2.0122  1.7935
13101SOL    HW245396   6.482   7.079   6.080  0.0085 -0.0662 -0.0152
13102SOL     OW45397   3.471   2.488  10.634 -0.2417 -0.3056  0.5652
13102SOL    HW145398   3.476   2.395  10.656  1.3068 -0.4189 -0.1101
13102SOL    HW245399   3.556   2.523  10.661 -1.5050  1.3820  2.6909
13103SOL     OW45400   6.167   1.560   5.676  0.1901  0.2772  0.0130
13103SOL    HW145401   6.117   1.641   5.669 -0.7989 -0.3825 -0.8655
13103SOL    HW245402   6.252   1.581   5.636  0.2285  1.0863  0.4914
13104SOL     OW45403   7.621   0.439   5.310 -0.4333  0.4190  0.3240
13104SOL    HW145404   7.669   0.368   5.269 -2.0254  0.4488 -1.7292
13104SOL    HW245405   7.627   0.421   5.404  0.3401 -1.6562 -0.0719
13105SOL     OW45406   6.680   4.361   5.895  0.1063 -0.0519 -0.0222
13105SOL    HW145407   6.589   4.356   5.924 -0.4890  1.1181 -1.5915
13105SOL    HW245408   6.726   4.299   5.952 -1.2038  1.0815  2.4463
13106SOL     OW45409   8.275   6.844   4.700  0.4396 -0.2735  0.4924
13106SOL    HW145410   8.312   6.829   4.613 -0.6891  0.7203 -0.1982
13106SOL    HW245411   8.336   6.904   4.742  1.1353 -0.9749  0.5101
13107SOL     OW45412  10.546   2.070   0.057 -0.4685 -0.7325  0.1599
13107SOL    HW145413  10.455   2.054   0.081 -0.3422 -1.1970  0.3398
13107SOL    HW245414  10.573   1.990   0.012 -1.0579  0.5378 -2.6395
13108SOL     OW45415   3.273   0.892   1.119 -0.1282  0.1446  0.3239
13108SOL    HW145416   3.358   0.852   1.105 -0.4789 -0.7486  0.6296
13108SOL    HW245417   3.230   0.890   1.034  0.4481  1.3154  0.0008
13109SOL     OW45418   2.324   0.626   4.657 -0.1615  0.6242 -0.3809
13109SOL    HW145419   2.325   0.552   4.596 -1.1671 -0.5145  0.9243
13109SOL    HW245420   2.400   0.678   4.633 -0.0802 -0.2153 -2.0786
13110SOL     OW45421   2.458   5.832   6.475  0.0130 -0.1581 -0.1334
13110SOL    HW145422   2.461   5.924   6.451 -0.4250  0.0714  0.6435
13110SOL    HW245423   2.371   5.802   6.447  0.0959 -0.2918 -0.2480
13111SOL     OW45424   8.382   7.502   0.712 -0.4628  0.3393 -0.1233
13111SOL    HW145425   8.474   7.501   0.687 -0.4899  1.8457 -0.3838
13111SOL    HW245426   8.378   7.565   0.785 -1.6620  2.4675 -1.8996
13112SOL     OW45427   6.458   4.369   6.129  0.1306  0.1379 -0.3302
13112SOL    HW145428   6.430   4.284   6.162 -1.0452  1.3253  2.0034
13112SOL    HW245429   6.423   4.432   6.192  0.2328  2.4381 -2.3837
13113SOL     OW45430   8.979  10.788   8.041 -0.6909  0.0714 -0.2974
13113SOL    HW145431   9.043  10.857   8.021  0.2601 -0.8987 -0.6703
13113SOL    HW245432   8.919  10.829   8.104  1.4173  0.4328  1.5996
13114SOL     OW45433  10.386   2.721   0.484 -0.0324 -0.2167 -0.5097
13114SOL    HW145434  10.331   2.790   0.446 -0.4085 -0.2419 -0.0231
13114SOL    HW245435  10.467   2.725   0.434  0.6698  1.7995  0.6653
13115SOL     OW45436   3.638   0.369   3.531 -0.3727  0.2868 -0.1406
13115SOL    HW145437   3.724   0.362   3.572 -0.5432 -1.7116 -0.0383
13115SOL    HW245438   3.653   0.345   3.440 -0.5494  1.6223 -0.5423
13116SOL     OW45439   3.850   2.568   7.188 -0.8596 -0.5294 -0.7809
13116SOL    HW145440   3.810   2.521   7.115 -2.3814  1.3298 -1.2142
13116SOL    HW245441   3.833   2.513   7.265 -1.6943 -1.1756 -1.4201
13117SOL     OW45442   3.953   4.855   5.355  0.8817 -0.3478  0.0679
13117SOL    HW145443   3.962   4.919   5.285  0.5852 -1.1809 -0.7499
13117SOL    HW245444   3.876   4.803   5.331  0.0094  0.1306  1.6483
13118SOL     OW45445   6.457   2.719   6.552  0.6304 -0.0041 -0.2259
13118SOL    HW145446   6.403   2.796   6.571 -1.4856 -1.0816 -1.5392
13118SOL    HW245447   6.509   2.706   6.631 -1.0395  1.1074  1.1183
13119SOL     OW45448   9.629   6.790   5.884 -0.2422  0.0214  0.1759
13119SOL    HW145449   9.708   6.843   5.875 -1.4680  1.7699 -0.9143
13119SOL    HW245450   9.569   6.825   5.819 -2.3435 -0.4865  1.7245
13120SOL     OW45451   4.195   2.825   5.408  0.2637 -0.3678  0.2049
13120SOL    HW145452   4.235   2.766   5.472 -0.7542  0.1154  1.3496
13120SOL    HW245453   4.109   2.787   5.391  0.2694 -0.1299 -0.3848
13121SOL     OW45454   8.450   8.483   0.890 -0.1380 -0.0297 -0.3496
13121SOL    HW145455   8.510   8.534   0.945 -0.1292 -1.4583  1.0565
13121SOL    HW245456   8.398   8.548   0.843 -0.0034  1.2605  1.2080
13122SOL     OW45457   4.966   6.681   3.796  0.1658  0.2177  0.2520
13122SOL    HW145458   4.933   6.591   3.799  0.6783  0.0313  0.3427
13122SOL    HW245459   4.887   6.735   3.793 -0.1657 -0.2781 -1.6518
13123SOL     OW45460   7.437   8.795   6.786  1.0113 -0.1893  0.5008
13123SOL    HW145461   7.465   8.874   6.832  0.7473  1.9294 -2.6834
13123SOL    HW245462   7.357   8.767   6.831  0.0962  2.4502  0.6689
13124SOL     OW45463   2.736   0.378   8.234 -0.2671  0.4618  0.4402
13124SOL    HW145464   2.827   0.356   8.215 -0.0530  0.3525  1.4918
13124SOL    HW245465   2.741   0.452   8.295 -0.8808  0.5946  0.3418
13125SOL     OW45466   8.961   5.081   7.414  0.1717 -0.1040 -0.0292
13125SOL    HW145467   9.053   5.061   7.396  0.1634  0.4313 -0.7266
13125SOL    HW245468   8.963   5.134   7.493  0.3610 -1.0858  0.6379
13126SOL     OW45469   5.423   3.489   8.785  0.5740 -0.2368 -0.3813
13126SOL    HW145470   5.413   3.533   8.870 -0.9729 -1.5473  0.1595
13126SOL    HW245471   5.518   3.480   8.774  0.8078  0.0225  1.1742
13127SOL     OW45472   8.506   9.926   9.253  0.0559 -0.1167 -0.4563
13127SOL    HW145473   8.587   9.973   9.274 -0.8873  1.1422  0.4520
13127SOL    HW245474   8.526   9.834   9.275  0.9091  0.3262  0.7483
13128SOL     OW45475   7.746   8.000   8.189  0.0841  0.1561 -0.1337
13128SOL    HW145476   7.672   8.022   8.133  0.0495 -1.0542 -0.5888
13128SOL    HW245477   7.709   7.998   8.278 -0.0064  1.4128 -0.1330
13129SOL     OW45478  10.555   1.211   2.795  0.0789  0.2501 -0.1582
13129SOL    HW145479  10.541   1.207   2.889 -0.0649  1.5097 -0.1103
13129SOL    HW245480  10.636   1.262   2.785  1.5607 -2.0634 -0.6377
13130SOL     OW45481   4.546   1.352   2.356 -0.5631 -0.8222 -0.0400
13130SOL    HW145482   4.548   1.425   2.294  0.7471  0.8566  1.8224
13130SOL    HW245483   4.458   1.355   2.394 -0.3205  0.2513  0.4771
13131SOL     OW45484   4.195   9.767   4.881  0.5200 -0.4019  0.1340
13131SOL    HW145485   4.123   9.794   4.823 -1.4184 -0.6189  2.3066
13131SOL    HW245486   4.263   9.833   4.866 -0.9775  1.0965 -0.4551
13132SOL     OW45487   9.328   8.162   9.465 -0.0219 -0.3328 -0.8728
13132SOL    HW145488   9.344   8.160   9.559  1.9133 -1.4342 -1.1815
13132SOL    HW245489   9.327   8.255   9.443  2.7123 -0.0728 -0.2038
13133SOL     OW45490   0.585   1.606   8.954  0.2106  0.0649  0.3230
13133SOL    HW145491   0.661   1.590   8.898  1.0434  0.6376  1.2604
13133SOL    HW245492   0.519   1.644   8.896  1.6450  2.2254  0.0264
13134SOL     OW45493   2.889  10.079   0.065  0.0485  0.3599 -0.7552
13134SOL    HW145494   2.957  10.146   0.066 -0.0703  0.4746  0.4146
13134SOL    HW245495   2.867  10.064   0.157 -0.1301 -1.0927 -1.0054
13135SOL     OW45496   7.037   0.189   6.296 -0.1077 -0.6142 -0.0914
13135SOL    HW145497   7.096   0.159   6.227 -1.8312 -1.0121 -1.4736
13135SOL    HW245498   6.999   0.108   6.331 -0.2761 -0.3471  0.3475
13136SOL     OW45499   4.884  10.693   1.737  0.3401 -0.0433  0.6820
13136SOL    HW145500   4.940  10.649   1.674  0.3164  1.3017 -0.3234
13136SOL    HW245501   4.944  10.749   1.787 -0.0231  1.2478 -0.2609
13137SOL     OW45502   9.793   5.947   5.116 -0.6664 -0.1752 -0.4409
13137SOL    HW145503   9.804   5.957   5.021 -0.8400 -0.2751 -0.4713
13137SOL    HW245504   9.802   5.853   5.132  0.1523 -0.0689 -0.2557
13138SOL     OW45505   8.977   9.343   0.775  0.5177  0.6003 -0.6781
13138SOL    HW145506   8.997   9.270   0.716 -0.5375 -0.3890  0.1352
13138SOL    HW245507   8.926   9.404   0.721 -1.8406 -1.0413 -0.4576
13139SOL     OW45508   5.459  10.378   6.697 -0.3511 -0.0088  0.1721
13139SOL    HW145509   5.410  10.429   6.761 -0.1334  2.0586 -1.1991
13139SOL    HW245510   5.550  10.404   6.709  0.0208 -1.4046  0.5709
13140SOL     OW45511   8.293   5.509   9.851 -0.3733 -0.0406 -0.2212
13140SOL    HW145512   8.231   5.507   9.778 -0.2800  0.4537 -0.3135
13140SOL    HW245513   8.274   5.590   9.897  1.6563  1.2604 -1.5220
13141SOL     OW45514   4.884   2.567   5.150 -0.4772 -0.5740 -0.3899
13141SOL    HW145515   4.856   2.491   5.200 -1.2810 -0.6406 -0.9160
13141SOL    HW245516   4.814   2.631   5.162 -0.7943 -0.6654 -1.5653
13142SOL     OW45517   2.360   2.355   0.828  0.1411  0.2162 -0.7228
13142SOL    HW145518   2.298   2.414   0.870  0.0550 -0.0712 -0.4456
13142SOL    HW245519   2.378   2.395   0.743 -1.3711 -0.3163 -1.3316
13143SOL     OW45520   1.131   1.965  10.702  0.0033  0.5783 -0.2239
13143SOL    HW145521   1.109   1.876  10.673  0.5756  0.1995  0.4803
13143SOL    HW245522   1.224   1.961  10.724  0.8723  2.1590 -3.1612
13144SOL     OW45523   6.482   1.623   5.994 -0.1089 -0.1041 -0.0805
13144SOL    HW145524   6.575   1.644   5.985  0.0921 -1.2938 -1.1642
13144SOL    HW245525   6.439   1.707   6.007  1.0904  0.4923  0.1619
13145SOL     OW45526   5.782   4.800   3.745 -0.7657 -0.1089  0.1511
13145SOL    HW145527   5.706   4.850   3.715 -0.6180  0.1191  0.1600
13145SOL    HW245528   5.825   4.771   3.665 -0.9266 -0.3386  0.1457
13146SOL     OW45529   7.883   2.335   7.455 -0.4007  0.0070 -0.2429
13146SOL    HW145530   7.860   2.256   7.504  0.5524 -0.7037 -0.9043
13146SOL    HW245531   7.936   2.387   7.517 -2.5029  1.0185  0.8121
13147SOL     OW45532   8.947   0.857   3.912  0.5213 -0.2638 -0.1212
13147SOL    HW145533   8.972   0.949   3.905 -0.6052  0.0590  0.0219
13147SOL    HW245534   8.966   0.821   3.825  1.0836  0.0636 -0.1433
13148SOL     OW45535   1.010   9.106   9.403 -0.6802 -0.2253 -0.6545
13148SOL    HW145536   0.980   9.146   9.485 -2.7730 -0.4948 -1.2219
13148SOL    HW245537   0.975   9.163   9.334  0.1887 -0.5497 -1.3811
13149SOL     OW45538   2.014   8.965   3.445  0.5962 -0.4633  0.0550
13149SOL    HW145539   2.095   8.953   3.396 -0.0710 -0.2387 -1.1453
13149SOL    HW245540   1.958   8.893   3.417 -0.0456  0.0637 -0.0385
13150SOL     OW45541   0.831   7.774   2.660 -0.2869  0.5177  0.0193
13150SOL    HW145542   0.830   7.855   2.608 -0.5046 -0.0126 -0.8119
13150SOL    HW245543   0.753   7.727   2.632 -0.3280  0.1552  0.7332
13151SOL     OW45544   2.635   6.803   8.749  0.0220  0.1773 -0.1964
13151SOL    HW145545   2.552   6.838   8.780  0.0977  1.2907 -1.1882
13151SOL    HW245546   2.640   6.715   8.787 -1.5936  0.1016 -0.1132
13152SOL     OW45547  10.225   2.958   0.390 -0.1157  0.1929 -0.1939
13152SOL    HW145548  10.188   3.038   0.351  1.9253  1.9664  1.2812
13152SOL    HW245549  10.194   2.958   0.480  1.5848  0.5221  0.4283
13153SOL     OW45550   6.754   8.267   3.196 -0.0450 -0.2560  0.1786
13153SOL    HW145551   6.685   8.276   3.130  1.0705  1.1933 -0.8415
13153SOL    HW245552   6.716   8.305   3.275  0.1030  2.1283 -0.8133
13154SOL     OW45553   4.406   2.299   1.675  0.1806  0.6073 -0.0488
13154SOL    HW145554   4.416   2.315   1.581 -1.3851  0.2373 -0.2999
13154SOL    HW245555   4.454   2.217   1.690 -0.5208  0.0474 -0.7689
13155SOL     OW45556   6.061   3.786   5.596  0.1909 -0.2824  0.3614
13155SOL    HW145557   5.998   3.732   5.643 -0.9153  0.9048  0.2888
13155SOL    HW245558   6.061   3.869   5.643  0.4942  0.2751 -0.5999
13156SOL     OW45559   0.293   2.663   3.455 -0.3116 -0.5664 -0.1140
13156SOL    HW145560   0.305   2.601   3.527  0.9689 -0.8309 -0.5160
13156SOL    HW245561   0.369   2.648   3.398  0.9063  2.3821  0.5366
13157SOL     OW45562   1.096   6.486   0.969 -0.1030 -0.4360  0.0817
13157SOL    HW145563   1.016   6.482   0.915 -0.2168 -1.8863  0.3007
13157SOL    HW245564   1.066   6.519   1.054 -0.5621 -1.3336  0.2835
13158SOL     OW45565   3.889   8.955   6.690 -0.0821  0.3082 -0.2762
13158SOL    HW145566   3.876   8.865   6.719 -0.0062  0.3912  0.0149
13158SOL    HW245567   3.852   9.009   6.760  1.1181  0.5356  0.2031
13159SOL     OW45568   5.450   8.408   2.500  0.2795  0.5906 -0.1705
13159SOL    HW145569   5.386   8.449   2.558 -1.4825  0.0923 -1.6824
13159SOL    HW245570   5.489   8.482   2.452  2.9599  1.2031  2.6237
13160SOL     OW45571   1.035   9.230   1.473 -0.0957  0.6682 -0.1745
13160SOL    HW145572   0.939   9.232   1.465 -0.2277 -3.3433 -1.7059
13160SOL    HW245573   1.051   9.235   1.567 -1.6802  2.6261  0.0525
13161SOL     OW45574   8.528   8.476   4.926 -0.0814 -0.4885  0.5846
13161SOL    HW145575   8.547   8.398   4.978  1.6717 -1.8862 -1.9110
13161SOL    HW245576   8.579   8.464   4.846 -3.1923  1.0721 -1.8831
13162SOL     OW45577   1.810   6.111   7.710  0.1600  0.0836  0.3077
13162SOL    HW145578   1.737   6.165   7.680  1.6963  1.4553 -1.2464
13162SOL    HW245579   1.774   6.023   7.717 -1.2199  0.3442 -2.2750
13163SOL     OW45580   0.674   0.334   6.819  0.2356  0.0906  1.1752
13163SOL    HW145581   0.706   0.423   6.837 -1.3538  0.6946  1.1722
13163SOL    HW245582   0.686   0.287   6.902  1.0319  0.3042  1.1935
13164SOL     OW45583   2.453   5.594   4.083  0.0283 -0.0901 -0.3231
13164SOL    HW145584   2.429   5.633   4.167  0.7823 -2.2777  0.9554
13164SOL    HW245585   2.549   5.590   4.084  0.2018  1.5797 -2.1576
13165SOL     OW45586   4.463   7.339  10.626 -0.2425  0.2737 -0.2395
13165SOL    HW145587   4.399   7.268  10.635 -0.1978 -0.3813 -3.5652
13165SOL    HW245588   4.426   7.395  10.557  1.2700  1.6595  0.0178
13166SOL     OW45589   9.560   0.403   2.321  0.2106  0.0609 -0.2199
13166SOL    HW145590   9.497   0.339   2.287 -0.1846 -0.0375  0.6638
13166SOL    HW245591   9.588   0.366   2.405  1.1177  0.3241 -0.3991
13167SOL     OW45592   0.507   7.939   5.399 -0.0608 -0.3880  0.2455
13167SOL    HW145593   0.507   7.957   5.493  1.3349 -1.5280  0.5074
13167SOL    HW245594   0.583   7.986   5.365 -1.6844  1.7069 -0.7412
13168SOL     OW45595   6.726   1.347  10.374 -0.1876 -0.3960 -0.0392
13168SOL    HW145596   6.693   1.262  10.405 -1.2368  0.3346  0.8992
13168SOL    HW245597   6.807   1.360  10.423 -0.6220 -0.3293  0.6644
13169SOL     OW45598   1.601   4.023   1.095 -0.0944  0.3049  0.3360
13169SOL    HW145599   1.524   3.989   1.140 -0.0413  1.8940  1.7273
13169SOL    HW245600   1.566   4.074   1.023 -0.3509  0.7313  0.7545
13170SOL     OW45601   6.327   8.696   4.076 -0.0969  0.3715  0.1036
13170SOL    HW145602   6.254   8.676   4.135 -0.6271 -0.1943 -0.7392
13170SOL    HW245603   6.314   8.640   4.000  1.1727  0.3297 -0.1086
13171SOL     OW45604   9.272   1.054   4.881 -0.0878 -0.1705 -0.9033
13171SOL    HW145605   9.238   1.135   4.842  0.5887  0.1671 -0.8044
13171SOL    HW245606   9.367   1.066   4.883 -0.0798 -0.3068  0.5800
13172SOL     OW45607   0.117   9.113   3.103  0.1809  0.7778  0.9791
13172SOL    HW145608   0.046   9.048   3.098  0.7078  0.1873  1.0481
13172SOL    HW245609   0.093   9.168   3.177 -0.1963  0.5678  1.0181
13173SOL     OW45610   5.179   6.814   3.622 -0.7885  0.1885 -0.2157
13173SOL    HW145611   5.172   6.842   3.714 -1.9305 -1.4202  0.2178
13173SOL    HW245612   5.258   6.759   3.620 -0.0778  1.1808 -0.4923
13174SOL     OW45613   0.025  10.194  10.854  0.4769 -0.0397  0.4235
13174SOL    HW145614   0.091  10.256  10.824 -0.2190  0.4406 -0.1362
13174SOL    HW245615   0.076  10.120  10.888  1.2965 -0.1386 -0.9497
13175SOL     OW45616   7.357   9.248   0.125  0.2310  0.2244  0.4294
13175SOL    HW145617   7.336   9.306   0.199  1.1210  1.6755 -0.3959
13175SOL    HW245618   7.323   9.295   0.049  0.0953 -0.8352 -0.1796
13176SOL     OW45619   8.930   3.306  10.651  0.4162 -0.1568 -0.0912
13176SOL    HW145620   8.998   3.262  10.702 -0.9951 -0.3173  1.7570
13176SOL    HW245621   8.941   3.272  10.562  2.7008 -0.1844  0.1475
13177SOL     OW45622   2.622   5.936   4.145  0.0240  0.5518 -0.3026
13177SOL    HW145623   2.604   5.920   4.238 -0.7804 -2.5842 -0.8902
13177SOL    HW245624   2.712   5.906   4.133  0.5463  2.0704 -0.3492
13178SOL     OW45625   1.875   8.343   0.339 -0.3103 -0.3810 -0.3078
13178SOL    HW145626   1.794   8.339   0.389  0.5207 -0.7988  1.0555
13178SOL    HW245627   1.920   8.261   0.359  0.3263 -0.2845 -1.2644
13179SOL     OW45628   3.133   0.524   5.761 -0.0709 -0.3079 -0.1577
13179SOL    HW145629   3.162   0.614   5.773  0.5981 -0.7266  1.8533
13179SOL    HW245630   3.038   0.528   5.764 -0.1563  0.5624 -2.4003
13180SOL     OW45631   8.909   8.494   1.577  0.7463 -0.1808 -0.2658
13180SOL    HW145632   8.952   8.412   1.603 -0.4040 -1.2211 -1.5487
13180SOL    HW245633   8.960   8.562   1.621  2.5533 -1.4861 -0.2384
13181SOL     OW45634   0.968   2.483   0.851  0.3026  0.0961 -0.4642
13181SOL    HW145635   0.944   2.398   0.888  3.2599 -1.3312 -1.4993
13181SOL    HW245636   0.906   2.496   0.779  1.9944 -3.1990 -2.7963
13182SOL     OW45637   9.769   6.008   6.214  0.0924  0.0623  0.1657
13182SOL    HW145638   9.703   6.076   6.204 -0.6382 -0.5104  1.0038
13182SOL    HW245639   9.829   6.042   6.281  1.3282  1.0717 -1.3736
13183SOL     OW45640   3.654   6.567   0.877  0.3606 -0.8328  0.1798
13183SOL    HW145641   3.672   6.476   0.900 -3.8990 -2.0076 -0.3341
13183SOL    HW245642   3.659   6.570   0.782  2.0493 -0.0431  0.2558
13184SOL     OW45643   7.022   2.826   3.308 -0.0564  0.6068 -0.1638
13184SOL    HW145644   7.094   2.887   3.297  0.5432 -0.3779 -2.1163
13184SOL    HW245645   6.947   2.881   3.333  0.9425  1.8456  0.1924
13185SOL     OW45646   1.359   3.803   0.375 -0.6713 -0.2643 -0.6332
13185SOL    HW145647   1.454   3.795   0.372 -0.7793 -1.7722 -0.9659
13185SOL    HW245648   1.329   3.717   0.405 -2.0338 -0.6978 -3.0265
13186SOL     OW45649   3.936   7.336   2.556  0.2240 -0.2809 -0.1806
13186SOL    HW145650   3.879   7.359   2.483 -0.8315  2.8557  1.4285
13186SOL    HW245651   3.877   7.332   2.632  1.7477  0.1915  1.0764
13187SOL     OW45652   1.804   0.574   2.520 -0.1086 -0.0674 -0.2280
13187SOL    HW145653   1.876   0.521   2.555 -1.0472 -1.1677  0.0689
13187SOL    HW245654   1.737   0.574   2.588 -0.5248  0.7105 -0.6173
13188SOL     OW45655   2.581  10.152   4.721 -0.4172  0.1815 -0.2356
13188SOL    HW145656   2.554  10.097   4.647  2.0449 -1.4126 -0.0912
13188SOL    HW245657   2.598  10.090   4.792 -0.8593  1.5038  1.0635
13189SOL     OW45658   5.638   1.552   2.929 -0.3015  0.3591 -0.3838
13189SOL    HW145659   5.696   1.485   2.967 -1.8030 -0.9602 -0.2931
13189SOL    HW245660   5.612   1.516   2.844 -0.2562  1.3652 -0.8327
13190SOL     OW45661   5.778  10.362   2.901  0.1477 -0.3876  0.6520
13190SOL    HW145662   5.775  10.279   2.854 -1.2696 -0.3090  0.5582
13190SOL    HW245663   5.843  10.414   2.853 -0.3447 -0.7617 -0.4442
13191SOL     OW45664   9.555   0.609   0.795  0.1151  0.2351  0.0783
13191SOL    HW145665   9.483   0.620   0.857 -2.2077 -0.7598 -2.2206
13191SOL    HW245666   9.594   0.695   0.788 -1.2634  0.9746  0.9915
13192SOL     OW45667   6.146   5.108   5.588  0.5587  0.1191 -0.1216
13192SOL    HW145668   6.078   5.077   5.527  1.7337 -1.5507 -0.6543
13192SOL    HW245669   6.128   5.201   5.598 -0.3086  0.2374 -2.2154
13193SOL     OW45670  10.557   8.392   8.910  0.2475  0.1615  0.0379
13193SOL    HW145671  10.526   8.327   8.847 -0.6380  1.3654 -0.8204
13193SOL    HW245672  10.644   8.416   8.879  0.6140 -0.6470  0.4072
13194SOL     OW45673   8.733   2.524   7.685 -0.1149  0.4666 -0.3686
13194SOL    HW145674   8.828   2.537   7.681 -0.2747  1.5320 -1.1732
13194SOL    HW245675   8.722   2.434   7.716  1.1768 -0.4392 -2.3699
13195SOL     OW45676   5.429   1.621   4.521  0.3245 -0.0516  0.3839
13195SOL    HW145677   5.493   1.566   4.566  0.2497  0.0473  0.6115
13195SOL    HW245678   5.447   1.608   4.428  1.8903  1.4119  0.4468
13196SOL     OW45679   9.013   5.500   4.696  0.3917  0.1647  0.4794
13196SOL    HW145680   9.075   5.431   4.674  0.3803 -0.0317  1.0594
13196SOL    HW245681   9.048   5.542   4.774 -0.6584 -0.5518  1.3690
13197SOL     OW45682   0.384   8.826   1.673 -0.0989 -0.3417  0.1671
13197SOL    HW145683   0.405   8.756   1.735  0.9110 -0.7101 -0.5714
13197SOL    HW245684   0.418   8.795   1.589 -1.6615  0.0356 -0.6523
13198SOL     OW45685   2.595   6.078   6.207  0.7044  0.1331  0.1025
13198SOL    HW145686   2.585   5.983   6.197  0.5872  0.2420 -0.9018
13198SOL    HW245687   2.522   6.103   6.264 -0.2866 -0.1604 -0.9822
13199SOL     OW45688   6.873   1.259   1.631 -0.3092 -0.3817  0.2377
13199SOL    HW145689   6.823   1.264   1.713 -1.1352  2.2253 -0.3108
13199SOL    HW245690   6.963   1.279   1.657 -0.3474 -0.7269  0.6542
13200SOL     OW45691   9.050   4.131   6.471  0.3461  0.1922  0.4408
13200SOL    HW145692   9.063   4.088   6.555 -0.2074 -0.3252  0.2663
13200SOL    HW245693   8.957   4.152   6.468 -0.7396 -3.8103 -1.8384
13201SOL     OW45694   9.765   3.553   6.022 -0.2947  1.0907 -0.5923
13201SOL    HW145695   9.714   3.475   6.045  0.2177  0.5632 -1.1781
13201SOL    HW245696   9.789   3.591   6.106 -2.1247  1.6876 -0.3010
13202SOL     OW45697   0.233   5.247   8.775  0.2482 -0.4597  0.5147
13202SOL    HW145698   0.212   5.184   8.844  0.6978 -0.1667  0.9233
13202SOL    HW245699   0.294   5.308   8.816  0.6214 -0.3586 -0.1860
13203SOL     OW45700   7.468   7.917   5.111 -0.5377  0.1254  0.0639
13203SOL    HW145701   7.532   7.977   5.148 -0.6864 -0.4567  1.3394
13203SOL    HW245702   7.446   7.954   5.025 -0.5046  1.7823  0.7368
13204SOL     OW45703   6.709   3.801   6.851  0.1806 -0.4125  0.9489
13204SOL    HW145704   6.618   3.779   6.832  0.3773 -0.1570 -0.3451
13204SOL    HW245705   6.703   3.880   6.906 -0.3692  0.1998  0.0316
13205SOL     OW45706   9.525   1.359   2.812 -0.1008  0.0086 -0.2471
13205SOL    HW145707   9.599   1.359   2.874  1.4201 -0.1547 -1.9795
13205SOL    HW245708   9.514   1.267   2.788  1.2404  0.3189 -2.3165
13206SOL     OW45709   3.848   1.770   5.696 -0.4818 -0.0148  0.6248
13206SOL    HW145710   3.771   1.721   5.725  0.2300 -2.9747 -2.0141
13206SOL    HW245711   3.892   1.713   5.634  3.0545  2.1838  0.7891
13207SOL     OW45712   4.232   0.563   1.163 -0.4147 -0.3936 -0.6316
13207SOL    HW145713   4.175   0.496   1.125  1.3029 -1.5884 -1.2089
13207SOL    HW245714   4.252   0.531   1.251 -0.1721 -0.2605 -0.6384
13208SOL     OW45715   0.650   9.016   3.996  0.1110 -0.1136 -0.0805
13208SOL    HW145716   0.720   9.050   4.052  0.2107 -0.0162 -0.2623
13208SOL    HW245717   0.645   8.923   4.018 -0.5816  0.1336  0.8612
13209SOL     OW45718   2.920   9.596   8.653 -0.5491 -0.0461  0.1496
13209SOL    HW145719   2.945   9.514   8.611  2.6629  1.1186 -0.5289
13209SOL    HW245720   2.908   9.574   8.745  0.8585 -1.2125  0.0850
13210SOL     OW45721   5.444   5.230   0.728  0.0673  0.2938  0.1888
13210SOL    HW145722   5.447   5.183   0.644 -3.1314  0.1090  0.0514
13210SOL    HW245723   5.534   5.261   0.741  1.7728 -3.4729 -1.0723
13211SOL     OW45724   2.866   6.347   6.888  0.0592  0.1183  0.2168
13211SOL    HW145725   2.778   6.371   6.862 -0.5595 -0.0607  2.0280
13211SOL    HW245726   2.858   6.315   6.978  2.1074  1.0776  0.8164
13212SOL     OW45727   5.507   7.764   2.095 -0.0868  0.6788  0.0290
13212SOL    HW145728   5.562   7.842   2.108 -0.6273  0.8661  1.2663
13212SOL    HW245729   5.438   7.794   2.035 -0.3348  1.1786  0.5561
13213SOL     OW45730   4.156   9.233   2.870  0.7920 -0.0694  0.1102
13213SOL    HW145731   4.232   9.212   2.924  0.7670  1.1098  0.6417
13213SOL    HW245732   4.141   9.326   2.885 -0.2235 -0.0849 -0.6750
13214SOL     OW45733  10.658   6.191   9.308  0.3059  0.2051 -0.4488
13214SOL    HW145734  10.596   6.140   9.359 -0.3967 -1.3465 -2.7135
13214SOL    HW245735  10.605   6.256   9.262  1.0065  2.0259  1.1527
13215SOL     OW45736   6.572   1.384   8.581  0.5379 -0.4489 -0.5192
13215SOL    HW145737   6.666   1.373   8.562  0.8115 -1.0014  0.9875
13215SOL    HW245738   6.539   1.294   8.585  0.6649 -0.4364  2.1530
13216SOL     OW45739   3.824  10.753   0.258  0.3920 -0.4536  0.1008
13216SOL    HW145740   3.859  10.672   0.296 -1.4361 -0.2310  2.4464
13216SOL    HW245741   3.729  10.745   0.266  0.0737  1.0994 -1.4782
13217SOL     OW45742   2.205  10.268   0.789 -0.5098  0.7334  0.4739
13217SOL    HW145743   2.296  10.295   0.803 -0.3520 -0.1745  1.3953
13217SOL    HW245744   2.188  10.207   0.861 -1.3756 -0.2483 -0.5379
13218SOL     OW45745   4.435   6.262   2.609  0.1503  0.1950  0.1199
13218SOL    HW145746   4.426   6.357   2.616 -0.5221  0.1826 -0.4377
13218SOL    HW245747   4.496   6.248   2.537 -1.0304  0.1973 -0.9114
13219SOL     OW45748  10.603   0.370   1.240 -0.2364  0.7616  0.1482
13219SOL    HW145749  10.604   0.423   1.321  0.2286  2.1637 -0.7373
13219SOL    HW245750  10.661   0.417   1.180  0.1657 -0.7663 -0.7078
13220SOL     OW45751   7.630   6.581   0.806 -0.4000  0.0356  0.0128
13220SOL    HW145752   7.662   6.548   0.721 -0.7796 -0.6249  0.1158
13220SOL    HW245753   7.593   6.503   0.849  0.6101  0.1627  1.1746
13221SOL     OW45754   2.173   4.927   1.282  0.1747  0.2280 -0.2753
13221SOL    HW145755   2.130   4.927   1.197  0.2015 -1.1334 -0.3069
13221SOL    HW245756   2.166   5.017   1.313 -4.8636 -0.2920  0.8379
13222SOL     OW45757   2.218   6.669   9.344 -0.2580 -0.2246 -0.1500
13222SOL    HW145758   2.152   6.719   9.296  1.7720  0.6401 -2.2354
13222SOL    HW245759   2.248   6.603   9.281  1.3852 -0.0872  0.4453
13223SOL     OW45760   2.847  10.842   1.140  0.4378 -0.2798  0.4504
13223SOL    HW145761   2.795  10.914   1.103  1.2173  0.2057  0.2671
13223SOL    HW245762   2.899  10.884   1.209 -0.3179 -0.9986  1.4787
13224SOL     OW45763   6.506   7.671   8.240  0.6516 -0.2759  0.1660
13224SOL    HW145764   6.599   7.651   8.247  0.2711 -2.9350 -1.1116
13224SOL    HW245765   6.461   7.590   8.265 -1.3178  0.7557  0.2319
13225SOL     OW45766   2.783   1.804   4.757 -0.2284  0.1038  0.6926
13225SOL    HW145767   2.779   1.899   4.756 -1.3570  0.0646  0.5187
13225SOL    HW245768   2.834   1.781   4.680 -1.4620  0.5264 -0.2882
13226SOL     OW45769   7.561   2.604   0.283  0.7519 -0.1146  0.0543
13226SOL    HW145770   7.615   2.610   0.362  1.2414  0.2707 -0.3008
13226SOL    HW245771   7.618   2.635   0.212 -0.6651  2.6664 -0.0108
13227SOL     OW45772   0.505   7.079   7.802 -0.2982  0.2793  0.3224
13227SOL    HW145773   0.585   7.090   7.751 -0.4142  1.2172  0.3353
13227SOL    HW245774   0.444   7.037   7.741  0.2496 -0.6350  0.3756
13228SOL     OW45775   8.131  10.536   8.829 -0.1978 -0.5047 -0.5061
13228SOL    HW145776   8.147  10.443   8.849  2.3782  0.1595  1.0812
13228SOL    HW245777   8.144  10.542   8.734 -0.1099 -1.7224 -0.5961
13229SOL     OW45778   3.711   6.634   7.641  0.2121  0.4996 -0.1571
13229SOL    HW145779   3.745   6.712   7.685  1.6467  1.2391 -2.4146
13229SOL    HW245780   3.668   6.667   7.563 -0.0137 -0.9093 -0.6607
13230SOL     OW45781   6.744   4.074   0.893  0.1148  0.2800  0.5202
13230SOL    HW145782   6.804   4.077   0.968 -2.8067 -1.7996  3.2331
13230SOL    HW245783   6.772   3.998   0.843  1.7447  1.3465 -0.2821
13231SOL     OW45784   6.035   0.455   2.157  0.0511  0.1252  0.4819
13231SOL    HW145785   6.085   0.448   2.238  0.6161  0.6215  0.1882
13231SOL    HW245786   6.101   0.474   2.090 -0.6625  2.4784  0.3477
13232SOL     OW45787   4.147   9.973   8.615  0.7021 -0.0799 -0.2319
13232SOL    HW145788   4.204   9.950   8.689 -0.3166  1.8984  1.2831
13232SOL    HW245789   4.208   9.997   8.545  1.7666  0.3967  0.8117
13233SOL     OW45790   2.206   1.350   8.304  0.1474  0.1223 -0.3324
13233SOL    HW145791   2.145   1.347   8.230  1.3525  0.6077 -1.3792
13233SOL    HW245792   2.239   1.439   8.305  0.9078 -0.1524  0.1581
13234SOL     OW45793  10.115   2.578   7.670  0.5065 -0.0868  0.1246
13234SOL    HW145794  10.047   2.641   7.694 -0.1675 -0.9374  0.4862
13234SOL    HW245795  10.141   2.604   7.581  1.1619  1.4758  0.7331
13235SOL     OW45796   0.781   9.558   1.064 -0.9406  0.1045 -0.1349
13235SOL    HW145797   0.744   9.545   1.151 -2.6914  0.0444 -0.8484
13235SOL    HW245798   0.875   9.571   1.079 -1.0887 -0.6838  1.6764
13236SOL     OW45799   6.895   7.516   1.888 -0.1400 -0.0455 -0.2437
13236SOL    HW145800   6.861   7.471   1.965  0.2967  0.6836  0.3886
13236SOL    HW245801   6.865   7.607   1.898  0.8816  0.3097 -0.3432
13237SOL     OW45802   3.170   5.480   3.474  0.3490 -0.0656 -0.5708
13237SOL    HW145803   3.133   5.548   3.417  0.4027  1.1477  0.7977
13237SOL    HW245804   3.251   5.519   3.508  0.6500 -1.0216 -0.1585
13238SOL     OW45805   2.841   6.694   7.812 -0.3832  0.0692 -0.2435
13238SOL    HW145806   2.841   6.785   7.840  0.1437  0.3741 -1.1880
13238SOL    HW245807   2.757   6.659   7.843 -0.1539  0.5767  1.0143
13239SOL     OW45808   8.494   2.897   6.746 -0.3388  0.0969  0.1396
13239SOL    HW145809   8.404   2.927   6.758 -0.6761 -0.8773  0.1543
13239SOL    HW245810   8.498   2.868   6.655 -0.2310 -0.4726  0.3232
13240SOL     OW45811  10.838   4.522   6.332  0.4037  0.5483 -0.7623
13240SOL    HW145812  10.914   4.476   6.367  1.0712  1.8190 -0.4973
13240SOL    HW245813  10.807   4.577   6.404  0.0291  1.0206 -1.2716
13241SOL     OW45814   0.960   0.850   7.023  0.0459  0.1014 -0.0457
13241SOL    HW145815   1.015   0.824   6.949 -1.1573 -0.3537 -0.8180
13241SOL    HW245816   1.007   0.818   7.100  0.7218 -0.5262 -0.6948
13242SOL     OW45817   5.168   9.197   4.355 -0.3643  0.0345 -0.5319
13242SOL    HW145818   5.080   9.191   4.392 -0.2441  0.8517 -0.0892
13242SOL    HW245819   5.174   9.122   4.296 -0.8681 -0.8375  0.4761
13243SOL     OW45820   9.439   5.121   7.040 -0.0810 -0.2790  0.3673
13243SOL    HW145821   9.375   5.109   6.969  2.3177  0.2268 -2.0714
13243SOL    HW245822   9.501   5.184   7.005  1.5304 -0.3925  2.7932
13244SOL     OW45823   8.846   1.714   7.500 -0.2452 -0.3193  0.0315
13244SOL    HW145824   8.938   1.740   7.504 -0.8839  1.9309  1.9976
13244SOL    HW245825   8.848   1.624   7.465  2.4949  0.4332 -2.0910
13245SOL     OW45826   9.938   9.313  10.731 -0.4999 -0.5111  0.6292
13245SOL    HW145827   9.932   9.400  10.770  1.0698 -0.7970  1.6020
13245SOL    HW245828   9.852   9.273  10.749 -0.3180 -0.1098  2.5751
13246SOL     OW45829   2.390   5.278   2.522  0.0784 -0.0717  0.2258
13246SOL    HW145830   2.425   5.209   2.466 -2.0455 -2.0383  1.1525
13246SOL    HW245831   2.319   5.316   2.470  0.2023  0.3369  0.3513
13247SOL     OW45832   0.341  10.324   0.013 -0.2096  0.8248  0.5414
13247SOL    HW145833   0.299  10.410   0.023 -1.4406  0.4288 -0.8791
13247SOL    HW245834   0.334  10.304  -0.080  2.1374  0.1784  0.4310
13248SOL     OW45835   2.320   5.981   5.802 -0.2288 -0.1235 -0.0738
13248SOL    HW145836   2.397   5.996   5.857 -2.2024 -0.4967  2.9997
13248SOL    HW245837   2.297   6.068   5.769  1.2210  0.0472 -0.7387
13249SOL     OW45838   9.901   2.316   7.388 -0.3368  0.0133  0.6196
13249SOL    HW145839   9.843   2.385   7.356 -0.1411  0.4475  1.1982
13249SOL    HW245840   9.869   2.296   7.476  0.0095 -0.1840  0.7026
13250SOL     OW45841   2.024   3.835   6.645  0.2513 -0.0984  0.0733
13250SOL    HW145842   2.038   3.766   6.710 -1.4613 -0.6213 -0.0697
13250SOL    HW245843   1.993   3.788   6.567 -2.8147  0.8826  0.5531
13251SOL     OW45844   0.990   1.289   1.412 -0.1243  0.0543  0.3367
13251SOL    HW145845   0.928   1.217   1.412  0.6101 -0.5939  0.8032
13251SOL    HW245846   0.965   1.343   1.336 -0.5984 -0.7490 -0.0866
13252SOL     OW45847   6.922   6.802   2.837 -0.9404 -0.0664 -0.3539
13252SOL    HW145848   6.974   6.883   2.837 -1.5596  0.3663  0.9254
13252SOL    HW245849   6.982   6.735   2.872 -0.2001 -0.3512 -2.0849
13253SOL     OW45850   9.515   9.108   0.618 -0.3944 -0.9292 -0.1971
13253SOL    HW145851   9.582   9.040   0.616  0.5838  0.0208 -1.7037
13253SOL    HW245852   9.433   9.060   0.625  0.4295 -2.0894  2.5572
13254SOL     OW45853   5.540   8.796   2.941 -0.1690  0.6948 -0.0831
13254SOL    HW145854   5.571   8.761   2.858  0.3501 -0.5050  0.5952
13254SOL    HW245855   5.502   8.881   2.918 -1.6646 -0.3653 -1.8163
13255SOL     OW45856   2.956   5.586   4.970 -0.0444  0.4976 -0.0167
13255SOL    HW145857   2.988   5.648   5.035  1.7524 -1.1069  0.7335
13255SOL    HW245858   3.010   5.508   4.982 -1.1595 -0.6752 -1.9514
13256SOL     OW45859   0.203   9.284   5.884 -0.7318 -0.4410  0.1055
13256SOL    HW145860   0.135   9.346   5.855 -0.3561 -0.5492 -1.0643
13256SOL    HW245861   0.196   9.284   5.979 -0.8965  1.2412  0.1256
13257SOL     OW45862   0.713   6.837   5.650 -0.4235 -0.2656  0.5115
13257SOL    HW145863   0.667   6.784   5.585  0.8569  0.3298 -0.9467
13257SOL    HW245864   0.775   6.776   5.691  1.5147  0.1584 -1.6252
13258SOL     OW45865   5.111  10.001   8.857  0.6908 -0.3870 -0.2209
13258SOL    HW145866   5.043  10.064   8.832  0.5443 -0.3237  0.3318
13258SOL    HW245867   5.128   9.952   8.776 -1.4313 -1.7456  0.0701
13259SOL     OW45868   8.379   6.997   8.191  0.1978 -0.1649 -0.1606
13259SOL    HW145869   8.396   7.078   8.143 -0.2906  0.1082  0.1351
13259SOL    HW245870   8.363   7.024   8.281 -0.5733 -0.5342 -0.1824
13260SOL     OW45871   9.578   3.305  10.899  0.0625  0.0095 -0.0706
13260SOL    HW145872   9.641   3.234  10.913  0.2046  0.3502  1.1331
13260SOL    HW245873   9.619   3.362  10.834  0.8346  0.0278  0.4273
13261SOL     OW45874   8.491   5.260   6.592  0.3658  0.0889 -0.3569
13261SOL    HW145875   8.576   5.301   6.608  1.4370 -2.3049  0.6269
13261SOL    HW245876   8.428   5.319   6.632  1.7927  0.9201  0.7733
13262SOL     OW45877   3.982   3.544   3.568  0.0468  0.0072 -0.5924
13262SOL    HW145878   3.948   3.569   3.482 -1.2160 -0.8357 -0.3573
13262SOL    HW245879   3.933   3.465   3.592 -1.1989  1.4014  1.8516
13263SOL     OW45880   1.738   3.407   3.117  0.0126  0.4468  0.3096
13263SOL    HW145881   1.691   3.469   3.061  2.2848  1.8374 -0.1835
13263SOL    HW245882   1.772   3.460   3.189 -1.9293 -1.1268  2.5238
13264SOL     OW45883   5.725   7.524   7.088 -0.3502 -0.2803 -0.1299
13264SOL    HW145884   5.646   7.535   7.141 -1.3296  1.2402 -1.8170
13264SOL    HW245885   5.734   7.607   7.041  1.4930 -0.9314 -1.0035
13265SOL     OW45886   0.032   2.543   1.730 -0.1673  0.2576  0.6783
13265SOL    HW145887   0.126   2.560   1.735  0.4356 -2.6608  0.9737
13265SOL    HW245888  -0.000   2.563   1.818  0.0015  1.9076  0.3981
13266SOL     OW45889   1.850   4.567   4.586  0.4953  0.6148 -0.2990
13266SOL    HW145890   1.768   4.556   4.538  0.2409  0.2433  0.2081
13266SOL    HW245891   1.904   4.493   4.560 -0.2746 -0.5279  1.2295
13267SOL     OW45892   5.882   8.118   1.175 -0.0226  0.4235  0.2716
13267SOL    HW145893   5.956   8.104   1.234  1.0596  0.2240 -1.0732
13267SOL    HW245894   5.904   8.199   1.128  0.0030 -0.3022 -1.0390
13268SOL     OW45895   8.009   5.243   8.488 -0.0256  0.3162  0.0454
13268SOL    HW145896   7.924   5.199   8.477 -1.5180  3.1638 -0.8414
13268SOL    HW245897   8.039   5.260   8.399 -0.0103  1.8826  0.3221
13269SOL     OW45898   1.183   6.021   4.489  0.4563  0.1884  1.0146
13269SOL    HW145899   1.100   6.064   4.470  0.2813 -0.2503  0.7776
13269SOL    HW245900   1.218   6.068   4.565 -0.3047 -0.0289  1.5068
13270SOL     OW45901   3.243   0.731   8.138 -0.2677 -0.0227  0.5512
13270SOL    HW145902   3.227   0.818   8.100 -1.5650  0.3833  1.9278
13270SOL    HW245903   3.165   0.680   8.115  0.8309 -1.1196 -0.9360
13271SOL     OW45904  10.281   8.668   0.653  0.0453  0.0701 -0.6701
13271SOL    HW145905  10.193   8.632   0.657  1.0258 -2.6316 -1.6837
13271SOL    HW245906  10.281   8.725   0.576 -1.1482  1.2814  0.1727
13272SOL     OW45907  10.019   2.750   9.381  0.1159 -0.0245  0.1671
13272SOL    HW145908   9.980   2.821   9.432 -0.8614 -0.1989 -0.3291
13272SOL    HW245909  10.061   2.694   9.447  0.6019  0.8148  0.5924
13273SOL     OW45910   1.851   3.174   4.801  0.3471  0.4019  0.0192
13273SOL    HW145911   1.909   3.215   4.737  0.6059  1.5145  0.9264
13273SOL    HW245912   1.897   3.183   4.884 -0.1535 -0.6706  0.4315
13274SOL     OW45913   3.401   8.339   6.311  0.5639 -0.0317 -0.1701
13274SOL    HW145914   3.392   8.319   6.218 -1.3857  1.7598 -0.4567
13274SOL    HW245915   3.393   8.434   6.316  0.8144 -0.0701  1.8170
13275SOL     OW45916   8.481   0.808   7.795  0.1719 -0.9107 -0.1006
13275SOL    HW145917   8.485   0.712   7.800 -0.8902 -0.9472  0.3302
13275SOL    HW245918   8.388   0.827   7.784  0.6440 -0.0663 -3.8680
13276SOL     OW45919  10.373   2.227   3.200 -0.4853  0.1213 -0.1608
13276SOL    HW145920  10.377   2.322   3.196  0.1757  0.3280  2.8713
13276SOL    HW245921  10.463   2.199   3.215 -1.0562 -0.6029  2.5291
13277SOL     OW45922   6.274   2.143   9.240 -0.0194  0.0780  0.3990
13277SOL    HW145923   6.365   2.131   9.212 -0.5490  1.0164 -2.0217
13277SOL    HW245924   6.222   2.106   9.168 -1.5606  0.1401  1.4388
13278SOL     OW45925   8.533   8.737   0.115 -0.3310 -0.2469  0.1351
13278SOL    HW145926   8.610   8.792   0.104 -0.4686 -0.3547 -1.7524
13278SOL    HW245927   8.462   8.798   0.136 -0.1342  0.0933 -0.1839
13279SOL     OW45928  10.276   2.794   5.074  0.1838 -0.5036  0.3584
13279SOL    HW145929  10.198   2.749   5.041  0.2582  0.0892 -0.6812
13279SOL    HW245930  10.278   2.774   5.167 -1.1058 -0.6839  0.3678
13280SOL     OW45931  10.889   0.912   5.889  0.3768 -0.0397  0.0039
13280SOL    HW145932  10.919   0.838   5.942 -0.0590  0.2669  0.7028
13280SOL    HW245933  10.849   0.872   5.812  3.0242 -0.4659 -1.2672
13281SOL     OW45934   2.062   8.696   2.445 -0.1244  0.0442 -0.5311
13281SOL    HW145935   2.095   8.748   2.519  0.0749 -0.5456 -0.1949
13281SOL    HW245936   2.054   8.759   2.373 -0.3434  0.6340 -0.0031
13282SOL     OW45937   5.125   3.120   6.948 -0.0082 -0.0909  0.4025
13282SOL    HW145938   5.035   3.147   6.967  1.1571  2.7927  2.5710
13282SOL    HW245939   5.145   3.054   7.014 -0.3301 -0.2690  0.3231
13283SOL     OW45940   9.473   3.182   6.737  0.7327  0.4181 -0.6678
13283SOL    HW145941   9.379   3.163   6.739  0.8843 -0.4813 -1.4814
13283SOL    HW245942   9.483   3.252   6.673  0.6311  0.4411 -0.6582
13284SOL     OW45943   0.540  10.592   4.940 -0.1320 -0.7044 -0.6564
13284SOL    HW145944   0.455  10.631   4.958  0.4865 -0.5060  2.3028
13284SOL    HW245945   0.551  10.525   5.007  3.3876  1.5975  1.4344
13285SOL     OW45946   5.478   8.082   0.097  0.2684  0.4080 -0.1657
13285SOL    HW145947   5.472   8.175   0.075 -0.0542  0.3835 -0.1839
13285SOL    HW245948   5.426   8.073   0.177  0.4092  0.2670 -0.0887
13286SOL     OW45949   1.873   2.541   1.382  0.2302  0.0091 -0.3032
13286SOL    HW145950   1.838   2.593   1.310  0.8451 -0.3652 -0.8878
13286SOL    HW245951   1.821   2.566   1.458  0.3016  1.2407 -0.6394
13287SOL     OW45952   7.280   5.482   9.249 -0.1287 -0.3513 -0.1793
13287SOL    HW145953   7.291   5.416   9.317  0.7388 -0.5811 -0.5209
13287SOL    HW245954   7.331   5.557   9.281 -0.0366 -0.3218 -0.3944
13288SOL     OW45955   1.532   5.608   6.603  0.1278  0.0693  0.4643
13288SOL    HW145956   1.524   5.683   6.544  0.3142 -0.4315 -0.2088
13288SOL    HW245957   1.535   5.532   6.545  0.2663 -0.4386  1.1246
13289SOL     OW45958   5.697   6.709   9.853  0.1766  0.0156 -0.0279
13289SOL    HW145959   5.766   6.737   9.914 -0.4843 -1.3280  1.4065
13289SOL    HW245960   5.742   6.653   9.790  0.4137 -1.0067  1.0079
13290SOL     OW45961   2.379   6.204   3.185 -0.4149 -0.4656 -0.0128
13290SOL    HW145962   2.384   6.297   3.204 -1.8347 -0.2167 -0.7580
13290SOL    HW245963   2.450   6.189   3.123 -0.7984  0.3281 -0.6574
13291SOL     OW45964   2.263   0.571   2.423 -0.2806 -0.3418 -0.6082
13291SOL    HW145965   2.333   0.509   2.400 -0.9119 -1.3606  0.1244
13291SOL    HW245966   2.182   0.522   2.408 -0.7949  0.3323 -0.0740
13292SOL     OW45967   8.611   6.487   3.343  0.1959  0.3061 -0.2873
13292SOL    HW145968   8.668   6.527   3.277  0.4744  1.0139  0.3791
13292SOL    HW245969   8.523   6.495   3.306  0.4730 -0.5970 -1.2180
13293SOL     OW45970   6.683   4.157   0.430 -0.1003  0.1149  0.1710
13293SOL    HW145971   6.603   4.183   0.385  0.7543  0.2325 -1.3126
13293SOL    HW245972   6.667   4.066   0.457 -0.5086 -0.0554 -0.6422
13294SOL     OW45973   9.788   2.014   1.184 -0.2964  0.4763 -0.6503
13294SOL    HW145974   9.789   1.919   1.176  0.7246  0.4288 -0.1180
13294SOL    HW245975   9.856   2.043   1.123  2.4180  0.5580  2.1527
13295SOL     OW45976   8.862   3.944   9.262  0.2889  0.0998  0.4670
13295SOL    HW145977   8.937   3.995   9.293 -0.4341  0.6361  1.4062
13295SOL    HW245978   8.840   3.887   9.335  0.5701 -1.0025 -0.2777
13296SOL     OW45979   5.877   2.714   6.221  0.0764  0.0206  0.2200
13296SOL    HW145980   5.919   2.630   6.238  1.3464  0.5841 -0.0094
13296SOL    HW245981   5.801   2.715   6.279  0.5453 -0.9115  0.8762
13297SOL     OW45982   6.520   2.809   3.469  0.2072 -0.4262  0.5885
13297SOL    HW145983   6.530   2.904   3.471  0.8713 -0.3355 -2.3965
13297SOL    HW245984   6.451   2.791   3.532 -0.4179  2.1015  0.7367
13298SOL     OW45985  10.806   1.393   5.959 -0.5491  0.3798 -0.0766
13298SOL    HW145986  10.815   1.384   6.054  2.2637 -0.9096 -0.3392
13298SOL    HW245987  10.765   1.311   5.932 -0.4355  0.3197 -0.0663
13299SOL     OW45988   4.735   8.611   1.022 -0.2782  0.0573 -0.2700
13299SOL    HW145989   4.680   8.577   1.092 -0.0648 -0.7495 -0.4809
13299SOL    HW245990   4.818   8.632   1.064  0.4013 -1.9064 -0.5162
13300SOL     OW45991   0.082   4.496   0.541  0.2963  0.5347 -0.0406
13300SOL    HW145992   0.173   4.518   0.562  0.3552 -0.9827  1.4001
13300SOL    HW245993   0.034   4.507   0.623 -0.1554 -2.0134  0.0960
13301SOL     OW45994   7.048   4.069   0.194 -0.1638  0.0374 -0.0743
13301SOL    HW145995   7.091   4.123   0.260 -2.1626 -0.6927  1.9740
13301SOL    HW245996   7.006   4.132   0.135 -0.4537  0.7200  0.8449
13302SOL     OW45997   1.710   9.356   2.576  0.1413 -0.0463 -0.2045
13302SOL    HW145998   1.719   9.316   2.490  1.0693 -0.0642 -0.1093
13302SOL    HW245999   1.756   9.297   2.636 -0.0534  0.2271  0.2241
13303SOL     OW46000   7.265   6.964   2.146 -0.1498 -0.0053 -0.1041
13303SOL    HW146001   7.186   6.911   2.142 -1.9397  2.5224 -1.0014
13303SOL    HW246002   7.237   7.047   2.183  2.3824  0.5979  0.6796
13304SOL     OW46003   2.974   6.618  10.303 -0.2017  0.2528 -0.1103
13304SOL    HW146004   2.911   6.681  10.339  1.2759  0.9895  1.3046
13304SOL    HW246005   3.031   6.671  10.247 -0.0956 -0.1875 -0.4254
13305SOL     OW46006   2.649   2.424   4.277  0.3595  0.0445  0.3422
13305SOL    HW146007   2.650   2.328   4.281  1.7481  0.0381  0.4928
13305SOL    HW246008   2.562   2.446   4.246  0.3527 -1.3180 -0.6928
13306SOL     OW46009   2.572   4.072   5.090 -0.2507  0.3290 -0.1575
13306SOL    HW146010   2.668   4.075   5.092 -0.0464 -0.3823 -3.3345
13306SOL    HW246011   2.545   4.153   5.132  1.7024  0.4536  1.0158
13307SOL     OW46012   5.977   8.517   6.785  0.0102  0.0314  0.0525
13307SOL    HW146013   6.048   8.540   6.726  0.9510 -0.0419  1.1283
13307SOL    HW246014   5.963   8.423   6.771  0.4501 -0.0533  0.1711
13308SOL     OW46015   9.019   9.697  10.879  0.3972 -0.0691 -0.8338
13308SOL    HW146016   9.055   9.622  10.927  3.1363  0.9542 -1.0899
13308SOL    HW246017   8.985   9.755  10.947 -2.1180 -1.5956 -0.6496
13309SOL     OW46018   9.910   4.426   0.886  0.4672  0.0150 -0.2350
13309SOL    HW146019   9.979   4.361   0.900  2.7011  2.6221  1.7696
13309SOL    HW246020   9.857   4.424   0.966 -0.0792 -0.0003 -0.5874
13310SOL     OW46021   4.777   4.237   8.150 -0.0914 -0.2228 -0.0443
13310SOL    HW146022   4.783   4.325   8.186  1.9313 -0.1453 -0.4902
13310SOL    HW246023   4.847   4.188   8.193 -1.1340 -1.6352  0.1505
13311SOL     OW46024   8.579   6.945   4.563  0.6321  0.0587  0.2387
13311SOL    HW146025   8.527   6.982   4.635  1.3643 -1.6352  1.7117
13311SOL    HW246026   8.670   6.953   4.593  1.1486  1.2731 -1.4822
13312SOL     OW46027   8.711   9.649   9.332 -0.2453 -0.2087 -0.0700
13312SOL    HW146028   8.725   9.682   9.420 -0.9083  1.0909 -0.4234
13312SOL    HW246029   8.734   9.722   9.275  1.5626 -1.4670 -1.0810
13313SOL     OW46030   0.871   6.335   9.932 -0.4793 -0.1993 -0.4918
13313SOL    HW146031   0.790   6.285   9.919  0.1522 -0.6014 -3.7862
13313SOL    HW246032   0.860   6.414   9.878  1.3915 -0.4023 -1.2594
13314SOL     OW46033   9.552  10.180   9.713  0.4945 -0.6592  0.0628
13314SOL    HW146034   9.630  10.195   9.660  1.4352  1.0523  1.7745
13314SOL    HW246035   9.495  10.255   9.694 -0.3746 -1.4620 -0.5502
13315SOL     OW46036   1.050   1.939   5.352  0.2029  0.1602 -0.4202
13315SOL    HW146037   1.122   1.945   5.290 -0.4186 -0.3481 -1.2034
13315SOL    HW246038   1.047   2.026   5.393  1.3585  0.1308 -0.2461
13316SOL     OW46039   2.080   9.977   9.230 -0.3417  0.1709  0.3591
13316SOL    HW146040   2.082   9.881   9.237 -1.8489 -0.0007 -0.9967
13316SOL    HW246041   2.036  10.005   9.311  0.0705 -0.2711  0.7495
13317SOL     OW46042   9.473   0.651   9.454  0.9544  0.0356 -0.3904
13317SOL    HW146043   9.429   0.642   9.539 -1.6507 -0.7323 -1.7051
13317SOL    HW246044   9.543   0.714   9.470 -0.0158  0.6012  2.1318
13318SOL     OW46045   0.540   5.778   0.945 -0.4563  0.0771 -0.8064
13318SOL    HW146046   0.601   5.822   1.004 -1.5716  1.0357 -0.3380
13318SOL    HW246047   0.568   5.686   0.944 -0.5223  0.0031  1.3441
13319SOL     OW46048   1.976   8.288   8.365  0.5548  0.3939 -0.0293
13319SOL    HW146049   1.930   8.248   8.291 -0.9566 -0.9342  1.5478
13319SOL    HW246050   2.063   8.249   8.364  1.5663  2.4275 -2.6526
13320SOL     OW46051   8.235   3.058   9.459 -0.1034 -0.1817 -0.9056
13320SOL    HW146052   8.282   3.023   9.384 -1.6445 -0.1629 -1.9240
13320SOL    HW246053   8.228   3.152   9.442  0.3100 -0.0209 -0.2691
13321SOL     OW46054   7.575   0.024   4.005 -0.9309 -0.5923  0.5935
13321SOL    HW146055   7.656  -0.005   4.047 -2.0260 -1.7409  1.9992
13321SOL    HW246056   7.581  -0.012   3.916  0.1423 -0.5715  0.6409
13322SOL     OW46057   8.426   5.175   7.735 -0.2556  0.4281 -0.2347
13322SOL    HW146058   8.347   5.214   7.773 -1.0505 -1.4152  0.0919
13322SOL    HW246059   8.449   5.103   7.794  2.4573  1.6582  0.3975
13323SOL     OW46060   5.639   8.761   6.411  0.3778 -0.0526 -0.5080
13323SOL    HW146061   5.573   8.719   6.467  0.6616 -2.6630 -1.9647
13323SOL    HW246062   5.591   8.826   6.362 -0.6091 -0.2267  0.1891
13324SOL     OW46063   1.322   2.881   7.729 -0.2937  0.2741  0.2484
13324SOL    HW146064   1.363   2.903   7.645 -1.4251 -1.1487 -0.7469
13324SOL    HW246065   1.387   2.903   7.795  0.6512  1.3870 -1.0043
13325SOL     OW46066  10.510   8.075   6.854  0.2741 -0.0896 -0.8460
13325SOL    HW146067  10.521   8.138   6.925 -0.0153 -1.4288  0.4431
13325SOL    HW246068  10.416   8.070   6.840  0.2715 -0.5200 -0.6766
13326SOL     OW46069   5.495   4.894   1.944 -0.1748  0.1181  0.1998
13326SOL    HW146070   5.481   4.935   2.030 -0.1732  0.7064 -0.0787
13326SOL    HW246071   5.453   4.808   1.952  2.1957 -1.0259  1.7375
13327SOL     OW46072   9.058   5.012   6.471 -0.0517  0.5654 -1.0008
13327SOL    HW146073   8.986   5.045   6.525 -0.2842 -0.0035 -0.9611
13327SOL    HW246074   9.050   5.060   6.389 -0.9266 -0.0132 -1.2641
13328SOL     OW46075   1.685   2.592   3.102 -0.0364  0.1696 -0.0373
13328SOL    HW146076   1.625   2.524   3.131  1.4655 -1.5577 -0.8015
13328SOL    HW246077   1.725   2.626   3.182  1.0149 -1.6311  0.2508
13329SOL     OW46078   7.593   0.502   6.887 -0.1396 -0.0192  0.0539
13329SOL    HW146079   7.632   0.415   6.894  1.0922  0.3786 -1.3534
13329SOL    HW246080   7.635   0.541   6.810 -1.0293  1.6363  0.3628
13330SOL     OW46081   1.947  10.416  10.807  0.0141  0.0554 -0.0453
13330SOL    HW146082   1.954  10.344  10.869 -0.8602 -0.2396 -0.2673
13330SOL    HW246083   1.880  10.474  10.844  0.0686  0.2945 -0.3125
13331SOL     OW46084   7.619   5.526   1.144 -0.1360  0.2898 -0.5904
13331SOL    HW146085   7.544   5.586   1.145 -0.9238 -0.6696  0.0968
13331SOL    HW246086   7.642   5.518   1.052 -0.6203  0.9194 -0.7740
13332SOL     OW46087   1.849   9.199   6.641  0.2112  0.3044  0.2929
13332SOL    HW146088   1.866   9.137   6.570 -1.5727  0.0949  0.0161
13332SOL    HW246089   1.920   9.183   6.704  1.5553  0.1679 -1.1896
13333SOL     OW46090   9.651   1.802   0.314 -0.2107 -0.2139 -0.0909
13333SOL    HW146091   9.624   1.751   0.237  0.8265  0.3432 -0.8591
13333SOL    HW246092   9.729   1.756   0.346 -0.0648  0.1119  0.0232
13334SOL     OW46093   7.958   3.290   3.144  0.2728  0.1995 -0.2235
13334SOL    HW146094   8.009   3.371   3.143  1.3290 -0.3476  2.0181
13334SOL    HW246095   7.869   3.318   3.167  0.5164  0.7625  0.0523
13335SOL     OW46096   1.395  10.392   5.234  0.8424 -0.6874 -0.2553
13335SOL    HW146097   1.337  10.403   5.309 -0.2216 -2.2758 -0.8006
13335SOL    HW246098   1.481  10.376   5.272  0.6412  0.1193  0.5828
13336SOL     OW46099   4.045  10.330   8.971 -0.0803 -0.3176  0.0801
13336SOL    HW146100   4.099  10.388   9.024 -0.3266 -0.3145  0.3335
13336SOL    HW246101   4.096  10.249   8.963 -0.4903 -0.7269  1.2540
13337SOL     OW46102   3.132   7.676   8.233 -0.4253 -0.6114 -0.6906
13337SOL    HW146103   3.047   7.661   8.275 -0.6004 -0.0306 -0.8308
13337SOL    HW246104   3.113   7.671   8.140 -0.3941 -0.0377 -0.7310
13338SOL     OW46105   2.594   4.125   4.592  0.4481 -0.0986 -0.4268
13338SOL    HW146106   2.551   4.176   4.661  0.8686 -1.9844  1.3128
13338SOL    HW246107   2.683   4.161   4.588  0.5265 -0.2038  0.2705
13339SOL     OW46108   4.640   9.528   9.509  0.8606  0.0601  0.1127
13339SOL    HW146109   4.596   9.574   9.438  2.3212 -1.1000 -1.6196
13339SOL    HW246110   4.718   9.580   9.527  0.7616  0.0694  0.5509
13340SOL     OW46111   5.941   4.329   4.683  0.3121 -0.0413  0.1260
13340SOL    HW146112   5.950   4.363   4.772  1.1687  0.5432 -0.1714
13340SOL    HW246113   5.892   4.396   4.636 -2.9046 -1.6645  0.8520
13341SOL     OW46114   8.992   3.779   9.061 -0.1017  0.0437  0.4857
13341SOL    HW146115   8.940   3.843   9.111  1.0190 -0.5382  2.4757
13341SOL    HW246116   8.931   3.707   9.044 -0.9401  0.9294 -0.4412
13342SOL     OW46117   3.230   1.716   3.252  0.5037 -0.3197  0.5270
13342SOL    HW146118   3.286   1.644   3.280 -0.4595 -1.8264 -1.2236
13342SOL    HW246119   3.287   1.773   3.201  0.7044 -1.2464 -0.2932
13343SOL     OW46120   3.465   8.629   3.246 -0.5299 -0.1646  0.6695
13343SOL    HW146121   3.554   8.628   3.211 -0.7836  1.3517 -0.0775
13343SOL    HW246122   3.446   8.537   3.264  1.4825 -0.4408  1.6485
13344SOL     OW46123   3.035   7.684   1.410 -0.0422  0.0607 -0.3323
13344SOL    HW146124   3.048   7.591   1.394 -0.4538 -0.0859  0.1622
13344SOL    HW246125   2.990   7.716   1.332 -0.6077 -0.3215 -0.1665
13345SOL     OW46126   4.844   5.213   3.278  0.1560  0.7561 -0.5240
13345SOL    HW146127   4.884   5.171   3.354  1.6502  0.9231 -1.1970
13345SOL    HW246128   4.755   5.233   3.307  0.3199 -0.2417  0.7806
13346SOL     OW46129   6.624   6.848   2.371 -0.1502 -0.5167  0.0445
13346SOL    HW146130   6.676   6.886   2.442  0.2855 -0.0813 -0.4891
13346SOL    HW246131   6.624   6.754   2.388 -2.8939 -0.2008  2.4883
13347SOL     OW46132  10.077   7.431   5.124  0.1417 -0.6056 -0.2792
13347SOL    HW146133  10.170   7.449   5.106  0.0813 -0.7019 -0.6859
13347SOL    HW246134  10.078   7.389   5.210  0.4870 -0.6848 -0.3189
13348SOL     OW46135   1.169   3.781   5.556 -0.3956 -0.1660  0.5159
13348SOL    HW146136   1.222   3.838   5.501  0.5458 -1.1189  0.3899
13348SOL    HW246137   1.106   3.742   5.496  0.2349 -0.7387  0.2093
13349SOL     OW46138   2.708   5.901   7.355 -0.1918 -0.1017  0.6661
13349SOL    HW146139   2.731   5.822   7.307  1.4432  0.3704  0.6216
13349SOL    HW246140   2.669   5.959   7.289  1.3280  0.2422  0.0253
13350SOL     OW46141   9.596  10.315   2.620 -0.2757  0.2510  0.1647
13350SOL    HW146142   9.657  10.262   2.569  1.1977  0.0054  2.0530
13350SOL    HW246143   9.523  10.331   2.561  0.1292 -2.1872 -1.1519
13351SOL     OW46144   9.812   7.856   7.983 -0.2042 -0.4018  0.2140
13351SOL    HW146145   9.855   7.781   8.026 -1.1768 -1.7268 -1.0399
13351SOL    HW246146   9.824   7.840   7.890 -0.2143  1.1779 -0.0813
13352SOL     OW46147   7.098   2.415   0.561 -0.6488  0.3724 -0.1682
13352SOL    HW146148   7.129   2.385   0.647 -1.4664  1.9685  0.7338
13352SOL    HW246149   7.094   2.510   0.569 -1.3685  0.5077 -1.7813
13353SOL     OW46150   6.372   4.561   4.331 -0.2831 -0.2792 -0.1574
13353SOL    HW146151   6.365   4.657   4.331 -0.2251 -0.2738  0.2073
13353SOL    HW246152   6.304   4.532   4.392  0.3650 -0.4115  0.5220
13354SOL     OW46153   7.200   5.411   4.396  0.0905  0.6970 -0.1625
13354SOL    HW146154   7.293   5.408   4.418 -0.1537  2.0223  1.2055
13354SOL    HW246155   7.162   5.334   4.438  0.0284  1.9873  2.3333
13355SOL     OW46156  10.644   2.485   8.670 -0.3489 -0.3521 -0.4127
13355SOL    HW146157  10.593   2.543   8.614 -1.2586 -1.1025 -0.3863
13355SOL    HW246158  10.667   2.539   8.746  0.4135  0.5048 -1.2305
13356SOL     OW46159   8.848   0.076   9.591  0.1554  0.1404  0.1729
13356SOL    HW146160   8.906   0.040   9.658  2.4936  2.1535 -0.6338
13356SOL    HW246161   8.883   0.043   9.508  0.2791  1.5107 -0.3439
13357SOL     OW46162   1.684   8.197   1.599 -0.3256 -0.0849  0.8198
13357SOL    HW146163   1.607   8.148   1.570  0.5529 -2.2071  1.9381
13357SOL    HW246164   1.719   8.148   1.673  2.0796  0.8587  0.4156
13358SOL     OW46165   9.003   2.604   3.324 -0.1460  0.5791 -0.1611
13358SOL    HW146166   9.079   2.546   3.333  1.7357  2.9718  0.4562
13358SOL    HW246167   8.930   2.545   3.305  1.8823 -1.8250 -1.0235
13359SOL     OW46168   2.370   5.438   0.317 -0.1353  0.7203  0.2734
13359SOL    HW146169   2.278   5.414   0.323  0.2168 -0.3992  1.6031
13359SOL    HW246170   2.410   5.404   0.397  1.7380 -0.1382 -0.9489
13360SOL     OW46171   3.983   5.731   9.673  0.0510  0.5269 -0.1915
13360SOL    HW146172   4.066   5.734   9.626  1.1056 -0.1517  1.5111
13360SOL    HW246173   3.972   5.819   9.709 -0.2515  0.7634 -0.8481
13361SOL     OW46174  10.776   6.088   8.705  0.4645 -0.3841 -0.5313
13361SOL    HW146175  10.862   6.131   8.710  1.3771 -2.1667  0.1048
13361SOL    HW246176  10.794   6.005   8.660 -0.9137 -0.8572 -0.2548
13362SOL     OW46177   3.402   5.718   5.021 -0.0425  0.0855 -0.1384
13362SOL    HW146178   3.471   5.763   4.972  1.1173 -0.3333  1.0514
13362SOL    HW246179   3.379   5.643   4.967  1.7072 -0.7601  0.2026
13363SOL     OW46180   8.353  10.832   0.214 -0.4946  0.8140 -0.2392
13363SOL    HW146181   8.341  10.926   0.223  0.3529  1.1169 -1.8744
13363SOL    HW246182   8.292  10.807   0.144  0.7921  0.5682 -1.3229
13364SOL     OW46183   2.502   2.488   1.410  0.6332  0.0722 -0.0920
13364SOL    HW146184   2.467   2.476   1.498 -1.3163  0.3026 -0.8014
13364SOL    HW246185   2.454   2.425   1.356  0.6064  1.0881 -1.2788
13365SOL     OW46186   0.654   6.337   6.406 -0.5114  0.2386 -0.7475
13365SOL    HW146187   0.570   6.300   6.380 -0.7375  1.1607 -1.3508
13365SOL    HW246188   0.663   6.314   6.498 -1.4786  0.2316 -0.6462
13366SOL     OW46189   7.428   1.212   6.763 -0.2480 -0.4201 -0.2982
13366SOL    HW146190   7.461   1.225   6.852 -2.7538 -1.0742  0.8157
13366SOL    HW246191   7.450   1.122   6.741 -1.0857 -0.8115  0.3894
13367SOL     OW46192   3.670   0.159   5.614  0.2731  0.2731 -0.1851
13367SOL    HW146193   3.763   0.164   5.592  0.7432 -0.6392  1.3851
13367SOL    HW246194   3.637   0.085   5.563 -0.3750  2.4280 -3.0839
13368SOL     OW46195   5.220   9.573   5.185 -0.0886  0.6357 -0.3141
13368SOL    HW146196   5.166   9.632   5.238  2.3828  1.9462  0.9516
13368SOL    HW246197   5.250   9.627   5.111 -0.0790  0.1143 -0.6967
13369SOL     OW46198   6.153   9.456   7.318  0.0074  0.1467 -0.3752
13369SOL    HW146199   6.212   9.505   7.376 -1.4875  1.1731  0.3576
13369SOL    HW246200   6.091   9.413   7.377  0.8354 -2.0954 -1.0540
13370SOL     OW46201   5.441   8.698  10.279 -0.3087 -0.1888 -0.0633
13370SOL    HW146202   5.454   8.675  10.187 -2.2452  1.2969 -0.7725
13370SOL    HW246203   5.479   8.786  10.287  1.3568 -0.9487  1.0360
13371SOL     OW46204   7.448   5.642   8.119  0.5765  0.2312  0.6982
13371SOL    HW146205   7.418   5.592   8.043  2.3834  0.8449 -0.5083
13371SOL    HW246206   7.369   5.683   8.153 -0.1260  1.2118 -1.8528
13372SOL     OW46207   2.466   9.871   9.844  0.3144 -0.4442  0.1790
13372SOL    HW146208   2.553   9.895   9.878 -0.3292  1.1243  0.7815
13372SOL    HW246209   2.437   9.947   9.794 -1.3079 -0.3599  1.1807
13373SOL     OW46210   2.094   1.614   1.574  0.3830 -0.2155  0.6215
13373SOL    HW146211   2.016   1.563   1.598  0.9558 -0.8949  1.0921
13373SOL    HW246212   2.136   1.561   1.506  0.1589  0.4175 -0.0232
13374SOL     OW46213   0.537   6.496  10.690 -0.2788  0.1795 -0.4615
13374SOL    HW146214   0.488   6.534  10.617  0.5672  1.0270 -0.6006
13374SOL    HW246215   0.607   6.559  10.707 -0.2214 -0.1995  0.8163
13375SOL     OW46216   8.064   6.176   4.558 -0.8695  1.2865  0.1492
13375SOL    HW146217   7.980   6.210   4.530 -0.7077  1.1691 -0.4821
13375SOL    HW246218   8.109   6.151   4.477 -1.0617 -0.6322  0.5702
13376SOL     OW46219   4.189   1.886   1.551  0.5346 -0.8505 -0.5296
13376SOL    HW146220   4.158   1.823   1.617  0.7353 -0.3490  0.0575
13376SOL    HW246221   4.109   1.926   1.517  0.3902 -1.5873 -1.0865
13377SOL     OW46222   7.873   6.619  10.522  0.1723 -0.2040  0.1178
13377SOL    HW146223   7.924   6.695  10.494  1.5572 -0.8555  0.7604
13377SOL    HW246224   7.784   6.652  10.534  0.5732  1.1215 -0.4096
13378SOL     OW46225   6.123   9.518   4.489  0.0922  0.0075 -0.3268
13378SOL    HW146226   6.141   9.433   4.530  0.2819  0.0444 -0.3358
13378SOL    HW246227   6.160   9.511   4.401  0.3294  0.1889 -0.2420
13379SOL     OW46228   3.330   7.452   3.843 -0.2488  0.1030 -0.3153
13379SOL    HW146229   3.318   7.395   3.768  0.6049  0.7842 -0.9896
13379SOL    HW246230   3.424   7.472   3.845 -0.6054  2.0701 -0.5759
13380SOL     OW46231   0.746   1.947   5.903 -0.8756 -0.1235 -0.9321
13380SOL    HW146232   0.719   1.874   5.847 -1.3661  0.2632 -1.2078
13380SOL    HW246233   0.814   1.992   5.852  0.0067 -0.8396 -0.4246
13381SOL     OW46234   5.003   1.561   2.891 -0.5227 -0.1933 -0.8354
13381SOL    HW146235   4.966   1.636   2.938  1.4280  0.6513 -0.5499
13381SOL    HW246236   5.010   1.493   2.957 -0.5598  0.0049 -0.6249
13382SOL     OW46237  10.034  10.080   8.320 -0.0062  0.0594  0.1873
13382SOL    HW146238   9.996  10.041   8.242 -0.0401 -0.2115  0.3403
13382SOL    HW246239   9.965  10.139   8.352 -0.2182 -0.2653  0.3390
13383SOL     OW46240   0.048   4.901   6.867  0.1031 -0.2730  0.2726
13383SOL    HW146241   0.140   4.886   6.888  0.4328 -0.0309 -0.9124
13383SOL    HW246242   0.048   4.982   6.815 -0.7772 -0.2573  0.2756
13384SOL     OW46243   6.915   7.082   4.781  0.3448  0.0191  0.3783
13384SOL    HW146244   6.996   7.062   4.735 -0.0802 -2.0487  0.4263
13384SOL    HW246245   6.896   7.002   4.831 -1.9935  0.2454 -0.0556
13385SOL     OW46246   0.538  10.904   3.436 -0.6540  0.0288 -0.1399
13385SOL    HW146247   0.474  10.971   3.462  1.1652  1.4565  0.8831
13385SOL    HW246248   0.618  10.953   3.420  0.2016 -1.7147 -1.4405
13386SOL     OW46249   7.908   5.158  10.072 -0.0824  0.5082 -0.5999
13386SOL    HW146250   7.974   5.198  10.016 -0.3904  0.9080 -0.6859
13386SOL    HW246251   7.914   5.065  10.054  3.3354 -0.0821  2.3986
13387SOL     OW46252   4.160   0.721   9.569 -0.4750 -0.8788  0.0369
13387SOL    HW146253   4.199   0.634   9.566 -0.1914 -0.7766  0.7640
13387SOL    HW246254   4.156   0.748   9.477 -0.4523 -1.6034 -0.1826
13388SOL     OW46255   9.403   1.695   8.419  0.3533  0.0320 -0.2460
13388SOL    HW146256   9.474   1.661   8.365  0.2840  0.4025 -0.5792
13388SOL    HW246257   9.400   1.637   8.495  2.8483  1.5641  1.1986
13389SOL     OW46258   7.676   1.890   2.761 -0.5826 -0.7152  0.2617
13389SOL    HW146259   7.651   1.908   2.852  0.7517  0.2961  0.4518
13389SOL    HW246260   7.745   1.824   2.768  0.2492  0.1154  0.0706
13390SOL     OW46261   1.647   3.667   1.630  0.0671 -0.6198  0.4122
13390SOL    HW146262   1.589   3.720   1.684  0.8130 -0.9379  1.5584
13390SOL    HW246263   1.590   3.599   1.593 -0.4342 -0.4753  0.9027
13391SOL     OW46264   7.913   0.105   1.522  0.0687  0.1982  0.0233
13391SOL    HW146265   7.901   0.096   1.427  0.1385 -0.2377  0.0575
13391SOL    HW246266   7.834   0.152   1.550  0.2265  0.6688 -0.3031
13392SOL     OW46267   4.001   7.897   5.012 -0.1005 -0.7218  0.1036
13392SOL    HW146268   3.955   7.830   5.064 -0.9363  0.9084  1.5671
13392SOL    HW246269   4.068   7.930   5.072  1.5264 -1.4694 -1.2339
13393SOL     OW46270   6.757   1.308   3.233 -0.6600 -0.1246  0.3075
13393SOL    HW146271   6.821   1.330   3.166 -1.9262  1.5345 -0.4373
13393SOL    HW246272   6.689   1.376   3.225 -1.5194 -0.6521  2.3783
13394SOL     OW46273   5.439   0.524   4.953 -0.7517  0.1287 -0.0433
13394SOL    HW146274   5.411   0.601   4.904  0.1438  1.3195  1.2608
13394SOL    HW246275   5.360   0.495   4.999 -0.6959  1.3963  0.9042
13395SOL     OW46276   0.094   1.098   9.167  0.2998  0.1832 -0.5210
13395SOL    HW146277   0.024   1.034   9.174  1.1267 -0.9157 -1.7743
13395SOL    HW246278   0.081   1.139   9.081  0.3151  1.0668 -0.1163
13396SOL     OW46279   7.130   7.702   8.536  0.4291 -0.0217  0.3447
13396SOL    HW146280   7.209   7.751   8.510 -0.8298  0.4560 -3.0091
13396SOL    HW246281   7.082   7.763   8.592  0.5952  1.2500 -0.8373
13397SOL     OW46282   9.285   9.726   3.689  0.5971 -0.5039  0.5439
13397SOL    HW146283   9.235   9.686   3.760 -1.7853  0.7486 -0.3051
13397SOL    HW246284   9.257   9.679   3.610  1.0339 -0.0016  0.0803
13398SOL     OW46285   2.466   0.042   0.696 -0.4683  0.0535 -0.2223
13398SOL    HW146286   2.400  -0.020   0.664 -0.1115 -0.8739  0.7777
13398SOL    HW246287   2.534   0.041   0.629  0.6801 -2.5159  0.8373
13399SOL     OW46288   3.184   6.524   3.227  0.3058 -0.0627 -0.3141
13399SOL    HW146289   3.212   6.598   3.172 -0.8506  0.4033 -0.2949
13399SOL    HW246290   3.239   6.451   3.198 -1.4169 -0.3070 -3.3609
13400SOL     OW46291   0.839  10.092   1.157  0.5155 -0.5271  0.0660
13400SOL    HW146292   0.846  10.168   1.214 -1.0651 -0.8692  0.7708
13400SOL    HW246293   0.747  10.066   1.163  0.4643 -1.0243 -2.0712
13401SOL     OW46294   9.637   1.806   7.876 -0.9457  0.1260  0.2401
13401SOL    HW146295   9.699   1.749   7.922  0.7366  2.2687  0.7861
13401SOL    HW246296   9.594   1.748   7.812  2.6385 -1.2563 -1.1949
13402SOL     OW46297   9.252   8.385   3.972  0.3124 -0.6039 -0.3551
13402SOL    HW146298   9.171   8.351   3.934 -0.1324  0.5401 -0.4752
13402SOL    HW246299   9.265   8.469   3.929  1.9960 -1.1053 -0.9069
13403SOL     OW46300   3.051   0.981   5.869 -0.5602  0.0631  0.1587
13403SOL    HW146301   3.024   0.899   5.827 -0.0296  0.0090 -0.0778
13403SOL    HW246302   2.972   1.035   5.868 -0.6154 -0.0284 -0.6762
13404SOL     OW46303   5.451   0.273   8.533 -0.0574 -0.3047 -0.0795
13404SOL    HW146304   5.379   0.324   8.571 -0.5098 -0.7676 -0.3034
13404SOL    HW246305   5.413   0.232   8.455  0.3892 -0.7158 -0.0840
13405SOL     OW46306   4.984   9.074   9.819  0.5211 -0.3939 -0.4388
13405SOL    HW146307   4.920   9.014   9.779 -1.6932  0.6421  1.2897
13405SOL    HW246308   5.001   9.139   9.752  1.7341 -2.0253 -1.7918
13406SOL     OW46309   6.466   2.724   1.815 -0.5045  0.0411 -0.3862
13406SOL    HW146310   6.430   2.784   1.749 -1.1321 -2.0669 -2.0575
13406SOL    HW246311   6.531   2.672   1.768  2.1089  1.1487  1.6808
13407SOL     OW46312   0.260   4.983   5.860 -0.1559 -0.3435 -0.1936
13407SOL    HW146313   0.271   5.042   5.934 -0.1190 -2.3902  1.4959
13407SOL    HW246314   0.178   5.012   5.819 -0.0576  0.9551  0.4799
13408SOL     OW46315   2.227   1.014  10.687 -0.1079  0.3031 -0.4686
13408SOL    HW146316   2.239   1.098  10.731  2.9299  0.8124 -1.9799
13408SOL    HW246317   2.200   1.037  10.598  0.6141 -0.2962 -0.8567
13409SOL     OW46318   5.880   9.327   5.569  0.5454  0.2892  0.7879
13409SOL    HW146319   5.973   9.325   5.545  0.6949 -0.2569  1.3815
13409SOL    HW246320   5.865   9.418   5.594  0.6954  0.5795 -0.1314
13410SOL     OW46321   1.262   2.586   8.967 -0.0891  0.0763  0.4033
13410SOL    HW146322   1.355   2.570   8.987  0.0678  0.0784 -0.2862
13410SOL    HW246323   1.215   2.558   9.045  0.5950  1.3605  1.3046
13411SOL     OW46324   2.774   9.593   8.903 -0.0296 -0.0790 -0.2509
13411SOL    HW146325   2.761   9.647   8.981  1.6564 -0.2606  0.1983
13411SOL    HW246326   2.686   9.582   8.866 -0.9780 -0.5556  1.9776
13412SOL     OW46327   2.997   2.739   4.040 -0.1254 -0.3364  0.0848
13412SOL    HW146328   2.925   2.686   4.074 -0.2693 -1.4634 -1.8229
13412SOL    HW246329   2.956   2.817   4.004 -0.8509 -2.0549 -3.2258
13413SOL     OW46330   1.135   3.948   7.885  0.1787 -0.2637  0.1671
13413SOL    HW146331   1.194   4.003   7.937 -0.2903 -1.5384  2.1344
13413SOL    HW246332   1.146   3.980   7.796  1.1072  1.9469  1.0054
13414SOL     OW46333   8.405   9.461   5.638  0.0849  0.6951 -0.3597
13414SOL    HW146334   8.472   9.478   5.704 -0.1305 -0.5383  0.1866
13414SOL    HW246335   8.451   9.411   5.570 -0.2286 -0.0150 -0.0583
13415SOL     OW46336   8.040   5.194  10.511 -0.6130  0.0173 -0.1069
13415SOL    HW146337   7.957   5.224  10.549 -0.9822 -0.9590 -0.1007
13415SOL    HW246338   8.088   5.157  10.585 -1.2771 -1.7621 -0.4996
13416SOL     OW46339   9.514   8.600   4.669 -0.0433  0.2536  0.0883
13416SOL    HW146340   9.450   8.601   4.741  1.0847  0.4717  1.1139
13416SOL    HW246341   9.581   8.662   4.696 -0.4813  1.7703 -2.0154
13417SOL     OW46342   0.522   2.054   4.987  0.1916  0.2375 -0.2704
13417SOL    HW146343   0.430   2.081   4.982  0.5968  1.5118 -3.5386
13417SOL    HW246344   0.536   2.002   4.908  2.6075  1.2528 -0.5830
13418SOL     OW46345   0.937   1.723   1.380  0.0102 -0.2489  0.1664
13418SOL    HW146346   0.999   1.724   1.454 -0.5402 -0.5547  0.6343
13418SOL    HW246347   0.972   1.790   1.320  1.1879 -0.8998  0.0912
13419SOL     OW46348   6.630   9.242   8.382 -0.3231  0.5422 -0.0566
13419SOL    HW146349   6.705   9.286   8.421  0.9572 -1.7374  0.2167
13419SOL    HW246350   6.626   9.276   8.293  1.3102  0.4074 -0.2106
13420SOL     OW46351   2.851   9.637   6.988 -0.1959  0.4713 -0.2672
13420SOL    HW146352   2.780   9.603   7.042  3.6883 -4.2191  2.8006
13420SOL    HW246353   2.828   9.610   6.899 -2.1869 -1.0580  0.6137
13421SOL     OW46354   2.228   0.614   0.432 -0.5655 -0.5648 -0.5278
13421SOL    HW146355   2.309   0.648   0.470 -0.5756 -1.0968 -0.0167
13421SOL    HW246356   2.168   0.606   0.507 -1.3825  0.6259 -1.0237
13422SOL     OW46357   2.352   6.853   8.802 -0.1927  0.1052 -0.2897
13422SOL    HW146358   2.330   6.849   8.709  1.1800 -0.5846 -0.6176
13422SOL    HW246359   2.287   6.799   8.845 -1.6814  1.5350 -0.6474
13423SOL     OW46360  10.468  10.109   5.364  0.2580 -0.2154  0.2097
13423SOL    HW146361  10.519  10.183   5.398 -1.0836  1.1380 -0.5756
13423SOL    HW246362  10.482  10.113   5.269 -0.0785 -0.7854  0.1336
13424SOL     OW46363   4.516   0.728  10.744  0.3674  0.0057  0.1616
13424SOL    HW146364   4.603   0.760  10.766  0.9606 -1.8414  0.6501
13424SOL    HW246365   4.530   0.642  10.705 -1.1934  0.0531 -0.6210
13425SOL     OW46366   8.887   8.589   6.886  0.5881 -0.1307 -0.0167
13425SOL    HW146367   8.877   8.604   6.980  1.8320  1.6277 -0.1109
13425SOL    HW246368   8.808   8.628   6.848  0.4787 -0.1073  0.2263
13426SOL     OW46369   2.240   3.590   5.367  0.1085  0.6765  0.6239
13426SOL    HW146370   2.269   3.529   5.299  1.2678  1.4552  0.3948
13426SOL    HW246371   2.189   3.536   5.427  0.5682 -0.3892  0.0904
13427SOL     OW46372   3.988   4.524   3.383 -0.1156  0.1700  0.0229
13427SOL    HW146373   4.032   4.463   3.441  0.3088 -1.0101 -1.4929
13427SOL    HW246374   3.894   4.513   3.402  0.0013 -0.4370  0.2502
13428SOL     OW46375   4.309   4.562   7.498  0.0607  0.1858  0.0852
13428SOL    HW146376   4.400   4.537   7.484 -0.5610 -1.8918 -0.4992
13428SOL    HW246377   4.310   4.609   7.581  1.6732  0.3256  0.0212
13429SOL     OW46378   5.218   4.470   2.176  0.5259 -0.0884  0.0932
13429SOL    HW146379   5.160   4.399   2.201  0.0199  0.2552 -0.0889
13429SOL    HW246380   5.242   4.512   2.259  2.9203 -2.0256  0.4952
13430SOL     OW46381   6.363  10.805   8.387  0.8804  0.2544 -0.2790
13430SOL    HW146382   6.414  10.885   8.398  1.3079 -0.2263  1.6550
13430SOL    HW246383   6.428  10.738   8.368  0.6054  0.1964 -1.0609
13431SOL     OW46384   7.928   3.249  10.767  0.1909  0.4537 -0.3219
13431SOL    HW146385   7.845   3.208  10.742  1.4887 -1.2863 -2.0950
13431SOL    HW246386   7.995   3.189  10.734  2.1870  2.6157 -0.4565
13432SOL     OW46387   1.242   1.787   1.329  0.6444 -0.0764 -0.0535
13432SOL    HW146388   1.207   1.770   1.416 -0.4715 -2.5935 -0.9085
13432SOL    HW246389   1.183   1.852   1.291  0.2564 -0.0796  0.5443
13433SOL     OW46390   7.577   7.264   0.578 -0.0403 -0.0704 -0.7157
13433SOL    HW146391   7.570   7.192   0.515  2.8842 -1.6280  0.5228
13433SOL    HW246392   7.632   7.329   0.533  1.1032 -0.6883 -0.2712
13434SOL     OW46393   1.763   5.622   7.109 -0.1554  0.1758  0.0976
13434SOL    HW146394   1.856   5.605   7.093 -0.8008 -3.1620 -0.6749
13434SOL    HW246395   1.751   5.604   7.202 -0.1407  0.1950  0.1033
13435SOL     OW46396   8.348   5.245   1.069  0.2320 -0.0809  0.3336
13435SOL    HW146397   8.328   5.168   1.016  0.4308 -0.6503  1.0639
13435SOL    HW246398   8.430   5.279   1.034 -0.5772  0.6658 -0.9253
13436SOL     OW46399   3.553   5.654   0.346 -0.5946 -0.0997 -0.0330
13436SOL    HW146400   3.638   5.608   0.344  1.0325  2.6857  0.1597
13436SOL    HW246401   3.527   5.650   0.438 -0.1313 -0.0396  0.1036
13437SOL     OW46402  10.128   0.205   2.792 -0.1549  0.8253 -0.1203
13437SOL    HW146403  10.083   0.286   2.813  0.0937  1.3955 -1.6241
13437SOL    HW246404  10.203   0.233   2.738 -1.2011 -0.5149 -2.3998
13438SOL     OW46405   7.502   2.753   9.666 -0.0654  0.2929  0.3337
13438SOL    HW146406   7.561   2.794   9.603 -0.4602 -0.9163 -0.8908
13438SOL    HW246407   7.513   2.659   9.651 -0.0389 -0.0565  2.2304
13439SOL     OW46408   6.402   4.471   2.302  0.2012  0.1885 -0.6536
13439SOL    HW146409   6.388   4.414   2.377  2.0156  0.7146  0.1371
13439SOL    HW246410   6.320   4.467   2.252  0.3287 -3.2185 -0.7664
13440SOL     OW46411   7.358   0.154   8.861  0.2848  0.2389 -0.5735
13440SOL    HW146412   7.384   0.062   8.873 -0.0136 -0.1211 -2.3877
13440SOL    HW246413   7.268   0.157   8.891  0.2346 -0.1050 -0.6854
13441SOL     OW46414   9.737   8.366   9.698 -0.5841  0.5781 -0.1931
13441SOL    HW146415   9.799   8.396   9.765  1.6543 -0.4257 -1.7036
13441SOL    HW246416   9.738   8.436   9.633 -0.6481  0.3228 -0.4657
13442SOL     OW46417   7.889   1.544   1.569  0.8736 -0.4322 -0.0884
13442SOL    HW146418   7.795   1.555   1.584  0.8916 -0.1425 -0.1873
13442SOL    HW246419   7.895   1.470   1.509  0.6240  0.5019 -1.3069
13443SOL     OW46420  10.483   7.345   7.822 -0.0529 -0.0700 -0.3932
13443SOL    HW146421  10.437   7.262   7.820  0.5000 -0.3691 -1.4712
13443SOL    HW246422  10.552   7.332   7.887 -0.2609 -0.2932 -0.2151
13444SOL     OW46423   6.768   9.594  10.627  0.0426  0.4115  0.3891
13444SOL    HW146424   6.749   9.677  10.670  1.1674  0.4134  0.9193
13444SOL    HW246425   6.707   9.590  10.553 -0.3379  1.4836  0.6378
13445SOL     OW46426   7.699   7.951   9.888  0.0709 -0.0393 -0.0689
13445SOL    HW146427   7.677   7.868   9.845 -2.6504  0.6553 -0.2025
13445SOL    HW246428   7.710   8.013   9.816 -2.1874  0.6068  0.0711
13446SOL     OW46429   5.797   7.955   5.450  0.1515  0.0065  0.1105
13446SOL    HW146430   5.787   7.902   5.371 -2.3444  2.0420 -1.1098
13446SOL    HW246431   5.891   7.961   5.464  0.6074 -1.7749 -1.7273
13447SOL     OW46432   7.454   5.410   0.097 -0.4049  0.4743  0.2977
13447SOL    HW146433   7.379   5.464   0.122  0.0242  0.4777  1.6385
13447SOL    HW246434   7.447   5.332   0.152 -0.8020 -0.7059 -1.3357
13448SOL     OW46435   7.905   0.872   4.626 -0.0709  0.4582 -0.2084
13448SOL    HW146436   7.818   0.849   4.657  0.7158 -1.2206  0.9439
13448SOL    HW246437   7.921   0.812   4.552  1.0450 -1.1128  1.2293
13449SOL     OW46438   6.416   4.339   4.854  0.2644  0.2288  0.2270
13449SOL    HW146439   6.465   4.257   4.845 -0.5190 -0.0369 -2.7568
13449SOL    HW246440   6.484   4.407   4.856  0.9259 -0.2089 -2.6785
13450SOL     OW46441   5.809  10.425   3.986 -0.6060 -0.0629 -0.5026
13450SOL    HW146442   5.814  10.410   4.080  1.1375  1.2165 -0.3336
13450SOL    HW246443   5.728  10.381   3.959  0.5734 -3.4276  0.9741
13451SOL     OW46444   4.456   2.432   6.890  0.4274  0.6945 -0.1551
13451SOL    HW146445   4.466   2.356   6.948 -0.1167  0.2614 -0.6207
13451SOL    HW246446   4.545   2.451   6.860  0.4238 -0.5507 -1.0277
13452SOL     OW46447   7.548   2.473   9.600  0.4116  0.3916  0.6690
13452SOL    HW146448   7.484   2.467   9.530  1.3427  2.3632 -0.4306
13452SOL    HW246449   7.630   2.445   9.560  0.4182 -1.4874  1.8813
13453SOL     OW46450   0.776  10.620   0.035 -0.5623  0.2637 -0.4619
13453SOL    HW146451   0.793  10.615   0.129  2.1166  1.2208 -0.8108
13453SOL    HW246452   0.682  10.607   0.027 -0.7106 -0.9165  2.2452
13454SOL     OW46453   8.064   8.470   3.937  0.1950  0.0725 -0.2508
13454SOL    HW146454   8.120   8.535   3.979  1.4445 -1.2971  0.2848
13454SOL    HW246455   8.034   8.415   4.009  0.1697 -0.6915 -0.8362
13455SOL     OW46456   2.508   8.251   0.303 -0.0311 -0.0619 -0.1704
13455SOL    HW146457   2.489   8.333   0.257 -0.8660 -0.6358 -0.8964
13455SOL    HW246458   2.535   8.277   0.390  0.0337  0.9989 -0.5020
13456SOL     OW46459   3.955   6.901   0.372 -0.3661  0.0230  0.0748
13456SOL    HW146460   3.897   6.973   0.395 -0.6762 -0.2050  0.0190
13456SOL    HW246461   3.966   6.908   0.277  0.6610  0.7762  0.2325
13457SOL     OW46462   0.649   5.230   9.708 -0.1145  0.1963 -0.3918
13457SOL    HW146463   0.726   5.203   9.758 -0.3843  0.6573  0.2839
13457SOL    HW246464   0.685   5.280   9.634  0.2368  0.4786 -0.0355
13458SOL     OW46465   9.185   2.404   8.651  0.2797 -0.3314 -0.1387
13458SOL    HW146466   9.204   2.311   8.660  2.1116  0.1428  1.5705
13458SOL    HW246467   9.183   2.438   8.741 -2.4138  0.9657 -0.5709
13459SOL     OW46468   1.181   1.000   3.500 -0.3377  0.0195 -0.0015
13459SOL    HW146469   1.256   1.021   3.445 -0.3617  0.9203  0.2790
13459SOL    HW246470   1.203   1.036   3.586  0.2226 -2.4299  0.9509
13460SOL     OW46471  10.234   4.858   8.458 -0.0300  0.2594  0.3137
13460SOL    HW146472  10.268   4.780   8.501  0.0875 -0.6640 -1.3752
13460SOL    HW246473  10.307   4.921   8.462 -0.3191  0.5307  2.1704
13461SOL     OW46474  10.768   6.191   2.700 -0.1758  0.7217  0.0936
13461SOL    HW146475  10.701   6.192   2.769 -1.1772  1.3309 -0.8673
13461SOL    HW246476  10.803   6.280   2.699  1.6785  0.0768  1.5230
13462SOL     OW46477   3.193   7.529  10.040  0.0221  0.5504  0.2871
13462SOL    HW146478   3.132   7.501  10.107  0.2557  1.5424  0.9448
13462SOL    HW246479   3.165   7.618  10.018 -0.8146 -0.1648 -1.8543
13463SOL     OW46480   2.329   7.580  10.000  0.9153  0.0622  0.0404
13463SOL    HW146481   2.395   7.530  10.047  1.3289  1.1407  0.6378
13463SOL    HW246482   2.304   7.651  10.060  0.4525  0.6629 -0.8321
13464SOL     OW46483   2.514   0.997   4.449 -0.1339  0.3311  0.2705
13464SOL    HW146484   2.533   0.935   4.519  0.2917  0.1601  0.0085
13464SOL    HW246485   2.451   0.952   4.393  1.3811 -0.5394 -0.8108
13465SOL     OW46486   3.354   7.480   4.401 -0.2356 -0.5683  0.2634
13465SOL    HW146487   3.270   7.490   4.445 -0.6948  0.2069 -0.7513
13465SOL    HW246488   3.339   7.513   4.312  1.4937  0.9630  0.4723
13466SOL     OW46489   2.440   2.884   5.525 -0.6194  0.3356  0.3283
13466SOL    HW146490   2.371   2.818   5.515 -0.7331  0.4548  0.3295
13466SOL    HW246491   2.394   2.965   5.544 -0.4724  0.3904  0.4573
13467SOL     OW46492   4.015   8.994   3.166 -0.0625  0.7374 -0.6476
13467SOL    HW146493   3.940   9.029   3.119 -0.1199  0.7443 -0.5511
13467SOL    HW246494   4.042   8.918   3.116 -1.0601 -0.1635  0.1357
13468SOL     OW46495   1.487   9.980   3.738  1.0647  0.2424  0.6250
13468SOL    HW146496   1.417  10.020   3.687 -0.0159 -1.5718  0.6276
13468SOL    HW246497   1.521  10.051   3.792 -0.0569  1.3931 -0.1363
13469SOL     OW46498   5.899   6.828   1.470 -0.3811 -0.0707 -0.2178
13469SOL    HW146499   5.915   6.807   1.378 -1.3889 -0.7679 -0.2494
13469SOL    HW246500   5.940   6.756   1.519  1.1753  0.8891 -0.0405
13470SOL     OW46501  10.525   4.632   6.864  0.1891  0.3155 -0.1286
13470SOL    HW146502  10.509   4.626   6.770 -1.7506  1.3539  0.0925
13470SOL    HW246503  10.455   4.688   6.897  0.0618 -1.0723  2.1482
13471SOL     OW46504   1.218  10.516   9.066 -0.1824  0.4348 -1.0589
13471SOL    HW146505   1.293  10.557   9.109 -0.3980  1.0676 -1.2680
13471SOL    HW246506   1.207  10.433   9.112  1.4635 -0.2980 -1.8928
13472SOL     OW46507   7.931   8.367   1.954  0.2333  0.2278 -0.6556
13472SOL    HW146508   7.985   8.396   2.027  1.6120 -1.8790 -0.7725
13472SOL    HW246509   7.989   8.374   1.877 -0.9038  1.5531 -1.4435
13473SOL     OW46510   5.679   8.746   9.383  0.0680 -0.0037  0.9020
13473SOL    HW146511   5.654   8.745   9.475  0.8513  1.3066  1.1568
13473SOL    HW246512   5.725   8.829   9.372 -2.7518  1.4205 -1.4364
13474SOL     OW46513   4.844   9.964   3.115  0.5997 -0.3626  0.5027
13474SOL    HW146514   4.919   9.996   3.064  0.6290 -1.4373 -0.1456
13474SOL    HW246515   4.883   9.908   3.182  0.3675 -1.1409 -0.0032
13475SOL     OW46516   7.273  10.377   3.056 -0.1574  0.1452 -0.3921
13475SOL    HW146517   7.368  10.386   3.065 -0.0741 -1.0329  0.1219
13475SOL    HW246518   7.259  10.283   3.048 -1.1316  0.4339 -2.5641
13476SOL     OW46519   6.582   3.157   3.320  0.0468  0.0817  0.4929
13476SOL    HW146520   6.507   3.107   3.290  1.2044 -1.3886 -0.0836
13476SOL    HW246521   6.546   3.218   3.385 -1.3654 -1.9462  1.7548
13477SOL     OW46522   5.347   7.983   7.155  0.2812 -0.3004  0.2879
13477SOL    HW146523   5.292   7.907   7.174  0.3682 -0.3934  0.1642
13477SOL    HW246524   5.425   7.947   7.113 -0.8722  0.0703 -2.3594
13478SOL     OW46525  10.555   3.257   6.982 -0.0596 -0.0245 -0.3881
13478SOL    HW146526  10.581   3.198   7.053 -0.2052  0.4627  0.0703
13478SOL    HW246527  10.522   3.335   7.026 -0.4096  0.1722 -0.9886
13479SOL     OW46528   5.423  10.510   8.474 -0.8746  0.3380 -0.1785
13479SOL    HW146529   5.496  10.522   8.413 -0.6211  0.3670  0.1258
13479SOL    HW246530   5.352  10.564   8.438 -0.0209  2.1329  0.7312
13480SOL     OW46531   7.733  10.176   8.280  0.4477  0.6323  0.0242
13480SOL    HW146532   7.758  10.105   8.340 -0.3863 -0.9933 -1.4848
13480SOL    HW246533   7.780  10.157   8.199 -2.1435 -0.0239 -1.4402
13481SOL     OW46534   9.035   8.835   4.064 -0.1968  0.2366  0.4782
13481SOL    HW146535   9.122   8.875   4.059  0.3126 -0.7829  0.9429
13481SOL    HW246536   9.053   8.741   4.072 -1.3149  0.1180  1.8787
13482SOL     OW46537   7.886   9.201   9.201 -0.1494 -0.1364  0.4605
13482SOL    HW146538   7.800   9.218   9.163 -0.7410 -0.5047  1.5918
13482SOL    HW246539   7.927   9.138   9.142 -0.4474  0.4227 -0.3605
13483SOL     OW46540   5.756  10.464   6.549 -0.0793 -0.4553  0.8021
13483SOL    HW146541   5.756  10.549   6.594 -0.0863  0.8845 -1.5609
13483SOL    HW246542   5.826  10.471   6.485 -0.7568 -1.8501 -0.1435
13484SOL     OW46543   5.027   1.458   2.415  0.1543  0.4125  0.2000
13484SOL    HW146544   5.113   1.446   2.375 -0.0528 -0.1901 -0.0836
13484SOL    HW246545   4.982   1.518   2.356  0.7360  1.5712  0.9088
13485SOL     OW46546   6.061   1.894   2.459 -0.1076 -0.4310  0.0640
13485SOL    HW146547   6.110   1.814   2.480 -1.3818 -1.0044  1.0002
13485SOL    HW246548   5.996   1.901   2.529 -1.0598  0.5530 -0.8792
13486SOL     OW46549   2.050   4.294  10.093  0.3828 -0.1226 -0.1675
13486SOL    HW146550   2.056   4.384  10.124  0.2744 -0.6689  1.5578
13486SOL    HW246551   2.140   4.270  10.071  0.6655 -0.0383  0.8138
13487SOL     OW46552   0.580   4.170   9.584 -0.0278  0.4675  0.2794
13487SOL    HW146553   0.518   4.115   9.631  1.1659 -1.4772 -0.2956
13487SOL    HW246554   0.630   4.109   9.530  0.0465  2.3624 -1.9574
13488SOL     OW46555   7.850   9.398   2.537 -0.2037 -0.4162  0.3598
13488SOL    HW146556   7.941   9.409   2.508 -0.5216 -0.6111 -0.7436
13488SOL    HW246557   7.857   9.364   2.626  0.8133 -1.7274 -0.1952
13489SOL     OW46558   1.138  10.108   7.640  0.5796 -0.1977  0.5683
13489SOL    HW146559   1.185  10.168   7.581 -1.2348  0.5026 -0.2406
13489SOL    HW246560   1.204  10.080   7.703  1.5991  2.3803  0.7568
13490SOL     OW46561   5.883   0.395   4.249 -0.7518  0.0586  0.1795
13490SOL    HW146562   5.930   0.397   4.166 -0.6770  0.1850  0.2239
13490SOL    HW246563   5.939   0.444   4.310 -1.1078  0.5218  0.1409
13491SOL     OW46564   3.796   6.017   8.684  0.3684  0.3708 -0.2481
13491SOL    HW146565   3.755   5.970   8.611 -0.0667 -0.0502  0.2581
13491SOL    HW246566   3.741   5.996   8.760 -0.2078  2.2348 -0.1147
13492SOL     OW46567   8.593   9.362   0.395  0.0242  0.1252 -0.4323
13492SOL    HW146568   8.543   9.357   0.477  0.1203  0.5350 -0.3480
13492SOL    HW246569   8.536   9.412   0.336 -0.0901 -0.2575 -0.6490
13493SOL     OW46570   0.000   8.638  10.757  0.1519  0.4475  0.4581
13493SOL    HW146571  -0.055   8.709  10.724 -2.3418 -1.1774  0.8805
13493SOL    HW246572   0.059   8.680  10.820 -0.4875  2.2950 -0.1272
13494SOL     OW46573   7.362   0.333   7.882 -0.1422  0.3803 -0.4083
13494SOL    HW146574   7.295   0.288   7.933 -1.4402  2.5782 -0.0471
13494SOL    HW246575   7.439   0.276   7.888 -1.7334 -1.8992 -0.2847
13495SOL     OW46576   0.153   7.240   5.716 -0.3902  0.3030  0.7105
13495SOL    HW146577   0.224   7.188   5.754 -1.0603 -0.4363  0.9827
13495SOL    HW246578   0.138   7.201   5.630 -0.1242  0.7990  0.4295
13496SOL     OW46579   7.663   0.730   8.090 -0.4105  0.5148 -0.4393
13496SOL    HW146580   7.595   0.735   8.022  1.5042 -0.1202 -2.5098
13496SOL    HW246581   7.713   0.811   8.080 -0.7303  0.9169  0.9754
13497SOL     OW46582   1.629   4.362   0.704 -0.3768  0.2591 -0.4031
13497SOL    HW146583   1.653   4.417   0.629 -0.6572  0.1429 -0.5800
13497SOL    HW246584   1.642   4.418   0.780 -0.3156  0.4555 -0.5576
13498SOL     OW46585   3.555   1.143   7.511 -0.4099  0.5256 -0.1574
13498SOL    HW146586   3.495   1.075   7.542 -1.2362  1.3458  0.0777
13498SOL    HW246587   3.637   1.097   7.496 -0.4018 -0.2118  1.8038
13499SOL     OW46588   1.485   2.626   7.917  0.2061 -0.0661 -0.9114
13499SOL    HW146589   1.508   2.533   7.926  1.6891  0.3703  0.3111
13499SOL    HW246590   1.570   2.671   7.918 -0.3844  1.2362 -2.9743
13500SOL     OW46591   3.177   0.623   1.411  0.3316 -0.8864  0.0774
13500SOL    HW146592   3.205   0.711   1.437 -0.3434 -0.7549  0.3605
13500SOL    HW246593   3.225   0.606   1.330 -1.5555  0.8599 -1.5161
13501SOL     OW46594   7.133   7.096   6.037 -0.0889 -0.3238  0.0004
13501SOL    HW146595   7.137   7.186   6.069 -0.4192 -0.5041  0.5583
13501SOL    HW246596   7.112   7.104   5.944  0.6438  0.1986 -0.1248
13502SOL     OW46597   2.825   4.600   7.000  0.1484 -0.1297  0.1710
13502SOL    HW146598   2.739   4.583   7.039  0.2675  0.7884  0.8668
13502SOL    HW246599   2.806   4.660   6.928  0.3185  1.1395  1.1374
13503SOL     OW46600   6.820   1.260   7.672  0.2270 -0.4683 -0.0749
13503SOL    HW146601   6.765   1.201   7.724 -3.2433  1.3872 -1.3722
13503SOL    HW246602   6.859   1.204   7.605 -1.0839 -1.7077  0.1538
13504SOL     OW46603   7.646   7.989   6.188  0.7943  0.0307 -0.2549
13504SOL    HW146604   7.675   8.069   6.232 -1.3721  0.9575 -0.3971
13504SOL    HW246605   7.585   7.948   6.249 -2.9920  1.8092 -2.4541
13505SOL     OW46606   3.764  10.910   2.392 -0.1310 -0.1693  0.2856
13505SOL    HW146607   3.696  10.972   2.365  0.1164  0.4779  1.0822
13505SOL    HW246608   3.815  10.959   2.457  0.7354 -0.8481  0.1258
13506SOL     OW46609   2.363   1.642   2.609 -0.2300  0.0177 -0.4521
13506SOL    HW146610   2.378   1.564   2.664 -1.8414 -0.0132 -0.0027
13506SOL    HW246611   2.440   1.697   2.624 -0.9184  0.3733  2.5509
13507SOL     OW46612   1.067   1.128  10.295  0.0486  0.7159 -0.1063
13507SOL    HW146613   1.111   1.069  10.234 -1.2755 -1.4083  0.8811
13507SOL    HW246614   1.117   1.121  10.376 -0.5198  0.3524  0.2248
13508SOL     OW46615   9.738   4.790   2.762  0.4436 -0.0105 -0.5576
13508SOL    HW146616   9.650   4.826   2.777  0.3027 -0.0031 -1.3698
13508SOL    HW246617   9.795   4.867   2.759  0.6683 -0.0695  1.0560
13509SOL     OW46618   6.460   0.082   1.441 -0.0852 -0.0902 -0.0742
13509SOL    HW146619   6.397   0.149   1.469  1.7661  0.5154  3.0939
13509SOL    HW246620   6.493   0.113   1.357 -0.2536  2.3078  0.6855
13510SOL     OW46621  10.119   2.737   2.582 -0.3010 -0.0436  0.0554
13510SOL    HW146622  10.214   2.743   2.584 -0.2815  0.3993 -1.1836
13510SOL    HW246623  10.092   2.807   2.522 -1.4642  0.3970  1.0571
13511SOL     OW46624   5.544   0.639   8.581  0.1863 -0.0999  0.0213
13511SOL    HW146625   5.458   0.620   8.544  0.7955 -1.2262 -0.8920
13511SOL    HW246626   5.525   0.677   8.667 -1.2099 -0.8303  0.0709
13512SOL     OW46627   2.146   7.106   4.515  0.4788  0.0414 -0.4245
13512SOL    HW146628   2.122   7.184   4.466  0.9525  0.5214  0.0881
13512SOL    HW246629   2.171   7.139   4.601  2.4895 -0.4628 -0.7698
13513SOL     OW46630   1.416   2.600   6.348  0.1066 -0.4530  0.1874
13513SOL    HW146631   1.482   2.635   6.408 -1.0589 -1.4843  2.1676
13513SOL    HW246632   1.341   2.578   6.404 -0.7173 -2.3042 -1.5006
13514SOL     OW46633   1.476   5.997   8.396  0.3773 -0.4248  0.5502
13514SOL    HW146634   1.553   6.050   8.416 -1.0854  1.1284  2.4041
13514SOL    HW246635   1.439   6.037   8.317  1.5801 -1.3829 -0.5470
13515SOL     OW46636   3.338   9.839   3.490  0.1074 -0.1240  0.3456
13515SOL    HW146637   3.379   9.924   3.506  1.9988 -0.6774 -1.2655
13515SOL    HW246638   3.271   9.832   3.559  2.0355  1.2506  2.5082
13516SOL     OW46639   5.938   3.395   7.089  0.0782  0.1679 -0.0484
13516SOL    HW146640   5.914   3.487   7.077 -0.0908  0.3975  1.7707
13516SOL    HW246641   6.021   3.398   7.136 -0.6739 -0.5700  1.3911
13517SOL     OW46642   4.768   0.525  10.865  0.1528 -0.6015  0.3815
13517SOL    HW146643   4.712   0.497  10.937 -0.1754 -0.0987  0.3213
13517SOL    HW246644   4.711   0.523  10.788  0.1837  0.0417  0.3434
13518SOL     OW46645   7.508   5.764   8.699  0.1071 -0.6273 -0.4564
13518SOL    HW146646   7.527   5.671   8.713 -0.2200 -0.6235  0.0292
13518SOL    HW246647   7.433   5.782   8.755  1.9251  0.6192  1.7298
13519SOL     OW46648   5.048   2.442   3.955 -0.2924 -0.1864 -0.1707
13519SOL    HW146649   4.980   2.429   3.889  0.1061  0.9070 -0.8113
13519SOL    HW246650   5.024   2.382   4.026 -0.7760 -1.3095 -1.2523
13520SOL     OW46651  10.124   5.759   0.567  0.4647  0.2566  0.5069
13520SOL    HW146652  10.137   5.847   0.601  1.2760  0.2603  0.2006
13520SOL    HW246653  10.208   5.715   0.579  0.7046  0.1772 -1.2070
13521SOL     OW46654   2.123  10.283   3.064 -0.0756 -0.1873  0.1245
13521SOL    HW146655   2.113  10.351   2.997  0.1538  0.7329  1.0056
13521SOL    HW246656   2.211  10.297   3.099 -1.0684  1.0010  2.3556
13522SOL     OW46657   3.459   6.943   8.054  0.3714 -0.3749 -0.0987
13522SOL    HW146658   3.532   6.975   8.108 -0.3156  0.4653  0.3560
13522SOL    HW246659   3.463   6.848   8.063  1.4097 -0.3429 -0.0850
13523SOL     OW46660  10.762   0.777   0.329 -0.0948  0.7845 -0.0759
13523SOL    HW146661  10.687   0.759   0.272  0.1970 -1.8911  0.2799
13523SOL    HW246662  10.830   0.808   0.269  0.3620 -2.3905 -1.3984
13524SOL     OW46663   1.346   0.929   2.870  0.1453  0.1364 -0.0131
13524SOL    HW146664   1.341   1.023   2.857 -0.9352  0.0965 -0.0596
13524SOL    HW246665   1.256   0.899   2.856 -0.0199 -0.6039  2.1954
13525SOL     OW46666   6.186   8.281   4.585  0.1743 -0.6560  0.5316
13525SOL    HW146667   6.223   8.318   4.665 -0.7490  1.2093  0.1516
13525SOL    HW246668   6.255   8.291   4.520  0.3994 -0.8363  0.7376
13526SOL     OW46669   7.839   8.760   6.864 -0.0349 -0.3287  0.6622
13526SOL    HW146670   7.897   8.837   6.865  2.3611 -1.9645 -1.0200
13526SOL    HW246671   7.822   8.744   6.771 -1.0758 -1.4269  1.0175
13527SOL     OW46672   8.464   7.300   6.711 -0.1546  0.0986  0.4455
13527SOL    HW146673   8.527   7.371   6.716 -0.7456  0.6317  0.3769
13527SOL    HW246674   8.447   7.290   6.617 -0.2383  0.0170  0.4695
13528SOL     OW46675   8.194   4.969   5.440  0.0293  0.0073  0.2730
13528SOL    HW146676   8.203   4.997   5.349  1.7192  0.3832  0.5217
13528SOL    HW246677   8.281   4.980   5.477  0.1623 -3.1040  1.1367
13529SOL     OW46678   7.584  10.329   6.505 -0.3590 -0.0999 -0.4960
13529SOL    HW146679   7.673  10.345   6.535 -0.1143  1.3162 -1.8296
13529SOL    HW246680   7.594  10.308   6.412 -1.4041 -0.1017 -0.6175
13530SOL     OW46681   3.037   5.093   9.593  0.4044 -0.4924 -0.4253
13530SOL    HW146682   3.104   5.126   9.533  1.0872  1.0773  1.0957
13530SOL    HW246683   2.967   5.158   9.588  0.9167  0.2455  1.1608
13531SOL     OW46684   1.356   0.092   6.325 -0.3954  0.1968  0.4573
13531SOL    HW146685   1.331   0.020   6.267 -2.0033 -0.7197  2.1537
13531SOL    HW246686   1.312   0.169   6.288 -1.1341 -0.3092  0.2551
13532SOL     OW46687   5.786   0.299   3.106  0.9664 -0.2715 -0.3767
13532SOL    HW146688   5.756   0.213   3.138  1.4161 -0.1438  0.4089
13532SOL    HW246689   5.741   0.310   3.023  0.5309 -1.0637 -0.2587
13533SOL     OW46690  10.553   5.941   9.151 -0.0147  0.6602  0.2846
13533SOL    HW146691  10.561   5.951   9.056  0.1292  1.4373  0.3777
13533SOL    HW246692  10.461   5.921   9.166 -0.1493  1.0924  0.0316
13534SOL     OW46693   4.055   7.883   2.790 -0.2154 -0.4575  0.1743
13534SOL    HW146694   3.983   7.825   2.768 -0.3480 -0.3349  0.2870
13534SOL    HW246695   4.015   7.954   2.839  0.2570 -1.4275  2.0665
13535SOL     OW46696   1.278   6.867   4.300 -0.0685 -0.4742  0.5292
13535SOL    HW146697   1.313   6.881   4.212  0.6330 -0.7574  0.7597
13535SOL    HW246698   1.190   6.906   4.297  0.2085  0.1216 -0.0926
13536SOL     OW46699   3.495   5.076   9.964 -0.0376  0.8394 -0.4254
13536SOL    HW146700   3.432   5.111   9.902 -0.2699 -1.4879 -1.6262
13536SOL    HW246701   3.453   5.085  10.049 -1.5971  0.2225 -1.0960
13537SOL     OW46702   1.696  10.446   7.123  0.1807 -1.1182  0.3631
13537SOL    HW146703   1.662  10.493   7.047 -1.9902 -0.3198  1.7440
13537SOL    HW246704   1.769  10.500   7.153  0.0491 -0.5914 -0.2338
13538SOL     OW46705  10.460   6.397  10.379  0.6813  0.4054 -0.0790
13538SOL    HW146706  10.480   6.335  10.309  1.7112  1.4824 -0.7771
13538SOL    HW246707  10.422   6.343  10.448  0.8706 -0.8880 -0.9424
13539SOL     OW46708   8.508   2.290   3.332 -0.1120 -0.1469  0.2532
13539SOL    HW146709   8.535   2.357   3.270  0.8517 -1.1899 -0.4800
13539SOL    HW246710   8.412   2.291   3.328 -0.0944  0.8505 -0.0879
13540SOL     OW46711   5.271   1.207   6.401 -0.0480  0.0217  0.0136
13540SOL    HW146712   5.315   1.132   6.441  0.3836  0.1971 -0.1256
13540SOL    HW246713   5.198   1.169   6.353  0.3049 -0.3387 -0.2496
13541SOL     OW46714   6.564   1.950   3.910  0.4353 -0.4459 -0.0342
13541SOL    HW146715   6.642   2.003   3.924 -0.2400  0.1494  1.7700
13541SOL    HW246716   6.506   1.973   3.983 -1.2442 -1.1989 -1.0710
13542SOL     OW46717   7.235   4.539   5.710 -0.2547 -0.4594  0.2339
13542SOL    HW146718   7.196   4.605   5.767 -0.4078 -1.2598  1.0767
13542SOL    HW246719   7.228   4.458   5.760  0.2558 -1.0483 -0.6403
13543SOL     OW46720   4.408   4.611   8.496  0.5848  0.6266  0.4158
13543SOL    HW146721   4.470   4.543   8.470 -0.7565  0.1760 -1.8487
13543SOL    HW246722   4.458   4.693   8.486  0.8232  0.2886 -1.5597
13544SOL     OW46723   1.801   6.226   4.423 -0.4473 -0.5730  0.0544
13544SOL    HW146724   1.793   6.235   4.518  2.5723  1.4429  0.2460
13544SOL    HW246725   1.809   6.316   4.391  1.6269 -1.3027 -1.7402
13545SOL     OW46726   1.952   6.391   6.101  0.0641  0.3305  0.2040
13545SOL    HW146727   2.042   6.422   6.108  0.4582 -0.7265  0.0147
13545SOL    HW246728   1.913   6.410   6.186  1.6735 -2.7799  1.8403
13546SOL     OW46729   8.346   2.318   1.623 -0.1567 -0.5500 -0.1039
13546SOL    HW146730   8.328   2.233   1.663  1.3888 -1.2802 -0.8830
13546SOL    HW246731   8.431   2.307   1.581 -0.0884  1.2921 -0.5078
13547SOL     OW46732   5.135   1.645   5.885  0.2445 -0.3180  0.0772
13547SOL    HW146733   5.070   1.652   5.815 -0.1800 -0.2272  0.4824
13547SOL    HW246734   5.153   1.551   5.891 -0.0335 -0.3658  0.1406
13548SOL     OW46735   8.506   5.545   4.853 -0.3528  0.4830 -0.1574
13548SOL    HW146736   8.588   5.577   4.815 -0.6711  1.0687 -0.3559
13548SOL    HW246737   8.534   5.486   4.924  0.2385  0.1125 -0.6872
13549SOL     OW46738   9.792   6.912   9.701  0.3320 -0.3375 -0.3431
13549SOL    HW146739   9.781   6.988   9.644  2.0842 -0.8127 -1.3929
13549SOL    HW246740   9.863   6.936   9.760  1.4194 -1.3545 -1.1649
13550SOL     OW46741   4.662  10.682   3.753  0.1901  0.0726  0.0029
13550SOL    HW146742   4.680  10.764   3.706  0.0194 -0.2510 -0.6285
13550SOL    HW246743   4.724  10.619   3.717 -1.7655 -0.9174 -1.8282
13551SOL     OW46744   4.450  10.274   8.003  0.3125  0.0340 -0.5564
13551SOL    HW146745   4.453  10.187   7.962 -0.4197 -0.2147 -0.1057
13551SOL    HW246746   4.508  10.328   7.949  0.5667 -0.6674 -1.0021
13552SOL     OW46747   0.888   8.215   6.984 -0.2218 -0.1145  0.6618
13552SOL    HW146748   0.916   8.181   7.069 -0.7619 -0.9046  0.5304
13552SOL    HW246749   0.959   8.274   6.957  0.5702 -0.8684  1.0620
13553SOL     OW46750   5.655   0.945   0.041 -0.1228  0.4736  0.1112
13553SOL    HW146751   5.672   0.946  -0.053  1.6263 -0.8914  0.3557
13553SOL    HW246752   5.701   1.022   0.075 -1.0518  1.1691 -0.1556
13554SOL     OW46753   3.850   3.533   6.004 -0.4566 -0.6568  0.1068
13554SOL    HW146754   3.814   3.558   5.919 -0.9867 -0.8579  0.2679
13554SOL    HW246755   3.794   3.578   6.068  0.0139 -0.4099  0.3475
13555SOL     OW46756   1.422   7.537   5.610 -0.3054  0.1834 -0.0564
13555SOL    HW146757   1.407   7.443   5.614  2.5294 -0.3601 -0.2376
13555SOL    HW246758   1.362   7.569   5.543 -0.0403 -1.8121 -1.3116
13556SOL     OW46759   1.483   2.545   1.941 -0.1654 -0.3006  0.4666
13556SOL    HW146760   1.540   2.504   1.876 -1.1791  1.4489 -1.6808
13556SOL    HW246761   1.445   2.472   1.990  2.1051 -1.5994  0.4549
13557SOL     OW46762   0.682   2.450   8.369 -0.0064  0.0747 -0.2448
13557SOL    HW146763   0.603   2.471   8.419  0.6917 -0.6949  1.2629
13557SOL    HW246764   0.671   2.496   8.286 -0.7326  2.3123  1.0128
13558SOL     OW46765   6.929   6.619   2.224  0.5021 -0.4271 -0.1252
13558SOL    HW146766   6.943   6.557   2.296  0.5099 -1.4977 -1.0282
13558SOL    HW246767   6.986   6.588   2.154  1.8199  1.6210 -0.0283
13559SOL     OW46768   4.677   3.314   9.376  0.2404  0.3500 -0.1035
13559SOL    HW146769   4.676   3.359   9.291  2.8963  0.9616  0.0985
13559SOL    HW246770   4.741   3.363   9.428  0.3547 -1.3690  1.4648
13560SOL     OW46771   5.245   5.761   4.240  0.6730 -0.0564  0.1067
13560SOL    HW146772   5.270   5.734   4.329 -2.3475 -0.2739  1.0054
13560SOL    HW246773   5.228   5.855   4.249  0.1725 -0.1191 -0.1997
13561SOL     OW46774   1.269   6.793   4.603 -0.5214 -0.4313 -0.8463
13561SOL    HW146775   1.307   6.823   4.521 -1.9906  1.2505 -0.9645
13561SOL    HW246776   1.201   6.731   4.576 -0.7415 -0.1756 -0.8800
13562SOL     OW46777  10.572   9.771   4.663 -0.5336  0.5025  0.0087
13562SOL    HW146778  10.498   9.774   4.603 -1.2358  0.1639  0.8358
13562SOL    HW246779  10.544   9.711   4.733  1.0054 -0.6528 -0.3001
13563SOL     OW46780  10.267  10.890   0.602 -0.0974 -0.0286 -0.0893
13563SOL    HW146781  10.334  10.936   0.653 -0.0508  1.1605 -1.1976
13563SOL    HW246782  10.306  10.878   0.516 -0.1096 -2.1825  0.1386
13564SOL     OW46783   0.169   7.571  10.357  0.5025  0.4952 -0.2075
13564SOL    HW146784   0.152   7.570  10.451 -0.1962 -1.5933 -0.3231
13564SOL    HW246785   0.264   7.564  10.350  0.6462  1.6242  0.3242
13565SOL     OW46786   3.060   1.532   4.671  0.3252  0.2310  0.0675
13565SOL    HW146787   3.101   1.507   4.754 -0.1293 -3.3599 -0.6393
13565SOL    HW246788   2.966   1.520   4.686 -0.0690  2.6412 -0.1022
13566SOL     OW46789   4.396   1.820   4.287 -0.2375 -0.6086  0.7075
13566SOL    HW146790   4.376   1.821   4.381 -0.7564 -0.0569  0.5968
13566SOL    HW246791   4.332   1.880   4.248  0.1581 -0.6103  0.0368
13567SOL     OW46792   9.343   1.992  10.510 -0.6167  0.4048 -0.0562
13567SOL    HW146793   9.428   2.035  10.503 -1.2911  1.6690 -0.8053
13567SOL    HW246794   9.364   1.899  10.518  0.9145  0.8928  2.6051
13568SOL     OW46795   2.988   1.100   7.404 -0.4881 -0.5506 -0.4354
13568SOL    HW146796   3.012   1.177   7.353  0.5177 -0.5259  0.0594
13568SOL    HW246797   2.897   1.115   7.430 -0.1962  0.6309 -0.0547
13569SOL     OW46798   8.895   3.147   6.780  0.2390 -0.7238 -0.5005
13569SOL    HW146799   8.843   3.133   6.860  1.5472 -0.3121  0.4634
13569SOL    HW246800   8.845   3.104   6.711  0.1454 -3.1446  0.9331
13570SOL     OW46801   6.411   6.207   5.588  0.0944  0.1525 -0.5052
13570SOL    HW146802   6.350   6.281   5.594 -0.6737 -0.4919 -0.1592
13570SOL    HW246803   6.362   6.140   5.540  0.3252 -0.5807  0.2721
13571SOL     OW46804   7.989   7.497   7.997 -0.1363  0.1937 -0.0181
13571SOL    HW146805   8.073   7.507   7.954 -0.1323 -0.4370 -0.1769
13571SOL    HW246806   8.010   7.457   8.082 -0.1412  1.4383  0.5901
13572SOL     OW46807   5.967   4.036   9.183 -0.1056  0.4766  0.3439
13572SOL    HW146808   6.009   3.999   9.260 -0.5941  2.0901  1.4259
13572SOL    HW246809   5.922   4.114   9.214  0.2416  1.5751 -1.6779
13573SOL     OW46810   8.814   6.549   4.040  0.3273 -0.7090  0.0489
13573SOL    HW146811   8.824   6.470   3.987  3.4366  1.2245 -2.6153
13573SOL    HW246812   8.764   6.609   3.984  0.9646  0.3522  0.5977
13574SOL     OW46813   1.378   0.700   4.291  0.1023  0.3371  0.2983
13574SOL    HW146814   1.437   0.710   4.216  0.2071 -0.0880  0.3225
13574SOL    HW246815   1.436   0.708   4.367  0.2855 -0.9414  0.3193
13575SOL     OW46816   0.125   2.168   9.312 -0.2654  0.1464  0.0294
13575SOL    HW146817   0.219   2.152   9.307 -0.2211  0.2193  0.6555
13575SOL    HW246818   0.085   2.085   9.283 -0.0181 -0.5642  1.6119
13576SOL     OW46819   9.796   9.312   3.612 -0.0847 -0.2140  0.3621
13576SOL    HW146820   9.861   9.242   3.622  0.7940  0.6238  0.6071
13576SOL    HW246821   9.847   9.389   3.590 -1.1333  0.1513 -0.8986
13577SOL     OW46822   4.933   2.047   6.557 -0.6269 -0.1645  0.0635
13577SOL    HW146823   5.017   2.002   6.560  0.0742  1.0967 -0.0811
13577SOL    HW246824   4.869   1.977   6.544  0.1936 -1.3473  1.9983
13578SOL     OW46825   5.451   2.648   1.418  0.1990  0.5718  0.2739
13578SOL    HW146826   5.404   2.726   1.388  2.5386  2.6012  1.5585
13578SOL    HW246827   5.525   2.640   1.357 -1.0512 -1.9535 -1.0865
13579SOL     OW46828   3.856   1.209   0.246 -0.2249 -0.2854  0.1095
13579SOL    HW146829   3.799   1.243   0.315  0.1036 -0.7253  0.6142
13579SOL    HW246830   3.797   1.163   0.186 -0.4282 -0.5815  0.5300
13580SOL     OW46831   7.329   8.086   8.422  0.7682 -0.1502 -0.3726
13580SOL    HW146832   7.282   8.124   8.497 -0.3452 -1.6021 -0.2929
13580SOL    HW246833   7.272   8.015   8.392  1.5363 -0.0454 -2.1723
13581SOL     OW46834   0.600   9.053   2.465 -0.3092 -0.1377  0.0669
13581SOL    HW146835   0.585   9.146   2.448  0.3720  0.0750  0.5921
13581SOL    HW246836   0.584   9.011   2.381 -3.4004  0.0880  0.4332
13582SOL     OW46837   6.049   7.205   9.709 -0.1994 -0.8534 -0.3681
13582SOL    HW146838   6.106   7.220   9.633  0.4746  0.7848  0.4170
13582SOL    HW246839   6.077   7.270   9.773 -3.2382  0.3523 -0.0873
13583SOL     OW46840  10.474   3.281   0.663 -0.3535  0.0572  0.1138
13583SOL    HW146841  10.483   3.291   0.568 -0.3482 -2.1425 -0.1737
13583SOL    HW246842  10.472   3.186   0.677 -0.2851  0.3287  2.3323
13584SOL     OW46843   2.522   0.196   4.813  0.6701  0.9051 -0.8991
13584SOL    HW146844   2.487   0.285   4.805  2.3100  1.6343 -0.3707
13584SOL    HW246845   2.577   0.199   4.892  0.6462 -0.6155 -0.8061
13585SOL     OW46846   7.601   1.898   4.788 -0.2063  0.4636 -0.5849
13585SOL    HW146847   7.696   1.902   4.777 -0.1563 -0.5510 -0.6207
13585SOL    HW246848   7.573   1.990   4.791  0.3936  0.8741 -3.7851
13586SOL     OW46849   2.479   5.165  10.001 -0.6167 -0.0546  0.3316
13586SOL    HW146850   2.530   5.160   9.920 -1.5737 -1.7002 -0.2171
13586SOL    HW246851   2.534   5.122  10.066 -0.1308  0.6755  0.4170
13587SOL     OW46852   7.115   4.192   6.871 -0.5145  0.2988 -0.2654
13587SOL    HW146853   7.201   4.216   6.905 -0.9560 -0.0601  1.1574
13587SOL    HW246854   7.130   4.176   6.778  1.0567 -0.2223  0.0446
13588SOL     OW46855   5.512   9.362   3.807 -0.0489  0.2455  0.2735
13588SOL    HW146856   5.583   9.301   3.829  0.0693 -0.2071 -1.2202
13588SOL    HW246857   5.474   9.386   3.891 -0.1913 -2.0204  0.9206
13589SOL     OW46858   5.153   3.706   1.863  0.1334  0.0592  0.1377
13589SOL    HW146859   5.149   3.615   1.891 -0.6907  1.2092  4.5061
13589SOL    HW246860   5.215   3.748   1.923  0.0139  2.5160 -1.2943
13590SOL     OW46861   4.256   8.324   0.047  0.0662  0.5388  0.3576
13590SOL    HW146862   4.272   8.388   0.115  0.4465  0.8312 -0.0001
13590SOL    HW246863   4.171   8.347   0.011  0.4778  1.2517 -0.2001
13591SOL     OW46864   6.109   2.391   2.769  0.4138 -0.3974  0.0049
13591SOL    HW146865   6.129   2.298   2.757  0.9527 -0.1677 -0.8944
13591SOL    HW246866   6.056   2.415   2.693  2.8334  0.7604 -1.4456
13592SOL     OW46867   0.876   8.389   2.780 -0.0102  0.3708  0.4643
13592SOL    HW146868   0.942   8.456   2.796 -0.3569  0.1964  3.1073
13592SOL    HW246869   0.899   8.317   2.839 -0.6882 -1.0984 -0.9727
13593SOL     OW46870  10.284   7.840   5.078  0.1702  0.1056  0.1529
13593SOL    HW146871  10.270   7.754   5.038  0.5965  0.0855  0.0386
13593SOL    HW246872  10.228   7.899   5.027 -0.9719 -0.2791  0.9402
13594SOL     OW46873   1.786   6.979   8.058  0.6977 -0.2439  0.0187
13594SOL    HW146874   1.829   7.065   8.060  0.7288 -0.2681  0.7105
13594SOL    HW246875   1.711   6.991   7.998  0.4732  0.3799  0.4107
13595SOL     OW46876   5.312   3.030   8.599 -0.2366 -0.5477 -0.2714
13595SOL    HW146877   5.386   2.974   8.622  0.2252  0.0775 -0.2172
13595SOL    HW246878   5.340   3.118   8.622 -1.2649 -0.3784  0.3999
13596SOL     OW46879   2.009   0.881  10.803  0.4276  0.0814  0.3760
13596SOL    HW146880   1.965   0.955  10.844 -0.2346  1.5630 -2.7234
13596SOL    HW246881   2.092   0.917  10.771  0.2815 -0.5865 -0.8158
13597SOL     OW46882   5.052   3.442   9.310  0.0097 -0.5080 -0.2677
13597SOL    HW146883   5.012   3.494   9.240  1.6578  0.8713 -0.2430
13597SOL    HW246884   4.992   3.450   9.384  0.0533  1.1238 -0.3734
13598SOL     OW46885   6.145   3.734   2.946  0.3697 -0.9430  0.2207
13598SOL    HW146886   6.236   3.718   2.919 -0.0840 -1.4706 -1.1071
13598SOL    HW246887   6.127   3.664   3.009 -0.4714 -3.7955 -2.8923
13599SOL     OW46888   5.198   3.424   2.028 -0.5528 -0.5004  0.3748
13599SOL    HW146889   5.278   3.390   1.988 -1.0679 -1.9697  0.5262
13599SOL    HW246890   5.127   3.385   1.976 -1.2200  1.9146 -0.7044
13600SOL     OW46891   2.462   3.347  10.552 -0.2461 -0.1866  0.0377
13600SOL    HW146892   2.508   3.389  10.624 -1.0996 -1.1934  1.2092
13600SOL    HW246893   2.518   3.361  10.476  0.9605  0.4003  1.0059
13601SOL     OW46894   3.429   0.527   1.990 -0.2763 -0.1616  0.4003
13601SOL    HW146895   3.398   0.454   1.936  1.1441 -0.2877 -0.2954
13601SOL    HW246896   3.525   0.518   1.989  0.0028  2.2155 -0.4485
13602SOL     OW46897   1.279   3.749   3.623 -0.0426 -0.3187  0.5122
13602SOL    HW146898   1.208   3.717   3.678 -2.4200  1.2455 -1.4728
13602SOL    HW246899   1.285   3.685   3.552  1.7253 -1.2913  1.4363
13603SOL     OW46900   3.818   0.427   1.714  0.0529 -0.2212 -0.9560
13603SOL    HW146901   3.885   0.493   1.697 -0.0892  0.1277 -0.1877
13603SOL    HW246902   3.789   0.444   1.804 -0.5259 -0.8481 -1.0137
13604SOL     OW46903   3.997   0.216  10.035  0.2816 -0.4836 -0.0755
13604SOL    HW146904   4.091   0.225  10.021  0.2537 -1.6454 -1.1272
13604SOL    HW246905   3.989   0.151  10.105  0.2622 -1.7357 -1.1957
13605SOL     OW46906  10.759   9.037   9.676 -0.3339 -0.2273  0.2166
13605SOL    HW146907  10.748   9.127   9.706  0.3257 -0.5285  1.4211
13605SOL    HW246908  10.719   9.035   9.589 -0.3898  1.2123  0.1974
13606SOL     OW46909   7.132   4.105   9.950  0.3824 -0.1063  0.5028
13606SOL    HW146910   7.068   4.080   9.884 -0.3906  0.2616  1.1052
13606SOL    HW246911   7.214   4.114   9.900 -0.1616  0.0758 -0.3938
13607SOL     OW46912   8.588  10.481   4.201 -0.4077  0.4506  0.3049
13607SOL    HW146913   8.539  10.417   4.150 -0.3474  1.5594 -1.2044
13607SOL    HW246914   8.653  10.515   4.140  0.8750  0.5137  1.6728
13608SOL     OW46915   2.544   6.633   2.183 -0.1704  0.6627 -0.0298
13608SOL    HW146916   2.473   6.692   2.158  0.9732  1.9140 -0.4530
13608SOL    HW246917   2.521   6.550   2.141 -0.4909  1.5341 -1.6890
13609SOL     OW46918   4.452   3.014   4.240  0.0655  0.0411 -0.2471
13609SOL    HW146919   4.501   3.043   4.316 -1.8565  0.1921  1.0016
13609SOL    HW246920   4.379   3.076   4.234 -2.5466 -2.7074  0.7630
13610SOL     OW46921   9.957   7.331   2.030  0.4560  0.1380 -0.4961
13610SOL    HW146922   9.871   7.330   1.988  0.5529 -2.2172 -0.7719
13610SOL    HW246923   9.943   7.285   2.113  1.2693  0.5669 -0.1118
13611SOL     OW46924   9.358   8.970   2.218  0.5079  0.7069 -0.1180
13611SOL    HW146925   9.398   9.029   2.281 -1.8060  1.9435  0.3179
13611SOL    HW246926   9.310   9.027   2.158 -0.3621 -0.6308 -0.7525
13612SOL     OW46927   7.460   5.333   4.486 -0.1010  0.3115 -0.2460
13612SOL    HW146928   7.501   5.288   4.413 -1.9414  2.0751 -2.5042
13612SOL    HW246929   7.456   5.267   4.556  0.6998 -1.8020 -2.0987
13613SOL     OW46930   0.128   8.581   3.010  0.0668 -0.0495 -0.2671
13613SOL    HW146931   0.189   8.634   2.958  1.1489 -1.8509 -0.9089
13613SOL    HW246932   0.144   8.491   2.982 -1.2878 -0.8080  1.2234
13614SOL     OW46933  10.054  10.681   4.305 -0.0559  0.7959 -0.1857
13614SOL    HW146934  10.060  10.760   4.358  0.9482 -1.2210  2.9885
13614SOL    HW246935   9.961  10.666   4.293 -0.3078  1.3316  1.0049
13615SOL     OW46936  10.720   0.743   7.567 -0.0309 -0.3356  0.0693
13615SOL    HW146937  10.815   0.733   7.576  0.0719 -0.7881 -1.3422
13615SOL    HW246938  10.708   0.831   7.531 -0.2533  0.2653  1.5401
13616SOL     OW46939   3.085   4.215  10.423 -0.0344 -0.0595 -0.2779
13616SOL    HW146940   3.098   4.258  10.338 -0.4125 -0.6838 -0.6565
13616SOL    HW246941   3.093   4.286  10.487  1.9831  0.1303 -0.6890
13617SOL     OW46942   4.210   9.129   1.950  0.1673 -0.7480 -0.5413
13617SOL    HW146943   4.246   9.132   1.861 -1.6165  0.8271 -1.2765
13617SOL    HW246944   4.124   9.171   1.943  0.1777 -0.1109  2.0239
13618SOL     OW46945   7.929   0.738  10.045  0.2072 -0.1227 -0.0649
13618SOL    HW146946   7.966   0.716  10.131 -1.3957 -0.0521  0.6829
13618SOL    HW246947   8.004   0.765   9.993  1.3559 -1.1344  1.0032
13619SOL     OW46948   6.547   8.560   4.236  0.1133  0.6511 -0.1596
13619SOL    HW146949   6.469   8.564   4.180  0.6484 -1.0280 -1.1129
13619SOL    HW246950   6.617   8.530   4.177  1.1079  0.5501  1.0337
13620SOL     OW46951   5.403   0.405   3.121 -0.7292  0.1442  0.0299
13620SOL    HW146952   5.345   0.346   3.168  0.4121 -1.1132 -0.0904
13620SOL    HW246953   5.491   0.375   3.143 -0.1086  1.6124 -0.2876
13621SOL     OW46954   7.257  10.046   6.787 -0.1189  0.2397 -0.4776
13621SOL    HW146955   7.216  10.088   6.863  0.3423 -0.9906  0.4894
13621SOL    HW246956   7.312  10.114   6.749  0.5248  0.5763  0.9757
13622SOL     OW46957   3.284   8.471   0.946  0.2919  0.1137 -0.0660
13622SOL    HW146958   3.209   8.521   0.912 -0.6382 -1.2440 -0.0988
13622SOL    HW246959   3.306   8.410   0.876  1.3683  0.4191 -0.0043
13623SOL     OW46960   8.872   4.323   7.020 -0.5049  0.4645  0.1897
13623SOL    HW146961   8.815   4.265   7.072  0.5218 -0.7741 -0.0112
13623SOL    HW246962   8.958   4.317   7.063 -0.5343  2.4926  0.6319
13624SOL     OW46963   5.530   4.174   7.883  0.7699  0.2987  0.5260
13624SOL    HW146964   5.450   4.195   7.932 -0.0853 -0.6589 -0.4257
13624SOL    HW246965   5.575   4.111   7.939  0.1270 -0.2730  0.4232
13625SOL     OW46966   8.299   0.649   5.205  0.1845 -0.1766  0.2956
13625SOL    HW146967   8.227   0.658   5.267  0.9984  0.4783  1.1763
13625SOL    HW246968   8.305   0.733   5.161 -0.0070 -0.4479 -0.2656
13626SOL     OW46969   4.707   9.270   7.240  0.0172  0.0128  0.1420
13626SOL    HW146970   4.773   9.332   7.274 -2.2054  2.8036 -0.2686
13626SOL    HW246971   4.758   9.207   7.189  2.6439  0.2629  2.1929
13627SOL     OW46972   7.035   5.870   5.892 -0.3637 -0.1065 -0.2622
13627SOL    HW146973   7.003   5.948   5.845 -1.5154  0.0045  0.6531
13627SOL    HW246974   6.966   5.805   5.880 -1.2053  0.2646  2.0973
13628SOL     OW46975   9.399  10.329   0.108  0.0377  0.4358 -0.0085
13628SOL    HW146976   9.434  10.282   0.032  1.0297 -1.1046  1.3317
13628SOL    HW246977   9.306  10.306   0.111 -0.0122  0.5211 -0.7361
13629SOL     OW46978   5.534   4.997   8.746 -0.4790 -0.0595 -0.1670
13629SOL    HW146979   5.556   5.088   8.765 -0.2093 -0.0443 -0.5412
13629SOL    HW246980   5.460   4.977   8.803 -0.2723  0.2670  0.2162
13630SOL     OW46981   7.849   3.049   0.280 -0.1755 -0.2339 -0.0902
13630SOL    HW146982   7.867   3.110   0.351 -1.5052  0.2888 -0.1688
13630SOL    HW246983   7.878   2.964   0.313  1.1059  0.3180  0.2650
13631SOL     OW46984   9.754   0.517  10.276 -0.6863 -0.0466 -0.2370
13631SOL    HW146985   9.697   0.454  10.231  2.2024 -1.2707 -2.6013
13631SOL    HW246986   9.817   0.462  10.323 -0.5935  1.2104  1.1710
13632SOL     OW46987   6.373   8.996  10.842  0.2928 -0.0602 -0.5542
13632SOL    HW146988   6.321   9.057  10.894  0.4790 -0.1161 -0.2984
13632SOL    HW246989   6.429   8.952  10.906 -0.3275 -1.0047 -0.6360
13633SOL     OW46990   7.372   0.629   2.054 -0.0512 -0.1403 -0.4602
13633SOL    HW146991   7.316   0.648   2.130  0.7567  0.2542  0.0476
13633SOL    HW246992   7.459   0.659   2.080  0.2166  0.1292 -1.5971
13634SOL     OW46993   5.534   3.345  10.368 -0.2953 -0.3421  0.2558
13634SOL    HW146994   5.624   3.314  10.369 -0.0179  0.4538  0.8223
13634SOL    HW246995   5.535   3.420  10.308 -0.0446  1.1496  2.0510
13635SOL     OW46996   6.779   3.322   6.719 -0.2208 -0.1200  0.1301
13635SOL    HW146997   6.792   3.239   6.764  1.8135  0.3240  0.4491
13635SOL    HW246998   6.684   3.329   6.709 -0.5045 -1.9092  1.1410
13636SOL     OW46999   8.984   2.291   2.725 -0.1860  0.6020  0.0509
13636SOL    HW147000   8.923   2.267   2.654 -1.2804 -0.4962  1.3044
13636SOL    HW247001   9.053   2.225   2.721 -0.1045  0.7002 -0.1647
13637SOL     OW47002   4.627   6.439   5.572  0.3620 -0.2912 -0.1857
13637SOL    HW147003   4.632   6.358   5.521 -1.0384  0.0298 -0.8700
13637SOL    HW247004   4.546   6.431   5.621  0.4721  0.4846  0.1348
13638SOL     OW47005   4.137   4.922   1.099 -0.1707  0.6077  0.1886
13638SOL    HW147006   4.202   4.867   1.142 -1.8712  1.0547  3.6645
13638SOL    HW247007   4.178   5.009   1.097  0.0021  0.5456  0.7957
13639SOL     OW47008   0.355   0.619   5.463  0.1440 -0.0717 -0.1249
13639SOL    HW147009   0.385   0.531   5.486  0.3762 -0.2239 -0.9840
13639SOL    HW247010   0.349   0.665   5.547 -0.6806 -1.1122  0.4121
13640SOL     OW47011   2.273   1.058   3.124 -0.2507  0.1894 -0.1000
13640SOL    HW147012   2.304   0.982   3.172 -2.9191 -1.0780 -0.1946
13640SOL    HW247013   2.309   1.047   3.036 -2.4603 -2.4084 -0.8367
13641SOL     OW47014   2.856   8.904   1.032 -0.2344  0.3197  0.1601
13641SOL    HW147015   2.832   8.839   1.098  0.3497 -0.3098 -0.2369
13641SOL    HW247016   2.838   8.861   0.949  0.6411  0.4741 -0.1156
13642SOL     OW47017   5.739   5.451   5.148  0.3256  0.7450 -0.7279
13642SOL    HW147018   5.722   5.371   5.098  2.3195  0.2171 -0.6747
13642SOL    HW247019   5.811   5.427   5.207 -1.6615  1.4483  2.1881
13643SOL     OW47020   5.418   4.037   3.212 -0.3076  0.1457  0.4606
13643SOL    HW147021   5.438   4.092   3.288 -1.3677  0.4450  0.5354
13643SOL    HW247022   5.420   4.098   3.138  0.7996 -0.1590  0.2162
13644SOL     OW47023   8.383   7.427   5.129 -0.1311  0.1748  0.4998
13644SOL    HW147024   8.324   7.482   5.079  0.3332  0.8405  0.6649
13644SOL    HW247025   8.333   7.347   5.148 -1.0782  0.8568  0.9103
13645SOL     OW47026   3.407   5.574   3.586  0.4258  0.5478  0.0553
13645SOL    HW147027   3.458   5.536   3.514  0.0083  0.7415 -0.3445
13645SOL    HW247028   3.469   5.632   3.630  0.6991  0.3934 -0.1230
13646SOL     OW47029   6.934   9.914   6.467  0.0858  0.5732 -0.0113
13646SOL    HW147030   7.022   9.905   6.430 -0.0519  0.7651 -0.3840
13646SOL    HW247031   6.927  10.006   6.492  1.0409  0.0116  2.6833
13647SOL     OW47032   1.870   3.662   8.717 -0.9585  0.5937  0.4751
13647SOL    HW147033   1.796   3.608   8.744 -1.8776  1.7050  0.2601
13647SOL    HW247034   1.940   3.599   8.699 -1.7872 -0.4722  0.8522
13648SOL     OW47035   5.169   5.208   7.681  0.0856 -0.3808  0.3333
13648SOL    HW147036   5.237   5.179   7.740 -1.5655  0.0627  2.5771
13648SOL    HW247037   5.113   5.131   7.668  1.0753 -0.8362 -1.7389
13649SOL     OW47038   2.071   2.489   8.724 -0.1891  0.1671 -0.5821
13649SOL    HW147039   2.027   2.525   8.801 -0.9201  0.7338 -1.2441
13649SOL    HW247040   2.098   2.401   8.751 -1.8396 -0.2468 -0.1653
13650SOL     OW47041   1.822   7.604   4.813  0.0928 -0.0300 -0.4166
13650SOL    HW147042   1.783   7.522   4.843  1.2158 -0.6444 -0.5726
13650SOL    HW247043   1.816   7.663   4.889  1.6305 -1.1185  0.6148
13651SOL     OW47044   3.056   4.693  10.588  0.6997  0.3424 -0.1495
13651SOL    HW147045   2.986   4.729  10.643  1.0806 -0.3160  0.7934
13651SOL    HW247046   3.122   4.761  10.586  0.3673  0.6645 -0.4179
13652SOL     OW47047  10.151   6.715   9.560 -0.3652  0.4943 -0.3041
13652SOL    HW147048  10.060   6.686   9.554 -0.2761  0.4739 -2.9456
13652SOL    HW247049  10.145   6.807   9.587 -1.0916  0.2475  0.4279
13653SOL     OW47050   4.288   4.855   7.791  0.6158  0.4655 -0.2298
13653SOL    HW147051   4.235   4.913   7.846  0.5276  0.4079 -0.2536
13653SOL    HW247052   4.349   4.913   7.746 -0.2917  0.7010 -1.2036
13654SOL     OW47053   0.889   9.473  10.388  0.4748  0.6017 -0.3430
13654SOL    HW147054   0.847   9.544  10.437 -0.9494  0.5984 -1.5016
13654SOL    HW247055   0.819   9.437  10.334 -0.5472 -5.1994  3.8297
13655SOL     OW47056   0.267  10.103   6.668  0.6967 -1.0572 -1.0589
13655SOL    HW147057   0.275  10.112   6.573 -0.5419 -0.5509 -1.1365
13655SOL    HW247058   0.284  10.011   6.686  0.8488 -1.1724 -1.7828
13656SOL     OW47059   5.544   6.670   4.366  0.3927 -0.0513  0.0237
13656SOL    HW147060   5.537   6.661   4.271  0.5560  0.8619 -0.0815
13656SOL    HW247061   5.453   6.677   4.396  0.2650 -1.5858  0.0846
13657SOL     OW47062   6.909   8.654   9.972  0.2090  0.0454  0.4662
13657SOL    HW147063   6.879   8.580  10.025  1.0763 -1.0770 -0.5509
13657SOL    HW247064   6.837   8.717   9.977 -0.4278 -0.7186  1.6099
13658SOL     OW47065  10.004  10.859   2.760  0.2846 -0.5315  0.2831
13658SOL    HW147066   9.990  10.832   2.851 -1.9350  3.5154  1.4085
13658SOL    HW247067  10.057  10.939   2.767 -1.5704  0.9903 -1.7007
13659SOL     OW47068   7.482   8.950   7.113  0.1118 -0.4500  0.8490
13659SOL    HW147069   7.567   8.980   7.081 -0.9381  1.3558 -0.4577
13659SOL    HW247070   7.501   8.868   7.158  2.3376 -0.8001 -0.5701
13660SOL     OW47071   6.684   3.682  10.320 -0.4423  0.1093 -0.0749
13660SOL    HW147072   6.732   3.705  10.240  0.5786 -0.3841  0.3679
13660SOL    HW247073   6.611   3.629  10.290 -1.0885  1.3689 -0.8274
13661SOL     OW47074   2.151   5.446   3.461  0.0259  0.4499 -0.0026
13661SOL    HW147075   2.203   5.421   3.385 -0.1977  2.2884 -0.8055
13661SOL    HW247076   2.212   5.497   3.515  0.2125 -0.9206  1.1353
13662SOL     OW47077   3.073   7.611   5.518 -0.3534  0.6499 -0.2675
13662SOL    HW147078   3.057   7.578   5.606  0.0668 -0.8431 -0.7217
13662SOL    HW247079   3.107   7.700   5.532  1.6457 -0.2503  1.2197
13663SOL     OW47080   7.367   9.305   1.651 -0.0434 -0.2443 -0.6950
13663SOL    HW147081   7.386   9.360   1.727  1.9814  1.5750 -2.3752
13663SOL    HW247082   7.416   9.224   1.667 -0.2044 -0.1584  0.2474
13664SOL     OW47083   7.933   9.908   8.793  0.0931  0.2623 -0.0718
13664SOL    HW147084   7.873   9.939   8.861 -1.0809  1.8942 -1.7651
13664SOL    HW247085   7.970   9.987   8.756  2.6636 -0.6884  0.2943
13665SOL     OW47086   6.324   5.059   2.095  0.4867  0.4199  0.1113
13665SOL    HW147087   6.352   4.975   2.130 -1.4031 -0.3412 -0.0957
13665SOL    HW247088   6.317   5.045   2.001  0.7881  1.0127 -0.0047
13666SOL     OW47089  10.766  10.458   9.371 -0.2649 -0.3654 -0.0121
13666SOL    HW147090  10.750  10.485   9.280  0.3551 -0.4725 -0.1588
13666SOL    HW247091  10.858  10.479   9.386 -0.8706  1.6608  1.2945
13667SOL     OW47092   9.956   8.621   3.189  0.2300  0.1860  0.1180
13667SOL    HW147093   9.909   8.558   3.244  1.5409  0.3649  1.5213
13667SOL    HW247094   9.977   8.693   3.249  0.4133  1.0854 -1.0014
13668SOL     OW47095   5.162   7.171   2.324 -0.4794  0.5396  0.1690
13668SOL    HW147096   5.181   7.229   2.251 -0.3297  0.1831 -0.0797
13668SOL    HW247097   5.189   7.220   2.402  2.1754 -0.1844 -0.2028
13669SOL     OW47098   8.554   7.001   3.702 -0.1792 -0.2282 -0.3696
13669SOL    HW147099   8.459   7.010   3.697 -0.0211  1.3851 -1.2164
13669SOL    HW247100   8.574   6.930   3.641 -0.8687 -1.0364  0.3103
13670SOL     OW47101   7.532  10.000   6.435 -0.0241 -0.1703 -0.2077
13670SOL    HW147102   7.571   9.913   6.440 -0.1897 -0.1915  1.2121
13670SOL    HW247103   7.603  10.060   6.459 -0.4236 -0.0902  0.8331
13671SOL     OW47104   4.130   6.585   9.614  0.3288 -0.4661  0.1994
13671SOL    HW147105   4.081   6.595   9.533  2.2537 -2.1186 -1.2363
13671SOL    HW247106   4.133   6.674   9.651 -1.4215  0.1352 -0.9696
13672SOL     OW47107   7.644   2.760   4.787  0.2466  0.2801 -0.2556
13672SOL    HW147108   7.630   2.837   4.842  0.5163  1.4556 -1.7638
13672SOL    HW247109   7.739   2.748   4.787  0.0939 -2.2799  2.7983
13673SOL     OW47110   5.312   2.963   1.054 -0.0503 -0.0551  0.0117
13673SOL    HW147111   5.364   2.987   1.131 -1.0363 -0.8965  0.9644
13673SOL    HW247112   5.325   3.035   0.993 -0.6759  1.5171  1.6690
13674SOL     OW47113   9.986   7.584   4.419  0.3866  0.8168  0.3404
13674SOL    HW147114   9.912   7.576   4.358  1.3318 -0.2500 -0.7242
13674SOL    HW247115   9.956   7.540   4.498  0.2399 -0.6364 -0.4727
13675SOL     OW47116  10.561   7.530   0.918  0.1342  0.1292 -0.5609
13675SOL    HW147117  10.473   7.545   0.953 -0.4152 -0.5889 -1.5612
13675SOL    HW247118  10.561   7.437   0.894  0.5309  0.5257 -2.2521
13676SOL     OW47119   1.644   4.397   5.476  0.4264  0.1642 -0.0586
13676SOL    HW147120   1.577   4.449   5.522  1.0184  1.8103 -0.9678
13676SOL    HW247121   1.657   4.320   5.532 -1.4081  0.3574  0.7000
13677SOL     OW47122   4.391   0.846  10.075  0.4596 -0.0799  0.1829
13677SOL    HW147123   4.485   0.858  10.062  0.6294 -1.4571 -0.0118
13677SOL    HW247124   4.365   0.786  10.005 -0.9353  1.6765 -0.8982
13678SOL     OW47125   2.776  10.338   0.373  0.7284  0.1017  0.1350
13678SOL    HW147126   2.806  10.247   0.377  0.4285 -0.0997 -1.5327
13678SOL    HW247127   2.733  10.352   0.457 -0.0780 -1.6190  0.0541
13679SOL     OW47128   9.046   8.946   1.095  0.1517 -0.0796  0.0750
13679SOL    HW147129   8.952   8.942   1.108  0.2281 -2.7011  0.3612
13679SOL    HW247130   9.078   9.000   1.168 -1.0438  0.2932  0.3425
13680SOL     OW47131   2.964   1.740   1.585  0.1443  0.4479 -0.3861
13680SOL    HW147132   2.984   1.807   1.519  0.7027  0.5477 -0.1174
13680SOL    HW247133   2.868   1.741   1.590  0.1197  0.8714 -0.7494
13681SOL     OW47134   9.227   7.166   9.072 -0.2550  0.0456  0.4925
13681SOL    HW147135   9.268   7.230   9.131 -0.4375  0.6334 -0.0141
13681SOL    HW247136   9.276   7.174   8.990 -0.4951 -0.2340  0.3199
13682SOL     OW47137   4.990   7.800   4.944  0.1213 -0.3466  0.2424
13682SOL    HW147138   5.027   7.731   4.999  0.5251  1.1527  1.9604
13682SOL    HW247139   5.019   7.779   4.856 -1.8328 -3.7105  0.2521
13683SOL     OW47140   4.365   9.275   0.705  0.0399  0.7677  0.8385
13683SOL    HW147141   4.438   9.336   0.698 -0.0009  0.8089  0.7724
13683SOL    HW247142   4.385   9.206   0.642  2.1885 -1.4870  3.7217
13684SOL     OW47143   0.772   8.953   3.695 -0.5317 -0.1432 -0.1802
13684SOL    HW147144   0.847   8.898   3.718 -0.6465 -0.0742  0.3649
13684SOL    HW247145   0.763   9.013   3.769 -2.5985 -1.6863  0.9094
13685SOL     OW47146   1.612   0.165  10.385  0.2663 -0.2324  0.1392
13685SOL    HW147147   1.631   0.139  10.295 -1.5146 -1.5969  0.0930
13685SOL    HW247148   1.638   0.089  10.438 -1.3401 -0.6172  0.4349
13686SOL     OW47149   3.241   8.788   2.158  0.6899 -0.0746 -0.0154
13686SOL    HW147150   3.298   8.741   2.096 -1.9105 -0.3514 -2.4380
13686SOL    HW247151   3.247   8.880   2.132  0.9648  0.0675  0.5419
13687SOL     OW47152   8.219   2.748   2.973 -0.1994 -0.0265 -0.8275
13687SOL    HW147153   8.303   2.762   2.928  0.0278 -0.1275 -0.4383
13687SOL    HW247154   8.241   2.753   3.066 -0.7242  0.5228 -0.7248
13688SOL     OW47155   3.092   0.851   6.825 -0.0429  0.1761 -0.3128
13688SOL    HW147156   3.007   0.895   6.833 -0.0606  0.3307 -1.3029
13688SOL    HW247157   3.134   0.866   6.910 -1.4466 -0.8508  0.6180
13689SOL     OW47158   2.964   2.083   4.305  0.5846  0.2120  0.2044
13689SOL    HW147159   2.921   2.012   4.354 -0.0011  0.9600  0.7938
13689SOL    HW247160   2.895   2.146   4.288  0.4257 -0.6659 -2.9133
13690SOL     OW47161   8.977   1.156   3.870 -0.1689  0.2485 -0.4885
13690SOL    HW147162   8.887   1.135   3.896 -0.3840  1.6310 -0.0375
13690SOL    HW247163   9.029   1.142   3.950 -0.0638 -0.0313 -0.6040
13691SOL     OW47164   8.329   9.557   5.142  0.3212 -0.0708 -0.1363
13691SOL    HW147165   8.267   9.570   5.070 -2.4060 -1.7089  1.6765
13691SOL    HW247166   8.285   9.494   5.199  2.1940  1.2828  3.0723
13692SOL     OW47167   7.843   3.819   1.254  0.1012 -0.3878  0.2500
13692SOL    HW147168   7.914   3.755   1.259  1.0274  0.6904  1.7652
13692SOL    HW247169   7.783   3.792   1.324 -0.4392 -0.6502 -0.3067
13693SOL     OW47170   6.105   1.022   5.203 -0.4991  0.1567 -0.3501
13693SOL    HW147171   6.023   1.005   5.156 -0.7372 -0.0916  0.1407
13693SOL    HW247172   6.092   1.109   5.241 -0.6935 -0.0328  0.0330
13694SOL     OW47173   9.082   2.697   6.454 -0.0647  0.0365  0.2477
13694SOL    HW147174   9.080   2.652   6.369  0.9072  1.1859 -0.4264
13694SOL    HW247175   9.173   2.725   6.464 -0.8311  3.0350 -0.0769
13695SOL     OW47176   6.993   6.004   8.071 -0.0459 -0.7623  0.1505
13695SOL    HW147177   6.920   5.946   8.052  0.5305 -1.4838  0.1161
13695SOL    HW247178   6.952   6.080   8.112 -1.0348 -0.2387 -1.7013
13696SOL     OW47179   0.372   2.371   2.405  0.3939 -0.0549  0.0423
13696SOL    HW147180   0.457   2.347   2.369  0.1826 -1.1329  0.2271
13696SOL    HW247181   0.328   2.288   2.422 -1.1903  0.4744 -1.1691
13697SOL     OW47182   5.746   1.656   0.730 -0.0827  0.9533 -0.4975
13697SOL    HW147183   5.748   1.745   0.697 -0.4926  0.7356 -1.1295
13697SOL    HW247184   5.714   1.603   0.656 -2.7522  0.6884  0.7105
13698SOL     OW47185   5.489   6.156   7.304 -0.2336 -0.6500 -0.0667
13698SOL    HW147186   5.502   6.074   7.352 -0.9218  0.3623  1.9442
13698SOL    HW247187   5.486   6.129   7.212 -1.8974 -3.1100  0.5982
13699SOL     OW47188   2.516   5.376   7.853 -0.2297 -0.1896  0.0132
13699SOL    HW147189   2.582   5.416   7.796 -0.6408  0.2714 -0.1466
13699SOL    HW247190   2.458   5.328   7.793 -1.7602  1.8141 -0.2047
13700SOL     OW47191   7.505  10.493   0.977 -0.0661 -0.0051  0.7475
13700SOL    HW147192   7.411  10.511   0.981 -0.4801 -1.8833  0.4326
13700SOL    HW247193   7.511  10.398   0.979  1.8593  0.0862  1.0203
13701SOL     OW47194   2.586   3.477   4.366  0.0385  0.0625  0.5536
13701SOL    HW147195   2.639   3.459   4.444 -1.1972 -0.6343  1.2579
13701SOL    HW247196   2.642   3.453   4.293  1.4106  1.1869  1.1754
13702SOL     OW47197   6.064   4.614   8.441 -0.2157 -0.0109  0.1260
13702SOL    HW147198   6.035   4.647   8.355  0.6185  0.9659  0.1919
13702SOL    HW247199   6.135   4.553   8.420 -1.3361 -1.3253  0.0370
13703SOL     OW47200   7.679  10.655   4.822 -0.0822 -0.6140  0.3197
13703SOL    HW147201   7.584  10.664   4.818 -0.0783 -0.9225 -0.8615
13703SOL    HW247202   7.712  10.745   4.828 -0.4706 -0.5556  2.3828
13704SOL     OW47203   9.676   5.954   0.455 -0.3088 -0.0453 -0.6900
13704SOL    HW147204   9.604   5.900   0.423 -1.5782  1.4174 -0.4006
13704SOL    HW247205   9.690   5.925   0.545  0.8284 -1.6675 -1.3360
13705SOL     OW47206   9.027   8.233   9.301 -0.2588 -0.2039  0.2060
13705SOL    HW147207   9.105   8.288   9.309 -0.9769  0.8842 -0.0005
13705SOL    HW247208   8.956   8.295   9.286 -1.1456 -1.1862  0.2424
13706SOL     OW47209   4.728   0.850  10.577  0.1334  0.7572 -0.0800
13706SOL    HW147210   4.731   0.842  10.672  0.4460  0.6755 -0.0946
13706SOL    HW247211   4.814   0.883  10.552  0.7980 -1.1721 -0.4995
13707SOL     OW47212   4.268   3.382   8.767  0.2057 -0.2016 -0.1385
13707SOL    HW147213   4.200   3.333   8.813  0.0458  0.4233  0.3075
13707SOL    HW247214   4.279   3.336   8.684 -1.0711 -0.0707 -0.3988
13708SOL     OW47215   1.455   6.274   3.869  0.1461 -0.1302 -0.5557
13708SOL    HW147216   1.491   6.361   3.854  0.7637 -0.2694  0.0786
13708SOL    HW247217   1.531   6.216   3.874 -0.2710 -0.7711 -1.3206
13709SOL     OW47218   3.921   8.816   0.261 -0.3157 -0.4916 -0.4402
13709SOL    HW147219   4.003   8.784   0.222  0.8011  0.0607  1.3071
13709SOL    HW247220   3.904   8.899   0.217  0.9642  0.1579  0.2283
13710SOL     OW47221   6.741   4.921   9.735 -0.8908  0.2488  0.1265
13710SOL    HW147222   6.736   4.871   9.654 -0.0211 -3.5873  2.1683
13710SOL    HW247223   6.822   4.971   9.727 -1.3443  0.7761 -1.7064
13711SOL     OW47224   4.869   3.826   0.599  0.0146  0.3520 -0.2265
13711SOL    HW147225   4.886   3.769   0.674  1.4051  1.0982  0.0477
13711SOL    HW247226   4.791   3.876   0.624  0.1203  0.1721  0.4793
13712SOL     OW47227   5.520  10.316  10.456 -0.0301  0.0653  0.2319
13712SOL    HW147228   5.584  10.351  10.394 -0.0241 -0.7828 -0.2479
13712SOL    HW247229   5.525  10.375  10.531  3.2458 -1.4617  1.3617
13713SOL     OW47230   1.187   6.866   2.874  0.5582  0.1130 -1.0156
13713SOL    HW147231   1.181   6.774   2.901 -2.4163  0.5984  0.2772
13713SOL    HW247232   1.098   6.899   2.880  1.8724  3.8404  1.2804
13714SOL     OW47233   4.874   8.116  10.083  0.1302  0.3337 -0.0769
13714SOL    HW147234   4.852   8.071  10.164 -0.2642  2.1014  0.8326
13714SOL    HW247235   4.791   8.122  10.035  0.1932  0.0470 -0.2224
13715SOL     OW47236   4.918   0.055   2.167  0.2197  0.2524 -0.1330
13715SOL    HW147237   4.871  -0.028   2.180  0.1428 -0.0405 -1.9360
13715SOL    HW247238   4.999   0.044   2.216  0.1783 -0.8849 -0.2745
13716SOL     OW47239   7.240   6.641   8.408  0.7216 -0.1169  0.7276
13716SOL    HW147240   7.168   6.589   8.374 -0.4193  2.3099 -0.8239
13716SOL    HW247241   7.298   6.653   8.332 -0.1319  2.5679  0.4347
13717SOL     OW47242   2.367  10.085   5.818  0.3064  0.2849 -0.5895
13717SOL    HW147243   2.391  10.066   5.909 -1.7056  1.1920  0.1963
13717SOL    HW247244   2.285  10.037   5.805  1.6382 -1.6294 -2.7074
13718SOL     OW47245   2.455   9.215   2.966 -0.1010 -0.1930 -0.7968
13718SOL    HW147246   2.534   9.263   2.942  0.8652 -2.2820 -2.0844
13718SOL    HW247247   2.467   9.191   3.057  0.4517  0.0721 -0.7987
13719SOL     OW47248   5.433   4.906   6.572 -0.0528 -0.0212  0.0236
13719SOL    HW147249   5.493   4.966   6.615 -0.2681  0.2355 -0.0293
13719SOL    HW247250   5.435   4.827   6.626 -0.8221  0.5284  0.9024
13720SOL     OW47251   0.244   3.928   7.018  0.2583  0.7133  0.0906
13720SOL    HW147252   0.261   3.951   7.109 -2.9929  2.4825  0.3925
13720SOL    HW247253   0.160   3.881   7.020  1.8879 -2.7058 -1.6816
13721SOL     OW47254   4.340   4.242   3.882  0.0813 -0.2557  0.3418
13721SOL    HW147255   4.345   4.325   3.930  0.6776  1.2218 -2.0850
13721SOL    HW247256   4.342   4.268   3.790 -2.4448 -2.8083 -0.5881
13722SOL     OW47257   9.399   2.802   0.327  0.6146 -0.1900  0.0528
13722SOL    HW147258   9.379   2.720   0.283  0.4452  0.4285 -1.0636
13722SOL    HW247259   9.422   2.777   0.417  1.2968 -1.5064 -0.4779
13723SOL     OW47260   7.432  10.588   5.567  0.0185 -0.2105  0.3956
13723SOL    HW147261   7.504  10.642   5.601 -0.4683  0.0046  1.1133
13723SOL    HW247262   7.378  10.570   5.644  0.4025 -2.1068  0.2886
13724SOL     OW47263   4.040   7.351   8.404  0.2198  0.3266 -0.8673
13724SOL    HW147264   3.982   7.427   8.399 -1.9099 -1.2832 -2.4971
13724SOL    HW247265   3.981   7.276   8.409  2.2360 -1.2481  1.5143
13725SOL     OW47266   2.441   1.591   2.347 -0.1031 -0.1081 -0.4618
13725SOL    HW147267   2.382   1.601   2.421  0.4488  0.0621 -0.0337
13725SOL    HW247268   2.476   1.502   2.356 -0.4403 -0.2765 -0.8219
13726SOL     OW47269   4.079   3.081  10.816 -0.7429  0.2131  0.0467
13726SOL    HW147270   4.078   3.165  10.862 -2.6329  0.3780 -0.2113
13726SOL    HW247271   4.007   3.087  10.753  0.6378 -0.6761 -1.7369
13727SOL     OW47272  10.153   1.155   3.237  0.1575  0.2052 -0.7454
13727SOL    HW147273  10.147   1.229   3.297 -0.2555 -0.5631  0.1885
13727SOL    HW247274  10.246   1.132   3.237 -0.0383 -0.8382  0.9722
13728SOL     OW47275   1.296   7.395   9.110 -0.3055 -0.4653 -0.0235
13728SOL    HW147276   1.357   7.329   9.140  1.1797  1.1999  0.8287
13728SOL    HW247277   1.326   7.476   9.152 -2.2820  0.6784 -0.6784
13729SOL     OW47278   4.976   4.827   6.081  0.1374  0.6892 -0.0543
13729SOL    HW147279   4.986   4.912   6.123  0.2926 -0.1501  1.7129
13729SOL    HW247280   4.935   4.772   6.148 -2.0566 -0.0672 -1.8904
13730SOL     OW47281   4.600   9.360   1.588  0.3113  0.2067 -0.3434
13730SOL    HW147282   4.606   9.447   1.628  2.0175 -0.3263  0.6775
13730SOL    HW247283   4.558   9.375   1.503 -0.3773  1.8617  0.2488
13731SOL     OW47284   2.239   3.289   6.246 -0.1538  0.1091  0.1254
13731SOL    HW147285   2.332   3.287   6.271 -0.1927  0.3471  0.2915
13731SOL    HW247286   2.240   3.285   6.151  0.0035 -0.6047  0.1544
13732SOL     OW47287   6.348   9.134  10.077 -0.1575  0.4576  0.0558
13732SOL    HW147288   6.295   9.148  10.156  0.7957 -0.5895  0.9156
13732SOL    HW247289   6.331   9.043  10.052 -2.8387  1.5530 -2.8361
13733SOL     OW47290   9.155   8.840   1.852 -0.2707  0.4940 -0.1293
13733SOL    HW147291   9.232   8.785   1.864 -0.0450  0.9117  0.3510
13733SOL    HW247292   9.141   8.880   1.938 -1.0998  0.3192 -0.1726
13734SOL     OW47293  10.444   8.809   6.309  0.2094  0.3063 -0.1907
13734SOL    HW147294  10.515   8.780   6.252  0.2038 -1.4782  0.6431
13734SOL    HW247295  10.472   8.894   6.342  1.8471 -0.2392 -0.0978
13735SOL     OW47296   8.862   9.273   0.024  0.3077 -0.1137  0.4488
13735SOL    HW147297   8.852   9.327   0.102 -3.2215  1.0224 -0.5996
13735SOL    HW247298   8.899   9.332  -0.042 -0.0290 -0.0220  0.3361
13736SOL     OW47299   5.739   3.909   5.913 -0.7958 -0.4999 -0.1489
13736SOL    HW147300   5.787   3.845   5.860 -0.4389 -0.5173  0.1932
13736SOL    HW247301   5.727   3.867   5.998 -1.7645 -0.6507 -0.3404
13737SOL     OW47302   0.326   3.053   5.754 -0.1161 -0.1988 -0.0332
13737SOL    HW147303   0.262   3.124   5.754  0.6534  0.5027  0.0384
13737SOL    HW247304   0.278   2.977   5.721 -0.9731  0.3248 -0.0016
13738SOL     OW47305   7.406   9.574   4.749  0.3094  0.1808  0.1236
13738SOL    HW147306   7.492   9.612   4.726  0.6551 -0.4979  0.2776
13738SOL    HW247307   7.343   9.631   4.705  0.8114  1.0695  0.5253
13739SOL     OW47308  10.100   9.605  10.473 -0.3796 -0.1613  0.0493
13739SOL    HW147309  10.031   9.635  10.415 -0.3610 -0.6317 -0.2190
13739SOL    HW247310  10.139   9.530  10.428  0.2011  0.0026  0.2697
13740SOL     OW47311   4.079   8.274   2.625  0.1908  0.7692 -0.6996
13740SOL    HW147312   4.081   8.185   2.589  0.4034  1.0401 -1.3857
13740SOL    HW247313   3.996   8.310   2.593 -0.2846  0.5459  0.2652
13741SOL     OW47314   9.339   9.664   2.060 -1.1027 -0.6892  0.4623
13741SOL    HW147315   9.386   9.640   1.980 -2.9775 -1.5672 -0.4290
13741SOL    HW247316   9.251   9.630   2.047 -1.8759  0.4891  2.2757
13742SOL     OW47317   9.662   6.247   0.014 -0.5170 -0.4019 -0.4940
13742SOL    HW147318   9.638   6.302  -0.060 -0.4441 -0.7596 -0.7886
13742SOL    HW247319   9.664   6.306   0.089  0.7036  0.2416 -0.9944
13743SOL     OW47320   3.057   7.927   0.737 -0.0635 -0.8608  0.8104
13743SOL    HW147321   3.003   7.883   0.803 -1.2510 -0.3264  0.2274
13743SOL    HW247322   2.994   7.970   0.679  0.9970 -0.2539  0.0687
13744SOL     OW47323   7.176   5.908   7.106  0.3949  0.0795 -0.0358
13744SOL    HW147324   7.248   5.854   7.074  0.0370 -0.6670  0.4049
13744SOL    HW247325   7.097   5.864   7.075  0.0512 -0.4356  1.5151
13745SOL     OW47326   5.833   0.962  10.117 -0.3569  0.2373  0.2329
13745SOL    HW147327   5.885   1.043  10.112 -0.9965  0.9523  3.0924
13745SOL    HW247328   5.750   0.984  10.076 -0.2005  0.7424  0.1787
13746SOL     OW47329   3.438   8.696   8.330  0.0300 -0.1343 -0.0015
13746SOL    HW147330   3.508   8.651   8.283  0.5187  0.3907  0.2177
13746SOL    HW247331   3.460   8.789   8.324  1.1582 -0.1176  2.7992
13747SOL     OW47332  10.055   4.533   7.210  0.4419 -0.3968  0.4028
13747SOL    HW147333  10.087   4.512   7.122 -0.9541 -0.6989 -0.0509
13747SOL    HW247334  10.135   4.542   7.262  1.3074 -0.1198 -0.9054
13748SOL     OW47335   7.893   8.153   5.502 -0.4395  0.2021  0.2839
13748SOL    HW147336   7.801   8.139   5.524 -0.1259 -0.7785  1.0463
13748SOL    HW247337   7.922   8.223   5.561 -1.1535  1.9226 -1.2733
13749SOL     OW47338   2.120   0.327   0.023  0.6341  0.0320 -0.1973
13749SOL    HW147339   2.118   0.368  -0.063  0.7357 -0.8433 -0.6258
13749SOL    HW247340   2.137   0.399   0.084 -0.9267  0.8982 -0.7379
13750SOL     OW47341   1.217   8.060   9.274  0.5410  0.8907 -0.4868
13750SOL    HW147342   1.156   8.111   9.328 -2.2042 -0.3719 -2.1730
13750SOL    HW247343   1.271   8.013   9.337 -0.1606  2.1145  1.1005
13751SOL     OW47344   0.250   1.879   9.505 -0.3268 -0.2972  0.1069
13751SOL    HW147345   0.238   1.800   9.452  0.3474  0.2509 -0.8844
13751SOL    HW247346   0.342   1.902   9.494 -0.6268  0.9085 -0.0055
13752SOL     OW47347   6.854   9.503   3.668  0.0973 -0.1338 -0.4284
13752SOL    HW147348   6.947   9.505   3.647  0.5045  0.1475  1.2570
13752SOL    HW247349   6.833   9.410   3.675  0.6801 -0.1924  0.8276
13753SOL     OW47350   5.030   2.611   6.926 -0.3279  0.2005 -0.8793
13753SOL    HW147351   5.113   2.571   6.899  0.7242  1.5378  0.2545
13753SOL    HW247352   4.987   2.545   6.979  1.0432  0.2679  0.3581
13754SOL     OW47353   4.629   2.606   8.278 -0.1663  0.0620  0.1837
13754SOL    HW147354   4.609   2.544   8.348  0.6788  0.5189  0.8520
13754SOL    HW247355   4.655   2.686   8.323 -0.5149  0.6692 -0.6663
13755SOL     OW47356   5.048   5.360   0.842 -0.0829  0.2545 -0.6008
13755SOL    HW147357   5.050   5.386   0.934  2.2255  1.1078 -0.8328
13755SOL    HW247358   4.970   5.305   0.835  1.0688 -2.1242  2.5117
13756SOL     OW47359   8.011   6.561   5.077 -0.3345 -0.5163 -0.2551
13756SOL    HW147360   8.049   6.539   4.991 -1.2187  1.5658 -1.2499
13756SOL    HW247361   7.918   6.540   5.068 -0.9050  1.9167 -0.7095
13757SOL     OW47362  10.053   1.713   5.116 -0.8999 -0.3678  0.2479
13757SOL    HW147363  10.095   1.642   5.067  0.1397 -0.0911  0.7091
13757SOL    HW247364   9.970   1.727   5.071 -0.3272 -0.6755 -0.9529
13758SOL     OW47365  10.254   6.679   7.769 -0.6114 -0.5802 -0.3411
13758SOL    HW147366  10.347   6.663   7.784 -0.5434 -0.6694 -0.8445
13758SOL    HW247367  10.245   6.683   7.674 -0.8999  0.7181 -0.2855
13759SOL     OW47368   6.657   4.628   5.805  0.5503  0.1351 -0.0789
13759SOL    HW147369   6.627   4.539   5.824  1.7153  0.1158  1.9227
13759SOL    HW247370   6.578   4.674   5.777 -0.1378 -1.4319 -0.8278
13760SOL     OW47371   0.782   1.320   7.253  0.0977 -0.1654 -0.3800
13760SOL    HW147372   0.741   1.292   7.335  1.4728 -0.0714  0.3823
13760SOL    HW247373   0.709   1.334   7.193 -0.9433 -0.3326  0.7939
13761SOL     OW47374   1.538   1.602   6.531  0.1257  0.0898 -0.0112
13761SOL    HW147375   1.464   1.661   6.524 -0.1641 -0.3937 -1.3314
13761SOL    HW247376   1.561   1.603   6.624 -1.6823  0.0633  0.4701
13762SOL     OW47377   0.977   5.693   7.733  0.3692 -0.5500 -0.0012
13762SOL    HW147378   0.959   5.625   7.798  0.7628 -0.1736  0.5244
13762SOL    HW247379   0.920   5.673   7.660 -0.7054 -0.5157  0.7984
13763SOL     OW47380   7.989   7.427   6.404 -0.0785 -0.5983 -0.0069
13763SOL    HW147381   8.024   7.371   6.474  0.6848  0.5601  0.5944
13763SOL    HW247382   8.065   7.479   6.377 -0.8325  0.3491 -0.3216
13764SOL     OW47383   3.739   4.307   3.608 -0.5129  0.1507  0.0390
13764SOL    HW147384   3.703   4.355   3.683 -2.7124 -1.4352  0.1060
13764SOL    HW247385   3.673   4.317   3.539 -0.5417 -1.8092 -0.2833
13765SOL     OW47386   8.493   3.760   6.356  0.3866 -0.3490  0.3426
13765SOL    HW147387   8.446   3.803   6.285 -1.8799 -0.2860  1.7557
13765SOL    HW247388   8.533   3.832   6.405  0.3393 -0.2288  0.2043
13766SOL     OW47389   9.612   2.702  10.441  0.5361  0.2461  0.6469
13766SOL    HW147390   9.653   2.680  10.357  1.0010  1.1618  0.6214
13766SOL    HW247391   9.555   2.627  10.460  0.5963 -0.0793 -0.3724
13767SOL     OW47392   6.199   7.189   3.050 -0.2798 -0.4060  0.0732
13767SOL    HW147393   6.141   7.146   2.987 -0.1686  1.6177 -1.5067
13767SOL    HW247394   6.162   7.276   3.061  0.6263 -0.1830  1.6195
13768SOL     OW47395   3.283  10.277   7.580  0.1423 -0.4952  0.6887
13768SOL    HW147396   3.368  10.282   7.623  0.2598  1.1639  0.3246
13768SOL    HW247397   3.284  10.347   7.515 -0.8466 -1.5693 -0.5621
13769SOL     OW47398   4.015   3.173  10.480 -0.2764 -0.3728  0.3463
13769SOL    HW147399   3.957   3.097  10.485 -1.1439  0.3417  1.9592
13769SOL    HW247400   3.996   3.223  10.559  1.8415  0.4172  0.4205
13770SOL     OW47401   7.140   3.867   8.745 -0.2658  0.1922 -0.7487
13770SOL    HW147402   7.097   3.929   8.687 -0.2110 -1.8031 -3.0346
13770SOL    HW247403   7.103   3.782   8.723 -0.8861 -0.6384  2.8019
13771SOL     OW47404  10.163   3.219   2.891  0.2495  0.1778  0.2482
13771SOL    HW147405  10.139   3.272   2.815 -1.5477 -1.1643 -0.1602
13771SOL    HW247406  10.103   3.145   2.890  1.4123 -0.8697  1.9276
13772SOL     OW47407   0.652   2.087   6.841 -0.2973  0.1199 -0.3684
13772SOL    HW147408   0.675   2.170   6.797 -0.6537  0.2934 -0.2315
13772SOL    HW247409   0.682   2.099   6.931 -1.1726  0.4647 -0.1095
13773SOL     OW47410   7.880   7.862   4.718  0.1200 -0.0946 -0.0443
13773SOL    HW147411   7.966   7.862   4.675 -0.3256  1.3581 -1.0081
13773SOL    HW247412   7.846   7.774   4.704  1.2464 -0.5472 -0.0541
13774SOL     OW47413   6.830   3.492   3.678 -0.1357  0.5123 -0.2048
13774SOL    HW147414   6.797   3.558   3.738 -1.9768 -0.5259  0.0081
13774SOL    HW247415   6.764   3.423   3.679  0.2208  0.0119 -2.7079
13775SOL     OW47416   1.919   3.621   7.186  0.2162  0.1274  0.7874
13775SOL    HW147417   1.959   3.536   7.166  1.8633  0.6382  1.6873
13775SOL    HW247418   1.855   3.635   7.116  0.0681 -1.7345  0.4978
13776SOL     OW47419   2.167   7.778   2.620 -0.0325 -0.0556  0.3014
13776SOL    HW147420   2.125   7.864   2.609 -1.6161 -0.8555 -0.2224
13776SOL    HW247421   2.211   7.785   2.705 -0.5577  1.1215  0.5110
13777SOL     OW47422   3.281   5.569   5.470 -0.1254  0.0855 -0.1778
13777SOL    HW147423   3.197   5.527   5.484 -0.1248  0.0098 -0.4076
13777SOL    HW247424   3.303   5.606   5.556 -0.3234 -0.0161 -0.0814
13778SOL     OW47425   9.506   9.921   7.837  0.0652  0.4768 -0.4042
13778SOL    HW147426   9.494   9.854   7.904 -0.3294  0.4684 -0.4811
13778SOL    HW247427   9.536   9.872   7.760 -1.7022  0.1524 -0.9385
13779SOL     OW47428  10.155   7.061   5.943  0.1404 -0.0598  0.5204
13779SOL    HW147429  10.098   7.136   5.958  1.8437  1.0758  1.6081
13779SOL    HW247430  10.177   7.029   6.030  0.8733 -0.7055  0.1117
13780SOL     OW47431   7.793  10.454   0.489  0.4517 -0.0874 -0.4782
13780SOL    HW147432   7.741  10.469   0.568  1.7088  1.0728  0.1777
13780SOL    HW247433   7.792  10.359   0.478 -0.9491 -0.1618  0.0788
13781SOL     OW47434   1.523   6.203   6.046  0.0739 -0.0789  0.1322
13781SOL    HW147435   1.540   6.289   6.008  1.1975 -0.9826 -1.5764
13781SOL    HW247436   1.435   6.180   6.017  0.1912  0.0519 -0.3388
13782SOL     OW47437  10.576   5.798   7.746 -0.7270  0.9815  0.7526
13782SOL    HW147438  10.557   5.780   7.838 -2.1005 -1.6292  0.0584
13782SOL    HW247439  10.490   5.812   7.706 -0.6697 -2.3526 -0.8737
13783SOL     OW47440   8.310   0.726   1.244 -0.0774 -0.3074  0.3419
13783SOL    HW147441   8.234   0.671   1.226  0.1072 -0.5596  0.3356
13783SOL    HW247442   8.379   0.691   1.187  0.4296 -0.9206  1.2999
13784SOL     OW47443   6.677  10.012   3.859 -0.0381  0.2158  0.2139
13784SOL    HW147444   6.703  10.008   3.767  0.9368 -3.5023  0.4817
13784SOL    HW247445   6.756  10.039   3.905  0.1699 -0.2625  0.1410
13785SOL     OW47446   3.546   9.782   4.745  0.1992 -0.5486  0.6858
13785SOL    HW147447   3.470   9.725   4.733 -0.9502  1.3557 -2.4047
13785SOL    HW247448   3.511   9.871   4.735  2.5740  0.4976  0.9176
13786SOL     OW47449  10.509  10.405   0.186  0.1323  0.2603  0.6379
13786SOL    HW147450  10.557  10.338   0.235 -0.1671  0.0132  0.5945
13786SOL    HW247451  10.540  10.488   0.224  1.2152  0.1476  0.0388
13787SOL     OW47452   1.717   2.685  10.106 -0.2895  0.0715 -0.1489
13787SOL    HW147453   1.804   2.652  10.131 -0.2730 -2.1730 -2.7047
13787SOL    HW247454   1.658   2.613  10.123 -1.1849  0.5804 -0.9827
13788SOL     OW47455  10.663   4.820   6.261 -0.2190  0.0363 -0.5111
13788SOL    HW147456  10.677   4.730   6.289 -0.1698  1.0404  3.2298
13788SOL    HW247457  10.568   4.830   6.258 -0.2288 -0.3827 -1.9512
13789SOL     OW47458   6.196   2.741   0.931 -0.0285  0.1296  0.4031
13789SOL    HW147459   6.250   2.696   0.996  1.3896  2.4117  0.9530
13789SOL    HW247460   6.258   2.795   0.882 -1.3129 -0.2087 -1.7338
13790SOL     OW47461   6.416   1.132   0.217 -0.2809 -0.0791  0.4674
13790SOL    HW147462   6.421   1.059   0.155  0.2086 -0.7294  1.2372
13790SOL    HW247463   6.478   1.196   0.184  0.9648 -0.9840  0.9694
13791SOL     OW47464   0.818   7.482   0.028  0.6369  0.0722  0.6739
13791SOL    HW147465   0.830   7.523  -0.057 -0.7326 -0.5562  0.1522
13791SOL    HW247466   0.760   7.542   0.075  0.2872 -0.2495  0.6566
13792SOL     OW47467   2.040   2.847   9.679 -0.2383 -0.3603 -0.1114
13792SOL    HW147468   1.963   2.811   9.724 -1.1773 -0.3184 -1.5955
13792SOL    HW247469   2.036   2.941   9.697  0.7788 -0.6183  1.6715
13793SOL     OW47470   9.390   1.384   5.032  0.3247 -0.2625 -0.2742
13793SOL    HW147471   9.296   1.364   5.030  0.6227 -1.8842 -2.5615
13793SOL    HW247472   9.402   1.450   4.964  0.6120  1.4616  1.3849
13794SOL     OW47473   1.213   3.883   1.545 -0.3172 -0.0477 -0.7423
13794SOL    HW147474   1.174   3.796   1.535 -0.8096 -0.0629  0.9299
13794SOL    HW247475   1.285   3.870   1.607 -1.5000  0.9943  0.9192
13795SOL     OW47476   3.555   2.730   6.398  0.4118 -0.6578 -0.4326
13795SOL    HW147477   3.543   2.725   6.303  0.5710 -0.2259 -0.4804
13795SOL    HW247478   3.605   2.651   6.420 -0.5119 -1.2930 -0.5558
13796SOL     OW47479   2.294   8.725   8.553 -0.1759 -0.2759  0.4583
13796SOL    HW147480   2.288   8.808   8.506  1.2200 -0.3033  0.1913
13796SOL    HW247481   2.208   8.714   8.593 -0.8998  0.5111 -0.8099
13797SOL     OW47482   3.313   8.713   1.727  0.0198 -0.2549  0.4186
13797SOL    HW147483   3.362   8.697   1.808  0.9809 -0.7895 -0.2412
13797SOL    HW247484   3.320   8.630   1.679  3.1848  1.2724 -2.1053
13798SOL     OW47485   6.997   1.423  10.462 -0.5170  0.3256  0.3907
13798SOL    HW147486   7.005   1.390  10.551 -1.7213 -0.7046  0.1304
13798SOL    HW247487   7.088   1.432  10.432 -0.1307 -0.7007  1.2096
13799SOL     OW47488  10.668   6.963   9.886  0.4992  0.0443 -0.8535
13799SOL    HW147489  10.644   6.988   9.976  0.3893 -0.2772 -0.7936
13799SOL    HW247490  10.651   7.042   9.834 -3.3958 -0.9225 -1.3336
13800SOL     OW47491   2.662   9.445   1.905 -0.0203 -0.1859  0.1503
13800SOL    HW147492   2.707   9.528   1.888 -0.4519 -0.3391 -2.0679
13800SOL    HW247493   2.575   9.471   1.936  0.1206  0.1823  0.2379
13801SOL     OW47494   1.577   6.854   7.731 -0.2884  0.1284 -0.4963
13801SOL    HW147495   1.517   6.837   7.658 -1.3570 -1.1563  0.6253
13801SOL    HW247496   1.664   6.833   7.697 -0.7680 -0.4771 -1.3844
13802SOL     OW47497   9.512   9.061   1.175 -0.2668  0.3173  0.3714
13802SOL    HW147498   9.474   9.139   1.133 -0.2691  0.2061  0.1613
13802SOL    HW247499   9.570   9.096   1.243 -0.7257  0.4881  0.6790
13803SOL     OW47500   1.246  10.049   2.869 -0.3079 -0.0969  0.0163
13803SOL    HW147501   1.166  10.000   2.886 -1.5975  1.7064 -0.5435
13803SOL    HW247502   1.239  10.074   2.777  0.7586  0.3165  0.0386
13804SOL     OW47503   4.419   9.695   9.574  0.1401 -0.0573  0.2977
13804SOL    HW147504   4.410   9.776   9.524  1.0010  0.0528  0.2948
13804SOL    HW247505   4.395   9.626   9.513  2.5670 -0.0415 -0.7934
13805SOL     OW47506   5.047   3.236   7.561 -0.0377  0.4222  0.0565
13805SOL    HW147507   5.023   3.143   7.554  0.8497  0.2403 -0.7913
13805SOL    HW247508   5.130   3.243   7.514 -0.5666  1.8255 -0.7487
13806SOL     OW47509   6.298   6.574   7.845 -0.1215  0.0089  0.2600
13806SOL    HW147510   6.314   6.553   7.753  1.4264 -0.6554  0.6573
13806SOL    HW247511   6.267   6.665   7.844  1.6175  0.6460 -0.8118
13807SOL     OW47512   5.326   0.937   4.121 -0.2186 -0.2251  0.6315
13807SOL    HW147513   5.251   0.979   4.077  0.2035 -1.8362 -1.8526
13807SOL    HW247514   5.288   0.864   4.170 -0.3516 -0.8248 -0.3390
13808SOL     OW47515   6.732   1.191   0.330  0.2181 -0.5356  0.4772
13808SOL    HW147516   6.677   1.267   0.312  0.3791 -0.7137 -0.9110
13808SOL    HW247517   6.683   1.139   0.393 -1.2972 -0.7800 -0.8587
13809SOL     OW47518   8.927   3.640   7.517  0.6283  0.3224 -0.0522
13809SOL    HW147519   8.922   3.604   7.605 -1.0541  0.6148  0.0053
13809SOL    HW247520   8.852   3.602   7.471  2.5292 -1.3908 -2.0001
13810SOL     OW47521   6.934   9.921  10.889 -0.0176  0.2880  0.0522
13810SOL    HW147522   6.957  10.010  10.862  0.7690  0.3947  1.0140
13810SOL    HW247523   7.018   9.876  10.895 -0.4216 -0.5511 -0.5107
13811SOL     OW47524   2.845   0.627   9.675  0.1951 -0.2080  0.2797
13811SOL    HW147525   2.841   0.588   9.762 -0.5086 -0.1197  0.2899
13811SOL    HW247526   2.778   0.696   9.676  0.5137  0.1179 -0.1713
13812SOL     OW47527   8.054  10.833  10.528  0.2672  0.8062  0.4370
13812SOL    HW147528   8.006  10.899  10.578  0.8970  1.2682  0.4345
13812SOL    HW247529   8.119  10.799  10.590 -1.0818 -0.9820  0.9626
13813SOL     OW47530   3.727   0.635   7.669  0.2279 -0.1764  0.0051
13813SOL    HW147531   3.652   0.585   7.700  1.9631 -2.0777  1.3731
13813SOL    HW247532   3.736   0.706   7.732  1.4562 -1.8366  1.7994
13814SOL     OW47533   2.290   6.800   2.527  0.0104 -0.0184  0.0871
13814SOL    HW147534   2.229   6.751   2.472 -1.4232 -1.0005  2.3825
13814SOL    HW247535   2.377   6.769   2.502 -0.7358 -2.1267 -0.0269
13815SOL     OW47536   6.404   2.382   3.213  0.5529 -0.7375 -0.6493
13815SOL    HW147537   6.446   2.359   3.296  0.3601 -1.5611 -0.7732
13815SOL    HW247538   6.475   2.416   3.159  0.8730 -1.1546 -0.5016
13816SOL     OW47539   2.757   0.650   5.511  0.2754  0.0697  0.3661
13816SOL    HW147540   2.815   0.660   5.435  1.0778 -1.2211  0.7945
13816SOL    HW247541   2.683   0.709   5.492  2.1998  2.6367  0.3244
13817SOL     OW47542   7.211   9.268   3.932 -0.3401  0.1890 -0.6922
13817SOL    HW147543   7.240   9.351   3.893 -1.6124  1.3866  0.7739
13817SOL    HW247544   7.166   9.294   4.012 -1.3559 -1.8934 -0.5304
13818SOL     OW47545   7.907   7.378   4.419  0.2774 -0.4522  0.3443
13818SOL    HW147546   7.852   7.430   4.477 -0.0226 -1.0767  0.6364
13818SOL    HW247547   7.962   7.441   4.374 -1.1429  0.2631 -0.4570
13819SOL     OW47548   9.312   7.329   7.323 -0.0311  0.2574  0.0851
13819SOL    HW147549   9.283   7.414   7.291 -1.1686 -1.1819 -3.0852
13819SOL    HW247550   9.407   7.338   7.333 -0.3010  2.3014  1.4461
13820SOL     OW47551   1.672   4.706   3.708  0.1562  0.4570  0.5620
13820SOL    HW147552   1.697   4.793   3.677 -1.4354  1.0641  0.8901
13820SOL    HW247553   1.620   4.722   3.786 -1.0837 -0.7225  0.0205
13821SOL     OW47554   6.140  10.878   3.161  0.3002  0.1022 -0.4979
13821SOL    HW147555   6.106  10.946   3.219 -0.2665 -0.5673 -0.0327
13821SOL    HW247556   6.068  10.815   3.153  0.4212  0.1098 -1.8204
13822SOL     OW47557   3.383   7.560   5.727  0.0556 -0.3014 -0.3621
13822SOL    HW147558   3.367   7.650   5.754  1.4345 -0.0307 -0.3529
13822SOL    HW247559   3.457   7.566   5.667  0.1806 -1.4328 -0.3461
13823SOL     OW47560   0.589   7.018   9.242 -0.0941 -0.0846  0.2190
13823SOL    HW147561   0.531   7.004   9.167 -1.0092 -0.0603  0.9033
13823SOL    HW247562   0.658   6.953   9.231 -1.3678 -1.5338  0.4685
13824SOL     OW47563   0.974   8.346   7.213  0.6491 -0.4123 -0.1610
13824SOL    HW147564   0.971   8.357   7.308  1.5076  0.7718 -0.2495
13824SOL    HW247565   1.051   8.292   7.197  1.2493  0.4552 -0.2527
13825SOL     OW47566   1.270   9.289   0.111 -0.0953 -0.4838  0.2017
13825SOL    HW147567   1.324   9.367   0.117 -2.1632  0.9818  0.8051
13825SOL    HW247568   1.216   9.290   0.191 -2.9209 -0.3072 -1.5575
13826SOL     OW47569   1.536   7.536   4.568 -0.0340 -0.4638  0.3877
13826SOL    HW147570   1.628   7.560   4.577 -0.0908  0.1990 -0.5977
13826SOL    HW247571   1.536   7.464   4.504 -0.3416  0.9885 -1.3393
13827SOL     OW47572   2.402   5.613  10.654  0.8447 -0.4025 -0.0355
13827SOL    HW147573   2.421   5.694  10.607  1.0195 -0.9743 -0.9617
13827SOL    HW247574   2.312   5.624  10.686 -0.2789 -1.0296 -2.7400
13828SOL     OW47575  10.231   7.649   9.996  0.0281 -0.1811  0.6739
13828SOL    HW147576  10.248   7.741   9.977 -1.2616 -0.2882 -1.3456
13828SOL    HW247577  10.273   7.633  10.081  1.8988  1.7521  0.1828
13829SOL     OW47578   6.469   9.310  10.372  0.2060  0.6228 -0.5131
13829SOL    HW147579   6.447   9.225  10.411 -0.1844  0.9040 -0.1115
13829SOL    HW247580   6.564   9.309  10.364  0.2532  0.3745  0.0216
13830SOL     OW47581   2.952   3.691   0.715 -0.1114  0.4815  0.6885
13830SOL    HW147582   2.960   3.758   0.647 -0.1220 -0.7245 -0.5337
13830SOL    HW247583   2.860   3.692   0.740 -0.3607  0.0811 -0.2091
13831SOL     OW47584   8.797   0.183   8.030 -0.0982  0.0514 -0.5837
13831SOL    HW147585   8.824   0.125   8.101  1.8826  0.2908 -1.0633
13831SOL    HW247586   8.743   0.128   7.973 -1.9328 -0.0665  1.1730
13832SOL     OW47587   3.056   6.604   5.947  0.4126  0.6887  0.2151
13832SOL    HW147588   3.080   6.628   5.858  0.5602 -1.3900 -0.3532
13832SOL    HW247589   3.012   6.519   5.938  0.2302  0.5414  2.0970
13833SOL     OW47590   2.189   6.582   2.355  0.9771 -0.0352  0.5762
13833SOL    HW147591   2.151   6.523   2.291  0.5708 -1.6304  2.1958
13833SOL    HW247592   2.132   6.574   2.432  1.7651  1.3534  1.3594
13834SOL     OW47593   0.260   3.848   5.837  0.0259  0.1411  0.0064
13834SOL    HW147594   0.343   3.862   5.791  0.0581 -0.2618 -0.0638
13834SOL    HW247595   0.233   3.935   5.865  0.8701  0.1909  0.7263
13835SOL     OW47596   8.627   8.245   6.181  0.0660 -0.4186 -0.0468
13835SOL    HW147597   8.635   8.272   6.089  0.1716 -0.1857  0.0296
13835SOL    HW247598   8.543   8.200   6.186  1.1385 -2.6485 -0.8053
13836SOL     OW47599   9.028   5.827   3.708 -0.0105  0.2319  0.1461
13836SOL    HW147600   9.035   5.837   3.614  2.1801  0.6598  0.3186
13836SOL    HW247601   9.027   5.732   3.723  0.1015  0.1673 -0.2688
13837SOL     OW47602   6.058  10.454   9.847  0.5194 -0.2167  0.1107
13837SOL    HW147603   6.011  10.371   9.845  0.0822  0.0173  0.3527
13837SOL    HW247604   6.139  10.438   9.799  0.0776 -0.5551 -0.5219
13838SOL     OW47605   3.252   8.823   5.804  0.2675  0.0940 -0.0753
13838SOL    HW147606   3.275   8.868   5.886 -0.1241 -0.6360  0.4471
13838SOL    HW247607   3.259   8.891   5.737  0.9514  0.6178  0.5063
13839SOL     OW47608   6.178   5.509   7.821  0.6474 -0.0405  0.2069
13839SOL    HW147609   6.220   5.581   7.775  0.3777 -0.2849 -0.4416
13839SOL    HW247610   6.238   5.435   7.809  1.0367  0.1286  1.0695
13840SOL     OW47611   2.551   9.988   4.472  0.0046 -0.6994 -0.2612
13840SOL    HW147612   2.542  10.030   4.387  1.0562  1.3955  0.5813
13840SOL    HW247613   2.620   9.922   4.459  0.1133 -0.4397 -1.0421
13841SOL     OW47614   0.703   5.682   6.148  0.0239  0.0130  0.2444
13841SOL    HW147615   0.751   5.627   6.087  0.6551 -0.8012  1.4348
13841SOL    HW247616   0.757   5.685   6.226 -2.3292 -1.9791  2.1335
13842SOL     OW47617   2.846   3.824  10.461  0.0853  0.0114  0.3114
13842SOL    HW147618   2.802   3.872  10.390  1.0366  0.3795 -0.0564
13842SOL    HW247619   2.822   3.733  10.446  0.3729  0.0663 -0.5747
13843SOL     OW47620   8.488   9.167   1.126 -0.2030 -0.1095  0.0809
13843SOL    HW147621   8.566   9.198   1.081  0.2132 -1.4025 -0.1386
13843SOL    HW247622   8.516   9.151   1.216 -0.3241 -0.1689  0.1086
13844SOL     OW47623   9.524   2.242   9.415 -0.0392  0.2735 -0.2236
13844SOL    HW147624   9.565   2.223   9.331  2.3381  2.1953  0.3881
13844SOL    HW247625   9.579   2.197   9.479 -0.6951  0.3960  0.4377
13845SOL     OW47626   1.030   1.933   1.239 -0.4583  0.1466  0.0561
13845SOL    HW147627   1.070   1.949   1.153 -0.8009  1.0993  0.0654
13845SOL    HW247628   0.944   1.974   1.234 -0.4551  0.2781  0.8778
13846SOL     OW47629   8.738   1.075  10.890  0.3504 -0.1688  0.4218
13846SOL    HW147630   8.795   1.149  10.869 -0.3512  0.7391  1.5641
13846SOL    HW247631   8.652   1.115  10.907 -0.0817 -1.2600  0.9208
13847SOL     OW47632  10.924   4.268   0.361  0.0863 -0.4039  0.0697
13847SOL    HW147633  10.951   4.340   0.418  0.5931  1.7892 -2.7473
13847SOL    HW247634  10.850   4.228   0.406  0.2169  1.4196  2.0588
13848SOL     OW47635   9.545   9.689   0.453 -0.3943  0.0542  0.1793
13848SOL    HW147636   9.537   9.784   0.461 -2.4015  0.1818 -2.1637
13848SOL    HW247637   9.542   9.672   0.358  1.2866 -2.2754  0.4380
13849SOL     OW47638   5.108   1.666   9.565  0.2238 -0.9263 -0.0647
13849SOL    HW147639   5.013   1.665   9.551 -0.1625 -1.1931  2.1264
13849SOL    HW247640   5.145   1.643   9.480 -1.6276  0.0046 -1.1999
13850SOL     OW47641   8.000   8.651   4.684  0.1791  0.1411 -0.0891
13850SOL    HW147642   7.991   8.742   4.655 -0.4905  0.8754  2.2076
13850SOL    HW247643   7.922   8.607   4.651  0.0790  0.6195 -0.4911
13851SOL     OW47644   8.464   2.667  10.320 -0.2034 -0.0839  0.2436
13851SOL    HW147645   8.549   2.648  10.361 -0.4073 -0.2630  0.5958
13851SOL    HW247646   8.409   2.696  10.393 -0.3552  0.3361 -0.0354
13852SOL     OW47647   2.453   5.099   3.965 -0.3713  0.0057  0.2064
13852SOL    HW147648   2.393   5.050   4.022 -1.2462  2.1838  1.2570
13852SOL    HW247649   2.443   5.190   3.992  2.2386  0.6502 -0.7112
13853SOL     OW47650   1.515   8.905  10.849 -0.3259 -0.0110  0.3699
13853SOL    HW147651   1.444   8.946  10.900 -1.6802 -1.6442 -0.1240
13853SOL    HW247652   1.568   8.860  10.914  0.0061  0.8084  0.6867
13854SOL     OW47653   3.654   4.539   4.545  0.0800 -0.1390  0.4800
13854SOL    HW147654   3.615   4.546   4.632 -1.8295  0.0225 -0.3497
13854SOL    HW247655   3.701   4.456   4.546 -1.5297 -1.0851  1.0712
13855SOL     OW47656   3.314   2.075   2.005 -0.3769  0.2427 -0.0063
13855SOL    HW147657   3.270   2.135   2.064  0.5332  0.1464  0.8021
13855SOL    HW247658   3.283   2.099   1.918 -2.9367 -0.6217  0.5804
13856SOL     OW47659   3.879   4.896   0.995 -0.7288 -0.4319  0.8606
13856SOL    HW147660   3.967   4.915   1.029 -0.9435  0.9960  0.6782
13856SOL    HW247661   3.832   4.860   1.070  0.4510 -2.8267  0.5487
13857SOL     OW47662   6.797   3.952   2.837 -0.5158 -0.3863  0.1189
13857SOL    HW147663   6.713   3.905   2.842 -0.5681 -0.3845 -0.7143
13857SOL    HW247664   6.776   4.033   2.791  0.1914 -0.9651 -1.2508
13858SOL     OW47665   8.003   8.297   2.941  1.0760  0.1464  0.2485
13858SOL    HW147666   7.935   8.237   2.970  1.4909 -0.9310 -0.9325
13858SOL    HW247667   7.996   8.298   2.846  2.0202  0.8562  0.1651
13859SOL     OW47668  10.695  10.593   8.232 -0.4338  0.0134  0.3589
13859SOL    HW147669  10.688  10.518   8.173 -1.3819 -0.1308  0.6494
13859SOL    HW247670  10.738  10.660   8.179  0.0023 -0.5732 -0.0492
13860SOL     OW47671   3.719   9.208   0.678 -0.6353  0.1113  0.4380
13860SOL    HW147672   3.648   9.143   0.679  0.2057 -0.8323  0.8734
13860SOL    HW247673   3.753   9.208   0.767  1.5226 -1.3192 -0.3092
13861SOL     OW47674   9.261   5.867   0.230  0.1605 -0.4399 -0.2872
13861SOL    HW147675   9.280   5.775   0.250  1.0412 -0.1194  0.4369
13861SOL    HW247676   9.168   5.877   0.247 -0.5166 -1.7754 -2.7191
13862SOL     OW47677   4.274   1.792   2.865 -0.4264  0.2071 -0.1521
13862SOL    HW147678   4.279   1.885   2.845  0.2090  0.1470 -0.2937
13862SOL    HW247679   4.331   1.781   2.941 -0.3788 -0.0952 -0.2323
13863SOL     OW47680   2.793   5.426   8.018  0.4607  0.3858  0.4972
13863SOL    HW147681   2.704   5.417   8.051 -0.8622 -0.1239 -2.8157
13863SOL    HW247682   2.832   5.340   8.033 -1.3004 -1.0324 -2.0983
13864SOL     OW47683   5.545   3.805   3.621 -0.4169  0.1642  0.5063
13864SOL    HW147684   5.533   3.877   3.684  0.6354  0.1788  0.7158
13864SOL    HW247685   5.476   3.743   3.643 -0.3935  0.4112  1.3409
13865SOL     OW47686   8.688  10.721   1.955  0.0717 -0.1468 -0.3655
13865SOL    HW147687   8.686  10.695   2.047  2.0321 -0.8207 -0.4626
13865SOL    HW247688   8.749  10.795   1.952 -2.0618  1.6897 -0.7704
13866SOL     OW47689   4.615   8.213   0.638  0.0530  0.2728 -0.4146
13866SOL    HW147690   4.699   8.232   0.679  0.5311 -2.8246  0.2866
13866SOL    HW247691   4.559   8.286   0.664  1.7862  1.0623  1.3579
13867SOL     OW47692   5.125   6.026   6.787 -0.2652 -0.0177 -0.1422
13867SOL    HW147693   5.047   6.028   6.841 -1.0724  1.7914 -1.2539
13867SOL    HW247694   5.196   6.051   6.846 -0.3268 -2.3809  1.0515
13868SOL     OW47695   0.090   0.031   8.745 -0.3157 -0.5300  0.4163
13868SOL    HW147696   0.108  -0.003   8.833 -0.6966  0.0551  0.7290
13868SOL    HW247697   0.036   0.109   8.760 -1.4083 -1.1087 -0.4005
13869SOL     OW47698   7.117   5.445  10.077 -0.2921 -0.4310 -0.1130
13869SOL    HW147699   7.210   5.447  10.099  0.2758  1.5578 -2.2683
13869SOL    HW247700   7.092   5.353  10.083  2.2955 -1.2879 -1.3204
13870SOL     OW47701   7.452  10.204   5.469 -0.0189  0.3381  0.8560
13870SOL    HW147702   7.508  10.130   5.445 -1.3197 -1.0722  1.9759
13870SOL    HW247703   7.375  10.164   5.509  0.0136  2.3435  3.1844
13871SOL     OW47704   6.673   7.821   9.449  0.9602 -0.1590  0.5007
13871SOL    HW147705   6.668   7.914   9.473 -0.7280 -0.5867  1.9809
13871SOL    HW247706   6.602   7.808   9.387  2.0045 -0.2285 -0.7316
13872SOL     OW47707   4.961   0.721   2.315 -0.1539  0.3599  0.1106
13872SOL    HW147708   4.920   0.769   2.387  1.0190 -1.7133  2.3092
13872SOL    HW247709   5.034   0.776   2.287  0.6757  0.3024  2.0167
13873SOL     OW47710   7.602   7.636   6.508 -0.4104 -0.4111  0.0124
13873SOL    HW147711   7.689   7.632   6.547 -0.0145  2.2153 -0.4347
13873SOL    HW247712   7.560   7.554   6.534  1.3401 -0.6843  2.2535
13874SOL     OW47713   6.841  10.585   7.563 -0.2162  0.1496 -0.5545
13874SOL    HW147714   6.874  10.673   7.543  0.4796 -0.2468 -1.1709
13874SOL    HW247715   6.886  10.528   7.502 -1.1854 -0.5598 -0.6300
13875SOL     OW47716   2.205  10.544  10.516  0.4973  0.4835  0.0645
13875SOL    HW147717   2.262  10.583  10.582 -0.5400  1.2213  0.5527
13875SOL    HW247718   2.119  10.585  10.530 -0.0086 -0.1246 -1.0574
13876SOL     OW47719   1.432   7.037   2.651 -0.1719 -0.4376 -0.2301
13876SOL    HW147720   1.498   7.097   2.686  0.6047 -1.7201  0.6149
13876SOL    HW247721   1.403   7.078   2.570  0.1721  1.1614  0.4130
13877SOL     OW47722  10.713   1.891   0.655 -0.3148 -0.6854 -0.4061
13877SOL    HW147723  10.755   1.974   0.681 -1.6166 -0.3322  0.7516
13877SOL    HW247724  10.681   1.907   0.566  1.3640 -0.7394 -1.0505
13878SOL     OW47725   1.687   1.830   7.728  0.2360 -0.2321 -0.1522
13878SOL    HW147726   1.671   1.865   7.816 -0.0253  0.4997 -0.4841
13878SOL    HW247727   1.729   1.902   7.681  0.0604 -0.5052 -0.7278
13879SOL     OW47728   1.811   5.773   4.912 -0.0830  0.5844 -0.1112
13879SOL    HW147729   1.833   5.786   4.820 -1.6217  1.4873 -0.3762
13879SOL    HW247730   1.780   5.858   4.942 -0.8617 -0.0253  0.8830
13880SOL     OW47731  10.338   8.080   0.384  0.3637 -0.3067 -0.5331
13880SOL    HW147732  10.373   8.099   0.471 -3.2327  2.1375  0.6413
13880SOL    HW247733  10.390   8.135   0.325  0.5542  0.8532  0.6557
13881SOL     OW47734  10.093   9.868   7.393  0.3163 -0.0981  0.4105
13881SOL    HW147735  10.111   9.896   7.483  0.4711  0.6023  0.1687
13881SOL    HW247736  10.117   9.775   7.391  1.6495  0.2229  0.7297
13882SOL     OW47737   3.881   7.570   5.698 -0.4464  0.1840  0.8866
13882SOL    HW147738   3.873   7.504   5.767  0.3972 -1.3765 -0.4360
13882SOL    HW247739   3.969   7.606   5.710 -0.5868  0.4644  1.0842
13883SOL     OW47740   7.847   6.125  10.070  0.4628  0.3513 -0.1174
13883SOL    HW147741   7.849   6.039  10.111  0.9481  0.2238 -0.4007
13883SOL    HW247742   7.928   6.130  10.019 -0.2726  0.3697 -1.3371
13884SOL     OW47743   6.184  10.839  10.000  0.1152  0.3269  0.2954
13884SOL    HW147744   6.201  10.871   9.912 -0.7804  1.7028  0.5785
13884SOL    HW247745   6.090  10.818  10.000  0.1582  0.1081  0.8460
13885SOL     OW47746  10.927   9.129   1.267 -0.1003  0.0074  0.1492
13885SOL    HW147747  10.957   9.185   1.338 -1.3578  0.1738  0.5830
13885SOL    HW247748  10.914   9.043   1.307  0.1374 -0.1500 -0.1083
13886SOL     OW47749   4.135   5.262   4.233 -0.0408  0.7208  0.0121
13886SOL    HW147750   4.080   5.184   4.241  1.0677 -0.0157  0.7164
13886SOL    HW247751   4.098   5.323   4.296 -0.0421  0.2159  0.5152
13887SOL     OW47752   5.327   7.036   1.114 -0.4341 -0.1596 -0.0662
13887SOL    HW147753   5.349   6.947   1.089 -3.4443 -1.3233  1.0081
13887SOL    HW247754   5.311   7.081   1.032  1.7660 -0.3132 -0.6584
13888SOL     OW47755   6.392   4.840   4.312 -0.7447  0.0862 -0.0432
13888SOL    HW147756   6.405   4.901   4.240 -0.7995  0.6417  0.4133
13888SOL    HW247757   6.298   4.841   4.328 -0.6174  0.7791  0.7320
13889SOL     OW47758   8.277   0.477   5.574  0.0978 -0.1317  0.3948
13889SOL    HW147759   8.308   0.402   5.624 -0.7473  1.2440  3.1906
13889SOL    HW247760   8.345   0.543   5.585 -0.0615  0.1810 -0.4062
13890SOL     OW47761   3.107  10.632   0.501  0.4535 -0.2485  0.1075
13890SOL    HW147762   3.065  10.591   0.425 -1.9857  1.4983  0.3911
13890SOL    HW247763   3.197  10.648   0.473  0.2605 -1.7329 -1.5399
13891SOL     OW47764   6.227   6.460   1.700  0.1485 -0.1141  0.4813
13891SOL    HW147765   6.261   6.407   1.627 -0.8595  0.3681 -0.3722
13891SOL    HW247766   6.228   6.401   1.775  0.5902 -0.8284 -0.0658
13892SOL     OW47767   5.108   9.802   9.059  0.5508  0.1908 -0.2479
13892SOL    HW147768   5.016   9.794   9.084  0.5183 -1.4767 -0.7907
13892SOL    HW247769   5.110   9.876   8.998 -0.7725 -0.8772 -1.6655
13893SOL     OW47770   3.644   4.935   3.069  0.3272 -0.5856  0.2229
13893SOL    HW147771   3.614   5.012   3.117 -1.4142 -0.2358 -1.3195
13893SOL    HW247772   3.570   4.875   3.071  0.2084 -0.5774 -1.9193
13894SOL     OW47773   0.870   1.218   5.854 -0.5192 -0.0305 -1.0621
13894SOL    HW147774   0.807   1.161   5.809  0.4395 -1.7029 -0.3874
13894SOL    HW247775   0.927   1.158   5.901 -0.1087  1.5605  0.5941
13895SOL     OW47776   1.306   4.374   9.140 -0.4516  0.6750 -0.1341
13895SOL    HW147777   1.345   4.298   9.182 -1.1791  0.2370 -0.2352
13895SOL    HW247778   1.224   4.388   9.188 -2.5214 -1.2777 -2.8018
13896SOL     OW47779   7.255   5.964   0.390  0.4749  0.6922 -0.1483
13896SOL    HW147780   7.165   5.981   0.417  0.0744  0.1099 -1.0531
13896SOL    HW247781   7.278   5.882   0.432 -0.1446 -0.2092 -1.5133
13897SOL     OW47782  10.742   8.502   9.436  0.1160 -0.3798  0.2509
13897SOL    HW147783  10.684   8.437   9.474 -0.2605 -0.3198 -0.2017
13897SOL    HW247784  10.819   8.452   9.408  0.0503 -0.5478  0.3683
13898SOL     OW47785   0.995   0.587   4.052 -0.1214  0.3854  0.2275
13898SOL    HW147786   1.027   0.497   4.056  1.6760  0.9364 -0.5459
13898SOL    HW247787   1.044   0.633   4.119 -2.8025  0.3752  2.3632
13899SOL     OW47788   8.222   2.777   8.172 -0.1096 -0.1211 -0.3731
13899SOL    HW147789   8.233   2.707   8.108 -0.6124 -0.9911  0.4669
13899SOL    HW247790   8.308   2.785   8.214  0.4472  0.9937 -1.6636
13900SOL     OW47791   4.850   4.368   4.187  0.1513  0.3483 -0.2789
13900SOL    HW147792   4.830   4.329   4.272  2.1204  0.7725  0.4183
13900SOL    HW247793   4.811   4.456   4.191  1.9787  1.1502  1.0403
13901SOL     OW47794   1.717   6.361  10.727  0.3445  0.5049 -0.1925
13901SOL    HW147795   1.643   6.414  10.756  1.6352  1.1139  2.2333
13901SOL    HW247796   1.758   6.413  10.659  0.1914  1.5104  0.4666
13902SOL     OW47797   5.870   1.491   5.704  0.8185  0.1974 -0.8067
13902SOL    HW147798   5.884   1.580   5.737  1.0580  0.0824 -0.5871
13902SOL    HW247799   5.939   1.440   5.747 -0.7073 -0.5456  0.9049
13903SOL     OW47800   6.585   9.624   2.466 -0.5146  0.4929  0.4510
13903SOL    HW147801   6.613   9.672   2.544 -0.0655 -0.2660  0.7714
13903SOL    HW247802   6.628   9.539   2.474 -0.3974  0.4374 -0.6750
13904SOL     OW47803   3.702   5.148   1.048  0.8062  0.4139  0.0653
13904SOL    HW147804   3.664   5.112   1.128  0.0652  0.4075 -0.2817
13904SOL    HW247805   3.752   5.076   1.010 -0.0791 -0.0584 -0.2506
13905SOL     OW47806   1.940   0.042   6.656  0.2102 -0.1406 -0.4809
13905SOL    HW147807   1.889   0.122   6.642 -0.4913 -0.4288  0.3280
13905SOL    HW247808   1.885  -0.028   6.622 -0.0400 -0.4768  0.5825
13906SOL     OW47809  10.331   8.498   2.034  0.0608  0.1035  0.0709
13906SOL    HW147810  10.295   8.586   2.024 -0.8754 -0.2516  0.1378
13906SOL    HW247811  10.349   8.469   1.945  1.9058  0.9434  0.1268
13907SOL     OW47812   2.239   5.049   3.490  0.5786  0.0699 -0.3029
13907SOL    HW147813   2.280   5.121   3.536 -0.1650 -0.0025  0.4992
13907SOL    HW247814   2.222   4.983   3.557 -0.4496 -0.0718 -0.6694
13908SOL     OW47815   5.662   0.230   0.987  0.0827 -0.1062  0.0148
13908SOL    HW147816   5.682   0.180   1.066  1.0001  1.8855  1.1235
13908SOL    HW247817   5.747   0.259   0.955 -0.3907  0.5152 -0.7164
13909SOL     OW47818   6.344   5.553   4.025 -0.0698 -0.5572  0.1661
13909SOL    HW147819   6.279   5.602   3.975 -1.8010 -3.1294 -0.2771
13909SOL    HW247820   6.410   5.527   3.960  1.2577  1.6307  0.5301
13910SOL     OW47821   9.572  10.056   0.194 -0.3163 -1.0859 -0.3177
13910SOL    HW147822   9.583  10.015   0.108  0.1970 -1.6419  0.0098
13910SOL    HW247823   9.543  10.145   0.174 -2.3935 -1.8611 -1.0202
13911SOL     OW47824   3.817  10.199   4.994  0.0793 -0.3492  0.1762
13911SOL    HW147825   3.767  10.280   5.008 -0.9361 -0.9402  0.0920
13911SOL    HW247826   3.858  10.181   5.078 -0.0376  0.0214  0.3141
13912SOL     OW47827   5.292   6.867   2.903  0.6623 -0.0580 -0.4076
13912SOL    HW147828   5.250   6.867   2.817  2.0860  1.4480 -1.1622
13912SOL    HW247829   5.251   6.794   2.950 -2.1359  0.7794 -1.3475
13913SOL     OW47830   2.977   4.885   9.076  0.2331  0.0552  0.1367
13913SOL    HW147831   2.888   4.869   9.045 -0.6964  0.5359  2.3251
13913SOL    HW247832   3.026   4.808   9.050 -0.8071 -0.2326 -1.0969
13914SOL     OW47833   4.142   6.827   9.448  0.1480 -0.0802 -0.3731
13914SOL    HW147834   4.197   6.832   9.526  0.5059 -0.5325 -0.5929
13914SOL    HW247835   4.139   6.917   9.415  1.3091 -0.1508 -0.7290
13915SOL     OW47836   7.208   0.086   5.215  0.0628 -0.0223 -0.5001
13915SOL    HW147837   7.233   0.107   5.305 -1.7540  0.5583 -0.1027
13915SOL    HW247838   7.168   0.166   5.182  0.2749 -0.3867 -1.6717
13916SOL     OW47839   9.360   4.521  10.846 -0.5339 -0.0464  0.5680
13916SOL    HW147840   9.388   4.429  10.841 -0.2545  0.0908 -0.5784
13916SOL    HW247841   9.270   4.516  10.878  0.3057 -0.5514  3.1866
13917SOL     OW47842   0.583   0.277  10.774 -0.2746  0.2425 -0.0733
13917SOL    HW147843   0.596   0.188  10.743  0.7514 -0.2582  1.6935
13917SOL    HW247844   0.491   0.297  10.753 -0.4644 -1.1323 -0.6362
13918SOL     OW47845   5.984   6.793   8.831  0.1823 -0.5381 -0.8070
13918SOL    HW147846   5.936   6.797   8.748  0.0521  0.6718 -0.6872
13918SOL    HW247847   6.072   6.824   8.810 -0.4678  2.0280 -0.0934
13919SOL     OW47848   1.743   8.911   9.187  0.5376 -0.1693 -0.1860
13919SOL    HW147849   1.735   8.962   9.107 -1.4567  1.5585  0.9908
13919SOL    HW247850   1.826   8.941   9.226  0.6183  0.3192 -0.7188
13920SOL     OW47851  10.242  10.110   1.738  0.1943  0.1357  0.0042
13920SOL    HW147852  10.173  10.044   1.751  0.3928 -0.2184 -0.6635
13920SOL    HW247853  10.317  10.077   1.787  0.4085 -0.3343 -0.6227
13921SOL     OW47854   2.048   7.445   8.310 -0.3074  0.1548 -0.5521
13921SOL    HW147855   2.019   7.374   8.368  0.1035  0.8917  0.5910
13921SOL    HW247856   2.073   7.401   8.229 -0.0326 -1.0094  0.1396
13922SOL     OW47857   1.441   2.299   5.655  0.2146  0.0824 -0.4335
13922SOL    HW147858   1.519   2.326   5.703 -1.4493  1.8423  1.4793
13922SOL    HW247859   1.432   2.206   5.673  0.8295  0.2591  0.8763
13923SOL     OW47860   1.646   8.227   7.513  0.0001 -0.6205 -0.1452
13923SOL    HW147861   1.682   8.258   7.430 -0.1162  2.5971  0.8456
13923SOL    HW247862   1.557   8.263   7.515 -0.5044 -1.8418  0.8066
13924SOL     OW47863  10.862   8.644   3.192 -0.1538  0.2123 -0.3304
13924SOL    HW147864  10.919   8.615   3.121 -1.9471  1.9856 -2.6418
13924SOL    HW247865  10.804   8.570   3.208  1.0037 -0.6174  0.1638
13925SOL     OW47866   6.309   4.822   9.315 -0.3392  0.4446 -0.4661
13925SOL    HW147867   6.369   4.807   9.243  0.0648 -0.9104  0.1337
13925SOL    HW247868   6.277   4.912   9.301  0.0271  0.3487 -2.0845
13926SOL     OW47869   3.041   1.364  10.217  0.1235 -0.1080  0.0102
13926SOL    HW147870   3.012   1.308  10.289  0.2474 -2.1726 -1.4435
13926SOL    HW247871   3.092   1.306  10.160  0.6702  1.6146 -1.3595
13927SOL     OW47872   0.855   4.685   0.723 -0.3149 -0.1009 -0.4647
13927SOL    HW147873   0.846   4.594   0.750 -0.0123 -0.4123 -1.3692
13927SOL    HW247874   0.904   4.681   0.641  0.0208  0.9047 -0.3296
13928SOL     OW47875   4.352   3.198   5.399  0.3074  0.2782 -0.0251
13928SOL    HW147876   4.356   3.104   5.382  1.5646  0.2183  0.4461
13928SOL    HW247877   4.443   3.222   5.420  0.0992  1.6932 -0.6441
13929SOL     OW47878   8.436   4.549   7.618  0.0803 -0.1465  0.2031
13929SOL    HW147879   8.404   4.514   7.534  0.8995 -1.7590  0.5198
13929SOL    HW247880   8.371   4.614   7.643 -1.6621 -1.6091 -0.3377
13930SOL     OW47881  10.122   5.045   7.141  0.1764  0.1315 -0.0200
13930SOL    HW147882  10.067   5.034   7.064 -0.4074  0.6584  0.3110
13930SOL    HW247883  10.124   4.959   7.182 -0.5588  0.1468  0.0601
13931SOL     OW47884   6.010   1.060   2.514 -0.2948  0.0903  0.3782
13931SOL    HW147885   6.051   1.008   2.583 -0.4946 -0.5457  0.0310
13931SOL    HW247886   6.001   0.999   2.441 -1.1449  0.4233  0.1852
13932SOL     OW47887   1.025   3.150   8.102  0.0031 -0.2475 -0.5373
13932SOL    HW147888   1.109   3.106   8.116  1.2740  1.5605 -1.9865
13932SOL    HW247889   0.973   3.088   8.051  1.0091 -0.8434 -0.8647
13933SOL     OW47890   0.111   4.799   0.802  0.4198 -0.3441  0.5216
13933SOL    HW147891   0.165   4.807   0.724 -1.5649 -2.1797 -1.1936
13933SOL    HW247892   0.116   4.884   0.845  4.0151 -0.2129  0.1397
13934SOL     OW47893   3.062  10.550   2.783 -0.9462 -0.0344 -0.2837
13934SOL    HW147894   3.012  10.484   2.831 -1.2626  1.9567  2.3423
13934SOL    HW247895   3.140  10.563   2.837  0.3745 -0.0653 -2.1243
13935SOL     OW47896   6.300   4.154   5.900 -0.4797 -0.3344 -0.1872
13935SOL    HW147897   6.286   4.231   5.955  2.6062  0.9480 -1.0188
13935SOL    HW247898   6.374   4.108   5.941  0.5529 -0.4581 -2.0861
13936SOL     OW47899   2.615   9.209   3.427  0.0349 -0.1475  0.3892
13936SOL    HW147900   2.533   9.255   3.442  0.6268  1.7858 -1.7524
13936SOL    HW247901   2.675   9.243   3.493  0.3008  1.8717 -0.8040
13937SOL     OW47902   4.131   7.935   1.920  0.6045  0.4540 -0.0452
13937SOL    HW147903   4.143   8.016   1.969  0.6801  0.3747  0.0678
13937SOL    HW247904   4.217   7.917   1.882  0.1098  1.5363 -1.8021
13938SOL     OW47905   3.968   0.657   1.614 -0.3706  0.4929  0.1814
13938SOL    HW147906   3.939   0.681   1.526  1.2373 -0.9648 -0.8153
13938SOL    HW247907   4.058   0.688   1.620  0.3128 -1.3769  0.4134
13939SOL     OW47908   7.161   7.209   6.801  0.0210 -0.5479  0.0123
13939SOL    HW147909   7.080   7.160   6.791  0.0867 -0.9392  1.2216
13939SOL    HW247910   7.190   7.190   6.890  1.6970 -0.8010 -0.5408
13940SOL     OW47911   5.453   6.116  10.892  0.0046  0.0617  0.5635
13940SOL    HW147912   5.513   6.172  10.940  0.1361 -0.9061  1.5675
13940SOL    HW247913   5.426   6.049  10.955 -1.0877 -0.3031 -0.2459
13941SOL     OW47914   8.199   7.101   1.963  0.2642 -0.5313 -0.0031
13941SOL    HW147915   8.116   7.057   1.982  0.6474 -1.8829 -1.2629
13941SOL    HW247916   8.200   7.108   1.868  1.5008 -0.3540  0.0180
13942SOL     OW47917  10.732   8.355   7.706  0.1903 -1.1765 -0.4341
13942SOL    HW147918  10.715   8.294   7.634  0.2096 -0.6790 -0.8600
13942SOL    HW247919  10.706   8.306   7.784 -2.2649 -0.8558 -0.9523
13943SOL     OW47920   1.075   6.622   6.649  0.0934  0.1013  0.7079
13943SOL    HW147921   1.054   6.707   6.688 -0.4631 -0.3808  1.5031
13943SOL    HW247922   0.990   6.585   6.625  0.3819  0.0702 -0.3009
13944SOL     OW47923   3.387   4.735   1.820 -0.0487  0.1480 -0.2022
13944SOL    HW147924   3.437   4.654   1.834 -1.0532 -0.4453  0.0835
13944SOL    HW247925   3.314   4.708   1.764 -1.5055  0.4075  1.4771
13945SOL     OW47926   5.905   7.594   0.017 -0.4130  0.3273 -0.4392
13945SOL    HW147927   5.917   7.607  -0.077  2.1146 -0.5002 -0.3059
13945SOL    HW247928   5.991   7.611   0.055 -0.6457 -2.0928  1.3993
13946SOL     OW47929   6.862   8.192   1.099  0.0192  0.4317 -0.3937
13946SOL    HW147930   6.945   8.146   1.103 -0.1527  0.1448 -0.0560
13946SOL    HW247931   6.836   8.204   1.191  0.4843  1.9833 -0.4422
13947SOL     OW47932   6.089   6.823   9.663  0.0452  0.2458 -0.1698
13947SOL    HW147933   6.160   6.872   9.703 -0.3480 -0.1084  1.0043
13947SOL    HW247934   6.009   6.867   9.693 -0.2707 -0.3751 -0.0794
13948SOL     OW47935   4.112   0.595   5.433 -0.1959  0.4286 -0.0768
13948SOL    HW147936   4.120   0.516   5.485  0.0891 -0.8164 -1.9051
13948SOL    HW247937   4.043   0.575   5.369 -4.4696  3.7582  2.8703
13949SOL     OW47938   1.444   6.613   8.251 -0.0129  0.3470 -0.1742
13949SOL    HW147939   1.394   6.553   8.306  0.1776  1.1310  0.8900
13949SOL    HW247940   1.466   6.685   8.309 -0.4307  1.5667 -1.4827
13950SOL     OW47941   7.148   2.041   3.812 -0.4554 -0.4727  0.2070
13950SOL    HW147942   7.149   2.137   3.808  0.8358 -0.5070 -1.3140
13950SOL    HW247943   7.205   2.020   3.886 -0.8267 -0.0783  0.6144
13951SOL     OW47944   8.955  10.768   5.396  0.0534  0.4334  0.4248
13951SOL    HW147945   8.890  10.831   5.366  0.4195  0.4731 -0.3093
13951SOL    HW247946   9.011  10.753   5.319 -0.1689 -0.9614  0.5209
13952SOL     OW47947   1.514   6.056   7.484  0.6793  0.0533  0.2060
13952SOL    HW147948   1.596   6.029   7.444  0.4354  1.2803 -1.1907
13952SOL    HW247949   1.536   6.135   7.534  0.3432  0.4741 -0.2940
13953SOL     OW47950   5.891   3.420   1.683  0.2110 -0.8433  0.1131
13953SOL    HW147951   5.933   3.506   1.686 -1.2126 -0.0521 -0.9498
13953SOL    HW247952   5.869   3.400   1.774  1.1715 -0.4165  0.4488
13954SOL     OW47953   1.418   1.114   4.747  0.0222  0.0089  0.0163
13954SOL    HW147954   1.335   1.067   4.743 -0.7087  0.9562  2.1875
13954SOL    HW247955   1.443   1.112   4.840  2.2853  0.0232 -0.5219
13955SOL     OW47956   2.237   1.360   5.740  0.4122 -0.0382  0.3252
13955SOL    HW147957   2.269   1.416   5.811 -0.0460 -1.7482  1.9883
13955SOL    HW247958   2.146   1.386   5.727  1.2098  2.1137 -1.6184
13956SOL     OW47959   9.922   6.852   6.262  0.2363 -0.4651  0.4773
13956SOL    HW147960   9.853   6.892   6.209  2.1793  2.1586 -0.2659
13956SOL    HW247961   9.958   6.782   6.206  1.0956  1.1289 -1.0603
13957SOL     OW47962   8.430   9.483   2.292  0.0024  0.0860  0.6780
13957SOL    HW147963   8.447   9.403   2.341  0.1239  0.6150  1.5207
13957SOL    HW247964   8.516   9.509   2.258  0.1559  0.4292  1.3093
13958SOL     OW47965   8.184   6.191   5.083  1.0423 -0.3031  0.3956
13958SOL    HW147966   8.109   6.238   5.118 -0.4616 -2.2104 -0.0887
13958SOL    HW247967   8.219   6.142   5.158  1.3404 -0.0158  0.4480
13959SOL     OW47968   7.259   3.766   5.242 -0.4863 -0.1137 -0.3197
13959SOL    HW147969   7.270   3.671   5.237  1.8094  0.0826 -0.2918
13959SOL    HW247970   7.258   3.785   5.336 -0.1655 -0.0516 -0.3278
13960SOL     OW47971   5.551   9.638   0.729  0.6887 -0.5472  0.4460
13960SOL    HW147972   5.640   9.612   0.752  0.9210 -0.3717 -0.2322
13960SOL    HW247973   5.553   9.734   0.728  1.0015 -0.5436 -1.4246
13961SOL     OW47974   1.892   7.756   5.341  0.4247 -0.6442 -0.4135
13961SOL    HW147975   1.952   7.797   5.279 -1.9257  2.2901 -0.9780
13961SOL    HW247976   1.865   7.674   5.299  2.6163 -1.1778 -0.8946
13962SOL     OW47977   9.430   4.111   2.929  0.7262 -0.1434  0.5625
13962SOL    HW147978   9.365   4.167   2.972  0.6743  1.2287 -1.2226
13962SOL    HW247979   9.407   4.022   2.958 -3.0352  0.0605 -1.2598
13963SOL     OW47980   1.242   1.291   8.254  0.2460  0.1663 -0.5526
13963SOL    HW147981   1.180   1.269   8.323 -0.4195 -0.0142 -1.1937
13963SOL    HW247982   1.210   1.374   8.219  0.2190 -0.0572 -1.0585
13964SOL     OW47983   7.520   4.437   5.488 -0.7949  0.1525  0.3745
13964SOL    HW147984   7.504   4.511   5.547 -1.6030 -0.0380  0.4079
13964SOL    HW247985   7.433   4.404   5.467 -0.4571 -0.5799  0.0834
13965SOL     OW47986   3.613   1.935   3.872  0.0433 -0.0346  0.2543
13965SOL    HW147987   3.573   1.852   3.896  0.2267 -0.1737  0.0770
13965SOL    HW247988   3.572   1.999   3.930 -0.1603 -0.2349  0.3309
13966SOL     OW47989   3.953   7.278   4.368 -0.1326  0.0460  0.2167
13966SOL    HW147990   3.864   7.241   4.369 -1.0282  2.0328 -0.1848
13966SOL    HW247991   3.968   7.307   4.458 -0.2168  0.3769  0.1284
13967SOL     OW47992   9.336   0.316   6.966 -0.2595  0.3786 -0.0074
13967SOL    HW147993   9.330   0.230   6.926  1.5209  0.7018 -1.0601
13967SOL    HW247994   9.306   0.376   6.898 -3.0007  0.5797  1.2156
13968SOL     OW47995   2.097   2.938  10.719  0.5125 -0.7237 -0.0144
13968SOL    HW147996   2.060   2.994  10.651  1.2724  0.0086  0.1590
13968SOL    HW247997   2.047   2.960  10.798 -1.1304 -2.3720 -0.5234
13969SOL     OW47998   1.495   4.419   1.544  0.2455  0.8085  0.6175
13969SOL    HW147999   1.567   4.390   1.600 -0.7970 -1.0624  1.0631
13969SOL    HW248000   1.453   4.489   1.594  0.6144  0.6167  1.2085
13970SOL     OW48001   0.887   4.269   6.714 -0.0072  0.8764 -0.2219
13970SOL    HW148002   0.956   4.219   6.757  0.5408 -0.2989 -2.3487
13970SOL    HW248003   0.806   4.229   6.746  0.3911 -0.1055 -0.3850
13971SOL     OW48004   7.890   8.725   6.582  0.0137 -0.2548  0.1595
13971SOL    HW148005   7.872   8.697   6.493 -1.6042  0.4884  0.2261
13971SOL    HW248006   7.965   8.785   6.573 -1.5416  1.6345 -1.0547
13972SOL     OW48007   8.631   8.032   1.053 -0.3010  0.1436  0.2857
13972SOL    HW148008   8.674   7.963   1.003  2.2819  0.3321  2.0553
13972SOL    HW248009   8.577   7.986   1.116 -0.7671 -0.1700 -0.3350
13973SOL     OW48010   4.375   0.101   6.538 -0.4322 -0.1735  0.6469
13973SOL    HW148011   4.384   0.116   6.444  2.8867  5.3229  1.4028
13973SOL    HW248012   4.283   0.122   6.557 -0.6412  0.7536 -1.1779
13974SOL     OW48013   5.085   7.428   3.607 -0.2349  0.1563  0.0199
13974SOL    HW148014   5.086   7.434   3.512 -1.0799  1.2993  0.0552
13974SOL    HW248015   5.143   7.499   3.636 -0.6484  0.3642  0.3595
13975SOL     OW48016   6.341   2.255   4.531 -0.0197  0.4508  0.1205
13975SOL    HW148017   6.355   2.318   4.602  0.3963  0.9900 -0.4339
13975SOL    HW248018   6.312   2.175   4.576  1.5940  0.3321  1.0344
13976SOL     OW48019   1.700   8.318   4.808  0.4054 -0.3570 -0.7883
13976SOL    HW148020   1.735   8.399   4.846 -1.7782  0.8343 -1.2005
13976SOL    HW248021   1.607   8.335   4.795 -0.2140 -3.0954 -0.5265
13977SOL     OW48022   7.501   8.618   8.733  0.9222 -0.2181  0.3348
13977SOL    HW148023   7.478   8.599   8.642 -1.5627 -0.2099  0.8999
13977SOL    HW248024   7.539   8.706   8.731 -1.8385  1.0691 -0.4075
13978SOL     OW48025  10.090   9.381   5.506  0.2926  0.3993 -0.1732
13978SOL    HW148026  10.149   9.379   5.581 -0.1196  0.4455  0.1582
13978SOL    HW248027  10.003   9.369   5.544  0.1664 -0.5864 -0.7464
13979SOL     OW48028   2.535   0.101  10.004  0.0566 -0.1043 -0.5520
13979SOL    HW148029   2.584   0.020   9.990  1.4804  0.8380 -1.3282
13979SOL    HW248030   2.602   0.164  10.031 -0.7045  1.2713 -1.7495
13980SOL     OW48031   4.229   6.870   0.446  0.5664  0.7673  0.5293
13980SOL    HW148032   4.187   6.868   0.532  0.0936  0.6211  0.2975
13980SOL    HW248033   4.175   6.814   0.391  0.1753  1.7936 -0.1728
13981SOL     OW48034   7.686   5.419   4.905 -0.1814  0.1842 -0.2282
13981SOL    HW148035   7.756   5.463   4.856 -1.3477  0.6693 -1.5396
13981SOL    HW248036   7.606   5.458   4.871 -1.1006 -0.3264  1.2721
13982SOL     OW48037   1.496   4.098   4.935  0.3188  0.4243 -0.1975
13982SOL    HW148038   1.503   4.059   5.022  0.5229  0.4670 -0.1936
13982SOL    HW248039   1.580   4.143   4.922  0.6514 -0.3309 -0.7822
13983SOL     OW48040   4.352   0.408   8.325  0.1950  0.0518  0.2336
13983SOL    HW148041   4.380   0.496   8.297 -0.9798 -0.7078 -3.9644
13983SOL    HW248042   4.417   0.349   8.288  0.2905 -0.9801  1.9578
13984SOL     OW48043   3.786   8.465   0.147  0.1401 -0.9870  0.2748
13984SOL    HW148044   3.838   8.389   0.176  0.2016 -0.8972  0.4035
13984SOL    HW248045   3.815   8.481   0.058  1.6296  0.1532  0.9181
13985SOL     OW48046   9.307   1.099   9.298 -0.0377 -0.7310 -0.4920
13985SOL    HW148047   9.344   1.091   9.386 -0.8198 -0.3227 -0.1098
13985SOL    HW248048   9.307   1.010   9.263 -0.6377 -1.0520  0.3069
13986SOL     OW48049   1.267   1.709  10.551  0.2587  0.2206  0.1981
13986SOL    HW148050   1.193   1.665  10.593  0.0568  0.4907  0.1336
13986SOL    HW248051   1.304   1.644  10.492 -0.1884  0.2127 -0.0793
13987SOL     OW48052   2.988   6.577   5.294  0.5441  0.1571 -0.2685
13987SOL    HW148053   3.073   6.617   5.276  0.4965  0.1663 -0.4693
13987SOL    HW248054   2.928   6.651   5.304  0.8875  0.2305  1.5874
13988SOL     OW48055   5.513   3.104   1.200 -0.4613  0.1526 -0.4041
13988SOL    HW148056   5.517   3.182   1.254 -0.4147  0.4060 -0.7707
13988SOL    HW248057   5.585   3.049   1.232  0.2068  0.7360 -0.8737
13989SOL     OW48058   8.995   9.383   3.238 -0.4464  0.0804 -0.2217
13989SOL    HW148059   9.085   9.411   3.253  0.0032 -1.9620  1.2521
13989SOL    HW248060   8.970   9.338   3.319 -2.6717  0.2481 -0.7483
13990SOL     OW48061   8.913  10.556   1.548  0.1136 -0.1902  0.5974
13990SOL    HW148062   8.914  10.460   1.548 -0.5562 -0.1969  0.3361
13990SOL    HW248063   9.000  10.580   1.516 -0.4046 -0.7219 -1.3551
13991SOL     OW48064   3.944   7.305   7.256 -0.0949  1.0605 -1.0664
13991SOL    HW148065   3.862   7.285   7.210 -0.7751 -2.0239  1.1765
13991SOL    HW248066   3.927   7.388   7.301 -0.3902  2.6624 -3.8723
13992SOL     OW48067   7.991   3.020   6.364 -0.2923  0.5154 -0.1575
13992SOL    HW148068   7.898   3.001   6.363 -0.2452  0.2321  0.3973
13992SOL    HW248069   8.017   3.008   6.455  0.3047  0.4971 -0.3244
13993SOL     OW48070   6.259   2.284   0.409  0.4538 -0.3823 -0.6898
13993SOL    HW148071   6.181   2.339   0.413  0.8651  0.1626  0.4152
13993SOL    HW248072   6.324   2.331   0.462  1.3838 -1.0463 -1.2144
13994SOL     OW48073   2.157   5.716   4.957 -0.2183  0.1994 -0.0290
13994SOL    HW148074   2.092   5.735   5.025 -0.3857 -0.7537  0.0875
13994SOL    HW248075   2.111   5.662   4.894  0.1162  0.5690 -0.6023
13995SOL     OW48076   6.018   9.971   7.432 -0.0242 -0.3219  0.2909
13995SOL    HW148077   6.105   9.992   7.397 -0.1113 -0.8574 -0.2686
13995SOL    HW248078   6.032   9.892   7.483 -0.1553 -0.3286  0.3158
13996SOL     OW48079  10.172   9.569   9.460 -0.6578 -0.3287  0.1731
13996SOL    HW148080  10.097   9.617   9.424  0.6945  2.5114  0.8937
13996SOL    HW248081  10.215   9.531   9.383 -0.6722  1.3591 -0.7275
13997SOL     OW48082   1.911   2.951   8.870 -0.4643 -0.0883  0.2135
13997SOL    HW148083   1.959   2.943   8.787 -0.1031 -1.7395  0.5504
13997SOL    HW248084   1.967   2.907   8.934 -1.0108  0.6659  1.2378
13998SOL     OW48085   9.015   0.582   7.326  0.4247 -0.0795  0.4538
13998SOL    HW148086   8.973   0.508   7.282 -1.3172  1.4905 -0.6753
13998SOL    HW248087   8.944   0.624   7.374  1.7268 -0.0720  2.5236
13999SOL     OW48088   6.953  10.243   2.810  0.1494  0.1478 -0.5778
13999SOL    HW148089   7.011  10.191   2.865  0.0613  1.3008  0.6643
13999SOL    HW248090   6.867  10.203   2.822  0.5091 -1.0643 -1.7873
14000SOL     OW48091   3.791  10.654   4.101  0.5359  0.6650  0.0521
14000SOL    HW148092   3.755  10.679   4.186  0.8090  0.9901  0.0729
14000SOL    HW248093   3.758  10.720   4.041 -0.0179  0.1848 -0.1788
14001SOL     OW48094  10.835   7.807   0.592  0.3667 -0.4385 -0.7172
14001SOL    HW148095  10.895   7.852   0.651 -0.1989  1.1830 -1.3077
14001SOL    HW248096  10.884   7.795   0.511  0.1585  0.2131 -0.9500
14002SOL     OW48097  10.545   1.571   7.269  0.5008 -0.1676  0.7012
14002SOL    HW148098  10.530   1.615   7.185 -0.6543  1.4413  1.7071
14002SOL    HW248099  10.641   1.570   7.278  0.6709 -0.9861 -0.9267
14003SOL     OW48100   8.430   8.401   9.538  0.4901 -0.5457  0.0898
14003SOL    HW148101   8.490   8.333   9.506  1.0450 -0.2569  0.5078
14003SOL    HW248102   8.449   8.477   9.484  0.1949 -0.5857 -0.0685
14004SOL     OW48103   1.569   8.104   5.026  0.4845 -0.1497 -0.6239
14004SOL    HW148104   1.597   8.195   5.022 -1.0361  0.4612  1.0783
14004SOL    HW248105   1.648   8.053   5.005  2.3415  1.4725  1.9046
14005SOL     OW48106   7.813   8.531   0.373 -0.3238 -0.0381 -0.7994
14005SOL    HW148107   7.770   8.573   0.298  0.6277 -2.2322 -2.7319
14005SOL    HW248108   7.788   8.439   0.366  0.4132 -0.4397  1.1900
14006SOL     OW48109   8.240   7.013   3.709  0.2424 -0.1473  0.4222
14006SOL    HW148110   8.152   7.040   3.734  0.8371  0.6613  1.7596
14006SOL    HW248111   8.266   6.950   3.777  1.3783  1.0414  1.1267
14007SOL     OW48112  10.602   8.003   0.459 -0.3873 -0.6194  0.4698
14007SOL    HW148113  10.629   7.918   0.424 -0.6666 -1.1185  1.4353
14007SOL    HW248114  10.540   7.982   0.528 -0.4316  0.3741  0.7509
14008SOL     OW48115   9.685   8.366   4.650 -0.4800 -0.0895  0.3474
14008SOL    HW148116   9.623   8.437   4.664 -1.1078 -0.7620  1.0476
14008SOL    HW248117   9.730   8.356   4.734 -1.6220 -1.6551  0.8268
14009SOL     OW48118   4.188   3.341   8.488 -0.1396  1.0484 -0.6069
14009SOL    HW148119   4.198   3.436   8.484 -1.4006  1.1783 -0.8786
14009SOL    HW248120   4.097   3.327   8.511  0.6792 -0.0661  2.5172
14010SOL     OW48121   0.562   3.573   1.550  0.3556 -0.4232 -0.4762
14010SOL    HW148122   0.506   3.646   1.576 -0.9058 -1.4650 -0.1950
14010SOL    HW248123   0.607   3.548   1.630  1.2777  0.4136 -0.7027
14011SOL     OW48124   4.859  10.782   9.347 -0.1009  1.3932 -0.0019
14011SOL    HW148125   4.911  10.844   9.296  0.9405  0.1894 -0.4429
14011SOL    HW248126   4.923  10.732   9.397 -0.8533  0.0908 -0.3090
14012SOL     OW48127   5.068   4.407   1.110  0.6834 -0.4887  0.6090
14012SOL    HW148128   5.138   4.342   1.105  0.2067 -0.9509 -0.5263
14012SOL    HW248129   5.114   4.491   1.114  1.3289 -0.7276 -1.0076
14013SOL     OW48130  10.447   3.452   1.683  0.1411 -0.6747 -0.7415
14013SOL    HW148131  10.383   3.480   1.617  0.3644  0.1626 -0.6181
14013SOL    HW248132  10.432   3.512   1.756  1.4300 -0.0953 -0.9238
14014SOL     OW48133   8.685   6.591  10.159 -0.2309  0.1246 -0.1242
14014SOL    HW148134   8.723   6.527  10.218 -0.1784  0.7710  0.5516
14014SOL    HW248135   8.590   6.582  10.171 -0.2788 -0.6323 -0.9077
14015SOL     OW48136   8.429   1.320   8.458 -0.6255 -0.1562 -0.3709
14015SOL    HW148137   8.405   1.406   8.492 -2.1052 -1.2322  1.4864
14015SOL    HW248138   8.370   1.259   8.503  0.8414 -2.2229 -1.1135
14016SOL     OW48139   8.907   1.954   2.687 -0.2849 -0.2880  0.6193
14016SOL    HW148140   8.960   1.883   2.652 -0.4785 -0.5447  0.8387
14016SOL    HW248141   8.970   2.018   2.719 -0.0775  0.4332 -1.1252
14017SOL     OW48142   3.290  10.193   0.627  0.0531 -0.5298 -0.1870
14017SOL    HW148143   3.305  10.247   0.704  1.0411  0.6663 -1.1675
14017SOL    HW248144   3.279  10.255   0.555  1.7691 -1.5768 -1.4513
14018SOL     OW48145   0.308   5.133   6.079 -0.5542 -0.0962 -0.0456
14018SOL    HW148146   0.321   5.223   6.047 -0.2140 -0.2079 -0.2287
14018SOL    HW248147   0.358   5.129   6.160  0.1687 -0.3829 -0.4984
14019SOL     OW48148   2.155   7.740   6.874 -0.3074  0.6046  0.2411
14019SOL    HW148149   2.098   7.681   6.923 -0.6689  0.4079 -0.4071
14019SOL    HW248150   2.105   7.821   6.867  0.1085  0.9353  0.9578
14020SOL     OW48151   0.883   1.840   8.681  0.1500  0.2559  0.3983
14020SOL    HW148152   0.966   1.889   8.681  1.4551 -1.8557 -0.0326
14020SOL    HW248153   0.823   1.896   8.731  1.8926  1.7089  0.9885
14021SOL     OW48154  10.215   5.004   9.989 -0.2764  0.5907 -0.8662
14021SOL    HW148155  10.295   4.994  10.040 -0.2722 -0.4997 -1.0782
14021SOL    HW248156  10.151   5.037  10.052 -0.8591 -2.7003  0.4698
14022SOL     OW48157   9.236   8.566  10.460  0.0636 -0.0238 -0.0483
14022SOL    HW148158   9.266   8.528  10.378  2.4708 -0.1012  0.8069
14022SOL    HW248159   9.295   8.639  10.477 -3.3943  3.2352 -0.7816
14023SOL     OW48160   7.842   1.575   5.374 -1.1291 -0.2694 -0.2236
14023SOL    HW148161   7.921   1.555   5.323 -2.2798 -1.1879 -1.7234
14023SOL    HW248162   7.820   1.665   5.350 -0.5421  0.0014  0.2237
14024SOL     OW48163   0.564   7.445   8.541 -0.3414  0.0430  0.6929
14024SOL    HW148164   0.518   7.361   8.541 -0.1023 -0.1525 -1.3482
14024SOL    HW248165   0.657   7.422   8.545 -0.2807  0.2174  0.3319
14025SOL     OW48166   0.996   1.569   7.538 -0.0300  0.2129 -0.2395
14025SOL    HW148167   0.913   1.603   7.503 -0.6399 -1.5153 -0.5911
14025SOL    HW248168   0.990   1.584   7.632 -0.1028  1.3805 -0.4144
14026SOL     OW48169   5.692   6.759  10.555 -0.6042  0.0951 -0.1289
14026SOL    HW148170   5.604   6.792  10.575 -0.7094 -0.5336  0.4852
14026SOL    HW248171   5.695   6.755  10.459 -2.6010 -3.3113 -0.2130
14027SOL     OW48172   0.322   6.908  10.310 -0.4398  0.2954  0.4147
14027SOL    HW148173   0.355   6.897  10.399 -0.5917  0.6727  0.5168
14027SOL    HW248174   0.249   6.969  10.318 -1.6470 -1.0756  0.2872
14028SOL     OW48175   8.669   7.989   4.562  0.0312  0.1673  0.5870
14028SOL    HW148176   8.667   7.946   4.647  0.1611  1.1023  1.0850
14028SOL    HW248177   8.585   8.036   4.556  0.8789  1.8538  1.1733
14029SOL     OW48178  10.680   6.615   5.517  0.1952  0.3199 -0.5264
14029SOL    HW148179  10.677   6.543   5.579  1.8185  1.1172  0.5344
14029SOL    HW248180  10.698   6.574   5.432  2.3114 -0.4565  0.2469
14030SOL     OW48181   8.203   2.235   6.464 -0.4405  0.2689  0.0834
14030SOL    HW148182   8.153   2.155   6.446  0.1219 -0.0057 -0.2834
14030SOL    HW248183   8.174   2.297   6.397  0.7644 -0.3639 -1.0673
14031SOL     OW48184  10.251   5.905   7.916  0.1164 -0.1355 -0.2427
14031SOL    HW148185  10.325   5.850   7.944  0.5861  0.2557 -0.6972
14031SOL    HW248186  10.292   5.987   7.888 -0.1020 -1.0681 -3.6898
14032SOL     OW48187   4.641   7.932   4.475  0.3692  0.3613  0.1581
14032SOL    HW148188   4.633   8.026   4.492 -1.1297  0.2858  0.0527
14032SOL    HW248189   4.566   7.893   4.519  2.2816 -1.1360  2.3254
14033SOL     OW48190   2.596   7.624   6.880  0.6887  0.0364 -0.4375
14033SOL    HW148191   2.526   7.654   6.938  1.7892 -2.1641  2.2170
14033SOL    HW248192   2.625   7.704   6.835 -0.0430  1.9862  2.2778
14034SOL     OW48193   8.231   1.411   7.873  0.0870  0.4806 -0.0244
14034SOL    HW148194   8.274   1.326   7.873 -0.2316  0.3122  0.7648
14034SOL    HW248195   8.302   1.474   7.859  0.3402  0.0938 -0.4676
14035SOL     OW48196   4.542   6.265  10.234  0.1724 -0.1656 -0.8134
14035SOL    HW148197   4.555   6.312  10.152  0.6094 -0.3071 -0.8281
14035SOL    HW248198   4.448   6.247  10.237  0.2300 -0.6149 -1.5332
14036SOL     OW48199   3.480   4.004   8.211  0.2359  0.1243 -0.2467
14036SOL    HW148200   3.480   4.091   8.171 -0.8514 -0.0193 -0.5875
14036SOL    HW248201   3.388   3.985   8.228  0.5997 -0.1604  1.6166
14037SOL     OW48202   4.455   5.611   6.959  0.2187 -0.4696  0.2533
14037SOL    HW148203   4.468   5.706   6.966 -0.7331 -0.1253 -1.8405
14037SOL    HW248204   4.383   5.602   6.897  1.2069 -2.6025 -0.6548
14038SOL     OW48205   8.460   8.104   3.325 -1.2255  0.7629  0.6169
14038SOL    HW148206   8.441   8.011   3.332 -1.9916  0.8591 -0.0197
14038SOL    HW248207   8.459   8.122   3.231  0.9535  1.0257  0.5752
14039SOL     OW48208   1.289   7.854   0.435  0.1315 -0.2769  0.2535
14039SOL    HW148209   1.382   7.847   0.454  1.3828 -0.4003 -4.5028
14039SOL    HW248210   1.278   7.943   0.402 -0.7387 -1.0444 -1.6949
14040SOL     OW48211   7.783  10.113   6.440 -0.3526 -0.8084 -1.1289
14040SOL    HW148212   7.859  10.124   6.383 -0.4318  1.2210 -0.9278
14040SOL    HW248213   7.799  10.032   6.487  0.3765 -1.8321 -3.0188
14041SOL     OW48214   4.020   7.230   5.229  0.7733  0.2081  0.2954
14041SOL    HW148215   3.938   7.195   5.196 -1.2789  3.3053  1.5684
14041SOL    HW248216   4.085   7.163   5.209 -1.8748 -2.0541 -1.5220
14042SOL     OW48217   9.865  10.582   4.513  0.1733  0.2120 -0.1458
14042SOL    HW148218   9.849  10.608   4.604 -0.3140 -1.0762  0.1650
14042SOL    HW248219   9.958  10.559   4.511  0.0170 -0.5093  0.2516
14043SOL     OW48220   4.754   4.090   8.657 -0.2410 -0.5493  0.3518
14043SOL    HW148221   4.703   4.019   8.694 -0.3851 -0.0822  1.0716
14043SOL    HW248222   4.746   4.079   8.563  0.5717 -2.0834  0.4262
14044SOL     OW48223   5.158   0.361   6.476 -0.1818 -0.5316  0.3297
14044SOL    HW148224   5.102   0.403   6.410 -1.0054  0.0984  1.3920
14044SOL    HW248225   5.097   0.314   6.532  0.6149 -2.0282 -0.0067
14045SOL     OW48226   7.797   2.433   4.703 -0.2618 -0.2168  0.4238
14045SOL    HW148227   7.847   2.351   4.696 -2.0450 -1.2064 -1.7923
14045SOL    HW248228   7.819   2.482   4.624  0.7329  1.4908  1.6945
14046SOL     OW48229  10.435  10.535   1.722 -0.1898  0.0536 -0.4314
14046SOL    HW148230  10.412  10.623   1.693  0.5374  0.6178  0.6218
14046SOL    HW248231  10.353  10.497   1.752 -0.9724 -0.5438 -3.0695
14047SOL     OW48232   7.596   8.900   3.344  0.8409 -0.5011 -0.5044
14047SOL    HW148233   7.508   8.882   3.310  0.5939 -0.2029 -0.0242
14047SOL    HW248234   7.617   8.822   3.396  1.4606 -1.2336 -1.7773
14048SOL     OW48235   2.128   5.578   6.072 -0.0340 -0.4948  0.4283
14048SOL    HW148236   2.183   5.574   6.150  0.2392  2.1104  0.4488
14048SOL    HW248237   2.044   5.609   6.103  0.2455  1.1468 -0.3191
14049SOL     OW48238   2.531   2.135   8.918  0.1289 -0.1648 -0.0055
14049SOL    HW148239   2.467   2.131   8.847 -1.0405 -0.9316  1.0263
14049SOL    HW248240   2.479   2.158   8.995  1.0653 -0.9554  0.8980
14050SOL     OW48241   3.521   6.593   5.508  0.5370 -0.7050 -0.3840
14050SOL    HW148242   3.481   6.548   5.433  0.3925  0.5191 -1.0752
14050SOL    HW248243   3.609   6.557   5.513  0.4399 -1.0421 -0.9407
14051SOL     OW48244   2.830   4.654   3.762 -0.0485 -0.0688 -0.6100
14051SOL    HW148245   2.866   4.683   3.678  0.8230 -1.3022 -0.6898
14051SOL    HW248246   2.784   4.731   3.796 -0.0296  0.5909 -1.9959
14052SOL     OW48247   3.724   3.904   6.301  0.0931  0.2273 -0.4853
14052SOL    HW148248   3.756   3.900   6.391  1.3465  0.3977 -0.9041
14052SOL    HW248249   3.680   3.989   6.296  0.3453  0.3840 -0.1255
14053SOL     OW48250   6.133   0.363   5.874  0.1954  0.3591 -0.3282
14053SOL    HW148251   6.059   0.304   5.890  1.5599 -2.0903 -2.3804
14053SOL    HW248252   6.197   0.339   5.940  0.6634 -0.3120 -1.0192
14054SOL     OW48253   2.878   9.608   8.083 -0.2007 -0.5533  0.1998
14054SOL    HW148254   2.812   9.543   8.109  0.6794 -1.3352  0.5548
14054SOL    HW248255   2.958   9.580   8.129  0.6717 -0.3265 -1.1244
14055SOL     OW48256   0.251   0.442   2.026 -0.4468 -0.3323 -0.3196
14055SOL    HW148257   0.319   0.466   1.963 -0.0269  0.1226  0.2920
14055SOL    HW248258   0.172   0.486   1.995  0.2988  1.8938  0.7670
14056SOL     OW48259   5.168   4.745  10.003 -0.8239 -0.3285 -0.2998
14056SOL    HW148260   5.205   4.805  10.068  0.1863 -0.6163 -0.5937
14056SOL    HW248261   5.219   4.664  10.013 -1.4883 -0.7914 -0.6075
14057SOL     OW48262   8.523   2.560   7.507 -0.3502  0.2209  0.0942
14057SOL    HW148263   8.601   2.513   7.536 -0.9756 -0.4209  0.7855
14057SOL    HW248264   8.474   2.496   7.455  0.8856  1.4259 -2.7729
14058SOL     OW48265   7.813  10.311   5.968 -0.4391 -0.5642 -0.4453
14058SOL    HW148266   7.905  10.310   5.995 -0.3991 -0.3819 -0.5712
14058SOL    HW248267   7.789  10.404   5.969 -0.6168 -0.6096 -0.4282
14059SOL     OW48268   5.268   3.003   2.444  0.0024 -0.0476  0.0784
14059SOL    HW148269   5.210   3.076   2.423 -1.0833 -0.5690  1.1481
14059SOL    HW248270   5.309   2.980   2.361 -0.4439  1.0798 -0.4726
14060SOL     OW48271   9.108   6.933   1.157  0.4599  0.1063 -0.0544
14060SOL    HW148272   9.069   7.009   1.200 -1.5204  0.7911 -2.7884
14060SOL    HW248273   9.128   6.873   1.229 -0.9898  1.8456  1.9468
14061SOL     OW48274   1.004   8.274   2.542 -0.3218 -0.1333  0.1335
14061SOL    HW148275   0.965   8.355   2.510 -0.6399 -0.4612 -0.3267
14061SOL    HW248276   1.008   8.285   2.637 -1.5282 -0.0758  0.1948
14062SOL     OW48277   9.127   3.079   8.598 -0.2773 -0.3130  0.0113
14062SOL    HW148278   9.105   3.171   8.592 -1.4247 -0.5603  0.2458
14062SOL    HW248279   9.079   3.038   8.526 -1.5121 -1.0150  1.1872
14063SOL     OW48280  10.059   6.321   9.513  0.6664  0.3349 -0.1345
14063SOL    HW148281  10.004   6.253   9.473  0.6521  0.1039  0.2763
14063SOL    HW248282  10.028   6.403   9.474  1.2214  0.0396 -1.2394
14064SOL     OW48283   6.075   1.136   4.872 -0.6803  0.3023 -0.0234
14064SOL    HW148284   6.041   1.090   4.949 -1.7502 -0.5129 -0.9584
14064SOL    HW248285   6.162   1.100   4.859  0.0206  1.3247  1.5009
14065SOL     OW48286  10.113   8.689   4.237 -0.5936  0.3087 -0.2391
14065SOL    HW148287  10.178   8.702   4.169 -2.0349  0.6534 -1.6064
14065SOL    HW248288  10.147   8.617   4.290  0.1617 -0.5471 -1.8363
14066SOL     OW48289   1.341   6.805   7.950  0.3679 -0.0699  0.0200
14066SOL    HW148290   1.398   6.829   7.877 -0.5123  2.3740  0.0343
14066SOL    HW248291   1.253   6.806   7.913  0.0813 -1.0730  0.6301
14067SOL     OW48292   6.757  10.066   3.321 -0.6134  0.5266  0.0301
14067SOL    HW148293   6.684  10.083   3.381 -0.4047 -0.2331  0.5091
14067SOL    HW248294   6.744   9.976   3.292 -0.0635  0.5078 -0.1683
14068SOL     OW48295   1.777   9.962   7.832 -0.8726  0.1747 -0.1908
14068SOL    HW148296   1.728   9.893   7.787  1.0282 -0.0691 -2.0491
14068SOL    HW248297   1.867   9.950   7.802  0.0689  1.5324  1.9146
14069SOL     OW48298   7.314   0.191   5.463 -0.0743 -0.0221 -0.5815
14069SOL    HW148299   7.282   0.193   5.553  3.5757 -1.0608  0.9219
14069SOL    HW248300   7.352   0.277   5.449 -0.8494  0.2200 -1.2668
14070SOL     OW48301   8.285   1.459   9.518  0.0190 -0.8476 -0.3295
14070SOL    HW148302   8.373   1.493   9.505  0.1240 -0.7422  0.6064
14070SOL    HW248303   8.236   1.532   9.556 -0.0273 -1.4025  0.7079
14071SOL     OW48304   1.178   7.556   1.273  0.2162  0.2440 -0.6398
14071SOL    HW148305   1.150   7.629   1.218 -1.3435 -0.1843 -0.4639
14071SOL    HW248306   1.192   7.483   1.212  4.0372  1.1968 -1.1229
14072SOL     OW48307   6.291   9.868   6.761  0.1314 -0.1365 -0.4814
14072SOL    HW148308   6.333   9.843   6.843  2.1169  2.1921 -0.6692
14072SOL    HW248309   6.201   9.889   6.785  1.4009  3.5922  1.8865
14073SOL     OW48310   2.416   8.675   7.457  0.1554 -0.0403  0.1474
14073SOL    HW148311   2.491   8.649   7.404  0.5166  0.9990  0.1380
14073SOL    HW248312   2.340   8.650   7.405  0.4725 -1.1719  0.1875
14074SOL     OW48313   9.089   0.862   7.275  0.9259  0.4111 -0.0492
14074SOL    HW148314   9.054   0.773   7.266 -0.4562  1.1322 -3.2661
14074SOL    HW248315   9.031   0.904   7.338  2.4994 -1.2588  2.7122
14075SOL     OW48316   5.625  10.626   3.470  0.1563 -0.3825  0.1636
14075SOL    HW148317   5.587  10.692   3.527 -0.1865  0.6153 -1.1806
14075SOL    HW248318   5.717  10.621   3.497  0.1879  0.6561  0.2841
14076SOL     OW48319   1.843  10.091   8.754 -0.3301  0.0514  0.2603
14076SOL    HW148320   1.890  10.073   8.836  0.8757  0.6041 -0.2865
14076SOL    HW248321   1.848  10.186   8.745  1.0409 -0.1315 -1.2920
14077SOL     OW48322   0.463   7.079   9.663  0.0768 -0.9235  0.6158
14077SOL    HW148323   0.472   7.018   9.736  1.5575 -2.0320 -0.4184
14077SOL    HW248324   0.528   7.049   9.599  0.1833  1.1954 -0.3439
14078SOL     OW48325   8.633   3.771  10.619 -0.4305  0.1917 -0.2127
14078SOL    HW148326   8.592   3.714  10.684  0.2164  0.1037  0.1297
14078SOL    HW248327   8.584   3.755  10.538 -1.9756  1.1443  0.4929
14079SOL     OW48328   7.857   8.387   4.593  0.6768  0.3215  0.7471
14079SOL    HW148329   7.891   8.347   4.673  0.6877 -1.0128  0.0978
14079SOL    HW248330   7.892   8.333   4.523  0.9866  1.7055 -0.1965
14080SOL     OW48331   5.052   4.562   2.783 -0.2856 -0.2883  0.0971
14080SOL    HW148332   5.086   4.633   2.838  0.0443 -0.0094 -0.4603
14080SOL    HW248333   4.997   4.510   2.842 -1.8969  1.3561  0.1589
14081SOL     OW48334   1.729   8.279   7.241  0.4373 -0.6947  0.0376
14081SOL    HW148335   1.768   8.363   7.266 -0.4306 -0.6895  1.5032
14081SOL    HW248336   1.678   8.298   7.163  1.7848 -0.2978 -0.7774
14082SOL     OW48337   9.817   5.767   7.550  0.1401 -0.0053 -0.1658
14082SOL    HW148338   9.903   5.789   7.516  0.0299 -0.2885 -0.6436
14082SOL    HW248339   9.825   5.676   7.580  0.3327  0.3560  0.9060
14083SOL     OW48340   5.469   7.142   0.636  1.1619 -0.7960 -0.5398
14083SOL    HW148341   5.548   7.170   0.590 -0.0994  0.9213 -1.7539
14083SOL    HW248342   5.409   7.114   0.567 -1.1852  2.8600 -0.2473
14084SOL     OW48343   1.604   7.176   2.125  0.0818  0.0496 -0.0017
14084SOL    HW148344   1.521   7.132   2.110 -0.5727  0.4765  2.0289
14084SOL    HW248345   1.607   7.245   2.059 -0.8855 -0.3648 -0.4931
14085SOL     OW48346   7.350   1.207   4.740 -0.4090 -0.1279  0.1880
14085SOL    HW148347   7.325   1.290   4.701 -0.7824  0.2006  1.0907
14085SOL    HW248348   7.293   1.198   4.817 -0.0815 -1.0110  0.3478
14086SOL     OW48349   1.016  10.456   0.989  0.0468 -0.0651  0.1551
14086SOL    HW148350   1.069  10.530   0.959  1.8009 -1.5026 -0.4347
14086SOL    HW248351   1.037  10.449   1.082 -1.0169  0.8618  0.4856
14087SOL     OW48352   8.229   1.095   2.271  0.3209  0.2440  0.2166
14087SOL    HW148353   8.191   1.124   2.353 -2.0497  1.4392 -1.1912
14087SOL    HW248354   8.169   1.028   2.239  1.7303 -0.9035 -0.1168
14088SOL     OW48355  10.463   7.989   4.128 -0.3253 -0.0650 -0.7708
14088SOL    HW148356  10.419   8.020   4.049 -1.9800 -2.4498 -0.8773
14088SOL    HW248357  10.414   8.029   4.200 -1.0112 -0.6069 -0.9300
14089SOL     OW48358   0.345   6.209   7.108 -0.0117 -0.6516 -0.2964
14089SOL    HW148359   0.363   6.289   7.057 -1.5241 -0.7269 -1.0231
14089SOL    HW248360   0.431   6.176   7.132  0.7155  0.1276 -1.6841
14090SOL     OW48361   8.532   7.766   1.946 -0.2818  0.6103  0.0101
14090SOL    HW148362   8.611   7.813   1.918  0.9302 -0.5890  1.2717
14090SOL    HW248363   8.487   7.826   2.004 -0.3159  1.3097 -0.7243
14091SOL     OW48364   3.720   1.486   5.396  0.3020 -0.3014  0.2915
14091SOL    HW148365   3.676   1.425   5.455  3.5952 -1.3553  1.9158
14091SOL    HW248366   3.696   1.457   5.308 -0.8349 -1.8218  1.0629
14092SOL     OW48367   2.784   6.795   2.250 -0.1507 -0.0361 -0.5996
14092SOL    HW148368   2.757   6.864   2.311  0.5373 -0.5438  0.3036
14092SOL    HW248369   2.725   6.721   2.270  0.8340 -0.6095  0.2979
14093SOL     OW48370  10.310   1.007   6.640  0.2682  0.4116  0.1981
14093SOL    HW148371  10.227   1.043   6.609  0.4769 -0.3923 -1.3699
14093SOL    HW248372  10.368   1.083   6.648 -0.4699  0.9214  0.8929
14094SOL     OW48373   1.272   2.531   5.552  0.1524  0.0343 -0.2094
14094SOL    HW148374   1.234   2.462   5.498  0.2626 -1.3574  1.4306
14094SOL    HW248375   1.348   2.491   5.593  1.4493  1.7708 -0.7947
14095SOL     OW48376   5.781   5.757   1.511  0.3189  0.6053  0.1336
14095SOL    HW148377   5.728   5.765   1.432  1.1313  0.1626 -0.4855
14095SOL    HW248378   5.795   5.663   1.520  2.6209  0.7628 -0.8936
14096SOL     OW48379   4.342   6.512   3.207 -0.0834 -0.4951 -0.9368
14096SOL    HW148380   4.401   6.472   3.271 -1.3386  0.5020  0.9192
14096SOL    HW248381   4.327   6.443   3.142 -0.2665 -2.2331  0.8456
14097SOL     OW48382   2.650   7.785   5.326 -0.1018  0.1537 -0.1192
14097SOL    HW148383   2.603   7.704   5.346  3.3988 -1.9536  0.5574
14097SOL    HW248384   2.657   7.830   5.410 -0.9090  0.5021 -0.2340
14098SOL     OW48385   6.699   8.630   8.928 -0.4457 -0.5817 -0.5615
14098SOL    HW148386   6.771   8.658   8.871 -1.5225 -2.0275 -2.7526
14098SOL    HW248387   6.704   8.535   8.929 -1.0812 -0.6314  0.9975
14099SOL     OW48388   2.415   4.094   5.395  0.4416  0.2278 -0.1299
14099SOL    HW148389   2.320   4.103   5.400  0.4949  0.0061  1.9430
14099SOL    HW248390   2.440   4.154   5.324 -1.1264  1.1020 -0.0055
14100SOL     OW48391   2.309   0.979   3.887  0.3197 -0.4614 -0.1568
14100SOL    HW148392   2.310   1.040   3.814 -0.6231 -0.7324 -0.4035
14100SOL    HW248393   2.294   0.893   3.848  1.0267 -0.7806  0.2441
14101SOL     OW48394   9.938   6.974   0.817 -0.3577  0.1051  0.0204
14101SOL    HW148395   9.972   7.059   0.843 -0.5546  0.0147  0.5756
14101SOL    HW248396   9.967   6.963   0.726 -1.0994  1.1528 -0.3586
14102SOL     OW48397   8.944   7.566   5.529 -0.7651  0.3829  0.3612
14102SOL    HW148398   8.948   7.656   5.496 -1.4010  0.7973  1.3722
14102SOL    HW248399   9.033   7.547   5.559 -0.2820  0.1602 -1.1015
14103SOL     OW48400  10.537   1.097   3.041 -0.3573  0.4871 -0.3248
14103SOL    HW148401  10.579   1.012   3.057 -0.4690  0.3051 -0.9838
14103SOL    HW248402  10.537   1.139   3.127  0.1729  0.0359 -0.0892
14104SOL     OW48403   5.168   9.030   5.417 -0.3821  0.1036  0.4435
14104SOL    HW148404   5.188   8.984   5.499 -0.9182 -0.7023  0.1391
14104SOL    HW248405   5.186   8.965   5.349  1.2852  1.1695 -0.1768
14105SOL     OW48406   1.534   3.902   6.651  0.4365 -0.3258 -0.1451
14105SOL    HW148407   1.440   3.887   6.638  0.6444 -0.5780 -1.4448
14105SOL    HW248408   1.542   3.997   6.661 -0.2026 -0.4606  2.3235
14106SOL     OW48409   9.568   5.937   7.583 -0.0512  0.2769 -0.0769
14106SOL    HW148410   9.630   5.981   7.525  0.1026 -1.0289 -0.9764
14106SOL    HW248411   9.621   5.876   7.633 -0.3331  0.6549  0.6870
14107SOL     OW48412   0.367   3.302   2.449 -0.0300  0.5462 -0.1271
14107SOL    HW148413   0.416   3.275   2.527  0.9564  2.5029 -0.0243
14107SOL    HW248414   0.419   3.270   2.376 -0.7723 -0.9729 -0.0443
14108SOL     OW48415   8.069   8.962   3.715  0.2138 -0.2658  0.6439
14108SOL    HW148416   8.009   9.026   3.753 -0.3289 -0.6568  0.4598
14108SOL    HW248417   8.018   8.919   3.647  1.5103  1.1848 -1.3461
14109SOL     OW48418   5.812   6.866   0.083 -0.4401 -0.3887  0.4212
14109SOL    HW148419   5.882   6.930   0.094 -1.3917  0.3123  3.2186
14109SOL    HW248420   5.848   6.802   0.021  1.7525  1.1269  0.0086
14110SOL     OW48421   8.963   9.334   2.702 -0.3241 -0.7360 -0.1938
14110SOL    HW148422   8.985   9.326   2.795 -0.2107  1.9583  0.1001
14110SOL    HW248423   9.046   9.325   2.656  0.4870  2.3815  0.3977
14111SOL     OW48424   8.267   3.377   9.277 -0.1312 -0.0542  0.4364
14111SOL    HW148425   8.186   3.375   9.225 -0.8815 -1.0435  1.5883
14111SOL    HW248426   8.304   3.289   9.265 -0.7089 -0.5542  2.1474
14112SOL     OW48427   1.208   5.792   7.853  0.2087 -0.4122 -0.1713
14112SOL    HW148428   1.120   5.776   7.817  0.1984  1.3459 -1.0547
14112SOL    HW248429   1.243   5.863   7.799  1.7977 -0.4054  0.8053
14113SOL     OW48430   2.478   8.514   6.287  0.6062 -0.2109  0.2726
14113SOL    HW148431   2.453   8.601   6.259 -3.0898 -0.9024  0.9299
14113SOL    HW248432   2.474   8.517   6.383 -2.4235 -1.6482  0.3210
14114SOL     OW48433   9.942   3.381   3.456 -0.3461 -0.4563  0.0806
14114SOL    HW148434   9.911   3.294   3.480  1.5851 -0.9625  1.0083
14114SOL    HW248435  10.038   3.374   3.461 -0.1506  1.8092  0.5423
14115SOL     OW48436   3.849   9.249   0.930  0.4998  0.0672 -0.0980
14115SOL    HW148437   3.838   9.250   1.025 -0.1469 -0.7229 -0.1484
14115SOL    HW248438   3.920   9.311   0.913 -0.4562  1.4552  0.7529
14116SOL     OW48439   6.908   3.290   8.223 -0.6767  0.2533  0.2506
14116SOL    HW148440   6.830   3.238   8.242 -0.6491  0.6249  1.4898
14116SOL    HW248441   6.882   3.347   8.151 -0.3046 -2.3210 -2.0991
14117SOL     OW48442  10.594   1.496   4.649 -0.2400  0.2757 -0.7332
14117SOL    HW148443  10.672   1.551   4.638 -0.4895  1.0238  0.9335
14117SOL    HW248444  10.586   1.449   4.567  0.2740  2.3724 -2.0652
14118SOL     OW48445   0.641   3.502   2.424  0.7576  0.1713  0.6595
14118SOL    HW148446   0.712   3.561   2.399  1.0336  0.3830  1.8635
14118SOL    HW248447   0.677   3.451   2.498 -0.0945 -0.2218  0.8184
14119SOL     OW48448   7.699   5.724   0.042  0.1585  0.3622 -0.7058
14119SOL    HW148449   7.751   5.654   0.003 -0.5246 -0.0177 -0.9572
14119SOL    HW248450   7.646   5.681   0.109 -1.9320  0.1812 -2.3773
14120SOL     OW48451   1.095   6.666  10.385  0.3248  0.4281  0.1556
14120SOL    HW148452   1.139   6.714  10.316 -2.6704  1.5067 -1.1890
14120SOL    HW248453   1.060   6.734  10.443  2.3408 -0.4366  2.5787
14121SOL     OW48454   6.673   0.939   3.893 -0.0267 -0.2330  0.4309
14121SOL    HW148455   6.643   1.021   3.932 -1.2276 -0.4809  0.0921
14121SOL    HW248456   6.768   0.948   3.886 -0.3314  2.4159 -2.4185
14122SOL     OW48457   5.744  10.060   3.196 -0.0100 -0.2606  0.4874
14122SOL    HW148458   5.714  10.150   3.208 -1.5890 -0.6481 -0.2776
14122SOL    HW248459   5.790  10.061   3.112  1.7143  0.2001  1.3750
14123SOL     OW48460  10.788   5.911   3.139  0.1183  0.0085 -0.1835
14123SOL    HW148461  10.832   5.826   3.138  0.6603  0.2240  1.7049
14123SOL    HW248462  10.804   5.948   3.052 -0.0892 -1.7755 -1.0318
14124SOL     OW48463   1.064   1.211   0.639  0.7999 -0.7944  0.7900
14124SOL    HW148464   1.097   1.123   0.618  0.6288 -0.6154 -0.2654
14124SOL    HW248465   1.129   1.270   0.601 -1.4968 -0.3801 -2.9612
14125SOL     OW48466   7.608   9.586   8.997  0.3682 -0.3064  0.1197
14125SOL    HW148467   7.621   9.598   8.903 -1.0752  0.7920  0.0416
14125SOL    HW248468   7.519   9.616   9.014  0.8837  0.3438  1.9806
14126SOL     OW48469   8.243   0.602   6.873 -0.0052  0.7001 -0.1152
14126SOL    HW148470   8.299   0.652   6.813  0.9625 -1.1893 -0.8519
14126SOL    HW248471   8.303   0.570   6.941 -0.2943 -0.7452 -0.5084
14127SOL     OW48472   4.713   9.639   2.472  0.0127  0.3899 -0.1506
14127SOL    HW148473   4.740   9.561   2.424  0.4793  0.8092 -0.5785
14127SOL    HW248474   4.740   9.712   2.417 -0.8101  0.8510  0.0466
14128SOL     OW48475   4.774   0.593  10.418 -0.4102 -0.2761  0.5012
14128SOL    HW148476   4.848   0.534  10.402 -0.4201 -0.9097  2.4970
14128SOL    HW248477   4.814   0.678  10.436  0.2741 -1.2637  4.9134
14129SOL     OW48478   1.960   5.249  10.476 -0.1370  0.2349  0.0171
14129SOL    HW148479   2.023   5.252  10.403 -0.2247  1.2729 -0.0281
14129SOL    HW248480   1.881   5.289  10.441 -0.9853 -1.4172 -0.0512
14130SOL     OW48481  10.491   5.267  10.036 -0.4324 -0.3857 -0.1761
14130SOL    HW148482  10.533   5.350  10.016 -1.5122  0.2103 -0.0222
14130SOL    HW248483  10.398   5.284  10.025 -0.9252 -0.7586  2.7425
14131SOL     OW48484   5.961   7.890   7.034  0.2180  0.7088 -0.3787
14131SOL    HW148485   5.923   7.841   6.961 -0.8033  1.6861 -0.5402
14131SOL    HW248486   5.957   7.830   7.108 -0.0232  0.1765 -0.8144
14132SOL     OW48487   3.444   6.136   9.730  0.2770 -0.5356  0.6518
14132SOL    HW148488   3.402   6.084   9.662  1.2676  0.6559 -0.9574
14132SOL    HW248489   3.372   6.170   9.783 -0.7677  0.4805 -1.2982
14133SOL     OW48490   0.864   8.492   5.955  0.5223  0.0262 -0.5884
14133SOL    HW148491   0.814   8.554   6.009 -0.9882 -0.9385 -0.8184
14133SOL    HW248492   0.878   8.538   5.873 -0.6988  0.0614 -0.8057
14134SOL     OW48493   3.143   5.497   9.342 -0.8111 -0.4720  0.3561
14134SOL    HW148494   3.074   5.549   9.300  1.4657  0.9689 -1.9162
14134SOL    HW248495   3.166   5.547   9.420  0.2165  1.1700 -0.9296
14135SOL     OW48496   1.065   7.992   2.743  0.1479 -0.1393  0.2356
14135SOL    HW148497   0.994   8.005   2.680 -0.2254  0.0867  0.6932
14135SOL    HW248498   1.113   7.916   2.710 -1.2044 -1.2523  0.7099
14136SOL     OW48499   6.796   7.919   6.908  0.4394 -0.1598 -0.5931
14136SOL    HW148500   6.754   8.005   6.918  0.7471  0.0703 -1.2412
14136SOL    HW248501   6.847   7.927   6.828  1.2906 -0.6154 -0.1080
14137SOL     OW48502   7.883   7.493   9.292 -0.5327  0.3113 -0.8720
14137SOL    HW148503   7.947   7.520   9.359 -0.0198 -0.8017 -0.8943
14137SOL    HW248504   7.929   7.504   9.209  0.5042 -2.5607 -0.7968
14138SOL     OW48505   0.608   5.060   6.887  0.2757 -0.0780  0.3948
14138SOL    HW148506   0.605   5.153   6.864 -1.6906 -0.7296 -2.6751
14138SOL    HW248507   0.686   5.051   6.941  0.6212  3.3131  0.6931
14139SOL     OW48508   0.722  10.753   7.491  0.0823 -0.1138  0.4516
14139SOL    HW148509   0.728  10.721   7.401  0.4045  0.4799  0.2618
14139SOL    HW248510   0.806  10.728   7.530 -0.3861 -1.1290  0.8437
14140SOL     OW48511   7.482   9.060   4.680 -0.2747  0.1975  0.2065
14140SOL    HW148512   7.400   9.057   4.630 -0.5434 -0.0434  0.6535
14140SOL    HW248513   7.491   9.152   4.705  0.5980  0.6089 -1.4734
14141SOL     OW48514  10.242   9.583   0.097  0.6625  0.0464  0.5008
14141SOL    HW148515  10.256   9.500   0.051 -3.3386 -0.1718 -0.7095
14141SOL    HW248516  10.317   9.637   0.073  2.2653 -2.4474 -0.4792
14142SOL     OW48517   7.789   7.119   2.215  0.3353  0.0104 -0.0454
14142SOL    HW148518   7.831   7.086   2.294 -1.4618 -0.2928  0.8494
14142SOL    HW248519   7.812   7.212   2.212  0.0384  0.1279  1.1117
14143SOL     OW48520   8.821   3.129   8.441  0.3045  0.7284 -0.1190
14143SOL    HW148521   8.901   3.095   8.401  0.2453  2.1412 -1.5295
14143SOL    HW248522   8.783   3.187   8.374 -2.7175 -1.0318 -0.1149
14144SOL     OW48523   1.390   0.507   6.350 -1.2397 -0.3350  0.7554
14144SOL    HW148524   1.335   0.586   6.353 -0.3951  0.4718 -1.8998
14144SOL    HW248525   1.413   0.491   6.442  0.7154  4.1422  1.3364
14145SOL     OW48526   2.423   1.180   0.098  0.1767 -0.8513 -0.0846
14145SOL    HW148527   2.398   1.088   0.096  0.8248 -1.0465  0.5242
14145SOL    HW248528   2.346   1.225   0.132 -0.2359 -1.1324 -0.6389
14146SOL     OW48529   2.129   0.943   5.927  0.9302 -0.1813  0.2512
14146SOL    HW148530   2.055   0.990   5.965 -0.5860 -1.8840 -0.4631
14146SOL    HW248531   2.202   0.961   5.986 -0.1652  1.1194  1.2635
14147SOL     OW48532   2.946   0.090   7.278  0.1305  0.0864  0.5717
14147SOL    HW148533   2.934   0.131   7.364 -0.4016  1.3610 -0.0785
14147SOL    HW248534   2.859   0.095   7.237  1.0393  2.3961 -1.2492
14148SOL     OW48535   1.858   9.361   1.425  0.1107  0.3500  0.0328
14148SOL    HW148536   1.807   9.425   1.473  1.2637  0.4481  1.1685
14148SOL    HW248537   1.930   9.411   1.387  1.0120 -0.2409  0.9187
14149SOL     OW48538   7.448   0.374   9.439 -0.5449  0.3957 -0.0707
14149SOL    HW148539   7.457   0.423   9.357 -0.3475  0.2183 -0.1556
14149SOL    HW248540   7.518   0.409   9.495 -2.3989  2.5511  1.0590
14150SOL     OW48541   4.452   4.300   2.344 -0.3016 -0.4075  0.4038
14150SOL    HW148542   4.404   4.362   2.289  1.3968  1.6813  1.1339
14150SOL    HW248543   4.500   4.245   2.282  0.4194  0.9302 -0.2690
14151SOL     OW48544   7.365   0.005   1.161  0.0495  1.1220 -0.1951
14151SOL    HW148545   7.366   0.029   1.254 -1.7642 -0.7268  0.3819
14151SOL    HW248546   7.300  -0.065   1.155  1.9706 -0.6516 -2.4243
14152SOL     OW48547  10.275   6.906   1.363 -0.6506 -0.0792 -0.0711
14152SOL    HW148548  10.277   6.978   1.427 -2.2144  0.6916 -0.8305
14152SOL    HW248549  10.314   6.832   1.409  1.2004  1.2678  0.6805
14153SOL     OW48550   7.618   8.832   9.108 -0.6343 -0.5516 -0.4463
14153SOL    HW148551   7.681   8.811   9.177 -0.2254 -0.7102 -0.8595
14153SOL    HW248552   7.672   8.845   9.030 -1.0217  0.4048 -0.5630
14154SOL     OW48553   8.964  10.621   7.613  0.6701  0.2520  0.1508
14154SOL    HW148554   8.930  10.692   7.558 -1.3035 -0.2328  0.6761
14154SOL    HW248555   8.888  10.592   7.664  1.2663 -2.6279 -0.4625
14155SOL     OW48556   1.454   4.265   7.032  0.4139 -0.2741 -0.3204
14155SOL    HW148557   1.428   4.339   6.977 -0.0464 -0.0292  0.2149
14155SOL    HW248558   1.371   4.226   7.061  0.6504 -0.8715 -0.4231
14156SOL     OW48559   1.034   9.078   5.361 -0.3682  0.5425  0.5217
14156SOL    HW148560   1.001   8.994   5.394  1.0764 -0.3189 -0.1412
14156SOL    HW248561   1.027   9.138   5.435 -1.3507 -0.1739  1.0293
14157SOL     OW48562   8.104  10.705   2.379 -0.0105 -0.2533  0.4009
14157SOL    HW148563   8.157  10.737   2.453  0.8322  1.4596 -0.8877
14157SOL    HW248564   8.152  10.628   2.348  1.7254  1.1687 -0.6313
14158SOL     OW48565   1.245   0.310   5.035  0.3751  0.2431  0.5153
14158SOL    HW148566   1.228   0.308   5.129 -3.2360  2.5713  0.1022
14158SOL    HW248567   1.165   0.276   4.995  1.5051  0.0493 -1.7597
14159SOL     OW48568   7.506   8.066   4.205  0.5633  0.8466 -0.7124
14159SOL    HW148569   7.561   7.987   4.199  0.7006  0.7442  1.1859
14159SOL    HW248570   7.567   8.138   4.191  0.5346  0.6435 -1.9488
14160SOL     OW48571   8.364   4.276   9.043  0.4706 -0.4632 -0.1359
14160SOL    HW148572   8.425   4.308   9.109 -0.4571 -0.6719  0.8368
14160SOL    HW248573   8.398   4.312   8.960  2.3525 -1.2204  0.2566
14161SOL     OW48574   0.597   8.472   1.614 -0.0397 -0.1439  0.3637
14161SOL    HW148575   0.612   8.393   1.563 -0.3549 -1.0723  1.6731
14161SOL    HW248576   0.593   8.542   1.548 -0.2925 -1.2663 -0.8590
14162SOL     OW48577   9.706  10.032   9.324 -0.2409 -0.0315 -0.1780
14162SOL    HW148578   9.682   9.969   9.257  1.5950 -0.4093 -0.5314
14162SOL    HW248579   9.674   9.994   9.406  0.8256 -1.4261 -0.3858
14163SOL     OW48580   5.624  10.209   1.849  0.6455  0.3161 -0.3746
14163SOL    HW148581   5.537  10.217   1.887  0.7176  1.2388 -0.3938
14163SOL    HW248582   5.646  10.297   1.817  1.3141 -0.0431 -0.9588
14164SOL     OW48583   1.288   1.801   7.342  0.4447 -0.4301 -0.7709
14164SOL    HW148584   1.256   1.830   7.427  0.1925  0.2969 -1.1125
14164SOL    HW248585   1.209   1.793   7.288  0.7403  0.4859 -1.3502
14165SOL     OW48586   9.764  10.632   0.751 -0.2163 -0.4109  0.8323
14165SOL    HW148587   9.812  10.596   0.676  0.6822  0.6481  0.8679
14165SOL    HW248588   9.752  10.558   0.810 -0.2606 -1.0965 -0.0107
14166SOL     OW48589   1.159   9.921   7.424  0.2361  0.7610 -0.1052
14166SOL    HW148590   1.084   9.864   7.439 -0.2966  1.5578  0.3187
14166SOL    HW248591   1.163   9.976   7.502  2.1497 -0.2206  0.5645
14167SOL     OW48592   3.541  10.878   0.824 -0.4613  0.2817  0.0010
14167SOL    HW148593   3.616  10.929   0.794  1.9880 -3.3673 -0.7032
14167SOL    HW248594   3.543  10.887   0.919  2.2072 -1.2822  0.1723
14168SOL     OW48595   4.547   4.658   4.394 -0.4457  0.1617 -0.5775
14168SOL    HW148596   4.456   4.686   4.399 -0.1334  1.0716  0.8021
14168SOL    HW248597   4.583   4.680   4.480  1.1855  0.2198 -1.2352
14169SOL     OW48598   4.613   0.883   5.867  0.3464  0.7288  0.6231
14169SOL    HW148599   4.584   0.897   5.957 -2.1005 -2.5486  0.5179
14169SOL    HW248600   4.705   0.911   5.866 -0.3634  3.7331  3.2522
14170SOL     OW48601   9.866   9.086   8.623 -0.0554  0.4077  0.5701
14170SOL    HW148602   9.829   9.039   8.697 -0.0502 -0.1086  0.2448
14170SOL    HW248603   9.957   9.102   8.647  0.8071 -2.3577 -0.5325
14171SOL     OW48604   1.723   5.054   7.008  0.5971 -0.0753  0.4824
14171SOL    HW148605   1.711   5.147   7.027  1.1913  0.1901 -0.3537
14171SOL    HW248606   1.658   5.009   7.061  0.9849  0.7446  1.6803
14172SOL     OW48607  10.509   0.596   6.922  0.0550  0.1933  0.2920
14172SOL    HW148608  10.523   0.674   6.975 -2.4467  0.9733 -0.0673
14172SOL    HW248609  10.596   0.573   6.889  1.1033  1.7997  1.7602
14173SOL     OW48610   5.504   0.177   2.415  0.0124 -0.0173  0.2280
14173SOL    HW148611   5.446   0.216   2.350 -0.8778 -0.6456  0.6286
14173SOL    HW248612   5.448   0.157   2.489  0.8012 -0.3508  0.7481
14174SOL     OW48613   2.288   4.126   8.971  0.1472  0.1234  0.0967
14174SOL    HW148614   2.311   4.128   8.878 -1.2811 -1.3050 -0.3472
14174SOL    HW248615   2.344   4.192   9.011  1.7940 -0.1676 -1.5490
14175SOL     OW48616   4.848   2.583   6.617  0.3604 -0.8216  0.7340
14175SOL    HW148617   4.881   2.504   6.575  1.3688 -0.0891  0.0782
14175SOL    HW248618   4.807   2.553   6.698 -1.9928 -2.3422 -0.9012
14176SOL     OW48619   4.088   9.035   7.619 -0.4744 -0.5252 -0.3216
14176SOL    HW148620   4.013   9.081   7.656  0.0803  1.0937 -1.1283
14176SOL    HW248621   4.152   9.033   7.690 -0.4756  0.0321 -0.2977
14177SOL     OW48622   4.318   2.557   6.040  0.0812 -0.3145  0.5057
14177SOL    HW148623   4.341   2.637   5.992 -0.5010  0.3713  1.3366
14177SOL    HW248624   4.297   2.493   5.972 -1.5807  0.8947 -0.1754
14178SOL     OW48625   2.774   5.112   1.814 -0.7430  0.0857  0.2488
14178SOL    HW148626   2.727   5.036   1.847 -0.6261  0.6322  1.7410
14178SOL    HW248627   2.706   5.174   1.787 -0.9023  0.5312  1.6049
14179SOL     OW48628   7.424   1.763   7.067  0.4839 -0.7217  0.0883
14179SOL    HW148629   7.444   1.739   7.158 -1.1239 -0.6382  0.5054
14179SOL    HW248630   7.347   1.819   7.074  0.8620  0.0149 -1.2841
14180SOL     OW48631  10.241   4.378   5.876 -0.1009  0.3873 -0.2336
14180SOL    HW148632  10.203   4.331   5.801  1.5042 -0.4737 -0.5503
14180SOL    HW248633  10.336   4.377   5.860  0.2477  0.5895  1.5843
14181SOL     OW48634   0.854  10.038   3.756  0.0301  0.0511 -0.2473
14181SOL    HW148635   0.819  10.018   3.669  0.6092 -1.0309 -0.2445
14181SOL    HW248636   0.878  10.131   3.752  1.6210 -0.3709 -1.8130
14182SOL     OW48637   9.938  10.515   7.175  0.2373  0.0358 -0.3505
14182SOL    HW148638  10.005  10.563   7.125  1.4216 -1.5454 -0.3507
14182SOL    HW248639   9.975  10.428   7.187 -1.3727 -0.5508  0.6325
14183SOL     OW48640   3.714  10.139   6.871  0.2355 -0.4030 -0.5385
14183SOL    HW148641   3.794  10.152   6.820  0.7305  0.0124  0.3277
14183SOL    HW248642   3.692  10.047   6.859 -0.7971  0.0951 -3.1238
14184SOL     OW48643   4.888  10.809   4.709 -0.0156  0.3290 -0.1061
14184SOL    HW148644   4.802  10.823   4.669 -0.0098  1.1185  0.1439
14184SOL    HW248645   4.950  10.833   4.640  0.0351 -1.1223 -0.6072
14185SOL     OW48646   2.865   2.751   8.589  0.0085 -0.4079  0.6736
14185SOL    HW148647   2.852   2.683   8.524 -2.0568  0.4927  0.0609
14185SOL    HW248648   2.777   2.786   8.606  0.7734  0.9299  2.2499
14186SOL     OW48649   8.984   7.703  10.539 -0.1946  0.0052  0.1030
14186SOL    HW148650   8.916   7.646  10.574  0.2961  1.0359  2.9911
14186SOL    HW248651   9.063   7.649  10.537 -0.1632  0.0052  0.9575
14187SOL     OW48652   4.504   8.549   4.486  0.0967  0.5139 -0.4980
14187SOL    HW148653   4.452   8.629   4.476  0.8844  1.4168  1.7605
14187SOL    HW248654   4.589   8.571   4.447  0.0348  0.4683 -0.6578
14188SOL     OW48655   8.450   5.626   5.845  0.1920 -0.3531 -0.1192
14188SOL    HW148656   8.425   5.718   5.839  2.0731  0.1675 -0.6475
14188SOL    HW248657   8.377   5.584   5.891 -1.9472  0.8744 -2.1642
14189SOL     OW48658   0.722  10.081   1.827  0.2093 -0.0309 -0.4588
14189SOL    HW148659   0.701  10.121   1.912  1.2046  0.0623 -0.2393
14189SOL    HW248660   0.661  10.008   1.819 -0.5266  0.5338 -0.1004
14190SOL     OW48661   6.848   6.230   8.138 -0.0841  0.4654  0.1902
14190SOL    HW148662   6.754   6.215   8.125  0.3706  0.0786 -3.9133
14190SOL    HW248663   6.875   6.281   8.062  3.1028  0.3568  1.1059
14191SOL     OW48664   0.001   3.389   4.639 -0.5396 -0.3376  0.1923
14191SOL    HW148665   0.007   3.479   4.607 -0.4554  0.0537  1.2841
14191SOL    HW248666  -0.091   3.378   4.661 -0.4005 -0.2413  0.8331
14192SOL     OW48667   4.564   5.969   6.099  0.0192 -0.0857  0.2350
14192SOL    HW148668   4.600   5.880   6.097  1.5381  0.4965 -1.0627
14192SOL    HW248669   4.520   5.978   6.014 -2.2755 -0.3724  1.3278
14193SOL     OW48670   6.956   0.700   3.169  0.4652 -0.0388 -0.5328
14193SOL    HW148671   6.938   0.612   3.136  1.9943 -0.3592 -0.5951
14193SOL    HW248672   6.904   0.758   3.113 -0.0763 -0.8519 -0.8852
14194SOL     OW48673   4.239   9.725   3.924 -0.0839 -0.4574  0.0047
14194SOL    HW148674   4.303   9.708   3.855 -0.4525  0.6694 -0.6389
14194SOL    HW248675   4.285   9.780   3.987 -0.1436 -0.4168  0.0134
14195SOL     OW48676   8.042   7.512   6.826 -0.0758 -0.0267 -0.4980
14195SOL    HW148677   8.119   7.559   6.860  0.8375 -0.9721 -1.1868
14195SOL    HW248678   7.968   7.552   6.871  0.9870 -0.6066  1.9312
14196SOL     OW48679   7.330   8.420   3.983 -0.1296  0.0758 -0.0834
14196SOL    HW148680   7.380   8.409   3.902  0.0297  1.2878 -0.1668
14196SOL    HW248681   7.308   8.513   3.985 -1.0549 -0.1455  0.7339
14197SOL     OW48682   2.987   0.258   8.571 -0.1381 -0.1536 -0.1491
14197SOL    HW148683   3.066   0.302   8.538 -0.0461 -0.5066 -0.4052
14197SOL    HW248684   3.013   0.221   8.655 -0.0057 -0.3514 -0.2780
14198SOL     OW48685   2.242   4.426   0.214  0.4768 -0.5057 -0.3652
14198SOL    HW148686   2.329   4.433   0.252  0.8401 -1.3762 -1.0134
14198SOL    HW248687   2.252   4.459   0.124  0.2213 -0.9174 -0.5498
14199SOL     OW48688   5.439   7.367   6.560 -0.1021 -0.4866  0.2922
14199SOL    HW148689   5.437   7.457   6.594 -0.7553 -0.4994  0.3088
14199SOL    HW248690   5.485   7.373   6.477 -2.3550  0.3304 -0.9887
14200SOL     OW48691   4.220   1.580   1.715 -0.1665  0.1325  0.2363
14200SOL    HW148692   4.213   1.603   1.807  0.1452 -0.4809  0.4139
14200SOL    HW248693   4.129   1.577   1.683 -0.2911 -0.0524  0.6141
14201SOL     OW48694   5.951   3.397  10.425 -0.3259 -0.7430  0.2631
14201SOL    HW148695   5.971   3.437  10.509  0.7603 -1.4322  0.3514
14201SOL    HW248696   5.856   3.401  10.418 -0.2830  1.8229  0.2693
14202SOL     OW48697   6.954   0.613   8.236 -0.2654 -0.3251 -0.0220
14202SOL    HW148698   6.997   0.532   8.265  2.3614  1.3978  1.2860
14202SOL    HW248699   6.976   0.620   8.143  0.6959 -0.4680  0.1796
14203SOL     OW48700   1.007   1.960   7.896 -0.0128  0.1569 -0.3919
14203SOL    HW148701   1.069   1.971   7.969 -2.5654  0.5275  1.8859
14203SOL    HW248702   1.002   2.047   7.856  0.4560  0.2861 -0.1712
14204SOL     OW48703   2.863   4.075   5.438 -0.0175  0.9225  1.0588
14204SOL    HW148704   2.800   4.012   5.405  1.6160  0.2967 -1.0823
14204SOL    HW248705   2.818   4.160   5.432 -0.8862  0.4146  0.2889
14205SOL     OW48706   7.684   1.353   6.607 -0.2972  0.2350  0.1785
14205SOL    HW148707   7.638   1.278   6.644  0.9318 -0.6936 -0.0943
14205SOL    HW248708   7.734   1.317   6.534 -1.5511  1.7715 -1.5088
14206SOL     OW48709   8.754   4.560   6.903  0.4660 -0.1729 -0.0767
14206SOL    HW148710   8.783   4.471   6.923 -1.3248 -1.0121 -0.9463
14206SOL    HW248711   8.774   4.572   6.810 -1.6569 -0.7083 -0.6502
14207SOL     OW48712   0.439   2.554   8.433 -0.6338  0.2327  0.4460
14207SOL    HW148713   0.401   2.612   8.367 -1.1022  0.0524  0.5562
14207SOL    HW248714   0.367   2.533   8.491 -0.4914 -0.5402  0.3570
14208SOL     OW48715   8.275   8.196   1.948 -0.2702  0.2686 -0.3881
14208SOL    HW148716   8.295   8.269   2.007  0.1699  0.2674 -0.5289
14208SOL    HW248717   8.359   8.149   1.939 -1.0416 -1.6595  1.5768
14209SOL     OW48718   7.940   9.249   1.601 -0.2315 -0.3139  0.3811
14209SOL    HW148719   7.969   9.301   1.526 -1.0529  1.9151  1.5409
14209SOL    HW248720   7.846   9.239   1.589 -0.5601  1.0019  1.6123
14210SOL     OW48721   8.301   2.278   4.889  0.9408 -0.4161  0.0390
14210SOL    HW148722   8.230   2.229   4.848  0.1201  0.3985  0.4373
14210SOL    HW248723   8.265   2.366   4.903  1.6651 -0.2808  1.2239
14211SOL     OW48724   0.024   3.699   7.923  0.7316 -0.0487 -0.4199
14211SOL    HW148725  -0.014   3.724   7.838  1.2393 -0.3668 -0.7482
14211SOL    HW248726   0.012   3.776   7.978  4.1295  1.8686 -1.9823
14212SOL     OW48727   1.994   8.031   2.181  0.0731 -0.0930  0.0817
14212SOL    HW148728   1.928   8.099   2.199  0.4630  0.6735 -1.2498
14212SOL    HW248729   1.994   7.976   2.260 -2.7477 -0.6087 -0.1730
14213SOL     OW48730   9.899   2.998   9.478  0.0388  0.0642 -0.1390
14213SOL    HW148731   9.836   3.068   9.494  0.3250  0.5182 -0.9339
14213SOL    HW248732   9.980   3.029   9.519  0.2013  0.2679 -0.6058
14214SOL     OW48733   6.148   6.232  10.837  0.8028 -0.6222  0.0426
14214SOL    HW148734   6.214   6.182  10.885  1.6814 -2.3756 -2.7304
14214SOL    HW248735   6.066   6.186  10.852  1.1314 -1.3530 -0.3589
14215SOL     OW48736   6.569   2.009   2.575 -0.0515  0.0282 -0.9561
14215SOL    HW148737   6.562   2.080   2.512  2.1004  0.3460 -0.9126
14215SOL    HW248738   6.655   2.021   2.616 -0.7762 -0.9980  1.0235
14216SOL     OW48739   8.366  10.714   0.874  0.1351  0.3726 -0.1734
14216SOL    HW148740   8.344  10.805   0.896  1.7540  0.3161  1.9639
14216SOL    HW248741   8.397  10.676   0.956  0.7506 -1.7446 -1.3206
14217SOL     OW48742   0.892   0.209   0.126 -0.1292 -1.2598  0.2131
14217SOL    HW148743   0.934   0.193   0.042 -0.8022 -1.0361 -0.1727
14217SOL    HW248744   0.815   0.153   0.126 -0.9791 -0.1246  0.0159
14218SOL     OW48745   4.124   4.213   9.569  0.0840 -0.2229 -0.1785
14218SOL    HW148746   4.115   4.294   9.620  0.1858  0.1190 -0.6916
14218SOL    HW248747   4.119   4.242   9.478  1.8478 -0.5657 -0.4195
14219SOL     OW48748  10.120  10.847   6.074 -0.1596  0.2494 -0.0943
14219SOL    HW148749  10.048  10.784   6.077  0.1587 -0.0890  0.8000
14219SOL    HW248750  10.197  10.797   6.102  0.7621  0.2102 -2.4285
14220SOL     OW48751   1.914   2.192   9.409  0.3761  0.0411  0.1124
14220SOL    HW148752   1.998   2.227   9.440 -0.5746  1.0318  1.6863
14220SOL    HW248753   1.848   2.248   9.450 -1.1620 -2.3080  1.0599
14221SOL     OW48754   1.362   7.777   3.322  0.0447  0.6096  0.6015
14221SOL    HW148755   1.385   7.759   3.413 -0.6838  1.4873  0.9807
14221SOL    HW248756   1.281   7.729   3.307  0.9489 -0.7732 -0.0800
14222SOL     OW48757   0.696   2.265   3.192 -0.3924  0.1976 -0.1870
14222SOL    HW148758   0.774   2.226   3.231 -0.5900  0.9420  1.0060
14222SOL    HW248759   0.723   2.353   3.165 -1.1548  1.0229  1.5917
14223SOL     OW48760   0.414   8.304   3.169  0.1042  0.2673 -0.3327
14223SOL    HW148761   0.446   8.394   3.183 -2.4549  1.4761 -1.4950
14223SOL    HW248762   0.323   8.306   3.198  0.6124 -2.6956  1.8614
14224SOL     OW48763   6.022   6.052   7.425  0.1331  0.2723 -0.5660
14224SOL    HW148764   6.027   6.146   7.408  1.4308  0.4143  0.3904
14224SOL    HW248765   5.963   6.044   7.500  1.4957  0.5678  0.6084
14225SOL     OW48766   5.623   0.772   4.907 -0.1064 -0.1967  0.1920
14225SOL    HW148767   5.623   0.867   4.916  0.1218 -0.3319  2.0256
14225SOL    HW248768   5.540   0.744   4.946 -0.0821 -0.7602 -0.1447
14226SOL     OW48769  10.475   9.440   9.297  0.5494  0.3723 -0.1390
14226SOL    HW148770  10.388   9.408   9.273  0.1573  0.5602  0.9847
14226SOL    HW248771  10.486   9.416   9.389  1.9280 -0.1515 -0.4173
14227SOL     OW48772   8.777   9.342   7.104  0.0021 -0.2789 -0.3716
14227SOL    HW148773   8.757   9.283   7.177  1.4223  0.5242  0.7211
14227SOL    HW248774   8.859   9.385   7.130  0.0932  0.6535 -2.0730
14228SOL     OW48775   8.389   6.364   9.709 -0.1033 -0.0109  0.0726
14228SOL    HW148776   8.354   6.445   9.745 -0.0141  0.1760 -0.2613
14228SOL    HW248777   8.456   6.336   9.772 -1.0212 -0.5123  0.8560
14229SOL     OW48778   1.596   6.907   9.339  0.0086  0.6042  0.2042
14229SOL    HW148779   1.660   6.848   9.301  0.6982  0.8697  0.9304
14229SOL    HW248780   1.647   6.984   9.366  0.0523 -0.5586  3.9577
14230SOL     OW48781   6.675   5.991   8.637  0.1610  0.1806 -0.4374
14230SOL    HW148782   6.606   5.967   8.699  1.7820 -1.3678  0.8991
14230SOL    HW248783   6.739   6.037   8.690  2.8363 -3.4141 -0.1398
14231SOL     OW48784   7.406  10.725   4.519  0.5584 -0.5058 -0.3537
14231SOL    HW148785   7.340  10.680   4.466 -1.5116  0.3507  1.3467
14231SOL    HW248786   7.401  10.817   4.492  2.2595 -0.6411 -1.3150
14232SOL     OW48787   7.826   0.451   9.058  0.0773  0.0632 -0.1787
14232SOL    HW148788   7.774   0.381   9.097 -0.2879 -0.8503 -2.1547
14232SOL    HW248789   7.777   0.531   9.075 -0.0168 -0.2871  1.2414
14233SOL     OW48790   8.858   0.706   5.244 -0.5745 -0.0668  0.2027
14233SOL    HW148791   8.907   0.777   5.286  1.0323 -0.6625 -0.6012
14233SOL    HW248792   8.772   0.709   5.286 -0.0784  1.4270  1.2049
14234SOL     OW48793  10.899   5.934   8.209 -0.0148 -0.0321  0.4398
14234SOL    HW148794  10.810   5.957   8.234 -0.4646  0.9648 -1.7669
14234SOL    HW248795  10.906   5.964   8.118  2.4760 -0.3596  0.4603
14235SOL     OW48796   4.634   7.270   5.387  0.0593  0.3837  0.3047
14235SOL    HW148797   4.645   7.250   5.294 -1.4446  0.4231  0.0937
14235SOL    HW248798   4.540   7.286   5.397  0.2043  0.4178  1.8263
14236SOL     OW48799   9.546   4.575   2.394 -0.1128 -0.2597  0.4583
14236SOL    HW148800   9.477   4.640   2.387  1.0325  1.4187  3.0284
14236SOL    HW248801   9.506   4.503   2.443 -1.0418 -1.0335 -1.3526
14237SOL     OW48802   3.102   8.948   1.597 -0.2348 -0.0405  0.0675
14237SOL    HW148803   3.130   8.857   1.601  2.3831  0.7208  1.4799
14237SOL    HW248804   3.007   8.944   1.597 -0.1917 -2.7689  0.1818
14238SOL     OW48805   2.102   6.728   1.872  0.3587 -0.1152 -0.8226
14238SOL    HW148806   2.102   6.823   1.865  0.8436 -0.0652 -0.1940
14238SOL    HW248807   2.021   6.707   1.918 -0.0433 -0.0571 -1.4842
14239SOL     OW48808   3.518   8.369   3.583  0.2131  0.5368  0.6744
14239SOL    HW148809   3.561   8.400   3.503  0.5965  0.1413  0.7242
14239SOL    HW248810   3.589   8.359   3.646 -0.0600  0.6376  1.0039
14240SOL     OW48811   7.886   6.467   4.669 -0.1201  0.0018  0.1458
14240SOL    HW148812   7.834   6.406   4.721 -0.6024  0.8343  0.6430
14240SOL    HW248813   7.834   6.482   4.590  0.4258 -0.9379 -0.4232
14241SOL     OW48814   9.402   2.608   1.754 -0.0759  0.0328 -0.0321
14241SOL    HW148815   9.316   2.625   1.716 -0.2431 -0.7164 -0.0027
14241SOL    HW248816   9.400   2.652   1.839  0.2174  1.5337 -0.7713
14242SOL     OW48817   7.580   2.613  10.331  0.1226  0.0994  0.0016
14242SOL    HW148818   7.559   2.549  10.263  2.0225 -0.4988 -0.0624
14242SOL    HW248819   7.588   2.696  10.284  2.1307 -0.4325 -0.6705
14243SOL     OW48820   5.419   1.160   5.251 -0.1497 -0.6714 -0.2430
14243SOL    HW148821   5.456   1.089   5.304  1.6156  1.8297  2.1454
14243SOL    HW248822   5.329   1.169   5.283 -0.6646 -2.1908 -1.1047
14244SOL     OW48823  10.648   1.452   1.786 -0.6419 -0.2365  0.3174
14244SOL    HW148824  10.564   1.476   1.746  1.3017  0.4688 -3.8026
14244SOL    HW248825  10.629   1.374   1.838 -3.6367 -0.6861 -1.2763
14245SOL     OW48826   9.243   2.139   2.531  0.2825 -0.2023  0.2583
14245SOL    HW148827   9.211   2.093   2.609 -0.2314 -1.0851 -0.4476
14245SOL    HW248828   9.338   2.136   2.538  0.2443 -0.7344  0.5956
14246SOL     OW48829   8.619   1.939   5.703  0.3737 -0.4073 -0.8984
14246SOL    HW148830   8.551   1.890   5.749  0.9221  0.8332  1.3899
14246SOL    HW248831   8.574   1.978   5.629 -0.6936 -2.0381 -1.1513
14247SOL     OW48832   1.999   2.893   4.098  0.5318 -0.0385  0.2006
14247SOL    HW148833   1.904   2.889   4.096  0.4069  2.1045 -0.6187
14247SOL    HW248834   2.019   2.956   4.168  1.3567 -0.5429  0.4372
14248SOL     OW48835   4.530   6.312   6.166 -0.1897 -0.3278 -0.2869
14248SOL    HW148836   4.468   6.297   6.237  0.8948 -0.4884  0.6551
14248SOL    HW248837   4.530   6.231   6.116  0.0404 -0.7205  0.3390
14249SOL     OW48838   2.463  10.031   8.191 -0.1891 -0.0949 -0.5251
14249SOL    HW148839   2.537   9.992   8.237  0.1666 -0.4853 -1.4036
14249SOL    HW248840   2.429  10.096   8.252 -2.3605 -3.3319  2.1111
14250SOL     OW48841   9.644   6.453   4.440  0.4440  0.1125 -0.0507
14250SOL    HW148842   9.688   6.371   4.416  0.4204 -0.9305  3.0116
14250SOL    HW248843   9.565   6.455   4.386  1.5061 -0.7524 -1.7208
14251SOL     OW48844   2.544   0.621   9.447  0.5119 -0.1434 -0.2826
14251SOL    HW148845   2.524   0.601   9.538 -1.8896 -0.2776 -0.7949
14251SOL    HW248846   2.551   0.536   9.404  1.6349 -0.0814 -0.2677
14252SOL     OW48847   6.650   9.009   9.944 -0.2397 -0.3644  0.0203
14252SOL    HW148848   6.731   9.012   9.995 -0.9562 -0.3798  1.2008
14252SOL    HW248849   6.612   8.925   9.965 -0.9217 -0.0557  0.0396
14253SOL     OW48850   1.694   3.558   5.599 -0.0140 -0.8825 -0.0277
14253SOL    HW148851   1.781   3.596   5.591 -0.3487 -0.3308 -1.4493
14253SOL    HW248852   1.666   3.580   5.688  0.2700  1.2609 -0.4118
14254SOL     OW48853   3.190   1.959   4.148 -0.1899 -0.0212 -0.1405
14254SOL    HW148854   3.153   2.025   4.207  0.6766  0.7491 -0.4318
14254SOL    HW248855   3.254   1.912   4.201  2.4241  2.2880 -0.9913
14255SOL     OW48856  10.395   9.506   5.511 -0.1289  0.8597 -0.5234
14255SOL    HW148857  10.365   9.463   5.591 -1.7050 -0.0146 -1.5271
14255SOL    HW248858  10.490   9.513   5.521 -0.1802 -0.1667  0.9617
14256SOL     OW48859   9.658   0.601   6.503  0.5169 -0.1722  0.6517
14256SOL    HW148860   9.626   0.682   6.464 -1.4526 -2.5364 -3.2794
14256SOL    HW248861   9.753   0.613   6.510  0.4451  2.0135 -1.0770
14257SOL     OW48862   0.096   7.468   8.420  0.4929  0.4361 -0.8381
14257SOL    HW148863   0.047   7.522   8.482  1.0171 -1.0720  1.0262
14257SOL    HW248864   0.082   7.508   8.335 -0.3563  2.5737  0.2467
14258SOL     OW48865   4.001   0.713   5.789 -0.2368 -0.2674  0.1074
14258SOL    HW148866   4.050   0.668   5.858  0.0592 -0.5145 -0.2581
14258SOL    HW248867   3.947   0.777   5.836  0.4789  0.0547  0.5131
14259SOL     OW48868   1.861   8.525   4.955  0.0528  0.2921  0.3438
14259SOL    HW148869   1.830   8.488   5.038  0.2022  1.2638  0.8510
14259SOL    HW248870   1.916   8.457   4.917 -1.7739 -1.0299 -0.0339
14260SOL     OW48871   9.706   1.836   1.591 -0.2060 -0.3761  0.3511
14260SOL    HW148872   9.739   1.924   1.574  2.3332 -1.2408  0.3991
14260SOL    HW248873   9.779   1.790   1.632 -1.4388 -2.5321  0.3019
14261SOL     OW48874   8.706   3.335   9.162 -0.4263  0.7602 -0.2091
14261SOL    HW148875   8.734   3.333   9.253 -2.5247  0.2496  0.4770
14261SOL    HW248876   8.704   3.242   9.135 -0.9066  0.8218 -0.4030
14262SOL     OW48877   3.043   3.696   2.588  0.3443 -0.5103 -0.2883
14262SOL    HW148878   3.021   3.748   2.665  0.4024  1.2270 -1.3734
14262SOL    HW248879   3.137   3.710   2.576  0.3339 -0.7586 -0.6847
14263SOL     OW48880   6.929   0.045   5.089  0.3612 -0.5623 -0.0564
14263SOL    HW148881   6.994   0.048   5.019  0.4970 -1.1270  0.0464
14263SOL    HW248882   6.846   0.062   5.045  0.0999 -3.2825 -0.7824
14264SOL     OW48883   4.428   6.981   7.878  0.3405 -0.3514  0.0790
14264SOL    HW148884   4.383   7.015   7.956 -0.0438 -2.4152  0.8296
14264SOL    HW248885   4.517   6.965   7.908 -0.1472 -2.4598  0.5848
14265SOL     OW48886  10.692   1.167   3.663 -0.1905  0.5328 -0.3725
14265SOL    HW148887  10.746   1.194   3.737  0.2693 -2.6089  0.6076
14265SOL    HW248888  10.737   1.202   3.586  0.3770  2.2766  0.6954
14266SOL     OW48889   4.460   3.691   6.844 -0.4006  0.2823 -0.5031
14266SOL    HW148890   4.411   3.616   6.877 -1.9424  1.5983  0.3078
14266SOL    HW248891   4.408   3.767   6.869 -1.3406  1.4973 -5.1505
14267SOL     OW48892  10.260   0.428   7.897 -0.0221 -0.0470  0.3281
14267SOL    HW148893  10.185   0.377   7.926 -0.0580 -0.2305 -0.0799
14267SOL    HW248894  10.242   0.517   7.926  0.0084 -0.2551  0.9867
14268SOL     OW48895   4.424   9.642   3.753  0.1207  0.0051  0.2884
14268SOL    HW148896   4.508   9.660   3.712 -0.8645  2.3139 -0.9168
14268SOL    HW248897   4.388   9.569   3.704  0.8944 -0.2349  0.0598
14269SOL     OW48898   2.474   7.710   9.756  0.3309 -0.5320 -0.3325
14269SOL    HW148899   2.428   7.720   9.840  1.2050  0.9373 -0.0036
14269SOL    HW248900   2.516   7.624   9.763 -2.0001 -1.7917 -0.5114
14270SOL     OW48901   7.936   2.307   4.286  0.0213  0.6479  0.4317
14270SOL    HW148902   7.912   2.311   4.193 -3.2155  2.4565  1.2052
14270SOL    HW248903   7.931   2.214   4.307 -0.3063  0.3187 -0.9426
14271SOL     OW48904   2.446   3.309   8.024  0.1356  0.2149  0.7908
14271SOL    HW148905   2.461   3.324   7.931 -0.6049  0.3868  0.6941
14271SOL    HW248906   2.351   3.298   8.032  0.4092 -2.7992  1.1030
14272SOL     OW48907   5.078   0.616   3.356  0.1219 -0.4115  0.0940
14272SOL    HW148908   4.998   0.636   3.406  0.8330 -0.5752  1.3298
14272SOL    HW248909   5.117   0.542   3.402  1.3558  0.1050 -0.0841
14273SOL     OW48910   2.774   2.076   4.626  0.0176  0.3435  0.6639
14273SOL    HW148911   2.737   2.087   4.538 -1.4561 -2.0874  0.8917
14273SOL    HW248912   2.718   2.129   4.683  0.2669  0.9905  0.3198
14274SOL     OW48913   5.765   6.909   0.456  0.1452 -0.0378 -0.5873
14274SOL    HW148914   5.720   6.850   0.396  0.3069  0.8112 -1.5636
14274SOL    HW248915   5.855   6.878   0.459 -0.2710 -1.2316  0.7215
14275SOL     OW48916   8.385   4.556   9.565  0.0171  0.0228 -0.1053
14275SOL    HW148917   8.395   4.464   9.590  0.1323  0.3479  1.0886
14275SOL    HW248918   8.290   4.570   9.565  0.0345  0.1859  0.8078
14276SOL     OW48919   2.029   8.198   9.453 -0.4435  0.0740  0.1074
14276SOL    HW148920   1.946   8.219   9.495 -2.3952 -1.6083 -2.5838
14276SOL    HW248921   2.015   8.220   9.361  2.8105  1.4814 -0.1905
14277SOL     OW48922   4.911   3.487   4.136  0.0470 -0.1792  0.0595
14277SOL    HW148923   4.877   3.403   4.105 -0.1809 -0.3840  0.8302
14277SOL    HW248924   4.871   3.498   4.223  1.9924 -0.4657  1.0571
14278SOL     OW48925   2.086   8.424   2.332 -0.5629 -0.1819  0.1700
14278SOL    HW148926   2.169   8.378   2.321 -0.8356 -1.0137  1.3780
14278SOL    HW248927   2.105   8.493   2.395 -0.6240  0.0520 -0.0713
14279SOL     OW48928  10.752   8.377   2.120  0.1162 -0.0172  0.3808
14279SOL    HW148929  10.796   8.414   2.197  3.8402 -3.2409  0.0868
14279SOL    HW248930  10.669   8.342   2.153 -0.0699  1.8596  2.0659
14280SOL     OW48931   9.615  10.665   9.551  0.4831 -0.2377  0.8928
14280SOL    HW148932   9.705  10.697   9.545  0.7475 -1.1021 -0.0766
14280SOL    HW248933   9.573  10.699   9.472 -0.3694  1.1024  1.8965
14281SOL     OW48934   9.580  10.396   9.924 -0.1653  0.0367 -0.0381
14281SOL    HW148935   9.622  10.452   9.988 -0.8012  0.4629  0.0128
14281SOL    HW248936   9.634  10.404   9.845  1.0795 -1.1014  0.6479
14282SOL     OW48937   0.517   2.675   4.677 -0.0880 -0.3656  0.1237
14282SOL    HW148938   0.442   2.685   4.736 -0.1966  2.2997 -0.3236
14282SOL    HW248939   0.535   2.581   4.676 -2.4829 -0.9206  1.3944
14283SOL     OW48940   2.494   3.362   7.734 -0.1861  0.4499  0.5127
14283SOL    HW148941   2.551   3.409   7.674  0.4717 -0.0938  0.6971
14283SOL    HW248942   2.466   3.285   7.685  0.0549  0.1976  0.7629
14284SOL     OW48943   1.958   6.046   1.184 -0.6592  0.3226  0.3500
14284SOL    HW148944   1.959   5.966   1.237 -1.7007 -1.3261 -1.9382
14284SOL    HW248945   1.868   6.077   1.188 -0.5784  0.5918  0.1144
14285SOL     OW48946  10.117   2.563   3.081 -0.4027  0.1909 -0.0763
14285SOL    HW148947  10.037   2.513   3.063 -0.5097  0.8997 -1.7585
14285SOL    HW248948  10.088   2.634   3.138 -0.5599 -0.7277  1.0111
14286SOL     OW48949   9.041  10.673   5.147 -0.1271  0.5708  0.3177
14286SOL    HW148950   9.131  10.665   5.116 -0.7123 -1.4315 -1.1171
14286SOL    HW248951   9.002  10.741   5.092 -0.1018 -0.2799 -0.8132
14287SOL     OW48952  10.168  10.292   3.078  0.1559 -0.1365 -0.0004
14287SOL    HW148953  10.207  10.364   3.028 -1.1394 -0.8853 -2.1901
14287SOL    HW248954  10.206  10.301   3.166  2.0183  1.6274 -0.9104
14288SOL     OW48955   8.851   0.042  10.586 -0.3083 -0.1302 -0.7701
14288SOL    HW148956   8.809  -0.002  10.660 -0.7555  0.4129 -0.6929
14288SOL    HW248957   8.934  -0.004  10.574 -0.4962 -0.5969 -0.3045
14289SOL     OW48958   1.908   3.752   0.080  0.0678  0.3001  0.2211
14289SOL    HW148959   1.972   3.813   0.117  0.1867  0.1606  0.2439
14289SOL    HW248960   1.890   3.690   0.151  1.1911 -0.6862 -0.3252
14290SOL     OW48961   6.790  10.291   0.079  0.3582  0.3319 -0.9103
14290SOL    HW148962   6.843  10.300   0.158 -0.2033  1.2837 -0.6278
14290SOL    HW248963   6.718  10.353   0.091 -0.9408 -1.0621 -1.1949
14291SOL     OW48964   0.555   3.038  10.293  0.2460 -0.4994  0.2352
14291SOL    HW148965   0.508   2.958  10.270  2.0965 -1.3862 -0.6487
14291SOL    HW248966   0.520   3.105  10.233  0.1100 -1.1376 -0.4072
14292SOL     OW48967   3.995   3.414   7.251 -0.0799  0.7878 -0.0438
14292SOL    HW148968   3.987   3.325   7.217 -2.1659  0.7046  0.5242
14292SOL    HW248969   3.920   3.424   7.310  0.2247  2.8489  0.0731
14293SOL     OW48970   7.519  10.662   6.260 -0.4215  0.8930 -0.1561
14293SOL    HW148971   7.566  10.734   6.303 -0.2857  0.2284  0.8360
14293SOL    HW248972   7.437  10.654   6.309 -0.4343  0.3808 -0.2538
14294SOL     OW48973   8.974   6.587   4.616 -0.0665 -0.3109 -0.4874
14294SOL    HW148974   8.976   6.528   4.541  0.7698  1.3327 -1.8152
14294SOL    HW248975   8.889   6.631   4.610 -0.0035 -0.1847 -0.4522
14295SOL     OW48976   4.777   4.166   0.415  0.1377 -0.1763 -0.1617
14295SOL    HW148977   4.866   4.152   0.383  0.6230  0.0074  1.0371
14295SOL    HW248978   4.732   4.084   0.396  0.8178 -0.6031  0.0209
14296SOL     OW48979   3.798   2.779   2.097 -0.3379  0.8392  0.3262
14296SOL    HW148980   3.729   2.722   2.131  0.3640 -0.5985 -0.5131
14296SOL    HW248981   3.856   2.794   2.172 -0.3764  0.1695  0.5012
14297SOL     OW48982   1.858   3.128   0.696  0.8243  0.1828 -0.7184
14297SOL    HW148983   1.939   3.098   0.654  0.8478 -0.3642 -0.2973
14297SOL    HW248984   1.843   3.065   0.766  0.5604  0.8497 -0.1676
14298SOL     OW48985   3.251   4.212   2.000  0.3175 -0.1577 -0.2257
14298SOL    HW148986   3.197   4.176   1.930 -0.8689  0.5468  0.2988
14298SOL    HW248987   3.198   4.282   2.037  1.5095  0.4009  0.4660
14299SOL     OW48988   3.729   2.660   6.046 -0.4717 -0.0369  0.2560
14299SOL    HW148989   3.783   2.581   6.047  0.7130  0.7410  0.0610
14299SOL    HW248990   3.703   2.669   5.954 -1.0981 -0.5106  0.3814
14300SOL     OW48991   3.876   6.024   5.440  0.1696 -0.3710 -0.1886
14300SOL    HW148992   3.787   6.054   5.459 -0.3060 -1.7747 -0.1496
14300SOL    HW248993   3.920   6.103   5.407 -1.4164  0.0950 -1.3271
14301SOL     OW48994   3.955   7.296  10.717  0.2614 -0.2332 -0.0202
14301SOL    HW148995   3.952   7.360  10.646  1.9798 -1.3787 -1.2195
14301SOL    HW248996   3.876   7.244  10.705 -0.2985  0.6019 -0.0657
14302SOL     OW48997  10.329   2.662   6.959 -0.3185  0.3315 -0.1711
14302SOL    HW148998  10.409   2.644   6.911  0.5653  0.1644  1.3087
14302SOL    HW248999  10.259   2.636   6.899  0.7552 -0.8296 -0.9838
14303SOL     OW49000   6.462   0.289   9.298  0.0176  0.4037 -0.2352
14303SOL    HW149001   6.400   0.251   9.360  0.4816  0.2539  0.1344
14303SOL    HW249002   6.408   0.310   9.221 -0.4976  0.3030  0.0933
14304SOL     OW49003   6.553   8.108   0.150  0.3537  0.2169 -0.0226
14304SOL    HW149004   6.602   8.061   0.083  0.7395  0.4167  0.1149
14304SOL    HW249005   6.505   8.175   0.101 -0.2490 -0.3507 -0.2257
14305SOL     OW49006  10.318   7.490   5.004  0.0492  0.3353 -0.5556
14305SOL    HW149007  10.377   7.458   4.936  0.0453  0.5830 -0.6758
14305SOL    HW249008  10.375   7.533   5.068  0.3889 -2.1928  0.9842
14306SOL     OW49009   9.808   4.667  10.706  0.6230 -0.3517 -0.1075
14306SOL    HW149010   9.827   4.669  10.612 -3.2953  2.6094 -1.0824
14306SOL    HW249011   9.713   4.673  10.712  0.6736 -0.6202  4.1241
14307SOL     OW49012   6.277  10.534   2.804  0.0071 -0.3848  0.0630
14307SOL    HW149013   6.248  10.623   2.819 -2.0466 -0.9496 -0.2782
14307SOL    HW249014   6.286  10.496   2.891 -2.2797 -0.7495  0.2105
14308SOL     OW49015   7.506   4.075   2.583 -0.3835  0.3200  0.2979
14308SOL    HW149016   7.593   4.081   2.622  0.6120 -0.2974 -1.7186
14308SOL    HW249017   7.486   3.982   2.584 -1.1739  0.4796  0.9829
14309SOL     OW49018   9.549  10.673   1.851 -0.6900  0.8061  0.4358
14309SOL    HW149019   9.632  10.708   1.881 -0.4210  0.5275  0.0246
14309SOL    HW249020   9.484  10.739   1.876 -0.4916  0.5286  1.7245
14310SOL     OW49021   2.098   4.764   9.619 -0.1915  0.4244  0.5910
14310SOL    HW149022   2.011   4.792   9.647  0.1139  1.6911  0.3611
14310SOL    HW249023   2.157   4.832   9.655  0.6257 -0.0793  0.2229
14311SOL     OW49024   6.605   3.584   7.589  0.2655  0.0884  0.1082
14311SOL    HW149025   6.532   3.563   7.531 -1.2236 -0.2925  2.0267
14311SOL    HW249026   6.608   3.680   7.590 -2.8211  0.2880  2.9645
14312SOL     OW49027   9.412   9.269   0.138  0.0347 -0.0227 -0.1951
14312SOL    HW149028   9.383   9.194   0.189  1.4447 -1.3651 -1.2744
14312SOL    HW249029   9.350   9.274   0.066 -0.2074  0.0074  0.0146
14313SOL     OW49030   6.867   2.085   9.527 -0.0760 -0.3804  0.4587
14313SOL    HW149031   6.912   2.031   9.462  0.0259  1.5433 -1.1778
14313SOL    HW249032   6.814   2.145   9.475 -1.9869 -0.3918  2.2631
14314SOL     OW49033  10.478  10.121   9.551  0.6472 -0.4309  0.1751
14314SOL    HW149034  10.412  10.096   9.616  0.6395 -2.1325 -0.4323
14314SOL    HW249035  10.510  10.037   9.516  3.5690  0.2586  0.8698
14315SOL     OW49036   7.350  10.752   0.491  0.0162  0.4238  0.4483
14315SOL    HW149037   7.326  10.671   0.536  0.3397  0.0899  0.0222
14315SOL    HW249038   7.444  10.761   0.505 -0.3130  1.7675  2.1660
14316SOL     OW49039   4.707   0.146   4.532  0.0818 -0.5173 -0.0692
14316SOL    HW149040   4.701   0.237   4.563 -1.3574 -0.3284 -0.8470
14316SOL    HW249041   4.683   0.093   4.608  1.0497 -0.2715  0.4252
14317SOL     OW49042   2.359  10.802   2.496  0.2558  1.1007  0.1153
14317SOL    HW149043   2.305  10.723   2.506  0.1716  1.0375 -0.7570
14317SOL    HW249044   2.446  10.775   2.524  0.0656  0.9032  0.5200
14318SOL     OW49045   7.728   2.972   6.275  0.5184 -0.9193  0.4533
14318SOL    HW149046   7.691   2.952   6.189  1.8972  0.3376 -0.4703
14318SOL    HW249047   7.750   3.065   6.271  3.9033 -1.5864  0.8405
14319SOL     OW49048   0.882  10.353   6.567 -0.2604 -0.0419  0.1641
14319SOL    HW149049   0.789  10.375   6.571 -0.3439 -0.4834  0.9917
14319SOL    HW249050   0.914  10.395   6.487 -0.6014  2.2455  1.1691
14320SOL     OW49051   9.103   1.156   5.556  0.0375 -0.4424 -0.5960
14320SOL    HW149052   9.154   1.151   5.475  0.6571  0.6642 -0.2938
14320SOL    HW249053   9.141   1.230   5.604  1.3966 -2.6194  1.9186
14321SOL     OW49054   0.335   7.143   6.776 -0.0810 -0.0504 -0.0844
14321SOL    HW149055   0.296   7.134   6.863  0.1548 -0.0743  0.0187
14321SOL    HW249056   0.340   7.053   6.743 -0.0846 -0.0503 -0.0852
14322SOL     OW49057   0.053   5.359  10.457  0.0859 -0.8339 -0.2912
14322SOL    HW149058   0.120   5.316  10.510  0.4029 -1.3691 -1.0997
14322SOL    HW249059   0.103   5.403  10.388 -0.3602 -0.6734 -0.5146
14323SOL     OW49060   7.769   7.208   1.255  0.2999  0.0548  0.1484
14323SOL    HW149061   7.834   7.159   1.204 -2.2743 -0.3157 -3.1230
14323SOL    HW249062   7.751   7.153   1.331  0.9267 -1.7818 -0.9684
14324SOL     OW49063   1.462   8.747   3.161  0.6289  0.0998 -0.1326
14324SOL    HW149064   1.543   8.697   3.172  1.2645  1.2465  0.6989
14324SOL    HW249065   1.410   8.725   3.238  0.4926 -0.0278 -0.2610
14325SOL     OW49066   2.457   4.097   7.740 -0.0206  0.3797 -0.2698
14325SOL    HW149067   2.460   4.141   7.655 -1.0169  1.1354  0.0650
14325SOL    HW249068   2.391   4.028   7.728  0.0209  0.3263 -0.1892
14326SOL     OW49069   5.121   4.860   1.666  0.1783 -0.2791  0.2103
14326SOL    HW149070   5.208   4.898   1.668  0.9735 -1.9569 -0.7238
14326SOL    HW249071   5.062   4.935   1.672  1.6432  1.2195 -2.4332
14327SOL     OW49072   1.698   3.992   1.581  0.4295 -0.0307  0.3658
14327SOL    HW149073   1.698   3.912   1.528  0.8809  0.1312  0.1195
14327SOL    HW249074   1.752   3.970   1.657 -0.7305 -0.4701  1.0863
14328SOL     OW49075   9.689   2.046   5.681 -0.3044 -0.4909  0.1887
14328SOL    HW149076   9.643   2.129   5.692  1.5569  0.4589  1.2153
14328SOL    HW249077   9.701   2.037   5.587 -1.4389 -0.1562 -0.0077
14329SOL     OW49078   9.116   7.227   9.419  0.0733  0.4832 -0.1930
14329SOL    HW149079   9.030   7.198   9.451 -0.4916 -0.2889 -2.2977
14329SOL    HW249080   9.166   7.147   9.409  0.5675  0.8077 -0.3319
14330SOL     OW49081   4.246  10.466   4.405 -0.1147 -0.3703 -0.0532
14330SOL    HW149082   4.270  10.555   4.429  0.5658 -0.6130  0.1952
14330SOL    HW249083   4.316  10.438   4.345 -2.0521  0.4293 -2.8704
14331SOL     OW49084   5.669   0.004   4.047  0.6151  0.1197 -0.1346
14331SOL    HW149085   5.605   0.064   4.009  0.4119 -0.6184 -0.9932
14331SOL    HW249086   5.657   0.012   4.141 -0.9900 -0.2578 -0.2883
14332SOL     OW49087   2.585   1.475  10.567  0.2675 -0.2394  0.4979
14332SOL    HW149088   2.626   1.404  10.517  0.8157  0.4467 -0.0427
14332SOL    HW249089   2.543   1.431  10.641  1.5591 -1.0167  0.7904
14333SOL     OW49090   9.079   5.221   9.557  0.2044 -0.4504 -0.8397
14333SOL    HW149091   9.119   5.135   9.559  1.0835 -0.0676 -1.1395
14333SOL    HW249092   9.051   5.238   9.647 -1.5333 -1.7328 -1.0943
14334SOL     OW49093   3.710  10.041   1.291  0.3492 -0.4644 -0.5988
14334SOL    HW149094   3.758  10.117   1.259 -1.6882  1.4437  0.5755
14334SOL    HW249095   3.620  10.056   1.262 -0.1276 -2.3999 -0.2350
14335SOL     OW49096   7.553   7.250   4.828  0.0959  0.0067  0.3169
14335SOL    HW149097   7.536   7.174   4.772  1.1610 -0.8125  1.0462
14335SOL    HW249098   7.504   7.232   4.908  0.7615 -0.1786  0.6904
14336SOL     OW49099   0.861   2.263   0.163 -0.3665  0.4835 -0.0808
14336SOL    HW149100   0.776   2.280   0.122 -0.3950 -0.6032 -0.5048
14336SOL    HW249101   0.883   2.346   0.207 -1.3566  0.9713 -0.4594
14337SOL     OW49102   3.868   1.855   0.133 -0.1413 -0.3736  0.3048
14337SOL    HW149103   3.776   1.882   0.126  0.4238  2.5661  2.0940
14337SOL    HW249104   3.866   1.775   0.184 -1.7392 -0.8285 -0.4122
14338SOL     OW49105   2.377  10.793   5.262 -0.0042 -0.0022 -0.4829
14338SOL    HW149106   2.434  10.864   5.231 -0.9590  0.9757 -0.0799
14338SOL    HW249107   2.433  10.741   5.319  0.9098  0.0159 -1.3315
14339SOL     OW49108   1.513   7.103   8.182  0.5616 -0.1871 -0.0811
14339SOL    HW149109   1.599   7.105   8.224 -0.2668  0.0681  1.6849
14339SOL    HW249110   1.532   7.084   8.090  2.5678  0.9656  0.0421
14340SOL     OW49111   9.949   0.883   9.411 -0.4414  0.2786  0.4223
14340SOL    HW149112   9.981   0.914   9.496  2.2089 -0.9262 -0.0176
14340SOL    HW249113   9.952   0.959   9.354 -0.4711  0.6929  0.9711
14341SOL     OW49114   6.233   4.622   0.902  0.2689 -0.3286  0.5618
14341SOL    HW149115   6.188   4.705   0.889 -0.3108 -0.6304  0.5888
14341SOL    HW249116   6.299   4.619   0.832 -2.6737 -1.8400 -2.4239
14342SOL     OW49117   5.446   1.059   4.783  0.2937 -0.0550 -0.0855
14342SOL    HW149118   5.402   1.132   4.827 -0.3876 -0.7085  0.3407
14342SOL    HW249119   5.482   1.097   4.703  0.2608  0.8272  0.3064
14343SOL     OW49120   5.059   7.632   6.107  0.2409  0.4196 -0.1012
14343SOL    HW149121   5.005   7.698   6.063 -1.8368  0.0350  1.6930
14343SOL    HW249122   5.075   7.566   6.040 -3.1608 -0.3507 -0.3468
14344SOL     OW49123   0.768   2.684   9.784  0.5032  0.0967  0.1079
14344SOL    HW149124   0.754   2.590   9.773 -0.4931  0.3104 -0.6113
14344SOL    HW249125   0.692   2.724   9.742  0.4653  1.2094  1.1931
14345SOL     OW49126   4.236   6.792   6.116  0.0902  0.0544  0.1934
14345SOL    HW149127   4.327   6.768   6.100  0.1988  0.7494 -0.2947
14345SOL    HW249128   4.203   6.821   6.031 -0.7914 -0.8039  0.2192
14346SOL     OW49129   0.187   6.420   9.856 -0.1215 -0.1784 -0.3961
14346SOL    HW149130   0.230   6.506   9.849 -0.8146  0.3364  1.2716
14346SOL    HW249131   0.200   6.394   9.947 -0.3294 -1.6438 -0.7710
14347SOL     OW49132   3.684   2.077   8.367 -0.0658  0.5591  0.2490
14347SOL    HW149133   3.768   2.095   8.325  0.4896 -2.1590  0.0137
14347SOL    HW249134   3.620   2.125   8.314  0.7924 -1.3555 -2.7624
14348SOL     OW49135   9.710   3.960   9.039  0.1628  0.2601 -0.3612
14348SOL    HW149136   9.628   3.915   9.021 -0.2144  0.7601  0.0706
14348SOL    HW249137   9.730   3.939   9.130 -0.6498  1.9110  0.2293
14349SOL     OW49138   5.552   4.044   4.529 -0.7693  0.0976  0.0994
14349SOL    HW149139   5.579   4.070   4.441 -1.2967  0.7532  0.1256
14349SOL    HW249140   5.605   3.966   4.549  0.2035  0.6433 -0.3211
14350SOL     OW49141   0.973   7.283   6.571  0.5248  0.0115  0.2066
14350SOL    HW149142   0.946   7.372   6.551  1.0718  0.3525  0.9511
14350SOL    HW249143   1.040   7.263   6.506  1.4163  0.6719  0.8865
14351SOL     OW49144   5.579   4.380   5.917  0.5209  0.5890 -0.2774
14351SOL    HW149145   5.605   4.292   5.946  0.7583  1.2444  1.5842
14351SOL    HW249146   5.652   4.437   5.943  0.0938  1.4503 -0.9174
14352SOL     OW49147   3.022   7.316   9.362  0.7709  0.7293 -0.6741
14352SOL    HW149148   3.025   7.375   9.437  1.3434  0.3969 -0.4239
14352SOL    HW249149   3.109   7.324   9.322  0.7134  0.3705 -0.8755
14353SOL     OW49150   9.372   9.014   6.602  0.1232 -0.1809  0.0757
14353SOL    HW149151   9.461   9.017   6.566 -0.3151  0.8412 -0.9854
14353SOL    HW249152   9.350   9.105   6.619 -1.8216 -0.0176 -2.5779
14354SOL     OW49153   0.941   7.117   3.299 -0.1133  0.5412  0.0721
14354SOL    HW149154   0.964   7.203   3.263  0.2444  0.2893 -0.3041
14354SOL    HW249155   0.990   7.054   3.247 -1.3606  0.0101 -0.5139
14355SOL     OW49156   1.910   6.759   5.749  0.0730 -0.6907  1.0059
14355SOL    HW149157   1.825   6.773   5.790  0.1161  0.8325  0.6484
14355SOL    HW249158   1.973   6.769   5.820 -0.0237 -1.8187  1.2708
14356SOL     OW49159   6.308   5.258   5.877  0.2731  0.1514 -0.2489
14356SOL    HW149160   6.333   5.342   5.916 -0.1688 -0.0470  0.4797
14356SOL    HW249161   6.392   5.216   5.854  0.8716 -1.2026  3.6024
14357SOL     OW49162   6.562  10.915   0.422  0.2511  0.0614  0.1569
14357SOL    HW149163   6.563  10.819   0.428  1.2891  0.0828  0.5004
14357SOL    HW249164   6.488  10.941   0.476  0.1843 -0.5329  0.3667
14358SOL     OW49165   4.839   8.563   2.229 -0.2251  0.6260  0.0790
14358SOL    HW149166   4.855   8.469   2.222  0.9750  0.8597 -0.7129
14358SOL    HW249167   4.794   8.573   2.313 -0.8439 -0.6991 -0.0641
14359SOL     OW49168   6.593   9.088   2.572  0.1497 -0.0356  0.1617
14359SOL    HW149169   6.501   9.101   2.550  0.5354  0.2781 -1.3775
14359SOL    HW249170   6.595   9.086   2.668 -1.5316 -0.6776  0.2216
14360SOL     OW49171   0.924   9.947  10.078 -0.4636 -0.0775 -0.4195
14360SOL    HW149172   0.888  10.002  10.147 -0.6693 -3.3323  2.3348
14360SOL    HW249173   0.851   9.934  10.017 -1.1443  0.6356  0.2192
14361SOL     OW49174   6.536   7.291   3.726 -0.8271  0.4081 -0.1790
14361SOL    HW149175   6.548   7.254   3.814 -1.8878  1.6140  0.5131
14361SOL    HW249176   6.609   7.353   3.717 -1.3611  1.1373  0.3515
14362SOL     OW49177   9.268   0.126   0.797  0.0710  0.5585 -0.1981
14362SOL    HW149178   9.278   0.032   0.811 -1.5464  0.1254 -1.6545
14362SOL    HW249179   9.279   0.164   0.884 -0.9309 -1.1456  0.7371
14363SOL     OW49180   6.859   2.244   3.251  1.0430  0.0934  0.6146
14363SOL    HW149181   6.828   2.284   3.332  0.9998 -1.2828  1.2949
14363SOL    HW249182   6.783   2.244   3.193  0.5771 -0.5440  1.2148
14364SOL     OW49183   4.061   3.892   0.749  0.6308 -0.2219  0.1440
14364SOL    HW149184   4.100   3.877   0.663 -0.1533 -0.4297 -0.1898
14364SOL    HW249185   3.976   3.931   0.729  0.3072 -0.5774  0.8137
14365SOL     OW49186   5.884   4.021   4.868 -0.0418 -0.2929  0.2200
14365SOL    HW149187   5.817   3.960   4.836  1.1719 -0.8224 -1.4431
14365SOL    HW249188   5.891   4.002   4.961 -0.4101 -2.0196 -0.0690
14366SOL     OW49189   1.453   4.767   2.717 -0.1010 -0.6007 -0.0956
14366SOL    HW149190   1.536   4.813   2.729 -0.9513  1.2371 -0.8502
14366SOL    HW249191   1.402   4.788   2.795 -0.2204 -0.9265 -0.0824
14367SOL     OW49192   1.679   6.633   9.547 -0.6098 -0.8992 -0.2599
14367SOL    HW149193   1.698   6.547   9.511  1.8359  0.3736 -2.3880
14367SOL    HW249194   1.657   6.687   9.470 -0.9241  0.6470  0.8651
14368SOL     OW49195   7.162   1.474   7.142  0.2943 -0.8654 -0.1222
14368SOL    HW149196   7.116   1.448   7.222  0.4414 -0.8430 -0.0297
14368SOL    HW249197   7.255   1.464   7.163  0.3270 -1.1984 -0.4043
14369SOL     OW49198   0.404   5.268   6.695 -0.2942 -0.2918  0.0599
14369SOL    HW149199   0.421   5.233   6.782  1.0348 -2.0010 -0.8223
14369SOL    HW249200   0.313   5.299   6.699 -0.4295 -0.8117  1.8841
14370SOL     OW49201   6.365   9.020   7.096  0.5248  0.4154  0.5962
14370SOL    HW149202   6.291   9.008   7.155 -1.5236 -1.4194 -2.0893
14370SOL    HW249203   6.356   9.110   7.065 -0.6368  0.2060  0.2784
14371SOL     OW49204   7.630   0.979   1.937 -0.4425 -0.1162  0.5503
14371SOL    HW149205   7.682   0.930   1.873 -0.1924 -0.2742  0.8667
14371SOL    HW249206   7.569   0.914   1.972 -0.3083 -0.1296  0.7603
14372SOL     OW49207   0.199   5.725   2.885 -0.8389 -0.0770 -0.0188
14372SOL    HW149208   0.213   5.820   2.889  0.8699 -0.2711 -0.6964
14372SOL    HW249209   0.255   5.690   2.954 -1.9635 -0.5813  0.6724
14373SOL     OW49210   0.820   5.182   0.612 -0.0429 -0.3806  0.1684
14373SOL    HW149211   0.883   5.242   0.573  0.9473 -1.2175  0.4414
14373SOL    HW249212   0.745   5.237   0.635  0.2648  0.5054 -0.8497
14374SOL     OW49213  10.394   4.669   8.606  0.2284  0.4218  0.0205
14374SOL    HW149214  10.484   4.677   8.639  0.0844 -0.9117  0.7744
14374SOL    HW249215  10.340   4.661   8.685 -0.2726 -1.3395 -0.4565
14375SOL     OW49216   8.111   6.818   2.704  0.1214 -0.0578  0.4030
14375SOL    HW149217   8.085   6.816   2.611 -0.5447  0.9793  0.5475
14375SOL    HW249218   8.037   6.859   2.748  0.9207  0.5344  1.2321
14376SOL     OW49219   4.543   7.764   6.180  0.3246 -0.2456 -0.4020
14376SOL    HW149220   4.575   7.674   6.191  0.8786 -0.3798 -2.5019
14376SOL    HW249221   4.496   7.762   6.096 -1.9325  0.8647  0.7516
14377SOL     OW49222   3.198   9.087   4.969  0.4311  0.5645  0.1755
14377SOL    HW149223   3.263   9.022   4.994  1.0495  1.5065  1.1251
14377SOL    HW249224   3.172   9.063   4.880 -0.5918 -1.9192  1.0778
14378SOL     OW49225   2.116   4.778   5.318 -0.5168  1.0199  0.0714
14378SOL    HW149226   2.195   4.748   5.364 -1.5254  1.3058  2.1022
14378SOL    HW249227   2.054   4.706   5.327 -1.6815  2.1440  1.7233
14379SOL     OW49228   5.898   5.287   7.931  0.3865  0.1947 -0.2856
14379SOL    HW149229   5.994   5.278   7.925  0.3848  0.1835 -0.2956
14379SOL    HW249230   5.885   5.369   7.978  0.4038  0.0514 -0.0301
14380SOL     OW49231   3.354   6.027   1.122  0.0739 -0.2663  0.0480
14380SOL    HW149232   3.435   5.981   1.144  1.3485  1.8373  0.0548
14380SOL    HW249233   3.307   6.033   1.205  0.9803  0.4052  0.5378
14381SOL     OW49234   3.820   5.377  10.904  1.8206  0.1393 -0.2845
14381SOL    HW149235   3.805   5.287  10.872  1.5479  0.8503 -2.2863
14381SOL    HW249236   3.733   5.407  10.932  1.8279 -0.0441 -0.0583
14382SOL     OW49237   1.558   8.727   2.383  0.6504  0.2586  0.2778
14382SOL    HW149238   1.524   8.809   2.348  2.6594  0.6118 -1.0250
14382SOL    HW249239   1.571   8.672   2.306  0.8787 -0.6600  0.9594
14383SOL     OW49240   2.120   9.505   9.970  0.1552 -0.1129 -0.5181
14383SOL    HW149241   2.085   9.591   9.992  1.0978  0.2985 -0.5607
14383SOL    HW249242   2.059   9.443  10.009  0.0273  0.5807  0.4192
14384SOL     OW49243   9.837   8.509   2.966 -0.4492  0.1233 -0.2890
14384SOL    HW149244   9.768   8.447   2.987 -0.7188 -0.1419 -1.8069
14384SOL    HW249245   9.862   8.548   3.050 -1.3062 -0.9513  0.4830
14385SOL     OW49246   8.634   7.173   5.984  0.2904 -0.5870 -0.2737
14385SOL    HW149247   8.701   7.229   6.024  1.2024 -2.1432  0.4748
14385SOL    HW249248   8.592   7.229   5.919  1.9783  0.6224 -0.4038
14386SOL     OW49249  10.451   6.261   2.600  0.2496  0.3963  0.0801
14386SOL    HW149250  10.498   6.192   2.646 -0.3501  0.5620  0.9600
14386SOL    HW249251  10.442   6.228   2.510  1.2233 -0.0319  0.1295
14387SOL     OW49252   1.728   1.484   1.907 -0.0207 -0.3975  0.1099
14387SOL    HW149253   1.633   1.490   1.919 -0.0758 -0.4325 -0.2907
14387SOL    HW249254   1.753   1.570   1.873  0.0217 -0.5415 -0.2265
14388SOL     OW49255  10.287  10.527   7.517 -0.3465  0.5181 -0.0124
14388SOL    HW149256  10.243  10.447   7.490  1.3206 -1.1293  1.8553
14388SOL    HW249257  10.329  10.559   7.437 -1.7789  0.0667 -0.9827
14389SOL     OW49258   5.126   0.232  10.013 -0.6195  0.0947  0.4385
14389SOL    HW149259   5.199   0.184  10.053 -0.4294 -0.4252 -0.4881
14389SOL    HW249260   5.167   0.309   9.974 -0.8946  0.9306  1.7420
14390SOL     OW49261   6.067   2.728   3.067 -0.2882 -0.2678 -0.0466
14390SOL    HW149262   6.127   2.778   3.122 -0.8910 -0.3147  0.6684
14390SOL    HW249263   6.122   2.660   3.028  0.5071  0.8506 -0.9298
14391SOL     OW49264   4.624   8.814   8.676  0.3148  0.5446  0.0675
14391SOL    HW149265   4.661   8.752   8.738 -2.3578  0.2277  1.4672
14391SOL    HW249266   4.661   8.898   8.702 -0.8641  0.4511  2.2557
14392SOL     OW49267   3.257   8.657   4.400 -0.2086  0.0958 -0.1670
14392SOL    HW149268   3.237   8.589   4.335  1.8456 -0.7070 -0.0293
14392SOL    HW249269   3.308   8.722   4.352 -0.8898  0.8189  0.0608
14393SOL     OW49270   6.425   8.770   6.271 -0.2185 -0.7386 -0.2818
14393SOL    HW149271   6.345   8.816   6.294  0.0691 -0.0728 -0.5748
14393SOL    HW249272   6.491   8.839   6.263  0.3264 -1.2503 -0.2884
14394SOL     OW49273   3.721  10.299   1.941  0.0319  0.4125  0.1449
14394SOL    HW149274   3.657  10.237   1.904 -0.3633  1.5082 -1.0962
14394SOL    HW249275   3.694  10.310   2.032 -0.3957 -0.5846  0.1559
14395SOL     OW49276   7.838  10.359   9.305 -0.0123 -0.1472 -0.0461
14395SOL    HW149277   7.748  10.330   9.290 -0.2117  1.2870 -2.1163
14395SOL    HW249278   7.829  10.429   9.369 -0.2422 -0.6486  0.4801
14396SOL     OW49279   8.074   6.229   5.922  0.1225 -0.5644  0.1602
14396SOL    HW149280   8.075   6.238   5.827 -3.4782  1.1565  0.1035
14396SOL    HW249281   8.112   6.310   5.955  3.0236 -1.8802  0.3464
14397SOL     OW49282  10.186   9.585   1.971  0.1840 -0.6332  0.1459
14397SOL    HW149283  10.156   9.517   2.031 -0.2329 -0.1984  0.4430
14397SOL    HW249284  10.148   9.561   1.886 -0.4961 -0.4353  0.3856
14398SOL     OW49285   7.336  10.738   9.761 -0.0164  0.4917  0.5064
14398SOL    HW149286   7.308  10.789   9.684 -1.0941 -0.3394  0.3236
14398SOL    HW249287   7.416  10.694   9.733 -1.6412 -1.7006 -1.0294
14399SOL     OW49288   0.643   7.777   6.745 -0.1614 -0.0163  0.2484
14399SOL    HW149289   0.694   7.852   6.776  0.7862 -0.7286  0.4380
14399SOL    HW249290   0.588   7.753   6.819 -0.5853  0.5811  0.1356
14400SOL     OW49291   7.339   0.518   4.014  0.6258 -0.1324  0.3165
14400SOL    HW149292   7.332   0.588   4.079 -0.9736 -0.2114  0.2743
14400SOL    HW249293   7.286   0.548   3.940  2.7327  0.1191 -1.1453
14401SOL     OW49294   8.108   6.888   9.591  0.1656 -0.9185 -0.0873
14401SOL    HW149295   8.104   6.919   9.682 -0.0957 -2.0150  0.2945
14401SOL    HW249296   8.201   6.878   9.573  0.2765  0.3639 -0.3348
14402SOL     OW49297   2.931   8.050   3.413 -0.0193 -0.0138  0.0353
14402SOL    HW149298   2.841   8.047   3.379 -0.6485 -0.8930  1.6339
14402SOL    HW249299   2.946   7.961   3.446  1.3731  0.1852 -0.0387
14403SOL     OW49300   6.803   2.945   4.533 -0.0416 -0.1673 -0.2645
14403SOL    HW149301   6.875   2.943   4.596  0.8955 -0.1484 -1.2967
14403SOL    HW249302   6.728   2.909   4.580  1.6301 -4.2228 -0.3450
14404SOL     OW49303   4.007   1.404   1.841  0.4751 -0.1720  0.1753
14404SOL    HW149304   3.990   1.455   1.920 -0.2157 -0.7174  0.3859
14404SOL    HW249305   3.945   1.440   1.777 -0.5256 -1.2148  0.5325
14405SOL     OW49306   0.625   7.419   7.334 -0.1368  0.2190 -0.0967
14405SOL    HW149307   0.612   7.378   7.420  0.6805 -0.7243 -0.3985
14405SOL    HW249308   0.629   7.345   7.273 -1.2044  0.8991 -1.0303
14406SOL     OW49309   3.424   1.963   7.631  0.1258  0.1346  0.7279
14406SOL    HW149310   3.417   2.024   7.558  1.0370  0.9061  1.2511
14406SOL    HW249311   3.505   1.915   7.615  0.1095  0.0132  1.0000
14407SOL     OW49312   7.610   9.167   7.811  0.1347  0.0621  0.2119
14407SOL    HW149313   7.670   9.229   7.853  0.7289  0.8403 -1.6924
14407SOL    HW249314   7.656   9.083   7.815  1.3747  0.6449 -1.1989
14408SOL     OW49315   2.912   1.490   6.088  0.0249 -0.7181  0.4196
14408SOL    HW149316   2.938   1.418   6.031 -1.5390 -0.5255 -0.6027
14408SOL    HW249317   2.995   1.534   6.111  0.9186 -2.3641  0.4661
14409SOL     OW49318   9.219   8.075   8.609  0.7479  0.1274 -0.1917
14409SOL    HW149319   9.231   8.126   8.529 -1.1993 -0.6318 -1.0395
14409SOL    HW249320   9.153   8.123   8.659  2.5211  1.0339  1.4269
14410SOL     OW49321   2.823   7.246  10.838 -0.2697  0.3386  0.4692
14410SOL    HW149322   2.827   7.315  10.770 -0.4833  0.3496  0.4660
14410SOL    HW249323   2.750   7.273  10.894  0.4887  0.8213  1.2453
14411SOL     OW49324   7.034   7.733   7.058 -0.2067 -0.3811  0.0696
14411SOL    HW149325   7.094   7.797   7.019 -0.9908 -0.5150 -1.4155
14411SOL    HW249326   6.951   7.780   7.068 -0.2971 -0.6508  0.6789
14412SOL     OW49327   2.194   1.755   6.193  0.1034 -0.2149 -0.5698
14412SOL    HW149328   2.139   1.690   6.237 -1.8906  0.7977 -1.4423
14412SOL    HW249329   2.200   1.827   6.255  1.8067 -0.9271  0.1489
14413SOL     OW49330   4.434   9.068   6.811 -0.4068 -0.4483 -0.3106
14413SOL    HW149331   4.365   9.133   6.826  0.7308  0.6645  0.2801
14413SOL    HW249332   4.448   9.028   6.897  0.0067 -0.3518 -0.3357
14414SOL     OW49333   1.262   3.631  10.806  0.1889  0.4449 -0.1575
14414SOL    HW149334   1.224   3.606  10.722 -1.2732  1.3185  0.2180
14414SOL    HW249335   1.268   3.548  10.855  1.3562 -0.1201 -1.2052
14415SOL     OW49336   3.830   3.468   4.383  0.1256  0.4146 -0.1256
14415SOL    HW149337   3.902   3.433   4.435 -0.8865 -0.4983  0.7127
14415SOL    HW249338   3.868   3.542   4.336  1.0916  1.3126  1.9429
14416SOL     OW49339   5.277   9.527   4.647 -0.6559 -0.0824  1.0498
14416SOL    HW149340   5.225   9.499   4.722 -1.4489  1.0871  0.9604
14416SOL    HW249341   5.215   9.529   4.574 -0.4134  0.9622  0.8605
14417SOL     OW49342   1.387   3.948   1.232 -0.3719  0.5263 -0.1428
14417SOL    HW149343   1.331   3.887   1.280  0.6533 -1.6843 -1.5999
14417SOL    HW249344   1.407   4.017   1.295  0.2509 -1.7972  2.3642
14418SOL     OW49345   3.433   4.027   6.865 -0.2008 -0.0912  0.1035
14418SOL    HW149346   3.463   3.937   6.871 -2.7964 -0.9771  0.8127
14418SOL    HW249347   3.368   4.026   6.795 -2.8994  0.3546  2.4452
14419SOL     OW49348   9.850   0.097   1.808 -0.0637 -0.2090 -0.1905
14419SOL    HW149349   9.843   0.161   1.879  0.5034 -1.0794  0.6603
14419SOL    HW249350   9.936   0.057   1.819  0.8507  0.9204 -2.4802
14420SOL     OW49351   6.047   9.706   8.395 -0.6481  0.5400  0.1396
14420SOL    HW149352   6.005   9.738   8.315 -0.9799  0.3923  0.2505
14420SOL    HW249353   6.010   9.618   8.408 -0.2659  0.3888  0.2127
14421SOL     OW49354  10.816   2.048   7.158 -0.4114  0.0428 -0.0395
14421SOL    HW149355  10.819   2.142   7.179  0.2244 -0.0634  0.3772
14421SOL    HW249356  10.723   2.029   7.145 -0.3664  1.3411 -3.0489
14422SOL     OW49357   5.579   7.800   3.020  0.0652 -0.2290  0.1362
14422SOL    HW149358   5.556   7.708   3.018 -1.7998  0.1495  1.4059
14422SOL    HW249359   5.498   7.845   3.045  0.8216  1.7916 -0.7977
14423SOL     OW49360   4.765   0.373   6.275 -0.5509  0.1252 -0.1064
14423SOL    HW149361   4.720   0.309   6.330  1.4588 -2.6172 -1.3891
14423SOL    HW249362   4.718   0.369   6.191  0.4213 -0.7941 -0.6296
14424SOL     OW49363   1.908   8.215   1.120 -0.1574 -0.3207 -0.1996
14424SOL    HW149364   1.917   8.157   1.044  2.3478  1.7029 -1.6230
14424SOL    HW249365   1.982   8.192   1.176 -1.6313 -1.3640  1.4030
14425SOL     OW49366   4.135   1.232   7.625 -0.3409 -0.1890  0.1522
14425SOL    HW149367   4.193   1.183   7.567 -1.3045 -0.1004 -0.9119
14425SOL    HW249368   4.194   1.293   7.670  0.5551 -0.8790 -0.0434
14426SOL     OW49369   4.987   6.154   5.321 -0.0723  0.6241  0.6664
14426SOL    HW149370   5.008   6.152   5.228 -1.8267 -2.4897  0.1777
14426SOL    HW249371   4.964   6.245   5.339  1.9187  1.6373 -1.4918
14427SOL     OW49372   0.437   9.785   6.876  0.2804  1.2165  0.3537
14427SOL    HW149373   0.520   9.757   6.837 -1.2236  1.0686 -3.0927
14427SOL    HW249374   0.416   9.716   6.940  1.2525 -0.4673 -1.0668
14428SOL     OW49375   1.234   3.620   6.606  0.6325  0.9208  0.0565
14428SOL    HW149376   1.274   3.614   6.692  0.3236 -2.9101  0.1339
14428SOL    HW249377   1.279   3.553   6.554 -3.6499 -1.8857 -0.5938
14429SOL     OW49378   2.247   9.401   1.167 -0.3010  0.7821 -0.4845
14429SOL    HW149379   2.298   9.430   1.091 -1.1008  0.8573 -1.0026
14429SOL    HW249380   2.307   9.345   1.216 -0.3767 -0.8925 -2.2098
14430SOL     OW49381   7.882   1.031   5.518 -0.0327  0.0673 -0.6312
14430SOL    HW149382   7.827   0.973   5.465 -1.9654  2.3125 -1.2131
14430SOL    HW249383   7.950   0.973   5.553 -0.7008 -2.1616 -2.7439
14431SOL     OW49384   5.803   4.161  10.770  0.6683  0.2769 -0.8772
14431SOL    HW149385   5.710   4.174  10.750  0.5469  1.1332  0.1340
14431SOL    HW249386   5.849   4.209  10.701  0.3377  0.5324 -0.9216
14432SOL     OW49387   0.260   2.116   6.007  0.4501  0.2919 -0.2013
14432SOL    HW149388   0.320   2.189   6.022  0.7730 -0.2685  1.4186
14432SOL    HW249389   0.315   2.044   5.977  0.2128  0.5281 -1.2285
14433SOL     OW49390   1.604   1.447   9.547  0.0178  0.4850  0.3278
14433SOL    HW149391   1.543   1.507   9.589 -1.7627 -0.3347 -0.9722
14433SOL    HW249392   1.554   1.368   9.531  1.2102  0.0061 -1.3888
14434SOL     OW49393   2.656   5.413   5.209 -0.3104 -0.6064 -0.1425
14434SOL    HW149394   2.602   5.421   5.130 -0.5074 -0.4793  0.0031
14434SOL    HW249395   2.738   5.457   5.187 -0.1694 -1.0158 -0.4508
14435SOL     OW49396  10.427   6.960   6.991 -0.2541  0.1122  0.3241
14435SOL    HW149397  10.505   7.011   7.013  0.1303 -0.6233  0.7335
14435SOL    HW249398  10.436   6.943   6.897  1.1605 -1.6641  0.7140
14436SOL     OW49399   2.571   0.596   0.393  0.3018 -0.2412 -0.2204
14436SOL    HW149400   2.569   0.690   0.410 -2.3884 -0.5312  1.8006
14436SOL    HW249401   2.651   0.565   0.435 -0.4541  0.7544  2.0978
14437SOL     OW49402   4.181   1.493   7.299  0.2785  0.4242  0.0224
14437SOL    HW149403   4.268   1.533   7.300  0.7738 -0.6238  0.1969
14437SOL    HW249404   4.190   1.418   7.241 -0.3476 -0.0350  0.5058
14438SOL     OW49405   6.577   7.529   6.041 -0.4223 -0.4547 -0.0057
14438SOL    HW149406   6.576   7.615   6.083 -0.5783 -1.0727  1.3202
14438SOL    HW249407   6.654   7.530   5.985 -1.2306  1.0640 -1.1736
14439SOL     OW49408   6.025   5.472   1.454  0.0187  0.9937 -0.3813
14439SOL    HW149409   6.076   5.396   1.481 -0.0144  0.2212 -2.3149
14439SOL    HW249410   5.937   5.456   1.490 -0.0921 -0.0962 -1.0977
14440SOL     OW49411   3.243   4.174   7.061 -0.0557  0.0117  0.0494
14440SOL    HW149412   3.180   4.112   7.025  1.0391 -2.1206  1.6183
14440SOL    HW249413   3.280   4.217   6.984 -1.1648 -0.9402 -1.0724
14441SOL     OW49414   8.934   8.224   2.524  0.4311 -0.4681 -0.9497
14441SOL    HW149415   9.015   8.258   2.486  0.9043  2.0919  2.0094
14441SOL    HW249416   8.961   8.181   2.605 -1.0636 -0.4111 -0.3824
14442SOL     OW49417   2.150   2.571   9.147  0.0026 -0.0230  0.2101
14442SOL    HW149418   2.138   2.488   9.100 -1.9340  1.0990 -1.4582
14442SOL    HW249419   2.198   2.547   9.226 -0.6119 -2.7578 -0.1373
14443SOL     OW49420   8.709   1.356  10.446  0.5196  0.0138 -0.2766
14443SOL    HW149421   8.716   1.396  10.532  1.4719 -0.2420 -0.2248
14443SOL    HW249422   8.632   1.300  10.451 -2.1806  3.3451 -0.9949
14444SOL     OW49423   4.368  10.304   2.363 -0.2488  0.3320  0.1802
14444SOL    HW149424   4.435  10.283   2.298 -0.2626 -0.5595  0.4391
14444SOL    HW249425   4.285  10.293   2.317 -0.3132 -1.4892  0.6179
14445SOL     OW49426   6.144   4.274   7.881 -0.0599  0.7780 -0.5628
14445SOL    HW149427   6.161   4.261   7.787  1.5881  1.9524 -0.4758
14445SOL    HW249428   6.077   4.341   7.885 -0.2638  0.5973 -0.8946
14446SOL     OW49429   7.405   6.457   4.560  0.5410  0.3567  0.2469
14446SOL    HW149430   7.420   6.550   4.545  0.5913  0.3159  0.0348
14446SOL    HW249431   7.380   6.451   4.652 -0.0683  0.6586  0.1119
14447SOL     OW49432   1.670   3.372   6.853  0.0570 -0.0091 -0.2891
14447SOL    HW149433   1.626   3.450   6.820  2.0613  0.8967 -0.9414
14447SOL    HW249434   1.742   3.356   6.792  2.7320  0.6012  2.4495
14448SOL     OW49435   7.920   3.970  10.672 -0.0260  0.5214  0.2111
14448SOL    HW149436   7.889   4.039  10.613  0.3092  0.2088 -0.3253
14448SOL    HW249437   7.899   4.004  10.760  1.8161  2.1651  0.0766
14449SOL     OW49438   7.458   3.945  10.150  0.5446  0.1449 -0.2328
14449SOL    HW149439   7.430   3.935  10.059  1.6758  1.2023 -0.7235
14449SOL    HW249440   7.515   4.022  10.150 -0.7511  1.1998  1.6907
14450SOL     OW49441   2.182   3.093   4.932  0.5384 -0.2225  0.3400
14450SOL    HW149442   2.205   3.176   4.975  1.5352 -0.2154 -0.1836
14450SOL    HW249443   2.185   3.113   4.839  2.6178 -1.2783  0.1316
14451SOL     OW49444   7.849   6.212   5.013  0.3268 -0.3033 -0.3151
14451SOL    HW149445   7.821   6.241   5.100  0.0756 -1.5923  0.0564
14451SOL    HW249446   7.913   6.143   5.030  1.6447  0.6519 -1.1697
14452SOL     OW49447   2.045   5.015   1.050 -0.9464 -0.4525  0.1155
14452SOL    HW149448   1.996   5.044   1.127  1.4201 -0.1020  1.5828
14452SOL    HW249449   2.054   5.094   0.996 -0.4634 -0.0745  0.7319
14453SOL     OW49450   2.483   7.527   0.268 -0.3088 -0.5819  0.1291
14453SOL    HW149451   2.441   7.595   0.215 -0.1659 -0.7483 -0.1919
14453SOL    HW249452   2.555   7.573   0.312 -1.3703 -0.0633  1.4128
14454SOL     OW49453   7.000   4.339   5.801 -0.2716 -0.5817 -0.7074
14454SOL    HW149454   7.093   4.344   5.820 -0.0867 -1.6489 -1.2405
14454SOL    HW249455   6.995   4.333   5.705 -0.8996 -0.2645 -0.7030
14455SOL     OW49456   4.844  10.791   8.737  0.1567  0.2056  0.3083
14455SOL    HW149457   4.785  10.760   8.806 -0.2715 -1.7561 -0.8654
14455SOL    HW249458   4.879  10.874   8.771 -0.1676 -0.5823  2.7903
14456SOL     OW49459   2.438  10.697   7.512 -0.1157 -0.2252 -0.0301
14456SOL    HW149460   2.487  10.627   7.468 -1.0189 -0.7016 -0.3145
14456SOL    HW249461   2.350  10.692   7.473  0.1920  2.0696 -1.1797
14457SOL     OW49462   2.740   7.018   2.408 -0.1045  0.3619  0.0219
14457SOL    HW149463   2.709   6.999   2.496 -0.6140  1.6114  0.1334
14457SOL    HW249464   2.791   7.098   2.417 -0.8584  0.9705 -0.9468
14458SOL     OW49465   6.277  10.452   0.949  0.3660 -0.0645 -0.4956
14458SOL    HW149466   6.312  10.402   1.022  0.9288  0.7512 -0.1944
14458SOL    HW249467   6.281  10.544   0.978 -0.9999  0.1455 -0.8784
14459SOL     OW49468   7.110   4.737   7.202  0.3998  0.2865  0.1476
14459SOL    HW149469   7.118   4.700   7.114  0.0677  1.7771 -0.5450
14459SOL    HW249470   7.018   4.726   7.225  0.2417  0.8794 -0.1704
14460SOL     OW49471   5.985  10.821  10.641  0.0589 -0.1663 -0.1978
14460SOL    HW149472   6.069  10.779  10.658  0.3795  0.1850 -0.8467
14460SOL    HW249473   5.926  10.749  10.620 -0.2562 -0.5704  1.8991
14461SOL     OW49474   7.468   1.645   1.201  0.2065 -0.3291 -0.4454
14461SOL    HW149475   7.406   1.718   1.194 -0.4720 -0.6842  1.2603
14461SOL    HW249476   7.466   1.602   1.116 -0.9291  0.4349 -0.8230
14462SOL     OW49477   4.954   7.585   0.618  0.5216 -0.2016  0.4821
14462SOL    HW149478   5.025   7.647   0.635 -1.5813  2.9084 -1.0290
14462SOL    HW249479   4.890   7.604   0.686 -0.2148 -0.6087 -0.0922
14463SOL     OW49480   8.266   2.984   8.789 -0.1518 -0.0848 -0.4998
14463SOL    HW149481   8.201   3.000   8.858 -0.4031 -0.7223 -0.5848
14463SOL    HW249482   8.345   3.029   8.820 -0.3447 -0.1236  0.0712
14464SOL     OW49483   4.864   1.470   0.912  0.1388  0.3033  0.3605
14464SOL    HW149484   4.789   1.429   0.954 -0.8687  0.8779 -0.8023
14464SOL    HW249485   4.907   1.519   0.982 -1.0791  0.6777  0.8715
14465SOL     OW49486   6.432   1.830   0.861 -0.5352 -0.2560  0.4082
14465SOL    HW149487   6.342   1.835   0.829 -0.8758  1.2211  1.4779
14465SOL    HW249488   6.428   1.769   0.935 -0.6239 -0.2814  0.3824
14466SOL     OW49489  10.589   7.626   9.124  0.3916 -0.2056  0.0564
14466SOL    HW149490  10.581   7.541   9.167  0.2236  0.5468  1.5804
14466SOL    HW249491  10.626   7.684   9.191  3.3043  0.2869 -1.8253
14467SOL     OW49492   3.800   8.631   6.170  0.2853  0.3644 -0.6603
14467SOL    HW149493   3.871   8.680   6.210  0.9985 -1.6028  0.6550
14467SOL    HW249494   3.733   8.626   6.238 -0.0288  0.0331 -0.9847
14468SOL     OW49495   4.351   8.400  10.110 -0.3874  0.0550  0.4576
14468SOL    HW149496   4.268   8.412  10.156 -1.4385 -2.0364 -0.7132
14468SOL    HW249497   4.416   8.390  10.180 -0.9912  2.2257  1.3897
14469SOL     OW49498   1.841   6.642   3.100 -0.4852 -0.3880 -0.1175
14469SOL    HW149499   1.893   6.715   3.067 -0.9103 -0.1625 -0.2871
14469SOL    HW249500   1.784   6.618   3.028  0.2332 -1.4465 -0.3696
14470SOL     OW49501   4.365   5.658   3.171 -0.2339 -0.5296 -0.1610
14470SOL    HW149502   4.334   5.677   3.083  1.9381  1.0154 -0.6740
14470SOL    HW249503   4.424   5.583   3.159  1.4820  0.7975 -0.3997
14471SOL     OW49504   2.717   1.449   6.357  0.1214 -0.0401  0.0699
14471SOL    HW149505   2.783   1.453   6.288  0.1039 -0.9645 -0.0142
14471SOL    HW249506   2.634   1.440   6.310  0.2397 -2.4114  0.1723
14472SOL     OW49507   2.417   4.793   1.234 -0.5527  0.0412 -0.4613
14472SOL    HW149508   2.331   4.835   1.240 -0.5704 -0.1511  0.9950
14472SOL    HW249509   2.456   4.806   1.321  0.0526 -1.6669 -0.4419
14473SOL     OW49510   8.231   0.982   0.976 -0.5289  0.2388  0.3238
14473SOL    HW149511   8.264   0.958   1.063 -0.5041  0.7244  0.4513
14473SOL    HW249512   8.204   0.899   0.937  0.3542 -0.1014  0.4193
14474SOL     OW49513   4.981   8.672   1.101  0.1667 -0.1179  0.3744
14474SOL    HW149514   5.026   8.636   1.177  1.4760  0.9730  0.1701
14474SOL    HW249515   5.019   8.760   1.091 -1.3663  0.4889 -0.3881
14475SOL     OW49516   6.152   4.435   6.295 -0.0460 -0.0360 -0.1446
14475SOL    HW149517   6.115   4.369   6.352 -0.5747  0.6880  0.3654
14475SOL    HW249518   6.115   4.416   6.209  0.2166 -0.7108 -0.1148
14476SOL     OW49519   9.465   2.044   8.821  0.3928 -0.0382 -0.1157
14476SOL    HW149520   9.410   2.079   8.751  1.5048  0.0691 -0.9581
14476SOL    HW249521   9.425   1.960   8.844 -1.3460  0.9823  0.7897
14477SOL     OW49522   9.942   9.932   5.929 -0.5450 -0.4623 -0.2377
14477SOL    HW149523   9.922  10.026   5.932 -1.8891 -0.7287  0.1484
14477SOL    HW249524   9.981   9.918   5.843  1.6266  0.7810  0.4808
14478SOL     OW49525   8.344   4.826   0.644 -0.5705  0.1578 -0.4659
14478SOL    HW149526   8.365   4.813   0.552  2.6666  0.5838  0.1016
14478SOL    HW249527   8.355   4.920   0.658  1.3778 -0.2068  0.7984
14479SOL     OW49528   9.813  10.924   3.994  0.1748 -0.2385  0.3318
14479SOL    HW149529   9.784  10.924   4.085 -0.9447  0.5676 -0.0085
14479SOL    HW249530   9.816  11.017   3.970 -1.5607 -0.4922 -1.0617
14480SOL     OW49531   5.916   0.736   8.899 -0.3877 -0.0860  0.0622
14480SOL    HW149532   5.896   0.652   8.859  2.5154 -0.9339  0.1263
14480SOL    HW249533   5.913   0.798   8.827 -0.3485 -0.6703 -0.4510
14481SOL     OW49534   8.015   2.134   5.535  0.1711 -0.3902  0.4369
14481SOL    HW149535   7.978   2.136   5.623 -0.1872 -0.1778  0.2801
14481SOL    HW249536   8.077   2.207   5.533 -0.1067 -0.1570  0.3846
14482SOL     OW49537   4.444   2.167   9.485  0.2486 -0.6399  0.1304
14482SOL    HW149538   4.453   2.137   9.575  0.6115 -1.0839 -0.0475
14482SOL    HW249539   4.367   2.224   9.486  0.1030 -0.8370  0.6686
14483SOL     OW49540   6.181   3.643   5.369 -0.1914 -0.1071  0.2396
14483SOL    HW149541   6.217   3.556   5.380 -1.3455 -0.5958  0.3412
14483SOL    HW249542   6.154   3.670   5.457 -1.1131 -0.2426  0.0129
14484SOL     OW49543   8.044   3.729  10.023  0.5425  0.6424 -0.5909
14484SOL    HW149544   8.087   3.726  10.108 -1.0717  1.0069  0.2814
14484SOL    HW249545   8.010   3.641  10.010  0.5096  0.6711 -0.7015
14485SOL     OW49546   7.009  10.611   1.858  0.5752 -0.4067 -0.0571
14485SOL    HW149547   6.964  10.693   1.879  0.3632 -0.5954  0.2402
14485SOL    HW249548   6.998  10.557   1.937  1.8092 -0.2429  0.2344
14486SOL     OW49549   6.693   0.418   9.015  0.1454 -0.6311 -0.4536
14486SOL    HW149550   6.694   0.339   9.069  0.1326 -1.3513 -1.4666
14486SOL    HW249551   6.705   0.490   9.076 -1.0465 -1.3292  0.6436
14487SOL     OW49552   7.655   3.816   4.936 -0.1374  0.8668 -0.3316
14487SOL    HW149553   7.586   3.830   5.001 -0.0280  0.6065 -0.1567
14487SOL    HW249554   7.613   3.832   4.852 -1.0086 -1.4124 -0.3947
14488SOL     OW49555   0.047   7.364   0.366 -0.3395 -0.1754 -0.0233
14488SOL    HW149556   0.036   7.384   0.273  0.7916  3.7315  0.5195
14488SOL    HW249557  -0.043   7.359   0.400 -0.9428 -4.3018 -1.5395
14489SOL     OW49558   1.420   9.252   3.718 -0.2972  0.2554 -0.3294
14489SOL    HW149559   1.461   9.339   3.717  0.4140 -0.0882 -1.4846
14489SOL    HW249560   1.328   9.269   3.698  0.3766  0.5038 -3.6757
14490SOL     OW49561  10.582   4.170   9.163 -0.2859 -0.3248 -0.4392
14490SOL    HW149562  10.575   4.085   9.205  0.5712  0.1560  0.7248
14490SOL    HW249563  10.674   4.195   9.173 -0.6241  0.9557 -0.3121
14491SOL     OW49564   4.745   4.602   1.684  0.0825 -0.0523  0.1919
14491SOL    HW149565   4.753   4.531   1.620  0.5251  1.1601 -1.1406
14491SOL    HW249566   4.836   4.621   1.710 -0.1022 -0.6352  1.3220
14492SOL     OW49567   8.903   8.387   4.240 -0.3086  0.2681  0.0674
14492SOL    HW149568   8.867   8.395   4.152  1.1059 -1.3354 -0.7018
14492SOL    HW249569   8.856   8.313   4.278 -1.4729  1.4290  1.0109
14493SOL     OW49570   0.386   1.049   0.925  0.2237 -0.3152  0.5039
14493SOL    HW149571   0.366   0.966   0.881 -0.5576 -0.0914  0.4088
14493SOL    HW249572   0.300   1.088   0.942  0.4435 -0.8557  3.1554
14494SOL     OW49573   3.020   0.535   0.681  0.1167 -0.1163  0.0069
14494SOL    HW149574   3.095   0.595   0.673 -0.3017  0.3173 -0.7586
14494SOL    HW249575   3.051   0.467   0.741  0.2636  1.3790  1.7057
14495SOL     OW49576   2.313   1.826   6.715 -0.0844 -0.1722 -0.1110
14495SOL    HW149577   2.352   1.818   6.629 -2.0194 -1.1060 -0.9615
14495SOL    HW249578   2.254   1.751   6.723 -1.3263  0.8620  1.2561
14496SOL     OW49579   1.246   5.346   7.033 -0.1094 -0.5307 -0.0307
14496SOL    HW149580   1.186   5.414   7.001  0.3661 -0.3480 -0.5764
14496SOL    HW249581   1.311   5.394   7.084 -0.6048 -0.7673  0.8239
14497SOL     OW49582  10.259   9.050   3.092 -0.1590  0.2528 -0.3346
14497SOL    HW149583  10.248   8.979   3.029  0.8835  1.7835 -2.3868
14497SOL    HW249584  10.350   9.041   3.122  0.2272  1.0881 -1.1789
14498SOL     OW49585   6.849   5.886   9.582  0.3107  0.1165  0.2808
14498SOL    HW149586   6.920   5.827   9.605  0.3009  0.8598  2.3987
14498SOL    HW249587   6.785   5.830   9.538  1.5905 -0.8188 -0.4849
14499SOL     OW49588   7.242   1.691   0.229  0.7668 -0.2985  0.0533
14499SOL    HW149589   7.212   1.606   0.260  0.0055 -1.2755 -2.9955
14499SOL    HW249590   7.262   1.677   0.136  0.0053  2.9758 -0.7264
14500SOL     OW49591   9.776   4.925   6.259 -0.4802 -0.4906 -0.3844
14500SOL    HW149592   9.780   4.951   6.351 -1.0966 -0.3908 -0.3793
14500SOL    HW249593   9.853   4.966   6.219 -1.0909  0.8635 -0.2493
14501SOL     OW49594   8.484   3.436   9.021  0.1583 -0.2342 -0.2855
14501SOL    HW149595   8.413   3.372   9.011  0.1244 -0.2069 -0.2116
14501SOL    HW249596   8.542   3.397   9.085 -0.3059  0.2050  0.4168
14502SOL     OW49597   5.736   0.869   4.435 -0.1136 -0.0498  0.6120
14502SOL    HW149598   5.779   0.936   4.381 -1.4006  1.1611  1.0125
14502SOL    HW249599   5.695   0.810   4.371  0.0948  0.1912  0.2499
14503SOL     OW49600   8.311   7.237   9.549  0.3086  0.2803 -0.1743
14503SOL    HW149601   8.280   7.275   9.466 -0.3957  0.2170  0.0494
14503SOL    HW249602   8.237   7.249   9.609 -0.3138 -2.2782 -0.3354
14504SOL     OW49603   0.834   1.900   5.058 -0.2747  0.6502  0.0741
14504SOL    HW149604   0.750   1.928   5.095 -1.7030 -2.5859 -0.3743
14504SOL    HW249605   0.879   1.856   5.129  0.6154  1.4650  0.0329
14505SOL     OW49606   0.679   4.848   7.546 -0.8645  0.0003 -0.2851
14505SOL    HW149607   0.658   4.755   7.552 -2.3232  0.3421  0.1403
14505SOL    HW249608   0.750   4.852   7.481  0.3507 -1.5590  0.8612
14506SOL     OW49609   4.485   5.374  10.320  0.3753 -0.4329 -0.1274
14506SOL    HW149610   4.531   5.383  10.237 -0.5734 -0.0681 -0.6265
14506SOL    HW249611   4.401   5.417  10.306 -1.4834 -3.7386 -0.3369
14507SOL     OW49612   4.535   9.358   4.765 -0.1097 -0.3911  0.1176
14507SOL    HW149613   4.513   9.269   4.793 -1.1669 -0.6877 -1.5401
14507SOL    HW249614   4.455   9.409   4.783 -0.3265 -0.2984 -1.0681
14508SOL     OW49615   5.990   9.706   1.975 -0.4937 -0.1234  0.0950
14508SOL    HW149616   6.064   9.651   1.949 -0.5818 -0.3604  0.3347
14508SOL    HW249617   5.914   9.649   1.968 -0.5828 -0.0414  0.3684
14509SOL     OW49618   2.308   2.251  10.672 -0.0937 -0.2268  0.0127
14509SOL    HW149619   2.314   2.320  10.738 -0.4599  0.6043 -0.7993
14509SOL    HW249620   2.390   2.258  10.623 -0.0751 -0.4687  0.0075
14510SOL     OW49621   2.613   0.749   0.752 -0.0752  0.6184 -0.3173
14510SOL    HW149622   2.542   0.780   0.696 -1.2169 -0.7144  0.3187
14510SOL    HW249623   2.693   0.767   0.702 -0.9827  0.3617 -1.9451
14511SOL     OW49624   3.296  10.045   8.916  0.2070  0.1856 -0.2918
14511SOL    HW149625   3.381  10.006   8.935 -0.4740 -0.7831  0.9433
14511SOL    HW249626   3.301  10.132   8.954  1.0013  0.5560 -1.1890
14512SOL     OW49627   2.704   5.432   5.569  0.0542  0.1328 -0.1146
14512SOL    HW149628   2.613   5.429   5.539 -0.0679  1.0216  0.1337
14512SOL    HW249629   2.714   5.518   5.609  1.0035  0.0406 -0.1121
14513SOL     OW49630   0.509   6.651   0.214  0.2937 -0.0260  0.2542
14513SOL    HW149631   0.479   6.590   0.147  1.2428 -1.4467  1.0923
14513SOL    HW249632   0.566   6.712   0.166 -0.0606 -0.2272 -0.4434
14514SOL     OW49633   3.042   8.226  10.433  0.6544 -0.1221 -0.2791
14514SOL    HW149634   3.078   8.156  10.379 -2.6727 -0.9302 -1.6826
14514SOL    HW249635   3.040   8.303  10.375  0.4770  0.0306 -0.0705
14515SOL     OW49636   0.949   4.698   0.244 -0.1300  0.1600 -0.2607
14515SOL    HW149637   0.983   4.720   0.330 -0.3972 -0.7221  0.0815
14515SOL    HW249638   1.012   4.736   0.183  0.0369  0.8294  0.3141
14516SOL     OW49639   0.152   7.501   6.353 -0.3099 -0.3676 -0.1719
14516SOL    HW149640   0.094   7.557   6.404 -2.8293 -1.4375 -1.6466
14516SOL    HW249641   0.153   7.417   6.400  0.9925 -0.0439  0.4215
14517SOL     OW49642   6.811   3.768  10.085 -0.0322  0.6179 -0.2893
14517SOL    HW149643   6.834   3.858  10.110 -1.6830  1.4973 -1.7320
14517SOL    HW249644   6.871   3.748  10.014  1.8024 -0.3040  1.4130
14518SOL     OW49645   7.958   2.632   0.164  0.5707 -0.2087  0.3260
14518SOL    HW149646   7.884   2.624   0.103  1.2651 -1.8872 -0.3363
14518SOL    HW249647   8.031   2.661   0.109  0.4969  1.2492  0.9421
14519SOL     OW49648   0.497   1.045   9.401 -0.1455  0.1270  0.5362
14519SOL    HW149649   0.550   1.069   9.477  0.1689  1.7474 -0.1687
14519SOL    HW249650   0.413   1.018   9.439  0.7213 -1.2743  1.5795
14520SOL     OW49651   0.258   0.197   7.161  0.3029  0.6841  0.1649
14520SOL    HW149652   0.224   0.127   7.105  1.1078  0.5541 -0.1736
14520SOL    HW249653   0.187   0.261   7.166 -0.1078  0.2655 -0.2539
14521SOL     OW49654   7.864   7.506   7.499 -0.0073 -0.1313 -0.4692
14521SOL    HW149655   7.826   7.466   7.421 -1.1642 -3.0166  1.4278
14521SOL    HW249656   7.817   7.589   7.509 -0.5707 -0.2040 -2.2080
14522SOL     OW49657   7.580   1.186   0.279  0.6944  0.0552 -0.2742
14522SOL    HW149658   7.667   1.189   0.319  0.4904  1.2472  0.1263
14522SOL    HW249659   7.589   1.125   0.206  1.4158 -1.1303  0.7800
14523SOL     OW49660   7.803   2.971   5.360  0.5255 -0.3023 -0.7737
14523SOL    HW149661   7.788   3.059   5.395 -1.7507 -1.5011  1.5768
14523SOL    HW249662   7.780   2.979   5.267  0.1141  1.5143 -0.5648
14524SOL     OW49663   3.444   2.644  10.194 -0.1757 -0.1254 -0.4295
14524SOL    HW149664   3.421   2.615  10.282  0.3305 -0.8261 -0.5204
14524SOL    HW249665   3.530   2.605  10.178 -0.1128  0.2776 -1.1050
14525SOL     OW49666   3.154   2.383   8.465  0.3760 -0.3386 -1.0571
14525SOL    HW149667   3.237   2.387   8.513  1.3940  3.2627 -2.7823
14525SOL    HW249668   3.158   2.300   8.417  3.0552 -0.2605 -1.1102
14526SOL     OW49669   7.108  10.772   9.924 -0.2265 -0.1873 -0.0407
14526SOL    HW149670   7.050  10.817   9.862 -0.0793 -0.6688 -0.5288
14526SOL    HW249671   7.195  10.779   9.885 -0.3549 -1.9099 -0.7278
14527SOL     OW49672   4.301   8.225   3.888 -0.0807  0.0168 -0.1290
14527SOL    HW149673   4.348   8.148   3.856 -2.5142 -1.7764  0.3877
14527SOL    HW249674   4.368   8.276   3.935  1.6962 -1.5024 -0.8769
14528SOL     OW49675   4.794   5.552   3.154 -0.2530  0.4385  0.0072
14528SOL    HW149676   4.722   5.534   3.095 -0.3341  1.7087 -0.3006
14528SOL    HW249677   4.819   5.466   3.188 -1.5323 -0.0776 -0.3072
14529SOL     OW49678   0.560   3.721   5.928  0.0288 -0.0120 -0.0223
14529SOL    HW149679   0.478   3.715   5.976  0.7283  1.4525  1.4930
14529SOL    HW249680   0.625   3.741   5.995  1.3422  0.5330 -1.3916
14530SOL     OW49681   2.267  10.827   8.005  1.1099 -0.8113 -0.1269
14530SOL    HW149682   2.184  10.858   8.040  1.1222  0.2655 -0.9980
14530SOL    HW249683   2.246  10.793   7.918  1.7382  0.5840 -0.8558
14531SOL     OW49684   0.506   6.091   0.048  0.4341  0.4958 -0.1335
14531SOL    HW149685   0.500   6.113  -0.045  0.4276  1.2789  0.0426
14531SOL    HW249686   0.424   6.048   0.069  0.2527  0.7149 -0.3956
14532SOL     OW49687  10.308   2.562   4.710  0.1591  0.6758 -0.0736
14532SOL    HW149688  10.279   2.473   4.688  0.7029  0.7515 -1.1844
14532SOL    HW249689  10.312   2.563   4.805  1.0702 -0.8179 -0.0533
14533SOL     OW49690   2.719   9.504   7.204 -0.4983 -0.1281  0.2051
14533SOL    HW149691   2.629   9.476   7.222  0.0134 -0.5594  2.4031
14533SOL    HW249692   2.773   9.452   7.264  0.9345  2.2846  1.1692
14534SOL     OW49693   4.407   5.961   5.840 -0.6323  0.1212  0.3735
14534SOL    HW149694   4.378   5.986   5.752 -1.4648 -1.3885  0.1795
14534SOL    HW249695   4.336   5.992   5.897 -0.4293  0.4653  0.4443
14535SOL     OW49696   9.897  10.403   5.459 -0.2465 -0.5847 -0.7297
14535SOL    HW149697   9.878  10.477   5.402 -1.3467  1.9599  2.5860
14535SOL    HW249698   9.821  10.345   5.451 -0.5450 -0.0892 -1.5313
14536SOL     OW49699   6.222   8.939   8.714  0.1048 -0.2106 -0.4054
14536SOL    HW149700   6.271   9.004   8.664  1.0010 -1.5725 -1.3548
14536SOL    HW249701   6.280   8.863   8.719 -1.5126 -1.5288 -0.7092
14537SOL     OW49702   6.168   3.722   1.289  0.1587  0.8061 -0.8809
14537SOL    HW149703   6.161   3.817   1.281 -0.5709  1.0610  1.7285
14537SOL    HW249704   6.210   3.708   1.374 -0.5532 -1.1874 -0.7962
14538SOL     OW49705   5.535   8.648   7.078  0.0021  0.1021 -0.0306
14538SOL    HW149706   5.484   8.635   6.997 -1.4730 -0.3321  0.9278
14538SOL    HW249707   5.491   8.593   7.143  1.2217  0.3694  1.0617
14539SOL     OW49708   8.525   2.222   8.601  0.2935 -0.8694 -0.3037
14539SOL    HW149709   8.610   2.182   8.619 -0.5175 -1.9584  1.3999
14539SOL    HW249710   8.461   2.160   8.636 -1.1516  0.5999 -0.1829
14540SOL     OW49711   7.642   0.940   5.123  0.2760  0.2267 -0.4204
14540SOL    HW149712   7.628   1.015   5.066  2.6944 -0.3114 -1.8985
14540SOL    HW249713   7.554   0.911   5.148 -0.9074  0.9367 -3.3587
14541SOL     OW49714   7.416   4.593   7.049  0.5999 -0.0762 -0.3006
14541SOL    HW149715   7.369   4.534   7.108 -0.7638  0.6924 -0.5811
14541SOL    HW249716   7.350   4.656   7.020  1.0834 -0.6621 -2.9541
14542SOL     OW49717  10.806   6.240   5.433  0.2614  0.1271  0.0239
14542SOL    HW149718  10.838   6.272   5.517  0.4847  0.0387 -0.0258
14542SOL    HW249719  10.736   6.179   5.456 -1.2507  1.7977  0.0722
14543SOL     OW49720  10.209   3.105   7.128  0.0041  0.3421  0.3120
14543SOL    HW149721  10.201   3.009   7.124 -1.5062  0.4809 -1.7249
14543SOL    HW249722  10.258   3.128   7.049  1.0701  1.2309  1.1998
14544SOL     OW49723   3.942   3.891   6.107 -0.4457 -0.1255  0.1535
14544SOL    HW149724   3.881   3.921   6.173  0.2643 -0.9354  1.2009
14544SOL    HW249725   3.969   3.804   6.136  0.7556 -0.0239 -0.5900
14545SOL     OW49726   3.766   0.500   5.581  0.3547 -0.0864 -0.1343
14545SOL    HW149727   3.839   0.446   5.612 -0.4241 -2.4070 -2.0774
14545SOL    HW249728   3.754   0.476   5.490 -1.1111  2.2857 -0.6762
14546SOL     OW49729  10.225   5.217   3.766  0.3729 -0.1904 -0.1172
14546SOL    HW149730  10.184   5.200   3.682  0.0144 -1.8095  0.3369
14546SOL    HW249731  10.155   5.253   3.821  0.0681 -1.0014  0.0474
14547SOL     OW49732   3.554   6.331   0.421  0.0787 -0.5219 -0.3889
14547SOL    HW149733   3.478   6.349   0.476  0.7729  1.4650  0.0130
14547SOL    HW249734   3.523   6.344   0.331 -0.3379 -0.8996 -0.3013
14548SOL     OW49735   8.676   0.265   6.412 -0.3267  0.2399 -0.5679
14548SOL    HW149736   8.767   0.238   6.420  0.2975  1.6931 -2.2052
14548SOL    HW249737   8.666   0.338   6.472 -0.1562  0.6465 -1.0288
14549SOL     OW49738   7.988   6.924   7.242 -0.3428  0.6276 -0.3419
14549SOL    HW149739   7.969   6.920   7.149 -0.4115  1.4218 -0.3668
14549SOL    HW249740   7.960   7.011   7.269  0.4425  0.7084  0.2502
14550SOL     OW49741   2.906   2.125   9.941 -0.1726  0.0798  0.0854
14550SOL    HW149742   2.882   2.084   9.858 -0.7574 -1.3852  0.9623
14550SOL    HW249743   2.868   2.070  10.009 -0.1038  1.5022  1.3509
14551SOL     OW49744   4.124   7.341   1.419  0.1389 -0.5118 -0.0439
14551SOL    HW149745   4.168   7.312   1.339 -0.6809  1.0726 -1.1296
14551SOL    HW249746   4.061   7.272   1.438  0.7231 -1.1701 -0.4511
14552SOL     OW49747   2.855   9.353   2.404 -0.1539 -0.3989 -0.0193
14552SOL    HW149748   2.855   9.384   2.313  0.9052  0.2156  0.1618
14552SOL    HW249749   2.888   9.263   2.399  0.7192 -0.0786 -0.1758
14553SOL     OW49750   4.115   7.837  10.179 -0.1118  0.0055  0.1829
14553SOL    HW149751   4.204   7.834  10.214 -0.2585  0.9546  0.6702
14553SOL    HW249752   4.059   7.841  10.257 -0.5998 -0.8106 -0.1161
14554SOL     OW49753   6.170   7.859   2.551 -0.4818 -0.0164 -0.1109
14554SOL    HW149754   6.177   7.794   2.622 -0.7631 -0.6662 -0.6736
14554SOL    HW249755   6.171   7.943   2.596 -2.0349 -0.4404  0.7904
14555SOL     OW49756   0.002   9.938   9.551  0.0613 -0.4977  0.5135
14555SOL    HW149757  -0.041   9.862   9.590  0.5185 -1.5782 -0.9982
14555SOL    HW249758  -0.055   9.963   9.478  0.5799 -0.2127  0.1977
14556SOL     OW49759   7.104   9.935   4.766 -0.2414 -0.2837  0.3849
14556SOL    HW149760   7.099  10.020   4.721  0.1156  0.0896  1.0495
14556SOL    HW249761   7.021   9.893   4.745 -0.0921 -0.1160 -0.6243
14557SOL     OW49762   7.223   5.925   5.124 -0.4215 -0.2110  0.1876
14557SOL    HW149763   7.314   5.954   5.130 -0.5390  0.4797 -0.9445
14557SOL    HW249764   7.218   5.880   5.040 -0.8121 -1.4992  0.8747
14558SOL     OW49765   3.209   4.434   9.191  0.0894 -0.1217  0.1032
14558SOL    HW149766   3.201   4.412   9.098 -1.4147  1.7825 -0.2726
14558SOL    HW249767   3.303   4.444   9.204  0.4676 -1.9757 -0.7837
14559SOL     OW49768   4.816   7.392   2.450  0.2973 -0.0229 -0.5080
14559SOL    HW149769   4.789   7.323   2.389  2.0313 -0.7373 -0.5051
14559SOL    HW249770   4.881   7.351   2.507  1.8561  1.7508 -0.8992
14560SOL     OW49771   7.354  10.002   8.544 -0.0144 -0.6598  0.2293
14560SOL    HW149772   7.434  10.039   8.581 -0.9551  2.3825 -0.4805
14560SOL    HW249773   7.297  10.078   8.529 -1.8965 -2.3662 -2.0631
14561SOL     OW49774   6.494   9.904   6.559 -0.4036  0.5870  0.2064
14561SOL    HW149775   6.537   9.834   6.510 -1.5032 -2.1509  2.8231
14561SOL    HW249776   6.557   9.926   6.628 -1.2166 -0.0174  1.1701
14562SOL     OW49777   4.856   7.980   1.319  0.0200  0.3638  0.2332
14562SOL    HW149778   4.949   7.961   1.318 -0.1779 -0.6692 -0.2115
14562SOL    HW249779   4.825   7.948   1.404 -0.0451  0.0951  0.1088
14563SOL     OW49780   7.893   8.000   5.269  0.2263  0.2369  0.0949
14563SOL    HW149781   7.871   8.069   5.207 -0.0541 -0.1680 -0.2640
14563SOL    HW249782   7.896   8.043   5.354  0.4016  0.7546 -0.1729
14564SOL     OW49783   8.772   0.081   0.232  0.6707 -0.4934 -0.4467
14564SOL    HW149784   8.835   0.027   0.279 -0.2313  0.0912  1.5657
14564SOL    HW249785   8.814   0.167   0.225  0.4880 -0.3519  0.0902
14565SOL     OW49786   3.072  10.008   9.861  0.4654 -0.1970 -0.2654
14565SOL    HW149787   3.103   9.925   9.896  1.3842  0.2261 -0.0377
14565SOL    HW249788   3.080   9.999   9.766 -0.7585 -0.8624 -0.3198
14566SOL     OW49789   9.159   3.060   2.721 -0.4334 -0.3108 -0.4322
14566SOL    HW149790   9.127   3.009   2.796 -0.4513 -0.4242 -0.5157
14566SOL    HW249791   9.128   3.011   2.645 -0.7912  0.0398 -0.5131
14567SOL     OW49792   8.889   1.371   0.878 -0.3521 -0.2294  0.3593
14567SOL    HW149793   8.825   1.385   0.808 -0.5804  0.3830  0.6791
14567SOL    HW249794   8.859   1.428   0.949  0.5214  0.0385  0.5258
14568SOL     OW49795   4.559   4.961   0.548 -0.0160  0.0706 -0.0071
14568SOL    HW149796   4.511   5.024   0.601 -1.1340 -0.9725  0.2560
14568SOL    HW249797   4.648   4.997   0.542 -0.2920  1.0043  1.2111
14569SOL     OW49798   1.969   9.471   4.710 -0.0504  0.1770 -0.0407
14569SOL    HW149799   1.883   9.471   4.668 -0.2496  1.6754  0.3405
14569SOL    HW249800   2.029   9.447   4.640 -0.5838  0.9103 -0.7660
14570SOL     OW49801   5.284   4.191   6.441  0.2346  0.0504 -0.4821
14570SOL    HW149802   5.298   4.270   6.494  0.6133  0.0613 -0.5946
14570SOL    HW249803   5.264   4.122   6.504  1.4417 -0.1093 -0.2554
14571SOL     OW49804  10.623   1.462   2.362 -0.5398  0.3868 -0.3572
14571SOL    HW149805  10.572   1.539   2.337 -0.4511  1.3030  1.9735
14571SOL    HW249806  10.569   1.417   2.426  1.1722  0.9938  1.6456
14572SOL     OW49807   9.621   7.995   6.548  0.0384  0.1664 -0.0473
14572SOL    HW149808   9.691   8.060   6.550  0.0616  0.1306  0.5573
14572SOL    HW249809   9.651   7.926   6.607 -0.2369 -0.1285 -0.2489
14573SOL     OW49810   0.458   1.606   3.672 -0.6670 -0.1720 -0.1309
14573SOL    HW149811   0.458   1.580   3.580 -1.3472  0.2822 -0.2577
14573SOL    HW249812   0.383   1.664   3.681  1.1504  2.2993  0.0077
14574SOL     OW49813   8.834   8.580   4.544 -0.0451 -0.2423  0.0504
14574SOL    HW149814   8.845   8.660   4.492  0.2271  0.0878  0.6180
14574SOL    HW249815   8.818   8.610   4.633  0.5826 -0.8305  0.3720
14575SOL     OW49816   7.597   2.378   1.212  0.6634  0.3660  0.5061
14575SOL    HW149817   7.595   2.429   1.131  1.0508  0.6009  0.6413
14575SOL    HW249818   7.526   2.415   1.265  2.2920  2.2938  1.5021
14576SOL     OW49819   8.038   4.974   5.661 -0.6946  0.3331 -0.0232
14576SOL    HW149820   7.953   4.956   5.621  0.1016 -2.6726 -0.6309
14576SOL    HW249821   8.096   4.991   5.587 -0.2361 -0.3254  0.1743
14577SOL     OW49822   2.448   0.709   1.560 -0.7532 -0.2788 -0.4184
14577SOL    HW149823   2.443   0.746   1.648  3.8325 -1.2135  0.4843
14577SOL    HW249824   2.483   0.780   1.506  1.3766 -1.0666 -0.2031
14578SOL     OW49825   4.540   6.623   0.553  0.0536 -0.7192 -0.2125
14578SOL    HW149826   4.560   6.620   0.647 -0.3880 -0.3284 -0.1005
14578SOL    HW249827   4.589   6.698   0.520 -3.1088  1.9538  0.5731
14579SOL     OW49828   4.328   8.440   3.256 -0.3992 -0.1585 -0.0459
14579SOL    HW149829   4.288   8.393   3.183 -1.5164 -0.3714  0.6947
14579SOL    HW249830   4.376   8.512   3.214 -1.3084 -0.0733 -0.9764
14580SOL     OW49831   0.020  10.446   6.438 -0.5066  0.3287  0.2080
14580SOL    HW149832   0.004  10.475   6.528 -0.9087  1.4030 -0.1968
14580SOL    HW249833   0.037  10.352   6.446  0.6281  0.6139  1.5383
14581SOL     OW49834   0.874   6.474   0.811 -0.4899 -0.1511 -0.6782
14581SOL    HW149835   0.887   6.448   0.719 -1.2426  0.0819 -0.8606
14581SOL    HW249836   0.807   6.542   0.807  2.4130  3.0015 -0.4019
14582SOL     OW49837   0.245   0.682   0.898  0.9457 -0.5426 -0.4347
14582SOL    HW149838   0.325   0.633   0.916  1.0572 -0.3546 -0.4194
14582SOL    HW249839   0.201   0.632   0.829 -0.4236 -2.3538  1.5978
14583SOL     OW49840   6.530   8.395   8.402  0.5738  0.1346  0.0697
14583SOL    HW149841   6.545   8.442   8.484 -1.1452 -0.8044  0.9725
14583SOL    HW249842   6.492   8.312   8.428 -1.2389  0.3077 -1.7229
14584SOL     OW49843   6.338   1.180   0.465  0.3276  0.0182 -0.7882
14584SOL    HW149844   6.348   1.171   0.371 -0.2714 -0.0182 -0.8537
14584SOL    HW249845   6.252   1.222   0.476  0.0601 -0.6566 -0.2391
14585SOL     OW49846   6.655   8.923   2.126 -0.0536 -0.1192  0.2563
14585SOL    HW149847   6.563   8.905   2.106  0.0080  1.0617 -1.2772
14585SOL    HW249848   6.689   8.964   2.047  2.0378 -1.2757  0.4719
14586SOL     OW49849   2.490   0.742   7.779  0.0287 -0.7471  0.0056
14586SOL    HW149850   2.470   0.736   7.686  0.9268  0.4497 -0.2825
14586SOL    HW249851   2.501   0.651   7.807 -0.6237 -1.1367 -0.9659
14587SOL     OW49852   8.259   7.785   6.279  0.1471 -0.2872 -0.2881
14587SOL    HW149853   8.282   7.783   6.186  1.2777  1.1838 -0.0651
14587SOL    HW249854   8.172   7.826   6.282 -0.3517 -1.2722 -0.7474
14588SOL     OW49855   8.836   1.151   1.772  0.0639  0.4816  0.2168
14588SOL    HW149856   8.776   1.162   1.698  0.6224  1.8099 -0.0783
14588SOL    HW249857   8.839   1.057   1.788 -0.5427  0.2353 -1.0462
14589SOL     OW49858   7.694   9.851   8.010  0.4777  0.2330  0.7355
14589SOL    HW149859   7.726   9.939   8.030  0.7437  0.3370 -0.1273
14589SOL    HW249860   7.668   9.855   7.918  1.0936 -0.7700  0.5126
14590SOL     OW49861   0.664   1.781   1.858 -0.1878  0.1026 -0.3652
14590SOL    HW149862   0.694   1.811   1.944 -2.2297  1.6137 -0.1090
14590SOL    HW249863   0.576   1.748   1.874 -1.2947  1.9829 -2.0830
14591SOL     OW49864   6.025   2.712   7.501  0.0143  0.0067 -0.0230
14591SOL    HW149865   6.055   2.720   7.591 -0.3478 -4.0453  0.6314
14591SOL    HW249866   6.105   2.699   7.450  0.0280 -1.3030  0.3028
14592SOL     OW49867   3.569   3.777  10.410 -0.7780 -0.6187  0.5028
14592SOL    HW149868   3.530   3.838  10.472  1.6063  1.0867  0.4669
14592SOL    HW249869   3.515   3.784  10.332 -0.3590  1.8527  0.3572
14593SOL     OW49870   0.168   7.981   5.943 -0.4829  0.5555  0.7714
14593SOL    HW149871   0.163   7.897   5.987 -1.9031  0.5994  0.7256
14593SOL    HW249872   0.096   8.032   5.979  0.2621  1.7112  0.6853
14594SOL     OW49873   4.451   5.218  10.528 -0.4364  0.4093  0.0367
14594SOL    HW149874   4.372   5.267  10.546  0.1889  1.7820 -0.8365
14594SOL    HW249875   4.484   5.253  10.446  0.5774 -0.7924 -0.1082
14595SOL     OW49876   2.518   5.426  10.526 -0.1614  0.0771 -0.3392
14595SOL    HW149877   2.476   5.498  10.574  0.6132  0.0684  0.3831
14595SOL    HW249878   2.485   5.434  10.437 -0.7573  0.8030 -0.0627
14596SOL     OW49879   3.769   4.685   0.195  0.1937 -0.6223 -0.5384
14596SOL    HW149880   3.862   4.664   0.200  0.3669 -0.8762 -3.3153
14596SOL    HW249881   3.766   4.778   0.173 -0.2940 -0.2043  1.1656
14597SOL     OW49882   8.118  10.172   7.542 -0.4103 -0.2961 -0.4130
14597SOL    HW149883   8.143  10.083   7.564 -0.9466 -0.1660  0.8269
14597SOL    HW249884   8.130  10.221   7.624 -1.4665  0.4563 -0.6796
14598SOL     OW49885   4.318  10.652   2.568  0.5647 -0.2229 -0.4418
14598SOL    HW149886   4.304  10.667   2.474  0.4239  1.1680 -0.2182
14598SOL    HW249887   4.388  10.587   2.571  1.2235  0.3986 -1.5149
14599SOL     OW49888   1.747   9.325   9.583 -0.1817  0.6169  0.1048
14599SOL    HW149889   1.787   9.373   9.655  0.9026  1.3274 -0.9484
14599SOL    HW249890   1.670   9.377   9.559 -0.1834  0.7165  0.3272
14600SOL     OW49891   3.590   6.964   8.490  0.3164 -0.3497  0.0238
14600SOL    HW149892   3.589   6.868   8.500  1.6112 -0.6275 -1.9911
14600SOL    HW249893   3.501   6.985   8.464  0.4279 -1.2453 -1.1600
14601SOL     OW49894   0.997   6.876   5.443  0.4091  0.0414  0.2193
14601SOL    HW149895   0.917   6.921   5.416  0.2367 -0.2688  0.2076
14601SOL    HW249896   0.989   6.788   5.405  0.3313 -0.2838  0.9749
14602SOL     OW49897   5.699   5.631   4.926  0.3148 -0.4127  0.3480
14602SOL    HW149898   5.729   5.572   4.995 -1.6888 -2.4065 -0.3668
14602SOL    HW249899   5.619   5.670   4.960 -1.2880 -2.2144 -1.1128
14603SOL     OW49900   6.430   5.453   0.261  0.1137 -0.0224 -0.2197
14603SOL    HW149901   6.422   5.528   0.319  2.7902  0.5863 -0.5156
14603SOL    HW249902   6.445   5.491   0.174  0.8693 -0.8838 -0.4814
14604SOL     OW49903   6.332   0.135   2.599  0.3673  0.6051 -0.5135
14604SOL    HW149904   6.376   0.171   2.676 -0.2208  0.0123  0.1146
14604SOL    HW249905   6.239   0.146   2.618  0.2015 -0.3245 -0.7634
14605SOL     OW49906   5.111   6.243  10.632  0.2434 -0.7739  0.5733
14605SOL    HW149907   5.126   6.287  10.549  0.9872 -0.4192  0.8875
14605SOL    HW249908   5.016   6.235  10.638  0.0534  1.0590  0.6415
14606SOL     OW49909   9.833  10.569   5.231  0.0838  0.1668  0.4634
14606SOL    HW149910   9.819  10.482   5.193 -0.0863  0.8807 -1.2201
14606SOL    HW249911   9.914  10.600   5.189  0.7211  0.4206  1.8412
14607SOL     OW49912   5.320   5.235   3.920  0.2829  0.9372  0.5254
14607SOL    HW149913   5.283   5.289   3.850 -0.0071 -1.6671 -1.4995
14607SOL    HW249914   5.245   5.200   3.966  0.4067  0.6329  0.4974
14608SOL     OW49915   3.088   0.876   9.089 -0.5805  0.0396 -0.3660
14608SOL    HW149916   3.073   0.938   9.160 -0.4279 -1.5272  1.1024
14608SOL    HW249917   3.125   0.929   9.018  2.5220  1.1880  1.8972
14609SOL     OW49918   5.406   5.562   8.493  0.0263 -0.1005 -0.5862
14609SOL    HW149919   5.471   5.631   8.484 -0.4155  0.2425 -1.2306
14609SOL    HW249920   5.417   5.530   8.583 -0.1703  1.2211 -0.0687
14610SOL     OW49921   8.395   8.945   8.277  0.2726  0.0299 -0.0408
14610SOL    HW149922   8.405   8.852   8.253  0.0531 -0.1480  0.5422
14610SOL    HW249923   8.485   8.976   8.287  0.4010  0.2763 -1.6889
14611SOL     OW49924   0.467   2.473   8.006  0.2683 -0.3136 -0.2972
14611SOL    HW149925   0.460   2.378   8.014  2.8347 -0.5063  0.7393
14611SOL    HW249926   0.557   2.492   8.032  0.5170  2.1887 -2.6205
14612SOL     OW49927   2.671   2.844   9.569 -0.0855 -0.6060 -0.1031
14612SOL    HW149928   2.749   2.819   9.618 -0.2166  1.2057  1.1430
14612SOL    HW249929   2.646   2.929   9.606 -0.5022  0.6400 -3.0060
14613SOL     OW49930   7.739   0.029  10.350  0.6015  0.4615 -0.8733
14613SOL    HW149931   7.644   0.044  10.355  0.7256  1.3937 -1.1336
14613SOL    HW249932   7.751  -0.059  10.387 -0.2604  0.6957  0.0121
14614SOL     OW49933   4.291   6.719   4.322 -0.0369 -0.2196  0.1799
14614SOL    HW149934   4.363   6.709   4.385 -0.3451 -0.8854  0.4281
14614SOL    HW249935   4.268   6.630   4.297  0.6245  0.0607 -1.5166
14615SOL     OW49936   1.276   0.249   5.484  0.1451 -0.3992  0.2314
14615SOL    HW149937   1.333   0.319   5.453  0.4664 -0.6810  0.1824
14615SOL    HW249938   1.224   0.225   5.407  0.2799 -0.4518  0.1553
14616SOL     OW49939   5.877   0.881   8.684  0.3631  0.1412 -0.1151
14616SOL    HW149940   5.791   0.906   8.650 -0.7364 -1.4056  1.4041
14616SOL    HW249941   5.911   0.819   8.620 -1.4553 -2.3273  1.1186
14617SOL     OW49942   2.423   2.313   7.389 -0.7672  0.1287  0.0824
14617SOL    HW149943   2.453   2.373   7.457 -1.5312  0.5791  0.0331
14617SOL    HW249944   2.491   2.245   7.385 -0.8202 -0.0425  1.4600
14618SOL     OW49945   6.961   2.488   1.062  0.0814  0.5629  0.5749
14618SOL    HW149946   6.950   2.415   1.001 -1.2339  0.3207  1.0745
14618SOL    HW249947   7.001   2.557   1.009  2.2339 -0.7885  0.3238
14619SOL     OW49948  10.476  10.014  10.319 -0.3575  0.2155 -0.2504
14619SOL    HW149949  10.449  10.089  10.266 -1.2321 -0.8338 -1.3952
14619SOL    HW249950  10.408  10.006  10.386 -0.5457  0.1621 -0.4445
14620SOL     OW49951   4.251  10.649   1.509 -0.2451 -0.3386 -0.5370
14620SOL    HW149952   4.215  10.736   1.496 -2.7085 -0.9987  1.1807
14620SOL    HW249953   4.220  10.598   1.433 -1.1103 -0.3591 -0.1761
14621SOL     OW49954   6.101   7.245  10.911 -0.1095  0.5219 -0.3171
14621SOL    HW149955   6.038   7.255  10.982 -0.1956  1.5592 -0.5304
14621SOL    HW249956   6.107   7.332  10.871  0.0733  0.0061 -1.4630
14622SOL     OW49957   2.633   1.773   7.547 -0.2684  0.0224  0.0163
14622SOL    HW149958   2.563   1.814   7.598 -0.3115  1.2355 -0.9609
14622SOL    HW249959   2.694   1.845   7.528  0.4164 -0.6840 -0.5014
14623SOL     OW49960   5.896   7.229   1.273 -0.1207  0.3098  0.3126
14623SOL    HW149961   5.988   7.236   1.249  0.3418 -0.2199  1.8230
14623SOL    HW249962   5.894   7.249   1.366 -0.9617 -3.0578  1.1793
14624SOL     OW49963   4.184   2.942   0.575 -0.2998  0.5224  0.7544
14624SOL    HW149964   4.111   3.003   0.585 -0.2301  0.7944 -0.2830
14624SOL    HW249965   4.175   2.908   0.486  0.1455 -0.3562  1.0332
14625SOL     OW49966   2.638   4.539   0.996 -0.5419  0.7109  0.2193
14625SOL    HW149967   2.633   4.510   1.088  0.2787  0.4627  0.1982
14625SOL    HW249968   2.732   4.543   0.978 -0.6999  0.5074 -0.6919
14626SOL     OW49969   9.271  10.279   6.024 -0.1801 -0.0787 -0.0092
14626SOL    HW149970   9.307  10.351   6.076  1.3921  0.0615 -1.2324
14626SOL    HW249971   9.257  10.317   5.937 -1.9481 -0.5383  0.0271
14627SOL     OW49972   4.112   9.140   6.071  0.1624  0.1410  0.4536
14627SOL    HW149973   4.079   9.123   6.159 -0.1619 -6.0315 -0.4511
14627SOL    HW249974   4.200   9.103   6.071 -0.1831 -0.8557 -2.0114
14628SOL     OW49975   1.320   0.015   9.546  0.4402 -0.3221 -0.1724
14628SOL    HW149976   1.402   0.004   9.498  0.9827 -2.3116  1.0729
14628SOL    HW249977   1.259  -0.046   9.505 -0.8505  1.9203 -1.8035
14629SOL     OW49978   2.740   5.772   5.274  0.4706  0.2571  0.0288
14629SOL    HW149979   2.733   5.852   5.223  2.6511 -0.9511 -2.3797
14629SOL    HW249980   2.685   5.708   5.227  0.6765 -0.2932  0.5164
14630SOL     OW49981   2.683   2.658   2.745 -0.1395  0.4786  0.6937
14630SOL    HW149982   2.655   2.740   2.784 -1.3242  0.2092  0.4253
14630SOL    HW249983   2.690   2.597   2.819 -0.0170  0.6060  0.7877
14631SOL     OW49984   7.155   4.586  10.635 -0.2231 -0.5887 -0.0769
14631SOL    HW149985   7.093   4.524  10.672  0.6625 -1.5131 -0.0943
14631SOL    HW249986   7.213   4.533  10.580 -0.6436  0.5420 -1.6952
14632SOL     OW49987   4.796   4.427   6.909  0.0956 -0.1115 -0.2726
14632SOL    HW149988   4.816   4.482   6.833 -1.8143  0.7294 -0.2228
14632SOL    HW249989   4.735   4.479   6.961  0.1130 -1.3341  1.0115
14633SOL     OW49990  10.724   4.685   9.864 -0.1637  0.5895  0.1869
14633SOL    HW149991  10.751   4.684   9.956  0.5859  3.7902  0.1200
14633SOL    HW249992  10.805   4.673   9.815 -0.2601  0.8407 -0.0384
14634SOL     OW49993   9.273   0.732  10.441 -0.2890 -0.3065 -0.4361
14634SOL    HW149994   9.303   0.671  10.510  0.0227  0.3110 -0.0183
14634SOL    HW249995   9.353   0.754  10.394 -0.5059 -0.7481 -1.0271
14635SOL     OW49996   5.580   5.285   3.942  0.2713  0.3208  0.1874
14635SOL    HW149997   5.617   5.301   3.855  1.5873 -1.9361  0.2706
14635SOL    HW249998   5.488   5.265   3.925  0.8983 -1.8902 -0.9397
14636SOL     OW49999   9.472   5.301   3.865 -0.0053 -0.5659  0.2494
14636SOL    HW150000   9.440   5.274   3.951  0.3630 -0.6505  0.3606
14636SOL    HW250001   9.543   5.363   3.883  0.0080 -0.5077  0.0065
14637SOL     OW50002   9.868   3.905   6.448 -0.1264  0.0583 -0.1745
14637SOL    HW150003   9.857   3.997   6.425 -0.9070 -0.1939 -0.8718
14637SOL    HW250004   9.824   3.895   6.532 -0.2884  0.2652 -0.2353
14638SOL     OW50005   7.196   6.950  10.136 -0.2926  0.0015 -0.1913
14638SOL    HW150006   7.263   7.012  10.107  0.5702 -0.2700  1.1439
14638SOL    HW250007   7.148   6.928  10.056  0.3180  1.2531 -0.9429
14639SOL     OW50008   7.901   1.469   9.335  0.2134  0.0014  0.3244
14639SOL    HW150009   7.943   1.551   9.313 -1.6410  1.5735  2.1993
14639SOL    HW250010   7.840   1.453   9.263 -0.0137  0.7313  0.3481
14640SOL     OW50011   8.329   8.569   1.459 -0.0826  0.4445  0.3554
14640SOL    HW150012   8.330   8.665   1.459  2.4647  0.5710  3.2312
14640SOL    HW250013   8.419   8.544   1.481 -1.1263 -2.5297  1.7662
14641SOL     OW50014   4.032   2.966   6.795 -0.0306  0.3117  0.5260
14641SOL    HW150015   3.991   2.948   6.711 -0.7448 -0.0521  0.9421
14641SOL    HW250016   4.125   2.949   6.780 -0.3127 -1.0633  0.1499
14642SOL     OW50017   1.924   3.862   2.452  0.0207  0.0482  0.3187
14642SOL    HW150018   1.915   3.918   2.529  0.6859 -0.3690  0.7126
14642SOL    HW250019   1.852   3.800   2.458 -1.0457  1.1853 -0.4112
14643SOL     OW50020   6.804   3.384   3.990  0.3255  0.2122  0.3264
14643SOL    HW150021   6.897   3.366   4.008  0.0767 -0.7070  0.7420
14643SOL    HW250022   6.769   3.300   3.962 -0.7114  0.2168  1.5605
14644SOL     OW50023   3.463   7.322   2.827 -0.3414  1.0596 -0.4058
14644SOL    HW150024   3.552   7.304   2.796 -0.8330  2.3460 -2.6969
14644SOL    HW250025   3.451   7.416   2.815 -1.4382  1.2373  1.5764
14645SOL     OW50026   9.389   3.077   1.872 -0.0920 -0.0759 -0.1974
14645SOL    HW150027   9.351   3.108   1.790  0.5258 -0.4334 -0.6251
14645SOL    HW250028   9.377   3.150   1.933  2.7165  1.6974 -1.5754
14646SOL     OW50029  10.670   1.110   2.456  0.4971 -0.0422 -0.0049
14646SOL    HW150030  10.704   1.118   2.545 -0.3283  1.0306  0.2378
14646SOL    HW250031  10.575   1.113   2.466  0.3808 -0.5865 -0.8653
14647SOL     OW50032   7.633   2.206   2.798 -0.0273 -0.3487 -0.0568
14647SOL    HW150033   7.646   2.298   2.819 -2.2966 -0.2123  0.9751
14647SOL    HW250034   7.673   2.159   2.871  2.8939 -0.3606 -1.5015
14648SOL     OW50035   7.650   6.596   3.615 -0.1078  0.1962  0.1087
14648SOL    HW150036   7.742   6.604   3.639 -0.8286 -0.6657  3.6975
14648SOL    HW250037   7.624   6.685   3.592  1.0278  0.9704  1.6285
14649SOL     OW50038   0.235   5.706   8.196  0.2151 -0.1552 -0.3056
14649SOL    HW150039   0.329   5.694   8.184  0.5708  1.5337  0.5884
14649SOL    HW250040   0.226   5.790   8.240 -1.6704 -0.7069  0.4850
14650SOL     OW50041   7.268   6.621   1.795  0.4129 -0.0834  0.3148
14650SOL    HW150042   7.229   6.625   1.707  4.1022  0.0850 -1.5288
14650SOL    HW250043   7.271   6.712   1.825 -2.8457 -0.3314  1.7420
14651SOL     OW50044   7.717   7.695   7.744 -0.0871  0.6919  0.2849
14651SOL    HW150045   7.743   7.709   7.653 -0.4330  1.8145  0.3493
14651SOL    HW250046   7.737   7.778   7.788  0.8232 -0.0989  1.4163
14652SOL     OW50047   4.904  10.439   5.570  0.4236 -0.1905  0.7523
14652SOL    HW150048   4.928  10.446   5.477 -1.8817 -1.1563  0.0142
14652SOL    HW250049   4.932  10.522   5.608  0.3979  0.6982 -1.0540
14653SOL     OW50050   3.475   4.485   7.982  0.0602  0.2108  0.2575
14653SOL    HW150051   3.430   4.490   7.898 -0.2476  0.4872  0.4382
14653SOL    HW250052   3.535   4.560   7.981 -0.5132  0.6798  0.6134
14654SOL     OW50053   0.488   9.142   8.047 -0.3360  0.4094 -0.3717
14654SOL    HW150054   0.400   9.175   8.063 -0.0467  2.3381 -2.2561
14654SOL    HW250055   0.477   9.083   7.971 -0.0132  0.6734 -0.6251
14655SOL     OW50056   3.575   1.841  10.526 -0.4230 -0.2501 -0.5573
14655SOL    HW150057   3.575   1.932  10.497 -1.2096 -0.5844 -1.6347
14655SOL    HW250058   3.659   1.806  10.497  0.0329  0.2130  0.1680
14656SOL     OW50059   4.408   7.530   6.360 -0.3390  0.2080 -0.3934
14656SOL    HW150060   4.501   7.512   6.342 -0.3993  0.4686 -1.0095
14656SOL    HW250061   4.381   7.586   6.287 -1.5451 -1.6117 -1.4006
14657SOL     OW50062   3.999   8.450   7.874  0.0001  0.2554  0.1942
14657SOL    HW150063   4.066   8.474   7.938 -0.1545 -0.5638  0.6776
14657SOL    HW250064   3.933   8.519   7.881  0.6738  0.9517 -0.1308
14658SOL     OW50065   4.635   6.370   0.412 -0.3312 -0.8137 -0.2129
14658SOL    HW150066   4.702   6.433   0.437 -0.5163 -1.4639  2.1289
14658SOL    HW250067   4.665   6.335   0.328  0.9289  0.7327 -0.4449
14659SOL     OW50068   0.911   3.848   6.682  0.0583  0.0626 -0.1902
14659SOL    HW150069   0.965   3.924   6.704 -1.6894  1.2155  0.3376
14659SOL    HW250070   0.921   3.838   6.587  2.3227 -0.7194  0.0548
14660SOL     OW50071   9.231   8.505   1.218 -0.2005  0.2369  1.1546
14660SOL    HW150072   9.149   8.550   1.235 -0.2498  0.3347  0.6755
14660SOL    HW250073   9.234   8.494   1.123  1.1735  1.8561  0.9507
14661SOL     OW50074   5.692   4.667  10.180  0.1034  0.6867  0.2570
14661SOL    HW150075   5.758   4.695  10.244  1.9297 -0.8958 -0.8087
14661SOL    HW250076   5.742   4.621  10.113 -1.5619  3.0353 -2.8597
14662SOL     OW50077   7.127   8.538   9.525 -0.3018  1.1785 -0.2577
14662SOL    HW150078   7.139   8.445   9.506 -1.5249  1.4307 -2.7114
14662SOL    HW250079   7.137   8.545   9.620  1.9857 -1.0840 -0.2282
14663SOL     OW50080   3.982   1.021  10.560  0.1275  0.4696  0.1587
14663SOL    HW150081   4.067   1.059  10.537  0.2018  0.6529  0.7145
14663SOL    HW250082   3.979   1.026  10.655 -0.4479  0.3303  0.1510
14664SOL     OW50083   0.032   2.775   8.907 -0.2861  0.0777 -0.4028
14664SOL    HW150084   0.040   2.682   8.886 -2.3502 -0.8347  2.3034
14664SOL    HW250085   0.118   2.801   8.940 -0.2287 -1.4698  0.7537
14665SOL     OW50086   7.614   0.476   8.755  0.0213 -0.2404  0.2027
14665SOL    HW150087   7.574   0.499   8.839 -0.2321  0.9222 -0.2198
14665SOL    HW250088   7.600   0.382   8.748 -0.1766 -0.3205  1.3478
14666SOL     OW50089   2.195   0.008   5.778  0.5327 -0.0001  0.5445
14666SOL    HW150090   2.168  -0.054   5.710 -1.5146  1.5921 -0.2020
14666SOL    HW250091   2.170  -0.035   5.860 -2.3878  0.3610 -0.0200
14667SOL     OW50092   4.149   8.561   8.110 -0.4317  0.4066  0.0845
14667SOL    HW150093   4.243   8.553   8.128 -0.2248 -0.7622 -1.3503
14667SOL    HW250094   4.108   8.559   8.197  0.8168  0.2365  0.6968
14668SOL     OW50095   7.344   3.718   2.325  0.4242  0.1813 -0.2495
14668SOL    HW150096   7.285   3.647   2.352 -1.8018  1.3797 -1.5919
14668SOL    HW250097   7.359   3.701   2.232  0.0100  1.3247 -0.5425
14669SOL     OW50098   5.407   1.454   5.749 -0.6166 -0.9850  0.2058
14669SOL    HW150099   5.338   1.438   5.813 -0.6763  1.6884  0.9478
14669SOL    HW250100   5.488   1.431   5.794 -0.6957  0.4579  1.1302
14670SOL     OW50101   5.118   1.984  10.634  0.9109 -0.4932  0.2445
14670SOL    HW150102   5.132   2.009  10.542  1.3263 -1.1826  0.1132
14670SOL    HW250103   5.121   2.067  10.681  0.1142 -0.0669 -0.4280
14671SOL     OW50104   6.285   1.436   0.075  0.3750 -1.0396 -0.3592
14671SOL    HW150105   6.207   1.490   0.061  2.0576  1.5316 -0.4900
14671SOL    HW250106   6.270   1.357   0.022 -1.9537 -0.4838 -0.6350
14672SOL     OW50107   8.064   8.732   7.256 -0.0727 -0.6587  0.0337
14672SOL    HW150108   8.054   8.805   7.318 -0.0017 -0.6365  0.0178
14672SOL    HW250109   7.991   8.674   7.277 -0.3525 -0.3988 -0.2015
14673SOL     OW50110   2.479   6.650   3.179  0.5883 -0.2653 -0.3127
14673SOL    HW150111   2.496   6.729   3.128 -1.4987 -1.3513 -2.9962
14673SOL    HW250112   2.446   6.681   3.263  3.3187  1.6263  0.1891
14674SOL     OW50113   4.301   9.496  10.035  0.3261  0.4016  1.1297
14674SOL    HW150114   4.269   9.558  10.101  0.9368  1.8346  0.1257
14674SOL    HW250115   4.337   9.551   9.966 -0.3056 -1.0524 -0.4319
14675SOL     OW50116   7.906   7.922   9.031 -0.1918  0.2252  0.3809
14675SOL    HW150117   7.943   7.987   9.091  0.2127 -0.2449  0.6468
14675SOL    HW250118   7.979   7.895   8.976 -0.2100 -0.4731  0.6927
14676SOL     OW50119   3.979  10.427   8.077  0.6181 -0.0192  0.2640
14676SOL    HW150120   3.964  10.521   8.066  0.4580 -0.0147  0.5091
14676SOL    HW250121   4.073  10.415   8.063  0.3065 -0.1618 -2.1771
14677SOL     OW50122   6.647   3.159   2.150  0.1553  0.1890 -0.2047
14677SOL    HW150123   6.611   3.092   2.091  0.1499 -0.5327  0.5969
14677SOL    HW250124   6.730   3.122   2.180 -0.6998 -0.2904  1.6691
14678SOL     OW50125   0.853   2.146   1.514 -0.3067  0.1331  0.2274
14678SOL    HW150126   0.944   2.136   1.484 -0.2782  1.3268 -0.1175
14678SOL    HW250127   0.841   2.075   1.577  0.2272 -1.2977 -1.2108
14679SOL     OW50128   7.990   2.185   7.897  0.6064 -0.3230 -0.5607
14679SOL    HW150129   7.953   2.153   7.815 -0.7331 -2.6986  0.8485
14679SOL    HW250130   8.008   2.106   7.948  0.8670  1.0753  1.6711
14680SOL     OW50131   6.033   0.642   7.976 -0.4706 -0.4126 -0.4476
14680SOL    HW150132   5.958   0.667   8.031 -0.8752 -2.0473 -0.1967
14680SOL    HW250133   6.003   0.564   7.929  1.6488 -2.2445  1.0358
14681SOL     OW50134   9.913   7.872   4.385 -0.1891 -0.3197 -0.1291
14681SOL    HW150135   9.988   7.827   4.423  0.2029 -0.3991 -0.9767
14681SOL    HW250136   9.871   7.805   4.330  0.9434  0.5653 -2.1636
14682SOL     OW50137   4.576   1.925   9.924  0.5031  0.3265  0.1019
14682SOL    HW150138   4.579   1.840   9.968  0.7506 -0.1406 -0.7928
14682SOL    HW250139   4.631   1.982   9.978  0.7813 -0.2259  0.4120
14683SOL     OW50140   7.688   1.412   7.112  0.1823  0.0654  0.6738
14683SOL    HW150141   7.689   1.491   7.167  1.5125 -1.2576  2.7146
14683SOL    HW250142   7.696   1.445   7.023 -0.4859  2.2745  1.3563
14684SOL     OW50143   7.294   6.278   1.588 -0.4810 -0.5525 -0.2762
14684SOL    HW150144   7.277   6.260   1.681  0.7527  0.2436  0.1380
14684SOL    HW250145   7.330   6.196   1.554 -0.8623 -0.8249 -0.0273
14685SOL     OW50146   0.301   6.077   9.133 -0.1374  0.2120  0.2547
14685SOL    HW150147   0.371   6.140   9.152  0.0538  0.0065  0.2339
14685SOL    HW250148   0.314   6.054   9.042  1.2851 -1.6716  0.8677
14686SOL     OW50149   0.355   0.919   8.730 -0.0312 -0.4806  0.4953
14686SOL    HW150150   0.280   0.880   8.686  0.4713  0.3863 -1.2476
14686SOL    HW250151   0.406   0.844   8.762 -1.0265 -1.1081  0.6299
14687SOL     OW50152   9.878   2.019   0.649 -0.3893 -0.1998  0.4756
14687SOL    HW150153   9.873   1.934   0.606 -0.3504 -0.4977  1.0598
14687SOL    HW250154   9.787   2.041   0.670 -0.4661  0.1842 -0.2020
14688SOL     OW50155   3.673   7.775   0.731  0.3434  0.0870  0.3129
14688SOL    HW150156   3.758   7.730   0.727  1.2061  1.6348  0.4915
14688SOL    HW250157   3.669   7.825   0.650  0.7587  1.9663  1.3923
14689SOL     OW50158   3.977   9.038   0.474 -0.0093  0.1225 -0.0733
14689SOL    HW150159   3.931   9.097   0.534  1.8829 -0.7178  2.3194
14689SOL    HW250160   3.907   9.004   0.417 -1.7906  1.4401  1.2023
14690SOL     OW50161   2.244  10.539   6.058 -0.0764  0.1217  0.1447
14690SOL    HW150162   2.290  10.477   6.115  0.1402  0.0790 -0.0737
14690SOL    HW250163   2.314  10.589   6.015 -0.2373  0.1386 -0.1002
14691SOL     OW50164  10.326   4.100   0.600  0.1290  0.1566  0.6933
14691SOL    HW150165  10.388   4.099   0.528  2.0466  0.8000  2.2511
14691SOL    HW250166  10.342   4.018   0.648 -2.2295 -1.0519 -0.4124
14692SOL     OW50167  10.834   0.724   9.000  0.0784 -0.1344 -0.5607
14692SOL    HW150168  10.858   0.662   8.931 -0.0516 -0.4203 -0.3530
14692SOL    HW250169  10.893   0.798   8.987 -1.3001  0.7365 -2.2559
14693SOL     OW50170   9.523   8.591   0.102 -0.6213  0.4394 -0.1050
14693SOL    HW150171   9.528   8.506   0.058 -1.9489  0.7392 -0.9098
14693SOL    HW250172   9.437   8.625   0.078 -0.4601  1.6399  0.9082
14694SOL     OW50173   4.383   1.125  10.286  0.2853 -0.3050 -0.1186
14694SOL    HW150174   4.334   1.128  10.203  0.6366  0.1731 -0.3091
14694SOL    HW250175   4.424   1.039  10.286 -1.0098 -0.9468  0.3066
14695SOL     OW50176   7.524  10.641   0.205 -0.0964 -0.5650 -0.1534
14695SOL    HW150177   7.506  10.593   0.286 -0.5513  1.8969  1.3286
14695SOL    HW250178   7.585  10.711   0.232 -0.0742  0.1951 -1.9918
14696SOL     OW50179   3.919   1.643   8.276  0.3110  0.6350 -0.0449
14696SOL    HW150180   3.863   1.681   8.208  2.3176  0.7888 -1.7093
14696SOL    HW250181   3.916   1.549   8.260 -0.2860  0.5416  0.5590
14697SOL     OW50182   1.057   7.746   4.178  0.1239 -0.0833  1.0045
14697SOL    HW150183   1.127   7.808   4.157  1.0587 -1.3503  0.2609
14697SOL    HW250184   1.102   7.665   4.201 -1.0834 -1.3603 -0.8397
14698SOL     OW50185   1.821   8.633   8.076  0.6200  0.0691 -0.2272
14698SOL    HW150186   1.775   8.581   8.011  1.2562 -1.9188  0.8134
14698SOL    HW250187   1.893   8.576   8.105  0.7254  1.1057  1.7274
14699SOL     OW50188   5.432   3.845   6.499  0.0654 -0.3946 -0.1662
14699SOL    HW150189   5.473   3.826   6.583  0.0271 -0.5858 -0.1901
14699SOL    HW250190   5.354   3.790   6.497  0.4712 -0.9712 -0.6480
14700SOL     OW50191   2.102  10.749  10.316 -0.0876  0.1042  0.7236
14700SOL    HW150192   2.191  10.747  10.351  0.4251  1.2026 -0.4579
14700SOL    HW250193   2.046  10.756  10.393  0.7827 -1.3461  1.5358
14701SOL     OW50194  10.284  10.839   6.440 -0.0292  0.0292  0.3704
14701SOL    HW150195  10.315  10.846   6.350 -0.1480  2.1833  0.4455
14701SOL    HW250196  10.302  10.748   6.465 -2.6125 -1.5766 -2.7383
14702SOL     OW50197  10.170   7.346   9.358  0.1328 -0.0360  0.1717
14702SOL    HW150198  10.240   7.390   9.309 -0.2178 -0.0251 -0.3342
14702SOL    HW250199  10.126   7.292   9.292 -0.6401  0.3337  0.3728
14703SOL     OW50200   7.843   7.788   6.269  0.5043 -0.1739 -0.3686
14703SOL    HW150201   7.896   7.793   6.190 -0.2355 -0.1778 -0.8708
14703SOL    HW250202   7.757   7.822   6.243 -0.1788 -1.5024  0.0575
14704SOL     OW50203   0.087   5.419   8.503  0.1722  0.0043  0.1000
14704SOL    HW150204   0.065   5.509   8.478 -0.2237  0.3755  1.6696
14704SOL    HW250205   0.041   5.365   8.439 -0.4556  0.9097 -0.2361
14705SOL     OW50206   9.791  10.772   5.977 -0.1049  1.1285  0.1731
14705SOL    HW150207   9.778  10.863   6.001 -0.1041  1.1762 -0.0103
14705SOL    HW250208   9.840  10.775   5.895  0.5914  0.9605  0.5758
14706SOL     OW50209   5.670   1.133   2.523  0.0482 -0.3976  0.0969
14706SOL    HW150210   5.657   1.040   2.504 -1.2465 -0.3421  0.6048
14706SOL    HW250211   5.653   1.140   2.617  0.1968  0.3410  0.0720
14707SOL     OW50212   4.141   8.441  10.290  0.0768  0.1366  0.2929
14707SOL    HW150213   4.109   8.421  10.378  1.6113  0.5219  0.9708
14707SOL    HW250214   4.168   8.533  10.295  0.1245  0.1764 -0.5912
14708SOL     OW50215   2.367   4.526   5.151  0.9043  0.3179  0.0801
14708SOL    HW150216   2.295   4.511   5.090 -0.7084 -0.5356  2.0409
14708SOL    HW250217   2.406   4.609   5.124 -2.8355  2.5069  0.6968
14709SOL     OW50218   4.885   7.721   3.086  0.5566  0.0332 -0.1782
14709SOL    HW150219   4.810   7.779   3.074  0.1569 -0.6286 -1.0505
14709SOL    HW250220   4.903   7.687   2.998  0.6374 -1.3152  0.3363
14710SOL     OW50221   6.957   5.389   0.351 -0.1537  0.1907  0.2718
14710SOL    HW150222   6.920   5.335   0.421  0.5227  1.0295  1.2960
14710SOL    HW250223   7.020   5.446   0.395 -0.5532  1.5430 -0.8433
14711SOL     OW50224   3.917   2.229  10.237 -0.8309 -0.0092 -0.0528
14711SOL    HW150225   3.900   2.169  10.309  0.1963  0.6854  0.8156
14711SOL    HW250226   3.885   2.314  10.268 -0.7863  0.2095 -0.5882
14712SOL     OW50227   5.837   4.795   4.480  0.0913 -0.2176  0.6362
14712SOL    HW150228   5.834   4.701   4.497 -0.6379 -0.4852 -0.8057
14712SOL    HW250229   5.748   4.818   4.456  0.4084  0.7044  0.2923
14713SOL     OW50230   5.344   3.521   0.989  0.5312  0.1739  0.1498
14713SOL    HW150231   5.266   3.541   1.041 -0.1274  0.3575 -0.8719
14713SOL    HW250232   5.415   3.568   1.033 -0.0020  0.3068  0.8864
14714SOL     OW50233   1.706  10.204   6.435  0.1371  0.6779 -0.1433
14714SOL    HW150234   1.793  10.219   6.397  0.2057  1.0974  0.1811
14714SOL    HW250235   1.721  10.142   6.506  0.0701  0.2338 -0.5075
14715SOL     OW50236   6.791   2.728  10.041 -0.1493  0.1697 -0.4646
14715SOL    HW150237   6.706   2.742  10.081 -0.7683 -0.6276 -1.4442
14715SOL    HW250238   6.827   2.817  10.029 -1.5536  0.6276 -1.5157
14716SOL     OW50239   1.721   1.003   2.038 -0.6862  0.6064 -0.1470
14716SOL    HW150240   1.753   1.091   2.055 -1.8165  0.8037  1.2059
14716SOL    HW250241   1.631   1.015   2.006 -1.1088 -0.0491  0.7313
14717SOL     OW50242   9.424   5.549   5.429  0.6916 -0.0443  0.5331
14717SOL    HW150243   9.339   5.526   5.466  0.3761  0.4447  0.1222
14717SOL    HW250244   9.486   5.530   5.499  0.2788 -0.6663  0.7379
14718SOL     OW50245   9.187   6.747   4.580  0.2685 -0.0165 -0.9079
14718SOL    HW150246   9.201   6.756   4.485 -1.9541 -1.1766 -1.4306
14718SOL    HW250247   9.120   6.679   4.587  0.6029 -0.1523  1.5441
14719SOL     OW50248  10.585   3.015   8.319  0.3308  0.1936  0.6040
14719SOL    HW150249  10.638   3.077   8.268  0.2884 -0.2199  0.0497
14719SOL    HW250250  10.596   2.931   8.274 -1.1984  0.2049  0.1591
14720SOL     OW50251   6.392  10.419   7.147  0.4201 -0.2104 -0.2746
14720SOL    HW150252   6.399  10.361   7.224  0.5131  0.2003  0.0332
14720SOL    HW250253   6.455  10.383   7.085  1.5258  0.3767  0.4655
14721SOL     OW50254   5.053   2.918   3.380  0.3611 -0.4629  0.0130
14721SOL    HW150255   5.098   2.973   3.315  0.4169 -0.0625  0.3825
14721SOL    HW250256   4.963   2.950   3.378  0.3478 -0.4984  0.0849
14722SOL     OW50257   8.616   5.230   2.815 -0.7295 -0.2929  0.2268
14722SOL    HW150258   8.673   5.217   2.890 -0.4280  0.0944  0.0659
14722SOL    HW250259   8.669   5.279   2.752 -0.1668 -2.5218 -1.1702
14723SOL     OW50260   6.791   8.989   8.454  1.0717 -0.3156 -0.1123
14723SOL    HW150261   6.801   9.057   8.387  0.1452 -0.3102 -0.2616
14723SOL    HW250262   6.719   8.935   8.422  0.4823 -0.2047  0.9629
14724SOL     OW50263   8.635  10.166   1.336 -0.5556  0.0305  0.2282
14724SOL    HW150264   8.689  10.245   1.338 -1.4913  0.6747  0.7708
14724SOL    HW250265   8.644  10.133   1.246 -0.7055  1.1404 -0.2074
14725SOL     OW50266   7.709   0.105   2.703 -0.3085 -0.2429 -0.1186
14725SOL    HW150267   7.737   0.190   2.668  2.3897 -0.9673  0.0492
14725SOL    HW250268   7.709   0.046   2.627  0.7939 -0.7347  0.2444
14726SOL     OW50269   5.787  10.061   1.248  0.0886 -0.1483 -0.1753
14726SOL    HW150270   5.851  10.057   1.319  1.0730 -0.5953 -1.0520
14726SOL    HW250271   5.833  10.105   1.177 -1.7787  2.8880  0.3151
14727SOL     OW50272  10.874   3.963   1.275 -0.4087  0.5465 -0.7909
14727SOL    HW150273  10.935   4.024   1.317  1.1412 -1.1462 -0.4454
14727SOL    HW250274  10.862   3.893   1.339 -1.1080 -0.1582 -1.6649
14728SOL     OW50275   2.591   3.015   7.637  0.1294 -0.3297 -0.7142
14728SOL    HW150276   2.666   3.010   7.578 -1.3656  1.2279 -2.9267
14728SOL    HW250277   2.526   3.066   7.588 -2.0757 -0.9193  1.4202
14729SOL     OW50278   8.321   8.241   2.605 -0.1479 -0.5542 -0.4257
14729SOL    HW150279   8.246   8.285   2.566 -0.4959 -0.0690  0.7352
14729SOL    HW250280   8.290   8.153   2.626 -0.2266 -0.5319 -0.4505
14730SOL     OW50281   9.739   5.522   6.739  0.3518  0.4781 -0.2065
14730SOL    HW150282   9.710   5.459   6.674  0.3557  1.4613 -1.1934
14730SOL    HW250283   9.659   5.543   6.789 -0.0781  1.1404 -1.1488
14731SOL     OW50284   6.343   1.411   6.244  0.2767  0.5244 -0.1164
14731SOL    HW150285   6.372   1.378   6.159  1.7916 -0.7985  0.8479
14731SOL    HW250286   6.274   1.351   6.272  2.3132 -1.4348  1.1616
14732SOL     OW50287   6.037   4.766   5.530  0.4475 -0.5240 -0.3494
14732SOL    HW150288   6.074   4.813   5.455  0.5229 -0.0951 -0.0480
14732SOL    HW250289   6.074   4.810   5.606 -0.7812  0.0089 -0.0362
14733SOL     OW50290  10.889   8.981   2.394  0.2125 -0.1289 -0.1167
14733SOL    HW150291  10.934   8.918   2.450 -0.1064  0.1719  0.4902
14733SOL    HW250292  10.918   9.066   2.426 -0.9593  0.0794  0.4582
14734SOL     OW50293   6.010   2.144   5.170  0.2774 -0.4814 -0.4366
14734SOL    HW150294   6.087   2.173   5.219 -0.1903 -3.6376  2.5268
14734SOL    HW250295   6.045   2.112   5.087  1.4459  2.3815 -1.1912
14735SOL     OW50296   0.791   0.875   2.509  0.3750 -0.1575 -0.5403
14735SOL    HW150297   0.833   0.814   2.448 -0.3115 -1.4492  0.2240
14735SOL    HW250298   0.736   0.819   2.564 -0.2923  1.1738  0.1879
14736SOL     OW50299   8.914   7.206   5.104  0.0198 -0.0261  0.2468
14736SOL    HW150300   8.964   7.162   5.173  0.5994  1.2216  0.6619
14736SOL    HW250301   8.947   7.169   5.023 -0.3535 -1.2006  0.6131
14737SOL     OW50302   9.123   2.890   7.893  0.5708 -0.3170  0.0409
14737SOL    HW150303   9.210   2.904   7.929  0.9282 -1.4991 -0.3194
14737SOL    HW250304   9.105   2.797   7.910  0.2153 -0.5835 -1.6460
14738SOL     OW50305   9.350   9.573   1.065  0.0057  0.0163 -0.2275
14738SOL    HW150306   9.331   9.536   0.979  0.5141  1.4479 -0.9974
14738SOL    HW250307   9.275   9.629   1.084  0.9318  1.5450 -0.8581
14739SOL     OW50308   0.233   5.169   7.224 -0.1235 -0.0688  0.0729
14739SOL    HW150309   0.285   5.108   7.172 -0.5076  0.3632 -0.8285
14739SOL    HW250310   0.181   5.113   7.282  1.2070 -0.5150  0.8728
14740SOL     OW50311   6.750   6.058   4.220 -0.1615  0.4894 -0.0918
14740SOL    HW150312   6.714   6.146   4.211 -0.5996  0.2941 -0.3245
14740SOL    HW250313   6.706   6.021   4.297 -0.2230  0.3626 -0.1865
14741SOL     OW50314   4.040   9.819   3.124 -0.2338 -0.4550  0.1238
14741SOL    HW150315   3.947   9.841   3.131 -0.3605 -1.0711  0.4704
14741SOL    HW250316   4.086   9.896   3.158 -0.6670 -0.7034  1.3309
14742SOL     OW50317   9.953   3.342   0.553 -0.0163  0.0967  0.6729
14742SOL    HW150318   9.887   3.405   0.525 -0.6592 -0.9100 -0.1671
14742SOL    HW250319  10.032   3.394   0.569 -0.4869  1.0867 -0.1443
14743SOL     OW50320   1.471   0.467   4.894 -0.1629 -0.4735 -1.0427
14743SOL    HW150321   1.500   0.378   4.876  1.8816 -0.4866  1.7340
14743SOL    HW250322   1.387   0.456   4.939  0.0980 -0.9924 -0.6782
14744SOL     OW50323   6.229   1.623   4.850  0.3433  0.7638 -0.0442
14744SOL    HW150324   6.138   1.653   4.856 -0.1852 -0.7749  0.1471
14744SOL    HW250325   6.260   1.618   4.940  0.0957 -0.1358  0.0082
14745SOL     OW50326   7.521   9.165   8.855  0.1640  0.3265 -0.6388
14745SOL    HW150327   7.478   9.218   8.788  0.5227  1.2404 -0.1627
14745SOL    HW250328   7.452   9.144   8.918 -0.0669 -0.1300 -1.0355
14746SOL     OW50329   1.479   3.447  10.677  0.4290  0.3794 -0.0510
14746SOL    HW150330   1.434   3.429  10.759 -0.3355 -0.8735 -0.7146
14746SOL    HW250331   1.544   3.377  10.669 -1.1226 -0.9967 -1.6289
14747SOL     OW50332   0.452   7.139   0.321 -0.2152 -0.0104  0.0948
14747SOL    HW150333   0.445   7.049   0.291  0.5064 -0.0635  0.0697
14747SOL    HW250334   0.546   7.160   0.314 -0.4782  0.9845 -0.6071
14748SOL     OW50335   9.926   5.221   6.824 -0.4576  0.1764  0.0293
14748SOL    HW150336   9.961   5.292   6.770 -1.2466  0.2857 -0.3551
14748SOL    HW250337   9.964   5.141   6.787 -0.1384  0.3339  0.0081
14749SOL     OW50338   8.379   4.096   5.996  0.2330 -0.1345  0.7596
14749SOL    HW150339   8.456   4.086   5.941 -1.0185 -0.7859 -0.9702
14749SOL    HW250340   8.363   4.008   6.031 -0.4579 -0.3003  0.0521
14750SOL     OW50341   5.390  10.568   6.081  0.3296  0.1191 -0.2536
14750SOL    HW150342   5.315  10.568   6.140  0.3702 -1.2411 -0.1589
14750SOL    HW250343   5.411  10.475   6.070  0.8749  0.3941 -1.7056
14751SOL     OW50344   7.981   7.422   8.709  0.6099  0.1231 -0.3436
14751SOL    HW150345   8.009   7.349   8.765  1.4068  0.0708 -0.7863
14751SOL    HW250346   7.977   7.497   8.768  1.5357  0.0886 -0.2095
14752SOL     OW50347   5.708   4.210   9.362 -0.3809  0.0582  0.2891
14752SOL    HW150348   5.692   4.251   9.277 -1.8336 -0.1634  0.4366
14752SOL    HW250349   5.799   4.231   9.382  0.0344 -0.0374 -1.3930
14753SOL     OW50350   3.674   3.530   5.131  0.1318 -0.2889  0.5638
14753SOL    HW150351   3.729   3.597   5.172  2.9559 -2.0228 -0.1092
14753SOL    HW250352   3.721   3.448   5.146 -1.2800 -1.6398 -1.7600
14754SOL     OW50353   4.400   0.949   2.222  0.2043 -0.0720 -0.0748
14754SOL    HW150354   4.346   1.028   2.226  0.0161 -0.1322 -1.0500
14754SOL    HW250355   4.338   0.879   2.202  0.1604 -0.7272  2.0799
14755SOL     OW50356  10.726   4.254   6.620  0.4521  0.0614 -0.2785
14755SOL    HW150357  10.815   4.245   6.654  0.2211  0.5032  0.4508
14755SOL    HW250358  10.723   4.194   6.545  1.1006 -0.6061  0.2132
14756SOL     OW50359   0.338   3.006   2.756 -0.0417 -0.2504  0.6435
14756SOL    HW150360   0.361   2.930   2.702  1.7999  0.0322  0.9572
14756SOL    HW250361   0.327   2.970   2.844 -1.9123 -0.5326  0.3412
14757SOL     OW50362   9.738   0.819   6.672  0.1766 -0.3062 -0.0058
14757SOL    HW150363   9.767   0.910   6.663  0.7055 -0.5366 -0.7593
14757SOL    HW250364   9.650   0.819   6.635  0.4710 -0.2474 -0.7292
14758SOL     OW50365   9.912   2.575   8.320  0.2818 -0.4632 -0.4138
14758SOL    HW150366   9.829   2.553   8.363  1.4348 -0.3661  1.9902
14758SOL    HW250367   9.935   2.495   8.271 -0.2460 -1.2063  0.5178
14759SOL     OW50368   5.450  10.818   9.097  0.2845  0.6422  0.6981
14759SOL    HW150369   5.495  10.758   9.038  2.4119  1.9694  0.8568
14759SOL    HW250370   5.507  10.895   9.100 -2.1910  2.5758  0.7099
14760SOL     OW50371   7.026   6.496   2.547 -0.1118 -0.0806 -0.1439
14760SOL    HW150372   6.979   6.421   2.582  0.0150  0.2590  0.7757
14760SOL    HW250373   7.119   6.473   2.557 -0.0709  0.2883  0.3458
14761SOL     OW50374   5.084   3.010   5.491 -0.2137 -0.1965  0.0799
14761SOL    HW150375   5.018   2.984   5.427 -1.1920 -0.2260  1.0668
14761SOL    HW250376   5.131   3.082   5.449 -0.5616 -0.4820 -0.8254
14762SOL     OW50377  10.801  10.062   8.614 -0.0506  0.7109 -0.1693
14762SOL    HW150378  10.821  10.052   8.521 -1.6729 -0.1015 -0.4673
14762SOL    HW250379  10.811  10.156   8.631  1.4504  0.6997 -0.8460
14763SOL     OW50380   9.217   1.105   7.796 -0.1563 -0.2402 -0.4866
14763SOL    HW150381   9.192   1.019   7.828 -2.0309  0.0487 -1.0301
14763SOL    HW250382   9.239   1.092   7.704 -2.5725  0.1246 -1.1930
14764SOL     OW50383   1.734   3.456  10.906 -0.5523 -0.1111 -0.1931
14764SOL    HW150384   1.744   3.483  10.997  1.2900 -0.5852 -0.2140
14764SOL    HW250385   1.718   3.538  10.859  3.3446  0.9368 -0.0437
14765SOL     OW50386   8.020   8.570   4.987 -0.4488  0.4663 -0.6494
14765SOL    HW150387   7.996   8.574   4.895 -0.2353  0.1048 -0.7244
14765SOL    HW250388   8.024   8.661   5.015  0.2339  0.6126 -1.1955
14766SOL     OW50389   1.307   3.679   9.362  0.3033  0.0289 -0.4664
14766SOL    HW150390   1.266   3.698   9.278  0.5675 -0.2653 -0.6619
14766SOL    HW250391   1.381   3.739   9.366 -1.0123  1.6928  0.5781
14767SOL     OW50392   5.376   6.175   1.794  0.0009  0.2372 -0.0396
14767SOL    HW150393   5.454   6.171   1.739  0.3564  0.4780  0.4350
14767SOL    HW250394   5.303   6.170   1.733  0.3888  0.8106 -0.5584
14768SOL     OW50395   0.357   0.177   9.172  0.5868  0.4330 -0.6166
14768SOL    HW150396   0.381   0.107   9.232 -2.1080 -1.6406 -1.7565
14768SOL    HW250397   0.408   0.159   9.093  0.6103  0.3603 -0.5851
14769SOL     OW50398   4.170   8.185   2.013 -0.8991  0.3745 -0.1531
14769SOL    HW150399   4.208   8.150   2.094  4.1173  1.0087 -1.8462
14769SOL    HW250400   4.142   8.273   2.036 -1.2276 -0.0715  1.2662
14770SOL     OW50401   2.839   9.991   1.547  0.0862 -0.0288  0.0979
14770SOL    HW150402   2.921   9.943   1.538  0.2847 -0.2130  2.2472
14770SOL    HW250403   2.794   9.978   1.464  1.5970 -1.1298 -0.5932
14771SOL     OW50404   1.785   1.428   7.304  0.2971  0.1359 -0.0707
14771SOL    HW150405   1.832   1.348   7.284 -0.7836 -0.5017 -0.1449
14771SOL    HW250406   1.750   1.457   7.220  0.3548  0.4728  0.0177
14772SOL     OW50407   9.911   3.808  10.788  0.0668  0.3810 -0.0012
14772SOL    HW150408   9.857   3.756  10.729 -0.6038  1.5402 -0.4411
14772SOL    HW250409   9.876   3.897  10.782  0.6505  0.7419  1.3562
14773SOL     OW50410   2.622  10.090   1.924  1.1195  0.1598 -0.1325
14773SOL    HW150411   2.600   9.997   1.925  0.8446  0.2279  0.8655
14773SOL    HW250412   2.717  10.092   1.935  1.1118 -0.0018 -0.0267
14774SOL     OW50413   5.223   3.305   2.963 -0.4442 -0.5769  0.4313
14774SOL    HW150414   5.224   3.312   3.058 -1.1833 -0.1915  0.4165
14774SOL    HW250415   5.287   3.236   2.943  0.0371 -0.3589  1.1733
14775SOL     OW50416   9.742   1.496   8.880  1.0087  0.2189 -0.4513
14775SOL    HW150417   9.690   1.559   8.928 -0.0790 -0.6211 -0.4992
14775SOL    HW250418   9.682   1.460   8.815  1.1837 -1.8305  0.4470
14776SOL     OW50419   7.651   8.308   7.365  0.0803  0.0981 -0.7295
14776SOL    HW150420   7.685   8.227   7.404  0.2565  0.0147 -1.0557
14776SOL    HW250421   7.576   8.280   7.313 -0.3292  0.2478 -0.2218
14777SOL     OW50422   8.176   8.990   1.810  0.3458 -0.1801 -0.9539
14777SOL    HW150423   8.143   8.926   1.747  0.0882  0.1891 -1.1958
14777SOL    HW250424   8.171   9.074   1.764 -1.8432  0.4227  0.2673
14778SOL     OW50425   3.811   1.301   1.208 -0.5322 -0.3982 -0.3416
14778SOL    HW150426   3.868   1.247   1.154 -0.4754 -2.3265  1.5169
14778SOL    HW250427   3.770   1.240   1.269 -1.0035  1.5782  1.4616
14779SOL     OW50428   2.896   0.631   4.601  0.8250 -0.2674 -0.5338
14779SOL    HW150429   2.868   0.667   4.517  0.8857 -0.6094 -0.7028
14779SOL    HW250430   2.986   0.601   4.585  0.4400 -1.3717 -0.6620
14780SOL     OW50431   6.844   9.037   9.105  0.3932  0.0585 -0.3238
14780SOL    HW150432   6.883   8.957   9.072  2.1402  1.0307 -0.7658
14780SOL    HW250433   6.770   9.055   9.047 -2.1616 -2.8814  1.7111
14781SOL     OW50434   6.718   9.541   4.353  0.1169  0.1209  0.3196
14781SOL    HW150435   6.690   9.606   4.288  1.0907  1.4851  1.1864
14781SOL    HW250436   6.669   9.564   4.432  1.8869  1.1469  1.2110
14782SOL     OW50437   5.199   0.095   1.814 -0.0712 -0.2351  0.4609
14782SOL    HW150438   5.110   0.081   1.848 -0.3967  0.6636  0.0255
14782SOL    HW250439   5.214   0.189   1.827  1.2931 -0.5763  1.6331
14783SOL     OW50440   2.476  10.271   5.454 -0.5042 -0.3692 -0.7649
14783SOL    HW150441   2.479  10.307   5.543 -0.3634  1.1156 -1.3276
14783SOL    HW250442   2.385  10.245   5.442 -0.8329  0.6317 -0.6042
14784SOL     OW50443   7.374  10.761   8.885  0.0967 -0.2051  0.5954
14784SOL    HW150444   7.452  10.773   8.831 -0.5444 -2.4959 -1.0062
14784SOL    HW250445   7.405  10.722   8.966  0.7232  0.0618  0.4842
14785SOL     OW50446   2.281   3.231   2.371 -0.1071 -0.1074  0.3081
14785SOL    HW150447   2.368   3.236   2.332  0.3545 -0.2247  1.3047
14785SOL    HW250448   2.221   3.236   2.296  0.6807  2.3013 -0.2260
14786SOL     OW50449   5.501  10.775   0.273  0.2891 -0.2045 -0.0537
14786SOL    HW150450   5.512  10.802   0.364  0.5241  0.1992 -0.1946
14786SOL    HW250451   5.471  10.684   0.277 -2.7877  0.7271  0.5042
14787SOL     OW50452   1.488   0.257   8.380 -0.0147  0.3857 -0.0080
14787SOL    HW150453   1.465   0.349   8.387  0.3358  0.4877 -0.1368
14787SOL    HW250454   1.405   0.210   8.387 -0.0508  0.6340  1.3943
14788SOL     OW50455   8.192   3.017   7.651  0.1346 -0.3703 -0.3063
14788SOL    HW150456   8.198   3.007   7.556  0.7556  0.1493 -0.3306
14788SOL    HW250457   8.264   2.963   7.686 -1.4596 -2.4000  0.0192
14789SOL     OW50458   0.640   1.415   9.481 -0.3721 -0.0060 -0.5342
14789SOL    HW150459   0.567   1.463   9.443 -1.6897 -0.4564  1.3048
14789SOL    HW250460   0.602   1.365   9.553  1.1518 -2.8846 -1.5531
14790SOL     OW50461   7.619   1.220   9.148  0.3685  0.0374 -0.4240
14790SOL    HW150462   7.656   1.253   9.065  1.7153 -0.7567 -0.1699
14790SOL    HW250463   7.572   1.296   9.184  2.9515  1.6166 -0.1020
14791SOL     OW50464   0.926  10.155   2.694  0.2054  0.2459 -0.6472
14791SOL    HW150465   1.002  10.104   2.668 -0.5862 -0.9700 -0.6675
14791SOL    HW250466   0.889  10.186   2.612  0.6173  0.7510 -0.6435
14792SOL     OW50467   8.721   7.584  10.068  0.2035  0.3209 -0.1645
14792SOL    HW150468   8.750   7.511  10.013  1.9707  0.5509  0.3780
14792SOL    HW250469   8.642   7.553  10.112  0.3529 -0.8802 -0.7219
14793SOL     OW50470   1.533   5.870   8.917  0.2891  0.2231 -0.4311
14793SOL    HW150471   1.479   5.949   8.922 -0.2753 -0.1734 -0.1078
14793SOL    HW250472   1.503   5.826   8.838  1.1142  0.6867 -1.0181
14794SOL     OW50473   1.739   7.811   6.823 -0.1583  0.4314  0.2012
14794SOL    HW150474   1.678   7.859   6.767 -0.6907 -0.2989  0.1310
14794SOL    HW250475   1.773   7.741   6.766 -0.4935 -0.1475  0.6922
14795SOL     OW50476   1.290   3.610   0.859  0.2404 -0.1679  0.2303
14795SOL    HW150477   1.325   3.699   0.851 -1.2530  0.3625 -0.9852
14795SOL    HW250478   1.196   3.620   0.840  0.3355 -2.2397 -1.7455
14796SOL     OW50479   0.980  10.234   4.704  0.0400  0.4590  0.5946
14796SOL    HW150480   1.037  10.179   4.758 -0.1535 -0.9273 -0.5563
14796SOL    HW250481   1.039  10.296   4.662  0.9084 -1.5242 -1.2755
14797SOL     OW50482   2.234   2.154   8.245 -0.0992  0.1870  0.6315
14797SOL    HW150483   2.165   2.117   8.190  1.4123  0.2978 -1.4502
14797SOL    HW250484   2.187   2.200   8.314 -2.1705  1.2099 -1.3194
14798SOL     OW50485   9.122   7.444  10.410 -0.4275  0.2179  0.3104
14798SOL    HW150486   9.109   7.428  10.317 -0.4390 -0.9786  0.5050
14798SOL    HW250487   9.106   7.359  10.452  3.6575 -0.4239  1.0192
14799SOL     OW50488   4.062   6.459   4.153  0.6206  0.1350 -0.3140
14799SOL    HW150489   4.157   6.459   4.165  0.6025  1.3152 -0.0713
14799SOL    HW250490   4.045   6.532   4.094 -0.0418 -0.7869 -1.2944
14800SOL     OW50491   6.302   2.494   6.055 -1.2892 -0.1778 -0.2109
14800SOL    HW150492   6.284   2.414   6.106 -1.3377 -0.2248 -0.3021
14800SOL    HW250493   6.385   2.476   6.010  0.9883  1.3587  2.9768
14801SOL     OW50494   2.516   2.324   6.831  0.8010  0.6132 -0.1151
14801SOL    HW150495   2.456   2.286   6.894 -1.4625  2.4416 -1.0594
14801SOL    HW250496   2.514   2.263   6.757  0.9357  0.1514  0.2535
14802SOL     OW50497   3.416   1.789  10.761  0.6314  0.4418  0.1809
14802SOL    HW150498   3.478   1.832  10.703  1.9086 -0.8362  0.5431
14802SOL    HW250499   3.335   1.839  10.751  0.9596  0.5878 -2.2471
14803SOL     OW50500   9.323   7.881   0.219  0.1547 -0.0314 -0.4429
14803SOL    HW150501   9.358   7.927   0.295  0.0929  0.2145 -0.5638
14803SOL    HW250502   9.280   7.949   0.167 -0.0619 -0.2479 -0.5487
14804SOL     OW50503   9.198   3.719  10.501 -0.6397 -0.1571 -0.3169
14804SOL    HW150504   9.228   3.776  10.430 -0.6356  0.7877  0.4354
14804SOL    HW250505   9.182   3.778  10.574 -3.6577 -0.6850 -0.4278
14805SOL     OW50506  10.834   4.293   8.216 -0.2478  0.0901  0.0454
14805SOL    HW150507  10.842   4.200   8.196 -2.2091  0.0747 -0.9592
14805SOL    HW250508  10.919   4.330   8.195  0.2561 -1.3116 -0.4809
14806SOL     OW50509   4.967   6.778   5.472  0.1030  0.0870 -0.3327
14806SOL    HW150510   5.007   6.755   5.556 -0.7063 -1.8629 -0.4311
14806SOL    HW250511   4.874   6.787   5.491  0.1807  1.7442 -0.6469
14807SOL     OW50512   5.690   4.055   3.740 -0.1255 -0.8535 -0.0801
14807SOL    HW150513   5.764   4.003   3.772 -0.6726 -0.8051  1.3426
14807SOL    HW250514   5.693   4.136   3.792 -0.8787 -0.6469 -0.3420
14808SOL     OW50515   0.941   0.882  10.015  0.4880 -0.2629  0.0479
14808SOL    HW150516   0.861   0.849   9.973  1.5099 -1.5930 -0.9470
14808SOL    HW250517   0.968   0.811  10.073 -1.1092  1.6654  3.4902
14809SOL     OW50518   2.123   7.703   8.236 -0.2057 -0.0593  0.4245
14809SOL    HW150519   2.111   7.611   8.260  0.9394 -0.3303 -0.0058
14809SOL    HW250520   2.042   7.746   8.264 -0.0371 -0.8560  2.2370
14810SOL     OW50521   8.482   4.932   5.248 -0.0424  0.0589  0.3051
14810SOL    HW150522   8.499   4.867   5.179  0.8230  0.4895  0.0990
14810SOL    HW250523   8.561   4.987   5.248 -0.1890  0.2729  1.4054
14811SOL     OW50524   3.850  10.660   7.630  0.3730 -0.0188 -0.5912
14811SOL    HW150525   3.861  10.721   7.703  1.0306 -0.3355 -0.4158
14811SOL    HW250526   3.805  10.585   7.669  1.6011 -0.6151 -0.2546
14812SOL     OW50527   7.519   7.867   3.776 -0.1111 -0.1048  0.2172
14812SOL    HW150528   7.501   7.951   3.819  0.9294 -0.1979  0.8921
14812SOL    HW250529   7.530   7.805   3.849 -0.2073 -0.6777 -0.2498
14813SOL     OW50530   0.099   3.179   6.072 -1.1479  0.1577 -0.1148
14813SOL    HW150531   0.073   3.146   6.158 -0.5052  0.5192  0.2225
14813SOL    HW250532   0.192   3.199   6.081 -0.6934 -1.2343 -1.3351
14814SOL     OW50533   0.604   9.429   6.761 -0.5062  0.1222 -0.2270
14814SOL    HW150534   0.666   9.470   6.702 -0.5812  1.7542  0.7711
14814SOL    HW250535   0.654   9.409   6.840 -0.8694 -0.1273 -0.0525
14815SOL     OW50536  10.756   3.769   4.099 -0.3649  0.1978  0.3115
14815SOL    HW150537  10.736   3.777   4.006 -1.4248  1.5143  0.6116
14815SOL    HW250538  10.840   3.724   4.102  0.1775  1.0168 -1.3350
14816SOL     OW50539   8.496   4.820   9.481  0.0734 -0.2582  0.5214
14816SOL    HW150540   8.591   4.818   9.494  0.1323 -2.2342  0.1772
14816SOL    HW250541   8.462   4.758   9.546 -0.9613  0.2136  0.4503
14817SOL     OW50542   3.664   0.111   8.013  0.3082 -0.0917  0.4385
14817SOL    HW150543   3.651   0.121   7.919  2.4884 -0.9350 -0.0164
14817SOL    HW250544   3.640   0.196   8.050  0.2188  0.5160 -0.9719
14818SOL     OW50545   9.568  10.606   8.656 -0.4245 -0.2487  0.2198
14818SOL    HW150546   9.569  10.534   8.593  0.1060 -0.0072 -0.0504
14818SOL    HW250547   9.653  10.648   8.647 -0.8722  0.6610  0.1005
14819SOL     OW50548   0.103   6.606   8.917 -0.6331 -0.2778 -0.1072
14819SOL    HW150549   0.065   6.671   8.975  1.4488 -0.6546  1.8272
14819SOL    HW250550   0.062   6.523   8.943  0.4774 -0.4833  1.0443
14820SOL     OW50551   1.632   5.180   4.839  0.0276  0.7195 -0.5092
14820SOL    HW150552   1.703   5.229   4.796  2.8793 -1.9574  0.7514
14820SOL    HW250553   1.641   5.203   4.932  0.0506 -0.5537 -0.1877
14821SOL     OW50554   8.446   7.857   8.387  0.0105  0.4771  0.6131
14821SOL    HW150555   8.537   7.888   8.382  1.0637 -1.4971  4.3301
14821SOL    HW250556   8.441   7.788   8.321  0.7743  1.4176 -0.4819
14822SOL     OW50557   2.681   2.630   0.015 -0.2614  0.3585 -0.1314
14822SOL    HW150558   2.735   2.551   0.017 -1.5098 -0.5382  1.2316
14822SOL    HW250559   2.634   2.625  -0.068 -0.2005 -0.2614 -0.1319
14823SOL     OW50560  10.621   3.238   3.601  0.4295  0.1629  0.1395
14823SOL    HW150561  10.627   3.278   3.688 -0.8793  2.3990 -0.7224
14823SOL    HW250562  10.706   3.194   3.589  0.9000  0.3998  2.2472
14824SOL     OW50563  10.598   0.201   6.981 -0.5814  0.0773  0.1532
14824SOL    HW150564  10.593   0.130   6.917  1.1290 -0.0336  0.1039
14824SOL    HW250565  10.687   0.196   7.016 -0.6323  1.7880  0.6187
14825SOL     OW50566   9.634   5.606   7.815 -0.3180 -0.3867 -0.2741
14825SOL    HW150567   9.721   5.633   7.845  0.0567 -1.2901 -0.5225
14825SOL    HW250568   9.651   5.556   7.735 -1.1063 -0.1802 -0.5771
14826SOL     OW50569   6.510   8.225  10.645 -0.0599 -0.1534  0.1442
14826SOL    HW150570   6.502   8.130  10.654  1.4441 -0.2140  1.1610
14826SOL    HW250571   6.420   8.256  10.646 -0.5423 -1.2800  3.3834
14827SOL     OW50572   8.794   7.874   7.466 -0.3987 -0.0497 -0.2920
14827SOL    HW150573   8.758   7.905   7.383  0.3322  0.0228 -0.5844
14827SOL    HW250574   8.780   7.948   7.527  0.9848  0.7338 -0.8864
14828SOL     OW50575   3.264   2.986   4.760  0.1345 -0.1307  0.3849
14828SOL    HW150576   3.316   2.977   4.680  0.2465  0.7491  0.3455
14828SOL    HW250577   3.244   3.080   4.765 -0.7975 -0.3460  0.8145
14829SOL     OW50578   0.943   3.264   8.943  0.3242  0.4436 -0.2728
14829SOL    HW150579   0.899   3.271   9.028  3.0419 -4.3648  1.9510
14829SOL    HW250580   1.027   3.308   8.957  0.8700 -0.5605 -0.3008
14830SOL     OW50581   4.148   0.710   7.270  0.2347  0.0503 -0.2179
14830SOL    HW150582   4.074   0.649   7.267  0.3049 -0.0564  0.1581
14830SOL    HW250583   4.116   0.789   7.226 -0.8999  0.8440  1.8710
14831SOL     OW50584   1.532   5.069   7.407 -0.2774  0.2014 -0.6095
14831SOL    HW150585   1.590   5.117   7.349 -0.2049 -0.3153 -0.9698
14831SOL    HW250586   1.447   5.114   7.399 -0.3212  0.0022 -1.2748
14832SOL     OW50587   3.882   2.943   3.519 -0.0992 -0.2360  0.1800
14832SOL    HW150588   3.929   2.864   3.546  0.1666 -0.1828 -0.1254
14832SOL    HW250589   3.883   2.999   3.596 -1.7138 -1.1819  0.9548
14833SOL     OW50590   8.730   7.429   4.084  1.0092 -0.6322 -0.0917
14833SOL    HW150591   8.819   7.457   4.104  0.4930  0.4253  0.8695
14833SOL    HW250592   8.677   7.509   4.093  0.0582 -1.0866 -1.3356
14834SOL     OW50593   2.193   8.841   9.260 -0.4265 -0.3873  0.3649
14834SOL    HW150594   2.180   8.817   9.168 -0.5661  0.9787  0.0025
14834SOL    HW250595   2.122   8.901   9.279  0.6314  0.7626  0.8232
14835SOL     OW50596   0.264  10.439   7.690 -0.0506  0.7119  0.4369
14835SOL    HW150597   0.202  10.480   7.631  0.8483  0.6459 -0.5938
14835SOL    HW250598   0.343  10.426   7.637  0.7024  0.4153  1.5820
14836SOL     OW50599  10.298   3.286   0.325  0.0899 -0.2300 -0.1156
14836SOL    HW150600  10.213   3.250   0.349  0.7761 -0.3624  2.3714
14836SOL    HW250601  10.336   3.221   0.267 -0.6778 -1.1491  0.3814
14837SOL     OW50602   6.964   0.874   7.010  0.0113  0.5248  0.3189
14837SOL    HW150603   7.028   0.945   7.002  0.0215  0.4856  0.0108
14837SOL    HW250604   7.013   0.803   7.052  0.0198  0.6790  0.5664
14838SOL     OW50605   1.721   6.845   9.953  0.7165  0.3157 -0.2680
14838SOL    HW150606   1.660   6.918   9.966 -1.7129 -1.4671 -0.8191
14838SOL    HW250607   1.778   6.872   9.882 -0.7610  1.3238 -1.1083
14839SOL     OW50608   1.267  10.481   7.695  0.6076  0.6471  0.2049
14839SOL    HW150609   1.249  10.525   7.778 -3.0015 -0.9771  0.4519
14839SOL    HW250610   1.342  10.425   7.714 -0.8899 -0.6622  2.8452
14840SOL     OW50611   2.446   6.074   3.982  0.1716 -0.5412  0.2669
14840SOL    HW150612   2.507   6.026   4.038  0.0913 -1.6748 -0.5900
14840SOL    HW250613   2.469   6.166   3.995  0.5797 -0.8267  1.6523
14841SOL     OW50614   0.006   2.921   1.043 -0.3425  0.0675  0.0204
14841SOL    HW150615   0.029   2.953   1.131 -0.4237  0.5492 -0.1347
14841SOL    HW250616   0.030   2.828   1.045 -1.8403 -0.3233  1.0809
14842SOL     OW50617   6.685   3.312   4.555 -0.0362  0.0663  0.3346
14842SOL    HW150618   6.624   3.240   4.539  2.5463 -2.1559 -0.2342
14842SOL    HW250619   6.646   3.387   4.508 -0.6615 -2.1081 -2.9786
14843SOL     OW50620   8.715   9.199   0.961  0.3166  0.3329  0.2708
14843SOL    HW150621   8.730   9.169   0.871 -0.1743 -1.9359  0.8922
14843SOL    HW250622   8.769   9.278   0.968  0.3731  0.5806 -1.9912
14844SOL     OW50623   3.079   9.621   2.293 -0.5618  0.4672  0.8111
14844SOL    HW150624   3.091   9.691   2.357  0.4079  3.1285 -2.0393
14844SOL    HW250625   3.154   9.564   2.307  0.3620  1.7246  1.1941
14845SOL     OW50626   3.628   6.543   0.614 -0.0586 -0.2101  0.0193
14845SOL    HW150627   3.611   6.501   0.530  0.7173 -0.4010 -0.0490
14845SOL    HW250628   3.594   6.631   0.604 -0.7288 -0.4904 -0.2064
14846SOL     OW50629   7.019   5.891   5.340  0.0219 -0.2503  0.0615
14846SOL    HW150630   7.080   5.941   5.286  0.6674  0.1836  1.1554
14846SOL    HW250631   7.024   5.802   5.305  0.0768  0.1101 -0.8748
14847SOL     OW50632   4.270   2.808   9.924 -0.0297  0.6322 -0.8460
14847SOL    HW150633   4.267   2.880   9.987 -0.2723  0.9525 -1.2179
14847SOL    HW250634   4.345   2.756   9.950 -0.4326  0.4663  0.0315
14848SOL     OW50635   1.710   6.551   3.870  0.1856 -0.3266 -0.0903
14848SOL    HW150636   1.628   6.592   3.897  0.3409 -1.7712  3.0943
14848SOL    HW250637   1.735   6.596   3.789 -2.7879  1.3755 -0.1897
14849SOL     OW50638   3.228   9.150   5.266 -0.2316  0.3652  0.2060
14849SOL    HW150639   3.141   9.124   5.297  0.0928 -1.9539 -0.6480
14849SOL    HW250640   3.221   9.148   5.171  0.4228  1.5109  0.1090
14850SOL     OW50641   2.973   1.148   9.686  0.1018 -0.7173  0.2350
14850SOL    HW150642   2.939   1.228   9.725  1.8900 -0.6455  1.8347
14850SOL    HW250643   3.043   1.178   9.628  0.2108 -1.0646  0.1861
14851SOL     OW50644   0.947   6.904   9.054 -0.8606  0.2998 -0.3437
14851SOL    HW150645   0.918   6.863   9.135 -0.3717  1.6767  0.5644
14851SOL    HW250646   0.990   6.985   9.082 -0.7267  0.8312 -1.9772
14852SOL     OW50647   9.067   2.920   4.736  0.2974 -0.0088 -0.0616
14852SOL    HW150648   9.137   2.870   4.696 -1.9411 -2.2459 -1.5041
14852SOL    HW250649   9.094   2.930   4.828  2.4103 -0.8282 -0.5396
14853SOL     OW50650   0.329   6.057   8.864  0.5123 -0.2070 -0.6376
14853SOL    HW150651   0.253   6.044   8.808  0.1338  0.1103 -0.2081
14853SOL    HW250652   0.399   6.006   8.824 -0.1784 -1.2567 -0.5234
14854SOL     OW50653  10.353   1.788   3.355 -0.4388 -0.3181  1.3669
14854SOL    HW150654  10.400   1.838   3.289  0.7143 -0.9648  1.6668
14854SOL    HW250655  10.262   1.819   3.350  0.1210  1.3499  1.1379
14855SOL     OW50656   7.493   4.664   6.573 -0.3303  0.1323 -0.4868
14855SOL    HW150657   7.519   4.603   6.642  2.0124 -0.5147 -1.8036
14855SOL    HW250658   7.565   4.728   6.570 -0.0836 -0.1640 -2.6051
14856SOL     OW50659   1.215   3.412   4.992  0.0928 -0.1701 -0.1645
14856SOL    HW150660   1.237   3.319   4.983 -2.4077 -1.1718  2.5321
14856SOL    HW250661   1.274   3.444   5.060  0.8158  0.2072 -0.9518
14857SOL     OW50662   7.978   4.822   5.218 -0.1643  0.0006  0.6467
14857SOL    HW150663   7.928   4.903   5.216 -0.7578 -0.3399 -1.7033
14857SOL    HW250664   8.045   4.834   5.150 -0.4076 -1.5343  0.1035
14858SOL     OW50665   8.177   8.266   5.189 -0.6258 -0.3671 -0.2399
14858SOL    HW150666   8.198   8.345   5.139 -0.2290  0.4221  1.1055
14858SOL    HW250667   8.201   8.193   5.132 -0.3111  0.4939 -1.2261
14859SOL     OW50668   9.278   3.453  10.415  0.4045  0.8171 -0.2544
14859SOL    HW150669   9.188   3.424  10.427  1.2169 -0.7911  2.6548
14859SOL    HW250670   9.282   3.539  10.458  0.5179  0.3716  0.6326
14860SOL     OW50671   5.377   2.546   8.817  0.0804  0.0761 -0.3629
14860SOL    HW150672   5.451   2.587   8.860 -0.0100 -1.0823  0.9995
14860SOL    HW250673   5.412   2.513   8.734  1.3334 -1.1306  0.5891
14861SOL     OW50674   7.961   8.619   9.185 -0.4871 -0.5146 -0.4432
14861SOL    HW150675   7.958   8.622   9.090 -0.0965  0.3972 -0.4343
14861SOL    HW250676   7.911   8.696   9.213  0.4224 -0.0887  0.0575
14862SOL     OW50677   8.517   1.889   8.038 -1.0549 -0.4540 -0.0461
14862SOL    HW150678   8.465   1.956   8.082 -0.3652 -0.8835  1.5182
14862SOL    HW250679   8.462   1.859   7.966 -3.5956 -1.7585  2.2463
14863SOL     OW50680   8.618   8.426   6.959 -0.2375  0.6087  0.1744
14863SOL    HW150681   8.546   8.441   7.021 -0.4127  2.8781 -0.4709
14863SOL    HW250682   8.635   8.513   6.922 -0.0025 -0.5961 -2.8045
14864SOL     OW50683   1.180   0.251   8.084 -0.0972 -0.2142 -0.0618
14864SOL    HW150684   1.172   0.261   8.179 -1.7984 -0.8694 -0.1018
14864SOL    HW250685   1.093   0.271   8.051 -0.0523 -1.9048 -1.3013
14865SOL     OW50686   6.671   2.024  10.169 -0.1128  0.3846 -0.1272
14865SOL    HW150687   6.582   2.002  10.141 -0.4695  1.0184  0.4866
14865SOL    HW250688   6.726   1.962  10.121 -0.7427  0.9831 -1.7004
14866SOL     OW50689   8.945   6.053   4.558  0.4081  0.9055  0.2418
14866SOL    HW150690   8.937   6.146   4.539 -1.6287  0.2518 -2.9158
14866SOL    HW250691   8.867   6.032   4.609  1.9176  1.1940  2.8372
14867SOL     OW50692   2.567   7.486   1.311  0.2142 -0.0188  0.6070
14867SOL    HW150693   2.550   7.397   1.341  2.4441 -0.5915  0.3721
14867SOL    HW250694   2.602   7.531   1.388  0.4020  0.2379  0.3743
14868SOL     OW50695   4.501   8.308   9.329 -0.4856 -0.4998 -0.4028
14868SOL    HW150696   4.446   8.230   9.327  1.3461 -1.9602  1.3071
14868SOL    HW250697   4.543   8.305   9.415  1.0231  1.3951 -0.9953
14869SOL     OW50698   0.105   3.001   7.468 -0.1381  0.1842  0.0823
14869SOL    HW150699   0.172   2.973   7.405 -2.2366 -2.2720 -1.2516
14869SOL    HW250700   0.154   3.048   7.535  2.5694  0.7101 -2.0447
14870SOL     OW50701   2.974   5.365   1.168 -0.5279 -0.1286  0.2261
14870SOL    HW150702   2.994   5.458   1.178  1.5424 -0.4611 -0.4559
14870SOL    HW250703   2.901   5.363   1.106 -0.5827  1.0348  0.2321
14871SOL     OW50704   4.130   2.432   5.826  0.1322  0.0342 -0.1096
14871SOL    HW150705   4.054   2.402   5.877 -1.3731  0.0397 -2.2296
14871SOL    HW250706   4.111   2.523   5.806 -0.2249 -0.4294 -2.1232
14872SOL     OW50707   3.014   6.517   1.594 -0.0379  0.9544  0.0608
14872SOL    HW150708   2.949   6.474   1.649  0.7018  1.0544  1.0411
14872SOL    HW250709   3.024   6.604   1.632 -0.2985  1.4152 -0.8976
14873SOL     OW50710   4.955  10.848   6.622 -0.4631  0.2152  0.4775
14873SOL    HW150711   5.047  10.851   6.647 -1.1073 -0.7625  3.3552
14873SOL    HW250712   4.948  10.772   6.565  0.2658 -0.6838  1.5439
14874SOL     OW50713   9.517   9.562   9.909  0.6715 -0.2613  0.3266
14874SOL    HW150714   9.432   9.570   9.951  1.5497 -0.9745  2.3392
14874SOL    HW250715   9.497   9.545   9.817 -1.3251  2.7122  0.0733
14875SOL     OW50716   8.704   3.851   1.447  0.6054 -0.1596 -0.8400
14875SOL    HW150717   8.774   3.812   1.394  2.0907  0.0866  0.8494
14875SOL    HW250718   8.718   3.817   1.535  0.7118  2.5142  0.2806
14876SOL     OW50719   8.809   8.122   1.899  0.1118  0.1662 -0.4925
14876SOL    HW150720   8.873   8.173   1.949 -0.9156 -1.1863  2.4202
14876SOL    HW250721   8.854   8.039   1.881  0.3295  0.4909 -1.4718
14877SOL     OW50722   1.537   7.371   1.946  0.4781  0.1300  0.1871
14877SOL    HW150723   1.582   7.301   1.899  1.9270  1.2521 -0.1758
14877SOL    HW250724   1.470   7.402   1.885 -1.6568 -2.2732  1.1322
14878SOL     OW50725   2.641   1.402   2.233 -0.1638 -0.2628 -0.4939
14878SOL    HW150726   2.727   1.379   2.269  0.6524  2.3737 -0.5516
14878SOL    HW250727   2.614   1.325   2.183  1.8361 -1.4141  0.1062
14879SOL     OW50728   1.607  10.322   5.363 -0.1929 -0.3769  0.7676
14879SOL    HW150729   1.630  10.401   5.412 -3.9854  0.8508  0.8597
14879SOL    HW250730   1.585  10.257   5.431 -3.1710  0.5903  0.8524
14880SOL     OW50731   6.260   7.476   0.579 -0.1736 -0.3476  0.2126
14880SOL    HW150732   6.241   7.419   0.505 -0.0731 -1.3818  0.9646
14880SOL    HW250733   6.252   7.420   0.656 -0.5562  0.7694  1.0193
14881SOL     OW50734  10.723   5.483   7.639 -0.3635  0.4395  0.3569
14881SOL    HW150735  10.808   5.526   7.652  0.2117 -0.4464 -0.3017
14881SOL    HW250736  10.717   5.473   7.544 -1.4215  0.9024  0.3693
14882SOL     OW50737   5.952   3.342   6.593 -0.8098 -0.0698  0.0865
14882SOL    HW150738   5.999   3.414   6.552 -1.3831  0.7622  0.8516
14882SOL    HW250739   5.981   3.264   6.546  1.8671  0.2882  0.9877
14883SOL     OW50740   6.190   6.289  10.449  0.0617  0.2950  0.2222
14883SOL    HW150741   6.254   6.338  10.500  1.5986 -0.8146 -0.5418
14883SOL    HW250742   6.182   6.337  10.366 -0.5168  0.7169  0.5149
14884SOL     OW50743   0.320   4.464   9.833 -0.3779  0.3804 -0.6828
14884SOL    HW150744   0.407   4.432   9.809 -0.3820 -0.4568  0.3752
14884SOL    HW250745   0.324   4.558   9.815 -0.0620 -0.0117 -2.9293
14885SOL     OW50746   0.777  10.301   0.622 -0.1647 -0.3210 -0.3700
14885SOL    HW150747   0.809  10.221   0.663  1.4668  0.1071 -0.7337
14885SOL    HW250748   0.790  10.369   0.687 -1.8478 -0.3680  0.0588
14886SOL     OW50749   7.114   3.935   3.701 -0.1248  0.1536  0.4153
14886SOL    HW150750   7.194   3.883   3.714 -0.9419 -0.7706  2.0113
14886SOL    HW250751   7.079   3.903   3.618  0.5251 -0.2901  0.3016
14887SOL     OW50752   6.921  10.305   7.059  0.5610  0.2272  0.3104
14887SOL    HW150753   6.947  10.397   7.046 -0.3404  0.6029  1.0421
14887SOL    HW250754   6.891  10.277   6.973 -2.4748  1.7455  0.7272
14888SOL     OW50755   3.684   6.483   7.152 -0.3783  0.4549  0.0657
14888SOL    HW150756   3.604   6.456   7.107  0.2853 -0.3926 -0.6558
14888SOL    HW250757   3.678   6.578   7.158 -0.9503  0.4944 -0.9486
14889SOL     OW50758   5.332  10.497   3.136 -0.2449  0.4128  0.3819
14889SOL    HW150759   5.393  10.507   3.063 -0.9473 -1.1281 -0.4538
14889SOL    HW250760   5.337  10.405   3.160 -1.6670  0.4235  0.8127
14890SOL     OW50761  10.277   1.984   9.976 -0.2278 -0.2359 -0.5612
14890SOL    HW150762  10.198   2.037   9.971  0.1322  0.5966  1.4789
14890SOL    HW250763  10.348   2.048   9.982  0.2785 -0.9004  1.1653
14891SOL     OW50764   1.403   1.731   8.279 -0.5635 -0.3619  0.2789
14891SOL    HW150765   1.403   1.643   8.317 -1.1184 -0.8374 -0.7692
14891SOL    HW250766   1.486   1.738   8.232 -0.8329 -0.6249 -0.2545
14892SOL     OW50767   8.130   8.861   6.627 -0.3027 -0.2608 -0.6225
14892SOL    HW150768   8.211   8.845   6.579 -0.1656  0.0518 -0.4941
14892SOL    HW250769   8.137   8.951   6.657 -0.1451 -0.6165  0.4494
14893SOL     OW50770   2.381   2.523  10.430  0.0531  0.2954 -0.1874
14893SOL    HW150771   2.472   2.531  10.400  0.2483  1.4887  0.6816
14893SOL    HW250772   2.385   2.535  10.525 -0.9856  0.1429 -0.1082
14894SOL     OW50773   3.338   8.013   3.044 -0.3582  0.1991  0.1405
14894SOL    HW150774   3.382   7.969   3.116  1.5758  0.5490 -0.7659
14894SOL    HW250775   3.271   8.067   3.086  0.8564  0.5598  1.6924
14895SOL     OW50776  10.112   2.919   0.990 -0.3184 -0.2541  0.3689
14895SOL    HW150777  10.127   2.990   1.052 -1.0125 -0.3661  0.6793
14895SOL    HW250778  10.172   2.936   0.918 -0.3425  0.5351  0.5341
14896SOL     OW50779   5.698   5.001   8.499 -0.4197  0.1925  0.1086
14896SOL    HW150780   5.764   4.932   8.501 -0.8535 -0.2220  0.6304
14896SOL    HW250781   5.621   4.961   8.540 -0.3601  1.3035  1.3797
14897SOL     OW50782   3.085   3.482   5.220  0.4416  0.2912  0.5136
14897SOL    HW150783   3.012   3.439   5.265  0.2064 -0.3816 -0.4575
14897SOL    HW250784   3.163   3.454   5.267  0.4771 -2.6417 -1.0240
14898SOL     OW50785   5.031   5.464   9.020  0.0702  0.2416  0.4276
14898SOL    HW150786   4.943   5.482   8.987  0.2261 -0.0630 -0.1759
14898SOL    HW250787   5.048   5.534   9.083 -0.4741  0.4915  0.3011
14899SOL     OW50788   7.036   8.764   9.086  0.1718 -0.2472  0.0520
14899SOL    HW150789   7.074   8.782   9.000  0.0398 -0.3493 -0.0290
14899SOL    HW250790   7.090   8.814   9.147  0.6623 -0.6808 -0.0187
14900SOL     OW50791   4.004   6.447   8.786  0.0457 -0.3229 -0.4468
14900SOL    HW150792   3.915   6.452   8.821  0.3865 -0.7877  0.5270
14900SOL    HW250793   4.060   6.468   8.860  0.8001 -1.5878 -0.6336
14901SOL     OW50794  10.385   7.417   6.105  0.6107  0.1549  0.5359
14901SOL    HW150795  10.445   7.366   6.051 -1.5568 -0.1333 -1.7351
14901SOL    HW250796  10.426   7.503   6.111  1.7900 -0.3396  0.0180
14902SOL     OW50797   3.706   1.765   8.100  0.5664 -0.1926  0.0552
14902SOL    HW150798   3.652   1.730   8.171  0.8636 -0.4417  0.1623
14902SOL    HW250799   3.668   1.851   8.081  0.9589  0.2060  1.0338
14903SOL     OW50800   7.784  10.681   9.851  0.3303  0.3446  0.6782
14903SOL    HW150801   7.839  10.657   9.925 -2.5198 -0.2841  2.7779
14903SOL    HW250802   7.742  10.763   9.878  0.6272  1.1129 -1.0745
14904SOL     OW50803   0.191   3.610   0.618 -0.5674 -0.5480  0.1083
14904SOL    HW150804   0.169   3.519   0.639  0.0955 -0.9735 -0.9563
14904SOL    HW250805   0.109   3.657   0.631 -1.0787 -1.4018  0.1070
14905SOL     OW50806   6.509   5.233   7.089  0.3464 -0.0677  0.0571
14905SOL    HW150807   6.585   5.196   7.043  0.3092 -0.2036  0.1028
14905SOL    HW250808   6.473   5.159   7.138  0.3214  0.0497  0.2180
14906SOL     OW50809   2.816   9.469  10.739 -0.1044 -0.0459 -0.2479
14906SOL    HW150810   2.741   9.526  10.722  0.1886  0.6177  0.5610
14906SOL    HW250811   2.810   9.399  10.674 -0.2191  1.1674 -1.5903
14907SOL     OW50812   7.223   0.033   2.634  0.0486 -0.3047  0.0806
14907SOL    HW150813   7.305   0.043   2.682 -0.3110  1.0942  0.4600
14907SOL    HW250814   7.228  -0.054   2.594  2.2916  0.2654 -1.0197
14908SOL     OW50815   3.651   8.403   5.672 -0.2503  0.3106  0.2560
14908SOL    HW150816   3.581   8.433   5.731 -0.7142  0.8676 -0.5601
14908SOL    HW250817   3.637   8.452   5.591  0.6315 -0.1384 -0.1803
14909SOL     OW50818   9.067   8.440   4.495  0.2027  0.2858 -0.1678
14909SOL    HW150819   8.977   8.473   4.507  0.5535  1.0603  0.3848
14909SOL    HW250820   9.091   8.469   4.407  0.2921  1.0094  0.0908
14910SOL     OW50821   4.151   8.873   8.849  0.9294 -0.2958  0.1333
14910SOL    HW150822   4.127   8.959   8.813 -1.2212 -1.7249 -2.2151
14910SOL    HW250823   4.069   8.837   8.882  2.3680 -0.2262  4.2950
14911SOL     OW50824   3.906   8.900   4.452 -0.2210  0.5480  0.3571
14911SOL    HW150825   3.901   8.834   4.521 -1.0929  2.0449  1.7927
14911SOL    HW250826   3.996   8.895   4.420 -0.1125 -0.9138  0.8227
14912SOL     OW50827   2.755  10.437   9.586 -0.1626 -0.6640 -0.3188
14912SOL    HW150828   2.739  10.353   9.628  1.5508  0.0710  1.9696
14912SOL    HW250829   2.670  10.482   9.590 -1.0450 -2.1042 -1.3786
14913SOL     OW50830  10.770   7.183   0.966  0.3109  0.0194  0.6045
14913SOL    HW150831  10.709   7.206   1.036 -2.0675  0.4049 -1.4297
14913SOL    HW250832  10.764   7.088   0.959  0.2368  0.0187  0.6721
14914SOL     OW50833   5.767   7.091   6.390  0.6407  0.6915 -0.4848
14914SOL    HW150834   5.818   7.168   6.414  0.1614  1.0169 -0.4931
14914SOL    HW250835   5.776   7.031   6.465  3.1863 -0.3908 -1.5554
14915SOL     OW50836  10.765   0.312   6.127  0.8375 -0.6029  0.1418
14915SOL    HW150837  10.698   0.245   6.141 -2.2900  2.0887 -0.8025
14915SOL    HW250838  10.769   0.323   6.032  2.1983 -0.2675  0.2183
14916SOL     OW50839   7.287   8.456   3.340  0.1392 -0.3719 -0.2219
14916SOL    HW150840   7.330   8.371   3.326  1.0474 -0.1308  0.9066
14916SOL    HW250841   7.193   8.437   3.332  0.2167 -1.8588  1.6129
14917SOL     OW50842   7.312   2.906   6.171 -0.7827 -0.2505  0.4778
14917SOL    HW150843   7.378   2.839   6.155  0.6253  1.0697  0.5812
14917SOL    HW250844   7.231   2.856   6.186  0.2445 -1.9242  0.7573
14918SOL     OW50845   4.274   8.726   8.654 -0.3887  0.6391  0.5391
14918SOL    HW150846   4.205   8.759   8.596  0.7337  0.3962 -1.0080
14918SOL    HW250847   4.253   8.764   8.740 -2.6431  0.2532  0.2346
14919SOL     OW50848   0.720   4.367   2.191 -0.0964 -0.3287  0.5188
14919SOL    HW150849   0.803   4.363   2.240  0.1301 -4.9180  0.2042
14919SOL    HW250850   0.653   4.350   2.257 -0.6016  0.9673  0.3659
14920SOL     OW50851   3.261   1.249   5.888 -0.0584  0.3298  0.1379
14920SOL    HW150852   3.279   1.169   5.938 -1.8385 -0.0273  0.3008
14920SOL    HW250853   3.334   1.258   5.828  0.6698 -0.8643  0.8141
14921SOL     OW50854   0.759   0.702   1.384  0.0187 -0.1542 -0.0267
14921SOL    HW150855   0.799   0.789   1.385  1.0551 -0.6132 -0.0488
14921SOL    HW250856   0.826   0.646   1.345 -0.7165 -0.9320 -0.2068
14922SOL     OW50857   3.442   9.872  10.839  0.8415  0.6391 -0.0404
14922SOL    HW150858   3.454   9.838  10.750  1.9008  2.6789 -0.7377
14922SOL    HW250859   3.526   9.911  10.861  0.6320  0.0899  1.9416
14923SOL     OW50860   4.192   4.946   4.473  0.3782  0.0798  0.3428
14923SOL    HW150861   4.264   4.990   4.516  0.6141 -0.6939  0.7653
14923SOL    HW250862   4.116   4.965   4.528  0.9457 -2.1700  2.0541
14924SOL     OW50863   0.944   5.458   0.174 -0.5761  0.0596  0.2417
14924SOL    HW150864   0.909   5.544   0.195 -1.1845 -0.1482  0.1283
14924SOL    HW250865   0.875   5.397   0.201 -0.1723 -0.3888  0.2830
14925SOL     OW50866   8.366   7.682   1.728 -0.0821 -0.0463 -0.4362
14925SOL    HW150867   8.281   7.723   1.716 -0.8728 -1.4866  0.0150
14925SOL    HW250868   8.406   7.731   1.800 -0.9386  0.0511 -0.0090
14926SOL     OW50869   4.305   0.610   1.596  0.6424 -0.3549 -0.2424
14926SOL    HW150870   4.261   0.685   1.636 -0.3372 -0.4731 -1.0665
14926SOL    HW250871   4.263   0.534   1.637  0.2804 -0.4636 -0.8053
14927SOL     OW50872   6.269   5.476   3.260 -0.0856 -0.2486 -0.1940
14927SOL    HW150873   6.311   5.517   3.185  0.9449 -1.0728 -0.0912
14927SOL    HW250874   6.181   5.514   3.262 -0.0209  0.0338 -1.6044
14928SOL     OW50875   1.574   1.927   6.743 -0.3693  0.6330  0.2904
14928SOL    HW150876   1.574   2.003   6.800 -0.0426  2.1585 -1.6371
14928SOL    HW250877   1.607   1.959   6.660 -0.1840 -1.6416 -0.5968
14929SOL     OW50878   9.119   1.831   3.661 -0.1637 -0.0548 -0.2502
14929SOL    HW150879   9.054   1.773   3.622 -2.5243  0.1862  2.8913
14929SOL    HW250880   9.174   1.774   3.715 -1.9861  0.3465  2.2065
14930SOL     OW50881   5.499   0.524   9.821 -0.2290 -0.4918  0.0161
14930SOL    HW150882   5.481   0.569   9.738  1.5205 -0.2426 -0.2585
14930SOL    HW250883   5.550   0.447   9.796  0.3042 -0.4261  0.8655
14931SOL     OW50884   7.909   2.936   3.313 -0.0925  0.0264  0.2224
14931SOL    HW150885   7.992   2.981   3.297  1.1630 -2.4279 -0.6441
14931SOL    HW250886   7.908   2.919   3.407  0.7909 -0.5756  0.1392
14932SOL     OW50887   2.425   5.828   5.501  0.1451  0.3872  0.5399
14932SOL    HW150888   2.383   5.778   5.431  2.4238 -2.0077  0.7247
14932SOL    HW250889   2.369   5.813   5.578 -0.2353 -0.2945  0.1382
14933SOL     OW50890   1.793   4.357   5.885  0.2639 -0.2409  0.0140
14933SOL    HW150891   1.726   4.374   5.951 -0.3903 -0.2478 -0.6226
14933SOL    HW250892   1.875   4.357   5.933  0.2797  3.5432  0.2948
14934SOL     OW50893   2.739   5.898   2.013 -0.2345 -0.3901 -0.3324
14934SOL    HW150894   2.820   5.880   1.966  0.0897  0.7928 -0.2519
14934SOL    HW250895   2.765   5.908   2.104 -0.6592 -1.2223 -0.1030
14935SOL     OW50896   9.447   7.900   6.856 -0.5185 -0.5403  0.3833
14935SOL    HW150897   9.508   7.835   6.890  0.3641  0.4393  0.7398
14935SOL    HW250898   9.399   7.932   6.932  0.5009  0.6738  0.5542
14936SOL     OW50899   8.204   9.954   2.717  0.6137 -0.1194  0.0529
14936SOL    HW150900   8.177  10.036   2.758  0.5031  0.2228 -0.6977
14936SOL    HW250901   8.293   9.939   2.750 -0.0481 -0.7200  1.7222
14937SOL     OW50902   1.470   1.408   4.393 -0.2674 -0.2740 -0.7050
14937SOL    HW150903   1.546   1.454   4.429 -0.6651 -0.3652  0.2581
14937SOL    HW250904   1.431   1.471   4.332 -1.3230  1.0451  1.2516
14938SOL     OW50905   4.592   4.693   9.030  0.3935  0.5122 -0.2240
14938SOL    HW150906   4.550   4.706   8.945 -0.6395  0.3558  0.2436
14938SOL    HW250907   4.604   4.781   9.066  2.1248  0.6774 -1.1081
14939SOL     OW50908   8.927   8.297   7.574  0.2587 -0.4777 -0.1837
14939SOL    HW150909   9.001   8.349   7.606  0.1333 -0.8723  0.7791
14939SOL    HW250910   8.953   8.270   7.485  0.6111  0.6503 -0.4334
14940SOL     OW50911   1.984   6.890   8.632  0.6415 -0.5416 -0.2013
14940SOL    HW150912   1.908   6.921   8.683  0.2304  1.8895 -2.0822
14940SOL    HW250913   2.043   6.965   8.630  1.0501 -0.8507 -2.4554
14941SOL     OW50914   0.323  10.508   9.561 -0.1077 -0.4125 -0.0395
14941SOL    HW150915   0.336  10.583   9.618 -0.5583 -0.2741 -0.1172
14941SOL    HW250916   0.346  10.432   9.615  3.4521 -0.0939 -0.8806
14942SOL     OW50917   6.546   2.122  10.546  0.1988  0.2028  0.5097
14942SOL    HW150918   6.617   2.149  10.488  1.0357 -0.7518  1.0670
14942SOL    HW250919   6.571   2.155  10.632 -0.9276  1.4169  0.4004
14943SOL     OW50920  10.243   2.036   7.997 -0.0096 -0.1964  0.7626
14943SOL    HW150921  10.336   2.053   8.013  0.4797 -1.9069 -0.0121
14943SOL    HW250922  10.231   2.058   7.905 -0.8846  1.9234  1.3360
14944SOL     OW50923   9.313   8.666   8.471 -0.1728  0.3090  0.4451
14944SOL    HW150924   9.256   8.724   8.423 -0.6084 -0.8017 -0.4222
14944SOL    HW250925   9.289   8.578   8.442 -1.0834 -0.5232  3.3234
14945SOL     OW50926   9.867   0.728   1.447 -0.1224 -0.0755 -0.1323
14945SOL    HW150927   9.832   0.817   1.444  2.8823  1.1974 -0.3877
14945SOL    HW250928   9.866   0.699   1.356 -2.4884 -0.9666  0.1173
14946SOL     OW50929   9.619   1.360   1.881 -0.0245  0.3650 -0.1141
14946SOL    HW150930   9.704   1.333   1.915  0.6791  0.1631 -1.9599
14946SOL    HW250931   9.563   1.364   1.959  1.2590 -1.0188  0.9494
14947SOL     OW50932   4.737   0.959   0.842  0.1849 -0.6107  0.2389
14947SOL    HW150933   4.673   0.938   0.910 -1.0911  2.4351  0.1589
14947SOL    HW250934   4.692   0.940   0.760 -0.0096 -0.0564  0.2108
14948SOL     OW50935   6.169   0.438   2.393 -0.2755  0.2742  0.4898
14948SOL    HW150936   6.198   0.488   2.470 -0.7033 -0.5444  1.1939
14948SOL    HW250937   6.238   0.374   2.378 -1.6588 -1.8026  2.2825
14949SOL     OW50938   2.287   3.362  10.093 -0.2489 -0.5993  0.0740
14949SOL    HW150939   2.197   3.348  10.123 -1.4426  0.7204 -2.5310
14949SOL    HW250940   2.315   3.441  10.137 -0.0653 -1.3892  1.4266
14950SOL     OW50941   6.688   7.354   1.225  0.0459  0.1532 -0.4366
14950SOL    HW150942   6.758   7.311   1.273 -1.3844 -0.1337  1.5080
14950SOL    HW250943   6.633   7.393   1.293 -1.3728  0.8538 -1.9273
14951SOL     OW50944   6.932   1.026   3.942  0.0250 -0.2086  0.2958
14951SOL    HW150945   7.008   0.972   3.919  0.1115  0.4839 -1.1496
14951SOL    HW250946   6.962   1.079   4.016  1.1379  0.4162 -0.5646
14952SOL     OW50947   9.388   9.965   3.456  0.2801  0.7916 -0.2247
14952SOL    HW150948   9.446   9.962   3.532  0.3173 -1.0153 -0.2748
14952SOL    HW250949   9.300   9.952   3.493  0.4014 -1.3245 -0.5193
14953SOL     OW50950   3.428   2.114   3.441 -0.0711  0.4288 -0.2234
14953SOL    HW150951   3.498   2.137   3.503  0.5908 -1.1306 -0.3190
14953SOL    HW250952   3.429   2.185   3.377 -1.0239  2.2899  1.6901
14954SOL     OW50953   5.739  10.909   6.619  0.2772  0.0532  0.1145
14954SOL    HW150954   5.789  10.990   6.610  1.5077 -0.7860 -0.9623
14954SOL    HW250955   5.777  10.865   6.695 -0.6786  0.6501  0.9657
14955SOL     OW50956   4.816   6.316   7.492 -0.2936  0.1655 -0.2845
14955SOL    HW150957   4.756   6.359   7.432 -0.3259 -0.2084 -0.5224
14955SOL    HW250958   4.903   6.335   7.457 -0.1021  2.6100  1.2878
14956SOL     OW50959   7.909   4.705   9.601  0.6820 -0.0978 -0.0934
14956SOL    HW150960   7.888   4.797   9.618 -2.1949 -0.1954 -2.3398
14956SOL    HW250961   7.984   4.708   9.542  0.4801  0.8364 -0.3216
14957SOL     OW50962  10.507   5.962  10.443  0.1723  0.1246 -0.0979
14957SOL    HW150963  10.578   5.917  10.489  0.8009  2.0965  0.9748
14957SOL    HW250964  10.508   5.925  10.355  0.5564 -2.0027  0.7412
14958SOL     OW50965   9.754   2.682  10.191  0.0694 -0.1387 -0.3745
14958SOL    HW150966   9.684   2.626  10.157 -0.1789 -1.0567  1.5311
14958SOL    HW250967   9.835   2.644  10.156 -0.2921  0.3495 -1.7993
14959SOL     OW50968   5.096  10.145   0.367 -0.1142 -0.1414 -0.2436
14959SOL    HW150969   5.150  10.066   0.360  0.6888  0.4411 -0.8317
14959SOL    HW250970   5.028  10.134   0.301  0.9720  0.3860 -1.4795
14960SOL     OW50971   9.665   7.911   7.557  0.1269 -0.1513  0.2757
14960SOL    HW150972   9.705   7.844   7.501  3.1602  2.1712 -0.5971
14960SOL    HW250973   9.669   7.873   7.645  2.5532 -0.8737 -0.0720
14961SOL     OW50974   5.813   8.163   4.417 -0.3555 -0.3086 -0.4011
14961SOL    HW150975   5.802   8.202   4.503 -1.6560 -0.5570 -0.4448
14961SOL    HW250976   5.905   8.179   4.395  0.3877 -1.4943  1.6255
14962SOL     OW50977   7.198   3.691  10.312  0.4878 -0.1181 -0.2753
14962SOL    HW150978   7.192   3.764  10.250 -0.8599  0.0851  0.0591
14962SOL    HW250979   7.289   3.692  10.342  0.1028  2.7153  1.2166
14963SOL     OW50980   6.253   5.037   1.102 -0.4553 -0.5450  0.1631
14963SOL    HW150981   6.162   5.032   1.131 -0.4902 -1.1165 -0.0411
14963SOL    HW250982   6.268   5.131   1.087 -0.7947 -0.3664  0.8653
14964SOL     OW50983   1.375   8.278   1.253 -0.6381  0.0345 -0.0137
14964SOL    HW150984   1.463   8.263   1.219  0.4709  1.4102  1.9990
14964SOL    HW250985   1.361   8.372   1.242 -2.6403 -0.4145 -1.8931
14965SOL     OW50986   1.478   4.563  10.145 -0.1015  0.0226 -0.4178
14965SOL    HW150987   1.535   4.628  10.104  0.5746 -1.1556 -1.4364
14965SOL    HW250988   1.474   4.589  10.237 -0.9513  2.2526 -1.0074
14966SOL     OW50989   6.448   0.232   1.949  0.0880 -0.6267  0.0682
14966SOL    HW150990   6.537   0.258   1.926  0.3578 -0.8742  0.8100
14966SOL    HW250991   6.402   0.228   1.865  1.4974 -3.2302 -0.7014
14967SOL     OW50992  10.658   9.369  10.095  0.7190 -0.1495  0.3921
14967SOL    HW150993  10.744   9.326  10.090  0.6288 -0.4463  1.1811
14967SOL    HW250994  10.672   9.442  10.156  0.3828 -0.2898  0.6392
14968SOL     OW50995   0.172   8.891   6.457  0.4729 -0.1121  0.2712
14968SOL    HW150996   0.078   8.894   6.477 -0.2905  4.2443 -2.5182
14968SOL    HW250997   0.211   8.952   6.520  1.2688 -0.9480  0.6039
14969SOL     OW50998   0.702   6.838   6.577 -0.1848 -0.3715 -0.0153
14969SOL    HW150999   0.792   6.863   6.557 -0.3081  0.2705  0.2120
14969SOL    HW251000   0.651   6.868   6.502 -0.4968  1.1214  0.7411
14970SOL     OW51001   3.769   5.069   2.222  0.6468  0.2911  0.4103
14970SOL    HW151002   3.735   4.980   2.211  1.5870 -0.0922  0.5325
14970SOL    HW251003   3.700   5.115   2.270  1.1587 -1.0600  2.5684
14971SOL     OW51004   1.898   2.740   7.322  0.4564 -0.0279 -0.4949
14971SOL    HW151005   1.813   2.776   7.345  0.3620  1.6160 -2.9599
14971SOL    HW251006   1.962   2.795   7.367  0.2302  1.4012 -1.8199
14972SOL     OW51007   6.708   1.430   5.055  0.4606  0.4980  0.1954
14972SOL    HW151008   6.775   1.402   5.119  1.0961  0.3245 -0.5309
14972SOL    HW251009   6.740   1.397   4.971 -0.5083  0.4911 -0.1783
14973SOL     OW51010   3.964  10.618   4.477 -0.2735 -0.2979  0.7489
14973SOL    HW151011   4.019  10.550   4.438  0.9684  0.5671  0.9221
14973SOL    HW251012   3.897  10.570   4.526  0.7936 -1.3883  1.1758
14974SOL     OW51013   2.606   7.103   1.091 -0.0106 -0.0945 -0.3846
14974SOL    HW151014   2.615   7.162   1.016 -2.5975  0.6523 -0.1677
14974SOL    HW251015   2.586   7.160   1.164 -1.1379 -1.1159  0.1234
14975SOL     OW51016   4.633   0.271   2.015  0.7457  0.0891 -0.3457
14975SOL    HW151017   4.620   0.201   1.952  2.4162  0.2386 -0.9172
14975SOL    HW251018   4.556   0.327   2.006 -0.4560 -1.4658 -0.1133
14976SOL     OW51019   6.860   0.028   0.296  0.7136  0.4000  0.0473
14976SOL    HW151020   6.833  -0.063   0.293  0.6303  0.4068  0.5069
14976SOL    HW251021   6.782   0.077   0.270  0.0001  0.4592  2.0994
14977SOL     OW51022   3.085   4.764   1.697 -0.2943 -0.4672  0.1042
14977SOL    HW151023   3.101   4.670   1.703 -0.2702 -0.5716 -1.3185
14977SOL    HW251024   3.010   4.772   1.637 -0.0883  0.4298 -0.0544
14978SOL     OW51025   2.664   7.676   1.934  0.5459 -0.1969 -1.1062
14978SOL    HW151026   2.667   7.700   2.026 -0.5222 -1.5067 -0.7015
14978SOL    HW251027   2.728   7.606   1.925 -0.9376 -1.6731 -0.8027
14979SOL     OW51028   1.095  10.492   2.837 -0.6634  0.0904  0.2860
14979SOL    HW151029   1.056  10.455   2.917 -1.6601  1.0386  0.2723
14979SOL    HW251030   1.189  10.484   2.850 -0.8310 -0.9263  0.9956
14980SOL     OW51031   5.257   8.817   1.587  0.5790  0.2935 -0.4268
14980SOL    HW151032   5.341   8.771   1.592  0.3006 -0.2515 -0.7206
14980SOL    HW251033   5.198   8.755   1.545 -0.5187 -0.1276  1.5788
14981SOL     OW51034   6.778   6.221   0.797  0.4224  0.0700 -0.5032
14981SOL    HW151035   6.812   6.233   0.708 -0.5815 -0.2672 -0.9457
14981SOL    HW251036   6.713   6.291   0.807  1.5611  1.0362  0.5246
14982SOL     OW51037   8.387   5.563   9.513  0.4348 -0.0395  0.2683
14982SOL    HW151038   8.294   5.546   9.530  0.2189 -0.6478 -1.3286
14982SOL    HW251039   8.407   5.643   9.562 -1.0191  0.2792  0.3734
14983SOL     OW51040   7.709   7.082   9.434  0.6918 -0.0495 -0.4665
14983SOL    HW151041   7.798   7.098   9.465  0.2205 -0.2180  1.0274
14983SOL    HW251042   7.718   7.008   9.374  1.7438  0.8309 -1.4516
14984SOL     OW51043   6.568   1.988   6.168  0.4026 -0.2072 -0.1845
14984SOL    HW151044   6.640   2.012   6.227  1.1234  0.5101 -1.3238
14984SOL    HW251045   6.611   1.958   6.088 -0.5601 -1.4769 -0.2588
14985SOL     OW51046   5.073   3.272   6.059 -0.3178 -0.3947 -0.0489
14985SOL    HW151047   5.146   3.318   6.017 -1.0799  0.0969 -0.8624
14985SOL    HW251048   5.054   3.323   6.137 -0.0886 -0.2726 -0.0721
14986SOL     OW51049   9.566   6.518   4.732 -0.4275  0.4341 -0.5210
14986SOL    HW151050   9.471   6.529   4.726 -0.5850 -0.5788 -0.0424
14986SOL    HW251051   9.593   6.489   4.645 -0.4873  1.1938 -0.7934
14987SOL     OW51052   8.018   9.114   7.747  0.4562 -0.2542 -0.3088
14987SOL    HW151053   7.943   9.055   7.748  0.8380 -0.7905 -1.2588
14987SOL    HW251054   7.997   9.182   7.811 -0.5251 -0.7709 -0.0667
14988SOL     OW51055   5.909   8.057   5.130 -0.5066 -0.0030  0.2112
14988SOL    HW151056   5.862   8.129   5.172 -1.0293  0.7726 -1.6254
14988SOL    HW251057   5.845   7.986   5.127 -1.5481  0.9235 -1.9284
14989SOL     OW51058   3.444   5.440   8.567  0.0408  0.3324 -0.2334
14989SOL    HW151059   3.515   5.470   8.623 -0.1014 -0.5655  0.4549
14989SOL    HW251060   3.383   5.513   8.564  0.8049  0.9781 -0.5343
14990SOL     OW51061   9.505   0.635   7.743  0.2247 -0.4299  0.0074
14990SOL    HW151062   9.546   0.666   7.823 -0.4076 -0.1292  0.2182
14990SOL    HW251063   9.498   0.540   7.755 -1.2554 -0.2371  0.9869
14991SOL     OW51064   8.074   8.391   6.772  0.0370  0.0916  0.6255
14991SOL    HW151065   8.032   8.419   6.854  1.0582  0.4919  1.0322
14991SOL    HW251066   8.147   8.453   6.761  0.1796 -0.2436 -0.3496
14992SOL     OW51067   2.510   4.688   4.967 -0.7926 -0.0894 -0.0789
14992SOL    HW151068   2.449   4.699   4.893 -1.5063 -0.6472  0.4092
14992SOL    HW251069   2.522   4.776   5.001 -1.2493  0.0433 -0.2462
14993SOL     OW51070   9.109   6.601   9.389 -0.3688  0.1463 -0.4784
14993SOL    HW151071   9.058   6.642   9.320 -1.3992 -0.2172  0.0312
14993SOL    HW251072   9.126   6.512   9.357 -1.9213 -0.4366  0.2154
14994SOL     OW51073   0.983   7.997   7.998  0.0411  0.0818  0.6727
14994SOL    HW151074   0.900   7.950   8.003  0.0323  0.1171  0.8806
14994SOL    HW251075   1.030   7.972   8.078  1.1645 -1.6872 -0.4664
14995SOL     OW51076   4.251   1.937   5.103  0.0574 -0.1747 -0.5041
14995SOL    HW151077   4.281   2.022   5.069  1.9950 -1.1626 -1.4412
14995SOL    HW251078   4.300   1.873   5.052  1.9320 -1.8026  2.9741
14996SOL     OW51079   2.935   4.525   1.599 -0.4342  0.3036  0.3602
14996SOL    HW151080   2.980   4.484   1.526  0.0509 -3.1299  2.3741
14996SOL    HW251081   2.844   4.496   1.591 -0.1182 -1.2519  1.7128
14997SOL     OW51082   4.521   3.340   7.513 -0.1629  0.0626  0.2227
14997SOL    HW151083   4.521   3.435   7.505 -0.1146 -0.0731 -1.7036
14997SOL    HW251084   4.612   3.319   7.537  0.1028  0.4434 -0.4086
14998SOL     OW51085   8.563   2.241  10.441 -0.4635  0.4327  0.6272
14998SOL    HW151086   8.483   2.265  10.487 -0.9479  1.4289 -0.6966
14998SOL    HW251087   8.569   2.302  10.368  0.1220 -1.2665 -0.8194
14999SOL     OW51088   7.719   1.466   6.860 -0.1349 -0.5057 -0.2787
14999SOL    HW151089   7.691   1.436   6.774 -1.3944 -0.9318  0.2404
14999SOL    HW251090   7.804   1.506   6.846 -0.7961  0.4304 -1.9159
15000SOL     OW51091   6.734   7.571  10.220  0.1230  0.0052 -0.2505
15000SOL    HW151092   6.795   7.509  10.181  2.5764  1.1506  1.5317
15000SOL    HW251093   6.734   7.645  10.160 -1.3728 -0.8793 -1.4197
15001SOL     OW51094   7.258  10.044   8.185  0.1674 -0.0612  0.2231
15001SOL    HW151095   7.348  10.075   8.176  0.4135 -0.9557 -0.5112
15001SOL    HW251096   7.262   9.977   8.253 -0.0969  0.4561  0.7581
15002SOL     OW51097   4.287  10.045   9.228  0.1998 -0.2879 -0.4011
15002SOL    HW151098   4.222  10.095   9.278 -1.4823 -2.4925 -0.2133
15002SOL    HW251099   4.238  10.014   9.151  0.6637 -2.8852  0.2690
15003SOL     OW51100   3.651   0.661   3.409  0.0811  0.0607  0.0372
15003SOL    HW151101   3.586   0.637   3.343  0.6974  0.3965 -0.7141
15003SOL    HW251102   3.662   0.582   3.462  3.3406 -2.2091 -3.4376
15004SOL     OW51103   8.063   9.138   5.547 -0.5445  0.0432  0.1080
15004SOL    HW151104   8.013   9.145   5.467 -1.1999  1.0468  0.5919
15004SOL    HW251105   7.998   9.133   5.617  0.0050  0.8074  0.7010
15005SOL     OW51106   7.656   1.309   3.106 -0.1718 -0.1116 -0.2605
15005SOL    HW151107   7.713   1.243   3.067 -1.5235 -1.7429  0.3941
15005SOL    HW251108   7.571   1.296   3.064 -0.4800  1.2037 -0.0808
15006SOL     OW51109   0.942   6.119   4.110  0.4175  0.2008 -0.7577
15006SOL    HW151110   0.851   6.090   4.102  0.5726 -0.0468 -1.8348
15006SOL    HW251111   0.956   6.175   4.033  1.4575 -0.5549 -1.1383
15007SOL     OW51112   7.934   4.194   6.826 -0.4028  0.6647  0.5656
15007SOL    HW151113   7.848   4.152   6.834  0.5848 -1.2827  1.7896
15007SOL    HW251114   7.995   4.129   6.861  1.8249  1.2310 -2.0174
15008SOL     OW51115   7.221   1.821   1.830  0.6905  0.1538 -0.2743
15008SOL    HW151116   7.226   1.874   1.909  0.8468  0.9476 -0.8042
15008SOL    HW251117   7.310   1.821   1.795  0.4912  0.3690 -0.8021
15009SOL     OW51118   1.604   0.121   2.485  0.6755  0.4027  0.3382
15009SOL    HW151119   1.567   0.062   2.419 -0.6398  0.9340  0.5611
15009SOL    HW251120   1.605   0.069   2.565  2.2445 -0.2327 -0.0619
15010SOL     OW51121   9.226   4.375   6.516  0.6655 -0.2521  0.3715
15010SOL    HW151122   9.159   4.443   6.514  0.7235 -0.1886 -1.3191
15010SOL    HW251123   9.184   4.298   6.479  2.2679  0.6845 -4.1523
15011SOL     OW51124   5.049   8.378   8.926  0.4597  0.5866  1.4906
15011SOL    HW151125   5.113   8.374   8.855  0.0784  0.3446  1.1524
15011SOL    HW251126   5.082   8.444   8.985  1.8923 -0.6771  2.1683
15012SOL     OW51127   3.062   7.170  10.172  0.0948  0.5746 -0.4575
15012SOL    HW151128   3.054   7.257  10.211 -1.6740 -0.3648  1.4972
15012SOL    HW251129   3.011   7.174  10.092 -1.2394  0.9632  0.3867
15013SOL     OW51130   4.115   0.124   9.196 -0.6711  0.2497  0.0501
15013SOL    HW151131   4.082   0.044   9.237  1.6793 -1.0202 -0.3296
15013SOL    HW251132   4.076   0.125   9.109  0.1915 -1.2052 -0.3930
15014SOL     OW51133   0.018   1.497   6.784  0.6367 -0.0659  0.0212
15014SOL    HW151134   0.088   1.450   6.830  0.2381  1.5480  2.4339
15014SOL    HW251135  -0.052   1.504   6.848 -0.8684  0.3502 -1.6102
15015SOL     OW51136   3.639   1.021   3.559  0.7844 -0.5018  0.2582
15015SOL    HW151137   3.701   0.968   3.509  1.8550  0.9257 -0.0142
15015SOL    HW251138   3.668   1.112   3.544 -2.3483  0.3907 -1.2123
15016SOL     OW51139   8.843   7.163   9.543  0.4516 -0.0630 -0.1686
15016SOL    HW151140   8.750   7.176   9.560  0.4569  1.5380 -1.1670
15016SOL    HW251141   8.861   7.074   9.575 -1.2046 -0.0832  0.8344
15017SOL     OW51142   7.649   2.818   3.671  0.6517 -0.1814  0.1534
15017SOL    HW151143   7.721   2.790   3.727 -0.4523 -2.8354  0.3904
15017SOL    HW251144   7.620   2.738   3.627 -2.7362  0.5246  0.7845
15018SOL     OW51145   8.698   7.193   5.258 -0.1236 -0.3689  0.1329
15018SOL    HW151146   8.763   7.187   5.189 -1.2182  0.9423 -1.0780
15018SOL    HW251147   8.748   7.188   5.340  1.2688 -1.2249 -0.7443
15019SOL     OW51148   5.114   7.643  10.005  0.5761  0.1007  0.1729
15019SOL    HW151149   5.096   7.577   9.939  0.5018  0.3743 -0.0849
15019SOL    HW251150   5.134   7.722   9.955 -0.2886  0.5260  0.4674
15020SOL     OW51151   1.499   9.289  10.395 -0.4929 -0.2017 -0.1200
15020SOL    HW151152   1.456   9.375  10.400 -0.4021 -0.2061  1.3339
15020SOL    HW251153   1.454   9.236  10.461 -0.0836 -1.0695 -0.5208
15021SOL     OW51154   8.048   5.539   3.466  0.4135  0.5835 -0.1084
15021SOL    HW151155   8.128   5.563   3.420  0.2971  1.4546  0.1115
15021SOL    HW251156   7.978   5.586   3.420  0.0876  0.1829 -0.0307
15022SOL     OW51157   5.312   4.136   4.464 -0.0588  0.1736 -0.2299
15022SOL    HW151158   5.389   4.105   4.513  0.0079  1.5642  0.6173
15022SOL    HW251159   5.287   4.217   4.509 -0.2308  1.3205 -2.2857
15023SOL     OW51160   4.890   2.052   3.418  0.4198 -0.0891 -0.3082
15023SOL    HW151161   4.841   1.970   3.405  2.2625 -1.1086 -1.3705
15023SOL    HW251162   4.946   2.034   3.493  1.5719 -0.2011 -1.1780
15024SOL     OW51163   8.519   5.326   0.837  0.3205 -0.0256  0.1643
15024SOL    HW151164   8.449   5.342   0.774 -0.2506 -1.7863  0.2941
15024SOL    HW251165   8.580   5.398   0.825 -0.4529  0.3853 -1.4624
15025SOL     OW51166   8.133   1.052   2.968  0.1100  0.0115  0.3117
15025SOL    HW151167   8.159   1.019   3.053  1.4383  0.4573  0.0905
15025SOL    HW251168   8.073   0.985   2.934 -0.2847 -0.2611  1.4896
15026SOL     OW51169   0.022  10.285   5.789  0.3478  0.5728 -0.2677
15026SOL    HW151170  -0.015  10.200   5.768 -0.2341  0.5234  0.8562
15026SOL    HW251171   0.029  10.331   5.705 -1.3255  0.2108 -0.6300
15027SOL     OW51172   6.919  10.913   8.444  0.7348  0.2245  0.4570
15027SOL    HW151173   6.847  10.929   8.384  0.6836  0.5876  0.6134
15027SOL    HW251174   6.886  10.942   8.529  0.2015 -1.8007  0.9990
15028SOL     OW51175   9.181   5.003   4.943  0.5538 -0.1167 -0.2668
15028SOL    HW151176   9.127   5.057   5.001  0.9727 -0.2274  0.2332
15028SOL    HW251177   9.128   4.991   4.864 -0.8303 -1.5743  0.8340
15029SOL     OW51178   7.083   5.659   4.583 -0.4920  0.0448 -0.0405
15029SOL    HW151179   7.153   5.694   4.527  0.2943 -0.5138  0.5795
15029SOL    HW251180   7.129   5.609   4.650 -1.3284  1.7711  1.9186
15030SOL     OW51181  10.373   4.177   3.003 -0.0320 -0.6300 -0.2194
15030SOL    HW151182  10.305   4.113   2.981 -0.5216 -1.0598  2.2582
15030SOL    HW251183  10.325   4.255   3.030  0.4466 -0.7829  1.1195
15031SOL     OW51184   7.108   9.888   7.394 -0.5094  0.1805  0.5268
15031SOL    HW151185   7.039   9.900   7.329  0.9824 -0.0292 -1.1597
15031SOL    HW251186   7.078   9.815   7.448 -1.7178  0.2724  0.0140
15032SOL     OW51187   8.891   5.948   6.175  0.6650 -0.1765  0.0688
15032SOL    HW151188   8.882   5.924   6.267 -1.4151 -0.5639 -0.1943
15032SOL    HW251189   8.817   5.907   6.131  0.0896  2.1663 -1.3560
15033SOL     OW51190   4.617   8.116   4.918 -0.0508 -0.5385 -0.2884
15033SOL    HW151191   4.570   8.035   4.899  1.1618 -1.0682 -1.2156
15033SOL    HW251192   4.703   8.087   4.950 -0.1399  0.3928  0.8726
15034SOL     OW51193   2.429   1.783   6.424 -0.9029  0.1436 -0.2014
15034SOL    HW151194   2.396   1.865   6.388 -0.5017  0.2966 -0.2270
15034SOL    HW251195   2.524   1.795   6.428 -0.9179  0.0247  0.6386
15035SOL     OW51196   8.110   0.464   0.890  0.1960 -0.2870  0.2001
15035SOL    HW151197   8.070   0.476   0.804 -1.5032 -1.5260  0.7771
15035SOL    HW251198   8.051   0.405   0.936  0.8822  0.6206  2.3595
15036SOL     OW51199   4.554   7.537   4.781  0.2348  0.0194 -0.4550
15036SOL    HW151200   4.609   7.605   4.742  0.4967  0.8887  1.3309
15036SOL    HW251201   4.586   7.456   4.743  2.0188  0.6089 -0.3244
15037SOL     OW51202   5.833   1.475   7.720 -0.4363  0.3839  0.6468
15037SOL    HW151203   5.874   1.394   7.690 -0.4748  0.9254 -1.0133
15037SOL    HW251204   5.750   1.479   7.672 -0.5424  1.2738  0.8773
15038SOL     OW51205   0.846   8.761   2.725 -0.0663 -0.0406  0.4370
15038SOL    HW151206   0.816   8.851   2.711  0.2132  0.0805  0.6020
15038SOL    HW251207   0.876   8.732   2.639 -0.9198 -0.2646  0.2084
15039SOL     OW51208  10.633   7.553   9.933 -0.3132 -0.0792  0.5697
15039SOL    HW151209  10.578   7.564   9.856 -0.3491 -0.2675  0.5685
15039SOL    HW251210  10.625   7.636   9.980  1.8795  1.1577 -1.0054
15040SOL     OW51211  10.557   1.880   8.605 -0.1916 -0.3306  0.1793
15040SOL    HW151212  10.488   1.917   8.660  0.6959 -0.5730  1.4961
15040SOL    HW251213  10.575   1.794   8.644 -0.0012 -0.7971 -0.9093
15041SOL     OW51214   4.244   0.472  10.440 -0.0873 -0.2444 -0.5957
15041SOL    HW151215   4.313   0.522  10.396  1.7239 -2.1419 -0.0407
15041SOL    HW251216   4.164   0.522  10.423  1.2105  1.3761 -2.3151
15042SOL     OW51217   6.459   0.648   4.142  0.0997 -0.1867  0.1761
15042SOL    HW151218   6.402   0.615   4.212 -0.6175 -0.4732 -0.5244
15042SOL    HW251219   6.519   0.576   4.124 -0.4234 -0.5354 -0.2391
15043SOL     OW51220  10.185   3.125   6.307  0.1082 -0.2317 -0.5688
15043SOL    HW151221  10.185   3.176   6.388  0.5399 -1.3223  0.1553
15043SOL    HW251222  10.259   3.159   6.257  0.9229 -0.6730  0.2834
15044SOL     OW51223  10.360   1.665   4.649  0.1631  0.4533 -0.0299
15044SOL    HW151224  10.434   1.611   4.677 -0.2947  0.2928  0.9094
15044SOL    HW251225  10.386   1.754   4.671 -0.3110  0.3024  1.2325
15045SOL     OW51226   4.263   1.227   6.878 -0.6184  0.1747 -0.2604
15045SOL    HW151227   4.174   1.238   6.844 -0.1326 -0.3112 -1.7618
15045SOL    HW251228   4.311   1.186   6.807  0.5451 -0.6132  0.9352
15046SOL     OW51229   1.969   0.118   4.679  0.2564 -0.0831 -0.7691
15046SOL    HW151230   1.935   0.183   4.618 -0.0905 -1.0203 -1.6108
15046SOL    HW251231   2.028   0.064   4.626  1.3029  0.1116  0.1376
15047SOL     OW51232   9.055   6.646   8.000 -0.5878 -0.0619 -0.3881
15047SOL    HW151233   9.066   6.669   7.908  0.5340  1.8829  0.1726
15047SOL    HW251234   9.144   6.631   8.032 -0.6436  2.0996  1.0033
15048SOL     OW51235   1.546   0.690   0.579  0.1945  0.0734  0.5215
15048SOL    HW151236   1.543   0.598   0.555  0.0460  0.4868 -1.1317
15048SOL    HW251237   1.634   0.703   0.615  0.2611 -0.6723  0.6436
15049SOL     OW51238   9.013  10.542   2.573  0.4468 -0.5393  0.4712
15049SOL    HW151239   8.943  10.587   2.620 -0.5551 -1.7069  0.1489
15049SOL    HW251240   8.969  10.471   2.527  1.3787  0.5180 -2.2309
15050SOL     OW51241   9.077   1.195   9.879  0.3367 -0.1572 -0.5250
15050SOL    HW151242   9.030   1.131   9.827  1.0318 -0.2576 -1.0445
15050SOL    HW251243   9.051   1.280   9.844 -0.7549 -0.1170  0.3068
15051SOL     OW51244   0.853   0.876  10.882 -0.1711 -0.2456 -0.2406
15051SOL    HW151245   0.914   0.802  10.874  0.2078  0.2699 -3.6789
15051SOL    HW251246   0.768   0.840  10.857 -0.6997 -0.2276  1.4255
15052SOL     OW51247   2.787   1.310   3.747  0.5389  0.1462  0.4937
15052SOL    HW151248   2.876   1.291   3.776 -0.3262  0.1663  3.4094
15052SOL    HW251249   2.746   1.357   3.819 -1.7362  0.5562 -0.9261
15053SOL     OW51250   0.458   1.808   0.694  0.5812 -0.5537  0.2563
15053SOL    HW151251   0.365   1.801   0.671  0.0277 -0.8682  2.3866
15053SOL    HW251252   0.483   1.719   0.718  1.9700 -0.8325 -2.0393
15054SOL     OW51253   2.817   0.189   4.174  0.1125  0.3657  0.6762
15054SOL    HW151254   2.767   0.266   4.149 -1.7381 -0.8113  0.5374
15054SOL    HW251255   2.876   0.173   4.100 -0.6137  0.7441  0.0064
15055SOL     OW51256   3.121   0.608   9.125 -0.1783  0.5288  0.3229
15055SOL    HW151257   3.216   0.612   9.132 -0.1131 -0.3666  0.1912
15055SOL    HW251258   3.093   0.698   9.110  0.6882  0.7446 -0.0475
15056SOL     OW51259   9.327   8.015   7.180 -0.1206 -0.1331  0.6028
15056SOL    HW151260   9.240   8.012   7.141 -0.3939 -0.2201  1.2134
15056SOL    HW251261   9.314   7.987   7.271  0.6322 -0.6752  0.5452
15057SOL     OW51262  10.765   6.896   8.834 -0.2399  0.1673  0.0776
15057SOL    HW151263  10.824   6.838   8.882 -1.3885 -1.5698 -0.5172
15057SOL    HW251264  10.785   6.880   8.742 -1.0673  0.1538 -0.1063
15058SOL     OW51265   7.116   3.982   1.769  0.0396  0.3037 -0.5980
15058SOL    HW151266   7.041   3.925   1.753 -1.0318  1.8467 -1.3328
15058SOL    HW251267   7.158   3.945   1.847 -3.1585  0.9929  1.6482
15059SOL     OW51268   1.668   8.486   8.822  0.9498 -0.1461 -0.8636
15059SOL    HW151269   1.755   8.515   8.850  0.1368 -1.4627  4.0519
15059SOL    HW251270   1.612   8.562   8.836  0.4473 -0.9495  2.3507
15060SOL     OW51271   5.543   7.160   8.120  0.3007 -0.0867  0.5874
15060SOL    HW151272   5.523   7.121   8.034  0.2739  0.1503  0.4858
15060SOL    HW251273   5.555   7.085   8.178  0.5494 -0.2560  0.3235
15061SOL     OW51274   0.877   9.161   8.598 -0.2298 -0.0916  0.3438
15061SOL    HW151275   0.857   9.092   8.534  0.2564 -0.1041  0.2054
15061SOL    HW251276   0.838   9.240   8.561 -0.0870 -0.1309  0.1082
15062SOL     OW51277   3.975   2.637   0.654  0.0083  0.1901  0.2512
15062SOL    HW151278   4.071   2.632   0.655  0.0232  0.4639  0.3703
15062SOL    HW251279   3.950   2.602   0.568  0.2344  0.4391  0.0825
15063SOL     OW51280   8.572   8.903  10.713 -0.1685 -0.2545  0.1953
15063SOL    HW151281   8.637   8.974  10.719 -1.8591  1.2252  3.2924
15063SOL    HW251282   8.545   8.904  10.621  1.6147  1.4677 -0.3957
15064SOL     OW51283   2.422   2.808   9.202  0.6472  0.0814  0.3174
15064SOL    HW151284   2.391   2.803   9.293  0.2867 -2.7327  0.1163
15064SOL    HW251285   2.363   2.872   9.161  1.3862  2.1196  2.1873
15065SOL     OW51286   0.936   3.627   8.887 -0.1110  0.3089 -0.2140
15065SOL    HW151287   0.997   3.564   8.847  1.2913  0.6355  1.3006
15065SOL    HW251288   0.984   3.710   8.885 -1.4451  1.0804 -1.0586
15066SOL     OW51289   2.733   1.435   8.039  0.0085 -0.3521 -0.2151
15066SOL    HW151290   2.745   1.350   8.080  0.4090  0.4569  1.4385
15066SOL    HW251291   2.663   1.477   8.090  3.1316  2.2326  2.4689
15067SOL     OW51292   4.715   1.982   7.340 -0.2725 -0.8780  0.5193
15067SOL    HW151293   4.671   1.984   7.255 -3.4251 -2.5247  1.9501
15067SOL    HW251294   4.793   1.929   7.326  0.5044  0.7327 -1.7776
15068SOL     OW51295   8.155   1.684   7.072  0.0069 -0.1159  0.2692
15068SOL    HW151296   8.174   1.775   7.049  0.1412 -0.1551  0.2229
15068SOL    HW251297   8.094   1.689   7.146  0.0616  0.0106  0.3042
15069SOL     OW51298   6.660  10.634   3.007  0.0133  0.7954  0.2331
15069SOL    HW151299   6.712  10.558   2.982 -0.3488  0.8978 -0.9253
15069SOL    HW251300   6.580  10.598   3.044 -1.3664  0.4528 -2.7374
15070SOL     OW51301   7.777   4.988   7.415 -0.5565 -0.2646  0.1900
15070SOL    HW151302   7.823   4.924   7.361  0.3511  1.7638 -1.5954
15070SOL    HW251303   7.846   5.049   7.444 -1.5840  0.7719  0.5245
15071SOL     OW51304   8.495   7.625   6.759 -0.3591 -0.5223 -0.5305
15071SOL    HW151305   8.429   7.604   6.694 -0.7452  4.5634 -2.2561
15071SOL    HW251306   8.460   7.592   6.841 -3.4038 -0.9774 -1.8754
15072SOL     OW51307   6.348   6.063   4.556 -0.5645  0.2585 -0.2005
15072SOL    HW151308   6.290   6.109   4.495 -0.1534 -0.2601 -1.0077
15072SOL    HW251309   6.304   6.067   4.640 -2.0003 -0.5159 -0.8861
15073SOL     OW51310   8.821   1.044   8.360 -0.2924 -0.0000  0.1521
15073SOL    HW151311   8.907   1.002   8.370 -0.3562 -0.5409 -1.3370
15073SOL    HW251312   8.782   1.038   8.447  1.0030 -0.1307  0.7519
15074SOL     OW51313   0.197  10.674   4.682 -0.4818 -0.4046  0.2378
15074SOL    HW151314   0.143  10.753   4.679 -0.0054 -0.0403  0.8777
15074SOL    HW251315   0.286  10.707   4.696 -0.0335 -0.9692 -1.1448
15075SOL     OW51316   0.104   8.718   3.367 -0.0624  0.2649 -0.3233
15075SOL    HW151317   0.052   8.683   3.294  0.7822  0.0745 -0.8492
15075SOL    HW251318   0.121   8.642   3.423  1.6961 -0.1989 -1.4191
15076SOL     OW51319   5.744   6.568   4.817 -0.4458 -0.0788 -0.2095
15076SOL    HW151320   5.813   6.596   4.877 -0.9404  0.0354  0.3032
15076SOL    HW251321   5.702   6.650   4.789 -2.2945 -0.2574  1.7605
15077SOL     OW51322   1.745   7.997   6.489  0.3045 -0.4525 -0.2399
15077SOL    HW151323   1.684   8.008   6.562 -0.6270 -0.7658 -0.9428
15077SOL    HW251324   1.690   8.005   6.411  1.5578  1.6916 -0.9705
15078SOL     OW51325   9.410   5.556   0.602 -0.0481 -0.0955  0.8233
15078SOL    HW151326   9.338   5.529   0.660 -1.2045  1.0564 -0.0370
15078SOL    HW251327   9.427   5.647   0.627 -0.1768  0.2282 -0.2528
15079SOL     OW51328   7.959   5.571   7.835  0.3521  0.0908 -0.0680
15079SOL    HW151329   7.931   5.534   7.752  1.5100 -0.1140 -0.3846
15079SOL    HW251330   8.052   5.591   7.823  1.0461 -1.7019  1.7702
15080SOL     OW51331   5.775   7.651   8.813 -0.1260 -0.1081 -0.8973
15080SOL    HW151332   5.831   7.691   8.747  0.2833  0.3716 -0.2647
15080SOL    HW251333   5.748   7.568   8.774  1.1619 -0.4327 -1.1613
15081SOL     OW51334   2.772   4.412   5.783  0.0044  0.1918  0.0186
15081SOL    HW151335   2.807   4.444   5.700 -0.0836 -0.3008 -0.2105
15081SOL    HW251336   2.829   4.339   5.807  0.2537  0.5569  0.5790
15082SOL     OW51337   1.367   0.207  10.175 -0.7269 -0.2599 -0.4053
15082SOL    HW151338   1.407   0.139  10.121  1.4136  0.7143 -0.1407
15082SOL    HW251339   1.403   0.192  10.262  0.5920  1.7597 -0.5398
15083SOL     OW51340   0.311   7.322  10.617 -0.3132 -0.5130  0.2659
15083SOL    HW151341   0.353   7.314  10.703 -0.3486  1.0879  0.4511
15083SOL    HW251342   0.381   7.306  10.554  0.3727  1.0670  0.5837
15084SOL     OW51343   0.196   5.834  10.002  0.3544  0.1001  0.9337
15084SOL    HW151344   0.216   5.813  10.093  2.8012  1.8743  0.8994
15084SOL    HW251345   0.167   5.925  10.004 -1.2707 -0.3695  0.1038
15085SOL     OW51346   0.530  10.482   6.220 -0.2288  0.0398 -0.0177
15085SOL    HW151347   0.590  10.451   6.152 -1.1870  0.3060 -1.0062
15085SOL    HW251348   0.582  10.543   6.272  0.0325  1.1857 -1.5740
15086SOL     OW51349   7.983   2.957   8.243  0.1532 -0.4710  0.4198
15086SOL    HW151350   8.069   2.915   8.250 -0.3635 -1.5225  0.6174
15086SOL    HW251351   7.964   2.959   8.149  0.3508 -0.3231  0.3830
15087SOL     OW51352   6.368   5.281   5.145 -0.0136  0.2607 -0.7283
15087SOL    HW151353   6.357   5.190   5.117  0.0467  0.3669 -1.1020
15087SOL    HW251354   6.289   5.325   5.114  1.0352  0.8623 -2.7359
15088SOL     OW51355   6.922   4.377   9.359  0.1782 -0.2399 -0.0841
15088SOL    HW151356   6.962   4.342   9.439 -0.1188 -0.3534  0.0181
15088SOL    HW251357   6.961   4.326   9.288  1.2952  0.6262 -0.1172
15089SOL     OW51358   5.982   0.399   5.337  0.1418  0.1021 -0.4570
15089SOL    HW151359   6.024   0.333   5.283  0.8017 -0.6487  0.9095
15089SOL    HW251360   6.025   0.391   5.422 -2.3978 -0.3383  0.8892
15090SOL     OW51361   9.466   6.228   2.353 -0.0614  0.0912 -0.1393
15090SOL    HW151362   9.481   6.138   2.384  0.4682  0.8382  1.9074
15090SOL    HW251363   9.553   6.265   2.344 -0.3077  0.8520  0.5041
15091SOL     OW51364   6.394   8.741   8.755  0.0854 -0.1009  0.1302
15091SOL    HW151365   6.476   8.780   8.724 -0.7817  2.3159  0.6824
15091SOL    HW251366   6.409   8.722   8.847 -0.1477  0.9435  0.3958
15092SOL     OW51367   2.601   1.349   8.284 -0.4087  0.5944 -0.2929
15092SOL    HW151368   2.552   1.427   8.257  2.4801  2.3996 -0.6750
15092SOL    HW251369   2.684   1.382   8.317  1.1078 -2.3437 -0.7979
15093SOL     OW51370   6.429   1.641   1.115 -0.0830 -0.5779  0.6262
15093SOL    HW151371   6.345   1.601   1.136  0.1509 -0.9679  0.8155
15093SOL    HW251372   6.441   1.707   1.183 -0.7020  0.1723  0.0302
15094SOL     OW51373  10.552   4.599   7.464 -0.0706 -0.1062  0.1270
15094SOL    HW151374  10.613   4.633   7.530  0.4712 -2.5275  0.9710
15094SOL    HW251375  10.560   4.504   7.470 -2.2091 -0.4676 -1.3991
15095SOL     OW51376   3.069   0.050   7.815 -0.1925  0.1186  0.0577
15095SOL    HW151377   3.120   0.047   7.735 -1.6630 -1.8333 -0.9043
15095SOL    HW251378   3.112   0.116   7.869  4.1101 -2.1675 -0.0951
15096SOL     OW51379   3.809   3.247   9.628 -0.5497  0.4637 -0.3759
15096SOL    HW151380   3.826   3.288   9.543  0.5446  1.0302  0.0965
15096SOL    HW251381   3.879   3.181   9.637 -0.7443  0.3075  0.0230
15097SOL     OW51382   7.929   1.340   9.982 -0.2483 -0.2401  0.5602
15097SOL    HW151383   7.937   1.278   9.909 -0.7848 -0.6893  0.8720
15097SOL    HW251384   7.926   1.284  10.060 -3.3302 -0.0333  0.7150
15098SOL     OW51385  10.583   4.426   7.955  0.4378 -0.2061 -0.1546
15098SOL    HW151386  10.655   4.375   7.916 -1.7682 -2.3429 -1.7009
15098SOL    HW251387  10.612   4.441   8.045  2.0239 -2.6962 -0.1279
15099SOL     OW51388   1.296   1.556   1.201 -0.6032 -0.3205  0.6807
15099SOL    HW151389   1.256   1.632   1.243 -3.0794 -0.9436 -0.3699
15099SOL    HW251390   1.227   1.521   1.143  0.8553 -2.6249  0.1921
15100SOL     OW51391   3.131   5.706   7.840 -0.1252  0.3605  0.4002
15100SOL    HW151392   3.155   5.794   7.870 -1.4541 -0.1327  3.1980
15100SOL    HW251393   3.190   5.648   7.888 -0.3677 -0.3753 -0.1769
15101SOL     OW51394   8.377   8.478   0.522 -0.4157  0.0071  0.3029
15101SOL    HW151395   8.388   8.563   0.566 -1.2378 -0.1356  0.8036
15101SOL    HW251396   8.446   8.476   0.456  0.0598  0.7617  0.7655
15102SOL     OW51397   4.987   6.515   9.494  0.2229 -0.0313 -0.0742
15102SOL    HW151398   4.892   6.514   9.489  0.1873  1.6812 -0.3487
15102SOL    HW251399   5.015   6.443   9.437 -0.8763  0.5378 -1.3904
15103SOL     OW51400   7.299  10.057   9.785  0.0197 -0.4606 -0.0687
15103SOL    HW151401   7.363   9.997   9.746 -0.0068 -0.5460  0.0181
15103SOL    HW251402   7.289  10.127   9.721  0.8192 -0.0182  0.2776
15104SOL     OW51403   1.997   5.626   7.948  0.1719 -0.4802  0.9695
15104SOL    HW151404   1.995   5.541   7.992 -0.6725 -0.5099  0.9045
15104SOL    HW251405   2.073   5.622   7.890  0.2013 -1.1532  1.0479
15105SOL     OW51406   1.223   8.152   2.888 -0.1284  0.0081 -0.0587
15105SOL    HW151407   1.139   8.125   2.850  0.1459 -1.4586  0.3245
15105SOL    HW251408   1.287   8.092   2.850  0.5762  0.3618  0.5467
15106SOL     OW51409   6.370  10.059   5.981  0.2367  0.2717 -0.4810
15106SOL    HW151410   6.448  10.021   5.943 -1.3099 -1.4975 -2.1138
15106SOL    HW251411   6.309  10.068   5.908 -1.2779  1.1020  0.8029
15107SOL     OW51412   3.818   0.059   5.896  0.0851 -0.5749  0.3407
15107SOL    HW151413   3.768   0.132   5.858  0.5296 -0.5225 -0.1375
15107SOL    HW251414   3.813  -0.011   5.831  1.6044 -0.1757 -0.2456
15108SOL     OW51415   6.884   4.872   6.632  0.5764 -0.0572 -0.2604
15108SOL    HW151416   6.889   4.827   6.716 -1.3153 -0.4031 -0.2990
15108SOL    HW251417   6.971   4.861   6.593  1.6410  0.5216  1.8382
15109SOL     OW51418   6.276   8.765   7.348  0.1020 -0.5340 -0.0991
15109SOL    HW151419   6.364   8.775   7.384  0.0033  0.8072 -0.1765
15109SOL    HW251420   6.288   8.772   7.253 -0.1310  0.0649 -0.0864
15110SOL     OW51421   7.192   3.643   0.405 -0.3157  0.8451  0.6371
15110SOL    HW151422   7.252   3.652   0.479  0.8347 -1.8696  0.1693
15110SOL    HW251423   7.238   3.584   0.345 -2.4458  0.6662 -0.9072
15111SOL     OW51424   6.903   1.965   5.519 -0.2885  0.2922  0.4671
15111SOL    HW151425   6.850   1.999   5.447 -0.8606  0.2205  0.8479
15111SOL    HW251426   6.842   1.960   5.593 -0.3503 -1.9692  0.3382
15112SOL     OW51427   8.752  10.337  10.261 -0.2926 -0.1546  0.2663
15112SOL    HW151428   8.811  10.411  10.247  0.5228 -0.4572  1.8810
15112SOL    HW251429   8.676  10.355  10.205  0.0213  1.7413  0.4158
15113SOL     OW51430   5.383   9.417   0.699  0.8004  0.1236 -0.7201
15113SOL    HW151431   5.421   9.504   0.712 -0.6061  0.9168 -1.6540
15113SOL    HW251432   5.457   9.357   0.709  1.6303  1.3305  0.8792
15114SOL     OW51433   6.186   0.262   3.809  0.3012  0.3821 -0.0931
15114SOL    HW151434   6.236   0.289   3.886 -0.9632  2.3036  0.1151
15114SOL    HW251435   6.191   0.338   3.750 -1.7613  0.3581 -0.3546
15115SOL     OW51436   6.961   1.900   2.584 -0.1705 -0.3432  0.0554
15115SOL    HW151437   6.986   1.947   2.504  0.7021 -0.7107  0.0984
15115SOL    HW251438   7.044   1.878   2.626 -0.6217  0.8426  1.6745
15116SOL     OW51439   1.906   3.329   5.958  0.2990  0.2951 -0.5548
15116SOL    HW151440   1.993   3.297   5.983  0.4830  0.8346 -0.4772
15116SOL    HW251441   1.898   3.305   5.866  1.1890  1.5896 -1.0066
15117SOL     OW51442   8.494   6.307   7.422  0.0184  0.6711  0.0468
15117SOL    HW151443   8.510   6.223   7.463  2.7039  1.5909  1.0674
15117SOL    HW251444   8.426   6.348   7.476 -0.6772 -0.4241  0.0437
15118SOL     OW51445   9.831   0.296   2.073  0.1511  0.7017 -0.3540
15118SOL    HW151446   9.756   0.355   2.072 -1.5051 -1.2082 -3.1235
15118SOL    HW251447   9.898   0.340   2.021 -0.1573  1.1609 -0.3629
15119SOL     OW51448   5.366   9.069   7.668 -0.2106 -0.4449 -0.0607
15119SOL    HW151449   5.365   9.149   7.720 -0.0386 -0.3601 -0.1821
15119SOL    HW251450   5.455   9.035   7.678  0.0753 -0.0030 -0.9220
15120SOL     OW51451   3.800   2.743   0.820  0.4772 -0.3801 -0.7687
15120SOL    HW151452   3.866   2.705   0.763  0.7359 -1.0275 -0.0587
15120SOL    HW251453   3.748   2.799   0.763 -0.1269 -2.0434 -1.9382
15121SOL     OW51454  10.353   2.916  10.745  0.1906  0.0065 -0.2321
15121SOL    HW151455  10.425   2.963  10.788  1.9659 -1.9987 -0.8687
15121SOL    HW251456  10.389   2.886  10.662 -1.8657  0.1400 -1.2401
15122SOL     OW51457   9.605   5.193  10.676 -0.2274  0.2127  0.1699
15122SOL    HW151458   9.514   5.205  10.703 -0.9498 -0.5824 -1.7637
15122SOL    HW251459   9.622   5.265  10.615 -0.3375 -0.9119 -1.2478
15123SOL     OW51460   5.188   8.144   3.728 -0.0719  0.1421  0.4741
15123SOL    HW151461   5.142   8.223   3.701 -1.0743  0.3485  2.5417
15123SOL    HW251462   5.166   8.079   3.661 -1.3810  0.9247  0.1077
15124SOL     OW51463   2.382  10.086   4.925  0.0506 -0.1980  0.1085
15124SOL    HW151464   2.465  10.057   4.961  0.5356  0.5592 -0.3768
15124SOL    HW251465   2.389  10.068   4.831 -0.2322  0.1125  0.0267
15125SOL     OW51466   4.008   5.715   8.365  0.3625 -0.0752 -0.5316
15125SOL    HW151467   4.038   5.634   8.323 -0.2188  0.1942 -1.4854
15125SOL    HW251468   4.045   5.785   8.311 -1.0420  0.2677 -1.0971
15126SOL     OW51469   1.580   9.546   0.206  0.4794 -0.2482 -0.0833
15126SOL    HW151470   1.581   9.488   0.281  1.0901  0.4662  0.4812
15126SOL    HW251471   1.490   9.541   0.172 -0.3433  0.8287  1.8194
15127SOL     OW51472   7.774   9.589   9.220 -0.3706  0.0683 -0.3421
15127SOL    HW151473   7.717   9.576   9.296 -1.2244  0.4266 -0.9015
15127SOL    HW251474   7.716   9.576   9.144  0.9120 -2.5005 -1.0168
15128SOL     OW51475   3.848   6.267   0.164 -0.2054  0.4570 -0.3344
15128SOL    HW151476   3.847   6.349   0.213  0.5087  0.7360 -0.7720
15128SOL    HW251477   3.938   6.260   0.131 -0.3728 -0.2945 -0.6472
15129SOL     OW51478   2.382   4.591   5.716 -0.0518 -0.3000  0.0815
15129SOL    HW151479   2.368   4.525   5.648 -0.5358 -0.0827 -0.0315
15129SOL    HW251480   2.477   4.589   5.732 -0.1022 -1.2014  0.2710
15130SOL     OW51481   4.508   4.633   1.554 -0.1661  0.0846 -0.0243
15130SOL    HW151482   4.573   4.650   1.622  0.5283  0.3085 -0.7350
15130SOL    HW251483   4.482   4.720   1.524 -0.8310 -0.0014  0.2746
15131SOL     OW51484   5.919   9.610   5.595  0.2199 -0.3577  0.5723
15131SOL    HW151485   5.870   9.621   5.676  1.3969 -1.3977  1.4523
15131SOL    HW251486   6.002   9.654   5.610 -0.2486  1.0497 -0.7656
15132SOL     OW51487   3.830   8.807   4.189  0.2842  0.1468  0.1250
15132SOL    HW151488   3.866   8.718   4.186 -3.0236 -1.3352  0.2167
15132SOL    HW251489   3.854   8.840   4.275  0.0980 -1.3718  0.7920
15133SOL     OW51490  10.336   5.807   3.300  0.0677 -0.2579  0.7642
15133SOL    HW151491  10.298   5.720   3.287 -0.0761 -0.5301  2.7231
15133SOL    HW251492  10.375   5.803   3.387  3.2010  0.5571 -0.4593
15134SOL     OW51493   6.977   5.822   6.884 -0.4093 -0.1773 -0.4660
15134SOL    HW151494   7.039   5.846   6.815 -0.1789 -0.9942 -0.5481
15134SOL    HW251495   6.891   5.847   6.849 -0.0592  2.3051  0.2185
15135SOL     OW51496   3.965   1.011  10.828  0.7092  0.2758  0.0011
15135SOL    HW151497   3.898   1.045  10.888  0.4984 -1.1237  0.5769
15135SOL    HW251498   4.036   0.983  10.884  0.5543 -0.9618 -0.3869
15136SOL     OW51499   2.829   8.708   7.214 -0.5784  0.1432 -0.0686
15136SOL    HW151500   2.909   8.664   7.242 -0.4647  0.5406  0.2431
15136SOL    HW251501   2.847   8.801   7.226 -0.7606  0.2939 -0.8495
15137SOL     OW51502   6.692   2.444   1.907 -0.1353 -0.2413  0.0955
15137SOL    HW151503   6.675   2.370   1.848 -2.3209 -1.4844  2.1046
15137SOL    HW251504   6.605   2.477   1.928  0.7318  1.8201  0.6315
15138SOL     OW51505   9.390   9.581   5.948  0.0809 -0.4312 -0.2696
15138SOL    HW151506   9.361   9.644   6.014  0.7980 -0.0686 -0.2905
15138SOL    HW251507   9.309   9.546   5.911 -0.3310  0.8521 -0.6056
15139SOL     OW51508   4.195   1.382   5.085 -0.4446  0.3515  0.1755
15139SOL    HW151509   4.123   1.419   5.136 -0.5102 -0.0701  0.3963
15139SOL    HW251510   4.272   1.396   5.140 -0.4274  0.4085  0.1362
15140SOL     OW51511   2.471   5.127   4.359  0.2015 -0.1394 -0.0681
15140SOL    HW151512   2.531   5.117   4.433  1.8259 -0.1939 -1.3272
15140SOL    HW251513   2.486   5.049   4.306 -1.3773 -0.3917 -0.1726
15141SOL     OW51514   0.312   7.264   4.835 -0.1368 -0.2520 -0.0490
15141SOL    HW151515   0.227   7.237   4.802  0.9864 -0.8441 -2.6976
15141SOL    HW251516   0.373   7.242   4.765  1.9965  1.5750  1.1092
15142SOL     OW51517   0.451   7.561  10.368  0.1957 -0.0001 -0.6381
15142SOL    HW151518   0.509   7.534  10.439  0.0487  0.7903 -0.2065
15142SOL    HW251519   0.480   7.511  10.292  1.0349 -0.0699 -0.2734
15143SOL     OW51520   5.997   6.861   7.044 -0.7794 -0.0066  0.1656
15143SOL    HW151521   6.046   6.923   7.097 -1.1878 -0.4053  1.0304
15143SOL    HW251522   6.029   6.875   6.955 -0.0019  0.5966  0.5273
15144SOL     OW51523   5.467   2.426   4.899  0.5126 -0.0781  0.2694
15144SOL    HW151524   5.494   2.376   4.823  0.5746 -0.4225  0.5152
15144SOL    HW251525   5.548   2.463   4.934  0.3632  0.9469 -0.4322
15145SOL     OW51526   4.681   0.270   9.989 -0.2603 -0.2489  0.4590
15145SOL    HW151527   4.689   0.297   9.898 -0.2621  1.3139  0.8986
15145SOL    HW251528   4.644   0.346  10.034 -0.4052 -1.0435  1.7418
15146SOL     OW51529  10.750   5.881   9.345 -0.2272 -0.4321  0.3489
15146SOL    HW151530  10.708   5.797   9.325 -0.7756 -0.2251  0.5893
15146SOL    HW251531  10.835   5.857   9.382  0.7978 -0.8143 -2.1142
15147SOL     OW51532   9.154   2.175   6.159  0.2782 -0.5060 -0.2255
15147SOL    HW151533   9.176   2.085   6.133 -0.2206 -0.4130 -1.0039
15147SOL    HW251534   9.059   2.176   6.163  0.3170 -0.3794  1.1957
15148SOL     OW51535   6.897   0.082   1.256  0.1321 -0.0084 -0.9296
15148SOL    HW151536   6.874   0.029   1.332 -0.4965  0.3429 -0.8662
15148SOL    HW251537   6.992   0.083   1.255  0.1955 -1.8666 -1.4320
15149SOL     OW51538  10.477   9.519   4.249 -0.5768  0.3360  0.5977
15149SOL    HW151539  10.565   9.541   4.220 -0.3822  0.4617  1.2608
15149SOL    HW251540  10.458   9.583   4.318 -0.7024 -0.4560  1.3145
15150SOL     OW51541   7.101   2.810  10.609 -0.1385 -0.5050 -0.1206
15150SOL    HW151542   7.174   2.764  10.567  0.8144 -0.5349  1.5002
15150SOL    HW251543   7.029   2.804  10.545  1.5919  0.5865 -2.3138
15151SOL     OW51544   2.178  10.575   7.051  0.7010 -0.1187  0.1685
15151SOL    HW151545   2.092  10.551   7.018 -0.1859 -0.9710  2.8451
15151SOL    HW251546   2.237  10.561   6.977 -1.3784  0.2072 -1.6507
15152SOL     OW51547   1.939   9.084   4.736 -0.0657  0.1816  0.2533
15152SOL    HW151548   1.870   9.150   4.746 -0.6952 -0.4552  0.2445
15152SOL    HW251549   2.012   9.116   4.787 -1.4211 -0.5796  2.8331
15153SOL     OW51550   5.074   3.903   9.369  0.3290 -0.2001 -0.0542
15153SOL    HW151551   5.152   3.850   9.382 -0.5820 -1.5177  0.2519
15153SOL    HW251552   5.058   3.944   9.454 -0.8606 -2.1569  0.7331
15154SOL     OW51553  10.820   8.815   4.449  0.0213 -0.5715  0.2172
15154SOL    HW151554  10.869   8.894   4.471  2.0758 -1.4299 -0.9850
15154SOL    HW251555  10.737   8.847   4.415 -0.4904  0.9376  2.6479
15155SOL     OW51556   3.998   2.415   7.925  0.8247 -0.5460 -0.6699
15155SOL    HW151557   4.035   2.489   7.973 -1.4982  0.4985 -0.3650
15155SOL    HW251558   4.005   2.341   7.985 -0.7527  0.4325  0.7912
15156SOL     OW51559   3.739   5.524   2.546 -0.1182  0.5812 -0.1550
15156SOL    HW151560   3.665   5.535   2.486  1.0377  1.9532 -1.4200
15156SOL    HW251561   3.805   5.477   2.494 -0.2099 -1.0390  1.0996
15157SOL     OW51562   0.197   9.264   1.440  0.1622  0.4005 -0.7264
15157SOL    HW151563   0.237   9.252   1.526  1.2554  1.4283 -1.0654
15157SOL    HW251564   0.267   9.300   1.386  0.0784 -1.9439 -2.5701
15158SOL     OW51565   3.346   0.882   6.288  0.3603 -0.0256  0.2201
15158SOL    HW151566   3.418   0.909   6.231  0.5128  0.6786  0.7288
15158SOL    HW251567   3.287   0.833   6.231  0.8062  0.1444 -0.4026
15159SOL     OW51568   4.314   5.646   4.621 -0.5012 -0.2835 -0.5757
15159SOL    HW151569   4.405   5.633   4.591 -0.5955  1.8277 -2.0065
15159SOL    HW251570   4.320   5.719   4.683 -1.2157 -0.1713 -0.6402
15160SOL     OW51571   3.901   4.320   2.202  0.1373  0.3715  0.0267
15160SOL    HW151572   3.934   4.356   2.284 -0.2746 -0.6359  0.6457
15160SOL    HW251573   3.971   4.262   2.172  0.4564  1.0280 -0.5617
15161SOL     OW51574   6.721  10.252  10.580  0.2138  0.1839 -0.0656
15161SOL    HW151575   6.690  10.341  10.560  1.2828  1.0684  1.9593
15161SOL    HW251576   6.640  10.203  10.596 -0.4404  0.5275 -2.0521
15162SOL     OW51577  10.761   6.213  10.241 -0.2889 -0.5029  0.2895
15162SOL    HW151578  10.714   6.212  10.157 -0.3017  1.2946  0.2326
15162SOL    HW251579  10.778   6.121  10.260 -1.7717 -1.0519 -0.8488
15163SOL     OW51580   5.744   5.433   2.937  0.2784  0.2765  0.0468
15163SOL    HW151581   5.678   5.497   2.966 -0.3452 -1.0417  1.7282
15163SOL    HW251582   5.731   5.426   2.843 -2.8216 -0.7141  0.4171
15164SOL     OW51583   7.921   1.144   6.165  0.1391 -0.0348 -0.1580
15164SOL    HW151584   7.875   1.145   6.081  0.1274  1.9072 -0.1619
15164SOL    HW251585   8.014   1.134   6.141  0.1374  0.5295 -0.4101
15165SOL     OW51586   0.820   7.630   5.318 -0.6619  0.7159  0.6407
15165SOL    HW151587   0.889   7.564   5.331 -2.3817 -1.0939  0.9819
15165SOL    HW251588   0.835   7.661   5.229 -0.3495 -0.8398  0.1085
15166SOL     OW51589   7.785   0.184   6.451 -0.5702 -0.5756  0.0227
15166SOL    HW151590   7.834   0.107   6.478  1.8191  0.9330  0.2358
15166SOL    HW251591   7.741   0.157   6.370 -0.7782 -2.4732  0.7226
15167SOL     OW51592   1.341   3.342   6.763 -0.2811  0.2010 -0.7451
15167SOL    HW151593   1.389   3.279   6.816 -2.8730 -2.1941 -1.0440
15167SOL    HW251594   1.346   3.423   6.814  0.8028 -0.9144  1.0633
15168SOL     OW51595   2.185   4.512  10.569  0.0644 -0.0020 -0.2590
15168SOL    HW151596   2.109   4.472  10.611  1.0586 -1.2222  0.4635
15168SOL    HW251597   2.241   4.437  10.545 -0.6862  0.5030 -4.3817
15169SOL     OW51598   0.971   2.434   8.859 -0.4460 -0.4203 -0.2105
15169SOL    HW151599   0.907   2.477   8.916 -0.8224  0.3345 -1.1771
15169SOL    HW251600   0.951   2.466   8.772  1.8953  0.6216 -0.4279
15170SOL     OW51601   9.756   2.235   9.845 -0.7525  0.0824  0.1246
15170SOL    HW151602   9.709   2.155   9.869 -2.0534  0.5849 -0.6288
15170SOL    HW251603   9.787   2.218   9.756 -0.0738  0.0051  0.3749
15171SOL     OW51604   3.641   0.253   3.251 -0.0409  0.1777  0.2018
15171SOL    HW151605   3.581   0.265   3.177 -1.2049  0.2843  1.1210
15171SOL    HW251606   3.722   0.296   3.225 -0.4931  0.3588 -0.9348
15172SOL     OW51607   6.295   3.622   9.395 -0.4144  0.6149 -0.5476
15172SOL    HW151608   6.363   3.594   9.333 -1.3161 -2.5746 -0.2724
15172SOL    HW251609   6.326   3.592   9.480 -2.0322 -0.7427 -0.3975
15173SOL     OW51610   0.932  10.065  10.907  0.0830 -0.0572  0.2362
15173SOL    HW151611   0.933  10.037  10.998 -0.2853 -0.0412  0.2468
15173SOL    HW251612   0.931  10.161  10.911  0.0994 -0.0563  0.2151
15174SOL     OW51613   0.260   6.708   0.885 -0.2890 -0.3321  0.1505
15174SOL    HW151614   0.190   6.685   0.946 -0.1534 -3.3254 -0.6725
15174SOL    HW251615   0.336   6.658   0.916  0.8829  1.1087 -0.2772
15175SOL     OW51616   0.668   8.634   6.097 -0.4185  0.1318  0.3090
15175SOL    HW151617   0.643   8.673   6.013 -0.6728  1.6452  1.0584
15175SOL    HW251618   0.665   8.706   6.159  3.5284 -0.0405  0.9615
15176SOL     OW51619   0.829   9.000   4.435 -0.2103 -0.3401  0.0063
15176SOL    HW151620   0.747   8.976   4.390 -1.7616  0.4462  2.2167
15176SOL    HW251621   0.812   9.089   4.466  1.2856 -0.3897  1.0185
15177SOL     OW51622   5.446   1.103  10.432  0.3737 -0.0701 -0.2039
15177SOL    HW151623   5.474   1.016  10.406 -1.6842 -1.0508  0.6284
15177SOL    HW251624   5.437   1.098  10.527 -1.9189  0.3269 -0.3472
15178SOL     OW51625   2.779   9.409   8.421 -0.3835  0.3152 -0.0105
15178SOL    HW151626   2.742   9.326   8.452 -0.4157  0.6219  0.7973
15178SOL    HW251627   2.740   9.475   8.478  1.4477  0.6505  0.9585
15179SOL     OW51628   7.813  10.703   2.888 -0.0562 -0.1742 -0.1330
15179SOL    HW151629   7.746  10.655   2.840  0.1264  0.5171 -1.1188
15179SOL    HW251630   7.894  10.655   2.871 -0.0607 -0.1625 -0.1889
15180SOL     OW51631   0.913   1.653   8.479  0.2022 -0.0118 -0.1268
15180SOL    HW151632   0.978   1.690   8.419 -1.8617  2.0434 -1.2871
15180SOL    HW251633   0.904   1.720   8.547 -1.1624  0.1082 -0.3947
15181SOL     OW51634   3.511   5.070   1.690  0.0010  0.1161 -0.2933
15181SOL    HW151635   3.544   5.159   1.674 -1.0283  0.9534  1.8656
15181SOL    HW251636   3.429   5.066   1.641 -0.7626  0.9639  0.8722
15182SOL     OW51637   6.795   6.806   2.134  0.1266  0.1283  0.3012
15182SOL    HW151638   6.746   6.832   2.212 -0.3791 -1.6595  0.6334
15182SOL    HW251639   6.851   6.735   2.164  1.8475  1.1193 -0.4186
15183SOL     OW51640   5.721   0.089   7.653  0.3861  0.4337 -0.1415
15183SOL    HW151641   5.729   0.053   7.565  0.5720 -0.9484  0.4083
15183SOL    HW251642   5.643   0.046   7.689  0.3191  0.9727  0.3780
15184SOL     OW51643   8.196   9.929   3.156 -0.8739  0.5384  0.1451
15184SOL    HW151644   8.215   9.928   3.250  0.1438 -1.3250 -0.0263
15184SOL    HW251645   8.231  10.012   3.125 -1.9642  1.5535  1.5307
15185SOL     OW51646  10.133   1.411   6.048 -0.1261  0.4487 -0.3975
15185SOL    HW151647  10.057   1.448   6.092 -0.8198 -2.1567  0.8275
15185SOL    HW251648  10.201   1.409   6.116  0.1217  0.1341 -0.6490
15186SOL     OW51649   6.300   0.543   9.243  0.0608 -0.0895  0.1077
15186SOL    HW151650   6.244   0.467   9.223  0.7223  0.0051 -2.4719
15186SOL    HW251651   6.359   0.550   9.168  0.5681  2.5016  0.6438
15187SOL     OW51652   4.701   2.724   2.486  0.4391  0.5111 -0.4208
15187SOL    HW151653   4.671   2.765   2.405  1.1236  1.7675 -0.0664
15187SOL    HW251654   4.689   2.793   2.553 -1.4259 -0.9176  0.8453
15188SOL     OW51655   5.040   6.733   7.631 -0.0920 -0.2384  0.2065
15188SOL    HW151656   5.013   6.682   7.555 -2.8104 -0.9666  1.5187
15188SOL    HW251657   5.058   6.668   7.699  1.5730  0.4160  0.4489
15189SOL     OW51658   6.872   3.917   0.705  0.2620  0.1916 -0.2527
15189SOL    HW151659   6.868   3.821   0.701  0.4914  0.1807 -0.2606
15189SOL    HW251660   6.871   3.944   0.613 -1.6241  0.2898 -0.2406
15190SOL     OW51661   8.612   8.613   1.364  0.1182  0.0598  0.1549
15190SOL    HW151662   8.646   8.595   1.451  0.6117 -1.9440 -0.3883
15190SOL    HW251663   8.685   8.594   1.305 -1.0742 -1.7349 -0.8573
15191SOL     OW51664  10.086   9.062   6.040 -0.0885  0.2690  0.1678
15191SOL    HW151665  10.116   9.153   6.028  0.0660  0.4327  1.6213
15191SOL    HW251666  10.142   9.011   5.981  0.4943  1.0036  0.0642
15192SOL     OW51667   4.409   8.668   8.202 -0.0924 -0.1559  0.2854
15192SOL    HW151668   4.481   8.667   8.139 -1.1893 -2.0908 -1.0852
15192SOL    HW251669   4.451   8.675   8.287  1.6751 -0.6048 -0.4967
15193SOL     OW51670   3.092   2.303   7.155  0.0780 -0.0971 -0.0870
15193SOL    HW151671   3.008   2.284   7.114  0.3098  2.5721 -2.0930
15193SOL    HW251672   3.156   2.293   7.085  0.8218  2.1895  0.1865
15194SOL     OW51673   2.592   9.152   6.196  0.2274 -0.1807 -0.2736
15194SOL    HW151674   2.621   9.199   6.274  0.3392 -0.7311  0.0225
15194SOL    HW251675   2.671   9.143   6.143  0.1560  0.1747 -0.4414
15195SOL     OW51676   0.447  10.832   3.876  0.0967 -0.2279  0.0585
15195SOL    HW151677   0.408  10.917   3.894  1.2882  0.3030  0.2284
15195SOL    HW251678   0.384  10.788   3.819 -0.5254  0.7690 -0.0449
15196SOL     OW51679   6.633   4.984   9.190  0.4196 -0.0451  0.1772
15196SOL    HW151680   6.553   5.029   9.215 -0.5719 -1.5722 -0.0806
15196SOL    HW251681   6.696   5.054   9.173  0.0792  1.1625  3.2389
15197SOL     OW51682   6.852   7.350   4.863  0.2787 -0.1688  0.0879
15197SOL    HW151683   6.780   7.381   4.809  0.3360 -0.3701 -0.1077
15197SOL    HW251684   6.863   7.258   4.838 -0.5581 -0.6476  1.3778
15198SOL     OW51685   8.559   3.057  10.776  0.3335  0.2420  0.0359
15198SOL    HW151686   8.579   3.149  10.758 -1.0581  0.8774  1.4868
15198SOL    HW251687   8.578   3.012  10.693  0.2734  1.9512 -0.9650
15199SOL     OW51688   4.171   2.673   2.161 -0.4276 -0.1200 -0.2702
15199SOL    HW151689   4.229   2.602   2.135  0.7243 -0.2258  2.2407
15199SOL    HW251690   4.213   2.752   2.129  0.2959 -0.3226  0.1588
15200SOL     OW51691   9.251   1.827   1.588  0.0390 -0.5108  0.3434
15200SOL    HW151692   9.206   1.788   1.513 -2.6036 -0.2431  1.6717
15200SOL    HW251693   9.288   1.908   1.554 -0.9590 -0.4829 -0.7365
15201SOL     OW51694   5.720   9.562   4.034  0.0334  0.4425  0.1023
15201SOL    HW151695   5.777   9.601   4.100 -2.0090  0.4445  1.9760
15201SOL    HW251696   5.726   9.621   3.959  1.6383  1.0045  0.6295
15202SOL     OW51697   1.540   2.363   8.366  0.1493  0.2486 -0.3488
15202SOL    HW151698   1.545   2.299   8.437  0.9692  1.6045  0.8530
15202SOL    HW251699   1.629   2.396   8.356  0.3492 -0.8100 -2.9167
15203SOL     OW51700   4.420   9.770   6.694 -0.2996  0.1335  0.2021
15203SOL    HW151701   4.452   9.852   6.732 -0.1534  0.7319 -1.1370
15203SOL    HW251702   4.384   9.722   6.768  1.7219  0.3727  1.4254
15204SOL     OW51703   1.545   9.546   2.950 -0.0541  0.1278  0.5009
15204SOL    HW151704   1.472   9.494   2.985  0.8267 -1.3816  0.1812
15204SOL    HW251705   1.508   9.588   2.872 -0.8228  0.0738  0.8239
15205SOL     OW51706   1.089   1.394  10.236 -0.5105 -0.2891 -0.9989
15205SOL    HW151707   1.084   1.298  10.230  0.1444 -0.6023  1.9332
15205SOL    HW251708   1.042   1.415  10.317 -0.0537  1.8084 -1.2358
15206SOL     OW51709   8.177   8.404   7.663 -0.0407  0.3622  0.6482
15206SOL    HW151710   8.127   8.485   7.665  0.0312  0.8220 -4.0381
15206SOL    HW251711   8.246   8.416   7.728 -0.6274  3.6100  0.8367
15207SOL     OW51712   2.889   8.679   6.466  0.4823  0.6499  0.5311
15207SOL    HW151713   2.956   8.618   6.497 -0.5597  0.1660  1.9172
15207SOL    HW251714   2.871   8.652   6.376  0.3273 -0.8191  0.9848
15208SOL     OW51715   3.253   9.457   3.091 -0.1124  0.1335 -0.0256
15208SOL    HW151716   3.262   9.433   2.999  1.6368 -0.0406  0.1689
15208SOL    HW251717   3.263   9.374   3.139 -0.6240  0.2831  0.3580
15209SOL     OW51718   6.263   0.725   8.168  0.4223 -0.8521  0.1434
15209SOL    HW151719   6.234   0.668   8.097  1.4838 -0.3055 -0.7591
15209SOL    HW251720   6.200   0.797   8.168 -0.4605 -1.6007  0.7697
15210SOL     OW51721   3.370   1.563   1.698  0.0737 -0.2049 -0.4759
15210SOL    HW151722   3.444   1.569   1.759 -2.0162 -0.8215  2.3374
15210SOL    HW251723   3.356   1.653   1.669 -0.2628  0.5877  1.8871
15211SOL     OW51724   6.747   1.967   5.739 -0.1584  0.0578 -0.8293
15211SOL    HW151725   6.780   2.020   5.811  2.3439  1.0586 -2.5633
15211SOL    HW251726   6.663   2.007   5.716  1.3650  3.0573 -1.7152
15212SOL     OW51727   8.306   2.187   5.265 -0.3133  0.5984  0.1368
15212SOL    HW151728   8.212   2.190   5.246 -0.3445  1.3276  0.3605
15212SOL    HW251729   8.342   2.124   5.203 -0.8714  0.7046 -0.2970
15213SOL     OW51730  10.392  10.197   3.762 -0.2379  0.0061 -0.2583
15213SOL    HW151731  10.319  10.230   3.816 -0.2957  1.6289 -1.2649
15213SOL    HW251732  10.370  10.225   3.673  1.5416  0.4286 -0.5995
15214SOL     OW51733  10.714   8.094   2.415 -0.3685 -0.0945 -0.0894
15214SOL    HW151734  10.759   8.015   2.387  0.2707  0.7650 -1.6684
15214SOL    HW251735  10.623   8.080   2.387 -0.5493 -0.7675  0.7863
15215SOL     OW51736   4.863   2.027   9.608  0.5087 -0.1425  0.2309
15215SOL    HW151737   4.874   1.935   9.631 -0.7555 -0.4625 -0.3438
15215SOL    HW251738   4.816   2.025   9.525  0.7489  1.0296  0.0476
15216SOL     OW51739  10.293   2.476   5.864  0.0183  0.2500  0.1201
15216SOL    HW151740  10.346   2.399   5.881  0.0935  0.3295  0.2478
15216SOL    HW251741  10.206   2.453   5.895 -0.4269 -0.4778 -1.5464
15217SOL     OW51742   3.708  10.393   4.226 -0.3909  0.3325 -0.5139
15217SOL    HW151743   3.734  10.458   4.161  2.3943 -2.1818 -2.1716
15217SOL    HW251744   3.633  10.349   4.187  0.3445 -0.1797 -1.3874
15218SOL     OW51745   8.762   2.988   5.083  0.0650  0.3085  0.0020
15218SOL    HW151746   8.847   2.949   5.101  0.5030  1.9119  1.7402
15218SOL    HW251747   8.741   2.960   4.994  1.9068 -0.9755 -0.0818
15219SOL     OW51748  10.839   1.283  10.048  0.1274 -0.1972  0.2312
15219SOL    HW151749  10.749   1.273  10.017  0.4212 -1.3714 -0.2840
15219SOL    HW251750  10.891   1.288   9.968  0.8323 -2.6745  0.4375
15220SOL     OW51751   3.132   5.002   4.615 -0.0739 -0.2515 -0.8886
15220SOL    HW151752   3.223   4.987   4.593  0.5624  2.2098 -0.2550
15220SOL    HW251753   3.090   5.026   4.533  0.2773  0.4137 -0.8726
15221SOL     OW51754   5.452   1.316   4.950 -0.4968  0.0004  0.0793
15221SOL    HW151755   5.370   1.276   4.979 -0.8711 -0.1574 -1.1769
15221SOL    HW251756   5.434   1.410   4.950  0.2270  0.2330  2.5294
15222SOL     OW51757   6.438   1.876  10.141 -0.3320  0.5646 -0.3241
15222SOL    HW151758   6.468   1.847  10.227 -2.4316  0.9977  0.6184
15222SOL    HW251759   6.449   1.800  10.084  1.4261  0.3829  0.2095
15223SOL     OW51760   3.788   5.297   9.703 -0.5140 -0.1542 -0.2446
15223SOL    HW151761   3.872   5.341   9.703  0.2653 -1.5715  0.0585
15223SOL    HW251762   3.748   5.320   9.787 -0.7951  1.1377 -0.7099
15224SOL     OW51763   2.493  10.473   4.166 -0.6540  0.0965 -0.0642
15224SOL    HW151764   2.428  10.502   4.103  0.0611  1.7142 -0.1063
15224SOL    HW251765   2.449  10.404   4.216 -2.8114  1.8343  0.6151
15225SOL     OW51766   7.607   6.804   7.945 -0.2490  0.2688  0.3255
15225SOL    HW151767   7.660   6.882   7.929  0.2787 -0.3571 -1.1682
15225SOL    HW251768   7.656   6.756   8.012  0.7366  0.0535 -0.5161
15226SOL     OW51769   6.003   0.167   2.714  0.3229  0.5232  0.1560
15226SOL    HW151770   5.987   0.225   2.639 -1.0247  0.3141  0.2543
15226SOL    HW251771   5.992   0.224   2.790  1.9486  0.7948  0.2117
15227SOL     OW51772   3.095   9.194   1.482 -0.4698  0.2023 -0.5030
15227SOL    HW151773   3.116   9.115   1.531  0.1639  1.3150  1.1203
15227SOL    HW251774   3.021   9.170   1.427 -0.5653 -1.3882  0.2705
15228SOL     OW51775   9.825  10.751   9.360 -0.1597  0.1368  0.8298
15228SOL    HW151776   9.814  10.842   9.331 -0.4402 -0.2514 -0.3024
15228SOL    HW251777   9.862  10.759   9.448 -0.9520  1.3573  1.0724
15229SOL     OW51778   7.999   8.714   0.032  0.2197  0.1822  0.4841
15229SOL    HW151779   8.040   8.789   0.073  1.4073 -0.8466  1.2624
15229SOL    HW251780   7.958   8.749  -0.047 -0.3216  1.8405  1.4498
15230SOL     OW51781   7.065   0.314   3.306 -0.1341  0.3709  0.5090
15230SOL    HW151782   7.038   0.223   3.323  0.4566  0.2350  0.7635
15230SOL    HW251783   6.996   0.367   3.345 -0.3867  0.0335  0.5312
15231SOL     OW51784   4.007   0.128  10.755 -0.1809 -0.5747 -0.0843
15231SOL    HW151785   3.955   0.131  10.836 -1.4541 -0.1800 -0.8820
15231SOL    HW251786   3.947   0.159  10.687  0.7679 -1.1914 -1.2413
15232SOL     OW51787   0.628  10.927  10.379  0.3173  0.2852  0.2830
15232SOL    HW151788   0.665  10.923  10.290  0.2120 -0.3019  0.2623
15232SOL    HW251789   0.703  10.946  10.435  0.3010  1.1670  0.0157
15233SOL     OW51790   7.201   8.619   8.610  0.1240 -0.7636 -0.0753
15233SOL    HW151791   7.254   8.699   8.616  0.3214 -0.9324  0.4478
15233SOL    HW251792   7.125   8.645   8.558  0.6022 -0.4564 -0.6375
15234SOL     OW51793   7.923   0.429   6.262 -0.1691 -0.2235 -0.4717
15234SOL    HW151794   8.018   0.442   6.269 -0.0813 -0.5808 -0.9419
15234SOL    HW251795   7.913   0.335   6.249 -0.6885 -0.4313  1.1447
15235SOL     OW51796   2.508   9.990   1.122  0.3888  0.1872  0.1399
15235SOL    HW151797   2.538  10.080   1.116 -0.1786  0.3653 -0.0948
15235SOL    HW251798   2.413   9.995   1.110  0.5744 -0.6735 -2.0969
15236SOL     OW51799  10.215   4.470   8.954 -0.4156  0.1937  0.0596
15236SOL    HW151800  10.173   4.390   8.984 -0.8546  0.8279  1.1648
15236SOL    HW251801  10.308   4.446   8.946 -0.4380 -0.2592  1.0078
15237SOL     OW51802   8.685   2.540   2.919  0.6201 -0.1646 -0.1770
15237SOL    HW151803   8.781   2.540   2.928  0.5879  1.2693  0.4702
15237SOL    HW251804   8.665   2.626   2.881 -0.3151 -1.0234 -1.6922
15238SOL     OW51805   0.149   6.215   8.470 -0.2494  0.1232  0.2504
15238SOL    HW151806   0.090   6.268   8.417  1.0165  2.3455  0.9590
15238SOL    HW251807   0.128   6.239   8.561  1.4005  0.6538  0.5284
15239SOL     OW51808   1.600   1.568   8.546  0.3293 -0.2463 -0.5153
15239SOL    HW151809   1.522   1.545   8.494  0.8571 -0.7179 -1.1205
15239SOL    HW251810   1.643   1.636   8.494  0.3724 -0.0549 -0.2283
15240SOL     OW51811   0.583   7.661   8.319  0.4987 -0.5150  0.1476
15240SOL    HW151812   0.537   7.616   8.389 -1.8680  2.0854  0.4745
15240SOL    HW251813   0.526   7.652   8.243 -0.0977  1.7948  0.2407
15241SOL     OW51814   4.702   9.041  10.171  0.1631  0.1636  0.3380
15241SOL    HW151815   4.681   9.083  10.088 -0.0866 -0.8492 -0.1358
15241SOL    HW251816   4.617   9.009  10.204  0.3513 -0.0335  0.6428
15242SOL     OW51817   7.914   0.406   7.092 -0.0525  0.0583  0.3526
15242SOL    HW151818   7.952   0.480   7.045  0.0613  0.0712  0.4656
15242SOL    HW251819   7.855   0.365   7.029  1.4343 -0.9928 -0.4225
15243SOL     OW51820   7.115   6.039  10.670  0.2799 -0.0796 -0.8431
15243SOL    HW151821   7.072   6.039  10.584 -1.7288  1.1564  0.1171
15243SOL    HW251822   7.129   6.131  10.690 -0.7803 -0.2494  0.8648
15244SOL     OW51823   2.332   8.159   4.362 -0.1778 -0.3436 -0.1314
15244SOL    HW151824   2.397   8.170   4.432 -0.5181  0.2234  0.1037
15244SOL    HW251825   2.325   8.246   4.322 -1.4103 -0.1656  0.4019
15245SOL     OW51826   3.838   0.204   3.662 -0.2602  0.2855  0.4105
15245SOL    HW151827   3.818   0.166   3.576  1.0960  0.5220 -0.0290
15245SOL    HW251828   3.928   0.177   3.679 -0.4621  0.3782  1.6999
15246SOL     OW51829   0.516   9.893   4.383 -0.0828 -0.2191  0.3301
15246SOL    HW151830   0.520   9.798   4.385  2.0170 -0.1842  1.3496
15246SOL    HW251831   0.427   9.915   4.411  0.0407 -1.8810  2.2398
15247SOL     OW51832   9.364   0.731   0.993  0.3248  0.1651 -0.3681
15247SOL    HW151833   9.272   0.706   1.003 -0.4260  1.4779 -3.0387
15247SOL    HW251834   9.390   0.761   1.080 -1.1683 -1.8970  0.9123
15248SOL     OW51835   9.679   5.800   8.830  0.3700  0.3134 -0.1928
15248SOL    HW151836   9.768   5.764   8.829  0.4216  0.3567  1.2300
15248SOL    HW251837   9.635   5.757   8.757  1.7875  0.9248 -1.4585
15249SOL     OW51838   8.862   9.977   2.856 -0.0676  0.1704 -0.0798
15249SOL    HW151839   8.813   9.949   2.778  0.3251 -0.5662 -0.0661
15249SOL    HW251840   8.852  10.073   2.857 -0.8592  0.0992 -0.5057
15250SOL     OW51841   4.872   5.393   2.383  0.4954 -1.0061 -0.0031
15250SOL    HW151842   4.788   5.399   2.338  0.0929  0.3130  0.8593
15250SOL    HW251843   4.851   5.412   2.475  1.9046  0.7095  0.0244
15251SOL     OW51844   0.974   9.743   3.218 -0.5128  0.0957  0.0988
15251SOL    HW151845   1.007   9.831   3.232  2.4281 -1.0619  1.2791
15251SOL    HW251846   1.025   9.709   3.143 -0.1394 -1.2227  0.9116
15252SOL     OW51847   4.201   9.247   4.687 -0.3041 -0.0783 -0.1641
15252SOL    HW151848   4.233   9.331   4.721 -0.2783 -0.0816 -0.1803
15252SOL    HW251849   4.198   9.258   4.592 -1.7947  0.4413 -0.0862
15253SOL     OW51850   6.267   2.153   2.498 -0.1874 -0.4804 -0.1795
15253SOL    HW151851   6.339   2.180   2.555  0.3260 -0.8320 -0.6617
15253SOL    HW251852   6.194   2.135   2.558 -0.4968  1.7305  0.1979
15254SOL     OW51853   4.362   8.643   6.203  0.0591 -0.1249  0.4512
15254SOL    HW151854   4.423   8.683   6.266  0.2025 -0.6492  0.6548
15254SOL    HW251855   4.418   8.590   6.146 -0.0670  0.3777 -0.1462
15255SOL     OW51856   1.589   9.762   7.738 -0.1316  0.0526 -0.2244
15255SOL    HW151857   1.631   9.677   7.746 -1.2596 -0.5716 -0.6240
15255SOL    HW251858   1.495   9.743   7.745 -0.3633  1.4102  0.8591
15256SOL     OW51859   3.373   8.979   1.737  0.1594  0.1874  0.4527
15256SOL    HW151860   3.344   8.889   1.719 -1.8265  0.6651  1.0027
15256SOL    HW251861   3.365   9.023   1.652  0.6316 -0.0116  0.2993
15257SOL     OW51862   9.135   4.511   2.078  0.2187  0.4909  0.1936
15257SOL    HW151863   9.170   4.440   2.130  1.3470  0.8987  0.0183
15257SOL    HW251864   9.124   4.583   2.140  0.0830  0.4942  0.1663
15258SOL     OW51865   7.814   5.372   5.183 -0.1663 -0.3097 -0.4876
15258SOL    HW151866   7.725   5.407   5.183  0.7878  2.2923 -0.2424
15258SOL    HW251867   7.824   5.335   5.095 -1.0650  0.5441 -0.9778
15259SOL     OW51868   4.332   7.000   7.359 -0.0448  0.2372 -0.4861
15259SOL    HW151869   4.370   7.018   7.446 -1.1621  0.3389 -0.0087
15259SOL    HW251870   4.266   6.933   7.375  0.6409 -0.7120 -1.4829
15260SOL     OW51871   1.682   0.133  10.912  0.3622  0.1346  0.6667
15260SOL    HW151872   1.619   0.122  10.841  1.1274  0.2231 -0.0472
15260SOL    HW251873   1.716   0.221  10.900  1.0003 -0.1008  0.7238
15261SOL     OW51874   6.080   6.993   6.410 -0.2578 -0.2050  0.3196
15261SOL    HW151875   6.034   6.910   6.393 -0.6314 -0.0227  0.4307
15261SOL    HW251876   6.172   6.968   6.413  0.1146  0.0154 -3.7875
15262SOL     OW51877  10.306   2.771   5.345  0.5360 -0.0138  0.2282
15262SOL    HW151878  10.257   2.847   5.376 -0.2151 -1.2030  2.2122
15262SOL    HW251879  10.365   2.751   5.418  0.1950 -1.7230  0.0778
15263SOL     OW51880   6.677  10.453   7.067 -0.6108 -0.6783  0.3040
15263SOL    HW151881   6.738  10.383   7.088 -0.3448 -0.6036 -0.2168
15263SOL    HW251882   6.730  10.533   7.065 -0.9274 -0.4441  0.9827
15264SOL     OW51883   7.446  10.464   0.397  0.2167  0.7762  0.2575
15264SOL    HW151884   7.472  10.372   0.389  1.1622  0.9886  0.8139
15264SOL    HW251885   7.390  10.467   0.474 -0.0613  0.6201  0.0641
15265SOL     OW51886   2.752   3.112   2.776  0.2512  0.0248 -0.4193
15265SOL    HW151887   2.730   3.130   2.868 -0.5633 -0.8473 -0.4320
15265SOL    HW251888   2.728   3.191   2.729  1.4391  0.8018  0.2173
15266SOL     OW51889   7.757   1.091   3.925  0.3309  0.4885 -0.2370
15266SOL    HW151890   7.791   1.023   3.984  0.9463  1.5297  0.6399
15266SOL    HW251891   7.739   1.045   3.843  1.3880 -0.5932  0.1137
15267SOL     OW51892   5.687   3.482   9.300 -0.0383 -0.0046 -0.5755
15267SOL    HW151893   5.612   3.534   9.329 -0.3217  0.5929 -2.2500
15267SOL    HW251894   5.670   3.394   9.333  0.7521  0.9912  2.8515
15268SOL     OW51895   3.020   6.429   8.906  0.4633 -0.0011  0.1114
15268SOL    HW151896   2.976   6.514   8.915 -0.6630 -0.7359  2.0308
15268SOL    HW251897   3.111   6.447   8.930  0.1880  0.6333  0.7280
15269SOL     OW51898   4.643   3.949   0.384 -0.3472 -0.6109 -0.1938
15269SOL    HW151899   4.631   3.941   0.479  0.7308 -2.8824 -0.1881
15269SOL    HW251900   4.563   3.913   0.346  0.1627 -1.8760 -0.1184
15270SOL     OW51901   4.588   7.541   5.939 -0.0966  0.0365  0.2303
15270SOL    HW151902   4.609   7.500   5.855  0.5023 -0.2909  0.5315
15270SOL    HW251903   4.512   7.492   5.971  0.5186 -0.7615  0.5146
15271SOL     OW51904   3.926   7.549   8.181  0.5735 -0.0047  0.3537
15271SOL    HW151905   4.007   7.556   8.130  1.4119 -2.4116  1.2230
15271SOL    HW251906   3.860   7.591   8.127  1.9212 -0.1823 -1.5226
15272SOL     OW51907   1.580   6.786   3.524  0.3534  0.4263  0.3424
15272SOL    HW151908   1.519   6.716   3.499 -0.6156  0.6245  2.0466
15272SOL    HW251909   1.618   6.815   3.441 -0.7039 -0.7575 -0.5971
15273SOL     OW51910   3.327   8.558   9.296  0.1855 -0.4793 -0.4804
15273SOL    HW151911   3.359   8.597   9.214 -1.2876 -0.6037 -1.1480
15273SOL    HW251912   3.330   8.629   9.359 -1.2242  0.3985 -1.3471
15274SOL     OW51913   7.443   8.018   0.388  0.1085  0.8254  0.7179
15274SOL    HW151914   7.445   8.067   0.306 -0.5131  1.3538  1.0144
15274SOL    HW251915   7.408   8.080   0.452 -1.5132 -0.2472  0.9294
15275SOL     OW51916   8.968   0.352   6.877  0.6318  0.6406 -0.6500
15275SOL    HW151917   9.045   0.409   6.869  1.0631  0.0705 -0.6003
15275SOL    HW251918   8.990   0.274   6.827  0.7920 -0.2665  0.7651
15276SOL     OW51919   8.581   6.706   4.233 -0.3827 -0.0971  0.3087
15276SOL    HW151920   8.599   6.704   4.139 -0.7187  1.0949  0.2024
15276SOL    HW251921   8.611   6.792   4.262 -2.8351  0.7117  0.7197
15277SOL     OW51922   9.082   8.651   0.675 -0.0333  0.1656  0.7358
15277SOL    HW151923   9.055   8.606   0.595 -0.2071 -0.6738  1.2549
15277SOL    HW251924   9.117   8.735   0.644  1.2378 -0.7113 -0.3660
15278SOL     OW51925   9.283   3.220   7.621  0.0813 -1.2195  0.0081
15278SOL    HW151926   9.272   3.295   7.562 -1.2271  0.1292  1.8666
15278SOL    HW251927   9.216   3.158   7.592  0.1581 -1.0379 -0.5809
15279SOL     OW51928   1.505   9.220   0.345  0.2008  0.1099  0.3154
15279SOL    HW151929   1.442   9.151   0.366  1.1572 -1.8200 -2.4887
15279SOL    HW251930   1.531   9.256   0.430 -2.1644 -1.2627  1.7402
15280SOL     OW51931   3.369  10.237  10.765 -0.2011  0.4413  0.2721
15280SOL    HW151932   3.371  10.186  10.846  2.1289  0.5544  0.3495
15280SOL    HW251933   3.333  10.322  10.792  0.8420  0.5898  1.2827
15281SOL     OW51934   0.951   8.154   3.923 -0.2114  0.1992  0.0735
15281SOL    HW151935   1.032   8.148   3.873  0.5777 -1.5032  1.4317
15281SOL    HW251936   0.909   8.233   3.891  2.1400  1.3274 -0.4638
15282SOL     OW51937   0.001   6.617   6.556 -0.6753 -0.1639 -0.1913
15282SOL    HW151938   0.059   6.670   6.611 -0.2779  0.8576 -1.5127
15282SOL    HW251939  -0.070   6.677   6.532 -1.7058 -1.0851  0.5301
15283SOL     OW51940   6.537   0.520   9.431 -0.4622  0.0354 -0.0838
15283SOL    HW151941   6.513   0.452   9.369 -0.3782 -0.7917  0.7737
15283SOL    HW251942   6.476   0.592   9.413 -1.4684 -0.7984 -0.0753
15284SOL     OW51943   5.636   9.461   1.342 -0.2238  0.8082  0.4011
15284SOL    HW151944   5.596   9.491   1.424  0.6282 -0.2728  1.2512
15284SOL    HW251945   5.728   9.445   1.364 -0.7460 -3.4572  0.4523
15285SOL     OW51946   0.672   0.785   1.984 -0.2254 -0.0302 -0.4768
15285SOL    HW151947   0.683   0.818   2.074  0.6276  1.5406 -1.1150
15285SOL    HW251948   0.746   0.726   1.971 -0.4290 -0.3710 -0.0967
15286SOL     OW51949   6.338   4.980   5.045 -0.4837  0.1128  0.3141
15286SOL    HW151950   6.296   5.017   4.967 -0.3089 -0.0085  0.1624
15286SOL    HW251951   6.270   4.984   5.113  0.0786  2.4412  0.8228
15287SOL     OW51952   6.315   2.336   7.228  0.5676  0.1275  0.3764
15287SOL    HW151953   6.401   2.368   7.198  0.1033  0.3862 -0.7326
15287SOL    HW251954   6.327   2.241   7.238  1.5200  0.4020  2.1655
15288SOL     OW51955   4.232   1.202   2.187  0.0802  0.4361 -0.7480
15288SOL    HW151956   4.137   1.197   2.182  0.0591 -1.9219  0.4978
15288SOL    HW251957   4.249   1.267   2.256 -0.5713  1.2179 -1.2999
15289SOL     OW51958   6.381   7.826   6.060 -0.2293 -0.2620 -0.2698
15289SOL    HW151959   6.368   7.883   5.984  1.8036 -1.2491 -1.4466
15289SOL    HW251960   6.313   7.759   6.051 -0.9288  0.4483 -0.3743
15290SOL     OW51961   2.035   0.938   8.750 -0.2663  0.1308 -0.3182
15290SOL    HW151962   1.951   0.982   8.765  1.0704  2.9337 -0.4581
15290SOL    HW251963   2.056   0.898   8.834 -0.7951  1.1754  0.3356
15291SOL     OW51964  10.142   0.386   3.501 -0.4706 -0.0383  0.5011
15291SOL    HW151965  10.050   0.409   3.504 -0.8585 -1.5662  1.1953
15291SOL    HW251966  10.143   0.293   3.476  0.9553  0.4213 -1.4217
15292SOL     OW51967   7.470   5.965   7.632  0.2589  0.1756  0.4597
15292SOL    HW151968   7.406   5.975   7.701  0.3479  1.0262  0.4246
15292SOL    HW251969   7.555   5.963   7.677  0.2868  0.2639  0.4119
15293SOL     OW51970   9.632   4.393   9.065 -0.0903  0.1367 -0.1771
15293SOL    HW151971   9.578   4.345   9.002 -0.6166 -1.3703  1.3255
15293SOL    HW251972   9.649   4.329   9.135  2.1555  1.1208  0.2585
15294SOL     OW51973   8.493   9.734  10.844 -0.6542 -0.8083 -0.4092
15294SOL    HW151974   8.477   9.828  10.852  0.6856 -0.5059 -1.0050
15294SOL    HW251975   8.552   9.713  10.916  0.3118 -0.8635 -1.1972
15295SOL     OW51976   7.618   8.534  10.879 -0.0638 -0.1342  0.2635
15295SOL    HW151977   7.636   8.452  10.834  0.9766 -1.0645  2.2597
15295SOL    HW251978   7.572   8.587  10.815  1.6944 -1.2048 -2.0073
15296SOL     OW51979   6.160   8.466   9.205 -0.2286  0.3112 -0.7912
15296SOL    HW151980   6.119   8.538   9.253  0.0462 -1.5227  2.4606
15296SOL    HW251981   6.087   8.426   9.157 -0.9944  0.8687 -0.1277
15297SOL     OW51982   0.085   2.039  10.137  0.0748  0.4707 -0.3542
15297SOL    HW151983   0.083   1.992  10.220 -0.9194  3.1755  1.3016
15297SOL    HW251984   0.053   1.976  10.073  0.2863 -1.5282  1.3904
15298SOL     OW51985   2.676   5.363   8.928  0.5382  0.0623  0.4643
15298SOL    HW151986   2.633   5.406   8.854 -0.5609  0.1597  1.1321
15298SOL    HW251987   2.691   5.433   8.991 -0.6335 -0.3786  1.2712
15299SOL     OW51988   0.286   9.596   4.255  0.3259  0.1352 -0.1701
15299SOL    HW151989   0.370   9.639   4.270  0.2708  0.5622 -1.0566
15299SOL    HW251990   0.298   9.507   4.290  0.7546  0.5502  0.7681
15300SOL     OW51991  10.387   1.024  10.149  0.0842 -0.1161  0.0879
15300SOL    HW151992  10.350   0.953  10.202 -1.7923 -1.3728 -2.7022
15300SOL    HW251993  10.313   1.081  10.131  0.8446  0.6788 -0.5669
15301SOL     OW51994  10.211  10.515   4.486  0.0405  0.4749  0.6391
15301SOL    HW151995  10.175  10.452   4.424 -1.1008  0.3324  1.4179
15301SOL    HW251996  10.195  10.600   4.445  0.0314  0.3364  0.3552
15302SOL     OW51997   5.219   3.844   2.854  0.0822  0.0542 -0.0439
15302SOL    HW151998   5.297   3.900   2.850 -0.4918  0.8717 -0.1778
15302SOL    HW251999   5.251   3.760   2.885  1.0704  0.2841 -0.4108
15303SOL     OW52000   2.850   2.021   7.914 -0.3705 -0.2783  0.1237
15303SOL    HW152001   2.882   1.935   7.889  0.0354  0.1967 -1.0778
15303SOL    HW252002   2.763   2.005   7.952  0.3275 -1.3501  1.3437
15304SOL     OW52003   5.732   5.742   3.976 -0.4005 -0.8300 -0.2767
15304SOL    HW152004   5.691   5.752   3.890 -0.2068 -1.5332 -0.4528
15304SOL    HW252005   5.765   5.652   3.977  2.5958  0.1385 -0.8092
15305SOL     OW52006  10.653   1.421   4.362  0.6487 -0.1186  0.3999
15305SOL    HW152007  10.588   1.392   4.299 -0.0407  0.0889  0.9993
15305SOL    HW252008  10.643   1.516   4.364  2.3353  0.1382 -0.9538
15306SOL     OW52009   2.756   6.950   6.554 -0.1093  0.4184  0.6162
15306SOL    HW152010   2.842   6.961   6.512 -0.6048 -0.4953 -0.7187
15306SOL    HW252011   2.721   7.039   6.559  0.7756  0.7661  0.8680
15307SOL     OW52012   5.804   9.625   7.711 -0.0341  0.2242 -0.4389
15307SOL    HW152013   5.881   9.568   7.721  0.7157  1.3807  0.7793
15307SOL    HW252014   5.730   9.570   7.739  0.2410 -1.0258 -1.9842
15308SOL     OW52015  10.539   7.167   4.607 -0.0542 -0.1424 -0.1543
15308SOL    HW152016  10.459   7.220   4.603  0.4076  0.5531 -0.4494
15308SOL    HW252017  10.587   7.191   4.528  0.7247 -0.0915  0.3247
15309SOL     OW52018   0.700   8.024   3.365 -0.0480  0.1321 -1.0394
15309SOL    HW152019   0.609   8.029   3.335 -0.2923 -1.8071 -0.7489
15309SOL    HW252020   0.703   8.081   3.442 -1.0649  0.1132 -0.9712
15310SOL     OW52021   2.882   7.484   7.533  0.4750 -0.3664  0.0844
15310SOL    HW152022   2.872   7.426   7.458  1.0536  0.3313 -0.5364
15310SOL    HW252023   2.951   7.545   7.508 -0.7821  1.2225  0.3168
15311SOL     OW52024   9.039   7.960  10.576 -0.0423  0.0760 -0.2492
15311SOL    HW152025   8.999   7.876  10.553  0.3078 -0.9730  2.5127
15311SOL    HW252026   8.971   8.006  10.626  0.1278  0.9830 -0.8368
15312SOL     OW52027   5.348  10.161   6.785  0.3023  0.4348 -0.6138
15312SOL    HW152028   5.408  10.226   6.747  0.2535  1.2061  0.5580
15312SOL    HW252029   5.278  10.152   6.720  1.3085  0.0440 -1.6894
15313SOL     OW52030   4.563  10.493   6.197  0.2108  0.1493 -0.3524
15313SOL    HW152031   4.559  10.447   6.281  0.5039 -0.6241 -0.7561
15313SOL    HW252032   4.637  10.453   6.151  0.3732  0.9183 -0.7795
15314SOL     OW52033  10.250   6.765   0.043 -0.2347 -0.5563 -0.4175
15314SOL    HW152034  10.187   6.804  -0.017  0.6396  0.5610 -0.6325
15314SOL    HW252035  10.330   6.753  -0.009  0.8052  1.1867  0.6766
15315SOL     OW52036  10.131   3.175   1.565  0.0788 -0.7397  0.6476
15315SOL    HW152037  10.104   3.267   1.576  1.7265 -0.1970  0.4049
15315SOL    HW252038  10.207   3.165   1.623  0.0142 -1.9173  0.5507
15316SOL     OW52039   0.259   7.192   9.079  0.1323 -0.9838 -0.9989
15316SOL    HW152040   0.349   7.222   9.096 -0.6538  1.0081  0.0240
15316SOL    HW252041   0.228   7.251   9.010 -0.7322 -0.9569 -0.5919
15317SOL     OW52042   7.113  10.537   5.974  0.9778 -0.4219 -0.3631
15317SOL    HW152043   7.156  10.572   5.896  2.4797  1.0045  1.0233
15317SOL    HW252044   7.139  10.445   5.977 -0.2624 -0.8903 -2.2561
15318SOL     OW52045   9.502   3.798   8.586  0.2089  0.3043 -0.2318
15318SOL    HW152046   9.548   3.792   8.669  0.6574 -0.0082 -0.4989
15318SOL    HW252047   9.543   3.872   8.541  0.8269 -0.2912 -0.6858
15319SOL     OW52048   1.613   8.415   6.467  0.3615 -0.0211 -0.2589
15319SOL    HW152049   1.579   8.328   6.448 -0.3985  0.1946  0.0871
15319SOL    HW252050   1.708   8.404   6.470  0.2457 -0.9326  0.2874
15320SOL     OW52051   5.141   7.252   4.334  0.3845 -0.7159  0.1941
15320SOL    HW152052   5.166   7.321   4.272  1.1077 -2.7404 -1.9182
15320SOL    HW252053   5.221   7.231   4.382 -0.0846  0.5773  1.6241
15321SOL     OW52054   4.791   8.015  10.358 -0.8518  0.5850 -0.0497
15321SOL    HW152055   4.834   8.078  10.415 -1.5108  0.1117  1.0016
15321SOL    HW252056   4.742   7.958  10.417  0.1020 -1.2255 -0.9296
15322SOL     OW52057   8.045   4.543   9.135  0.0873  0.1919 -0.1778
15322SOL    HW152058   8.103   4.603   9.181  1.1262 -1.8093  1.2944
15322SOL    HW252059   7.980   4.518   9.201  0.3851 -1.1647 -0.3730
15323SOL     OW52060   7.656   2.013   8.267 -0.1362 -0.5792 -0.3657
15323SOL    HW152061   7.709   2.065   8.206 -1.3619 -3.6611 -4.5665
15323SOL    HW252062   7.580   2.068   8.285  0.6378  0.7592 -1.0287
15324SOL     OW52063  10.391   0.372   0.439  0.5366  0.2029  0.4570
15324SOL    HW152064  10.303   0.348   0.469  0.4289  0.4361  0.3386
15324SOL    HW252065  10.378   0.401   0.349  0.6787  0.5630  0.5477
15325SOL     OW52066   9.118   3.376   4.700 -0.0708  0.5107  0.1314
15325SOL    HW152067   9.132   3.436   4.774  1.6589 -0.1355  0.3848
15325SOL    HW252068   9.106   3.433   4.624  0.0743  1.1749  0.6000
15326SOL     OW52069   4.046   9.583   2.437 -0.2936 -0.1848 -0.3243
15326SOL    HW152070   4.027   9.644   2.509 -0.1911  0.2300 -0.6414
15326SOL    HW252071   4.105   9.632   2.380 -0.7004 -0.3638 -0.9035
15327SOL     OW52072   4.011   4.891   9.899 -0.3628  0.2523  0.3079
15327SOL    HW152073   3.956   4.828   9.944  0.6214 -0.1464  0.9785
15327SOL    HW252074   3.998   4.872   9.806  0.0727 -1.0980  0.4985
15328SOL     OW52075   6.106   7.080   7.717 -0.2381  0.2368  0.1727
15328SOL    HW152076   6.159   7.158   7.702  1.4214 -1.1120 -1.4642
15328SOL    HW252077   6.018   7.114   7.735  0.5603  2.4723  0.1802
15329SOL     OW52078   2.406   5.024   8.910  0.1731 -0.6738 -0.1028
15329SOL    HW152079   2.401   4.934   8.943 -1.0640 -0.5698  0.0547
15329SOL    HW252080   2.472   5.021   8.841  0.2943 -1.6616  0.0406
15330SOL     OW52081   9.475   1.618   3.679 -0.1674  0.1155 -0.5808
15330SOL    HW152082   9.476   1.574   3.594  1.0850  0.1077 -0.5858
15330SOL    HW252083   9.516   1.703   3.663 -0.1261  0.2022 -0.0302
15331SOL     OW52084   6.539   3.973   2.714  0.5328 -0.0035  0.6790
15331SOL    HW152085   6.511   4.054   2.756  0.4742  0.1715  0.3097
15331SOL    HW252086   6.457   3.930   2.688  0.5790  0.0838  0.3863
15332SOL     OW52087   9.876   7.151   9.550  0.3230  0.1351 -0.4424
15332SOL    HW152088   9.907   7.240   9.535  0.9479 -0.3396 -2.2731
15332SOL    HW252089   9.788   7.150   9.513  0.0954  0.1266  0.0880
15333SOL     OW52090   2.506  10.837   9.382  0.1037 -0.0886 -0.0114
15333SOL    HW152091   2.505  10.912   9.322  0.9754 -0.4659 -0.5087
15333SOL    HW252092   2.595  10.837   9.418 -0.6820  0.7817  2.1348
15334SOL     OW52093   1.848   1.697   1.212 -0.0849  0.5450  0.5067
15334SOL    HW152094   1.818   1.765   1.272  0.9144  0.7949  0.7398
15334SOL    HW252095   1.870   1.745   1.132  2.5404  0.8440  1.3130
15335SOL     OW52096   4.605   1.310   4.094  1.0618  0.3975 -0.0346
15335SOL    HW152097   4.600   1.269   4.180  0.8930 -0.7052 -0.5596
15335SOL    HW252098   4.555   1.391   4.104  1.3017  0.4359  0.9845
15336SOL     OW52099   5.565   1.547   8.871 -0.2874  0.1646  0.0063
15336SOL    HW152100   5.500   1.485   8.904 -1.1139  0.5173 -0.8900
15336SOL    HW252101   5.609   1.500   8.800 -1.4090  0.8008 -1.1603
15337SOL     OW52102   2.138   7.875   1.079  0.1977  0.1902  0.2521
15337SOL    HW152103   2.059   7.845   1.124  0.4540  0.3785  0.8455
15337SOL    HW252104   2.208   7.822   1.116  0.4870  0.7088  0.4727
15338SOL     OW52105   0.576   4.420   9.326  0.4814  0.2084  0.4505
15338SOL    HW152106   0.550   4.335   9.362 -0.9806  1.2597  2.0456
15338SOL    HW252107   0.516   4.435   9.253  0.5162  0.0340  0.3850
15339SOL     OW52108   8.280   5.797  10.503  0.0098 -0.1886 -0.0615
15339SOL    HW152109   8.368   5.831  10.517  0.7468 -1.7597 -0.6476
15339SOL    HW252110   8.266   5.737  10.576 -0.8015  0.4501  0.3201
15340SOL     OW52111   3.851   6.392   5.166  0.4929  0.2805  0.2976
15340SOL    HW152112   3.772   6.445   5.158  0.8522  0.4745 -3.0339
15340SOL    HW252113   3.914   6.449   5.211 -0.1230  1.5100 -0.3495
15341SOL     OW52114   6.347   4.366   8.020 -0.1025  0.9508 -0.0481
15341SOL    HW152115   6.312   4.449   8.053  0.2501  1.1593 -0.1872
15341SOL    HW252116   6.275   4.329   7.969 -0.9296  0.2355  1.5755
15342SOL     OW52117   0.620   2.477   6.046  0.1951  0.0450 -0.2586
15342SOL    HW152118   0.685   2.503   5.980  1.0191 -1.3092 -0.0256
15342SOL    HW252119   0.632   2.538   6.118 -0.8118  1.6435 -1.3805
15343SOL     OW52120   3.624   5.209  10.303  0.4713 -0.1620  0.3794
15343SOL    HW152121   3.542   5.220  10.256  0.1358 -0.7861  0.8086
15343SOL    HW252122   3.674   5.146  10.250 -0.2423 -1.5086  1.2570
15344SOL     OW52123   8.736   3.475   7.402 -0.2350  0.7626 -0.3925
15344SOL    HW152124   8.783   3.392   7.397  1.1446  1.5601 -1.4560
15344SOL    HW252125   8.678   3.465   7.477  1.1793 -0.5247  0.5999
15345SOL     OW52126   7.112   6.762   4.749  0.1995 -0.3039  0.3355
15345SOL    HW152127   7.029   6.783   4.791 -0.8037 -0.8219 -1.2973
15345SOL    HW252128   7.144   6.685   4.796 -1.5005 -1.6246 -0.5482
15346SOL     OW52129   4.660   3.873   8.443  0.2850  0.2399 -0.3324
15346SOL    HW152130   4.576   3.826   8.444  1.0072 -1.1175  0.9679
15346SOL    HW252131   4.716   3.821   8.501  1.1796  2.6929  1.1279
15347SOL     OW52132   7.119   3.691   3.117  0.8196  0.2270  0.1461
15347SOL    HW152133   7.168   3.643   3.183  1.0293 -1.3194 -1.0543
15347SOL    HW252134   7.037   3.716   3.160  0.7887 -1.0834  0.8999
15348SOL     OW52135   1.240   0.385   3.861  0.0128 -0.1644 -0.7468
15348SOL    HW152136   1.308   0.341   3.810 -0.4915 -1.1665 -0.5787
15348SOL    HW252137   1.280   0.395   3.948 -0.6675 -2.4371 -0.1062
15349SOL     OW52138   3.435   5.746  10.021 -0.2148  0.3681  0.5905
15349SOL    HW152139   3.467   5.724   9.934 -0.4551  2.4496 -0.0686
15349SOL    HW252140   3.507   5.723  10.080  1.0432  1.4767 -0.4685
15350SOL     OW52141   3.666   3.201   6.290 -0.3220  0.6991 -0.6411
15350SOL    HW152142   3.627   3.193   6.203 -1.8758 -0.1300  0.0912
15350SOL    HW252143   3.656   3.114   6.329  2.8035  0.2638 -0.5722
15351SOL     OW52144   1.378   7.223   5.654  0.0046  0.6327 -1.2870
15351SOL    HW152145   1.383   7.246   5.747 -1.2352  1.4909 -1.4083
15351SOL    HW252146   1.287   7.199   5.640 -0.1260  1.7169 -2.5280
15352SOL     OW52147   4.786   7.506   3.637  0.6506 -0.0759  0.6387
15352SOL    HW152148   4.873   7.486   3.604  0.4971  1.7299 -1.0458
15352SOL    HW252149   4.757   7.581   3.585 -2.9194 -2.0746 -0.6119
15353SOL     OW52150   8.928   8.045  10.923  0.1645  0.1477 -0.3049
15353SOL    HW152151   8.868   8.037  10.849  0.6235 -1.5920 -0.5228
15353SOL    HW252152   8.872   8.032  11.000 -0.1643  1.1183 -0.3646
15354SOL     OW52153   2.817   2.203   5.381  0.1678  0.1937 -0.2518
15354SOL    HW152154   2.811   2.162   5.468 -2.8393  1.2655  0.1499
15354SOL    HW252155   2.911   2.198   5.360  0.7452 -1.8314  2.1662
15355SOL     OW52156   2.053   3.582   3.546  0.4639 -0.5035  0.3209
15355SOL    HW152157   2.001   3.652   3.583  1.1085 -0.3696  1.0098
15355SOL    HW252158   2.006   3.502   3.568  0.8892 -0.4356  1.5708
15356SOL     OW52159  10.098   9.328   8.565 -0.6693  0.7872 -0.9634
15356SOL    HW152160  10.048   9.307   8.486 -0.2624  0.6744 -1.1974
15356SOL    HW252161  10.158   9.397   8.538  0.1473  0.0766 -1.0185
15357SOL     OW52162   6.571   2.380   8.185  0.6425 -0.2687  0.3380
15357SOL    HW152163   6.499   2.394   8.124  0.6519  0.2357  0.4332
15357SOL    HW252164   6.568   2.287   8.205  1.3459 -0.6748 -1.3086
15358SOL     OW52165  10.017   0.288   4.315 -0.3033  0.6479  0.4962
15358SOL    HW152166  10.067   0.307   4.235 -1.3488 -0.7014 -0.5433
15358SOL    HW252167   9.926   0.307   4.290 -0.3813  3.0822  2.3408
15359SOL     OW52168   6.789   6.529   9.879 -0.2508 -0.3331 -0.3339
15359SOL    HW152169   6.866   6.547   9.934  0.0436 -3.0415  0.2637
15359SOL    HW252170   6.740   6.611   9.879  2.5048  1.4594 -0.5849
15360SOL     OW52171   6.495   7.326   6.230 -0.1187  0.2776 -0.4417
15360SOL    HW152172   6.541   7.387   6.172 -0.0581  1.6446  0.9559
15360SOL    HW252173   6.531   7.346   6.317 -2.1166  0.1966  0.4540
15361SOL     OW52174   3.381   9.472   6.647 -0.0591 -0.2383  0.5078
15361SOL    HW152175   3.305   9.442   6.598 -2.2129  2.5503  1.8349
15361SOL    HW252176   3.446   9.496   6.581 -0.3399 -2.4432 -0.6531
15362SOL     OW52177  10.174   9.921   6.270 -0.0562 -0.4733  0.3593
15362SOL    HW152178  10.245   9.941   6.209 -1.2696  0.1414 -0.9121
15362SOL    HW252179  10.122   9.854   6.226 -0.9439 -0.0292  0.7020
15363SOL     OW52180   9.638   9.982   7.065  0.1573 -0.0849  0.3681
15363SOL    HW152181   9.717  10.028   7.037 -0.3059  0.0079 -0.8748
15363SOL    HW252182   9.571  10.009   7.002  0.0779 -3.1468 -1.0228
15364SOL     OW52183   5.926  10.155   6.721  0.2169 -0.2733 -0.0699
15364SOL    HW152184   5.969  10.184   6.640 -0.6693  0.7449 -0.1998
15364SOL    HW252185   5.839  10.124   6.692  0.4080 -1.2147  0.3285
15365SOL     OW52186   1.036  10.009   2.230 -0.5221 -0.1241  0.8612
15365SOL    HW152187   0.953  10.055   2.239 -1.4090 -1.4730 -0.0330
15365SOL    HW252188   1.032   9.967   2.144  0.5386 -1.2416  1.3155
15366SOL     OW52189   1.931   0.872  10.359  0.1101  0.0870 -0.4110
15366SOL    HW152190   1.964   0.822  10.434  0.6518  1.0936  0.0296
15366SOL    HW252191   1.849   0.827  10.335 -0.1922 -0.1131  0.9125
15367SOL     OW52192   6.567   3.214   9.503  0.5228  1.0394  0.1234
15367SOL    HW152193   6.481   3.213   9.460  0.8144  0.4660 -0.4786
15367SOL    HW252194   6.608   3.296   9.474  0.7064  0.6714 -0.7107
15368SOL     OW52195   8.377  10.233   6.305  0.5946 -0.5422  0.3262
15368SOL    HW152196   8.443  10.277   6.358 -0.4271  0.3341  0.9215
15368SOL    HW252197   8.374  10.284   6.224  0.4280 -0.3715  0.4366
15369SOL     OW52198   6.335   9.491   2.464  0.7357  0.1810 -0.1354
15369SOL    HW152199   6.298   9.539   2.391  0.9674 -0.6971 -0.8423
15369SOL    HW252200   6.426   9.522   2.470  0.5234  0.7594  0.2393
15370SOL     OW52201   6.092   2.524   2.401  0.1849  0.1694  0.0118
15370SOL    HW152202   6.078   2.483   2.316  0.0853 -1.6169  0.8193
15370SOL    HW252203   6.015   2.499   2.452  0.8241  0.1409  0.9953
15371SOL     OW52204   9.202   0.402   5.769 -0.0967  0.0766 -0.2461
15371SOL    HW152205   9.124   0.348   5.778  1.5023 -2.1495  1.8757
15371SOL    HW252206   9.210   0.447   5.853  0.3828  1.0608 -0.8017
15372SOL     OW52207   5.659  10.321   8.324  0.5266  0.1920  0.5369
15372SOL    HW152208   5.675  10.381   8.396  0.6616 -0.4670  1.0739
15372SOL    HW252209   5.664  10.375   8.245 -1.5150  1.2916  1.1132
15373SOL     OW52210   9.971   0.777   6.940 -0.0124 -0.1361 -0.4269
15373SOL    HW152211  10.056   0.776   6.895 -0.2701  0.4362 -0.9530
15373SOL    HW252212   9.922   0.706   6.900  0.2363 -0.5003 -0.0860
15374SOL     OW52213   4.244   3.986   3.845  0.5337 -0.2844  0.9276
15374SOL    HW152214   4.278   3.926   3.778 -0.6551  0.3228 -0.2680
15374SOL    HW252215   4.278   4.072   3.819  1.4973 -0.2750  2.1283
15375SOL     OW52216   3.485   9.649   4.482 -0.0174 -0.5005 -0.0684
15375SOL    HW152217   3.499   9.692   4.566  2.1543 -0.6807 -0.2765
15375SOL    HW252218   3.426   9.577   4.501 -0.9626  0.5084  0.9392
15376SOL     OW52219   3.047   1.306   0.064  0.3206  0.5062 -0.5579
15376SOL    HW152220   3.118   1.370   0.071  1.7815 -0.9974 -1.0548
15376SOL    HW252221   2.998   1.333  -0.014 -0.0365  1.8928  0.1173
15377SOL     OW52222   1.085   0.133   1.679  0.5207 -0.0327  0.2991
15377SOL    HW152223   1.169   0.106   1.715  0.6025 -0.8542 -0.4697
15377SOL    HW252224   1.106   0.173   1.594  0.3694  2.2426  1.2712
15378SOL     OW52225  10.534   3.128   4.634 -0.2615  0.4163  0.2206
15378SOL    HW152226  10.464   3.103   4.694  0.3723 -0.3630  0.6567
15378SOL    HW252227  10.489   3.159   4.556 -1.0981 -0.6865  0.2417
15379SOL     OW52228  10.874   4.650  10.864 -0.4256  0.5107  0.2020
15379SOL    HW152229  10.866   4.625  10.956  0.4850 -0.0436  0.1458
15379SOL    HW252230  10.963   4.686  10.857  0.2148 -1.1409 -0.8241
15380SOL     OW52231   6.001  10.559   7.367 -0.3415 -0.4169 -0.4212
15380SOL    HW152232   6.094  10.578   7.380 -0.1936 -1.4438  0.1458
15380SOL    HW252233   5.986  10.579   7.274  0.9578 -2.1098 -1.0706
15381SOL     OW52234   8.653  10.585   3.117 -0.8017 -0.3064 -0.3912
15381SOL    HW152235   8.727  10.550   3.166 -0.4155  0.4416 -0.4098
15381SOL    HW252236   8.620  10.657   3.171 -0.5248  0.3686 -1.0999
15382SOL     OW52237   8.565   8.210   1.985 -0.6775 -0.6162 -0.0217
15382SOL    HW152238   8.655   8.206   1.954  0.4985  2.7735  2.3061
15382SOL    HW252239   8.571   8.197   2.079 -2.4334  0.6599  0.3250
15383SOL     OW52240   5.772   5.236   8.373  0.3761  0.0366  0.1464
15383SOL    HW152241   5.743   5.160   8.424  0.3994 -1.3648 -1.7928
15383SOL    HW252242   5.720   5.232   8.292  0.8803  1.6979 -0.2967
15384SOL     OW52243   0.733   0.368   2.771  0.1238  0.0923 -0.0400
15384SOL    HW152244   0.727   0.412   2.686  0.0019  0.2368  0.0434
15384SOL    HW252245   0.827   0.365   2.790  0.0863  1.0025  0.3122
15385SOL     OW52246  10.925   8.185   8.814  0.0959 -0.1887 -0.1015
15385SOL    HW152247  10.911   8.254   8.751  1.5419  0.3345  0.1199
15385SOL    HW252248  10.838   8.147   8.828 -0.9614  2.2640  0.5801
15386SOL     OW52249  10.540   0.377   1.909 -0.0468  0.2524 -0.2725
15386SOL    HW152250  10.576   0.290   1.891  1.0878 -0.5088  4.3205
15386SOL    HW252251  10.464   0.360   1.964 -0.1168  2.1358  0.2603
15387SOL     OW52252   4.309   3.057   3.294 -0.1078 -0.3008  0.3903
15387SOL    HW152253   4.351   3.116   3.232 -0.0705 -0.7007  0.0287
15387SOL    HW252254   4.354   3.074   3.377 -1.2422  1.3730  0.6941
15388SOL     OW52255   7.541   6.340   6.785 -0.3623 -0.1791 -0.0074
15388SOL    HW152256   7.561   6.267   6.845 -2.2420 -1.2741 -0.6174
15388SOL    HW252257   7.519   6.413   6.843  0.3930 -0.4346  0.6218
15389SOL     OW52258   5.576   5.125   0.155 -0.2269  0.2946  0.2365
15389SOL    HW152259   5.503   5.102   0.097 -1.3261 -0.5527  1.8770
15389SOL    HW252260   5.601   5.214   0.129 -1.7468  0.5331 -0.4814
15390SOL     OW52261   7.971  10.287   9.745 -0.0330  0.3597 -0.7505
15390SOL    HW152262   7.950  10.207   9.793  2.2835 -0.1949 -0.5226
15390SOL    HW252263   7.891  10.309   9.698 -0.6431 -2.3298 -1.1359
15391SOL     OW52264   6.287   8.873   5.610  0.0910 -0.1953  0.6557
15391SOL    HW152265   6.379   8.860   5.588  0.2571  1.1288  0.5178
15391SOL    HW252266   6.288   8.934   5.684 -0.6591 -0.6830  1.0839
15392SOL     OW52267   6.455   7.976   6.583  0.5890  0.4711  0.3511
15392SOL    HW152268   6.433   8.040   6.651  0.0437  0.2862  0.3541
15392SOL    HW252269   6.526   8.017   6.534 -0.2077  1.3927 -0.0812
15393SOL     OW52270   7.937   9.233  10.382  0.2200  0.0441 -0.4020
15393SOL    HW152271   7.971   9.188  10.305 -2.3142 -0.9579 -1.0360
15393SOL    HW252272   7.893   9.310  10.348  0.1827  0.2853  0.1748
15394SOL     OW52273   8.060   2.842   2.512 -0.3379  0.4466 -0.3108
15394SOL    HW152274   8.151   2.815   2.502 -0.1467  1.4760 -1.5113
15394SOL    HW252275   8.048   2.849   2.607  0.1818 -1.7729 -0.0275
15395SOL     OW52276   9.168  10.487   1.280 -0.1067 -0.4964 -0.0082
15395SOL    HW152277   9.244  10.431   1.264 -0.7705 -1.1493 -1.0053
15395SOL    HW252278   9.178  10.517   1.370  0.2350 -2.2900  0.5789
15396SOL     OW52279   7.721   0.104   6.205 -0.3339 -0.4151 -0.1110
15396SOL    HW152280   7.690   0.014   6.217  0.8442 -0.7728  0.4494
15396SOL    HW252281   7.646   0.151   6.169 -0.7705 -1.7687 -1.0469
15397SOL     OW52282   5.575   3.105   9.704  0.4578  0.3584 -0.4931
15397SOL    HW152283   5.629   3.172   9.661  0.8891  0.2270 -0.1651
15397SOL    HW252284   5.485   3.135   9.692  0.6559  1.0772 -0.2065
15398SOL     OW52285   5.092   8.187   1.657 -0.1367  0.4818 -0.2620
15398SOL    HW152286   5.074   8.108   1.707  2.1979 -1.2749 -1.9997
15398SOL    HW252287   5.093   8.257   1.722 -1.9167 -0.9060  1.3764
15399SOL     OW52288  10.443   1.876   6.896 -0.0649 -0.5319  0.0552
15399SOL    HW152289  10.458   1.838   6.809 -0.7822  0.5790 -0.5754
15399SOL    HW252290  10.498   1.954   6.898 -0.7567 -0.0406  0.2326
15400SOL     OW52291   0.579   1.082   6.407  0.3470  0.2397 -0.2776
15400SOL    HW152292   0.645   1.104   6.341  0.1112  1.3191 -0.1849
15400SOL    HW252293   0.626   1.031   6.473  0.4256 -1.5242 -1.6298
15401SOL     OW52294   3.577   5.655  10.654  0.4725 -0.4761  0.4480
15401SOL    HW152295   3.573   5.615  10.741 -0.1179 -0.0905  0.6084
15401SOL    HW252296   3.531   5.593  10.597 -1.3374  0.4039  0.8821
15402SOL     OW52297   2.584   7.110   0.633 -0.1181  0.0873  0.0123
15402SOL    HW152298   2.589   7.167   0.557  0.7201  2.3148  1.6108
15402SOL    HW252299   2.502   7.134   0.676  0.2097  0.0610  0.6673
15403SOL     OW52300   6.225   8.862   1.699 -0.7742 -0.4442  0.1164
15403SOL    HW152301   6.311   8.823   1.713 -0.0825  1.3375  1.1738
15403SOL    HW252302   6.238   8.922   1.625 -0.3886  1.6490  1.7685
15404SOL     OW52303   5.452   0.166  10.451  0.2445 -0.4092  0.2994
15404SOL    HW152304   5.532   0.125  10.416  0.0247  0.8808 -1.8768
15404SOL    HW252305   5.483   0.246  10.493  0.0319  0.9537 -1.9863
15405SOL     OW52306   0.426   5.680   4.689 -0.2300 -0.3323  0.2243
15405SOL    HW152307   0.480   5.617   4.641  1.2074 -0.7763  2.2423
15405SOL    HW252308   0.336   5.652   4.673  0.2887 -1.6912 -0.5281
15406SOL     OW52309   6.096   5.087   9.417  0.4639 -0.7241  0.1308
15406SOL    HW152310   6.023   5.146   9.397  1.0311 -0.0512  0.0136
15406SOL    HW252311   6.088   5.070   9.511  0.3641 -0.3723  0.1878
15407SOL     OW52312   4.626   3.450   9.133  0.3083 -0.0269  0.3736
15407SOL    HW152313   4.635   3.380   9.068  0.2245  1.1740 -0.9874
15407SOL    HW252314   4.537   3.484   9.119  0.5848  0.7890  0.5182
15408SOL     OW52315   9.746   5.125   7.966  0.4204  0.5743 -0.0653
15408SOL    HW152316   9.687   5.188   8.007 -0.2668 -0.3655  0.4296
15408SOL    HW252317   9.834   5.158   7.985  0.1051  0.5008  1.6317
15409SOL     OW52318   8.234   0.518   4.354 -0.1015 -0.2737 -0.2548
15409SOL    HW152319   8.316   0.527   4.305  0.3680 -0.2421  0.5315
15409SOL    HW252320   8.237   0.587   4.419 -0.7266 -0.3186 -0.1729
15410SOL     OW52321   1.908   6.052   5.613 -0.1944  0.0661  0.0392
15410SOL    HW152322   1.860   6.083   5.690 -1.3766  0.6279 -0.8839
15410SOL    HW252323   1.841   6.041   5.546  0.6981 -1.1733 -0.6984
15411SOL     OW52324   1.608  10.730   5.874 -0.6109  0.4843  0.1855
15411SOL    HW152325   1.662  10.661   5.835 -0.0666  2.3673 -2.7039
15411SOL    HW252326   1.519  10.708   5.849 -0.2738  1.6416 -2.3000
15412SOL     OW52327   9.839   7.071   4.486 -0.3148 -0.1008  0.0036
15412SOL    HW152328   9.812   7.013   4.557  0.7736  1.3743  1.7177
15412SOL    HW252329   9.758   7.097   4.444 -0.9492 -1.3872  0.3856
15413SOL     OW52330   4.821   4.830   7.030  1.0560 -0.0612 -0.5527
15413SOL    HW152331   4.820   4.805   6.938  1.0718 -0.8268 -0.3477
15413SOL    HW252332   4.794   4.751   7.077  0.2465  0.5549  0.0522
15414SOL     OW52333   2.148   0.778   3.064  0.1499 -1.1579 -0.3601
15414SOL    HW152334   2.069   0.833   3.061  0.7324 -0.3133 -0.6639
15414SOL    HW252335   2.189   0.801   3.148  1.7665  0.8862 -1.6118
15415SOL     OW52336   3.382   1.294   2.195 -0.3560  0.1647 -0.2640
15415SOL    HW152337   3.371   1.220   2.135 -0.0694 -0.5038  0.4945
15415SOL    HW252338   3.326   1.362   2.158 -2.1376 -1.0477  0.0440
15416SOL     OW52339   0.367   9.832  10.329 -0.0485  0.0451  0.3232
15416SOL    HW152340   0.287   9.787  10.306  0.1849 -0.9162  1.3274
15416SOL    HW252341   0.410   9.850  10.245 -0.6663 -0.6314 -0.1437
15417SOL     OW52342   7.066   7.925   7.321 -0.6725  0.1976 -0.4717
15417SOL    HW152343   7.100   7.938   7.410  1.0794 -0.9223 -0.9360
15417SOL    HW252344   6.994   7.862   7.332 -1.4181  1.1437  0.2945
15418SOL     OW52345   7.013   7.956   8.633  1.1205 -0.5624  0.1711
15418SOL    HW152346   6.933   7.938   8.683 -0.2935  1.8631 -1.0236
15418SOL    HW252347   7.077   7.980   8.700  0.1696 -0.3221  1.0267
15419SOL     OW52348   4.518   7.585  10.207 -0.3850  0.5341 -0.2468
15419SOL    HW152349   4.473   7.615  10.128 -0.5666  1.5058  0.2115
15419SOL    HW252350   4.575   7.658  10.232 -0.5771  0.3780  0.7037
15420SOL     OW52351   8.380   7.198  10.427 -0.4000 -0.0227 -0.2710
15420SOL    HW152352   8.379   7.153  10.512  0.7562 -2.5792 -1.4942
15420SOL    HW252353   8.442   7.270  10.439  0.4406 -0.8969  0.8181
15421SOL     OW52354   5.798   2.235   5.739 -0.0633 -0.0392  0.1109
15421SOL    HW152355   5.884   2.269   5.766  0.7677 -0.9092 -1.3084
15421SOL    HW252356   5.805   2.227   5.643 -1.0981 -1.7739  0.1408
15422SOL     OW52357   4.870   4.355   2.413 -0.2805 -0.0744  0.6452
15422SOL    HW152358   4.866   4.449   2.435  0.5108  0.2554 -0.5543
15422SOL    HW252359   4.791   4.319   2.453 -1.2363  1.3322  0.1268
15423SOL     OW52360   5.299   1.068   2.356 -0.0187 -0.0039  0.4511
15423SOL    HW152361   5.352   0.994   2.387 -0.2701 -0.3334  0.1085
15423SOL    HW252362   5.319   1.074   2.262 -1.6955 -1.1052 -0.0358
15424SOL     OW52363   8.324   2.742  10.534  0.3731 -0.1324  0.2275
15424SOL    HW152364   8.302   2.830  10.506  0.4437 -1.1393 -3.5010
15424SOL    HW252365   8.239   2.702  10.556 -0.0002  0.0781 -0.7762
15425SOL     OW52366   4.626   2.753  10.170 -0.3937 -0.0024  0.2202
15425SOL    HW152367   4.699   2.760  10.108  0.4596 -2.1982  0.8831
15425SOL    HW252368   4.650   2.680  10.227 -3.1743 -0.8769  0.4067
15426SOL     OW52369   8.860   5.044   7.800 -0.2253  0.0638 -0.9900
15426SOL    HW152370   8.861   5.078   7.889 -2.0350 -1.2314 -0.3957
15426SOL    HW252371   8.866   5.121   7.744 -0.7697  1.0573  0.2701
15427SOL     OW52372   9.049   1.772   8.062  0.1506 -0.3159  0.2249
15427SOL    HW152373   8.972   1.817   8.027 -0.0564 -0.4767  0.4722
15427SOL    HW252374   9.043   1.683   8.028  0.8203 -0.0385 -0.6664
15428SOL     OW52375   3.801   3.828   3.445 -0.4243 -0.1851 -0.1005
15428SOL    HW152376   3.751   3.891   3.497 -0.2275  1.1695 -1.5095
15428SOL    HW252377   3.738   3.759   3.424 -0.6800 -0.4285  1.3169
15429SOL     OW52378   0.201   6.089   6.726  0.2472 -0.2523  0.1839
15429SOL    HW152379   0.124   6.106   6.673  0.0317  0.2133  0.6375
15429SOL    HW252380   0.227   6.000   6.704  0.5740  0.1715 -1.2237
15430SOL     OW52381   6.396   6.869   7.213 -0.2511  0.7512  0.5471
15430SOL    HW152382   6.339   6.945   7.211  1.4761  2.0907  0.0964
15430SOL    HW252383   6.468   6.891   7.154  0.6819 -0.9197  0.9928
15431SOL     OW52384   3.101   7.362   2.589 -0.3433 -0.0167  0.2922
15431SOL    HW152385   3.148   7.416   2.526  1.8469 -0.2260  1.6757
15431SOL    HW252386   3.085   7.420   2.663 -0.1544 -0.5985  0.7933
15432SOL     OW52387   6.807   5.709   5.886  0.2994  0.7354 -0.0389
15432SOL    HW152388   6.819   5.687   5.978  1.3705  1.8994  0.1208
15432SOL    HW252389   6.712   5.704   5.873  0.1312  0.6154  1.1309
15433SOL     OW52390   1.379   2.257   6.702  0.3915  0.6209  0.0882
15433SOL    HW152391   1.383   2.333   6.761 -1.8486  1.3957 -0.6499
15433SOL    HW252392   1.414   2.289   6.619  1.0913  0.2997  0.2503
15434SOL     OW52393   4.229   2.123   0.378  0.5384 -0.1582  0.3930
15434SOL    HW152394   4.301   2.072   0.416  0.9447 -0.2504 -0.4796
15434SOL    HW252395   4.160   2.059   0.363  0.1228 -0.0049  1.5771
15435SOL     OW52396   3.966   6.418   6.924 -0.6305 -0.0061  0.7575
15435SOL    HW152397   3.894   6.462   6.877  0.8058  0.3499 -1.2442
15435SOL    HW252398   3.973   6.332   6.882  0.4456  0.1660  0.5672
15436SOL     OW52399   4.117  10.680   2.083 -0.1003  0.2800  0.0106
15436SOL    HW152400   4.067  10.759   2.061  1.9427  1.6033 -0.1620
15436SOL    HW252401   4.133  10.637   1.999 -3.1108 -1.6339  0.2877
15437SOL     OW52402   8.620   4.310   6.134 -0.8151  0.1948  0.0851
15437SOL    HW152403   8.566   4.238   6.166  1.6351 -1.0332  1.7524
15437SOL    HW252404   8.562   4.387   6.136 -3.8534 -1.7211 -2.7070
15438SOL     OW52405   1.600  10.743   3.170 -0.0265 -0.2126  0.4081
15438SOL    HW152406   1.661  10.816   3.169 -1.8173  1.4008 -1.7371
15438SOL    HW252407   1.650  10.670   3.207  2.1289  1.8045  1.7474
15439SOL     OW52408   9.311   2.082   1.579 -0.7181 -0.2075 -0.4480
15439SOL    HW152409   9.312   2.155   1.641 -0.3144 -1.3797  0.9975
15439SOL    HW252410   9.373   2.107   1.511  1.7298 -0.4383  1.5634
15440SOL     OW52411   1.544   3.545   6.468  0.1267  0.8968  0.4608
15440SOL    HW152412   1.543   3.609   6.397  0.2899  0.8899  0.4522
15440SOL    HW252413   1.504   3.466   6.430  3.6914 -0.4577 -0.9021
15441SOL     OW52414   0.291  10.615   5.311  0.2631  0.2769 -0.2915
15441SOL    HW152415   0.384  10.600   5.324  0.1794  0.0642  0.1063
15441SOL    HW252416   0.274  10.700   5.351  0.3084  0.3662 -0.4632
15442SOL     OW52417   1.740   9.034   5.439 -0.5241  0.0435  0.0876
15442SOL    HW152418   1.717   8.948   5.403 -1.7939 -0.1538  1.3011
15442SOL    HW252419   1.835   9.041   5.424 -0.4553 -1.4035 -0.3437
15443SOL     OW52420   0.644   5.094  10.310 -0.6041 -0.6522  0.0581
15443SOL    HW152421   0.686   5.069  10.228  0.6207  3.1620 -0.6860
15443SOL    HW252422   0.710   5.079  10.377  1.0238  2.3684 -0.6942
15444SOL     OW52423   4.387  10.470   5.012 -0.3355  0.4779 -0.7459
15444SOL    HW152424   4.466  10.429   5.046 -0.1764 -0.4826 -2.1964
15444SOL    HW252425   4.411  10.561   4.999  0.2218  0.4106 -0.2498
15445SOL     OW52426   3.206   9.981   2.185 -0.2239  1.0053  0.3283
15445SOL    HW152427   3.112   9.990   2.169 -0.4562 -1.1424  0.2255
15445SOL    HW252428   3.247   9.994   2.100 -0.5933  0.0922  0.0046
15446SOL     OW52429   8.951   1.549   7.901 -0.3515  0.8150 -0.5249
15446SOL    HW152430   8.912   1.480   7.847 -1.0417  0.3925  0.4680
15446SOL    HW252431   8.989   1.610   7.839 -0.9821  0.2659 -1.4790
15447SOL     OW52432   1.150   6.998   7.572 -0.3672  0.0314 -0.1923
15447SOL    HW152433   1.108   6.975   7.654  1.9775  1.1590  1.4171
15447SOL    HW252434   1.077   7.017   7.512 -2.1265 -1.0804  1.4921
15448SOL     OW52435   5.897   9.493   8.129 -0.5307 -0.5198 -0.0012
15448SOL    HW152436   5.816   9.544   8.136 -0.2268 -0.0587  0.1974
15448SOL    HW252437   5.916   9.466   8.219 -1.2447 -1.8791 -0.2263
15449SOL     OW52438   5.495   8.890   5.370  0.8925  0.2066 -0.9373
15449SOL    HW152439   5.532   8.850   5.291 -0.7727 -0.0419 -1.6348
15449SOL    HW252440   5.474   8.980   5.345 -1.8323 -0.5153 -1.6059
15450SOL     OW52441   9.275   2.586   0.194 -0.0789 -0.7371  0.1517
15450SOL    HW152442   9.350   2.570   0.138  1.0833 -0.4028  1.5513
15450SOL    HW252443   9.226   2.656   0.151  0.9633 -0.2586 -0.2702
15451SOL     OW52444   6.812  10.367   4.448 -0.2871 -0.3698  0.0843
15451SOL    HW152445   6.873  10.343   4.379  1.3408 -1.8479  1.9210
15451SOL    HW252446   6.726  10.367   4.406  0.6949 -0.6942 -2.0147
15452SOL     OW52447   3.975   4.243   6.930  0.4073 -0.1166  0.6186
15452SOL    HW152448   3.967   4.213   6.840  1.8464  0.6419  0.1956
15452SOL    HW252449   4.009   4.167   6.977 -1.8619 -1.0160  0.8981
15453SOL     OW52450   8.134   7.421  10.350  0.3928  0.5876  0.4607
15453SOL    HW152451   8.164   7.331  10.340 -1.7455 -0.3392  1.6939
15453SOL    HW252452   8.214   7.474  10.345  1.9287 -1.5086  1.4386
15454SOL     OW52453   2.004   4.706   3.173 -0.0216  0.3082 -0.3331
15454SOL    HW152454   1.933   4.769   3.165  0.1942  0.3942 -1.7231
15454SOL    HW252455   2.083   4.756   3.154  0.5390  0.3763  1.8383
15455SOL     OW52456   0.415   6.473   0.011  0.3662 -0.1599 -0.2947
15455SOL    HW152457   0.341   6.534   0.012 -0.4885 -1.0794 -2.1583
15455SOL    HW252458   0.464   6.495  -0.068  0.5266 -1.3128 -0.5286
15456SOL     OW52459   0.602   1.270   0.854 -0.1353 -0.3590 -0.1408
15456SOL    HW152460   0.519   1.256   0.900 -0.9664  1.8362 -0.8350
15456SOL    HW252461   0.661   1.306   0.920 -0.7557  1.0528 -0.3254
15457SOL     OW52462   2.200   2.131   5.718  0.3561  0.2539  0.2207
15457SOL    HW152463   2.250   2.189   5.661 -0.9615 -0.6075 -1.9392
15457SOL    HW252464   2.110   2.137   5.686 -0.0534 -1.9856  0.7356
15458SOL     OW52465   1.187  10.909   2.977  0.4795  0.1613  0.0141
15458SOL    HW152466   1.132  10.833   2.994 -0.2236  0.6073 -0.2477
15458SOL    HW252467   1.156  10.976   3.038  0.4699  0.5360 -0.3936
15459SOL     OW52468   1.016   6.670   8.369  0.5903  0.5057 -0.1862
15459SOL    HW152469   1.082   6.659   8.437  1.1630 -0.9962 -0.9344
15459SOL    HW252470   1.033   6.598   8.307 -1.2076  0.5942 -0.8407
15460SOL     OW52471   6.920   9.816   0.354  0.5096  0.1472 -0.1447
15460SOL    HW152472   6.872   9.885   0.399  0.3128  0.0203 -0.1565
15460SOL    HW252473   6.954   9.760   0.424 -2.1265 -1.6470 -0.1413
15461SOL     OW52474   4.422   5.146   2.890  0.2644 -0.1132 -0.2345
15461SOL    HW152475   4.446   5.053   2.897 -1.2507 -0.5775 -0.8210
15461SOL    HW252476   4.326   5.146   2.885  0.1341  1.5946  1.2500
15462SOL     OW52477   1.636   2.001   3.387  0.2096  0.5788 -0.1897
15462SOL    HW152478   1.562   1.985   3.446 -1.3483  0.6099 -2.0712
15462SOL    HW252479   1.638   2.096   3.376  0.3063  0.5508 -0.4227
15463SOL     OW52480   9.497  10.008   5.002  0.4441 -0.3260 -0.9496
15463SOL    HW152481   9.582   9.976   4.973  0.9570 -0.6292  0.7673
15463SOL    HW252482   9.440   9.996   4.926  2.0179  0.3360 -2.3029
15464SOL     OW52483   7.774   1.841   2.244  0.4324  0.0877 -0.0200
15464SOL    HW152484   7.802   1.779   2.177 -1.3404 -1.2202  0.3897
15464SOL    HW252485   7.808   1.926   2.214  1.4951 -0.7990 -1.4408
15465SOL     OW52486   4.832   6.506   1.838  0.4084  0.5770  0.5104
15465SOL    HW152487   4.775   6.430   1.827  1.9049 -0.7597  1.5701
15465SOL    HW252488   4.839   6.543   1.750  2.1680 -2.4347 -0.7759
15466SOL     OW52489   8.552   7.784   1.402 -0.5472 -0.0640 -0.4365
15466SOL    HW152490   8.584   7.706   1.447  0.2803  1.2909  1.4523
15466SOL    HW252491   8.459   7.769   1.390 -0.1961 -1.8325 -1.2228
15467SOL     OW52492   7.184   1.903  10.105  0.2862 -0.1153  0.8772
15467SOL    HW152493   7.138   1.820  10.111 -1.0577  0.5857  0.5776
15467SOL    HW252494   7.276   1.878  10.095 -0.0914 -1.5614  0.7480
15468SOL     OW52495   2.201  10.042   6.325 -0.2926 -0.1255 -0.3384
15468SOL    HW152496   2.219  10.066   6.415 -0.0307 -1.7384  0.0606
15468SOL    HW252497   2.106  10.049   6.317 -0.3475 -0.2914  0.1571
15469SOL     OW52498   8.416  10.542   9.830 -0.1283  0.5859  0.7773
15469SOL    HW152499   8.426  10.566   9.922 -0.3987 -0.1276  0.9934
15469SOL    HW252500   8.471  10.464   9.820 -1.7279 -0.5874  0.8452
15470SOL     OW52501   8.560   3.982   5.065  0.2772 -0.1573  0.1828
15470SOL    HW152502   8.599   4.069   5.065  0.3878 -0.2038 -0.3684
15470SOL    HW252503   8.473   3.994   5.103 -0.2613  0.4489 -1.2019
15471SOL     OW52504   5.209   3.964  10.849 -0.2076  0.2099 -0.1883
15471SOL    HW152505   5.272   3.956  10.778  0.2031 -0.0070  0.1903
15471SOL    HW252506   5.136   4.013  10.812  0.5508  1.2186 -0.3953
15472SOL     OW52507   1.569   7.349   4.384 -0.6566 -0.6568 -0.2854
15472SOL    HW152508   1.538   7.305   4.305  0.5735  0.0252 -1.1849
15472SOL    HW252509   1.647   7.300   4.409 -0.8824 -0.6940  0.3652
15473SOL     OW52510   1.906   3.557   1.672  0.1917  0.1016 -0.0783
15473SOL    HW152511   1.930   3.555   1.765  0.3868 -1.9337 -0.1401
15473SOL    HW252512   1.825   3.609   1.670 -0.9978 -1.5506  1.5471
15474SOL     OW52513   1.806   1.433   8.246 -0.0154 -0.3078 -0.0782
15474SOL    HW152514   1.716   1.425   8.214  0.5943 -0.8444 -1.8155
15474SOL    HW252515   1.816   1.527   8.263 -0.8574 -0.2164 -0.0226
15475SOL     OW52516   7.784   2.755   9.514 -0.0666 -0.8011 -0.0840
15475SOL    HW152517   7.783   2.723   9.424 -0.1330 -1.8363  0.2650
15475SOL    HW252518   7.867   2.801   9.523 -0.4902  0.1716 -0.9459
15476SOL     OW52519   3.924   7.985   7.507  0.5244  0.0361  0.8024
15476SOL    HW152520   3.967   7.901   7.528  0.6274 -0.1812 -0.2491
15476SOL    HW252521   3.831   7.963   7.498  0.6780 -0.1777 -0.4784
15477SOL     OW52522   3.503   4.333   9.328  0.3247  0.1382  0.3619
15477SOL    HW152523   3.578   4.326   9.269  1.6023  0.6775  1.8468
15477SOL    HW252524   3.487   4.244   9.358  0.8309  0.1093  0.5596
15478SOL     OW52525   5.546  10.469  10.685 -0.7338  0.0585  0.2715
15478SOL    HW152526   5.569  10.451  10.776 -0.5322  0.3620  0.2831
15478SOL    HW252527   5.506  10.556  10.688 -2.0062 -0.5021  0.2721
15479SOL     OW52528   0.359   4.583   7.226 -0.4318 -0.5342 -0.3720
15479SOL    HW152529   0.410   4.660   7.249  0.0717 -1.4007  1.7052
15479SOL    HW252530   0.402   4.547   7.149  0.9957 -0.2321  0.2493
15480SOL     OW52531   7.251   1.496   5.462  0.2706 -0.0669 -0.1872
15480SOL    HW152532   7.330   1.529   5.419  0.2863  0.3097  0.1268
15480SOL    HW252533   7.282   1.420   5.512  0.5417  0.4188  0.3873
15481SOL     OW52534   9.713   3.967   7.667 -0.2088  0.0980  0.0164
15481SOL    HW152535   9.748   3.878   7.674  0.5681  0.4099  0.1823
15481SOL    HW252536   9.786   4.023   7.693 -0.0922  0.8866 -1.9015
15482SOL     OW52537  10.477   2.656   5.554  0.2444 -0.2160  0.5921
15482SOL    HW152538  10.396   2.617   5.586  0.2685 -0.2707  0.5865
15482SOL    HW252539  10.483   2.740   5.601 -0.4700  0.3902 -0.3687
15483SOL     OW52540   3.628   7.393   1.214 -0.3200  0.8192  0.4884
15483SOL    HW152541   3.543   7.366   1.249 -0.4711  1.0779  0.3264
15483SOL    HW252542   3.617   7.487   1.196 -0.3927  0.5871 -0.7011
15484SOL     OW52543   7.383   8.193   3.001 -0.6250  0.7809  0.4893
15484SOL    HW152544   7.392   8.206   3.095  0.5593  0.8067  0.3867
15484SOL    HW252545   7.469   8.162   2.973 -1.0827  0.3970 -0.5228
15485SOL     OW52546   9.054   0.919   5.687 -0.0284  0.1368 -0.0317
15485SOL    HW152547   9.104   0.924   5.769 -1.1791  0.8388  0.6645
15485SOL    HW252548   9.094   0.985   5.630  0.7685 -0.3434 -0.0362
15486SOL     OW52549   9.104  10.800   4.291  0.3295  0.3198  0.3576
15486SOL    HW152550   9.046  10.814   4.217 -2.3904 -0.9771  2.0963
15486SOL    HW252551   9.142  10.713   4.276  1.4763  0.9439 -0.5107
15487SOL     OW52552   8.748  10.689   6.976  0.0889 -0.3585  0.1381
15487SOL    HW152553   8.760  10.594   6.984 -0.1894 -0.4775 -0.7593
15487SOL    HW252554   8.674  10.699   6.915 -0.8504  0.4178  1.3464
15488SOL     OW52555   9.016   5.891   0.331  0.5441  0.4310  0.0127
15488SOL    HW152556   9.021   5.970   0.385 -1.5885  1.7253 -1.5467
15488SOL    HW252557   9.044   5.821   0.390  0.9476  2.1009  1.9511
15489SOL     OW52558   8.905   2.681   4.942 -0.0909 -0.0727  0.0710
15489SOL    HW152559   8.822   2.654   4.980 -2.7549  2.4304 -3.3360
15489SOL    HW252560   8.936   2.603   4.895 -1.4470 -0.5800 -0.0401
15490SOL     OW52561   8.023   3.981   5.236  0.2125  0.1585  0.5643
15490SOL    HW152562   7.945   4.028   5.207  0.1621 -0.0506  0.3600
15490SOL    HW252563   8.019   3.984   5.332 -0.7487 -0.9844  0.5833
15491SOL     OW52564   9.259   3.188   2.299 -0.1261  0.0671 -0.6633
15491SOL    HW152565   9.273   3.264   2.356 -0.4387  0.3952 -1.0128
15491SOL    HW252566   9.229   3.119   2.357  0.5692  0.0794 -0.2722
15492SOL     OW52567   7.452   2.499  10.828  0.1401  0.2073  0.4300
15492SOL    HW152568   7.514   2.503  10.755  0.4585  0.6857  0.7194
15492SOL    HW252569   7.378   2.553  10.800  0.6736  1.1804  0.8285
15493SOL     OW52570   3.915   2.845   7.234  0.5184  0.2982 -0.3762
15493SOL    HW152571   3.985   2.814   7.176  1.6518 -1.6735  1.8437
15493SOL    HW252572   3.860   2.768   7.248 -0.1155  0.9057  0.5781
15494SOL     OW52573   2.649   9.173   8.452 -0.1360  0.3677 -0.2852
15494SOL    HW152574   2.561   9.200   8.479  0.3382  1.3857  0.2967
15494SOL    HW252575   2.657   9.083   8.484 -1.4330 -0.2215 -1.5084
15495SOL     OW52576  10.578   8.334   3.923  0.3480  0.2552 -0.2132
15495SOL    HW152577  10.659   8.289   3.947  0.0809  0.4954  1.2615
15495SOL    HW252578  10.542   8.283   3.850  0.1141 -1.9057  1.3058
15496SOL     OW52579   4.920   4.843   5.658 -0.5420  0.3030 -0.3331
15496SOL    HW152580   4.934   4.935   5.683 -0.4747  0.5531 -1.2519
15496SOL    HW252581   4.864   4.808   5.727  0.7667  0.5814  0.9091
15497SOL     OW52582   5.522   2.147   5.468 -0.7466  0.0326 -0.2051
15497SOL    HW152583   5.507   2.065   5.516 -0.7223  0.1268 -0.0335
15497SOL    HW252584   5.510   2.124   5.376  0.5601 -0.4763 -0.2718
15498SOL     OW52585   1.451   3.789   9.109 -0.3275 -0.4716 -0.3032
15498SOL    HW152586   1.370   3.807   9.061  0.3159  2.0264 -0.5872
15498SOL    HW252587   1.461   3.863   9.168  2.0126 -0.4402 -0.6402
15499SOL     OW52588   7.799   7.389   7.272 -0.1417  0.0473  0.2821
15499SOL    HW152589   7.847   7.381   7.189 -0.8448  1.2248 -0.2662
15499SOL    HW252590   7.736   7.317   7.270  0.7071 -0.7293  0.4204
15500SOL     OW52591  10.513   9.025   8.014  0.0070  0.1658  0.1715
15500SOL    HW152592  10.546   9.062   7.932  0.0728  3.4146  1.5098
15500SOL    HW252593  10.470   9.099   8.058  1.4968 -0.9306  3.8186
15501SOL     OW52594   7.411   0.427   0.388  0.2844 -0.1414 -0.2083
15501SOL    HW152595   7.343   0.453   0.326  0.2260  1.1075  0.3578
15501SOL    HW252596   7.430   0.335   0.366 -0.0599  0.1391 -1.7641
15502SOL     OW52597   3.307   7.145   4.109  0.0638 -0.4503 -0.4736
15502SOL    HW152598   3.267   7.066   4.146 -1.4474  0.7879  0.6878
15502SOL    HW252599   3.361   7.180   4.179  0.1175 -0.0491 -0.7093
15503SOL     OW52600   3.032   9.786   3.880  0.2614  0.4886 -0.4052
15503SOL    HW152601   3.070   9.767   3.794  1.7221  0.6021  0.1869
15503SOL    HW252602   2.941   9.807   3.862 -0.2383 -2.3036 -1.6264
15504SOL     OW52603  10.213   2.039   0.159  0.1357 -0.6876  0.2785
15504SOL    HW152604  10.223   2.029   0.254 -0.5661 -1.5956  0.2695
15504SOL    HW252605  10.247   1.957   0.124  0.6902 -0.2224 -0.2835
15505SOL     OW52606   2.826   1.973   8.291  0.2202  0.1403  0.0518
15505SOL    HW152607   2.831   1.897   8.235 -0.9063 -0.0272  0.1485
15505SOL    HW252608   2.826   2.048   8.231  1.8827  0.1275 -0.0205
15506SOL     OW52609   7.766   7.172   5.773 -0.3232  0.6134  0.2868
15506SOL    HW152610   7.680   7.199   5.742 -0.9007  0.3637  1.5947
15506SOL    HW252611   7.816   7.253   5.777 -0.9910  1.0074  0.9870
15507SOL     OW52612   9.509   0.460   3.250  0.3287  0.3033  0.4080
15507SOL    HW152613   9.504   0.406   3.171 -0.6180 -0.6096  1.0609
15507SOL    HW252614   9.524   0.549   3.218  0.7809 -0.1670 -0.7466
15508SOL     OW52615   8.106   8.575   3.653 -0.0465 -0.4459  0.3399
15508SOL    HW152616   8.060   8.532   3.725 -0.3457 -2.4820 -0.9933
15508SOL    HW252617   8.054   8.555   3.575 -0.2005  2.4218 -0.3961
15509SOL     OW52618   0.425   5.230   0.433  0.2428  0.3452 -0.2062
15509SOL    HW152619   0.441   5.283   0.511 -0.0590  0.3921 -0.1737
15509SOL    HW252620   0.353   5.276   0.388 -0.2683 -0.2256  0.0087
15510SOL     OW52621   1.696   0.958   6.844  0.2695  0.1266  0.1741
15510SOL    HW152622   1.633   1.000   6.786 -0.0642 -1.4124 -0.6510
15510SOL    HW252623   1.704   1.017   6.918 -0.1098  1.6425 -0.9401
15511SOL     OW52624   2.031   7.440  10.890 -0.5250 -0.3794  0.0301
15511SOL    HW152625   1.997   7.482  10.811 -1.1137 -0.6438  0.1366
15511SOL    HW252626   2.082   7.509  10.933  0.3179 -0.4140 -0.8817
15512SOL     OW52627   5.236   8.966   2.186 -0.0078  0.0137  0.0750
15512SOL    HW152628   5.203   8.880   2.161  0.4053 -0.6425  1.6369
15512SOL    HW252629   5.158   9.022   2.187 -0.4586 -0.6015  0.0684
15513SOL     OW52630   8.837   5.858   6.494 -0.0855 -0.0124  0.3407
15513SOL    HW152631   8.813   5.798   6.565 -1.0994 -0.4784 -0.3755
15513SOL    HW252632   8.924   5.827   6.466  0.4339  0.3200  1.5023
15514SOL     OW52633   7.916   7.478   8.305 -0.6497 -0.0127 -0.1264
15514SOL    HW152634   7.850   7.424   8.261 -0.9707 -1.2505  1.7866
15514SOL    HW252635   7.951   7.422   8.374  1.5768  1.0414 -0.3256
15515SOL     OW52636   7.068   8.728   0.491  0.4712 -0.5153 -0.0813
15515SOL    HW152637   7.003   8.793   0.517  1.2105  0.5864 -0.9064
15515SOL    HW252638   7.049   8.652   0.547 -0.7863  0.1768  0.4859
15516SOL     OW52639   9.044   0.585   3.769  0.1621 -0.6106  0.5049
15516SOL    HW152640   8.985   0.513   3.793 -0.2544 -0.1116  1.0056
15516SOL    HW252641   8.997   0.633   3.701  0.8428 -1.3461 -0.5006
15517SOL     OW52642   4.200   8.165   1.402 -0.7247  0.4988 -0.4338
15517SOL    HW152643   4.174   8.082   1.442 -0.0463  0.8962  0.8980
15517SOL    HW252644   4.254   8.140   1.327 -0.4400 -0.2602  0.0181
15518SOL     OW52645   6.611   8.677   7.246  0.0496 -0.3500 -0.9630
15518SOL    HW152646   6.667   8.602   7.263 -1.7098 -1.3863  0.6729
15518SOL    HW252647   6.623   8.735   7.321 -1.5802 -0.9669 -0.1759
15519SOL     OW52648   3.614   1.332   2.977 -0.2358  0.0756  0.2048
15519SOL    HW152649   3.673   1.407   2.965 -0.1688 -0.0029  0.0345
15519SOL    HW252650   3.538   1.368   3.023 -1.7296  1.0083 -2.7479
15520SOL     OW52651  10.012   2.496   4.563 -0.1147 -0.2511 -0.0329
15520SOL    HW152652   9.923   2.477   4.590  0.3389 -0.9844  1.0046
15520SOL    HW252653  10.008   2.585   4.527 -1.2990 -0.3725 -0.2303
15521SOL     OW52654   4.898   7.290   3.397  0.7587 -0.2781 -0.6092
15521SOL    HW152655   4.889   7.237   3.476  0.2638  1.3932  0.4957
15521SOL    HW252656   4.983   7.264   3.360  0.7663 -1.4435  0.1784
15522SOL     OW52657   6.100   8.947   4.298 -0.7263 -0.5208 -1.3198
15522SOL    HW152658   6.192   8.973   4.307 -0.7204 -0.8465 -0.3803
15522SOL    HW252659   6.092   8.869   4.353 -1.9885  0.5487  0.1033
15523SOL     OW52660   5.600   2.891   0.246 -0.1956 -0.0511  0.0532
15523SOL    HW152661   5.576   2.980   0.218  1.3527 -0.2001 -2.0699
15523SOL    HW252662   5.532   2.835   0.209 -0.6410  0.1617  0.5447
15524SOL     OW52663   4.378   5.679   2.898  0.4046  0.6361  0.9464
15524SOL    HW152664   4.365   5.736   2.822  2.2105  2.8215  2.1406
15524SOL    HW252665   4.309   5.613   2.891 -0.4512  1.6827 -1.7077
15525SOL     OW52666   4.576   5.221   6.876  0.0622  0.3425  0.0810
15525SOL    HW152667   4.597   5.148   6.935  0.1247  0.1075 -0.2301
15525SOL    HW252668   4.616   5.297   6.917 -0.7002  0.3532  0.8415
15526SOL     OW52669   7.851   2.286  10.130  0.1563  0.2787 -0.0072
15526SOL    HW152670   7.799   2.210  10.155  0.5783 -1.3956 -3.6548
15526SOL    HW252671   7.915   2.296  10.201 -1.3954 -1.2162  1.7057
15527SOL     OW52672   9.892   2.699   3.261 -0.7279 -0.0018 -0.7790
15527SOL    HW152673   9.893   2.734   3.350  0.7191 -0.2551 -0.6632
15527SOL    HW252674   9.869   2.773   3.206  1.8615  1.1303 -0.5030
15528SOL     OW52675   2.068   1.369   7.971  0.1409 -0.5891  0.7623
15528SOL    HW152676   2.148   1.317   7.968 -0.3583 -1.3426  0.3089
15528SOL    HW252677   1.997   1.305   7.963 -0.5109  0.0682  1.1517
15529SOL     OW52678   9.170   6.931   6.382 -0.0555 -0.5273 -0.0693
15529SOL    HW152679   9.149   6.902   6.293  1.1848 -2.0420  0.1026
15529SOL    HW252680   9.264   6.948   6.380 -0.2886  1.0610  0.5505
15530SOL     OW52681   5.013   9.195   1.243  0.0552  0.2386 -0.6080
15530SOL    HW152682   5.016   9.260   1.173 -2.6495  0.5044 -0.5895
15530SOL    HW252683   5.091   9.142   1.231  0.9115  1.8086 -2.3056
15531SOL     OW52684   5.231   1.727   2.303 -0.1859  0.1109 -0.9315
15531SOL    HW152685   5.285   1.670   2.248 -0.9819  0.7518 -2.4284
15531SOL    HW252686   5.242   1.815   2.265  0.4031  0.8627  0.8511
15532SOL     OW52687   6.604   8.123   8.673 -0.2962 -0.0400 -0.1544
15532SOL    HW152688   6.558   8.132   8.590 -0.8218 -0.7793  0.0485
15532SOL    HW252689   6.656   8.204   8.681  1.7760 -1.0423 -2.4107
15533SOL     OW52690   9.492   7.776  10.676  0.1576 -0.0798  0.1867
15533SOL    HW152691   9.515   7.699  10.623 -0.1387  0.6474 -1.0372
15533SOL    HW252692   9.405   7.755  10.711  0.0003 -0.2440 -0.2845
15534SOL     OW52693   1.013   6.836   6.785 -0.5505  0.2519  0.0984
15534SOL    HW152694   0.997   6.921   6.744  1.9277  0.6721 -0.1272
15534SOL    HW252695   1.037   6.858   6.875  0.4182 -0.1622 -0.0520
15535SOL     OW52696   9.410   9.494   3.522 -0.0760 -0.2757 -0.2886
15535SOL    HW152697   9.468   9.473   3.448  0.2003 -0.6309  0.0267
15535SOL    HW252698   9.468   9.525   3.591 -0.2163 -0.9437  0.1412
15536SOL     OW52699   1.597   2.242   9.244 -0.5967 -0.0824 -0.3121
15536SOL    HW152700   1.601   2.336   9.227  0.5351 -0.0817 -0.1051
15536SOL    HW252701   1.666   2.226   9.307 -0.1690 -1.1948 -1.0302
15537SOL     OW52702   3.522   6.555   4.229  0.1979  0.2156 -0.0080
15537SOL    HW152703   3.521   6.463   4.203  1.0763 -0.8147  3.1069
15537SOL    HW252704   3.614   6.573   4.252  0.2709  2.2579 -1.5901
15538SOL     OW52705   6.924  10.607   1.175  0.0025 -0.8775  0.0510
15538SOL    HW152706   6.910  10.653   1.093  0.2539  0.0381  0.5130
15538SOL    HW252707   6.844  10.556   1.188 -0.9100  0.5488  0.2351
15539SOL     OW52708  10.402   9.203   2.527 -0.0595 -0.4764  0.8093
15539SOL    HW152709  10.494   9.190   2.548 -0.4854 -3.3108  1.3289
15539SOL    HW252710  10.395   9.186   2.433 -0.0574 -0.2883  0.7748
15540SOL     OW52711   8.373  10.741   4.768 -0.6611  0.1424  0.2823
15540SOL    HW152712   8.350  10.830   4.742 -1.4399 -0.1410 -0.0074
15540SOL    HW252713   8.328  10.728   4.851  0.3258  0.3890  0.8738
15541SOL     OW52714   1.851   5.914  10.363 -0.3891 -0.0191 -0.4031
15541SOL    HW152715   1.922   5.954  10.313 -1.2185  1.9206 -0.1341
15541SOL    HW252716   1.895   5.866  10.433  0.6778  0.0695 -0.9980
15542SOL     OW52717   1.908   5.053   7.196  0.4138 -0.3930  0.0316
15542SOL    HW152718   1.860   5.029   7.116  1.7010 -2.7577 -0.1367
15542SOL    HW252719   2.000   5.042   7.172  0.9853  1.7908  1.0208
15543SOL     OW52720   6.716  10.836  10.637 -0.3992 -0.3313 -0.3792
15543SOL    HW152721   6.651  10.826  10.567 -1.0708  1.0026  0.0161
15543SOL    HW252722   6.702  10.760  10.694 -0.0313 -1.2853 -1.5161
15544SOL     OW52723   8.914  10.713   0.765 -0.6375  0.1821  0.5990
15544SOL    HW152724   8.882  10.628   0.796 -2.0210 -0.2277 -1.6698
15544SOL    HW252725   8.990  10.691   0.711  0.0780  0.5865  1.4290
15545SOL     OW52726   6.070   7.986   7.798 -0.0341 -0.2531 -0.3270
15545SOL    HW152727   6.103   8.040   7.726  0.0532  1.1640  0.7226
15545SOL    HW252728   6.122   7.906   7.795  0.9441  0.3963 -0.9607
15546SOL     OW52729   2.449   1.759   2.918 -0.6607 -0.3228 -0.0440
15546SOL    HW152730   2.367   1.731   2.877 -0.5890  0.3284 -0.6564
15546SOL    HW252731   2.506   1.683   2.911 -0.6574 -0.2332 -1.1552
15547SOL     OW52732   4.949   8.300   6.420 -0.1246  0.4230  0.3823
15547SOL    HW152733   4.929   8.277   6.511  1.0271  0.1924  0.5925
15547SOL    HW252734   5.009   8.232   6.390  0.1589  0.9521 -0.2893
15548SOL     OW52735  10.068   9.948   5.386  0.0991 -0.6108 -0.3176
15548SOL    HW152736  10.098   9.952   5.296 -0.3175  0.4773 -0.4293
15548SOL    HW252737   9.984   9.902   5.383 -0.4443  0.3732 -0.6525
15549SOL     OW52738   9.689   2.715   8.158  0.2718 -0.1165  0.3603
15549SOL    HW152739   9.704   2.807   8.139 -0.5579 -0.3294 -1.5618
15549SOL    HW252740   9.667   2.713   8.251  0.4373  1.6006  0.4693
15550SOL     OW52741   9.759   4.658   0.078  0.6677 -0.7408 -0.5891
15550SOL    HW152742   9.789   4.716   0.007 -1.7409  1.1012 -0.2335
15550SOL    HW252743   9.835   4.649   0.135  1.4683  1.1380 -1.2854
15551SOL     OW52744   9.883   2.740   5.974  0.6390  0.3186  0.4244
15551SOL    HW152745   9.938   2.694   6.038 -0.0340 -0.4048  0.4906
15551SOL    HW252746   9.919   2.828   5.971 -0.4088  0.9225  3.1294
15552SOL     OW52747   2.074   9.641   0.618 -0.5391 -0.2173  0.0087
15552SOL    HW152748   2.080   9.642   0.713  0.6330  1.6159 -0.0419
15552SOL    HW252749   2.164   9.633   0.587 -0.9316 -1.2391 -0.9793
15553SOL     OW52750   0.947   6.051   7.111 -0.3219 -0.2400 -0.9367
15553SOL    HW152751   1.029   6.094   7.135 -1.0070  0.3891  0.4092
15553SOL    HW252752   0.929   6.080   7.022 -0.0317  1.1443 -0.5650
15554SOL     OW52753   2.337   0.499   6.178  0.2596  0.2499  0.3987
15554SOL    HW152754   2.317   0.561   6.108 -0.3403  1.0406  1.2336
15554SOL    HW252755   2.332   0.413   6.137 -0.2832  0.6867 -0.4793
15555SOL     OW52756   7.425   1.714   6.023 -0.2379 -0.0082 -0.2203
15555SOL    HW152757   7.493   1.648   6.012 -0.1073 -0.1548  1.3075
15555SOL    HW252758   7.453   1.766   6.098 -0.0525  2.1661 -1.6688
15556SOL     OW52759   6.686   9.056  10.260 -0.1453 -0.1773  0.0771
15556SOL    HW152760   6.675   9.141  10.303  0.3660  0.8048 -1.6483
15556SOL    HW252761   6.777   9.056  10.229  0.2427 -1.8794  1.0699
15557SOL     OW52762   8.758   7.476   3.633 -0.4963 -0.2682  0.0754
15557SOL    HW152763   8.737   7.471   3.540  1.9088  1.1818 -0.6455
15557SOL    HW252764   8.823   7.546   3.639 -0.0828 -0.7684  2.7675
15558SOL     OW52765   9.730   2.425   0.679  0.1495 -0.7987 -0.4477
15558SOL    HW152766   9.689   2.512   0.675 -0.2589 -0.8472  1.4295
15558SOL    HW252767   9.824   2.444   0.678  0.0641 -0.3583 -0.5327
15559SOL     OW52768   7.582  10.889   9.658  0.4124  0.0452 -0.9503
15559SOL    HW152769   7.598  10.880   9.752  0.1402 -0.0726 -0.9152
15559SOL    HW252770   7.513  10.956   9.652 -3.0746 -3.1948 -0.7637
15560SOL     OW52771   2.989   3.271   8.727  0.0133 -0.1417  0.2557
15560SOL    HW152772   3.019   3.206   8.791  2.0366  0.3351 -0.1252
15560SOL    HW252773   3.051   3.344   8.736 -0.0189  0.1959 -1.7857
15561SOL     OW52774   0.482  10.007   6.217 -0.0319 -0.1437  0.4795
15561SOL    HW152775   0.445  10.059   6.145  0.9606  1.0214  0.7806
15561SOL    HW252776   0.478   9.917   6.186  0.3704  0.3356 -1.0374
15562SOL     OW52777   2.530   4.753   7.762  0.2648 -0.1186  0.0570
15562SOL    HW152778   2.549   4.831   7.710  0.5894  0.4371  0.9710
15562SOL    HW252779   2.434   4.752   7.769  0.2905  0.9520  1.0865
15563SOL     OW52780   1.057   3.232   2.571  0.7593 -0.7347 -0.4386
15563SOL    HW152781   1.089   3.143   2.585  0.4039 -1.3377 -2.9296
15563SOL    HW252782   1.001   3.226   2.493  0.7447  1.6564 -0.7099
15564SOL     OW52783   9.937   6.436   7.803  0.1252  0.2969 -0.4869
15564SOL    HW152784  10.026   6.421   7.772  0.3246 -1.9125  0.9753
15564SOL    HW252785   9.892   6.352   7.791 -1.6821  1.2444 -0.8323
15565SOL     OW52786   0.694   1.915   5.606  0.2426  0.0889 -0.0245
15565SOL    HW152787   0.636   1.886   5.536 -0.6463  0.6718  0.4624
15565SOL    HW252788   0.703   2.009   5.592 -0.0023  0.2201  0.6965
15566SOL     OW52789  10.222   8.325   3.327 -0.3750  0.1561  0.4635
15566SOL    HW152790  10.222   8.271   3.406 -2.7090 -0.5242  0.0752
15566SOL    HW252791  10.137   8.309   3.287 -1.0382  3.7557  0.0602
15567SOL     OW52792   4.517   3.396   0.113 -0.1451 -0.3027  0.0672
15567SOL    HW152793   4.486   3.305   0.114 -0.2779 -0.2668 -0.3023
15567SOL    HW252794   4.487   3.432   0.196 -1.1384 -0.2613 -0.3002
15568SOL     OW52795   9.608   0.714   6.016  0.1104  0.2845 -0.2486
15568SOL    HW152796   9.667   0.692   5.943  1.1042 -0.6898  0.7938
15568SOL    HW252797   9.563   0.632   6.036  0.2140  0.4132  0.5447
15569SOL     OW52798   0.351   8.255  10.255 -0.1147 -0.0875 -0.0096
15569SOL    HW152799   0.291   8.327  10.238  2.3228  2.0630 -0.2004
15569SOL    HW252800   0.307   8.201  10.321 -1.2977  2.6879  1.6411
15570SOL     OW52801   8.709   0.339   3.999 -0.2016 -0.3870 -0.3616
15570SOL    HW152802   8.624   0.310   4.032  0.2437 -1.8549 -0.4469
15570SOL    HW252803   8.696   0.432   3.980 -1.2868 -0.1546  1.2385
15571SOL     OW52804   5.755   4.225   1.851 -0.4076  0.3263 -0.1795
15571SOL    HW152805   5.676   4.246   1.901  0.2792  0.0420  1.0609
15571SOL    HW252806   5.797   4.154   1.900 -0.4951 -1.0428 -2.0157
15572SOL     OW52807   2.533   5.592   5.812 -0.4134  0.2901 -0.2864
15572SOL    HW152808   2.446   5.628   5.794 -0.5010  0.1940 -0.0701
15572SOL    HW252809   2.518   5.531   5.884  0.0991  1.4788  0.8737
15573SOL     OW52810   9.280   9.013   3.080 -0.0936 -0.2384 -0.0803
15573SOL    HW152811   9.267   8.923   3.108  0.6501 -1.1763 -2.5157
15573SOL    HW252812   9.364   9.013   3.035 -0.4866  1.4667 -0.9209
15574SOL     OW52813   2.159   7.843   1.819 -0.2715 -0.3098 -0.8516
15574SOL    HW152814   2.104   7.814   1.892  0.0366  1.9674  0.3934
15574SOL    HW252815   2.245   7.804   1.837  0.0578  0.9927  0.6023
15575SOL     OW52816  10.053   3.667   1.086 -0.0670  0.1015 -0.6323
15575SOL    HW152817  10.070   3.664   0.992 -0.3413 -0.2911 -0.6714
15575SOL    HW252818  10.120   3.611   1.125  0.1155  0.3511 -0.5797
15576SOL     OW52819  10.553   2.752   8.189 -0.4764  0.4105 -0.1695
15576SOL    HW152820  10.572   2.659   8.180 -0.3544  0.4993 -0.9448
15576SOL    HW252821  10.564   2.787   8.100 -0.2076  1.2193  0.1764
15577SOL     OW52822  10.316   7.437   0.289 -0.1272  0.5061  0.1102
15577SOL    HW152823  10.250   7.370   0.307  0.7137 -0.3554  0.0841
15577SOL    HW252824  10.266   7.519   0.282 -1.4071 -0.3460 -1.5821
15578SOL     OW52825  10.925   1.938   5.155 -0.6182 -0.2156  0.6119
15578SOL    HW152826  10.913   2.033   5.159 -0.0121 -0.0489 -0.9675
15578SOL    HW252827  11.013   1.923   5.188 -0.3481 -0.1284 -0.0678
15579SOL     OW52828   4.040  10.670   5.881  0.3341 -0.0986 -0.8066
15579SOL    HW152829   4.087  10.591   5.908  0.3775 -0.5800 -2.2320
15579SOL    HW252830   3.951  10.657   5.915  0.6510 -0.1691  0.0330
15580SOL     OW52831   4.831   3.593   1.379  0.4295 -0.8267 -0.2854
15580SOL    HW152832   4.754   3.543   1.407 -0.3308 -0.0653 -0.9705
15580SOL    HW252833   4.844   3.568   1.287 -0.5214  0.8729 -0.9308
15581SOL     OW52834   0.696   3.092   5.386 -0.6230  0.1999 -0.0642
15581SOL    HW152835   0.647   3.100   5.305 -2.1105  1.2463  0.9021
15581SOL    HW252836   0.697   2.998   5.404  1.7154 -0.3485 -2.4082
15582SOL     OW52837   9.538   7.771   4.132  0.5257  0.0296  0.9036
15582SOL    HW152838   9.457   7.722   4.143  1.7663 -1.9201  1.8072
15582SOL    HW252839   9.510   7.863   4.130 -1.9026 -0.6512 -1.1877
15583SOL     OW52840   1.727   5.884   6.670  0.0524 -0.5567 -0.2455
15583SOL    HW152841   1.703   5.845   6.754  0.0642  2.6869  1.3971
15583SOL    HW252842   1.666   5.957   6.659  1.2773  0.2600 -2.1232
15584SOL     OW52843  10.816   8.814  10.580  0.5483  0.2764 -0.1601
15584SOL    HW152844  10.909   8.818  10.558  0.1205  1.1550 -1.9840
15584SOL    HW252845  10.783   8.901  10.559 -0.7622 -0.1226  0.1794
15585SOL     OW52846   7.012   1.173   7.258  0.2906  0.0096 -0.4971
15585SOL    HW152847   6.996   1.109   7.328  0.4196  0.5725  0.0606
15585SOL    HW252848   7.041   1.251   7.305 -1.9518  1.2037 -0.9758
15586SOL     OW52849  10.406   1.416   2.994  0.2135 -0.7291 -0.4133
15586SOL    HW152850  10.457   1.497   2.996  0.5424 -0.9347 -0.4324
15586SOL    HW252851  10.391   1.400   2.901  1.5977 -1.5873 -0.5204
15587SOL     OW52852   1.292   7.517  10.609 -0.1202  0.3843 -0.0626
15587SOL    HW152853   1.272   7.567  10.688  1.5403 -0.0204  0.6746
15587SOL    HW252854   1.241   7.559  10.540 -0.8862  1.3433  1.0404
15588SOL     OW52855   9.469   7.582   2.835  0.9535  0.6534  0.0022
15588SOL    HW152856   9.415   7.504   2.825  0.2194  1.1305  0.1945
15588SOL    HW252857   9.516   7.569   2.917  0.1203  0.8343  0.5147
15589SOL     OW52858   1.464   4.267  10.768  0.0295 -0.2029  0.5700
15589SOL    HW152859   1.406   4.278  10.692 -0.3221 -1.1875  0.6775
15589SOL    HW252860   1.515   4.348  10.771  0.1053 -0.1701 -0.7620
15590SOL     OW52861   8.732   6.957   4.236 -0.9506  0.2474  0.4957
15590SOL    HW152862   8.781   7.039   4.226 -0.2410 -0.3294 -1.3460
15590SOL    HW252863   8.798   6.893   4.264 -1.7529  0.5138  3.2269
15591SOL     OW52864   8.761   2.417   6.786 -0.2493  0.0826  0.6423
15591SOL    HW152865   8.746   2.324   6.767 -1.0364  0.4536 -0.7375
15591SOL    HW252866   8.673   2.454   6.791  0.0711  0.9029  0.3215
15592SOL     OW52867   4.811   5.175   4.298 -0.0122  0.0668  0.0826
15592SOL    HW152868   4.814   5.112   4.371  0.4877  0.1166  0.1137
15592SOL    HW252869   4.739   5.145   4.243 -1.6476  1.0984  1.5487
15593SOL     OW52870   2.434  10.483   2.455  0.8574 -0.1159 -0.5843
15593SOL    HW152871   2.432  10.477   2.551  1.4415 -1.6496 -0.6461
15593SOL    HW252872   2.425  10.393   2.425 -0.8285  0.4890 -2.0351
15594SOL     OW52873   2.104   3.627   2.524  0.2370 -0.3456  0.2221
15594SOL    HW152874   2.068   3.696   2.581  2.3151  0.8138  0.2250
15594SOL    HW252875   2.038   3.616   2.456 -0.9370  0.3772  1.1956
15595SOL     OW52876   8.329   0.062  10.298  0.1333  0.2218  0.4480
15595SOL    HW152877   8.371   0.100  10.376  0.5147  0.2812  0.2148
15595SOL    HW252878   8.370  -0.024  10.289 -0.5643 -0.1594  0.8400
15596SOL     OW52879   3.002   0.703   0.205  0.1710 -0.0836  0.1908
15596SOL    HW152880   3.037   0.622   0.240  2.9647  0.5105 -0.9602
15596SOL    HW252881   2.926   0.676   0.153 -0.2798 -1.6444  1.5932
15597SOL     OW52882   9.310   9.701   7.652  0.0740  0.8960  0.5894
15597SOL    HW152883   9.392   9.751   7.654  0.3382  0.8632 -3.0341
15597SOL    HW252884   9.337   9.611   7.633 -0.7159  0.2603  2.2525
15598SOL     OW52885   9.385   4.041   7.083  0.4305  0.4746  0.0110
15598SOL    HW152886   9.305   4.041   7.136  0.4105  0.0581 -0.0229
15598SOL    HW252887   9.428   3.959   7.103  0.8379  0.6836  0.0021
15599SOL     OW52888   6.016   5.000   8.308  0.0163  0.3460 -0.5786
15599SOL    HW152889   6.098   4.968   8.270 -0.5587  0.3159 -1.8524
15599SOL    HW252890   5.958   5.010   8.233 -1.6807 -1.1950  0.4729
15600SOL     OW52891   5.804  10.135   2.710  0.1450  0.5066 -0.5246
15600SOL    HW152892   5.871  10.165   2.648  0.6379 -0.2264 -0.3564
15600SOL    HW252893   5.765  10.058   2.669  1.5970 -0.9925  0.7464
15601SOL     OW52894  10.074   0.777   2.596  0.1011 -0.1156  0.0949
15601SOL    HW152895  10.155   0.826   2.578  0.3768 -0.5540  0.1273
15601SOL    HW252896  10.045   0.748   2.509  0.0211 -0.0207  0.0907
15602SOL     OW52897   4.706  10.649   1.957  0.4924  0.2639  0.1355
15602SOL    HW152898   4.674  10.739   1.961 -0.0908  0.0680 -0.0631
15602SOL    HW252899   4.746  10.641   1.871 -0.5741 -0.0266 -0.3534
15603SOL     OW52900   5.046   0.948   4.364  0.1170 -0.2560 -0.1672
15603SOL    HW152901   4.985   1.012   4.401  1.7310  0.9836  0.5186
15603SOL    HW252902   5.125   0.957   4.418  0.7058 -2.2496 -0.6109
15604SOL     OW52903   0.189   4.345   7.298  0.4244  0.1383  0.0923
15604SOL    HW152904   0.163   4.384   7.381 -2.2837  0.2896 -0.7340
15604SOL    HW252905   0.251   4.407   7.260  1.2379  0.3495  1.7071
15605SOL     OW52906   4.834   0.304   2.178 -0.1156 -0.1835 -0.5741
15605SOL    HW152907   4.749   0.305   2.134 -0.6825 -2.8689  0.3041
15605SOL    HW252908   4.866   0.215   2.166  1.6357  0.1973  0.8863
15606SOL     OW52909   6.147   4.948   3.126  0.1019  0.3580  0.3872
15606SOL    HW152910   6.116   4.884   3.062  1.6002  0.6464 -0.6528
15606SOL    HW252911   6.092   4.932   3.204 -1.0864 -0.6379 -0.6155
15607SOL     OW52912   3.349   7.747   4.949 -0.3447  0.2355 -0.2769
15607SOL    HW152913   3.433   7.789   4.934  0.7887 -1.7057  0.3471
15607SOL    HW252914   3.315   7.729   4.861  0.6699 -0.4220 -0.5423
15608SOL     OW52915   4.764   2.487   3.006 -0.0584 -0.3102 -0.0389
15608SOL    HW152916   4.774   2.424   2.935 -0.6213  0.8294 -1.1933
15608SOL    HW252917   4.820   2.455   3.076  0.2705 -1.6496 -0.8844
15609SOL     OW52918   6.790   5.484   7.837  0.0306 -0.9628  0.3194
15609SOL    HW152919   6.846   5.560   7.824 -1.2964 -0.0339 -0.2038
15609SOL    HW252920   6.768   5.485   7.930 -1.7366  0.6299 -0.0490
15610SOL     OW52921  10.545   6.128   0.755  0.2388  0.0110 -0.0402
15610SOL    HW152922  10.617   6.071   0.726  0.1752  0.2090 -0.5959
15610SOL    HW252923  10.584   6.215   0.759  0.2224 -0.0019  0.3850
15611SOL     OW52924   3.018   9.849   3.078 -0.0354 -0.0727 -0.2474
15611SOL    HW152925   2.967   9.928   3.096  0.1514 -0.0847  0.3440
15611SOL    HW252926   3.103   9.865   3.117 -0.0691 -0.6559  0.0816
15612SOL     OW52927   7.787   4.355   8.843  0.2935 -0.0974  0.1491
15612SOL    HW152928   7.732   4.400   8.778  1.0088  0.0763 -0.3445
15612SOL    HW252929   7.747   4.268   8.851  0.0153 -0.0161 -0.2943
15613SOL     OW52930   3.832  10.776   6.795  0.1658 -0.5512 -0.4153
15613SOL    HW152931   3.904  10.796   6.736  0.6259 -2.0509 -0.4034
15613SOL    HW252932   3.758  10.827   6.762  1.1234  0.7145 -0.6497
15614SOL     OW52933   8.822   5.246   3.019 -0.0815 -0.1648 -0.2685
15614SOL    HW152934   8.886   5.186   3.058 -0.0756  0.9786  1.6201
15614SOL    HW252935   8.874   5.324   2.996 -0.4583 -0.0199 -0.6332
15615SOL     OW52936   4.343   4.896   8.373  0.4577 -0.1175 -0.2503
15615SOL    HW152937   4.311   4.984   8.392  0.6411  0.0490 -0.6966
15615SOL    HW252938   4.432   4.909   8.341 -0.2264 -0.2586 -2.3739
15616SOL     OW52939   5.362   4.097   6.225 -0.3578  0.4328 -0.0060
15616SOL    HW152940   5.324   4.122   6.309  0.2829  0.8147  0.1771
15616SOL    HW252941   5.321   4.157   6.162 -0.2725  0.6575  0.1498
15617SOL     OW52942   8.613   2.809  10.087  0.0360  0.3017  0.4982
15617SOL    HW152943   8.568   2.754  10.151 -0.4108  0.2579  0.1463
15617SOL    HW252944   8.543   2.847  10.033  0.4414 -2.3195 -2.1719
15618SOL     OW52945   9.028   1.330   2.961  0.0532  0.7854  0.6551
15618SOL    HW152946   8.985   1.415   2.975 -1.9987  0.1636 -1.2331
15618SOL    HW252947   9.099   1.349   2.900  0.0139  1.2388  0.7459
15619SOL     OW52948   2.435   0.371   7.441 -0.4343 -0.2097 -0.1273
15619SOL    HW152949   2.464   0.281   7.453 -2.3512 -0.8535 -0.1602
15619SOL    HW252950   2.387   0.371   7.358 -1.5867  0.5285  0.5087
15620SOL     OW52951   5.100   8.208   6.849 -0.3295  0.5197 -0.4584
15620SOL    HW152952   5.114   8.260   6.770  1.6632 -1.5331 -1.5721
15620SOL    HW252953   5.039   8.260   6.902 -0.9998  2.3990 -2.9061
15621SOL     OW52954   0.240   0.214   0.404 -0.1741 -0.2749  0.3206
15621SOL    HW152955   0.200   0.297   0.378  0.7381 -0.3538 -1.5494
15621SOL    HW252956   0.207   0.197   0.492 -2.2757  0.8490 -0.1955
15622SOL     OW52957   3.952   2.443   3.452  0.3296  0.2193  0.1009
15622SOL    HW152958   3.980   2.435   3.361 -1.2967  0.7073 -0.4738
15622SOL    HW252959   3.955   2.537   3.470 -1.8463  0.4338 -0.3401
15623SOL     OW52960   4.549   7.188   0.122 -0.2153 -0.0252  0.1566
15623SOL    HW152961   4.588   7.266   0.082 -1.9628 -0.3157 -2.3438
15623SOL    HW252962   4.622   7.130   0.140  0.8606  1.0965 -0.4850
15624SOL     OW52963   7.047  10.070   2.254 -0.0228  0.4478 -0.3092
15624SOL    HW152964   7.042   9.987   2.302 -1.3913  0.9123  0.3981
15624SOL    HW252965   7.059  10.136   2.322 -0.6835  0.9889 -0.7112
15625SOL     OW52966  10.362   4.987   7.459 -0.0035 -0.3020  0.2395
15625SOL    HW152967  10.384   5.066   7.409  0.9534 -0.2643  0.7066
15625SOL    HW252968  10.410   4.997   7.541  1.0887 -1.9333 -0.1723
15626SOL     OW52969   5.113   8.158   5.206  0.3261  0.0723 -0.4199
15626SOL    HW152970   5.154   8.134   5.289 -0.5811  0.6791  0.2254
15626SOL    HW252971   5.184   8.192   5.152  1.1005 -1.2375 -0.2628
15627SOL     OW52972   1.263   0.045   4.108  0.8398  0.1052 -0.1207
15627SOL    HW152973   1.330   0.111   4.125  0.7727 -0.0028  0.6014
15627SOL    HW252974   1.231   0.020   4.195  0.0598 -0.0504 -0.4401
15628SOL     OW52975  10.744   2.781   1.533 -0.1934  0.0924  0.7038
15628SOL    HW152976  10.838   2.797   1.539 -0.1706 -0.2078  1.3600
15628SOL    HW252977  10.722   2.796   1.442  0.0010  2.7856  1.0216
15629SOL     OW52978   0.638  10.273   1.003 -0.5604  0.3633  0.4044
15629SOL    HW152979   0.610  10.203   1.062 -0.1789 -0.8943 -0.8660
15629SOL    HW252980   0.564  10.285   0.944 -0.1942  0.2479 -0.0806
15630SOL     OW52981   6.633   6.426   4.616 -0.1546 -0.3698 -0.0465
15630SOL    HW152982   6.618   6.423   4.521  0.1784 -4.3021 -0.0984
15630SOL    HW252983   6.727   6.439   4.625 -0.4811  3.1740 -0.0282
15631SOL     OW52984   3.473   3.235  10.755  0.1336  0.4119 -0.1552
15631SOL    HW152985   3.497   3.307  10.814  2.3839 -0.0981 -0.3686
15631SOL    HW252986   3.378   3.232  10.759  0.1472  1.0290  2.7213
15632SOL     OW52987  10.272   0.645   9.555 -0.1149 -0.3848 -0.0341
15632SOL    HW152988  10.356   0.630   9.512 -0.5799 -0.3183 -0.9904
15632SOL    HW252989  10.208   0.643   9.484 -1.0995 -1.8812  0.8196
15633SOL     OW52990   4.050   8.444   5.252 -0.1931  0.6589  0.4844
15633SOL    HW152991   4.118   8.478   5.309 -0.8143  1.2023  0.9216
15633SOL    HW252992   3.973   8.498   5.271 -0.1474  1.5640 -1.5995
15634SOL     OW52993   4.589   3.748   3.828 -0.1481  0.2962  0.3605
15634SOL    HW152994   4.552   3.660   3.831 -1.5196  0.8881  2.6124
15634SOL    HW252995   4.561   3.790   3.909  3.0167  1.8400  0.8026
15635SOL     OW52996   8.494   7.315   7.173 -0.0266 -0.5087 -0.2146
15635SOL    HW152997   8.549   7.393   7.160  0.4700 -0.5289  1.4403
15635SOL    HW252998   8.406   7.350   7.186  0.1792 -0.2145  0.4415
15636SOL     OW52999   2.703   9.734   9.094  0.6584  0.0482 -0.1835
15636SOL    HW153000   2.624   9.719   9.146  1.6051 -0.3034  1.2224
15636SOL    HW253001   2.707   9.829   9.084  0.2144  0.0897  0.0050
15637SOL     OW53002   3.243   5.762   6.799  0.6593  0.0491  0.3345
15637SOL    HW153003   3.293   5.843   6.788 -0.1482  0.4059 -0.8817
15637SOL    HW253004   3.168   5.787   6.853  0.5730  0.0532  0.2145
15638SOL     OW53005   6.021   5.547   2.972  0.2355  0.4536 -0.1789
15638SOL    HW153006   5.990   5.496   2.897  0.0148 -0.0006  0.2141
15638SOL    HW253007   5.962   5.622   2.976  0.4367  0.6364 -0.6437
15639SOL     OW53008   4.222   5.450   2.568 -0.2226  0.3515  0.4497
15639SOL    HW153009   4.203   5.539   2.537  0.4932 -0.1966 -1.8017
15639SOL    HW253010   4.234   5.399   2.487 -0.0044 -1.6609  1.6824
15640SOL     OW53011   6.467   3.509   3.512 -0.1725 -0.2568 -0.3320
15640SOL    HW153012   6.506   3.510   3.599  1.1603  0.0277 -0.9036
15640SOL    HW253013   6.377   3.480   3.526  0.0606 -0.3477  1.1136
15641SOL     OW53014   7.510   5.563   8.934  0.0781  0.6818 -0.2734
15641SOL    HW153015   7.585   5.601   8.981 -0.1485 -1.0321  1.6023
15641SOL    HW253016   7.436   5.574   8.994 -1.1054  1.8077 -1.8474
15642SOL     OW53017   2.292  10.371   8.521 -0.0180 -0.2684  0.1755
15642SOL    HW153018   2.279  10.435   8.590 -1.1713 -0.0958 -0.1757
15642SOL    HW253019   2.354  10.412   8.460 -1.4240  0.9199 -0.5065
15643SOL     OW53020   5.722   2.953   8.271  0.5281  0.0118  0.1549
15643SOL    HW153021   5.722   2.988   8.360 -1.7878 -0.5728  0.4665
15643SOL    HW253022   5.646   2.993   8.229 -0.2131 -1.9722 -0.5636
15644SOL     OW53023   6.285   9.154   0.469  0.4303 -0.5807  0.1861
15644SOL    HW153024   6.235   9.098   0.528  0.7550 -1.0195  0.0474
15644SOL    HW253025   6.365   9.174   0.517  0.1617  0.0670  0.3811
15645SOL     OW53026   3.190   0.282   5.419  0.0900  0.5196 -0.4726
15645SOL    HW153027   3.174   0.372   5.392 -1.7006  0.3371 -0.1926
15645SOL    HW253028   3.264   0.287   5.479  0.6009  1.6593 -1.1638
15646SOL     OW53029   2.519   9.483   3.174 -0.6217 -0.0590  0.6355
15646SOL    HW153030   2.604   9.476   3.216 -0.8170  0.0493  1.0578
15646SOL    HW253031   2.538   9.518   3.087  0.0172 -2.4307 -0.2456
15647SOL     OW53032   9.466   1.324   3.530  0.7732  0.3716  0.4017
15647SOL    HW153033   9.501   1.256   3.473  2.2719  0.2873  1.3533
15647SOL    HW253034   9.381   1.346   3.492  0.2747 -1.9462 -0.0060
15648SOL     OW53035   0.631   7.020   7.244 -0.3576 -0.0582  0.4206
15648SOL    HW153036   0.584   6.943   7.276 -0.7579  0.6807  1.6919
15648SOL    HW253037   0.562   7.084   7.226  0.0205  0.2513  0.0597
15649SOL     OW53038   3.275   8.078   1.681  1.2196 -1.1054 -0.4698
15649SOL    HW153039   3.208   8.071   1.614  0.9355  0.7677 -0.4362
15649SOL    HW253040   3.351   8.115   1.636  0.8946  0.5570  0.2855
15650SOL     OW53041   7.510   9.108   8.514  0.1752  0.1482  0.5221
15650SOL    HW153042   7.545   9.074   8.431 -1.2378  0.0993 -0.0697
15650SOL    HW253043   7.550   9.195   8.522 -2.1980  1.6136 -1.9509
15651SOL     OW53044   7.906   8.515   6.963  0.5751 -0.4516  0.0700
15651SOL    HW153045   7.891   8.600   6.923 -1.6249 -0.7580  0.0986
15651SOL    HW253046   7.898   8.530   7.057  0.6036 -0.6088  0.0992
15652SOL     OW53047   1.968  10.209   3.865 -0.3637 -0.4700  0.2045
15652SOL    HW153048   1.873  10.207   3.854 -0.6048  3.8356 -0.0777
15652SOL    HW253049   2.003  10.160   3.790 -2.3258  0.0924 -1.1212
15653SOL     OW53050   2.418   3.602   5.038  0.2138 -0.1561  0.3763
15653SOL    HW153051   2.471   3.682   5.046  1.3280 -0.8105 -0.1228
15653SOL    HW253052   2.338   3.631   4.995  0.7224  0.6544 -0.0652
15654SOL     OW53053   1.039   0.391   1.540 -0.0358  0.5431 -0.1836
15654SOL    HW153054   1.016   0.341   1.461 -0.6407  0.0928  0.2632
15654SOL    HW253055   1.103   0.455   1.510 -1.2869  1.3178 -1.3307
15655SOL     OW53056   5.536   7.468   7.929 -0.0280 -0.0461 -0.1406
15655SOL    HW153057   5.613   7.514   7.962  0.9450 -1.4466 -0.4061
15655SOL    HW253058   5.472   7.538   7.913  0.7221  1.0166  1.2717
15656SOL     OW53059   9.133   0.833   7.829  0.0376 -0.0276 -0.1022
15656SOL    HW153060   9.112   0.818   7.737  1.1760  0.1988 -0.4083
15656SOL    HW253061   9.165   0.749   7.861  1.7196  0.4160 -0.5140
15657SOL     OW53062   1.485   7.163   4.146  0.2331  0.0547 -0.4677
15657SOL    HW153063   1.578   7.145   4.138  0.0752 -0.1668 -2.2176
15657SOL    HW253064   1.473   7.247   4.101 -0.3277  0.3723  0.2514
15658SOL     OW53065   6.519   5.343   3.596  0.2267 -0.4418  0.1137
15658SOL    HW153066   6.488   5.312   3.510 -0.2660  0.3123  0.0097
15658SOL    HW253067   6.496   5.273   3.656 -1.6250  0.0464  0.0212
15659SOL     OW53068   9.418   1.422   7.981 -0.0618  0.4162  0.2946
15659SOL    HW153069   9.379   1.413   7.894 -0.9088  2.1348  0.4469
15659SOL    HW253070   9.511   1.438   7.965  0.0824 -0.7867 -0.1996
15660SOL     OW53071   1.289   0.832   7.492 -0.0161 -0.1085  0.4949
15660SOL    HW153072   1.333   0.764   7.441 -0.3732 -0.6038  0.8423
15660SOL    HW253073   1.208   0.850   7.444  0.3546  0.5040  0.0828
15661SOL     OW53074   1.040   9.978   9.497 -0.0727 -0.1946  0.3505
15661SOL    HW153075   1.122   9.932   9.514  0.7855  1.0736 -0.1864
15661SOL    HW253076   0.992   9.972   9.580  0.2767 -1.4972  0.4708
15662SOL     OW53077   3.280   4.013   5.671  0.2520 -0.5799  0.1360
15662SOL    HW153078   3.248   4.098   5.701 -1.5349 -0.7413 -1.1406
15662SOL    HW253079   3.370   4.030   5.643 -0.1211  0.9402 -0.2509
15663SOL     OW53080   6.079   1.295   2.374  0.3838  0.2103 -0.8510
15663SOL    HW153081   6.159   1.327   2.417 -0.9738  2.7715 -0.0302
15663SOL    HW253082   6.055   1.217   2.423  1.1464  0.7065  0.3575
15664SOL     OW53083   7.322   9.677   7.597 -0.0473  0.5736  0.1851
15664SOL    HW153084   7.282   9.604   7.550 -0.5988 -0.2470  1.8525
15664SOL    HW253085   7.401   9.640   7.636 -0.0719  0.9971  0.6366
15665SOL     OW53086   6.713   1.276   0.849  0.0214 -0.3156 -0.0381
15665SOL    HW153087   6.648   1.206   0.857 -2.3160  1.7827  0.6993
15665SOL    HW253088   6.736   1.298   0.939 -0.7648  1.0934 -0.1464
15666SOL     OW53089   5.167   0.230   9.141  0.0778  0.3113 -0.2855
15666SOL    HW153090   5.084   0.276   9.136  0.3489  0.7935 -0.4397
15666SOL    HW253091   5.233   0.298   9.128  0.4808 -0.1343 -0.6145
15667SOL     OW53092   5.446   1.891   3.120 -0.1437  0.0956 -0.0119
15667SOL    HW153093   5.501   1.877   3.043 -1.2848  0.1813 -0.8705
15667SOL    HW253094   5.450   1.985   3.136 -0.7789  0.2403 -0.6589
15668SOL     OW53095  10.219   4.734   9.830  0.6136  0.1286  0.0763
15668SOL    HW153096  10.255   4.756   9.744 -1.8904 -1.5717 -1.5670
15668SOL    HW253097  10.185   4.817   9.864 -0.3576  0.4962 -1.6663
15669SOL     OW53098   2.880   3.885   2.038  0.1760  0.2492 -0.1653
15669SOL    HW153099   2.873   3.949   2.109 -0.0577  0.3513 -0.2811
15669SOL    HW253100   2.933   3.928   1.972 -1.1414  0.8755 -0.8532
15670SOL     OW53101   2.712   1.312   4.856  0.3967 -0.0780 -0.3273
15670SOL    HW153102   2.638   1.351   4.810  0.1191  0.2642  0.3938
15670SOL    HW253103   2.673   1.249   4.917  0.6979  0.0459  0.0008
15671SOL     OW53104   0.700   8.006   4.384  0.1281 -0.0037 -0.4914
15671SOL    HW153105   0.795   8.019   4.376  0.4980 -2.0554 -0.0599
15671SOL    HW253106   0.691   7.927   4.437 -1.8639  0.7329  0.3567
15672SOL     OW53107   5.057   6.749   6.043 -0.8102 -0.0501  0.0027
15672SOL    HW153108   5.012   6.668   6.020 -0.5718  0.2239 -1.5340
15672SOL    HW253109   5.150   6.725   6.046 -0.8212 -0.0420  0.5519
15673SOL     OW53110   1.492   1.577   3.391  0.1594  0.5086 -0.0745
15673SOL    HW153111   1.508   1.483   3.397  1.1160  0.6702  0.0904
15673SOL    HW253112   1.565   1.610   3.338  1.3283  1.5285  2.0650
15674SOL     OW53113   4.479   5.671   3.434  0.0125  0.2834  0.3465
15674SOL    HW153114   4.429   5.662   3.353  1.4134 -0.8169 -0.4442
15674SOL    HW253115   4.512   5.583   3.452  0.8323  0.7720  1.3768
15675SOL     OW53116   1.449   1.494  10.858  0.2598  0.6848 -0.1679
15675SOL    HW153117   1.443   1.586  10.885 -1.0769  0.5402  0.0608
15675SOL    HW253118   1.369   1.478  10.809  0.8258 -0.1747 -0.8381
15676SOL     OW53119   2.750   6.453   4.623 -0.9994  0.1285  0.6475
15676SOL    HW153120   2.746   6.549   4.626  1.3265  0.2870  0.4309
15676SOL    HW253121   2.843   6.432   4.635 -0.6222 -1.8468 -3.7043
15677SOL     OW53122   7.317   9.055   7.313  0.0059 -0.3515 -0.7172
15677SOL    HW153123   7.329   8.961   7.327 -0.6469 -0.3924 -0.3949
15677SOL    HW253124   7.381   9.078   7.245  0.1322 -1.0351 -0.8340
15678SOL     OW53125   3.959   1.284   0.642 -0.1614 -0.6311  0.0423
15678SOL    HW153126   4.023   1.214   0.634 -0.2012 -0.5597 -1.1165
15678SOL    HW253127   3.884   1.254   0.590  0.0229  0.4780 -0.9032
15679SOL     OW53128   4.731   3.793   6.331 -0.0917  0.4431  0.3361
15679SOL    HW153129   4.742   3.857   6.261  0.0430 -1.1315 -1.1268
15679SOL    HW253130   4.651   3.746   6.309  0.3037 -0.5102  0.9005
15680SOL     OW53131   8.543   0.727   1.643 -0.0789  0.2654 -0.0506
15680SOL    HW153132   8.471   0.670   1.672 -0.7677  1.1461  0.0045
15680SOL    HW253133   8.619   0.694   1.691 -1.0435  1.2419  2.3209
15681SOL     OW53134  10.115   9.261   9.492  0.0672 -0.3114 -0.1474
15681SOL    HW153135  10.133   9.355   9.486 -0.0748 -0.2359  0.5796
15681SOL    HW253136  10.076   9.239   9.408  1.1754  0.0403 -0.7786
15682SOL     OW53137   7.669   9.662   3.235 -0.5374 -0.1104 -0.1825
15682SOL    HW153138   7.598   9.692   3.179 -1.8412 -0.6544  1.0883
15682SOL    HW253139   7.646   9.571   3.256 -1.5032  0.7340  3.1300
15683SOL     OW53140   3.489   0.541   8.817 -0.2209 -0.4085  0.3135
15683SOL    HW153141   3.575   0.555   8.778  0.4573 -0.6632  1.6726
15683SOL    HW253142   3.484   0.604   8.889 -0.3609 -1.6954  1.4744
15684SOL     OW53143   2.625  10.649   9.194 -0.2282 -0.0788  0.2742
15684SOL    HW153144   2.602  10.557   9.182  0.3011 -0.3017  0.8857
15684SOL    HW253145   2.560  10.682   9.256 -2.1344  0.7215 -1.9665
15685SOL     OW53146   8.129  10.884   4.925 -0.6563 -0.0204  0.3545
15685SOL    HW153147   8.064  10.815   4.940 -0.6266 -0.2524 -0.5257
15685SOL    HW253148   8.090  10.938   4.856 -0.5629  0.7027  0.8564
15686SOL     OW53149   7.302   5.050   9.750 -0.0271 -0.4484  0.1294
15686SOL    HW153150   7.304   4.957   9.773  1.3450 -0.5569 -0.3153
15686SOL    HW253151   7.383   5.064   9.700 -0.8850  0.6824 -1.0144
15687SOL     OW53152  10.602   3.299   2.745 -0.3093 -0.5774 -0.6092
15687SOL    HW153153  10.655   3.289   2.667  1.3264  0.1331  0.3447
15687SOL    HW253154  10.634   3.232   2.805 -0.2104  0.1005  0.1165
15688SOL     OW53155   0.202   1.638   6.456  0.2475  0.4730  0.3354
15688SOL    HW153156   0.288   1.679   6.451  0.3279  0.2326 -0.5048
15688SOL    HW253157   0.141   1.711   6.467  0.4210  0.8156 -0.7834
15689SOL     OW53158   6.612   9.248   0.872  0.2787 -0.2509  0.1162
15689SOL    HW153159   6.599   9.296   0.790  1.2911 -0.2396 -0.0568
15689SOL    HW253160   6.682   9.185   0.852 -1.7148 -2.5789  0.0316
15690SOL     OW53161   4.574   6.466   1.453  0.4944  0.2934  0.0300
15690SOL    HW153162   4.516   6.472   1.376  0.9654  2.1263 -0.2411
15690SOL    HW253163   4.634   6.395   1.432 -0.0745  0.0342 -0.8035
15691SOL     OW53164   4.651   7.908   1.501 -0.4974 -0.3657  0.1297
15691SOL    HW153165   4.685   7.840   1.559  0.5065 -0.1873 -0.2240
15691SOL    HW253166   4.673   7.990   1.544 -1.1980 -0.2445  0.2746
15692SOL     OW53167   0.093   6.448   6.364 -0.2734 -0.3451  0.6115
15692SOL    HW153168   0.170   6.415   6.411  0.7011 -2.8803 -2.4073
15692SOL    HW253169   0.063   6.521   6.416  2.2621 -1.2517  3.6630
15693SOL     OW53170  10.921   8.765   7.501 -0.1981  0.1757  0.0839
15693SOL    HW153171  10.889   8.709   7.571 -1.5857 -0.9546 -1.3746
15693SOL    HW253172  10.972   8.707   7.445  0.3325  0.9127 -0.2145
15694SOL     OW53173   6.662   6.218   7.316 -0.1483 -0.3578 -0.4274
15694SOL    HW153174   6.585   6.264   7.351 -0.3494  0.7794 -2.2286
15694SOL    HW253175   6.660   6.237   7.222  2.3646 -0.3005 -0.5160
15695SOL     OW53176   6.370   0.375   0.965  0.2424  0.3963  0.6564
15695SOL    HW153177   6.429   0.331   0.904 -0.0821  1.4447 -0.4551
15695SOL    HW253178   6.317   0.305   1.003 -0.4989 -0.1667 -1.3292
15696SOL     OW53179   9.222   3.960   8.347  0.3069  0.4251  0.0945
15696SOL    HW153180   9.257   3.977   8.259  0.1760 -0.6871 -0.1869
15696SOL    HW253181   9.240   3.868   8.362 -0.3460  0.4294  0.9416
15697SOL     OW53182   8.229   9.545  10.662 -0.0112  0.1866  0.3407
15697SOL    HW153183   8.300   9.569  10.603 -0.9046  2.3619  0.0528
15697SOL    HW253184   8.186   9.628  10.683 -1.3930 -0.8540  1.8964
15698SOL     OW53185   9.639   8.859   2.165  0.2392 -0.0830 -0.2886
15698SOL    HW153186   9.697   8.782   2.170 -0.3610 -0.5640 -0.5403
15698SOL    HW253187   9.586   8.854   2.245 -0.3825 -0.4180 -0.7122
15699SOL     OW53188   8.381   1.574   9.140 -0.2588  0.0102 -0.4969
15699SOL    HW153189   8.302   1.617   9.107 -1.0288 -1.2729 -0.3680
15699SOL    HW253190   8.451   1.603   9.080 -0.7186  1.4835 -0.3685
15700SOL     OW53191   4.272   8.782   9.849 -0.0500  0.3320 -0.4675
15700SOL    HW153192   4.222   8.732   9.785 -0.6083  1.8910 -1.3013
15700SOL    HW253193   4.225   8.865   9.858  0.7042  0.6458  1.0510
15701SOL     OW53194   5.956  10.666   2.495  0.6006  0.1486 -0.1640
15701SOL    HW153195   6.007  10.731   2.545  0.5486 -0.3610  0.5779
15701SOL    HW253196   5.881  10.715   2.461 -0.7062  0.0492  2.3380
15702SOL     OW53197   6.865  10.782   1.434 -0.1936 -0.6100  0.0276
15702SOL    HW153198   6.823  10.699   1.410  1.5588 -2.2198  2.1030
15702SOL    HW253199   6.878  10.776   1.529  2.1375  0.9837 -0.1150
15703SOL     OW53200   3.909   5.228   0.171 -0.2629 -0.2660 -0.1375
15703SOL    HW153201   3.918   5.275   0.254 -0.9487 -0.7021  0.1983
15703SOL    HW253202   3.944   5.288   0.105  0.7505 -0.1123  0.5219
15704SOL     OW53203   9.497   1.837   6.311  0.1914 -0.0772 -0.5188
15704SOL    HW153204   9.520   1.800   6.396 -0.4213 -2.4027 -1.2816
15704SOL    HW253205   9.410   1.875   6.324  0.7419  0.9765  0.2367
15705SOL     OW53206   1.011   1.221  10.599  0.5018 -0.3567 -0.2065
15705SOL    HW153207   1.027   1.141  10.649 -0.9763 -0.8589 -0.4741
15705SOL    HW253208   0.925   1.207  10.559  0.8375  0.7935 -1.3933
15706SOL     OW53209   2.230   2.199   2.294  0.5531  0.0217  0.1956
15706SOL    HW153210   2.190   2.124   2.252  3.1479 -0.8422 -0.9694
15706SOL    HW253211   2.242   2.172   2.385  0.4857 -0.5673  0.0326
15707SOL     OW53212   6.516   5.548   1.398  0.1769  0.1807 -1.0889
15707SOL    HW153213   6.473   5.490   1.335  0.4869 -0.8372 -0.3844
15707SOL    HW253214   6.443   5.591   1.444 -0.0759 -0.4626 -0.8783
15708SOL     OW53215   1.280   1.741   0.402  0.1420  0.3216 -0.4188
15708SOL    HW153216   1.186   1.752   0.392 -0.0278  2.2687  2.3948
15708SOL    HW253217   1.293   1.646   0.403 -1.9652  0.0087  0.5235
15709SOL     OW53218  10.857   9.520   6.741  0.4678  0.1376  0.0801
15709SOL    HW153219  10.925   9.560   6.796  1.4032 -0.8222 -0.3367
15709SOL    HW253220  10.851   9.576   6.664  0.1738  0.6915  0.4998
15710SOL     OW53221   2.806   6.051   8.081 -0.7921  0.0506 -0.3022
15710SOL    HW153222   2.857   6.047   8.162 -0.8492 -2.4694 -0.2894
15710SOL    HW253223   2.835   6.131   8.038  1.1711  0.1081  1.0019
15711SOL     OW53224   3.620   0.199   7.740  0.0690 -0.1119  0.0075
15711SOL    HW153225   3.701   0.250   7.743  0.7085 -1.0603 -0.4602
15711SOL    HW253226   3.613   0.169   7.649 -1.4067  0.8658 -0.2209
15712SOL     OW53227   4.262   6.925   6.411  0.0868 -0.1544 -0.4195
15712SOL    HW153228   4.208   6.848   6.396  0.3412 -0.3225 -0.4630
15712SOL    HW253229   4.318   6.932   6.333  1.6283 -1.2074  0.5462
15713SOL     OW53230   3.855   4.923   4.624  0.1098 -0.2560  0.5054
15713SOL    HW153231   3.803   4.903   4.702 -1.6083  1.3406 -0.1544
15713SOL    HW253232   3.872   4.837   4.584  0.5901 -1.0523  2.3426
15714SOL     OW53233   5.944   6.695   4.983 -0.4394 -0.4745 -0.3456
15714SOL    HW153234   5.890   6.763   4.942 -0.0539 -0.7139 -1.2707
15714SOL    HW253235   5.917   6.696   5.075 -1.7530 -0.3413 -0.7084
15715SOL     OW53236   5.495   6.631   8.817 -0.3212  0.5180  0.2296
15715SOL    HW153237   5.497   6.577   8.738 -0.7161  1.2524 -0.2982
15715SOL    HW253238   5.403   6.635   8.841 -0.0075 -1.3201  1.8928
15716SOL     OW53239   3.988   5.761   7.767  0.0888  0.6223  0.5627
15716SOL    HW153240   4.025   5.841   7.729 -1.1745  1.2717  0.6472
15716SOL    HW253241   3.903   5.788   7.802  0.0632 -0.5488  1.4686
15717SOL     OW53242   6.254   2.528   8.255 -0.1578  0.7445 -0.2042
15717SOL    HW153243   6.255   2.612   8.209 -0.1261  1.1245  0.4692
15717SOL    HW253244   6.295   2.466   8.194  0.4862  1.3699 -0.4189
15718SOL     OW53245   2.861   6.880   9.660  0.0876  0.5383 -0.1533
15718SOL    HW153246   2.899   6.869   9.573 -0.8846 -1.1271 -0.4190
15718SOL    HW253247   2.848   6.790   9.692  0.2976  1.1167  1.6533
15719SOL     OW53248   5.059   7.526   7.809  0.6085  0.4874 -0.2845
15719SOL    HW153249   4.990   7.568   7.757  0.7428 -0.4484 -1.2436
15719SOL    HW253250   5.136   7.581   7.796  0.1858  1.2527  0.3793
15720SOL     OW53251   7.927   7.278   0.837 -0.4659  0.1658  0.4745
15720SOL    HW153252   7.981   7.326   0.775 -1.2155 -0.4427 -0.6769
15720SOL    HW253253   7.950   7.315   0.922  1.2474  0.3737 -0.0490
15721SOL     OW53254   6.473   4.190   8.377 -0.3638 -1.0137 -0.5347
15721SOL    HW153255   6.456   4.100   8.407 -1.3338 -0.6109  0.1820
15721SOL    HW253256   6.568   4.199   8.381 -0.3187 -1.7200  0.2749
15722SOL     OW53257   3.347   9.688  10.304 -0.1450 -0.1417  0.2230
15722SOL    HW153258   3.416   9.660  10.244  0.7210  0.0759  1.0980
15722SOL    HW253259   3.352   9.784  10.304  0.1678 -0.1550  0.9915
15723SOL     OW53260   8.634   8.537   7.981 -0.5756  0.0338  0.0215
15723SOL    HW153261   8.625   8.494   7.896 -0.5581  1.6661 -0.8366
15723SOL    HW253262   8.661   8.626   7.960 -0.9048  0.5644  1.7290
15724SOL     OW53263   4.178   4.626   9.574  0.1197  0.0929 -0.6496
15724SOL    HW153264   4.111   4.694   9.572 -0.1229 -0.0122  1.3698
15724SOL    HW253265   4.245   4.656   9.513  0.0056  2.1512  0.1509
15725SOL     OW53266  10.025   0.246   8.801 -0.2521 -0.4281 -0.0484
15725SOL    HW153267   9.965   0.192   8.749  1.0668 -0.4411 -1.6308
15725SOL    HW253268  10.106   0.195   8.804  0.2370  0.3636  0.5708
15726SOL     OW53269  10.130   3.796  10.591  0.4161  0.0323 -0.2712
15726SOL    HW153270  10.050   3.844  10.613 -1.0717 -1.7724 -1.3923
15726SOL    HW253271  10.102   3.705  10.586  2.3123 -0.5314 -1.7540
15727SOL     OW53272   4.877   4.020   5.644  0.1086  0.0246 -0.1364
15727SOL    HW153273   4.791   4.061   5.654  1.0006  1.4667  2.4961
15727SOL    HW253274   4.893   4.021   5.549 -3.1361 -1.2315 -0.8386
15728SOL     OW53275  10.219   7.979  10.513  0.4862 -0.2023 -0.5266
15728SOL    HW153276  10.294   8.005  10.566 -0.2186  4.1068 -1.2744
15728SOL    HW253277  10.144   8.023  10.556 -1.3484 -2.7179 -0.9320
15729SOL     OW53278   7.648   8.060   9.632  0.1477  0.3029 -0.8490
15729SOL    HW153279   7.689   8.042   9.548  0.9700 -3.6835  0.1910
15729SOL    HW253280   7.676   8.149   9.653  1.0739  0.9211 -4.0929
15730SOL     OW53281   7.737  10.579   1.099  0.3917  0.1483 -0.0869
15730SOL    HW153282   7.671  10.536   1.044  0.0076 -0.8265  1.0952
15730SOL    HW253283   7.689  10.603   1.178  1.3823 -0.2619  0.6490
15731SOL     OW53284   3.668   1.001   8.485 -0.0903 -0.4890 -0.1359
15731SOL    HW153285   3.594   0.950   8.520 -0.4656 -0.4395 -0.8417
15731SOL    HW253286   3.651   1.006   8.391  0.9147 -0.6404 -0.3388
15732SOL     OW53287  10.838   9.700   6.024 -0.1661  0.6392 -0.9124
15732SOL    HW153288  10.745   9.690   6.003 -0.4614  1.5854 -0.1281
15732SOL    HW253289  10.856   9.793   6.012  0.5883  0.5283 -0.6928
15733SOL     OW53290   0.484   8.495   4.352 -0.5540  0.3268  0.7455
15733SOL    HW153291   0.534   8.539   4.284 -1.9744  0.6788 -0.1027
15733SOL    HW253292   0.524   8.408   4.359 -0.4810  0.2358 -0.6420
15734SOL     OW53293   9.519   1.007  10.038  0.3892 -0.3579  0.5625
15734SOL    HW153294   9.442   0.992   9.984  1.5028 -1.3574 -0.8228
15734SOL    HW253295   9.520   1.101  10.053  1.1969  0.3488 -3.0592
15735SOL     OW53296   8.251   5.066   5.195 -0.1004  0.6605 -0.1631
15735SOL    HW153297   8.334   5.022   5.178 -0.4067  0.7147 -1.8960
15735SOL    HW253298   8.276   5.153   5.226  0.4842  0.7586 -0.9034
15736SOL     OW53299   1.102   2.501   9.258  0.0339  0.3180 -0.0066
15736SOL    HW153300   1.041   2.432   9.233 -2.2013  1.8330  1.0035
15736SOL    HW253301   1.121   2.483   9.351  0.2168  0.5145 -0.0041
15737SOL     OW53302   9.489   7.051   0.528 -0.8914  0.1625 -0.3279
15737SOL    HW153303   9.407   7.033   0.574 -0.3479 -2.2874 -0.1931
15737SOL    HW253304   9.523   6.965   0.505  1.4816  1.1257 -0.7014
15738SOL     OW53305   1.990   8.442   3.574  0.6585  0.2255  0.0449
15738SOL    HW153306   2.058   8.378   3.592  0.4673  0.0075  0.0010
15738SOL    HW253307   1.909   8.400   3.603  0.6180  0.7495  0.7220
15739SOL     OW53308   0.160   0.098   1.257  0.2224  0.0469 -0.1190
15739SOL    HW153309   0.206   0.025   1.215 -0.2414 -0.4485  0.2274
15739SOL    HW253310   0.150   0.071   1.348  0.7820  0.9035  0.2168
15740SOL     OW53311   2.428   8.465   8.238 -0.0265  0.4451  0.0546
15740SOL    HW153312   2.385   8.427   8.161 -2.0939  0.1502  1.2799
15740SOL    HW253313   2.413   8.402   8.308  0.1886  1.5431  1.1291
15741SOL     OW53314   9.513   8.701   8.926 -0.7931  0.3375 -0.0577
15741SOL    HW153315   9.525   8.674   8.835  0.1302  1.2663 -0.2307
15741SOL    HW253316   9.602   8.718   8.958 -1.1313  0.3130  0.9250
15742SOL     OW53317   4.720  10.115   7.988 -0.1082 -0.4539 -0.1334
15742SOL    HW153318   4.714  10.022   7.965  1.0880 -0.3352 -1.0252
15742SOL    HW253319   4.716  10.161   7.904  2.6590  0.0945 -0.0825
15743SOL     OW53320   0.535   7.958   1.458 -0.4424 -0.0964  0.2247
15743SOL    HW153321   0.501   7.917   1.378 -0.1788 -1.5038  0.8029
15743SOL    HW253322   0.621   7.918   1.471 -0.4450  0.1883  1.1657
15744SOL     OW53323   1.089  10.548   7.219 -0.3016  0.1921  0.0222
15744SOL    HW153324   1.152  10.495   7.171  0.6990  0.8003  0.6276
15744SOL    HW253325   1.104  10.527   7.311 -1.7579 -0.4809  0.1289
15745SOL     OW53326   7.911   1.074   1.204  0.7500 -0.0666  0.3809
15745SOL    HW153327   7.843   1.071   1.271 -1.4938  0.0349 -1.7133
15745SOL    HW253328   7.949   1.161   1.212 -0.4640  0.4684  0.6571
15746SOL     OW53329   7.964   4.153   6.159  0.0655 -0.2290  0.0400
15746SOL    HW153330   7.875   4.144   6.195 -0.1724 -0.4010 -0.5877
15746SOL    HW253331   7.966   4.241   6.121 -0.5007 -0.9347 -1.7208
15747SOL     OW53332   2.788   2.446   5.246  0.3447 -0.6790 -0.6556
15747SOL    HW153333   2.875   2.473   5.275  0.7136 -1.5231 -0.9460
15747SOL    HW253334   2.769   2.368   5.299 -0.9607  0.4350  0.6178
15748SOL     OW53335   4.810   4.383   1.513 -0.3567  0.1605 -0.1878
15748SOL    HW153336   4.879   4.321   1.490 -0.8791 -1.4069  2.2344
15748SOL    HW253337   4.734   4.329   1.533 -1.4334  1.7026  0.0679
15749SOL     OW53338   2.824   7.881   9.315 -0.0388  0.1489 -0.1125
15749SOL    HW153339   2.829   7.786   9.328  0.8257  0.3454  1.2214
15749SOL    HW253340   2.749   7.893   9.257 -0.1195 -1.3537 -0.3707
15750SOL     OW53341   7.281   3.364   4.368 -0.0985 -0.3116 -0.2012
15750SOL    HW153342   7.208   3.389   4.312  0.3007  0.1349 -0.5266
15750SOL    HW253343   7.255   3.394   4.455 -0.0520  0.3727 -0.4175
15751SOL     OW53344   7.267   8.375   7.650 -0.4646 -0.1620  0.7119
15751SOL    HW153345   7.309   8.441   7.705  2.1100 -1.2193  0.1718
15751SOL    HW253346   7.229   8.313   7.712  1.4786 -0.7808  1.3554
15752SOL     OW53347   2.409   5.566   9.806 -0.0395  0.0099  0.1421
15752SOL    HW153348   2.451   5.590   9.724 -0.5363 -3.8552 -1.4655
15752SOL    HW253349   2.478   5.521   9.856 -0.7633 -1.4346 -0.1012
15753SOL     OW53350  10.914   9.271  10.928  0.1675  0.2433 -0.0626
15753SOL    HW153351  10.922   9.323  11.009 -2.4994  2.8043 -1.2565
15753SOL    HW253352  10.990   9.297  10.876  1.8153 -1.2899  1.4135
15754SOL     OW53353   6.846   6.765   0.578  1.0846 -0.1739 -0.5053
15754SOL    HW153354   6.819   6.775   0.487  1.0465  0.8201 -0.3923
15754SOL    HW253355   6.764   6.757   0.628  1.1159 -1.7101 -0.6419
15755SOL     OW53356   8.531   6.958   8.944  0.2775 -0.3410 -0.3120
15755SOL    HW153357   8.558   6.884   8.998  2.2409 -0.4849 -1.3889
15755SOL    HW253358   8.541   6.927   8.854  2.8510  1.6994 -0.8405
15756SOL     OW53359   4.798   4.379   4.675  0.1561 -0.4509  0.1204
15756SOL    HW153360   4.849   4.300   4.657  3.1032  1.5184 -0.7594
15756SOL    HW253361   4.735   4.383   4.604  1.1093 -1.1188 -0.7866
15757SOL     OW53362   3.307   2.995   1.240  0.0138 -0.2862  0.1640
15757SOL    HW153363   3.278   3.002   1.331  1.8092 -0.6757  0.8072
15757SOL    HW253364   3.370   3.067   1.230 -1.1479  0.5855 -1.1953
15758SOL     OW53365   7.945  10.677   6.194  0.5515  0.2005 -0.8091
15758SOL    HW153366   7.983  10.749   6.144  2.5687 -0.1107  0.1923
15758SOL    HW253367   7.996  10.673   6.274 -1.3850 -0.5237  0.4760
15759SOL     OW53368   9.320   1.174   1.900  0.5720  0.1390  0.4938
15759SOL    HW153369   9.236   1.210   1.929  0.9630  0.6187  1.0445
15759SOL    HW253370   9.316   1.181   1.804  0.5835  1.5674  0.5628
15760SOL     OW53371   7.840   7.862   4.969 -0.1382 -0.4356  0.1163
15760SOL    HW153372   7.772   7.928   4.976  0.1299 -0.2966  2.3143
15760SOL    HW253373   7.868   7.864   4.878 -0.3774  2.2335  0.0381
15761SOL     OW53374   3.239   4.284   3.063 -0.1726 -0.1074  0.2036
15761SOL    HW153375   3.321   4.265   3.018 -0.2414  0.1971 -0.0571
15761SOL    HW253376   3.220   4.204   3.112  0.9929  0.2990  1.3754
15762SOL     OW53377   0.462   6.720   2.067 -1.6041 -0.0060  0.2956
15762SOL    HW153378   0.521   6.767   2.126 -1.6511  1.3586 -0.6957
15762SOL    HW253379   0.436   6.785   2.001 -1.6665 -1.4307 -1.1606
15763SOL     OW53380   4.164   7.824   8.946 -0.1541 -0.2045 -0.0220
15763SOL    HW153381   4.099   7.825   8.876 -1.0160 -2.5846  0.6577
15763SOL    HW253382   4.233   7.765   8.915 -0.0417 -0.4622  0.6853
15764SOL     OW53383   3.889  10.881   7.791 -0.7875 -0.5813 -0.4354
15764SOL    HW153384   3.922  10.904   7.704 -3.0055  0.3901 -1.1004
15764SOL    HW253385   3.827  10.950   7.812 -0.2447 -0.7576  2.0049
15765SOL     OW53386   7.843   9.389   7.035 -0.3949 -0.6592  0.1529
15765SOL    HW153387   7.796   9.346   6.964 -0.6710 -1.1612  0.6306
15765SOL    HW253388   7.786   9.462   7.061  0.7974  1.0262 -1.7171
15766SOL     OW53389   6.365   6.442  10.575  0.1423 -0.1368 -0.3758
15766SOL    HW153390   6.445   6.437  10.522  0.2451 -1.7562 -0.1256
15766SOL    HW253391   6.380   6.380  10.646 -1.6145 -0.9967 -0.7092
15767SOL     OW53392   9.456   0.735   3.138 -0.2385 -0.1264  0.3165
15767SOL    HW153393   9.376   0.782   3.114  0.7960  1.7112  0.2458
15767SOL    HW253394   9.511   0.741   3.060  0.7534  0.4660  1.0402
15768SOL     OW53395   3.293   2.175   9.786  0.3327  0.6250  0.3995
15768SOL    HW153396   3.221   2.202   9.729  0.3507  1.4376  0.7423
15768SOL    HW253397   3.251   2.153   9.869  0.3107 -0.5195  0.0996
15769SOL     OW53398   7.012   6.941   4.322 -0.2036  0.7633 -0.6901
15769SOL    HW153399   7.062   6.895   4.389  0.7600  2.0693 -0.4913
15769SOL    HW253400   6.960   7.005   4.370 -0.8758  0.4917 -1.0437
15770SOL     OW53401   3.705   7.182  10.713 -0.0291  0.6517 -0.4010
15770SOL    HW153402   3.733   7.148  10.798  1.1631  1.2505 -0.5358
15770SOL    HW253403   3.653   7.111  10.675  3.1336 -1.4936 -1.0629
15771SOL     OW53404   7.556   2.772   7.797 -0.2194  0.1202 -0.4988
15771SOL    HW153405   7.499   2.848   7.791 -0.8253  0.0997  2.9770
15771SOL    HW253406   7.636   2.805   7.837  0.6721 -0.5849 -1.6411
15772SOL     OW53407   0.101   1.106   0.855  0.1336  0.3803 -0.5514
15772SOL    HW153408   0.050   1.182   0.829 -1.5532 -1.1331 -1.9783
15772SOL    HW253409   0.052   1.067   0.927  0.9140  0.5622  0.0867
15773SOL     OW53410   5.119   2.478   9.693 -0.0289  0.7109  0.2689
15773SOL    HW153411   5.076   2.553   9.735 -0.2704 -0.3917  2.1273
15773SOL    HW253412   5.046   2.419   9.671  0.2898  0.1485  0.6892
15774SOL     OW53413  10.029   6.598   6.907  0.3408 -0.1810  0.4425
15774SOL    HW153414  10.093   6.645   6.854 -1.6417  1.2215 -0.8400
15774SOL    HW253415  10.018   6.514   6.863 -0.0238  0.3053 -0.4230
15775SOL     OW53416   8.141   8.051   6.488  0.0277  0.3215 -0.0870
15775SOL    HW153417   8.148   8.146   6.502 -1.1213  0.8329 -2.5292
15775SOL    HW253418   8.217   8.030   6.434  0.6209 -0.3016  0.9612
15776SOL     OW53419   4.684   8.502   3.516  0.4040 -0.1654  0.6459
15776SOL    HW153420   4.744   8.448   3.567  0.5148  0.6658  1.4074
15776SOL    HW253421   4.674   8.583   3.567 -1.1256 -0.1651  0.3938
15777SOL     OW53422   9.860   9.473   2.303  0.2494 -0.1234  0.8379
15777SOL    HW153423   9.889   9.450   2.214  0.9109 -2.3952  1.5647
15777SOL    HW253424   9.941   9.501   2.347 -0.1587  1.4656  0.6286
15778SOL     OW53425   2.851   2.963   6.414 -0.9628  0.6107 -0.1545
15778SOL    HW153426   2.874   3.049   6.451 -0.6996  0.1607  0.7703
15778SOL    HW253427   2.872   2.901   6.484  0.0350 -0.3445 -1.2601
15779SOL     OW53428   2.672   8.703   8.744  0.0536 -0.2769  0.7922
15779SOL    HW153429   2.664   8.625   8.688  1.1219  0.2544 -0.1309
15779SOL    HW253430   2.708   8.669   8.826  1.1718 -0.6840  0.1584
15780SOL     OW53431   8.314   1.847   4.874 -0.3141 -0.8564 -0.0345
15780SOL    HW153432   8.238   1.790   4.861  0.7363 -2.0195 -1.2833
15780SOL    HW253433   8.319   1.898   4.793  0.8584 -1.5631 -0.4232
15781SOL     OW53434   6.003   3.638   0.419 -0.1729 -0.0415 -0.0904
15781SOL    HW153435   6.024   3.571   0.354  0.6387  0.4420 -0.3480
15781SOL    HW253436   5.943   3.698   0.374  0.7149  0.5250 -0.5612
15782SOL     OW53437   3.962   7.232   2.967  0.0239 -0.2347 -0.0473
15782SOL    HW153438   4.001   7.318   2.981  0.2039 -0.6185  2.1893
15782SOL    HW253439   3.902   7.221   3.040 -1.3361 -1.2999 -1.2750
15783SOL     OW53440   8.328   1.326   4.639 -0.0135 -0.0887  0.3878
15783SOL    HW153441   8.386   1.402   4.651 -0.1296  0.1541 -0.5006
15783SOL    HW253442   8.246   1.352   4.682 -0.4603  0.8030 -0.9400
15784SOL     OW53443   7.656   2.140  10.677 -0.5994 -0.0175 -0.8309
15784SOL    HW153444   7.562   2.151  10.685 -0.9496 -2.9658  0.5038
15784SOL    HW253445   7.682   2.096  10.758  1.9582  0.8345 -1.1012
15785SOL     OW53446   4.918  10.319   9.789  0.2133 -0.1291 -0.0962
15785SOL    HW153447   4.841  10.262   9.793  1.0320 -1.2910 -0.4775
15785SOL    HW253448   4.992  10.260   9.774  0.9790  1.1248 -1.5829
15786SOL     OW53449   4.021   8.862   7.241 -0.1340  0.1316 -0.2498
15786SOL    HW153450   4.100   8.892   7.284 -1.2732  2.6239  0.2721
15786SOL    HW253451   4.025   8.901   7.154 -0.7450  0.2320 -0.2380
15787SOL     OW53452   3.330   0.427   2.639 -0.7110 -0.3828  0.7649
15787SOL    HW153453   3.291   0.377   2.711 -1.8266  0.8884  1.0677
15787SOL    HW253454   3.297   0.383   2.560  1.1850 -2.3034  0.9526
15788SOL     OW53455   5.404   3.089   6.337 -0.3497  0.3621  0.4856
15788SOL    HW153456   5.399   2.994   6.325 -0.0765  0.2992  0.8506
15788SOL    HW253457   5.413   3.124   6.248 -2.1355  0.1652  0.2013
15789SOL     OW53458   2.163   2.998   7.002 -0.1307  0.4968 -0.3056
15789SOL    HW153459   2.215   3.007   7.082  0.9775  0.2371 -0.9850
15789SOL    HW253460   2.209   2.932   6.950 -1.9754 -0.9245 -0.2680
15790SOL     OW53461   1.594   0.592   7.182  0.1478 -0.1811 -0.1409
15790SOL    HW153462   1.559   0.679   7.164  1.1849 -0.1657 -2.2708
15790SOL    HW253463   1.527   0.532   7.150 -0.2507 -0.1977  0.6848
15791SOL     OW53464   5.938   8.334   2.695 -0.5822  0.3320 -0.5940
15791SOL    HW153465   5.873   8.351   2.764 -0.5720 -2.5117  0.2316
15791SOL    HW253466   6.022   8.338   2.740 -0.4943 -0.3123 -0.6942
15792SOL     OW53467   5.706  10.734   8.674 -0.0067  0.1474 -0.8178
15792SOL    HW153468   5.690  10.700   8.762  0.4963  0.3904 -0.6285
15792SOL    HW253469   5.627  10.782   8.652 -1.1196 -1.8594 -1.4456
15793SOL     OW53470  10.788   4.567   4.157 -0.5060  0.0021 -0.1443
15793SOL    HW153471  10.832   4.644   4.192 -0.6807  0.4757 -0.9301
15793SOL    HW253472  10.833   4.549   4.074 -0.9679 -0.2727 -0.3403
15794SOL     OW53473   1.398   8.759   3.654  0.0598 -0.2321 -0.1811
15794SOL    HW153474   1.489   8.739   3.632  0.0404  1.2612 -1.9053
15794SOL    HW253475   1.394   8.854   3.653 -1.1805 -0.2257  1.5264
15795SOL     OW53476   5.628   4.137   1.597  0.7855 -0.0612  0.3724
15795SOL    HW153477   5.664   4.176   1.677  1.2928 -1.2115  0.7177
15795SOL    HW253478   5.604   4.048   1.622 -0.4360  0.0308 -0.3844
15796SOL     OW53479   8.557   5.637   5.162  0.6883 -0.1896  0.1058
15796SOL    HW153480   8.490   5.673   5.105 -0.2419 -2.1131 -0.0975
15796SOL    HW253481   8.570   5.548   5.130  1.6128 -0.6424  1.6436
15797SOL     OW53482   8.482  10.215   8.608  0.0419 -0.2756  0.3214
15797SOL    HW153483   8.552  10.237   8.547 -1.1734  0.8159 -0.7417
15797SOL    HW253484   8.492  10.121   8.623  1.1499 -0.3135 -0.5457
15798SOL     OW53485   2.480   7.568   7.700 -0.3875 -0.1234  0.2603
15798SOL    HW153486   2.554   7.510   7.685 -0.0395  0.1422  0.9018
15798SOL    HW253487   2.408   7.510   7.726 -0.1557 -0.3053  0.4977
15799SOL     OW53488   3.031   1.513   1.246  0.2934  0.0543 -0.1022
15799SOL    HW153489   2.977   1.466   1.183  0.7015  0.8844 -1.1149
15799SOL    HW253490   3.086   1.446   1.286 -2.7812 -1.1896  2.4839
15800SOL     OW53491   1.841   9.420   0.246  0.5138  0.4823 -0.2183
15800SOL    HW153492   1.884   9.505   0.241  0.2932  0.6195  0.1951
15800SOL    HW253493   1.840   9.399   0.340 -1.0858  0.8697 -0.1356
15801SOL     OW53494   0.429   0.204   8.481 -0.0092  0.5798 -0.7022
15801SOL    HW153495   0.393   0.119   8.459  0.8957  0.2950 -1.1190
15801SOL    HW253496   0.353   0.257   8.506 -0.4583 -0.6880  0.7509
15802SOL     OW53497   4.306   8.055   6.062 -0.9853 -0.3996  0.5724
15802SOL    HW153498   4.319   7.963   6.038 -2.2588 -0.9344  1.8028
15802SOL    HW253499   4.366   8.069   6.135 -0.8744 -0.2729  0.4585
15803SOL     OW53500   7.553   7.242   7.400  0.4811  0.4371  1.1812
15803SOL    HW153501   7.525   7.165   7.351  2.0283  0.1576  0.6854
15803SOL    HW253502   7.479   7.303   7.393 -0.0767 -0.3283  0.1091
15804SOL     OW53503  10.590  10.436   2.368  0.4410  0.4390  0.4527
15804SOL    HW153504  10.609  10.449   2.461 -2.3723 -0.6004  1.2688
15804SOL    HW253505  10.657  10.374   2.338  0.3666 -0.5526  2.2295
15805SOL     OW53506   4.581  10.574  10.816  0.2626  0.1137  0.2958
15805SOL    HW153507   4.513  10.613  10.871 -1.0551 -0.4164 -0.9103
15805SOL    HW253508   4.652  10.639  10.817 -0.3194  0.7696  1.4080
15806SOL     OW53509   9.750   9.351   1.846 -0.2477  0.1255  0.3332
15806SOL    HW153510   9.769   9.278   1.786 -1.4520  0.5366 -0.5948
15806SOL    HW253511   9.724   9.309   1.927 -1.7878 -0.5345 -0.4603
15807SOL     OW53512   8.443   9.157   6.925 -0.1963  0.0791 -0.0824
15807SOL    HW153513   8.373   9.220   6.907 -0.3137 -0.2949 -0.9888
15807SOL    HW253514   8.423   9.123   7.012  0.3612  1.9289  0.8285
15808SOL     OW53515   7.201   5.648   5.243  0.0273  0.0193  0.1760
15808SOL    HW153516   7.121   5.620   5.199 -1.2292  0.3089  2.1502
15808SOL    HW253517   7.224   5.731   5.201 -1.1473  0.3135  0.1000
15809SOL     OW53518   0.320   1.774   5.598  0.3715  0.3405 -0.4382
15809SOL    HW153519   0.288   1.694   5.640  0.9056  1.0648  1.4501
15809SOL    HW253520   0.409   1.752   5.569  0.5666  0.2902  0.1934
15810SOL     OW53521  10.539   0.854   7.045  0.4008 -0.1046 -0.2093
15810SOL    HW153522  10.492   0.924   7.000  1.6797  1.8787  1.3644
15810SOL    HW253523  10.505   0.856   7.134  0.0707 -1.9153 -0.2637
15811SOL     OW53524   0.504   3.321   8.308 -0.6083  0.3631  0.4465
15811SOL    HW153525   0.576   3.349   8.363  1.1812 -0.5106 -1.3234
15811SOL    HW253526   0.504   3.226   8.314 -0.9674  0.3019 -0.3194
15812SOL     OW53527   8.408   9.522   8.401  0.2281 -0.3595  0.2028
15812SOL    HW153528   8.323   9.566   8.395  0.5131 -0.0440 -2.5057
15812SOL    HW253529   8.389   9.431   8.379  0.6431 -0.2141 -0.7628
15813SOL     OW53530   0.904  10.263   8.387  0.1375 -0.0623  0.3130
15813SOL    HW153531   0.906  10.293   8.478  0.2841  1.3155 -0.1238
15813SOL    HW253532   0.934  10.338   8.336 -1.7153 -0.1836 -1.0552
15814SOL     OW53533   9.454   8.895   5.915  0.4415  0.5729  0.1549
15814SOL    HW153534   9.497   8.919   5.997 -1.0625  1.4947  0.7076
15814SOL    HW253535   9.383   8.838   5.941 -0.4826  1.4327 -0.4140
15815SOL     OW53536   0.110   9.346  10.145  0.0471 -0.4294  0.3911
15815SOL    HW153537   0.074   9.335  10.233  0.0726  0.2411  0.4869
15815SOL    HW253538   0.102   9.259  10.105 -2.3244 -0.1628  0.1546
15816SOL     OW53539  10.406  10.007   1.371  0.3197  0.3238 -0.1322
15816SOL    HW153540  10.354  10.084   1.393 -0.0136 -0.0778  0.5189
15816SOL    HW253541  10.452  10.031   1.291 -2.0370  0.1323 -1.6260
15817SOL     OW53542   7.112   5.309   5.421 -0.8656 -0.2603  0.2788
15817SOL    HW153543   7.161   5.297   5.502  0.6638  0.2204 -0.5275
15817SOL    HW253544   7.126   5.229   5.372 -0.8905 -0.1269  0.0513
15818SOL     OW53545   0.446  10.635   3.397  0.5061 -0.3719 -0.1141
15818SOL    HW153546   0.488  10.722   3.394 -1.6094  1.1083  4.1496
15818SOL    HW253547   0.379  10.638   3.330  0.7191  1.1999 -0.2972
15819SOL     OW53548   9.351   7.706   3.193 -0.4601  0.1037 -0.3094
15819SOL    HW153549   9.423   7.663   3.147  0.6755  0.3729  1.1506
15819SOL    HW253550   9.278   7.704   3.130  0.9699  0.3670 -2.0667
15820SOL     OW53551  10.029  10.897   7.146 -0.4556 -0.5821  0.2120
15820SOL    HW153552  10.105  10.926   7.096  1.1917 -0.1486  2.7707
15820SOL    HW253553   9.962  10.963   7.128  0.3782  0.0431 -0.6971
15821SOL     OW53554   8.391   2.877   5.904  0.3395 -0.7343 -0.2859
15821SOL    HW153555   8.376   2.841   5.816 -0.2037 -2.1046  0.3391
15821SOL    HW253556   8.423   2.803   5.955  0.1552 -0.0843  0.7988
15822SOL     OW53557  10.162   8.579   5.180 -0.2321 -0.0470  0.0504
15822SOL    HW153558  10.125   8.592   5.092  2.0528 -0.8653 -1.1070
15822SOL    HW253559  10.250   8.545   5.164  0.4879  0.3927  2.6785
15823SOL     OW53560   8.108   5.867   5.749 -0.2850 -0.0732  0.0696
15823SOL    HW153561   8.097   5.882   5.655  0.0537  0.7824  0.1539
15823SOL    HW253562   8.121   5.773   5.758 -0.5128 -0.1805 -0.7233
15824SOL     OW53563   6.206   2.335   1.354  0.2538  1.1567  0.2659
15824SOL    HW153564   6.189   2.246   1.324  0.9399  0.9719  0.4010
15824SOL    HW253565   6.205   2.389   1.275  0.2052  0.9665  0.1381
15825SOL     OW53566   4.016   3.568  10.535  0.0112  0.5222  1.2759
15825SOL    HW153567   3.967   3.645  10.506  0.5360  0.5942  0.5448
15825SOL    HW253568   3.954   3.518  10.588 -1.0854  0.2302 -0.2307
15826SOL     OW53569   2.615   7.475   9.763 -0.5750 -0.0559 -0.1239
15826SOL    HW153570   2.570   7.455   9.680  0.8096 -3.9115 -0.1445
15826SOL    HW253571   2.702   7.504   9.736 -0.8537  0.9523  0.0120
15827SOL     OW53572   7.147   1.416   5.788 -0.7311 -0.8441 -0.6575
15827SOL    HW153573   7.101   1.332   5.791  0.0994 -1.2867  1.2891
15827SOL    HW253574   7.222   1.400   5.732 -0.8291 -1.2747 -0.6701
15828SOL     OW53575   7.712   1.898   7.987 -0.2272  1.1104  0.1290
15828SOL    HW153576   7.706   1.857   7.901 -0.6364  1.8048 -0.1792
15828SOL    HW253577   7.625   1.889   8.024 -0.3873  1.8918 -0.0372
15829SOL     OW53578   2.302   6.774   6.576  1.2983  0.4905  0.1057
15829SOL    HW153579   2.338   6.708   6.635  0.6365 -0.9687 -1.0378
15829SOL    HW253580   2.308   6.734   6.489 -0.6917  1.2227 -0.4308
15830SOL     OW53581   9.029   7.903   6.467 -0.0931 -0.3504 -0.2424
15830SOL    HW153582   9.064   7.944   6.387 -0.2919  1.4067  0.5282
15830SOL    HW253583   9.107   7.880   6.518  0.0189  0.6789  0.0749
15831SOL     OW53584   1.319   6.944   9.273  0.0652 -0.1270  0.0360
15831SOL    HW153585   1.303   6.986   9.189 -1.1842 -0.4051  0.1074
15831SOL    HW253586   1.414   6.940   9.281  0.2131  1.5421 -0.5225
15832SOL     OW53587   6.747   9.733   4.061 -0.4390 -0.0850 -0.8547
15832SOL    HW153588   6.718   9.814   4.102 -2.2015 -0.7254 -0.7365
15832SOL    HW253589   6.736   9.748   3.967  3.0069  1.1610 -1.1710
15833SOL     OW53590   7.627   8.271  10.783 -0.2775  0.1921 -0.2150
15833SOL    HW153591   7.532   8.279  10.794 -0.7657 -0.7504 -3.0441
15833SOL    HW253592   7.639   8.193  10.729  1.9605  1.4195 -1.6547
15834SOL     OW53593   7.776   2.015   9.299 -0.1760  0.0152  0.2874
15834SOL    HW153594   7.805   2.000   9.389 -2.1631 -0.3531  0.9023
15834SOL    HW253595   7.695   2.065   9.308  1.1936  2.8254 -1.4189
15835SOL     OW53596   5.833   2.842   9.473  0.0035  0.1628  0.1214
15835SOL    HW153597   5.789   2.757   9.474  0.0373  0.1453  0.1182
15835SOL    HW253598   5.762   2.905   9.486  0.1173  0.0789  1.2194
15836SOL     OW53599   8.743   9.382   1.971 -0.2421 -0.4396  0.3534
15836SOL    HW153600   8.800   9.355   2.043  0.3892 -0.3366 -0.0960
15836SOL    HW253601   8.798   9.374   1.893 -1.3435 -2.0175 -0.3259
15837SOL     OW53602   6.260  10.341   2.178  0.4301 -0.6758  0.3017
15837SOL    HW153603   6.196  10.288   2.130  0.5029 -0.2507 -0.2730
15837SOL    HW253604   6.207  10.403   2.227  0.3898 -0.3266 -0.1709
15838SOL     OW53605  10.119   4.975   0.954 -0.1943 -0.5025 -0.0372
15838SOL    HW153606  10.069   4.897   0.978 -0.0771 -0.2389  1.0977
15838SOL    HW253607  10.164   4.950   0.873  0.4641 -1.8979  0.7167
15839SOL     OW53608   5.394   6.200   1.359 -0.3165 -0.5678 -0.1455
15839SOL    HW153609   5.380   6.225   1.267 -0.0170  1.1524  0.2403
15839SOL    HW253610   5.479   6.237   1.381 -0.3093 -1.1218  0.7952
15840SOL     OW53611   2.878   9.137   0.229  0.6440 -0.1227 -0.7302
15840SOL    HW153612   2.825   9.058   0.236  0.3594  0.2404  2.8473
15840SOL    HW253613   2.968   9.105   0.230  0.5352 -0.4582  0.9343
15841SOL     OW53614   8.852   3.493   8.778  0.1532 -0.0368 -0.2295
15841SOL    HW153615   8.897   3.505   8.862 -0.0280 -2.1322  0.2347
15841SOL    HW253616   8.759   3.499   8.801  0.1168  0.6055 -0.5221
15842SOL     OW53617   4.928   3.257   6.748 -0.8564  0.4519  0.4901
15842SOL    HW153618   4.854   3.245   6.688  0.0239  0.1750 -0.5756
15842SOL    HW253619   4.992   3.192   6.719 -0.7662 -0.3526  2.3602
15843SOL     OW53620   4.242   6.929   8.872 -0.0379 -0.5925 -0.6880
15843SOL    HW153621   4.234   6.973   8.788  0.9401 -1.4748 -1.2699
15843SOL    HW253622   4.314   6.974   8.917  0.0913 -0.7504 -0.7352
15844SOL     OW53623   7.782   0.882   6.022  0.0690 -0.0714  0.1873
15844SOL    HW153624   7.809   0.791   6.035  1.2723  0.4107  1.3184
15844SOL    HW253625   7.864   0.930   6.013 -0.4799  1.0986  1.1146
15845SOL     OW53626   5.536   8.907   1.927 -0.8289 -0.1202 -0.0322
15845SOL    HW153627   5.525   8.925   2.021 -0.8209 -0.2248 -0.0116
15845SOL    HW253628   5.609   8.846   1.923  0.5315  1.4332 -0.2346
15846SOL     OW53629   5.284   2.364   9.884 -0.1303 -0.1970 -0.4082
15846SOL    HW153630   5.230   2.383   9.961 -1.5717  0.9663 -1.6327
15846SOL    HW253631   5.245   2.418   9.815 -0.0693 -2.5931 -2.4228
15847SOL     OW53632   8.167  10.613   1.555 -0.7017  0.2687 -0.0141
15847SOL    HW153633   8.247  10.665   1.545 -1.1952  0.6972 -2.4192
15847SOL    HW253634   8.162  10.595   1.649  0.7926  2.4749  0.5814
15848SOL     OW53635   1.059   2.491   7.720 -0.0629 -0.2330 -0.1937
15848SOL    HW153636   1.129   2.475   7.783 -0.0913 -0.5313 -0.2357
15848SOL    HW253637   1.062   2.416   7.660 -1.3098 -0.9799  0.6285
15849SOL     OW53638   2.655   9.675   2.275 -0.4672  0.1593 -0.0348
15849SOL    HW153639   2.742   9.662   2.312 -0.3326 -1.1466 -0.7468
15849SOL    HW253640   2.597   9.625   2.331 -0.8058  1.1408  0.5215
15850SOL     OW53641   5.395   4.228   1.545  0.4760 -0.2072  0.1522
15850SOL    HW153642   5.475   4.180   1.567 -0.0175 -0.0715  2.4630
15850SOL    HW253643   5.333   4.160   1.520  0.5813 -0.5666  0.8247
15851SOL     OW53644   4.035   4.923   0.499 -0.3946 -0.5327 -0.2145
15851SOL    HW153645   4.056   4.831   0.484  0.0779 -0.4880  0.1539
15851SOL    HW253646   3.942   4.930   0.480 -0.3350 -0.9951 -0.6780
15852SOL     OW53647   7.872   6.124   3.790  0.0292 -0.2667  0.6690
15852SOL    HW153648   7.804   6.166   3.843  0.1036 -0.7158  1.1360
15852SOL    HW253649   7.910   6.195   3.739  1.4934  0.6832  2.8851
15853SOL     OW53650   0.612   4.175   8.788 -0.1804 -0.2248 -0.6741
15853SOL    HW153651   0.679   4.241   8.809 -1.0410  0.9909 -1.5904
15853SOL    HW253652   0.613   4.115   8.863  2.5731 -0.8196 -1.0854
15854SOL     OW53653   2.417   3.083   2.574 -0.3472 -0.1768  0.4937
15854SOL    HW153654   2.365   3.115   2.500  0.3975 -0.1325 -0.0244
15854SOL    HW253655   2.389   3.138   2.648 -0.7731  0.0883  0.1446
15855SOL     OW53656   5.648   8.516   0.779 -0.3003  0.3033  0.8477
15855SOL    HW153657   5.582   8.519   0.710  0.4422  2.5248  0.1857
15855SOL    HW253658   5.730   8.498   0.734 -0.0121  0.3577  1.3442
15856SOL     OW53659   9.603   8.938  10.514  0.1997 -0.1040  0.4646
15856SOL    HW153660   9.622   8.977  10.428  0.1467  1.8754  1.2821
15856SOL    HW253661   9.595   8.844  10.497  0.1569  0.2358 -1.6971
15857SOL     OW53662   7.048   4.193   6.078 -0.0482 -0.1208  0.5395
15857SOL    HW153663   7.040   4.278   6.121  1.6660  1.2506 -1.6231
15857SOL    HW253664   7.142   4.173   6.081 -0.3140 -1.5282  0.2496
15858SOL     OW53665   5.622   0.202   5.636 -0.1414  0.2785  0.7116
15858SOL    HW153666   5.580   0.172   5.716  0.0425 -3.8642 -0.5031
15858SOL    HW253667   5.683   0.132   5.614  0.7648  1.8694 -2.3590
15859SOL     OW53668   8.059   8.423  10.149 -0.4179 -0.5172 -0.3793
15859SOL    HW153669   8.089   8.390  10.234 -0.3270  0.2055 -0.1231
15859SOL    HW253670   7.995   8.491  10.170  0.9655  1.0149 -0.8077
15860SOL     OW53671   2.482   5.695   9.006 -0.0770 -0.2327  0.1297
15860SOL    HW153672   2.457   5.605   8.984  0.9275 -0.0140 -2.1483
15860SOL    HW253673   2.410   5.749   8.974  0.4224 -0.0681 -0.7456
15861SOL     OW53674   1.359   1.180   2.659  0.2748 -0.2871 -0.1615
15861SOL    HW153675   1.357   1.097   2.612  1.7619  0.2777 -1.3335
15861SOL    HW253676   1.432   1.228   2.619  0.4343  0.9745  1.5215
15862SOL     OW53677   7.939   8.187   8.335  0.4215 -0.0359  0.1662
15862SOL    HW153678   7.914   8.144   8.253 -0.5950  1.3184 -0.2797
15862SOL    HW253679   7.860   8.182   8.390  0.6491  0.2731  0.5250
15863SOL     OW53680   5.463   8.313  10.196 -0.4566  0.3902 -0.2788
15863SOL    HW153681   5.389   8.352  10.150 -0.1504  3.5981  1.6562
15863SOL    HW253682   5.537   8.323  10.135 -0.9548  0.1558 -0.9329
15864SOL     OW53683   6.713   5.510   8.094  0.7594 -0.3094 -0.5695
15864SOL    HW153684   6.639   5.492   8.152  1.0650  1.4452  0.4412
15864SOL    HW253685   6.790   5.502   8.149  1.1301  0.2991 -0.9877
15865SOL     OW53686   8.280   2.571   0.352 -0.6390  0.5368  0.2254
15865SOL    HW153687   8.257   2.628   0.426 -1.4377  0.9656 -0.3374
15865SOL    HW253688   8.306   2.632   0.282 -2.6564  0.3162 -0.7830
15866SOL     OW53689   0.933   2.638   0.606 -0.2437  0.3445 -0.1412
15866SOL    HW153690   1.023   2.634   0.640 -0.4888  1.0196  0.6091
15866SOL    HW253691   0.927   2.564   0.546  1.1574  0.9012 -1.0348
15867SOL     OW53692   8.765   6.316   3.807 -0.1084 -0.4645 -0.0136
15867SOL    HW153693   8.751   6.223   3.789  3.0904 -1.1296  0.3026
15867SOL    HW253694   8.860   6.325   3.814 -0.4221  2.1996  3.3547
15868SOL     OW53695  10.180   5.729   9.792 -0.2950  0.3790 -0.5029
15868SOL    HW153696  10.272   5.735   9.764 -0.1880 -2.8745 -1.2781
15868SOL    HW253697  10.132   5.707   9.712 -1.5422  0.5972  0.1597
15869SOL     OW53698   2.366   4.730  10.538 -0.1059 -0.4046 -0.3898
15869SOL    HW153699   2.278   4.691  10.535 -0.0285 -0.7134  1.0144
15869SOL    HW253700   2.393   4.722  10.629  0.8054  1.0095 -0.5098
15870SOL     OW53701   1.046   7.042   4.323 -0.4139 -0.0094 -0.7261
15870SOL    HW153702   1.035   7.123   4.273  0.2207  1.5816  1.5171
15870SOL    HW253703   0.974   6.986   4.294 -0.0150  0.7466 -3.4055
15871SOL     OW53704   3.313   7.944   8.933  0.2519  0.3488  0.3303
15871SOL    HW153705   3.368   7.889   8.990  0.3081  1.2155  1.1359
15871SOL    HW253706   3.368   8.019   8.912  1.4622 -1.3505 -3.5779
15872SOL     OW53707   1.805   0.635   6.023  0.4424  0.2853  0.7901
15872SOL    HW153708   1.862   0.598   5.955  0.6386  1.4773  0.2679
15872SOL    HW253709   1.865   0.682   6.081  0.1912 -0.0837  1.3510
15873SOL     OW53710  10.595   9.829   8.945  0.6238 -0.2337 -0.3459
15873SOL    HW153711  10.663   9.892   8.969  1.4018 -1.1893  0.0240
15873SOL    HW253712  10.572   9.785   9.027 -1.6954  1.2227 -0.1304
15874SOL     OW53713   1.666   1.554   3.691  0.4483  0.2578 -0.4322
15874SOL    HW153714   1.725   1.585   3.623 -0.0483  0.3573 -0.8181
15874SOL    HW253715   1.616   1.631   3.718 -0.2246 -0.0309 -0.8291
15875SOL     OW53716   1.507   9.179   4.326 -0.3646  0.7703  0.0826
15875SOL    HW153717   1.528   9.159   4.418 -0.0218  0.6694 -0.0131
15875SOL    HW253718   1.438   9.117   4.304 -0.2864  0.6353  0.2072
15876SOL     OW53719   1.486   9.455   5.583  0.0592  0.3508  0.1517
15876SOL    HW153720   1.555   9.389   5.586  0.4770  0.8004  2.1342
15876SOL    HW253721   1.413   9.415   5.629 -0.8472  0.0735 -1.4886
15877SOL     OW53722   0.776   3.773   5.203  0.5631 -0.4305 -0.4194
15877SOL    HW153723   0.683   3.770   5.183  0.7687  0.3693 -1.5756
15877SOL    HW253724   0.820   3.755   5.119  1.4512 -0.5106  0.0454
15878SOL     OW53725   9.447   3.414   5.629 -0.0204 -0.0118  0.3509
15878SOL    HW153726   9.398   3.390   5.708  0.5385 -2.9029 -0.0879
15878SOL    HW253727   9.402   3.371   5.557  0.6529  0.9112 -0.6654
15879SOL     OW53728   0.440   0.348   0.557 -0.6872 -0.0451  0.3050
15879SOL    HW153729   0.510   0.380   0.614 -0.8842  0.3639  0.3219
15879SOL    HW253730   0.484   0.289   0.496  0.0801  1.8949 -1.1230
15880SOL     OW53731   7.148   5.315   5.921 -0.3076  0.1395  0.9247
15880SOL    HW153732   7.217   5.284   5.980 -1.4755 -1.3691  1.5892
15880SOL    HW253733   7.090   5.367   5.977  0.2978  1.4439  0.3594
15881SOL     OW53734   6.620   2.527   7.502  0.1205  0.0388 -0.5023
15881SOL    HW153735   6.655   2.609   7.466  1.1419 -0.3903 -0.5443
15881SOL    HW253736   6.659   2.459   7.446  0.0637 -0.5230  0.1331
15882SOL     OW53737  10.662   9.290   9.119 -0.7206 -0.0497 -0.5591
15882SOL    HW153738  10.705   9.306   9.035  0.6327  2.0785  0.4561
15882SOL    HW253739  10.581   9.341   9.115 -1.0639 -0.6163 -0.8752
15883SOL     OW53740   0.864   4.014   2.924  0.8170  0.2157  0.0379
15883SOL    HW153741   0.838   3.948   2.861 -0.1699  1.4203 -0.8650
15883SOL    HW253742   0.955   4.035   2.902  0.6604  0.2130 -0.6144
15884SOL     OW53743   0.451   0.870   7.653  0.6327 -0.2271 -0.2018
15884SOL    HW153744   0.511   0.802   7.625 -1.9694 -1.8184 -2.4671
15884SOL    HW253745   0.385   0.874   7.583  0.0920  3.9971  0.2591
15885SOL     OW53746   3.556   8.936   3.433 -0.6864 -0.0388 -0.0226
15885SOL    HW153747   3.618   8.864   3.446 -1.0009 -0.4829 -0.9723
15885SOL    HW253748   3.470   8.898   3.450 -0.8589  0.0928 -0.5854
15886SOL     OW53749  10.571  10.593   8.825  0.1242  0.7942  0.6531
15886SOL    HW153750  10.663  10.600   8.802  0.4235 -4.1096 -0.8698
15886SOL    HW253751  10.567  10.515   8.881 -3.1166  0.5232  0.2293
15887SOL     OW53752   8.463   1.262   5.877  0.4488 -0.3990  0.1493
15887SOL    HW153753   8.551   1.260   5.840  1.0581  0.7786  1.4443
15887SOL    HW253754   8.418   1.188   5.836  1.3933  0.1845 -2.0580
15888SOL     OW53755   6.888  10.209   3.736  0.5156  0.4966 -0.4162
15888SOL    HW153756   6.905  10.164   3.653 -1.6257 -0.1071 -0.5961
15888SOL    HW253757   6.811  10.263   3.718 -0.9471 -0.8159  1.5301
15889SOL     OW53758   4.515   0.661   9.232 -0.4960 -0.1293  0.2325
15889SOL    HW153759   4.539   0.628   9.146  0.4784  1.2049 -0.0550
15889SOL    HW253760   4.425   0.632   9.246 -0.2634 -1.3505 -0.7233
15890SOL     OW53761   6.425   5.397   5.385 -0.0829  0.6533  0.3814
15890SOL    HW153762   6.412   5.489   5.405  0.4683  0.3516  2.4402
15890SOL    HW253763   6.347   5.371   5.336 -2.2222  1.3395  3.1816
15891SOL     OW53764   9.028  10.520   2.971  0.6490  0.3677  0.0435
15891SOL    HW153765   8.976  10.463   2.914  0.2053  0.9075 -0.1026
15891SOL    HW253766   9.056  10.463   3.043  0.9832 -0.2573 -0.5584
15892SOL     OW53767   8.308   4.861   4.789  0.4760 -0.1967 -0.6434
15892SOL    HW153768   8.259   4.933   4.750 -1.3882 -0.8755  0.3123
15892SOL    HW253769   8.300   4.789   4.727 -0.3169 -0.4984 -0.2078
15893SOL     OW53770   9.043   6.015  10.582  0.2845  0.3648  0.2653
15893SOL    HW153771   9.052   6.075  10.508 -0.2202 -0.0283 -0.1211
15893SOL    HW253772   8.963   6.044  10.626 -0.6876 -0.7762 -0.6553
15894SOL     OW53773   8.622   0.801   0.262 -0.2372  0.2079 -0.1916
15894SOL    HW153774   8.681   0.769   0.194 -0.0362  0.0919  0.0365
15894SOL    HW253775   8.666   0.781   0.344  1.3164  3.6739 -0.0205
15895SOL     OW53776   4.720   1.503   7.882 -0.8332  0.3739  0.0585
15895SOL    HW153777   4.776   1.573   7.849  1.3310 -1.5575 -0.6201
15895SOL    HW253778   4.633   1.543   7.887  0.2030  2.9538 -0.6938
15896SOL     OW53779   6.942   2.948   9.991  0.8980  0.1210 -0.3492
15896SOL    HW153780   6.930   2.940   9.897 -1.0868  1.0491 -0.2437
15896SOL    HW253781   6.890   3.025  10.015  0.1992 -0.9003  1.6795
15897SOL     OW53782   2.966   5.407   5.554  0.0506 -0.0519  0.1412
15897SOL    HW153783   2.871   5.409   5.565  0.1499 -0.3335  1.1160
15897SOL    HW253784   2.989   5.314   5.558  0.5733  0.1218  1.9409
15898SOL     OW53785   9.275   1.808   9.072  0.0452  0.3368 -0.0474
15898SOL    HW153786   9.354   1.840   9.117  0.8705 -1.9454  0.2298
15898SOL    HW253787   9.308   1.751   9.004 -1.3742 -0.5355 -0.0398
15899SOL     OW53788   9.983   8.489   2.072 -0.3704 -0.3641 -0.2901
15899SOL    HW153789  10.065   8.481   2.121 -0.5777 -0.8435 -0.0110
15899SOL    HW253790  10.010   8.516   1.984 -0.0427  1.3939  0.3018
15900SOL     OW53791   7.707   6.144   5.385  0.0358 -0.1338  0.2635
15900SOL    HW153792   7.725   6.120   5.476  0.3580  0.8892  0.4791
15900SOL    HW253793   7.673   6.233   5.389  1.6599  0.5834 -0.7467
15901SOL     OW53794   0.525   0.962  10.106  0.5493 -0.0117 -0.1701
15901SOL    HW153795   0.593   1.001  10.161  0.6981 -1.0141  0.3722
15901SOL    HW253796   0.446   1.012  10.126  0.4203 -0.8368  1.5279
15902SOL     OW53797   8.594   6.720   7.263  0.3863  0.8271 -0.1661
15902SOL    HW153798   8.558   6.726   7.175  0.5149  0.9477 -0.2103
15902SOL    HW253799   8.687   6.739   7.253  1.0899 -2.2410 -0.5046
15903SOL     OW53800   0.303   9.216   8.814  0.4701 -0.4111  0.2712
15903SOL    HW153801   0.256   9.279   8.760 -0.5351 -0.5849  0.9276
15903SOL    HW253802   0.394   9.224   8.786  0.4397  1.6366  0.6215
15904SOL     OW53803   2.986   1.305   5.882 -0.4116  0.0988  0.0983
15904SOL    HW153804   2.917   1.246   5.853 -0.6138  1.3095 -2.0883
15904SOL    HW253805   3.067   1.260   5.861 -0.5592  0.7562 -2.1256
15905SOL     OW53806   9.200  10.093   8.603 -0.6684  0.7369 -0.0118
15905SOL    HW153807   9.197  10.188   8.592  2.1703  1.0406  1.0293
15905SOL    HW253808   9.263  10.063   8.537  1.2334  0.1130  1.9698
15906SOL     OW53809   1.579  10.529   0.570 -0.4445  0.0791 -0.4319
15906SOL    HW153810   1.527  10.554   0.494 -1.6822  1.1688  0.7151
15906SOL    HW253811   1.643  10.466   0.536 -0.5891  0.9458 -2.4644
15907SOL     OW53812   3.051   7.245   6.532  0.0196 -0.1899 -0.5677
15907SOL    HW153813   3.032   7.151   6.530  0.9118 -0.4015  0.3405
15907SOL    HW253814   3.123   7.256   6.469 -0.5513  0.0091 -1.1979
15908SOL     OW53815  10.226   0.650   2.934 -0.4672 -0.1411 -0.0642
15908SOL    HW153816  10.294   0.625   2.873 -0.7956  1.6009 -1.2395
15908SOL    HW253817  10.247   0.741   2.958 -3.3322  1.2349 -2.0581
15909SOL     OW53818   4.129   4.534   1.540  0.3050 -0.6920 -0.5011
15909SOL    HW153819   4.154   4.623   1.565  1.3549 -0.9290 -0.6863
15909SOL    HW253820   4.139   4.483   1.620  0.9096 -0.8855 -0.6966
15910SOL     OW53821   5.190   4.568   6.478  0.5938  0.2072  0.0173
15910SOL    HW153822   5.255   4.509   6.517 -0.2491  0.4068  1.8239
15910SOL    HW253823   5.170   4.631   6.547 -1.4820  0.1794 -0.4893
15911SOL     OW53824   7.769   8.565   5.634  0.7729  0.1713 -0.3759
15911SOL    HW153825   7.793   8.655   5.613  0.5532  0.3401  0.0776
15911SOL    HW253826   7.789   8.556   5.727  0.0676 -0.0058 -0.2361
15912SOL     OW53827  10.140   1.090   0.854 -0.6989 -0.3577 -0.4586
15912SOL    HW153828  10.101   1.127   0.933 -0.7823  1.3421 -1.2579
15912SOL    HW253829  10.154   0.998   0.875  0.8658  0.3881  2.1358
15913SOL     OW53830   4.867  10.526   9.627 -0.4501  0.3011  0.1262
15913SOL    HW153831   4.908  10.454   9.675  0.9448 -0.7422 -2.4421
15913SOL    HW253832   4.907  10.605   9.663 -0.5465 -0.2926  1.6396
15914SOL     OW53833   1.619   0.038   9.367  0.1493 -0.1750  0.7029
15914SOL    HW153834   1.641  -0.007   9.285 -0.4005  2.1631 -0.8223
15914SOL    HW253835   1.704   0.061   9.405  0.4009 -0.7721  0.5211
15915SOL     OW53836   4.083   2.873   4.435 -0.0785  0.0508 -0.2686
15915SOL    HW153837   4.136   2.858   4.513  0.5523  0.1324 -0.6708
15915SOL    HW253838   3.997   2.836   4.456 -0.2539  1.0430  0.8681
15916SOL     OW53839   7.204   7.481   0.365  0.4084 -0.0061  0.0021
15916SOL    HW153840   7.174   7.459   0.453 -1.2069  0.7021 -0.3475
15916SOL    HW253841   7.132   7.529   0.326  1.6838  1.0351 -1.1931
15917SOL     OW53842   5.878   2.846   2.247 -0.1512  0.1509 -0.3006
15917SOL    HW153843   5.882   2.802   2.162 -1.6232  1.6049 -1.1918
15917SOL    HW253844   5.966   2.879   2.261  0.1359 -0.1764 -1.2382
15918SOL     OW53845   8.560   5.544   7.673 -0.0749  0.2519  0.6748
15918SOL    HW153846   8.469   5.532   7.700  0.2960 -0.6139  1.5905
15918SOL    HW253847   8.581   5.633   7.699 -0.7005  0.5139  0.3082
15919SOL     OW53848   8.740  10.249   3.991  0.5133  0.8346 -0.3261
15919SOL    HW153849   8.686  10.303   3.933 -0.8921  0.5399  0.6364
15919SOL    HW253850   8.750  10.166   3.943 -0.2133  0.7689 -0.3897
15920SOL     OW53851   2.979   5.721   9.267  0.3647  0.5717  0.3003
15920SOL    HW153852   2.996   5.774   9.189  1.5352 -0.3363 -0.0900
15920SOL    HW253853   2.883   5.721   9.276  0.2728  1.5185 -0.5456
15921SOL     OW53854   6.957   5.099   1.323  0.1205 -0.4503  0.2229
15921SOL    HW153855   6.896   5.148   1.378  3.0530  0.8046  2.6092
15921SOL    HW253856   6.938   5.007   1.341 -1.0971 -0.0984  0.8133
15922SOL     OW53857   0.647   9.235   3.821  0.5098  0.5981  0.8141
15922SOL    HW153858   0.608   9.162   3.869 -0.2751  0.5133  0.0736
15922SOL    HW253859   0.579   9.303   3.822  0.7031  0.8062  0.3237
15923SOL     OW53860   3.797   8.168   4.508 -0.4859 -0.5094 -0.2904
15923SOL    HW153861   3.889   8.170   4.483 -0.0302 -0.9077  1.2835
15923SOL    HW253862   3.761   8.251   4.476  0.8433  0.4384  0.5953
15924SOL     OW53863   0.924   5.369  10.782  0.3095  0.4733 -0.5103
15924SOL    HW153864   0.898   5.336  10.695  0.6645 -0.7348 -0.1823
15924SOL    HW253865   0.849   5.349  10.838  0.2248  0.9238 -0.4632
15925SOL     OW53866   5.840   4.615   2.133 -0.1323 -0.2394  0.0388
15925SOL    HW153867   5.808   4.584   2.048  1.6806 -0.2574 -0.6831
15925SOL    HW253868   5.768   4.667   2.168 -0.8556 -0.0567 -1.6016
15926SOL     OW53869   0.051   0.160   1.707  0.6449 -0.3249  0.3510
15926SOL    HW153870  -0.004   0.206   1.643 -1.6013 -2.0261  0.9495
15926SOL    HW253871   0.021   0.191   1.792 -0.3190 -2.1920  0.7317
15927SOL     OW53872   8.825   9.058   4.832  0.1871 -0.2629 -0.2411
15927SOL    HW153873   8.863   9.037   4.917  2.2224  0.3210 -0.9362
15927SOL    HW253874   8.891   9.113   4.789 -1.5808  1.0030 -1.4905
15928SOL     OW53875  10.049  10.630   0.360  0.5157  0.8915  0.5053
15928SOL    HW153876  10.034  10.717   0.322 -1.6998 -0.9866 -3.4148
15928SOL    HW253877  10.105  10.585   0.297  1.2269 -0.7469  2.2179
15929SOL     OW53878   7.944   4.770  10.694  0.0481 -0.3625 -0.1895
15929SOL    HW153879   7.940   4.718  10.774 -1.9391 -1.0357 -0.6525
15929SOL    HW253880   7.961   4.859  10.724 -1.4077 -0.4669  1.0866
15930SOL     OW53881   3.013   2.840   1.539  0.3794 -0.7321 -0.5682
15930SOL    HW153882   3.028   2.781   1.613  1.7110 -2.1286 -1.8776
15930SOL    HW253883   2.930   2.810   1.501 -0.5118  0.2429  0.5493
15931SOL     OW53884   3.363   9.246   1.460 -0.6722  0.1908 -0.1167
15931SOL    HW153885   3.383   9.259   1.368 -0.9381  2.2349  0.0573
15931SOL    HW253886   3.267   9.245   1.464 -0.6626 -0.4210  0.0872
15932SOL     OW53887   5.940   5.629   9.646  0.5807  0.0031  0.0186
15932SOL    HW153888   5.990   5.703   9.612 -0.8044  0.5615 -0.8967
15932SOL    HW253889   5.923   5.574   9.569 -2.8173  1.4108 -0.4180
15933SOL     OW53890   1.991   2.744   3.156 -0.1132 -0.0189 -0.1692
15933SOL    HW153891   2.054   2.764   3.225  1.9064  0.9697 -2.1479
15933SOL    HW253892   1.906   2.773   3.191  0.8483  0.6174  1.7865
15934SOL     OW53893   2.062   4.732  10.208  0.0649  0.0629  0.2397
15934SOL    HW153894   2.006   4.809  10.217 -0.0479  0.0561 -0.3671
15934SOL    HW253895   2.072   4.720  10.114  0.5850 -0.3040  0.3387
15935SOL     OW53896   3.206   8.826   8.800  0.4650 -0.5486  0.2266
15935SOL    HW153897   3.264   8.758   8.833 -2.0554 -2.0433  1.8875
15935SOL    HW253898   3.134   8.778   8.759 -0.3231  1.1793 -0.5126
15936SOL     OW53899   1.519   3.952   0.669  0.1510  0.2908 -0.1585
15936SOL    HW153900   1.594   4.010   0.657  1.0601 -1.1805 -2.1672
15936SOL    HW253901   1.524   3.891   0.595 -1.1605 -1.8908  1.4315
15937SOL     OW53902   3.334   9.963   4.804  0.5425 -0.3909 -0.1466
15937SOL    HW153903   3.292   9.940   4.721  2.3452  0.5074 -1.3787
15937SOL    HW253904   3.263   9.960   4.868 -1.0876 -0.3540 -1.8467
15938SOL     OW53905   5.359   9.876   8.200  0.1909 -0.2319  0.0523
15938SOL    HW153906   5.315   9.947   8.248 -1.9619 -1.2713 -0.2719
15938SOL    HW253907   5.451   9.884   8.226 -0.1660  1.9414  0.9182
15939SOL     OW53908   1.335   5.666   7.333  0.3221  0.4575 -0.1838
15939SOL    HW153909   1.359   5.605   7.403  0.6373 -0.5169 -1.1036
15939SOL    HW253910   1.296   5.741   7.378 -1.1814 -0.9205  0.9220
15940SOL     OW53911  10.847   4.085   9.670  0.0837  0.0774  0.0124
15940SOL    HW153912  10.839   4.174   9.635  0.3670 -0.1654 -0.6694
15940SOL    HW253913  10.836   4.096   9.765 -0.0002  0.8230 -0.0780
15941SOL     OW53914   0.923   0.629   2.783 -0.5010 -0.3220 -0.4472
15941SOL    HW153915   0.991   0.590   2.837 -0.8894 -0.5641 -0.1271
15941SOL    HW253916   0.960   0.632   2.695  0.5277  0.9828 -0.0081
15942SOL     OW53917   2.674   5.169   4.564 -0.2941 -0.7029  0.1624
15942SOL    HW153918   2.672   5.193   4.656  1.6709  1.9019 -0.3212
15942SOL    HW253919   2.650   5.250   4.518  0.4640 -1.4214 -1.6059
15943SOL     OW53920   1.782   1.750   6.352  0.5093 -0.1803 -0.4948
15943SOL    HW153921   1.725   1.677   6.377  0.4838 -0.3764 -1.1302
15943SOL    HW253922   1.864   1.733   6.398  0.5675 -0.7075 -0.7968
15944SOL     OW53923   8.069   2.194   4.735  0.1261 -0.3621  0.6494
15944SOL    HW153924   8.115   2.214   4.653  0.5017 -1.0338  0.6828
15944SOL    HW253925   7.978   2.181   4.708  0.0785  0.2866  0.4747
15945SOL     OW53926   7.247   0.984   3.548 -0.6068 -0.0661  0.2541
15945SOL    HW153927   7.330   0.940   3.566 -0.5423 -0.0145  0.0861
15945SOL    HW253928   7.193   0.916   3.507 -0.7075 -0.1466  0.5177
15946SOL     OW53929   1.453   9.885   3.241 -0.2767  0.2439 -0.3013
15946SOL    HW153930   1.453   9.980   3.241 -2.4424  0.2857  0.2003
15946SOL    HW253931   1.543   9.861   3.263 -0.4466  2.2277  3.3013
15947SOL     OW53932   6.955   2.719   7.559  0.1381 -0.0540  0.1384
15947SOL    HW153933   6.971   2.813   7.555 -0.1276  0.0836  1.5840
15947SOL    HW253934   6.941   2.701   7.652  1.0412 -1.6696 -0.0025
15948SOL     OW53935   8.700   3.881   6.929  0.7641 -0.3788 -0.3561
15948SOL    HW153936   8.661   3.932   7.000  1.3844  0.7270 -0.7860
15948SOL    HW253937   8.706   3.792   6.964 -3.2428 -0.9753 -0.6639
15949SOL     OW53938   8.021   6.954   7.609 -0.0872  0.4777  0.0906
15949SOL    HW153939   8.098   6.905   7.637 -0.6104  0.6905  2.0227
15949SOL    HW253940   7.972   6.892   7.554 -0.1857 -0.8133  1.5701
15950SOL     OW53941   6.764   1.302   6.363  0.9086  0.1222  0.3643
15950SOL    HW153942   6.817   1.248   6.421  0.4271 -1.3140 -0.4879
15950SOL    HW253943   6.681   1.315   6.411  0.8536 -0.2859  0.3804
15951SOL     OW53944  10.813   0.114   4.372 -0.6272  0.3060  0.1493
15951SOL    HW153945  10.747   0.135   4.306 -0.1424  0.0040 -0.4451
15951SOL    HW253946  10.823   0.019   4.366  0.5602  0.4561 -0.4560
15952SOL     OW53947   2.837   5.063   2.899 -0.9042 -0.1979 -0.2508
15952SOL    HW153948   2.761   5.017   2.934 -1.5068  1.3369  0.5613
15952SOL    HW253949   2.826   5.154   2.928  1.2158  0.0792 -0.1115
15953SOL     OW53950   7.396   9.604   8.065  0.1899 -0.3263 -0.4379
15953SOL    HW153951   7.405   9.548   7.988 -0.4171  0.1672 -0.8743
15953SOL    HW253952   7.409   9.693   8.031  0.6943 -0.1623  0.1689
15954SOL     OW53953   8.081   4.114  10.347  0.2068  0.0172  0.3496
15954SOL    HW153954   8.148   4.127  10.415  0.4286  2.3805 -0.2345
15954SOL    HW253955   7.999   4.112  10.396  0.3304  2.0568  0.7369
15955SOL     OW53956   8.491   9.590   7.436  0.0577 -0.0372  0.2638
15955SOL    HW153957   8.504   9.571   7.343  1.8862  1.7358  0.0977
15955SOL    HW253958   8.579   9.599   7.472 -0.6258  0.8642  1.8362
15956SOL     OW53959   9.464   5.722  10.044  0.1623 -0.7857 -0.1393
15956SOL    HW153960   9.432   5.702   9.956 -0.4092  1.5153 -0.4959
15956SOL    HW253961   9.391   5.699  10.102 -0.8326  1.0195 -0.6213
15957SOL     OW53962   9.543   1.955   9.129 -0.0467 -0.4079 -0.4424
15957SOL    HW153963   9.583   2.035   9.095 -0.1006 -0.4709 -0.6561
15957SOL    HW253964   9.596   1.932   9.204  0.4903 -0.6503 -0.8928
15958SOL     OW53965   4.142   0.529   8.970 -0.4459  0.1085 -0.2711
15958SOL    HW153966   4.048   0.513   8.979 -0.3458  0.1442  1.2145
15958SOL    HW253967   4.178   0.447   8.937 -0.6993 -0.8089  1.5986
15959SOL     OW53968   3.992   4.313   3.086  0.1745 -0.2837  0.0370
15959SOL    HW153969   3.950   4.227   3.092 -0.5159 -0.0318 -0.8902
15959SOL    HW253970   3.975   4.354   3.170 -1.5219 -0.1726 -0.3244
15960SOL     OW53971   4.094   0.351   8.301  0.9262 -0.5967  0.7486
15960SOL    HW153972   4.063   0.407   8.230 -0.7773 -0.8957  1.2117
15960SOL    HW253973   4.187   0.371   8.308  1.2037 -0.6462 -1.6563
15961SOL     OW53974   5.337   6.555   3.170 -0.3234  0.1728 -0.9352
15961SOL    HW153975   5.368   6.546   3.080 -1.4961  2.4165 -1.6457
15961SOL    HW253976   5.395   6.621   3.208  0.3855 -1.0058  0.1210
15962SOL     OW53977   6.012   3.973   3.513  0.5851 -0.1121 -0.2996
15962SOL    HW153978   6.049   3.955   3.427  1.8018 -0.8352  0.3570
15962SOL    HW253979   6.024   4.067   3.525  1.1346 -0.1406 -0.5939
15963SOL     OW53980   3.842   4.124   4.090  0.2202 -0.2437 -0.0293
15963SOL    HW153981   3.931   4.150   4.117  0.2778  0.4169 -0.8101
15963SOL    HW253982   3.800   4.095   4.171  0.3469  1.7705  0.8352
15964SOL     OW53983  10.608   8.790   9.395  0.6961 -0.3057  0.4489
15964SOL    HW153984  10.589   8.804   9.488  1.2517 -0.0389  0.5253
15964SOL    HW253985  10.582   8.871   9.352  0.7151 -0.3171  0.4149
15965SOL     OW53986   9.930   1.441   1.800  0.0966 -0.0227  0.2747
15965SOL    HW153987   9.904   1.438   1.892  1.1982 -1.5102  0.5825
15965SOL    HW253988  10.026   1.432   1.803  0.4284  2.3746 -0.9174
15966SOL     OW53989   1.872   2.501   4.257 -0.6299 -0.1611 -0.0422
15966SOL    HW153990   1.821   2.504   4.176 -1.3280 -0.9049  0.3631
15966SOL    HW253991   1.869   2.591   4.289  0.0292  0.2391 -1.0655
15967SOL     OW53992   3.636  10.292   5.945  0.3375 -0.3129 -0.2044
15967SOL    HW153993   3.691  10.353   5.896 -0.1634  0.6221  0.3660
15967SOL    HW253994   3.614  10.340   6.025  1.1957 -1.8174  0.9815
15968SOL     OW53995   0.674   9.837   4.765  0.4124  0.3766  0.3450
15968SOL    HW153996   0.583   9.809   4.771  0.4538  0.0222 -0.5175
15968SOL    HW253997   0.680   9.914   4.821 -0.6453  0.9631 -0.3150
15969SOL     OW53998   5.575   5.154   5.843  0.3163 -0.2244 -0.4369
15969SOL    HW153999   5.549   5.073   5.888  0.5089 -0.7777 -1.2824
15969SOL    HW254000   5.558   5.136   5.750 -0.4184  1.0222 -0.5651
15970SOL     OW54001   6.108   7.047   0.357  0.3895 -0.7086  0.1019
15970SOL    HW154002   6.041   7.091   0.303  0.6589 -2.5244 -1.8733
15970SOL    HW254003   6.191   7.076   0.319  0.7665  0.8724  2.0039
15971SOL     OW54004   5.041   3.251   3.252  0.0288 -0.3868 -0.2165
15971SOL    HW154005   5.130   3.238   3.287  0.1118  0.3167 -0.1498
15971SOL    HW254006   5.023   3.170   3.203  0.9668 -0.2689 -0.7854
15972SOL     OW54007   8.093   9.795   5.237 -0.4704  0.2741  0.0280
15972SOL    HW154008   8.111   9.741   5.314  0.2175  0.9149  0.3427
15972SOL    HW254009   8.179   9.829   5.212 -0.5571 -0.5691 -1.5345
15973SOL     OW54010   7.571   2.819   8.766 -0.7675 -0.6846 -0.4923
15973SOL    HW154011   7.617   2.770   8.835  2.3768 -0.4810 -2.2311
15973SOL    HW254012   7.479   2.810   8.788 -0.0463 -2.5372  2.4425
15974SOL     OW54013   8.106   8.864   1.035 -0.3262  0.0006 -0.7839
15974SOL    HW154014   8.015   8.884   1.059 -0.1293  0.2154 -0.1998
15974SOL    HW254015   8.126   8.783   1.082 -0.3341 -0.2542 -1.2147
15975SOL     OW54016   9.566   3.364   1.028  0.1897 -0.3391  0.3107
15975SOL    HW154017   9.497   3.430   1.033  1.4712  1.0045  2.3462
15975SOL    HW254018   9.620   3.391   0.954 -1.3790 -1.4102 -1.3038
15976SOL     OW54019   5.594   9.716   8.625 -0.3600 -0.3806 -0.1188
15976SOL    HW154020   5.664   9.669   8.670  1.1965  1.0266 -0.9748
15976SOL    HW254021   5.540   9.751   8.696  0.5553 -0.3766  0.5913
15977SOL     OW54022   0.589   9.256   4.374  0.1848  0.1372  0.3931
15977SOL    HW154023   0.503   9.291   4.400  0.0174 -0.0140  0.0416
15977SOL    HW254024   0.637   9.248   4.456 -0.7843 -1.5575  0.8374
15978SOL     OW54025   2.391   7.223   7.003  0.3234  0.4789  0.6894
15978SOL    HW154026   2.366   7.166   7.076 -2.1949  0.9646  0.3105
15978SOL    HW254027   2.419   7.162   6.935  0.0162 -0.1698  1.1291
15979SOL     OW54028   8.004   0.468  10.530  0.1044 -0.0459  0.2124
15979SOL    HW154029   7.996   0.376  10.503 -1.0001 -0.2901  1.2995
15979SOL    HW254030   8.095   0.477  10.559 -0.4672 -1.5956  2.8023
15980SOL     OW54031   4.531   2.477   7.246 -0.2121  0.0828 -0.1032
15980SOL    HW154032   4.584   2.498   7.322  1.5895 -0.9395 -1.0184
15980SOL    HW254033   4.443   2.510   7.268  0.5618  1.0012  1.8235
15981SOL     OW54034   7.822   2.695   1.943 -0.1578 -0.4197  0.0441
15981SOL    HW154035   7.739   2.679   1.898 -1.9402  1.8030  2.2764
15981SOL    HW254036   7.866   2.760   1.889 -0.1755 -1.0577 -0.7633
15982SOL     OW54037   3.140  10.545   7.612 -0.1503 -0.0465 -0.2064
15982SOL    HW154038   3.098  10.544   7.526  0.2444 -0.3289 -0.3953
15982SOL    HW254039   3.234  10.550   7.593 -0.0837  0.4190  0.2141
15983SOL     OW54040  10.195   9.956   6.543 -0.4005  0.1029  1.1130
15983SOL    HW154041  10.178  10.044   6.575  0.8584  0.7840  0.0359
15983SOL    HW254042  10.186   9.963   6.448  0.3677 -0.7601  0.9595
15984SOL     OW54043   8.278   7.432   2.985  0.4446  0.7424  0.0704
15984SOL    HW154044   8.277   7.400   2.895  2.2974  0.7713 -0.0016
15984SOL    HW254045   8.357   7.392   3.024 -0.3249  0.7093  1.6877
15985SOL     OW54046   5.549   3.032   2.520 -0.2545  0.0720  0.6905
15985SOL    HW154047   5.552   2.958   2.581  0.3247  1.0548  1.9076
15985SOL    HW254048   5.456   3.051   2.510 -0.4930 -1.6162 -0.6722
15986SOL     OW54049   9.942   8.914   1.865  0.4320 -0.2996  0.0854
15986SOL    HW154050   9.916   8.828   1.834  0.2560  0.6059 -2.5121
15986SOL    HW254051  10.033   8.923   1.837  0.4086  0.4053  0.2148
15987SOL     OW54052   6.456   1.499   7.092  0.2456 -0.3169 -0.0322
15987SOL    HW154053   6.428   1.590   7.094  1.2313  0.0834 -1.8207
15987SOL    HW254054   6.377   1.449   7.073  0.1847  0.5168 -2.2711
15988SOL     OW54055   4.807   7.099   6.001  0.5270  0.2361  0.5703
15988SOL    HW154056   4.793   7.005   5.986 -0.7176  0.5764 -0.6803
15988SOL    HW254057   4.850   7.130   5.921  0.8009  0.7568  0.9143
15989SOL     OW54058   9.849   5.246  10.064  0.3797  0.1862 -0.5229
15989SOL    HW154059   9.842   5.340  10.083  2.1724  0.6537 -1.9274
15989SOL    HW254060   9.758   5.218  10.052 -0.1228  2.2160 -2.0824
15990SOL     OW54061   9.553   9.930   3.245 -0.2402  0.6714  0.0567
15990SOL    HW154062   9.498   9.920   3.323 -0.2253  0.5090  0.0472
15990SOL    HW254063   9.505   9.886   3.175 -0.1297  0.5822  0.0350
15991SOL     OW54064   3.376   8.454   2.934 -0.4836 -0.2256  0.0715
15991SOL    HW154065   3.342   8.372   2.901  0.1620 -0.1850 -0.7117
15991SOL    HW254066   3.401   8.435   3.025 -0.7396 -0.7714  0.0274
15992SOL     OW54067  10.096   5.277   1.181  0.0221  0.3740  0.6600
15992SOL    HW154068  10.109   5.212   1.250  0.8216 -1.0992 -0.7980
15992SOL    HW254069  10.040   5.233   1.117 -0.6430  1.6762  0.3064
15993SOL     OW54070   9.301  10.232   4.319  0.2610 -0.0659  0.0211
15993SOL    HW154071   9.311  10.212   4.226  1.4805  1.2705 -0.1772
15993SOL    HW254072   9.243  10.163   4.353 -1.2166  0.1110 -1.9667
15994SOL     OW54073   1.749   7.159   4.109  0.2993  0.2667  0.6821
15994SOL    HW154074   1.731   7.250   4.083 -0.9093 -0.2961 -0.5777
15994SOL    HW254075   1.820   7.132   4.052  0.1942  0.2056  0.5804
15995SOL     OW54076   4.349   1.671   6.374 -0.1424  0.8299 -0.1769
15995SOL    HW154077   4.303   1.620   6.441  0.9348  1.4248  1.0581
15995SOL    HW254078   4.354   1.759   6.410  2.3790  0.6856 -0.0079
15996SOL     OW54079   0.633   7.274   9.813  0.2695 -0.4950  0.3853
15996SOL    HW154080   0.553   7.236   9.777 -0.2236  0.8895 -0.0587
15996SOL    HW254081   0.607   7.308   9.898  0.5474 -0.6240  0.5221
15997SOL     OW54082   6.370   5.876   5.713  0.0797  0.7226  0.0188
15997SOL    HW154083   6.434   5.900   5.780 -0.0816 -0.3619  0.5950
15997SOL    HW254084   6.390   5.784   5.694 -1.3143  0.3416  0.2494
15998SOL     OW54085   5.925   2.683   5.798  0.2518  0.0210 -0.4160
15998SOL    HW154086   5.841   2.660   5.758  0.1316 -0.7209  0.2411
15998SOL    HW254087   5.950   2.606   5.848  2.4493 -0.6667 -2.3934
15999SOL     OW54088   1.714   3.797   4.795 -0.1577 -0.0335 -0.1958
15999SOL    HW154089   1.621   3.816   4.801 -0.2489 -0.7872  1.1245
15999SOL    HW254090   1.721   3.728   4.729 -0.2351  1.6890 -2.1038
16000SOL     OW54091   3.144   7.175   1.625  0.3497 -0.7263 -0.4808
16000SOL    HW154092   3.077   7.139   1.684 -0.8413  0.6835 -0.9171
16000SOL    HW254093   3.177   7.098   1.578 -0.4218 -1.5594  0.2728
16001SOL     OW54094  10.006   2.248   0.170 -0.2286  0.4800 -0.2122
16001SOL    HW154095   9.990   2.278   0.259 -1.6658 -0.0616 -0.2653
16001SOL    HW254096  10.076   2.183   0.179 -0.9410 -0.1937  0.6500
16002SOL     OW54097   1.698   9.232   9.229  0.0551  0.1114 -0.1624
16002SOL    HW154098   1.787   9.253   9.259  0.3076  1.6707 -1.8155
16002SOL    HW254099   1.679   9.147   9.267  1.1906  0.9435  2.4635
16003SOL     OW54100   2.144   5.907   7.041 -0.2420  0.0458 -0.3551
16003SOL    HW154101   2.178   5.894   6.952 -1.2889  0.7258 -0.8893
16003SOL    HW254102   2.217   5.888   7.099  0.3589 -0.7752 -1.3551
16004SOL     OW54103   7.767   1.504  10.461 -0.2717 -0.3071 -0.1974
16004SOL    HW154104   7.696   1.440  10.470  0.3297 -1.4666 -2.9245
16004SOL    HW254105   7.728   1.586  10.492 -2.4878 -1.0989 -0.6701
16005SOL     OW54106   4.364   3.592  10.146  0.4772  0.6487  0.3652
16005SOL    HW154107   4.305   3.530  10.189 -1.2142  1.8953 -0.0774
16005SOL    HW254108   4.368   3.667  10.205 -1.5628  2.2156 -1.3253
16006SOL     OW54109   7.377   7.880   1.427  0.0669  0.0255 -0.8032
16006SOL    HW154110   7.379   7.873   1.523 -2.3870  1.0504 -0.6168
16006SOL    HW254111   7.425   7.802   1.397  0.6609 -0.4645  1.2314
16007SOL     OW54112   6.159   5.270   3.991 -0.0375 -0.6355 -0.2923
16007SOL    HW154113   6.107   5.301   4.065 -1.8441 -2.6138 -0.6335
16007SOL    HW254114   6.230   5.333   3.983 -0.5713  0.3919  2.2456
16008SOL     OW54115   2.744   2.431   9.185 -0.6897  0.5926 -0.1028
16008SOL    HW154116   2.759   2.459   9.275 -1.4652 -1.4005  0.7211
16008SOL    HW254117   2.665   2.479   9.157 -2.1615 -0.8325  1.3567
16009SOL     OW54118  10.881   1.056  10.653  0.2456 -0.2612 -0.1738
16009SOL    HW154119  10.808   1.116  10.639  0.6836  0.4260  0.4363
16009SOL    HW254120  10.901   1.064  10.746  0.8093 -0.7830 -0.2476
16010SOL     OW54121  10.507   4.189   1.437  0.1765 -0.5242 -0.4447
16010SOL    HW154122  10.419   4.181   1.399 -0.9038 -2.3194  2.1386
16010SOL    HW254123  10.527   4.282   1.432 -2.0541 -0.0034 -0.7617
16011SOL     OW54124   1.828   3.321  10.554 -0.2228  0.2261 -0.5683
16011SOL    HW154125   1.760   3.260  10.583 -1.7445  1.2799 -1.7259
16011SOL    HW254126   1.886   3.331  10.629 -0.3024 -2.1113 -0.1502
16012SOL     OW54127   2.320   1.950   1.493  0.1899  0.2965  0.3629
16012SOL    HW154128   2.368   1.915   1.568 -0.4197  0.1270  0.6745
16012SOL    HW254129   2.236   1.977   1.528 -0.9665 -1.7727 -0.6252
16013SOL     OW54130   6.550   5.819   3.537 -0.4084  0.1038  0.5263
16013SOL    HW154131   6.509   5.826   3.624 -0.8011  0.1308  0.3422
16013SOL    HW254132   6.542   5.726   3.515  1.8833 -0.4237  1.5642
16014SOL     OW54133   4.651   1.356   7.571  0.2409  0.4003 -0.5110
16014SOL    HW154134   4.606   1.300   7.508  1.0063 -0.2831 -0.4632
16014SOL    HW254135   4.723   1.302   7.604 -0.6596  0.4096  1.6159
16015SOL     OW54136   9.816   0.185   5.826  0.2149 -0.0657  0.1949
16015SOL    HW154137   9.909   0.163   5.830  0.3414  0.0183 -1.5668
16015SOL    HW254138   9.800   0.203   5.734 -1.5660 -0.1010  0.4737
16016SOL     OW54139   4.991  10.310   1.454 -0.2006 -0.6307  0.1698
16016SOL    HW154140   4.991  10.243   1.522 -0.7251  0.0109  0.8128
16016SOL    HW254141   4.918  10.286   1.397 -1.4104  0.2632  1.2935
16017SOL     OW54142   6.754  10.239   0.843  0.0727  0.2671  0.1561
16017SOL    HW154143   6.715  10.163   0.799 -1.7622  0.6426  1.0271
16017SOL    HW254144   6.691  10.262   0.911  1.5251  1.3949  1.1783
16018SOL     OW54145   9.132   2.770   1.341  0.0488 -0.1744  0.0038
16018SOL    HW154146   9.059   2.743   1.285 -1.0969 -1.5514  2.0770
16018SOL    HW254147   9.199   2.800   1.279 -1.3489 -1.1233 -2.0737
16019SOL     OW54148   1.867   4.600   0.107 -0.3371  0.2814 -0.1706
16019SOL    HW154149   1.948   4.644   0.133  1.4220 -2.3454 -0.8407
16019SOL    HW254150   1.872   4.596   0.012  0.4696 -2.7374 -0.0975
16020SOL     OW54151   9.595   1.323   2.197  0.1290 -0.1766  0.7327
16020SOL    HW154152   9.514   1.284   2.230  0.6426 -0.8178  1.2382
16020SOL    HW254153   9.651   1.249   2.175  0.9644  0.2536  1.3395
16021SOL     OW54154   4.219   0.272   9.409  0.7660 -0.0858  0.3739
16021SOL    HW154155   4.162   0.235   9.342 -0.6950  0.9316  1.0022
16021SOL    HW254156   4.168   0.264   9.490  0.8161  2.2981  0.7072
16022SOL     OW54157   9.670   4.376   8.733 -0.3965  0.3787  0.2154
16022SOL    HW154158   9.587   4.412   8.766 -0.0504  1.7576 -0.3706
16022SOL    HW254159   9.650   4.349   8.643 -0.6728 -1.0542  0.6664
16023SOL     OW54160   6.474   1.536   0.494  0.1167 -0.2267  0.3166
16023SOL    HW154161   6.511   1.453   0.465 -1.6386 -0.9619  0.0169
16023SOL    HW254162   6.381   1.528   0.473 -0.2574  1.4171  1.2355
16024SOL     OW54163  10.039   1.041   5.195  0.2839  0.2201  0.3986
16024SOL    HW154164   9.961   0.994   5.224  0.3085 -0.1115 -0.0710
16024SOL    HW254165  10.034   1.040   5.100  0.9727  0.0071  0.3597
16025SOL     OW54166   6.108   9.177  10.733 -0.0009  0.2291 -0.6082
16025SOL    HW154167   6.199   9.162  10.759 -0.4273 -0.2833  0.6237
16025SOL    HW254168   6.056   9.157  10.811 -1.0410  2.5472 -0.5951
16026SOL     OW54169   8.343   6.112   0.813 -0.3988 -0.0598 -0.6884
16026SOL    HW154170   8.341   6.207   0.819  0.3269 -0.0370 -0.6272
16026SOL    HW254171   8.252   6.086   0.797 -0.5475  0.6637 -1.0566
16027SOL     OW54172   4.114   4.818   3.549 -1.2547 -0.0482  0.1025
16027SOL    HW154173   4.109   4.848   3.458  2.6898  0.1504 -0.2499
16027SOL    HW254174   4.092   4.896   3.600 -1.6361  0.3952 -0.7052
16028SOL     OW54175   3.918  10.157   6.718 -0.4284  0.0924 -0.2832
16028SOL    HW154176   3.976  10.233   6.721 -1.9156  1.2463  0.7471
16028SOL    HW254177   3.976  10.082   6.730  0.9233  1.1467  0.0550
16029SOL     OW54178   8.872   8.410   8.319 -0.1611 -0.2136 -0.6510
16029SOL    HW154179   8.902   8.498   8.294  0.5277 -0.3219 -0.2263
16029SOL    HW254180   8.859   8.415   8.413  0.6569 -0.7829 -0.4954
16030SOL     OW54181   1.790   6.308  10.391 -0.0463  0.1318  0.4864
16030SOL    HW154182   1.711   6.262  10.420 -0.3062  0.4309  0.2548
16030SOL    HW254183   1.772   6.330  10.299  1.0294 -1.3913 -0.1337
16031SOL     OW54184   9.555   1.233   7.618 -0.3147 -0.0381  0.1055
16031SOL    HW154185   9.530   1.242   7.526  0.3291 -0.6068 -0.1265
16031SOL    HW254186   9.545   1.140   7.636 -1.8499  0.2668  1.0328
16032SOL     OW54187   3.453   9.102   0.677  0.4126 -0.0700 -0.0594
16032SOL    HW154188   3.470   9.152   0.598 -0.5504  0.5445  0.1120
16032SOL    HW254189   3.451   9.011   0.648 -1.3284  0.2307 -1.0129
16033SOL     OW54190  10.894  10.510   6.683 -0.5466  0.1107  0.1438
16033SOL    HW154191  10.951  10.460   6.741  0.0847  1.7942  1.0379
16033SOL    HW254192  10.821  10.538   6.739 -0.9723  0.0674 -0.3789
16034SOL     OW54193   2.017   0.192   5.978  0.2936 -0.3805 -0.2533
16034SOL    HW154194   2.017   0.239   6.061 -0.0973 -1.7358  0.5500
16034SOL    HW254195   2.066   0.112   5.996 -1.1744 -1.4659 -0.8509
16035SOL     OW54196   4.126   6.729   2.941  0.0418  0.0432 -0.0128
16035SOL    HW154197   4.200   6.730   2.879  0.5900  1.4064  0.6319
16035SOL    HW254198   4.107   6.821   2.957 -1.5120 -0.2944  0.2096
16036SOL     OW54199   6.209   1.302   8.647  0.1911  0.1023 -0.0421
16036SOL    HW154200   6.165   1.375   8.690  0.5231  0.1661  0.1963
16036SOL    HW254201   6.258   1.343   8.575  0.2466  0.0934 -0.0092
16037SOL     OW54202   0.519   0.912   1.288  0.4635  0.7150  0.5029
16037SOL    HW154203   0.532   0.817   1.277  1.2271  0.6252  1.9864
16037SOL    HW254204   0.442   0.920   1.344 -0.6202  1.0504 -0.9629
16038SOL     OW54205   6.669   2.347   5.409  0.4568  0.0930  0.0450
16038SOL    HW154206   6.723   2.407   5.460  0.8849 -0.6403  0.4741
16038SOL    HW254207   6.732   2.299   5.355  0.3089 -1.1284  0.9147
16039SOL     OW54208   2.568  10.270   7.414  0.1070 -0.7032  0.2002
16039SOL    HW154209   2.504  10.237   7.351 -2.6781  0.7785  2.0445
16039SOL    HW254210   2.578  10.198   7.477 -0.0710 -0.7701  0.1512
16040SOL     OW54211   3.721   3.942   0.795 -0.0355  0.0133  0.4347
16040SOL    HW154212   3.757   4.028   0.771  0.8226 -0.0396  1.4723
16040SOL    HW254213   3.642   3.963   0.845  0.1151  0.1968  0.5976
16041SOL     OW54214   3.067   8.733   8.227  0.4194  0.8123  0.1422
16041SOL    HW154215   2.977   8.735   8.260  0.8124  0.3759  1.3072
16041SOL    HW254216   3.062   8.770   8.139 -0.8763  0.9016  0.2428
16042SOL     OW54217   9.730  10.091   0.920 -0.1467 -0.0373  0.2343
16042SOL    HW154218   9.644  10.130   0.902  0.2026  1.0215  0.7683
16042SOL    HW254219   9.767  10.074   0.834 -1.3977 -1.7114 -0.0228
16043SOL     OW54220  10.783   1.782   3.321 -0.0268 -0.3133 -0.1216
16043SOL    HW154221  10.875   1.769   3.297 -0.0443 -0.4748 -0.1003
16043SOL    HW254222  10.785   1.798   3.415 -0.1935 -2.1390  0.2214
16044SOL     OW54223   3.859  10.395   9.925 -0.0877  0.0493  0.4293
16044SOL    HW154224   3.871  10.412  10.019  0.4621 -0.8148  0.5337
16044SOL    HW254225   3.768  10.416   9.908 -0.2765 -0.0742  1.2307
16045SOL     OW54226   2.876   2.148   1.462  0.5104  0.0359  0.3541
16045SOL    HW154227   2.863   2.221   1.402 -1.6462 -1.4492 -1.1728
16045SOL    HW254228   2.839   2.177   1.545  0.2002  0.8847 -0.0734
16046SOL     OW54229   6.672  10.762   0.783 -0.3467 -0.9608 -0.4031
16046SOL    HW154230   6.737  10.809   0.731 -0.3620  1.2411  1.4153
16046SOL    HW254231   6.706  10.672   0.790  2.0057 -0.1263 -0.3308
16047SOL     OW54232   6.948   4.181   9.162  0.4742  0.5179  0.3199
16047SOL    HW154233   6.981   4.097   9.131  0.3481  1.0640 -1.3800
16047SOL    HW254234   6.853   4.175   9.152  0.4130  0.6336  0.8135
16048SOL     OW54235   8.677   0.058   7.639  0.3379 -0.1181  0.5816
16048SOL    HW154236   8.604   0.093   7.587  0.4647 -2.1454 -1.0937
16048SOL    HW254237   8.635   0.026   7.719 -0.8096 -1.7194 -0.5680
16049SOL     OW54238   8.521   6.382   0.753  0.3668  0.0557  0.2685
16049SOL    HW154239   8.563   6.452   0.703 -1.1834  1.4312  0.8144
16049SOL    HW254240   8.552   6.301   0.712  2.3469  1.0280 -0.2632
16050SOL     OW54241   1.890   0.381   1.874 -0.1687 -0.3224  1.0860
16050SOL    HW154242   1.798   0.367   1.896 -0.4641  0.0984  0.1570
16050SOL    HW254243   1.897   0.475   1.857  0.2707 -0.4560  0.4710
16051SOL     OW54244   9.666   0.985   8.220 -0.3039  0.3228  0.4646
16051SOL    HW154245   9.737   1.045   8.198 -0.3785  1.4791  3.0342
16051SOL    HW254246   9.587   1.028   8.187 -0.0266 -0.2127 -0.9894
16052SOL     OW54247   5.821   6.127   6.531 -0.2375  0.1618 -0.2942
16052SOL    HW154248   5.832   6.115   6.625 -0.9538  0.5594 -0.1517
16052SOL    HW254249   5.909   6.146   6.498  0.0462 -0.1740  0.2621
16053SOL     OW54250   2.680   3.017   8.923  0.2377  0.1967  0.5977
16053SOL    HW154251   2.674   3.103   8.965 -4.1318  1.7901 -2.5911
16053SOL    HW254252   2.711   3.036   8.834  0.8558 -1.8266  0.3252
16054SOL     OW54253  10.659   0.731   8.602  0.5921 -0.4478  0.1909
16054SOL    HW154254  10.740   0.679   8.597  0.1156 -1.2395  0.5736
16054SOL    HW254255  10.638   0.751   8.511  0.4200 -1.5091 -0.0125
16055SOL     OW54256   9.342   8.880  10.649  0.0250  0.0098  0.1056
16055SOL    HW154257   9.273   8.942  10.625 -1.4876 -0.9770  1.7013
16055SOL    HW254258   9.400   8.878  10.573 -0.4674  2.5240 -0.4354
16056SOL     OW54259   1.652   6.192   8.413 -0.3395  0.7540  0.5667
16056SOL    HW154260   1.591   6.263   8.435  0.6973  1.4606  1.2412
16056SOL    HW254261   1.730   6.211   8.465 -0.5139 -1.6249  1.8199
16057SOL     OW54262   6.103   1.252   3.361  0.7185  0.3799  0.4536
16057SOL    HW154263   6.043   1.186   3.395  0.4082  0.2143 -0.4075
16057SOL    HW254264   6.099   1.243   3.266 -1.1650  3.1617  0.1348
16058SOL     OW54265   5.905   8.461   5.570 -0.0482 -0.0942  0.3690
16058SOL    HW154266   5.935   8.551   5.586  0.2436  0.0899 -1.0828
16058SOL    HW254267   5.816   8.460   5.605 -0.2269  0.9086 -0.0055
16059SOL     OW54268   9.372   3.656  10.767  0.0108  0.6256 -0.1471
16059SOL    HW154269   9.310   3.588  10.742  0.8402 -0.3098  0.2427
16059SOL    HW254270   9.321   3.737  10.770 -1.1726 -0.1204  0.1949
16060SOL     OW54271   2.886   3.667   4.291  0.1482 -0.5390  0.0484
16060SOL    HW154272   2.821   3.737   4.301  1.8115  0.8524  1.8229
16060SOL    HW254273   2.897   3.658   4.197  0.8942  2.6400 -0.2872
16061SOL     OW54274   8.811   7.861   4.141  0.6594 -0.2536 -0.3458
16061SOL    HW154275   8.719   7.879   4.162  0.4775  0.4747 -1.6527
16061SOL    HW254276   8.856   7.866   4.225 -0.4676 -0.5262  0.3100
16062SOL     OW54277   5.599   3.048   4.328  0.1909  0.3868  0.0265
16062SOL    HW154278   5.645   2.972   4.365  3.3018  1.2197 -1.8413
16062SOL    HW254279   5.584   3.024   4.236 -0.7793  1.2160 -0.0444
16063SOL     OW54280   9.384   2.093   5.256 -0.0338  0.2204  0.3766
16063SOL    HW154281   9.386   2.017   5.199 -0.4764  1.9880 -2.1286
16063SOL    HW254282   9.305   2.081   5.309  0.7667 -1.7952  1.2459
16064SOL     OW54283   0.116   5.737   6.320 -0.1701  0.1662  0.0394
16064SOL    HW154284   0.022   5.747   6.337  0.0636  1.2417  0.7010
16064SOL    HW254285   0.147   5.677   6.388 -0.6579 -1.5705 -1.1642
16065SOL     OW54286   3.445   2.992   9.923  0.0766  0.1842  0.3725
16065SOL    HW154287   3.498   3.044   9.983 -0.1217  0.5844  0.2001
16065SOL    HW254288   3.458   3.032   9.837 -0.0609 -0.0630  0.2327
16066SOL     OW54289   1.519   5.475  10.635 -0.0931  0.0299  0.3069
16066SOL    HW154290   1.548   5.540  10.571 -0.6905 -0.9949 -1.0630
16066SOL    HW254291   1.429   5.498  10.654 -0.4701 -0.6560 -0.5694
16067SOL     OW54292   5.194   6.704   5.692  0.1693  0.1095 -0.7031
16067SOL    HW154293   5.184   6.770   5.761  0.0324 -1.2379  0.6177
16067SOL    HW254294   5.273   6.730   5.646  0.2851  1.0374 -0.0274
16068SOL     OW54295   4.786   2.482   8.644  0.4235 -0.2801 -0.1728
16068SOL    HW154296   4.877   2.462   8.668  0.5589  0.0392 -0.4127
16068SOL    HW254297   4.750   2.398   8.615  0.4106 -0.5661  0.6449
16069SOL     OW54298   7.148   7.652   1.828  0.0888 -0.3822 -0.0168
16069SOL    HW154299   7.213   7.594   1.789 -0.5220 -0.1464 -1.4465
16069SOL    HW254300   7.064   7.616   1.800 -0.3239  0.6876 -0.2171
16070SOL     OW54301   6.140   3.949   0.978  0.6159  0.1205 -0.2054
16070SOL    HW154302   6.089   3.944   1.059  0.6228 -0.7058 -0.2462
16070SOL    HW254303   6.221   3.993   1.003  1.4843 -1.8954  0.7015
16071SOL     OW54304   4.352   9.879   6.261  0.2901 -0.0703  0.3364
16071SOL    HW154305   4.324   9.825   6.187 -0.0985  2.2098 -1.2980
16071SOL    HW254306   4.293   9.854   6.332 -0.2059 -1.3980 -0.5013
16072SOL     OW54307   3.383   4.267   4.896 -0.6854  0.4513  0.1130
16072SOL    HW154308   3.473   4.248   4.870 -0.5853 -0.8344  1.3085
16072SOL    HW254309   3.385   4.263   4.991 -2.2397 -0.7714  0.1241
16073SOL     OW54310   8.413   6.920   3.264  0.3971 -0.1687  0.0829
16073SOL    HW154311   8.352   6.912   3.337  0.7357  1.7630  0.6378
16073SOL    HW254312   8.492   6.875   3.294 -0.2080 -1.3166 -0.0116
16074SOL     OW54313   9.539   3.046   9.937  0.7962 -0.0611 -0.0337
16074SOL    HW154314   9.498   3.033   9.852  1.6452  2.4828 -0.9163
16074SOL    HW254315   9.615   2.987   9.936 -0.5777 -1.9463  0.0807
16075SOL     OW54316   2.139   3.599   3.261 -0.2610  0.3178  0.3333
16075SOL    HW154317   2.095   3.574   3.342 -1.2110 -0.5793 -0.4311
16075SOL    HW254318   2.082   3.565   3.191  0.8531  0.5081 -0.7032
16076SOL     OW54319   0.495   5.641   9.171 -0.0406 -0.4361  0.2353
16076SOL    HW154320   0.442   5.599   9.104  1.0768  0.9560 -1.6273
16076SOL    HW254321   0.442   5.715   9.200  0.0968 -0.1321 -0.2726
16077SOL     OW54322   1.381   2.962   1.671  0.5824 -0.1259 -0.3639
16077SOL    HW154323   1.338   2.882   1.701  2.0161 -0.4983  0.7989
16077SOL    HW254324   1.385   3.017   1.749  0.5698  0.6516 -0.9027
16078SOL     OW54325   0.288   4.151  10.849  0.0789 -0.4678  0.2949
16078SOL    HW154326   0.300   4.066  10.807  1.6106 -0.5154  0.7502
16078SOL    HW254327   0.288   4.132  10.943 -0.4976 -0.0582  0.3840
16079SOL     OW54328   7.909   5.788   9.830  0.3297  0.3195  0.0212
16079SOL    HW154329   7.955   5.871   9.835  0.1245  0.4450 -0.1547
16079SOL    HW254330   7.816   5.812   9.834  0.2900  0.0073  1.2823
16080SOL     OW54331   4.085  10.391   6.099 -0.0869 -0.4565  0.2112
16080SOL    HW154332   4.143  10.331   6.146 -2.0663 -1.4396  1.5484
16080SOL    HW254333   4.057  10.454   6.166  0.6315  0.9650 -0.7892
16081SOL     OW54334   1.020   2.271   1.206  0.3170  0.0786 -0.3927
16081SOL    HW154335   0.993   2.253   1.116  0.6655  0.0240 -0.4889
16081SOL    HW254336   0.954   2.331   1.239 -1.5578 -2.2573  0.3311
16082SOL     OW54337   7.267   6.823   5.549 -0.1405  0.3940  0.5257
16082SOL    HW154338   7.253   6.787   5.636 -2.0144  0.4441  0.2875
16082SOL    HW254339   7.287   6.915   5.563  0.9570  0.1085  0.9447
16083SOL     OW54340   8.584   8.999   1.342 -0.1291 -0.3571  0.3371
16083SOL    HW154341   8.520   8.937   1.305 -0.5985  1.0957 -1.4149
16083SOL    HW254342   8.667   8.976   1.300  0.4113 -1.7592  2.0528
16084SOL     OW54343  10.142   9.269   1.128 -0.3938 -0.0654 -0.2728
16084SOL    HW154344  10.084   9.196   1.152 -1.0162  0.9982  1.7163
16084SOL    HW254345  10.092   9.320   1.064 -1.2255  0.2311  0.5940
16085SOL     OW54346   1.490  10.397   1.082  0.1983 -0.4141  0.1323
16085SOL    HW154347   1.450  10.331   1.024 -0.7327  0.7013 -0.5256
16085SOL    HW254348   1.493  10.477   1.029  1.0967  0.1469  1.0028
16086SOL     OW54349   7.032  10.821   7.262  0.2972  0.1982 -0.2334
16086SOL    HW154350   7.095  10.838   7.192  1.2871  0.3433  0.6763
16086SOL    HW254351   6.963  10.886   7.249  0.8674  0.7318 -0.6012
16087SOL     OW54352   5.502   2.950   1.930  0.5087 -0.2463  0.1387
16087SOL    HW154353   5.591   2.985   1.929  0.1761  0.6340 -1.3264
16087SOL    HW254354   5.514   2.856   1.917  1.2140  0.0372 -1.6879
16088SOL     OW54355   6.964   1.187   5.769 -0.2484  0.4187  0.2186
16088SOL    HW154356   6.988   1.113   5.826  1.2518  1.7239  1.3800
16088SOL    HW254357   6.882   1.160   5.728  0.4444 -2.0590  0.2744
16089SOL     OW54358   8.477   2.863   4.790  0.1939  0.0623 -0.3633
16089SOL    HW154359   8.561   2.909   4.785  0.6089 -0.5987  0.2069
16089SOL    HW254360   8.471   2.836   4.881 -0.7959  0.3724 -0.3353
16090SOL     OW54361   3.800   7.545   0.051 -0.1523  0.3440  0.4645
16090SOL    HW154362   3.871   7.543  -0.013  0.5058 -0.6760  1.2003
16090SOL    HW254363   3.735   7.484   0.016 -1.3547  2.2914 -0.9160
16091SOL     OW54364   1.903   4.376   2.746 -0.9263  0.4883  0.0829
16091SOL    HW154365   1.962   4.302   2.737  0.4661  1.4750  0.8141
16091SOL    HW254366   1.837   4.346   2.809  0.0078  0.0947  0.8975
16092SOL     OW54367   2.690   5.687   1.322  0.0789  0.6167  0.3522
16092SOL    HW154368   2.669   5.598   1.348  2.0683  0.5306  1.9809
16092SOL    HW254369   2.608   5.735   1.333 -1.1079 -1.0315 -0.8839
16093SOL     OW54370   9.961   3.519   5.831 -0.2233 -0.1340 -0.1845
16093SOL    HW154371   9.898   3.511   5.902 -1.2790 -0.3144 -1.1073
16093SOL    HW254372   9.962   3.432   5.790  3.4018 -1.3315  2.0071
16094SOL     OW54373   1.553   4.937   5.171  0.1486  0.2061  0.0974
16094SOL    HW154374   1.460   4.938   5.149 -0.0223 -1.6065  0.6024
16094SOL    HW254375   1.578   4.845   5.166  2.3954  0.8239 -1.8522
16095SOL     OW54376   4.888   8.283   2.282 -0.3313  0.1582  0.4773
16095SOL    HW154377   4.898   8.207   2.339  0.5529 -0.6535 -0.7141
16095SOL    HW254378   4.826   8.254   2.215  1.6749 -0.3311 -1.2523
16096SOL     OW54379   0.867  10.309   8.674 -0.3139  0.6008  0.2341
16096SOL    HW154380   0.812  10.381   8.705  1.0452  1.1458  1.5189
16096SOL    HW254381   0.920  10.284   8.750  0.2920 -0.7747 -0.5884
16097SOL     OW54382   1.661   3.201   2.317 -0.3669 -0.4973 -0.1426
16097SOL    HW154383   1.642   3.180   2.226 -0.0943  0.4703 -0.4228
16097SOL    HW254384   1.578   3.185   2.363 -0.3366 -1.5813 -0.4436
16098SOL     OW54385   5.922   2.347   8.471 -0.1381 -0.1316  0.1176
16098SOL    HW154386   5.940   2.424   8.418 -1.5836  1.1770  1.4372
16098SOL    HW254387   5.852   2.301   8.425 -1.0802  0.7591  0.6316
16099SOL     OW54388   6.321   9.896   9.466  0.2572  0.3464  0.0210
16099SOL    HW154389   6.362   9.968   9.513 -1.0216  0.7614  0.5442
16099SOL    HW254390   6.262   9.855   9.531  0.5844 -0.8502 -0.4091
16100SOL     OW54391  10.607   6.832   2.927 -0.2116 -0.2817 -0.5435
16100SOL    HW154392  10.625   6.925   2.933 -0.1930 -0.0791 -2.8905
16100SOL    HW254393  10.515   6.823   2.951 -0.0943  0.2669  0.1211
16101SOL     OW54394   7.479   0.585   9.250 -0.1853 -0.7304  0.1551
16101SOL    HW154395   7.494   0.633   9.331 -0.2065  1.8282 -1.2467
16101SOL    HW254396   7.559   0.598   9.199 -0.4516 -1.6442 -0.5232
16102SOL     OW54397   9.558   8.683  10.466  0.1253  0.1532  0.2098
16102SOL    HW154398   9.552   8.659  10.558 -0.9225  0.7543  0.3108
16102SOL    HW254399   9.552   8.600  10.419  0.3653 -0.1276  0.6694
16103SOL     OW54400   6.418   1.209   5.399  0.4655  0.1138 -0.4293
16103SOL    HW154401   6.387   1.253   5.478 -1.5868 -1.9020  0.0006
16103SOL    HW254402   6.405   1.274   5.329 -2.0165  0.4584  0.2448
16104SOL     OW54403   5.015   5.159   5.102 -0.1598  0.1676 -0.1467
16104SOL    HW154404   5.018   5.115   5.186 -1.3450  0.0482 -0.1552
16104SOL    HW254405   5.077   5.232   5.110 -0.4221  0.2787  0.8881
16105SOL     OW54406   0.534   2.533   2.609  0.3463 -0.5848  0.0028
16105SOL    HW154407   0.491   2.465   2.558 -0.5910  0.6906 -0.9732
16105SOL    HW254408   0.626   2.506   2.612  0.0334 -1.7926 -0.5010
16106SOL     OW54409   9.858   6.507   9.984  0.0479 -0.3644  0.3344
16106SOL    HW154410   9.783   6.448   9.985 -0.0886 -0.1890  0.5899
16106SOL    HW254411   9.915   6.472   9.916  0.9395 -1.9939  1.8458
16107SOL     OW54412  10.006   1.624   3.401  0.9237 -0.0174  0.2497
16107SOL    HW154413  10.100   1.621   3.420  1.0121 -1.6688 -0.3424
16107SOL    HW254414  10.000   1.608   3.307  0.0609  0.4636  0.2172
16108SOL     OW54415   5.406   8.749   4.054  0.2630  0.0336  0.1507
16108SOL    HW154416   5.414   8.738   3.960  1.1738 -2.0190  0.4232
16108SOL    HW254417   5.488   8.793   4.080  0.1725  0.2672  0.0437
16109SOL     OW54418   2.016   5.342   9.163  0.2756  0.0589  0.2872
16109SOL    HW154419   1.972   5.305   9.087  2.8746 -0.0518 -1.2663
16109SOL    HW254420   2.081   5.277   9.187  1.8949  1.6152  0.3267
16110SOL     OW54421   1.471   6.904   3.726 -0.6126 -0.5289  0.1153
16110SOL    HW154422   1.526   6.973   3.763 -1.3578  0.0871  0.0886
16110SOL    HW254423   1.507   6.889   3.639 -1.0663  0.5394 -0.2680
16111SOL     OW54424   9.888   0.007   1.451  0.6327  0.6960  0.3421
16111SOL    HW154425   9.879  -0.017   1.359  1.0017  0.5957  0.3304
16111SOL    HW254426   9.903   0.102   1.449 -2.4568  1.2947  0.4747
16112SOL     OW54427   5.324   2.565  10.446  0.1106  0.5743 -0.1978
16112SOL    HW154428   5.398   2.510  10.420 -1.2368 -1.4569 -0.0071
16112SOL    HW254429   5.290   2.599  10.363  0.7553  0.8707 -0.3485
16113SOL     OW54430   7.909   9.608   6.469 -0.3230  0.1718  0.0975
16113SOL    HW154431   7.931   9.678   6.531  2.1986 -0.9100  0.5490
16113SOL    HW254432   7.972   9.539   6.488 -2.8478 -2.3836 -0.1737
16114SOL     OW54433  10.006   6.384   6.117 -0.4151 -0.5292 -0.0536
16114SOL    HW154434   9.974   6.405   6.205 -1.7065 -3.4481  0.3027
16114SOL    HW254435   9.960   6.447   6.060 -1.0802  0.1438  1.1688
16115SOL     OW54436   1.423   0.863   7.722  0.1085 -0.5444  0.4156
16115SOL    HW154437   1.380   0.945   7.744  1.5111  0.1855  0.5344
16115SOL    HW254438   1.397   0.846   7.631 -0.3899 -0.1058  0.4725
16116SOL     OW54439   0.688   4.526   5.996 -0.3613 -0.0408 -0.5105
16116SOL    HW154440   0.659   4.436   5.979 -1.5631  0.6434 -2.3936
16116SOL    HW254441   0.650   4.547   6.082 -1.8461 -0.6547 -0.9784
16117SOL     OW54442   0.438   3.674   7.126  0.4426  0.2835  0.3953
16117SOL    HW154443   0.503   3.619   7.082 -0.2702 -1.1002  1.0110
16117SOL    HW254444   0.485   3.710   7.201  0.7238 -0.0740  0.3951
16118SOL     OW54445   1.054   3.757   1.248 -0.1832  0.2100  0.1758
16118SOL    HW154446   1.001   3.816   1.302  0.9715 -0.0973  1.7240
16118SOL    HW254447   1.057   3.675   1.299  1.7095  0.2150  0.1271
16119SOL     OW54448   7.091   0.775   0.574  0.6759  0.3108 -0.3546
16119SOL    HW154449   7.024   0.714   0.543  2.2053 -1.4876 -0.2342
16119SOL    HW254450   7.052   0.815   0.652 -1.2495  1.2802 -1.7055
16120SOL     OW54451   8.220   7.264   2.455  0.2713  0.4745  0.3868
16120SOL    HW154452   8.238   7.268   2.361 -1.1107 -0.4043  0.0466
16120SOL    HW254453   8.223   7.170   2.475  2.6411  0.7616  1.6970
16121SOL     OW54454   3.778   3.587   5.736  0.1523  0.0595 -0.0450
16121SOL    HW154455   3.682   3.583   5.737  0.1461 -0.4532  1.7655
16121SOL    HW254456   3.798   3.672   5.697 -1.0929  0.7254  0.7146
16122SOL     OW54457   0.316   2.300   9.989 -0.2355  0.5970 -0.4593
16122SOL    HW154458   0.309   2.212   9.952 -1.1761  0.5517 -0.1838
16122SOL    HW254459   0.374   2.289  10.065 -1.3944 -0.0561  0.3616
16123SOL     OW54460   6.377   6.788   8.671  0.2655  0.2423 -0.0762
16123SOL    HW154461   6.392   6.720   8.737  0.5186  1.0003  0.6742
16123SOL    HW254462   6.361   6.867   8.723  2.2207  1.2466 -0.9150
16124SOL     OW54463   8.453   7.431   7.456  0.5324 -0.1959 -0.0934
16124SOL    HW154464   8.452   7.526   7.444 -3.3706 -0.1545 -0.5625
16124SOL    HW254465   8.503   7.399   7.381  1.8498  1.3946  0.0149
16125SOL     OW54466   4.090   3.603   2.365 -0.1510 -0.2742  0.5787
16125SOL    HW154467   4.118   3.521   2.406  0.1902  0.1391  1.1867
16125SOL    HW254468   4.038   3.647   2.433  2.7407  1.7224  1.6955
16126SOL     OW54469   4.764   0.695   9.414 -0.4260 -0.3595 -0.5028
16126SOL    HW154470   4.687   0.679   9.359  0.8181 -0.6311 -2.2430
16126SOL    HW254471   4.761   0.788   9.434 -1.4842 -0.4716 -0.0951
16127SOL     OW54472   0.236   9.098   5.516  0.1688 -0.0851 -0.6763
16127SOL    HW154473   0.154   9.052   5.529 -2.7797  4.7613  0.3776
16127SOL    HW254474   0.276   9.102   5.602 -0.8899  1.3368 -0.2163
16128SOL     OW54475   1.416   8.386   0.263 -0.5646  0.2087 -0.2024
16128SOL    HW154476   1.476   8.349   0.198  0.2031 -0.5157  0.8993
16128SOL    HW254477   1.362   8.448   0.213  1.5781  1.4514 -1.1055
16129SOL     OW54478   1.232  10.199   5.941 -0.4140  0.4204 -0.3002
16129SOL    HW154479   1.286  10.277   5.927 -1.3466  1.4786  1.5671
16129SOL    HW254480   1.286  10.142   5.995 -0.5088  0.7426  0.1452
16130SOL     OW54481   7.229   3.491   5.746 -0.1220  1.1884 -0.3291
16130SOL    HW154482   7.199   3.577   5.775  1.9692  1.8825 -0.0230
16130SOL    HW254483   7.232   3.438   5.826 -0.8803  0.9786 -0.4300
16131SOL     OW54484   2.891   9.036   5.077 -0.0188  0.6841 -0.1275
16131SOL    HW154485   2.967   9.074   5.031 -0.2473 -0.2539 -1.3512
16131SOL    HW254486   2.929   8.993   5.154  0.7921 -0.1788 -0.9727
16132SOL     OW54487   5.862   9.728   9.594 -0.5463  0.5712  0.3290
16132SOL    HW154488   5.956   9.730   9.580 -0.8100  0.9579 -1.7222
16132SOL    HW254489   5.840   9.816   9.623 -0.3990  0.8212 -0.2973
16133SOL     OW54490   3.060   8.110   4.652  0.5205  0.2166  0.0480
16133SOL    HW154491   3.136   8.147   4.607 -0.3745  1.9363 -0.1358
16133SOL    HW254492   2.986   8.131   4.594 -0.2869 -0.0602  0.9638
16134SOL     OW54493   6.100   9.173   5.856 -0.4864  0.1610  0.2969
16134SOL    HW154494   6.039   9.110   5.819  2.3821 -2.6754  0.0066
16134SOL    HW254495   6.165   9.188   5.787  0.1035  1.7919  1.1288
16135SOL     OW54496   6.202   5.167   2.327  0.3584  0.3556 -0.2140
16135SOL    HW154497   6.274   5.195   2.383 -0.3950  0.1234  0.8986
16135SOL    HW254498   6.244   5.124   2.253  1.3452 -0.3050  0.7171
16136SOL     OW54499   7.450   1.054   2.437  0.3135 -0.1647  0.1663
16136SOL    HW154500   7.459   1.101   2.354 -1.2929 -0.6700 -0.3353
16136SOL    HW254501   7.496   1.108   2.501  0.4888  0.8914 -0.8238
16137SOL     OW54502   1.274   5.259   0.142 -0.1464  0.2065 -0.0016
16137SOL    HW154503   1.295   5.201   0.069 -2.3384 -0.2823 -0.3069
16137SOL    HW254504   1.226   5.331   0.102 -0.7033  0.3194  0.8442
16138SOL     OW54505   0.577   9.199   6.547 -0.1700  0.2421 -0.7219
16138SOL    HW154506   0.534   9.262   6.605 -0.9711 -0.6551 -0.3262
16138SOL    HW254507   0.560   9.233   6.459 -1.9081 -0.2034 -0.5874
16139SOL     OW54508   8.024   3.925   4.476 -0.1560  0.0842 -0.4724
16139SOL    HW154509   7.946   3.916   4.422  0.2040  0.2502 -1.0220
16139SOL    HW254510   7.996   3.980   4.549 -0.1509  1.4876 -1.4880
16140SOL     OW54511   7.516   8.718  10.703 -0.1348 -0.3185  0.2955
16140SOL    HW154512   7.456   8.730  10.777  0.0058 -1.3287  0.5967
16140SOL    HW254513   7.564   8.800  10.697  1.7102 -1.0634  3.0313
16141SOL     OW54514   5.015   5.626   3.009  0.0389  0.0246  0.1080
16141SOL    HW154515   4.926   5.594   3.022  0.3893 -0.3712  1.8921
16141SOL    HW254516   5.004   5.713   2.972 -1.0535 -0.4307 -0.6856
16142SOL     OW54517   9.795   0.557   2.371  0.2701  0.2238  0.1655
16142SOL    HW154518   9.784   0.609   2.450 -0.0790 -1.1332  1.0623
16142SOL    HW254519   9.711   0.512   2.360  0.7237 -0.5409 -0.2686
16143SOL     OW54520   8.001   5.496   6.065  0.3549  0.1375 -0.7972
16143SOL    HW154521   8.011   5.482   6.159  3.7293 -1.2400 -1.1973
16143SOL    HW254522   7.956   5.417   6.034  0.3166  0.0266 -0.4605
16144SOL     OW54523   6.947   3.596   8.690 -0.5404  0.0617 -0.3026
16144SOL    HW154524   6.953   3.526   8.755  2.3253  0.7809  0.3283
16144SOL    HW254525   6.934   3.550   8.607  0.3652 -1.1777  0.2187
16145SOL     OW54526   2.294   6.527   3.011  0.6885  0.4782 -0.1641
16145SOL    HW154527   2.345   6.589   3.064  1.3409  0.8595 -1.2147
16145SOL    HW254528   2.327   6.538   2.922  0.5645 -1.1387 -0.4400
16146SOL     OW54529   7.681   6.938   7.547 -0.4563  0.3317 -0.1247
16146SOL    HW154530   7.737   7.013   7.525  0.0691  0.2307  0.8342
16146SOL    HW254531   7.699   6.874   7.478  0.0279  0.5986 -0.2489
16147SOL     OW54532   0.042   9.242   2.484 -0.3815  0.9481 -0.4899
16147SOL    HW154533  -0.034   9.297   2.501 -0.9788  0.6140 -1.9372
16147SOL    HW254534   0.112   9.304   2.465 -0.0284  1.2867  1.6025
16148SOL     OW54535   6.001   1.803   7.283 -0.0231 -0.1604  0.4010
16148SOL    HW154536   5.971   1.884   7.325  1.0506  1.9682 -2.5889
16148SOL    HW254537   6.095   1.801   7.302  0.0344 -0.4464  0.0790
16149SOL     OW54538   4.592   2.698   5.437 -0.0199  0.0011 -0.1808
16149SOL    HW154539   4.568   2.611   5.470  2.1680 -1.4474 -2.0942
16149SOL    HW254540   4.614   2.748   5.516 -0.4430 -1.4597  0.9267
16150SOL     OW54541   8.253   6.049   5.304  0.2033 -0.1284 -0.4956
16150SOL    HW154542   8.204   6.088   5.376  1.2857  0.5606 -0.1149
16150SOL    HW254543   8.341   6.035   5.339  0.8274  0.4795 -1.7638
16151SOL     OW54544   5.064   9.217   6.393  0.2761  0.1413 -0.5082
16151SOL    HW154545   5.050   9.162   6.316 -1.7550  0.7526 -0.6412
16151SOL    HW254546   5.109   9.295   6.360 -2.3993  1.3702 -1.6025
16152SOL     OW54547   5.920   5.746   7.026 -0.1137  0.1000 -0.5705
16152SOL    HW154548   5.873   5.751   6.943 -1.1133 -0.4773 -0.0699
16152SOL    HW254549   5.968   5.828   7.032  0.8495 -0.3184 -2.2161
16153SOL     OW54550  10.791   0.433   4.996  0.2850 -0.3742 -0.3383
16153SOL    HW154551  10.722   0.493   5.023 -0.7369 -0.9337 -1.5778
16153SOL    HW254552  10.816   0.386   5.075 -0.4321  0.1737  0.2193
16154SOL     OW54553   0.743   6.345   9.482  0.4519  0.1761 -0.0725
16154SOL    HW154554   0.661   6.346   9.434 -0.4433 -1.4249  1.3312
16154SOL    HW254555   0.811   6.344   9.414 -0.6951  0.3166 -1.2442
16155SOL     OW54556   1.735   1.985  10.803 -0.2741  0.1177  0.1886
16155SOL    HW154557   1.650   1.941  10.792 -0.1531 -0.8167  2.4196
16155SOL    HW254558   1.713   2.069  10.844 -0.1722  0.0787  0.3251
16156SOL     OW54559  10.173   2.832  10.236  0.2467 -0.9895  0.3002
16156SOL    HW154560  10.084   2.864  10.251  0.5704 -0.3408  0.8972
16156SOL    HW254561  10.201   2.798  10.321  0.6516 -0.9758  0.1738
16157SOL     OW54562   8.683   2.044   4.268  0.2386 -0.0283  0.3433
16157SOL    HW154563   8.740   1.967   4.263 -0.2914 -0.3517 -2.4428
16157SOL    HW254564   8.664   2.066   4.177 -3.8296  0.2683  1.0810
16158SOL     OW54565   1.056   1.535   6.583  0.6279 -0.3706 -0.0465
16158SOL    HW154566   1.059   1.533   6.488  1.2780  2.2734 -0.1737
16158SOL    HW254567   1.137   1.492   6.611  1.0585 -0.0259 -0.7493
16159SOL     OW54568   7.459   8.101   3.902 -0.5293  0.6176 -0.3891
16159SOL    HW154569   7.469   8.106   3.997 -0.6263  0.3742 -0.3632
16159SOL    HW254570   7.493   8.184   3.869  0.7394  0.1632 -0.2489
16160SOL     OW54571   6.143  10.658   6.496 -0.3582 -0.1762  0.1716
16160SOL    HW154572   6.189  10.733   6.535  0.3941  0.1036 -1.1851
16160SOL    HW254573   6.201  10.584   6.511  0.5968  0.1634 -1.4710
16161SOL     OW54574   5.019   5.406   1.113  0.8893  0.0271 -0.3256
16161SOL    HW154575   5.031   5.326   1.163  1.4895 -0.0843 -0.6359
16161SOL    HW254576   5.005   5.474   1.179 -1.0474 -0.5313 -0.0868
16162SOL     OW54577   6.177   5.771   3.055  0.6580 -0.3104 -0.3291
16162SOL    HW154578   6.094   5.818   3.056  0.8614  0.0719 -0.8920
16162SOL    HW254579   6.157   5.687   3.014  0.5561 -0.2141 -0.4747
16163SOL     OW54580  10.111   6.996   9.651 -0.3286  0.0386 -0.2040
16163SOL    HW154581  10.039   7.035   9.601 -0.4183 -2.0042 -1.8159
16163SOL    HW254582  10.190   7.037   9.615 -0.4134 -1.2048 -1.9552
16164SOL     OW54583  10.195   9.761   2.575 -0.5143 -0.3366 -0.5814
16164SOL    HW154584  10.211   9.828   2.641  1.0536 -0.7561 -0.5049
16164SOL    HW254585  10.149   9.692   2.622  0.2359 -0.4625 -0.0141
16165SOL     OW54586   6.761  10.797   2.266  0.4637  0.0939  0.3132
16165SOL    HW154587   6.674  10.758   2.268  0.2405  0.4833 -0.9356
16165SOL    HW254588   6.749  10.884   2.304  0.6847 -0.4895  1.7933
16166SOL     OW54589   8.719  10.922  10.849 -0.2560 -0.4375  0.1810
16166SOL    HW154590   8.719  10.857  10.919  2.1225 -0.1914  0.4962
16166SOL    HW254591   8.748  11.003  10.891  0.8382 -0.1910 -0.9633
16167SOL     OW54592   9.988   2.482   5.902 -0.0620 -0.3521 -0.2936
16167SOL    HW154593   9.972   2.573   5.877 -0.0085 -0.6367 -1.4031
16167SOL    HW254594   9.908   2.436   5.878 -1.4966 -0.0848  3.3189
16168SOL     OW54595   0.577   9.333   5.494  0.3619 -0.5707  0.1564
16168SOL    HW154596   0.608   9.306   5.580 -0.2700  0.7082  0.8060
16168SOL    HW254597   0.569   9.251   5.445  0.2372 -1.3718  1.4708
16169SOL     OW54598   0.374   8.550   9.396 -0.0840 -0.1340 -0.0504
16169SOL    HW154599   0.467   8.546   9.416 -0.3004  0.4836  1.1466
16169SOL    HW254600   0.343   8.629   9.438 -1.4231 -1.0553  0.7751
16170SOL     OW54601  10.351   6.087   6.285 -0.7181  0.3200  0.3100
16170SOL    HW154602  10.274   6.041   6.252 -1.2849  0.0301  1.9451
16170SOL    HW254603  10.367   6.157   6.222 -1.0605 -0.8738 -1.1494
16171SOL     OW54604   3.156   0.203   6.688  0.3070 -0.0019 -0.3916
16171SOL    HW154605   3.112   0.243   6.763  0.7886  0.5158 -0.3769
16171SOL    HW254606   3.093   0.210   6.616  0.0235 -0.0702 -0.1481
16172SOL     OW54607   1.677   3.495   8.838  0.4035 -1.1360 -0.4077
16172SOL    HW154608   1.697   3.550   8.914  0.8879 -2.0262  0.1154
16172SOL    HW254609   1.632   3.419   8.875  0.7078 -1.6096 -1.0120
16173SOL     OW54610  10.870   3.389   9.851  0.0993  0.0852 -0.1504
16173SOL    HW154611  10.787   3.431   9.872  0.6256  0.9999  0.1606
16173SOL    HW254612  10.851   3.336   9.774 -1.0208 -0.5659  0.5465
16174SOL     OW54613   1.359   5.839   6.838 -0.4735  0.7111  0.2113
16174SOL    HW154614   1.266   5.862   6.843 -0.2961  1.8219 -1.0298
16174SOL    HW254615   1.376   5.826   6.745  0.6797  0.8424  0.3887
16175SOL     OW54616  10.648   1.393   6.765 -0.1209 -0.2000  0.2623
16175SOL    HW154617  10.621   1.378   6.856  0.2396  1.6170  0.7073
16175SOL    HW254618  10.732   1.347   6.758 -0.3031 -0.6226  0.7450
16176SOL     OW54619   5.905   3.348   8.977 -0.3108 -0.6590  0.2235
16176SOL    HW154620   5.899   3.425   9.034 -0.9149 -0.4567 -0.0983
16176SOL    HW254621   5.981   3.299   9.009 -0.4679 -0.3954  1.0088
16177SOL     OW54622   2.048   2.078   8.825 -0.2308 -0.1569 -0.0056
16177SOL    HW154623   1.973   2.124   8.788  0.3419  0.7176 -0.1061
16177SOL    HW254624   2.068   2.009   8.761  0.1903  0.7712 -0.8951
16178SOL     OW54625   1.721   9.236   2.339 -0.2010 -0.3511  0.2526
16178SOL    HW154626   1.785   9.286   2.289  1.1124  0.3995  2.5167
16178SOL    HW254627   1.751   9.145   2.333 -0.1165 -0.2820 -0.3852
16179SOL     OW54628   8.388   4.972  10.534 -0.3207  0.2270  0.1590
16179SOL    HW154629   8.464   5.016  10.572 -0.1684  0.5302 -0.4954
16179SOL    HW254630   8.346   4.930  10.609  0.6435 -0.1804  0.4839
16180SOL     OW54631   3.390   6.035  10.050 -0.2241  0.3694 -0.7176
16180SOL    HW154632   3.395   5.942  10.029 -2.3998 -0.2147  1.0003
16180SOL    HW254633   3.476   6.056  10.087  0.5277 -0.7551 -1.7709
16181SOL     OW54634   0.690   4.641   6.660  0.1300  0.2545  0.2172
16181SOL    HW154635   0.618   4.610   6.605  0.3766 -1.2646  0.7059
16181SOL    HW254636   0.769   4.616   6.613  0.3510 -1.3102  1.3158
16182SOL     OW54637   6.552   6.210   1.471  0.7731  0.8017  0.0169
16182SOL    HW154638   6.603   6.281   1.431  0.5122  0.4348 -1.0021
16182SOL    HW254639   6.611   6.135   1.471 -0.0602  0.0506 -2.2373
16183SOL     OW54640   4.718   0.288   8.903  0.3279  0.0428  0.6128
16183SOL    HW154641   4.795   0.235   8.888  0.0028 -0.5245  0.9278
16183SOL    HW254642   4.646   0.237   8.867  0.1221  0.6743  0.1045
16184SOL     OW54643   0.689   0.312   5.657 -0.1729  0.0157 -0.0562
16184SOL    HW154644   0.635   0.250   5.706 -2.0068  0.8473 -0.8958
16184SOL    HW254645   0.669   0.397   5.696  0.2763  0.3841 -0.6067
16185SOL     OW54646   6.147   2.056   2.221  0.1044 -0.1621 -0.3091
16185SOL    HW154647   6.211   2.120   2.252 -1.0614  0.7975  0.2468
16185SOL    HW254648   6.143   1.991   2.291  0.2713 -0.0611 -0.2052
16186SOL     OW54649   6.168   5.202   7.962  0.3840  0.8312 -0.4540
16186SOL    HW154650   6.241   5.245   8.007  0.1222  0.8042  0.0080
16186SOL    HW254651   6.204   5.176   7.877  0.2656  2.8932 -1.1991
16187SOL     OW54652   3.722  10.823   2.023  0.0202  0.2700 -0.0674
16187SOL    HW154653   3.686  10.771   2.095 -0.3117  0.1637 -0.3111
16187SOL    HW254654   3.747  10.759   1.957 -1.2036  0.4578 -0.7391
16188SOL     OW54655   4.330   2.683   8.877 -0.0392 -0.6486  0.9243
16188SOL    HW154656   4.245   2.665   8.839  0.7237 -0.6812 -0.8435
16188SOL    HW254657   4.393   2.654   8.811  1.3237  3.1482  0.3186
16189SOL     OW54658   1.928   9.890   6.339  0.4115 -0.2091  0.0767
16189SOL    HW154659   1.833   9.890   6.352  0.3629  0.1167 -0.2472
16189SOL    HW254660   1.939   9.880   6.245  0.6232  2.0509 -0.1954
16190SOL     OW54661   4.945   9.022   7.559 -0.1223  0.1078 -0.3674
16190SOL    HW154662   5.026   8.971   7.561  0.3304  0.8198  1.2605
16190SOL    HW254663   4.973   9.110   7.536 -0.7269 -0.0545 -1.8138
16191SOL     OW54664   6.437   9.772   1.654  0.4299 -0.0119 -0.1160
16191SOL    HW154665   6.424   9.692   1.706 -0.4143 -0.2708 -0.7144
16191SOL    HW254666   6.527   9.798   1.674  0.4102 -0.5921  0.8037
16192SOL     OW54667   1.178   4.196   7.031 -0.0042 -0.2295  0.4401
16192SOL    HW154668   1.156   4.109   7.063 -1.6050 -1.0179 -2.4062
16192SOL    HW254669   1.109   4.253   7.065  1.6868  0.3197  3.3010
16193SOL     OW54670   2.376   7.632   9.423  0.5743 -0.0406 -0.0193
16193SOL    HW154671   2.303   7.669   9.471 -1.0175 -0.9408 -1.6117
16193SOL    HW254672   2.345   7.627   9.332  2.0408 -1.8336 -0.4859
16194SOL     OW54673   8.069   3.703  10.371 -0.2055  0.0804 -0.0185
16194SOL    HW154674   8.129   3.661  10.310  0.6336 -0.3681  1.0644
16194SOL    HW254675   8.003   3.637  10.391  1.0741 -0.7897  1.6293
16195SOL     OW54676   3.005   1.549   2.923 -0.1433 -0.1428  0.5567
16195SOL    HW154677   3.046   1.482   2.977 -0.6104 -0.2371  0.7975
16195SOL    HW254678   2.975   1.616   2.985  0.6231  0.4640  0.2935
16196SOL     OW54679   7.178   8.600   4.528 -0.2840  0.2260 -0.4653
16196SOL    HW154680   7.104   8.630   4.475 -0.9002 -0.8796 -0.2532
16196SOL    HW254681   7.182   8.506   4.513  1.3633  0.3270 -0.8049
16197SOL     OW54682   4.607   3.637   5.726  1.0510  0.2775  0.3763
16197SOL    HW154683   4.655   3.579   5.784  2.1250 -1.2469 -1.8757
16197SOL    HW254684   4.674   3.677   5.671 -0.0298  0.1496 -1.0964
16198SOL     OW54685   5.924   1.903   4.236 -0.3173 -0.0367 -0.5316
16198SOL    HW154686   6.002   1.924   4.185  0.6943 -2.1542  0.0511
16198SOL    HW254687   5.878   1.837   4.184 -1.6570  1.0363 -0.7702
16199SOL     OW54688   1.348   9.553   8.397 -0.2343 -0.1794 -0.4026
16199SOL    HW154689   1.307   9.632   8.433  1.3127  1.1288 -1.3757
16199SOL    HW254690   1.277   9.510   8.349 -0.9052  1.1362 -0.6639
16200SOL     OW54691   0.387   9.045   6.339 -0.2003  0.0232  0.0665
16200SOL    HW154692   0.441   9.049   6.418 -0.5927  0.5880  0.3057
16200SOL    HW254693   0.312   8.990   6.364  0.5306 -1.2697 -0.4412
16201SOL     OW54694   0.114  10.396   9.409  0.2979  0.2670 -0.6353
16201SOL    HW154695   0.083  10.317   9.453 -2.0844  1.5109  0.1265
16201SOL    HW254696   0.190  10.424   9.459 -0.2280 -0.2869  0.5023
16202SOL     OW54697   2.274   6.704  10.675  0.0109  0.0940  0.0215
16202SOL    HW154698   2.296   6.635  10.738  3.5853 -0.6862 -1.7982
16202SOL    HW254699   2.291   6.785  10.722  0.3352 -0.3989  0.7842
16203SOL     OW54700   8.762   3.370   7.675  0.1163  0.0937  0.9450
16203SOL    HW154701   8.744   3.277   7.686 -2.6446  0.5278  0.8355
16203SOL    HW254702   8.785   3.401   7.763  0.4037 -0.5442  1.0990
16204SOL     OW54703   0.777   0.734   4.902  0.2575  0.1688  0.3054
16204SOL    HW154704   0.694   0.692   4.926  0.7965  0.0868  2.1245
16204SOL    HW254705   0.842   0.664   4.907  0.5247  0.3247 -0.7245
16205SOL     OW54706   4.183   2.822   9.396 -0.0532 -0.1923  0.1446
16205SOL    HW154707   4.142   2.896   9.350  0.6374  0.4580  0.5660
16205SOL    HW254708   4.159   2.833   9.487  0.1610 -0.4189  0.2310
16206SOL     OW54709   2.957  10.012   9.262  0.0665  0.3822 -0.1632
16206SOL    HW154710   2.922  10.091   9.302  0.3867  0.2533  0.3853
16206SOL    HW254711   3.052  10.027   9.259  0.1290  0.0159 -0.0473
16207SOL     OW54712   9.708   7.489   4.354 -0.5051  0.2779 -0.0402
16207SOL    HW154713   9.726   7.578   4.322  1.0037 -0.5038 -1.5118
16207SOL    HW254714   9.637   7.458   4.298 -0.8953  0.4726  0.3418
16208SOL     OW54715   4.354   3.497   1.555 -0.4105 -0.5420 -0.0681
16208SOL    HW154716   4.306   3.570   1.514 -0.6752 -1.5989 -1.7507
16208SOL    HW254717   4.286   3.442   1.593 -0.5179 -1.4483 -1.4655
16209SOL     OW54718   2.791   6.140   6.549  0.3954  0.6150  0.0444
16209SOL    HW154719   2.794   6.201   6.475  0.0537  0.3783 -0.1660
16209SOL    HW254720   2.879   6.145   6.588  1.8029 -1.8428 -2.4584
16210SOL     OW54721   6.129   8.551   2.558 -0.4252  0.3644 -0.0049
16210SOL    HW154722   6.146   8.484   2.492 -1.4493  1.1955 -1.1603
16210SOL    HW254723   6.066   8.511   2.618 -0.5526  0.0771 -0.3290
16211SOL     OW54724   8.382   8.706   0.696 -0.4317  0.6085 -0.3051
16211SOL    HW154725   8.474   8.682   0.692 -0.1603  1.1826  1.6347
16211SOL    HW254726   8.378   8.778   0.759 -2.2698  0.2492  0.0436
16212SOL     OW54727   9.239   0.597   2.388  0.1489 -0.1879  0.3470
16212SOL    HW154728   9.245   0.510   2.428 -0.2170 -0.4690 -0.1844
16212SOL    HW254729   9.186   0.583   2.309 -1.3398  0.8333  1.1268
16213SOL     OW54730   7.526   8.578   8.140 -0.4283 -0.3363  0.3885
16213SOL    HW154731   7.450   8.634   8.121  1.7278  2.1214 -1.9444
16213SOL    HW254732   7.539   8.586   8.234 -2.7417 -0.4804  0.7748
16214SOL     OW54733   9.972   4.782   4.664 -0.2912 -0.3369  0.0774
16214SOL    HW154734  10.024   4.855   4.631 -0.3315  0.8162  2.3696
16214SOL    HW254735   9.881   4.811   4.654 -0.3297 -0.3356  0.4157
16215SOL     OW54736   7.968   7.341   2.075 -0.2848 -0.4058 -0.3916
16215SOL    HW154737   8.017   7.259   2.063  1.2748  0.3498  0.4955
16215SOL    HW254738   7.896   7.335   2.012  0.6412 -1.8086 -1.3815
16216SOL     OW54739   9.067   5.297   6.526  0.3068  0.5854 -0.2966
16216SOL    HW154740   9.050   5.261   6.438 -0.1691  0.9001 -0.3422
16216SOL    HW254741   9.008   5.372   6.532 -0.6306 -0.2063  0.7877
16217SOL     OW54742   9.701   8.393   7.064  0.1343 -0.2118  0.1266
16217SOL    HW154743   9.610   8.413   7.042 -0.5722 -2.8371  0.3509
16217SOL    HW254744   9.702   8.299   7.080  3.0320 -0.3772 -0.4634
16218SOL     OW54745   3.822   1.897   7.776  0.1799  0.5155 -0.2455
16218SOL    HW154746   3.774   1.815   7.776  0.3085  0.4378 -0.6174
16218SOL    HW254747   3.761   1.961   7.814 -0.3858  0.5118 -1.1217
16219SOL     OW54748   5.022   5.357   6.695  0.2281  0.2446 -0.1046
16219SOL    HW154749   4.963   5.358   6.620 -0.5912 -1.1374  0.4672
16219SOL    HW254750   4.972   5.397   6.766  0.3978  0.1056  0.0959
16220SOL     OW54751   8.109   8.965   0.061  0.3317  0.1345  0.3916
16220SOL    HW154752   8.059   9.042   0.034 -0.7047 -1.2341 -1.9381
16220SOL    HW254753   8.180   8.958  -0.004  0.6254 -0.6649  0.7801
16221SOL     OW54754   0.627   6.651   0.670 -0.4878 -0.1323  0.4306
16221SOL    HW154755   0.546   6.691   0.640 -1.3725 -1.9835  0.2308
16221SOL    HW254756   0.681   6.644   0.590 -0.2401  0.7968  0.5044
16222SOL     OW54757   2.796   3.890   1.518  0.6676  0.0292  0.0008
16222SOL    HW154758   2.791   3.927   1.430  0.5683 -0.4709 -0.2085
16222SOL    HW254759   2.712   3.912   1.558  0.7541  0.3472  0.0071
16223SOL     OW54760   8.244   5.408  10.548  0.1336 -0.2587 -0.2033
16223SOL    HW154761   8.309   5.409  10.477 -1.2798 -0.2524 -1.5546
16223SOL    HW254762   8.176   5.347  10.518 -1.1267  0.7127  0.5571
16224SOL     OW54763   0.786   3.804   2.241  0.5881  0.1120  0.1644
16224SOL    HW154764   0.780   3.729   2.183  0.6948  0.8951 -0.8986
16224SOL    HW254765   0.695   3.827   2.260  0.5369  0.2822 -0.2769
16225SOL     OW54766   0.900   3.301   5.954  0.5080  0.4895 -0.1599
16225SOL    HW154767   0.888   3.377   5.896 -0.5637 -0.7662 -1.6709
16225SOL    HW254768   0.824   3.304   6.013  0.1632  0.2880 -0.5892
16226SOL     OW54769   7.200   2.393   8.531  0.5550  0.3855 -0.3664
16226SOL    HW154770   7.225   2.323   8.591  2.3067  1.0513 -0.2570
16226SOL    HW254771   7.106   2.405   8.544  0.8233  0.2811  2.0038
16227SOL     OW54772   4.966   6.377   3.866 -0.3571  0.6700 -0.5500
16227SOL    HW154773   4.926   6.303   3.911 -0.6590  0.7981 -0.6073
16227SOL    HW254774   4.994   6.342   3.782 -0.2775  0.5614 -0.4788
16228SOL     OW54775   0.055   4.662   8.236  0.2137 -0.2376 -0.3682
16228SOL    HW154776   0.060   4.592   8.170 -2.6766  0.4488 -1.4914
16228SOL    HW254777   0.130   4.718   8.217 -0.0445 -0.5339 -2.6049
16229SOL     OW54778   7.984   7.648  10.454  0.0860  0.1606 -0.3835
16229SOL    HW154779   8.042   7.572  10.456 -0.0027  0.1018  1.2043
16229SOL    HW254780   8.042   7.723  10.469 -0.2095  0.0987  1.2438
16230SOL     OW54781   6.574   4.659   1.245  0.4796 -0.1801 -0.2696
16230SOL    HW154782   6.641   4.658   1.177 -1.1470  0.5892 -1.9708
16230SOL    HW254783   6.506   4.718   1.212 -0.4411  0.1577  1.9948
16231SOL     OW54784   8.399   9.658   3.475 -0.0031 -0.2191  0.5427
16231SOL    HW154785   8.436   9.691   3.557  0.4141  1.0513 -0.1174
16231SOL    HW254786   8.305   9.651   3.493 -0.1926  1.8073  0.6272
16232SOL     OW54787   9.394   9.634   7.259 -0.8057 -0.5949  0.1609
16232SOL    HW154788   9.422   9.569   7.194  1.0808  0.2620  0.0402
16232SOL    HW254789   9.447   9.711   7.240 -1.3537  0.2168  1.7252
16233SOL     OW54790   3.252   0.187   8.048  0.3336 -0.6103 -0.1216
16233SOL    HW154791   3.291   0.227   7.970  1.7521 -0.9398  0.3916
16233SOL    HW254792   3.266   0.093   8.035  0.6120 -0.6647  0.5329
16234SOL     OW54793   2.184   9.544   7.423  0.8329 -0.5308 -0.5931
16234SOL    HW154794   2.239   9.535   7.345  0.8808  0.5844 -0.7040
16234SOL    HW254795   2.238   9.509   7.494  0.4639 -2.3768 -1.1567
16235SOL     OW54796   5.554   8.182   0.523 -0.1357 -0.2910 -0.4741
16235SOL    HW154797   5.587   8.101   0.484 -0.5623 -0.6666 -0.0548
16235SOL    HW254798   5.577   8.176   0.616 -0.7910 -0.2549 -0.3048
16236SOL     OW54799   3.803   4.336   7.343 -0.9817  0.2261 -0.0593
16236SOL    HW154800   3.751   4.385   7.280 -1.5315 -1.9866 -1.4331
16236SOL    HW254801   3.756   4.346   7.426 -1.3010  1.6216 -0.3891
16237SOL     OW54802   8.605  10.255  10.681  0.3064  0.3934 -0.4035
16237SOL    HW154803   8.695  10.236  10.709  0.3833 -1.0674 -1.5463
16237SOL    HW254804   8.576  10.325  10.740  2.0669  0.6572  0.2086
16238SOL     OW54805   7.524   3.934   7.334  0.2476 -0.1971  0.1029
16238SOL    HW154806   7.507   4.012   7.386  0.5497 -0.2315  0.2568
16238SOL    HW254807   7.526   3.862   7.397  0.3961 -0.2687  0.0188
16239SOL     OW54808   0.301  10.708   6.853  0.0169 -0.1464 -0.5844
16239SOL    HW154809   0.279  10.620   6.823  0.5406  0.1431 -1.8561
16239SOL    HW254810   0.396  10.707   6.863  0.3812  1.0137 -3.2058
16240SOL     OW54811  10.346   7.749  10.447 -0.4478  0.7760  0.1020
16240SOL    HW154812  10.288   7.686  10.491  0.7682 -0.3683  0.1484
16240SOL    HW254813  10.325   7.833  10.487 -0.2113 -0.0388  2.0813
16241SOL     OW54814   3.394   5.427   6.203  0.1060  0.1795  0.5836
16241SOL    HW154815   3.482   5.410   6.236 -0.3251 -0.5533  1.3922
16241SOL    HW254816   3.345   5.348   6.225 -0.8063  0.6597  0.3112
16242SOL     OW54817   7.239   2.192   5.153 -0.0479  0.5548  0.2376
16242SOL    HW154818   7.328   2.200   5.185 -0.0882  3.0923 -0.1134
16242SOL    HW254819   7.248   2.183   5.058 -0.1544  0.3138  0.2499
16243SOL     OW54820   5.950  10.378   8.996  0.4167 -0.5140  0.0923
16243SOL    HW154821   5.976  10.470   8.997 -3.2172  0.6957  0.4720
16243SOL    HW254822   5.867  10.378   8.948 -0.7007 -3.2584  1.8123
16244SOL     OW54823   0.624   6.336  10.234  0.3310 -0.3945 -0.2771
16244SOL    HW154824   0.574   6.337  10.153  0.8275 -1.4541 -0.6282
16244SOL    HW254825   0.713   6.360  10.208  0.1624  0.8500  0.2341
16245SOL     OW54826   4.555   7.886   8.035 -0.1835  0.0839  0.1758
16245SOL    HW154827   4.533   7.924   7.950  0.9580  0.6458  0.1136
16245SOL    HW254828   4.536   7.956   8.098  0.2020  0.1330  0.2431
16246SOL     OW54829  10.683   9.027   2.083  0.3556 -0.5602  0.1361
16246SOL    HW154830  10.644   8.974   2.013  0.7250 -0.1286 -0.4054
16246SOL    HW254831  10.706   9.109   2.041  0.9357 -0.4354  0.6801
16247SOL     OW54832   1.330   7.825   0.148 -0.4836 -0.0201  0.2096
16247SOL    HW154833   1.319   7.917   0.173 -3.1162 -0.3907  0.7226
16247SOL    HW254834   1.289   7.776   0.220  1.1078 -1.6317  0.0810
16248SOL     OW54835   2.898   8.699   2.840 -0.0532 -0.0695 -0.5485
16248SOL    HW154836   2.959   8.637   2.798 -1.5472  0.2875 -3.4893
16248SOL    HW254837   2.812   8.657   2.832 -0.7398  1.2338 -0.2014
16249SOL     OW54838   5.103   2.762   2.197 -0.0951  0.2960 -0.0504
16249SOL    HW154839   5.144   2.750   2.112  2.5803 -0.9932  1.2777
16249SOL    HW254840   5.170   2.735   2.260 -2.0125  0.9814  2.4776
16250SOL     OW54841   6.173   0.578   6.209 -0.0493  0.0221  0.2085
16250SOL    HW154842   6.154   0.585   6.115  1.4246 -0.6241 -0.1739
16250SOL    HW254843   6.088   0.588   6.252 -0.5678  1.7862 -1.1049
16251SOL     OW54844  10.325   2.059   1.778  0.2041  0.1126  0.5349
16251SOL    HW154845  10.278   2.134   1.741 -1.5827 -1.5627 -0.8150
16251SOL    HW254846  10.381   2.028   1.708 -0.1382 -0.6316  0.5734
16252SOL     OW54847   6.540   6.306   4.832  0.3507  0.1385 -0.1105
16252SOL    HW154848   6.567   6.370   4.766 -0.3204 -0.2138 -0.7459
16252SOL    HW254849   6.578   6.224   4.801  0.7629  0.1269  0.4178
16253SOL     OW54850  10.593   1.983   4.960 -0.2749  0.1108  0.2844
16253SOL    HW154851  10.545   1.992   5.042 -1.2154  1.2169 -0.3621
16253SOL    HW254852  10.632   2.069   4.946 -0.7130  0.1434 -0.7849
16254SOL     OW54853   7.103   1.020   7.807  0.4924  0.3696 -0.4326
16254SOL    HW154854   7.024   0.972   7.782 -0.3176  1.7233 -0.5888
16254SOL    HW254855   7.110   1.008   7.902 -0.5336  1.1299 -0.2485
16255SOL     OW54856   2.608   3.942   3.293  0.2321  0.0949 -0.4173
16255SOL    HW154857   2.564   4.014   3.339 -1.4165 -0.5247 -0.9334
16255SOL    HW254858   2.539   3.876   3.282  1.0874 -0.5692 -2.0381
16256SOL     OW54859   1.614   8.958   3.678  0.0855  0.1164  0.3902
16256SOL    HW154860   1.708   8.948   3.694  0.1576 -0.5215 -0.3840
16256SOL    HW254861   1.592   9.041   3.720  1.1036  0.5368  0.1306
16257SOL     OW54862   3.310   7.013   8.457 -0.5491  0.4831  0.0468
16257SOL    HW154863   3.260   6.941   8.496 -0.8006  0.0276 -1.0830
16257SOL    HW254864   3.312   7.081   8.525 -0.7173 -0.3971  0.9497
16258SOL     OW54865   3.087   5.487   2.244 -0.0206  0.1019  0.5431
16258SOL    HW154866   3.125   5.408   2.284  1.5862  0.8234  0.5118
16258SOL    HW254867   3.009   5.456   2.199  1.5405 -1.8398 -1.0237
16259SOL     OW54868   7.432   0.004   0.765 -0.2616  1.0621  1.0365
16259SOL    HW154869   7.345   0.036   0.742  0.6956  3.5435  0.5129
16259SOL    HW254870   7.437   0.014   0.860 -1.1055 -0.7981  1.3313
16260SOL     OW54871   9.987   4.237   4.640  0.4259 -0.9000 -0.8238
16260SOL    HW154872  10.082   4.249   4.644  0.2825  0.1246  0.1206
16260SOL    HW254873   9.952   4.325   4.652 -0.6584 -1.3633 -0.5060
16261SOL     OW54874   3.075   2.521   7.325  0.8925 -0.0137 -0.4986
16261SOL    HW154875   3.156   2.572   7.321  2.1316 -1.8673 -0.5512
16261SOL    HW254876   3.092   2.444   7.270  0.3044 -1.9859  1.8610
16262SOL     OW54877   4.397   7.896   4.655 -0.1032 -0.1182  0.0657
16262SOL    HW154878   4.383   7.931   4.743  0.8207  1.0696 -0.2368
16262SOL    HW254879   4.356   7.810   4.657 -3.5179  1.3652  0.5230
16263SOL     OW54880   9.669  10.628   3.409  0.1407  0.4731 -0.0713
16263SOL    HW154881   9.614  10.550   3.397  0.8358 -0.1175  0.4720
16263SOL    HW254882   9.656  10.679   3.330 -2.4864  1.1689  0.7123
16264SOL     OW54883   6.826   3.620   0.618 -0.2005  0.1327 -0.4804
16264SOL    HW154884   6.860   3.618   0.529  0.1302 -0.7696 -0.3470
16264SOL    HW254885   6.737   3.585   0.611 -0.5408  0.9987 -0.5947
16265SOL     OW54886   8.835  10.621   7.884  0.7073 -0.4596  0.3326
16265SOL    HW154887   8.892  10.664   7.948 -0.2628 -0.9367  1.5522
16265SOL    HW254888   8.753  10.670   7.887  0.8326 -0.1113 -1.0119
16266SOL     OW54889   2.091   7.373   4.459  0.1062 -0.3929  0.1318
16266SOL    HW154890   2.092   7.393   4.552  0.6467 -1.1705  0.3023
16266SOL    HW254891   2.102   7.458   4.416 -0.5099  0.0212  0.7551
16267SOL     OW54892   9.709   6.319   5.431  0.0749  0.3350 -0.4699
16267SOL    HW154893   9.724   6.241   5.486  0.2856  0.2319 -0.6750
16267SOL    HW254894   9.732   6.291   5.343  4.5336  1.8584 -0.0246
16268SOL     OW54895   3.600   3.912   5.325  0.0678 -0.2989 -0.4228
16268SOL    HW154896   3.609   3.944   5.415  0.5047  0.2728 -0.6596
16268SOL    HW254897   3.528   3.849   5.329 -1.2463  1.1553 -0.0251
16269SOL     OW54898   4.659   6.287   2.944 -0.1580 -0.3988  0.5976
16269SOL    HW154899   4.657   6.345   2.867  1.3604 -0.1698  0.6972
16269SOL    HW254900   4.580   6.233   2.935 -2.5205  2.6599  1.3147
16270SOL     OW54901   5.052   6.276   5.649  0.0579 -0.3595  0.1837
16270SOL    HW154902   5.135   6.249   5.610 -0.1052  0.9354 -1.1781
16270SOL    HW254903   5.012   6.332   5.582 -2.2384 -1.5044  0.4996
16271SOL     OW54904  10.083   7.472   7.787 -0.1995  0.2174 -0.2913
16271SOL    HW154905  10.098   7.454   7.695  0.5315 -1.6677  0.1540
16271SOL    HW254906   9.989   7.458   7.800 -0.5856  1.8479 -0.9740
16272SOL     OW54907   4.674   8.327   5.457  0.0511 -0.1166  0.2432
16272SOL    HW154908   4.607   8.341   5.390 -1.0198  0.4797  1.4066
16272SOL    HW254909   4.751   8.298   5.408 -1.0049 -0.6782 -1.1382
16273SOL     OW54910   8.638   5.175   5.438  0.2425 -0.1813  0.4868
16273SOL    HW154911   8.673   5.220   5.514 -0.6752  0.2842  0.6536
16273SOL    HW254912   8.628   5.084   5.466  3.6211 -0.9552 -0.3530
16274SOL     OW54913   6.771   7.369   9.469 -0.0781  0.2468  0.5424
16274SOL    HW154914   6.725   7.396   9.389 -1.7643 -2.8662  0.3106
16274SOL    HW254915   6.775   7.448   9.522 -0.5634  1.9852 -1.8331
16275SOL     OW54916   7.628   1.518   6.006  0.0178 -0.4483 -0.4278
16275SOL    HW154917   7.634   1.435   6.054  1.0921 -0.4004 -0.4599
16275SOL    HW254918   7.704   1.569   6.036 -0.8124  0.6672 -0.1468
16276SOL     OW54919   8.663   9.473   3.510  0.1244 -0.1019 -0.5365
16276SOL    HW154920   8.700   9.488   3.423  0.5718  0.8715 -0.2019
16276SOL    HW254921   8.577   9.434   3.494 -0.7216  1.9978 -1.5220
16277SOL     OW54922   3.740   6.886   3.579  0.1089  0.1925 -0.0309
16277SOL    HW154923   3.644   6.891   3.587 -0.0313  0.3331 -1.5664
16277SOL    HW254924   3.767   6.836   3.656 -1.4894 -2.4160 -1.0430
16278SOL     OW54925   2.719  10.005   9.916  0.1720  1.5055  0.0527
16278SOL    HW154926   2.778  10.056   9.972 -0.4880  2.6590 -0.2757
16278SOL    HW254927   2.739  10.034   9.827 -0.2116  1.1736 -0.1444
16279SOL     OW54928   4.785   5.526   6.792  0.4326 -0.2527  0.7294
16279SOL    HW154929   4.866   5.569   6.821  0.7340  0.0508 -0.5296
16279SOL    HW254930   4.738   5.506   6.874  1.9760 -0.8517  1.4952
16280SOL     OW54931   6.722   0.456   4.218 -0.0989 -0.1969  0.4768
16280SOL    HW154932   6.761   0.518   4.280 -0.6968  1.0867 -0.3821
16280SOL    HW254933   6.797   0.420   4.171  0.2657 -0.1468  1.0097
16281SOL     OW54934   6.417   8.516   2.860 -0.6251 -0.2022  0.1245
16281SOL    HW154935   6.418   8.545   2.768 -2.3022  0.5834  0.3232
16281SOL    HW254936   6.328   8.483   2.873  0.4460 -3.2675  0.6257
16282SOL     OW54937   3.752   7.112   8.971  0.1871 -0.1097  0.5620
16282SOL    HW154938   3.693   7.039   8.955  0.5286 -0.0603 -1.1032
16282SOL    HW254939   3.834   7.087   8.927  0.2973  1.2564 -0.0686
16283SOL     OW54940   3.916   0.545   2.194  0.5117  0.1959  0.0639
16283SOL    HW154941   4.003   0.569   2.227  0.3850  0.6947  0.0507
16283SOL    HW254942   3.907   0.595   2.113 -0.4419  1.4616  0.9079
16284SOL     OW54943   3.899   5.409   6.126 -0.0194  0.2190 -0.0493
16284SOL    HW154944   3.929   5.463   6.052 -0.3653  0.6502  0.1175
16284SOL    HW254945   3.879   5.324   6.087 -0.4718  0.5296 -0.5041
16285SOL     OW54946   6.438   3.841   4.748 -0.3484  0.1911 -0.3218
16285SOL    HW154947   6.377   3.910   4.723 -1.1374 -0.0350  0.8705
16285SOL    HW254948   6.463   3.864   4.838  2.0593  0.7790 -1.0633
16286SOL     OW54949   0.365   0.054   6.349 -0.4345  0.3465  0.3712
16286SOL    HW154950   0.442   0.048   6.292 -1.0876  1.8361 -0.7393
16286SOL    HW254951   0.318  -0.028   6.333 -0.1479  0.3505 -0.5873
16287SOL     OW54952   7.906  10.362   8.524 -0.0297 -0.7191 -0.2311
16287SOL    HW154953   7.979  10.423   8.537 -0.7935  0.5349 -1.5307
16287SOL    HW254954   7.936  10.306   8.451 -0.5917  0.2336 -1.2243
16288SOL     OW54955   8.184   5.395   5.694 -1.1694  0.4356 -0.4238
16288SOL    HW154956   8.197   5.352   5.779  1.2561 -0.2643 -1.0738
16288SOL    HW254957   8.132   5.332   5.643 -1.5212  0.2954  0.1005
16289SOL     OW54958   1.976   8.525   8.814  0.2723  0.0733 -0.5155
16289SOL    HW154959   1.950   8.459   8.750  1.6911 -0.1113 -0.9245
16289SOL    HW254960   2.022   8.475   8.882 -0.6114  0.3569  0.3052
16290SOL     OW54961  10.880   9.083   6.645  0.9526 -0.2019  0.4854
16290SOL    HW154962  10.857   9.172   6.618 -1.7452 -0.8215  0.4833
16290SOL    HW254963  10.968   9.092   6.681  1.5277  2.1031 -1.2000
16291SOL     OW54964   5.071   0.219   7.976 -0.2156 -0.3329  0.1567
16291SOL    HW154965   5.013   0.144   7.962 -0.8417  0.0398  0.6845
16291SOL    HW254966   5.055   0.276   7.901  0.9574 -1.1427 -0.7404
16292SOL     OW54967   6.350   0.915   9.691  0.9697 -0.2091 -0.3565
16292SOL    HW154968   6.294   0.935   9.616 -1.2299 -0.3133  1.1386
16292SOL    HW254969   6.352   0.996   9.743 -0.9411 -1.2107  1.4461
16293SOL     OW54970   4.864   3.932   1.227  0.5334 -0.0338  0.3666
16293SOL    HW154971   4.868   4.012   1.280 -0.3509  1.4299 -1.6610
16293SOL    HW254972   4.953   3.899   1.227  0.5573 -0.1311  2.7737
16294SOL     OW54973   9.119   1.134   8.062 -0.1061  0.0865 -0.5061
16294SOL    HW154974   9.161   1.153   7.978 -0.5394 -0.3983 -0.8397
16294SOL    HW254975   9.026   1.128   8.042 -0.2520  0.3159  0.0765
16295SOL     OW54976   4.063   2.663   9.074 -0.7279 -0.2666  0.0194
16295SOL    HW154977   4.137   2.716   9.103 -0.0996  0.1622 -2.1691
16295SOL    HW254978   4.073   2.580   9.122  0.4223  0.2588  0.7257
16296SOL     OW54979   9.435   1.287   1.424 -0.1235  0.7669 -0.1494
16296SOL    HW154980   9.414   1.378   1.402 -0.3501  0.5487 -0.8633
16296SOL    HW254981   9.411   1.238   1.346  0.3782  0.1415  0.0872
16297SOL     OW54982   0.071   7.186  10.611 -0.0507 -0.2211  0.0315
16297SOL    HW154983   0.157   7.220  10.590 -0.2609  0.9880  1.0092
16297SOL    HW254984   0.027   7.178  10.526  0.9516 -0.7157 -0.4593
16298SOL     OW54985   8.932   0.078   1.646 -0.2220 -0.0447 -0.3469
16298SOL    HW154986   8.910  -0.015   1.650  1.0989 -0.3588  0.3038
16298SOL    HW254987   8.853   0.121   1.615 -0.4282 -1.5425 -1.9970
16299SOL     OW54988   2.566   2.905   2.799 -0.0260 -0.1407  0.1431
16299SOL    HW154989   2.483   2.937   2.764  0.3232  1.2328  0.5067
16299SOL    HW254990   2.632   2.964   2.763  1.2043 -2.8350 -2.3647
16300SOL     OW54991   2.450   3.329   5.418 -0.3283 -0.3212  0.0275
16300SOL    HW154992   2.407   3.342   5.333  0.8326  0.9478 -0.3994
16300SOL    HW254993   2.483   3.416   5.442 -0.0299 -0.8005  1.4501
16301SOL     OW54994   2.980  10.393   1.980  0.3944 -0.4624  0.0139
16301SOL    HW154995   2.921  10.353   2.044 -1.5528 -2.7530 -2.9281
16301SOL    HW254996   2.923  10.419   1.908  2.6521  0.2428 -1.6377
16302SOL     OW54997  10.422   0.589   4.011 -0.7497 -0.2991  0.3777
16302SOL    HW154998  10.335   0.604   3.974 -1.3268 -1.0975  1.3916
16302SOL    HW254999  10.482   0.606   3.938 -1.6341  1.8583  0.0860
16303SOL     OW55000   1.984   9.985   8.957 -0.4743  0.3262 -0.1981
16303SOL    HW155001   2.043   9.927   8.909 -1.0273  0.4149 -1.0143
16303SOL    HW255002   2.021   9.991   9.045 -1.2501 -2.5315  0.4296
16304SOL     OW55003   6.352   7.538   4.732 -0.6916 -0.0152  0.1599
16304SOL    HW155004   6.304   7.567   4.809 -0.1389 -0.6924  0.7716
16304SOL    HW255005   6.287   7.492   4.678 -1.2091  0.9616 -0.0673
16305SOL     OW55006   8.496   8.910   6.856 -0.1195  0.6345  0.1247
16305SOL    HW155007   8.531   8.914   6.767 -0.7950  0.1211 -0.1685
16305SOL    HW255008   8.482   9.001   6.880  0.0637  0.7751 -0.2921
16306SOL     OW55009  10.383   3.426   0.861  0.1990  0.4676  0.0567
16306SOL    HW155010  10.401   3.366   0.789  2.2189  0.0661  0.8213
16306SOL    HW255011  10.464   3.428   0.911 -0.7019  1.7884  1.5640
16307SOL     OW55012   4.832   3.116   2.115  0.3821  0.2646 -0.3564
16307SOL    HW155013   4.755   3.117   2.057  0.4002 -1.3867 -0.4363
16307SOL    HW255014   4.858   3.025   2.119  0.9182  0.4607  1.5849
16308SOL     OW55015   5.548   2.832   9.758  0.1095  0.0660 -0.0182
16308SOL    HW155016   5.552   2.925   9.737  1.5058  0.0450  0.0706
16308SOL    HW255017   5.455   2.810   9.751 -0.1930  1.3727 -0.4074
16309SOL     OW55018   7.489   5.040   8.251 -0.2368  0.5921  0.2479
16309SOL    HW155019   7.443   5.022   8.333 -0.0556  0.6795  0.3707
16309SOL    HW255020   7.545   5.115   8.271  0.6347 -0.0699  0.3717
16310SOL     OW55021   8.250   8.599   6.701  0.2004 -0.0396  0.5216
16310SOL    HW155022   8.247   8.590   6.606 -0.5215  0.2658  0.5111
16310SOL    HW255023   8.206   8.682   6.719 -0.9450 -0.7579  1.2149
16311SOL     OW55024   4.778   0.585   9.877 -0.4568  0.6243  0.2342
16311SOL    HW155025   4.862   0.623   9.851  0.1551 -0.5219  0.5077
16311SOL    HW255026   4.713   0.637   9.829  0.4316  1.1050 -0.4874
16312SOL     OW55027   9.220   0.851   3.069  0.4593 -0.0585  0.3115
16312SOL    HW155028   9.145   0.848   3.010  0.4976 -0.4242  0.2836
16312SOL    HW255029   9.273   0.924   3.036  1.1424 -1.0661 -0.9152
16313SOL     OW55030   5.636   4.951   8.070  0.7405  0.2595  0.4999
16313SOL    HW155031   5.730   4.969   8.061  0.9535 -1.0641 -0.1820
16313SOL    HW255032   5.632   4.857   8.088 -0.5486 -0.1794 -1.7638
16314SOL     OW55033   2.434   7.459   4.852  0.3733  0.2195 -0.8789
16314SOL    HW155034   2.397   7.520   4.789  0.6803 -1.0986 -2.3979
16314SOL    HW255035   2.476   7.392   4.799  0.5469 -1.0222  0.7361
16315SOL     OW55036  10.584   2.922   8.825  0.1739 -0.1979  0.0122
16315SOL    HW155037  10.664   2.920   8.772  0.1357  1.6988 -0.2148
16315SOL    HW255038  10.577   2.835   8.862  3.2794  0.0100  1.4055
16316SOL     OW55039   9.154   0.574   7.920  0.8576  0.6107  0.9740
16316SOL    HW155040   9.172   0.536   7.834  2.2157  3.0822  0.0548
16316SOL    HW255041   9.107   0.505   7.967  0.4749 -1.0131 -1.5539
16317SOL     OW55042   0.568  10.229   6.830 -0.4670 -0.2486 -0.2810
16317SOL    HW155043   0.642  10.213   6.889 -0.4307  0.3411 -0.1590
16317SOL    HW255044   0.499  10.170   6.862 -0.2584 -0.3448 -0.0036
16318SOL     OW55045   2.504  10.887   2.203 -0.0701 -0.0185 -0.2611
16318SOL    HW155046   2.429  10.941   2.227 -1.0247 -1.7665  0.9425
16318SOL    HW255047   2.529  10.844   2.285  4.3609  2.8233  0.2248
16319SOL     OW55048   1.737   9.745   4.265 -0.2571 -0.3114  0.2303
16319SOL    HW155049   1.792   9.823   4.271  0.3028 -0.8112  2.1320
16319SOL    HW255050   1.648   9.780   4.257  0.0092  0.5127  0.7774
16320SOL     OW55051   4.395   7.795   7.114 -0.5895 -0.2178  0.2349
16320SOL    HW155052   4.338   7.789   7.037  0.6015  0.5267 -0.7363
16320SOL    HW255053   4.483   7.782   7.080 -0.1267 -0.9631  1.6531
16321SOL     OW55054   4.393   9.217   3.042 -0.7145  0.4615  0.5036
16321SOL    HW155055   4.455   9.279   3.079  0.3753  0.4258 -1.1407
16321SOL    HW255056   4.355   9.172   3.118  0.1632  1.5178  1.6071
16322SOL     OW55057   0.175   6.008   8.660 -0.5168 -0.0959 -0.5107
16322SOL    HW155058   0.230   5.939   8.623 -2.4361 -0.8231 -2.1999
16322SOL    HW255059   0.161   6.069   8.587 -0.5804  0.9765  0.3631
16323SOL     OW55060   0.364   7.551   8.105  0.0149  0.5918 -0.0169
16323SOL    HW155061   0.374   7.551   8.010 -1.1589 -2.4553 -0.2604
16323SOL    HW255062   0.276   7.584   8.120 -0.0719  0.3756 -0.0491
16324SOL     OW55063   9.025   8.836   6.258 -0.2238 -0.8116  0.1349
16324SOL    HW155064   9.030   8.744   6.285  0.7409 -0.5691  0.8146
16324SOL    HW255065   9.003   8.832   6.165 -2.7023 -1.6790  0.6665
16325SOL     OW55066   0.673  10.747   8.994  0.4073 -0.5819 -0.3403
16325SOL    HW155067   0.734  10.747   8.920 -0.1737  0.4712 -0.8486
16325SOL    HW255068   0.589  10.772   8.955  0.3152  1.0803  0.8383
16326SOL     OW55069   5.099   6.548  10.541  0.1588  0.3219 -0.1751
16326SOL    HW155070   5.007   6.558  10.518 -0.0096  0.4533  0.5372
16326SOL    HW255071   5.143   6.621  10.498 -0.0776  0.2908 -0.4725
16327SOL     OW55072   9.970  10.144  10.879 -0.1864  0.1482  0.4155
16327SOL    HW155073  10.034  10.216  10.880 -1.5622  1.4134  1.0902
16327SOL    HW255074   9.949  10.130  10.972 -1.4391  0.2906  0.1726
16328SOL     OW55075   1.863   8.640   0.350  0.7123  0.3794 -0.4076
16328SOL    HW155076   1.899   8.636   0.439  1.7913  1.6606 -0.7636
16328SOL    HW255077   1.876   8.551   0.315 -1.7430 -0.8193  1.4107
16329SOL     OW55078   8.678   6.544   6.239  0.4365 -0.1404 -0.1039
16329SOL    HW155079   8.691   6.626   6.191  0.8566 -0.4963 -0.6098
16329SOL    HW255080   8.618   6.567   6.310  0.8793  0.6931  0.0116
16330SOL     OW55081   3.516   7.555   0.757  0.1950 -0.8736 -0.1431
16330SOL    HW155082   3.576   7.629   0.764  1.3852 -1.7627 -0.7039
16330SOL    HW255083   3.463   7.574   0.679  1.0586 -0.9995 -0.7696
16331SOL     OW55084   8.213   4.720   6.259  0.5431  0.0589 -0.2199
16331SOL    HW155085   8.269   4.788   6.297  0.1437 -0.3963  1.2592
16331SOL    HW255086   8.213   4.650   6.324 -1.2044 -0.2240 -0.4720
16332SOL     OW55087   5.826   4.002   9.686 -0.5697 -0.1772  0.2691
16332SOL    HW155088   5.734   3.984   9.669 -0.9637  0.8208  1.2428
16332SOL    HW255089   5.844   3.959   9.770  0.3488 -1.8654 -0.7316
16333SOL     OW55090   2.704   7.625   8.563  0.4194  0.2931 -0.4220
16333SOL    HW155091   2.647   7.569   8.615  0.9597 -1.1005 -1.2752
16333SOL    HW255092   2.645   7.690   8.523 -0.1608  0.5962  0.8734
16334SOL     OW55093   1.654   3.574   2.771  0.5253 -0.5095  0.3947
16334SOL    HW155094   1.585   3.604   2.712  0.9664 -1.6796 -0.7616
16334SOL    HW255095   1.639   3.622   2.852 -1.1187 -0.1003 -0.1189
16335SOL     OW55096   2.661  10.058   7.806  0.3487  0.4264 -0.2363
16335SOL    HW155097   2.720  10.000   7.854 -0.3639  0.1938  0.3688
16335SOL    HW255098   2.698  10.062   7.717  1.0493 -0.0196  0.0305
16336SOL     OW55099   3.374   3.683   4.687 -0.3591  0.5827 -0.3504
16336SOL    HW155100   3.326   3.609   4.649  1.3678 -0.8603  0.1424
16336SOL    HW255101   3.461   3.648   4.705  0.8847  3.0515 -1.0946
16337SOL     OW55102   7.525   4.188   0.744  0.4883 -0.1645  0.3932
16337SOL    HW155103   7.551   4.268   0.698  1.3589 -1.6613 -1.8363
16337SOL    HW255104   7.598   4.171   0.805  1.2588 -0.3197 -0.5528
16338SOL     OW55105   3.636   6.584   1.188 -0.0531  0.9590  0.3886
16338SOL    HW155106   3.658   6.664   1.141 -1.4881  1.7301  0.9933
16338SOL    HW255107   3.700   6.520   1.156 -0.5768  1.5988 -2.1278
16339SOL     OW55108   8.969   8.105   4.989  0.0317 -0.2228 -0.4913
16339SOL    HW155109   9.060   8.130   4.971 -1.0696  2.4549 -3.1830
16339SOL    HW255110   8.944   8.052   4.913 -1.2274  0.8812 -0.8779
16340SOL     OW55111   2.159   6.042   9.782 -0.4376 -0.4565  0.2274
16340SOL    HW155112   2.196   6.017   9.697  0.0298  0.6048  0.0887
16340SOL    HW255113   2.065   6.048   9.766 -0.3604 -0.3204 -0.2084
16341SOL     OW55114   6.766   2.085   6.490 -0.1441  0.0591 -0.1460
16341SOL    HW155115   6.728   2.143   6.424  1.4733  0.9398 -0.3618
16341SOL    HW255116   6.790   2.006   6.441 -1.0416 -0.2295 -0.1369
16342SOL     OW55117   3.719   7.227   1.878  0.4872 -0.0482  0.6420
16342SOL    HW155118   3.679   7.232   1.791  2.2239  1.8575 -0.1428
16342SOL    HW255119   3.731   7.133   1.894  0.7577 -0.4373 -1.5179
16343SOL     OW55120   9.560  10.052   4.369 -0.4145 -0.2001 -0.0021
16343SOL    HW155121   9.570  10.116   4.299  0.7843 -0.0874  0.2434
16343SOL    HW255122   9.563   9.967   4.324  2.3151 -0.2175  0.0055
16344SOL     OW55123   1.951   4.536   8.975 -0.3284  0.1754  0.0625
16344SOL    HW155124   1.873   4.579   9.008 -0.5015 -0.2917  0.2677
16344SOL    HW255125   1.972   4.470   9.040 -0.5062 -0.5652 -0.6188
16345SOL     OW55126   3.968   5.576   2.858  0.4191  0.1720  0.8191
16345SOL    HW155127   4.049   5.525   2.865  0.6511  0.5622  0.9824
16345SOL    HW255128   3.944   5.597   2.948  0.3232  0.3481  0.7541
16346SOL     OW55129   8.339   8.903   0.213 -0.0168 -0.4042 -0.1040
16346SOL    HW155130   8.272   8.868   0.272 -0.4829 -0.6234 -0.7488
16346SOL    HW255131   8.290   8.937   0.138  0.6201 -1.4070 -1.0174
16347SOL     OW55132   7.600   3.938   6.066 -0.3595  0.8681  0.3691
16347SOL    HW155133   7.540   4.001   6.107 -0.2637  0.7720  0.6581
16347SOL    HW255134   7.547   3.860   6.051 -0.6178  1.1907 -0.4692
16348SOL     OW55135   2.457  10.528   0.046 -0.4897 -0.1951 -0.3737
16348SOL    HW155136   2.388  10.464   0.034 -0.2396 -0.3789 -0.8837
16348SOL    HW255137   2.413  10.613   0.042 -0.7632 -0.3243 -0.1063
16349SOL     OW55138   2.642   1.515   7.546  0.2531 -0.1525  0.1990
16349SOL    HW155139   2.648   1.609   7.526 -0.7298 -0.0480  0.3563
16349SOL    HW255140   2.680   1.507   7.634 -2.0530  0.5458  1.3314
16350SOL     OW55141   7.885   0.657   0.153 -0.2358 -0.4216  0.2798
16350SOL    HW155142   7.927   0.626   0.072 -0.4236  1.9697 -0.8100
16350SOL    HW255143   7.796   0.623   0.149  0.4925 -2.5722  0.8751
16351SOL     OW55144   3.835   8.906   9.647 -0.5696 -0.3144  0.1031
16351SOL    HW155145   3.777   8.843   9.606 -1.0509  0.1248  0.1059
16351SOL    HW255146   3.797   8.922   9.733 -0.2741 -0.2574  0.2256
16352SOL     OW55147   3.005   8.792   2.504 -0.6915 -0.2903  0.1739
16352SOL    HW155148   2.977   8.850   2.575 -0.0223 -1.3361  1.3364
16352SOL    HW255149   2.927   8.741   2.482 -1.2454  0.9114 -0.7576
16353SOL     OW55150   3.961   7.444   0.308 -0.4133  0.2074 -0.6791
16353SOL    HW155151   3.920   7.483   0.232  0.1124 -0.4916 -1.3368
16353SOL    HW255152   4.021   7.378   0.272  1.6747  1.5201  0.1981
16354SOL     OW55153  10.571   6.900   8.329 -0.1486  0.4040 -0.2869
16354SOL    HW155154  10.647   6.856   8.292 -0.7052 -0.9063  0.0545
16354SOL    HW255155  10.580   6.888   8.424  0.0392  1.6517 -0.1348
16355SOL     OW55156   4.254   6.648   3.861 -0.3097  0.3900  0.6696
16355SOL    HW155157   4.293   6.572   3.818 -0.4814 -0.6645  2.2795
16355SOL    HW255158   4.330   6.700   3.890 -0.1767  0.4507  0.2169
16356SOL     OW55159   9.492  10.445   7.546  0.1300  0.7851 -0.1901
16356SOL    HW155160   9.559  10.408   7.489 -0.2154  1.8752 -1.3485
16356SOL    HW255161   9.514  10.538   7.552 -0.3438  0.8525  0.7513
16357SOL     OW55162   0.856   0.269   8.323 -0.2895  0.1496 -0.0486
16357SOL    HW155163   0.768   0.233   8.306  0.1533 -1.0085  0.0558
16357SOL    HW255164   0.848   0.361   8.299 -2.1431  0.6241  2.0077
16358SOL     OW55165   6.437   3.337   5.669 -1.2145  0.0836  0.2483
16358SOL    HW155166   6.422   3.343   5.575 -0.6868 -1.4782  0.0398
16358SOL    HW255167   6.526   3.369   5.681 -1.2616  0.2292  0.2113
16359SOL     OW55168   3.839   0.330   8.595 -0.4707  0.0597 -0.3602
16359SOL    HW155169   3.756   0.331   8.548  0.0607 -1.0333 -1.3736
16359SOL    HW255170   3.839   0.246   8.640  0.1363  0.0066 -0.4600
16360SOL     OW55171   1.667   1.780   8.160  0.2543  0.5845  0.0836
16360SOL    HW155172   1.732   1.830   8.111 -0.1348  0.3879 -0.6564
16360SOL    HW255173   1.700   1.778   8.250  0.6183  1.5784 -0.0160
16361SOL     OW55174   5.009   8.042   2.865 -0.2832 -0.0851 -0.5808
16361SOL    HW155175   5.027   7.954   2.833  0.0083 -0.5267  0.7580
16361SOL    HW255176   4.956   8.082   2.796  0.8362 -0.7802 -1.8906
16362SOL     OW55177   5.242   3.423   2.590 -0.0533  0.1296 -0.0766
16362SOL    HW155178   5.338   3.431   2.591  0.0705 -0.9673 -0.9701
16362SOL    HW255179   5.223   3.374   2.510 -1.1729 -1.7419  1.2545
16363SOL     OW55180   9.414   6.435   0.115 -0.4586  0.5306  0.1966
16363SOL    HW155181   9.357   6.506   0.086 -1.5234 -0.3309  0.0984
16363SOL    HW255182   9.437   6.458   0.205  0.6423  1.8552 -0.3880
16364SOL     OW55183   0.340   4.723   8.563  0.5670  0.3352 -0.5093
16364SOL    HW155184   0.332   4.775   8.643 -3.7729  0.1147 -0.5536
16364SOL    HW255185   0.342   4.787   8.492 -0.6283  0.5498 -0.3736
16365SOL     OW55186   3.640   5.944   0.504  0.2064  0.0109 -0.3120
16365SOL    HW155187   3.548   5.929   0.482  0.2451 -0.0260 -0.4564
16365SOL    HW255188   3.676   5.986   0.425 -0.0455  1.4490  0.3118
16366SOL     OW55189   7.062   0.643   2.819 -0.0510  0.4871  0.0846
16366SOL    HW155190   6.968   0.637   2.803  0.0666 -2.1732  0.0246
16366SOL    HW255191   7.095   0.694   2.745 -1.3766  1.0731 -0.1277
16367SOL     OW55192   6.213  10.007   6.403  0.3952  0.3325  0.0794
16367SOL    HW155193   6.178   9.958   6.329 -0.5973 -2.0470  1.9939
16367SOL    HW255194   6.142  10.067   6.427  0.1297  0.0410  0.0329
16368SOL     OW55195   7.690  10.469  10.212 -0.3042 -0.2500  0.2695
16368SOL    HW155196   7.634  10.446  10.138  0.5298 -0.3233 -0.3565
16368SOL    HW255197   7.755  10.528  10.175  1.2001 -1.6782  0.5301
16369SOL     OW55198   9.390   9.266   7.461  0.5063 -0.2400  0.0929
16369SOL    HW155199   9.308   9.217   7.468  1.3375 -1.8425 -0.8174
16369SOL    HW255200   9.458   9.201   7.476  1.6391  1.1931  1.4569
16370SOL     OW55201   2.592   4.185   3.453 -0.1631 -0.0516  0.0614
16370SOL    HW155202   2.666   4.245   3.445 -1.5253  1.4775 -3.3520
16370SOL    HW255203   2.524   4.236   3.497 -0.0109 -0.5612  0.8939
16371SOL     OW55204   1.192   8.452   3.687  0.0573 -0.3492 -0.0958
16371SOL    HW155205   1.161   8.460   3.597 -0.3781  0.2542  0.1052
16371SOL    HW255206   1.225   8.362   3.693  1.9336  0.1898 -1.4401
16372SOL     OW55207   1.651   3.906   5.516  0.2859 -0.5369 -0.1435
16372SOL    HW155208   1.652   3.974   5.584  0.5716  0.2637 -0.9353
16372SOL    HW255209   1.702   3.944   5.444  0.7326 -1.7287 -0.4666
16373SOL     OW55210   6.314   0.148   1.078  0.7439 -0.1446 -0.2241
16373SOL    HW155211   6.283   0.073   1.027 -0.7244 -0.4757  1.0854
16373SOL    HW255212   6.404   0.124   1.101  0.0164 -1.9897  0.9604
16374SOL     OW55213   7.848   1.161   1.718 -0.0620 -0.0203 -0.5339
16374SOL    HW155214   7.829   1.176   1.810 -3.0190 -2.8234 -0.5000
16374SOL    HW255215   7.917   1.095   1.718  0.7913  0.8576 -0.3878
16375SOL     OW55216   3.942   3.864   4.675 -0.3674 -0.0405 -0.1731
16375SOL    HW155217   4.025   3.824   4.648 -1.1677 -0.7909 -1.6678
16375SOL    HW255218   3.901   3.798   4.731  0.3099  0.6096  1.1365
16376SOL     OW55219   4.087   3.323   4.095  0.2972  0.1764  0.0422
16376SOL    HW155220   4.108   3.413   4.072  0.1428 -0.3186 -2.2204
16376SOL    HW255221   4.001   3.329   4.139  0.1151  1.0910 -0.4123
16377SOL     OW55222   0.230  10.826   0.031  0.0448 -0.6329 -0.4612
16377SOL    HW155223   0.214  10.856  -0.058 -2.1694 -2.0302 -0.6252
16377SOL    HW255224   0.205  10.899   0.086  0.9599  0.0653 -0.9400
16378SOL     OW55225   4.371   9.220  10.200 -0.3069  0.2379  0.0244
16378SOL    HW155226   4.370   9.231  10.295 -1.5019 -0.3371  0.0891
16378SOL    HW255227   4.358   9.308  10.165 -1.0993  0.2844  0.4158
16379SOL     OW55228   1.505   4.964   6.146  1.2457 -0.2890 -0.2459
16379SOL    HW155229   1.575   4.899   6.157  1.2746 -0.3097 -0.5296
16379SOL    HW255230   1.428   4.924   6.186  1.0593 -0.8570 -1.1471
16380SOL     OW55231   6.204   2.785   9.752  0.0136 -0.2052 -0.3320
16380SOL    HW155232   6.140   2.718   9.773 -0.0739 -0.1090 -0.2918
16380SOL    HW255233   6.181   2.859   9.807 -0.8992  0.4539 -1.5538
16381SOL     OW55234   4.171   7.435   4.235 -0.2273  0.2468 -0.0937
16381SOL    HW155235   4.089   7.449   4.189  0.1141  0.1710 -0.7277
16381SOL    HW255236   4.158   7.353   4.284  0.0253 -0.6468 -1.4676
16382SOL     OW55237   6.233   4.858   3.863  0.4395  0.0547 -0.8273
16382SOL    HW155238   6.284   4.778   3.873 -0.0591 -0.2134 -0.4221
16382SOL    HW255239   6.145   4.835   3.890  0.5131  0.9957  0.3469
16383SOL     OW55240   0.459   1.509   2.825 -0.4660 -0.2442  0.3096
16383SOL    HW155241   0.477   1.594   2.784  0.4321  0.3108  1.7507
16383SOL    HW255242   0.545   1.467   2.832 -0.6960 -0.6307  0.9510
16384SOL     OW55243   5.045   5.934   1.207 -0.1120  0.5625  0.2175
16384SOL    HW155244   4.964   5.910   1.250  0.8045 -1.3700  0.9888
16384SOL    HW255245   5.094   5.983   1.273 -0.1137  0.5831  0.2036
16385SOL     OW55246   9.791   0.293   4.601  0.5975 -0.1720 -0.0878
16385SOL    HW155247   9.796   0.244   4.684  1.0540  0.8095  0.4916
16385SOL    HW255248   9.882   0.319   4.584  0.7431 -1.5307 -1.6538
16386SOL     OW55249   8.128   8.108   8.923  0.2253 -0.2897 -0.1807
16386SOL    HW155250   8.214   8.150   8.916 -0.0033  0.0726 -1.0383
16386SOL    HW255251   8.107   8.082   8.833  0.1647 -1.8815  0.2733
16387SOL     OW55252   2.106   8.242   3.354 -0.2923 -0.6279  0.0437
16387SOL    HW155253   2.102   8.315   3.291 -0.4323  0.0829  0.8580
16387SOL    HW255254   2.146   8.280   3.432 -1.9961 -0.9482  1.1289
16388SOL     OW55255   6.049   2.224   3.428 -0.1153  0.2432  0.6914
16388SOL    HW155256   5.958   2.194   3.433  0.0434 -0.6141 -0.8736
16388SOL    HW255257   6.091   2.187   3.506 -0.2139 -2.7876 -0.5554
16389SOL     OW55258   0.441   4.693   0.115  0.3425  0.2028 -0.1059
16389SOL    HW155259   0.470   4.784   0.119  1.2033 -0.0453 -0.3401
16389SOL    HW255260   0.519   4.645   0.087  0.8284 -1.0108  2.9562
16390SOL     OW55261   0.754   2.754   7.807 -0.3567  0.1048  0.1003
16390SOL    HW155262   0.705   2.672   7.800  0.3403 -0.5365  1.9745
16390SOL    HW255263   0.827   2.744   7.745  1.0427 -1.7592  1.8747
16391SOL     OW55264   0.244  10.141   0.395  0.1167  0.2134 -0.4097
16391SOL    HW155265   0.293  10.065   0.426  1.9098  0.4130 -2.5430
16391SOL    HW255266   0.256  10.207   0.463 -0.2004 -0.8890  0.7485
16392SOL     OW55267   0.602   9.607   4.350  0.0364  0.1914 -0.1739
16392SOL    HW155268   0.614   9.546   4.423 -1.0700 -0.0353 -0.1629
16392SOL    HW255269   0.688   9.613   4.310  1.0137  1.3290  1.9102
16393SOL     OW55270  10.199   2.336  10.323 -0.7092 -0.1414  0.0536
16393SOL    HW155271  10.228   2.341  10.414  1.6264  1.8022 -0.7172
16393SOL    HW255272  10.251   2.265  10.285  0.1102  0.6634 -0.3446
16394SOL     OW55273   2.372   6.615   4.762  0.6396  0.4748  0.2431
16394SOL    HW155274   2.302   6.679   4.775 -0.5742 -1.2820  3.4747
16394SOL    HW255275   2.451   6.660   4.794  0.3143  1.2587 -0.0257
16395SOL     OW55276   3.483   8.603   1.109 -0.5490  0.0027  1.0722
16395SOL    HW155277   3.430   8.546   1.054 -0.8065  0.9747  0.2825
16395SOL    HW255278   3.434   8.608   1.191 -0.7122 -0.6052  1.0165
16396SOL     OW55279  10.324   2.364   8.405 -0.2636 -0.0571  0.2484
16396SOL    HW155280  10.288   2.452   8.400 -0.4449 -0.1351  0.1611
16396SOL    HW255281  10.353   2.355   8.496 -0.3820  0.0405  0.2959
16397SOL     OW55282   3.626   3.732   2.052 -0.0796 -0.7208  0.3360
16397SOL    HW155283   3.708   3.689   2.027 -0.3556 -1.5127  0.7766
16397SOL    HW255284   3.631   3.741   2.147 -0.0120  0.2740  0.2548
16398SOL     OW55285   5.927   6.480   8.279  0.6185  0.0244  0.4235
16398SOL    HW155286   6.018   6.478   8.250  0.1245 -2.1937 -1.2774
16398SOL    HW255287   5.926   6.430   8.360  1.0573  1.0097  1.0526
16399SOL     OW55288  10.830   8.608   7.704  0.1923  0.3183 -0.1755
16399SOL    HW155289  10.790   8.524   7.682 -0.8813  0.8803 -0.4100
16399SOL    HW255290  10.794   8.630   7.790  1.9883 -0.3719  0.8236
16400SOL     OW55291   3.803   6.641   6.204 -0.4216  0.4279  0.1320
16400SOL    HW155292   3.822   6.691   6.283 -0.9016 -0.3802  0.7747
16400SOL    HW255293   3.852   6.559   6.216 -2.5603 -0.8121  0.8403
16401SOL     OW55294   5.909   3.636   2.646 -0.1250 -0.0764  0.9689
16401SOL    HW155295   5.962   3.716   2.646  0.0009 -0.1595  1.2211
16401SOL    HW255296   5.969   3.567   2.671  0.0220 -0.4342 -0.3079
16402SOL     OW55297   1.855   3.349   7.394  0.3575  0.8152 -0.3871
16402SOL    HW155298   1.948   3.329   7.406  0.3592  1.0581  0.0205
16402SOL    HW255299   1.836   3.321   7.305  1.0379  1.5680 -0.7819
16403SOL     OW55300   0.275  10.685   6.495 -0.4213  0.2634 -0.0645
16403SOL    HW155301   0.268  10.594   6.467 -0.2985  0.0969  0.4402
16403SOL    HW255302   0.355  10.688   6.547 -2.0028 -0.0890  2.6361
16404SOL     OW55303   5.136   1.416   5.321  0.1240 -0.2359 -0.2116
16404SOL    HW155304   5.194   1.458   5.385 -0.4025 -0.8330  0.6696
16404SOL    HW255305   5.050   1.452   5.340 -0.1427 -0.8908 -0.1575
16405SOL     OW55306   2.940   9.871   8.169 -0.1243 -0.3730  0.0590
16405SOL    HW155307   2.880   9.885   8.241  0.5104 -2.1241  0.9933
16405SOL    HW255308   2.919   9.783   8.136  0.0774  0.1051 -1.4160
16406SOL     OW55309   0.730  10.611   6.061  0.1669 -0.3908 -0.8718
16406SOL    HW155310   0.806  10.586   6.113 -1.3557 -0.8234  1.2461
16406SOL    HW255311   0.701  10.530   6.019 -0.2844 -0.6615 -0.0625
16407SOL     OW55312   7.453   4.521   7.729  0.2835  0.1782  0.3369
16407SOL    HW155313   7.488   4.497   7.814  2.1520 -1.3128 -0.7877
16407SOL    HW255314   7.418   4.439   7.693  2.5729 -0.0015 -1.6671
16408SOL     OW55315  10.038   9.577   1.474  0.1452  0.6967 -0.7383
16408SOL    HW155316  10.114   9.542   1.426  0.7375 -0.8491  1.2088
16408SOL    HW255317   9.965   9.521   1.447  0.7492 -1.0907  1.0591
16409SOL     OW55318   7.789   7.110   2.548 -0.5102 -0.6000  0.0872
16409SOL    HW155319   7.832   7.034   2.508 -0.8344 -1.2999  1.0419
16409SOL    HW255320   7.698   7.083   2.559 -1.0390  0.5607 -1.1169
16410SOL     OW55321   8.285  10.155   9.619 -0.0786  0.1638 -0.3927
16410SOL    HW155322   8.224  10.215   9.576 -0.3460 -1.1884 -2.0647
16410SOL    HW255323   8.271  10.168   9.712 -1.1121  1.6856 -0.7274
16411SOL     OW55324   2.894   8.572   3.806  0.0628 -0.2068  0.5987
16411SOL    HW155325   2.833   8.525   3.749  0.0678 -0.4827  0.8187
16411SOL    HW255326   2.841   8.642   3.845  0.2152  0.3967 -0.2376
16412SOL     OW55327   5.529  10.301   3.899 -0.6013 -0.2339 -0.2501
16412SOL    HW155328   5.491  10.221   3.937 -0.4178 -0.5175 -0.6505
16412SOL    HW255329   5.566  10.272   3.816 -0.6267  0.2955 -0.4479
16413SOL     OW55330   4.149  10.154  10.799  0.1666  0.3079  0.0044
16413SOL    HW155331   4.207  10.100  10.853  1.2095  0.4753 -0.9113
16413SOL    HW255332   4.145  10.238  10.844  1.1853  0.5093 -0.2676
16414SOL     OW55333   6.052   1.276   5.861 -0.0137  0.4904  0.3344
16414SOL    HW155334   6.096   1.224   5.795 -1.0149  0.3642 -0.2527
16414SOL    HW255335   6.120   1.296   5.926  0.1281 -2.7175  1.3481
16415SOL     OW55336   6.434  10.263   7.424 -0.6589 -0.4164 -0.0742
16415SOL    HW155337   6.372  10.246   7.496 -1.3833  1.0409 -0.3221
16415SOL    HW255338   6.509  10.304   7.467 -0.1873 -1.4393  0.1121
16416SOL     OW55339   5.409   6.269   8.658  0.0587 -0.3428  0.3129
16416SOL    HW155340   5.350   6.234   8.592 -2.0665  1.8613  0.8976
16416SOL    HW255341   5.427   6.195   8.716 -1.8850 -1.1921 -0.0886
16417SOL     OW55342   3.150   5.862   6.387  0.4262  0.2051 -0.0267
16417SOL    HW155343   3.095   5.866   6.466  0.3026  0.6997 -0.1335
16417SOL    HW255344   3.198   5.779   6.395 -1.8295 -1.2883 -0.9237
16418SOL     OW55345   8.420   6.326   3.877 -0.1375 -0.4693  0.0332
16418SOL    HW155346   8.353   6.277   3.830 -0.6725  0.7910 -0.5823
16418SOL    HW255347   8.481   6.354   3.809 -1.1600  1.7619 -0.0785
16419SOL     OW55348   3.379   1.452   6.146 -0.1660 -0.0040  0.5566
16419SOL    HW155349   3.383   1.482   6.055  0.9156  0.9138  0.8944
16419SOL    HW255350   3.419   1.522   6.197 -1.8627  0.0599  1.9075
16420SOL     OW55351   0.086   0.098   9.530 -0.1035  0.2281  0.5443
16420SOL    HW155352   0.025   0.168   9.554 -0.5385  0.0236  0.0645
16420SOL    HW255353   0.057   0.069   9.443  1.4890  1.0273 -0.2939
16421SOL     OW55354   8.153   0.443   1.443 -0.8320  0.4886  0.8842
16421SOL    HW155355   8.190   0.512   1.498  0.5540 -0.2525  0.9058
16421SOL    HW255356   8.063   0.472   1.427 -0.1191  2.6288  0.3569
16422SOL     OW55357   5.277   1.572   2.817  0.2402  0.5025  0.3017
16422SOL    HW155358   5.266   1.658   2.776  0.6558  0.1878 -0.4858
16422SOL    HW255359   5.187   1.540   2.829  0.0738  1.1538  0.8506
16423SOL     OW55360  10.477   9.090   0.538  0.3901  0.1264  0.1838
16423SOL    HW155361  10.477   9.132   0.625  2.0632 -1.2455  0.8862
16423SOL    HW255362  10.555   9.036   0.537  1.3929  1.4103 -2.8742
16424SOL     OW55363   9.191  10.452   5.788 -0.4271 -0.2067 -0.4299
16424SOL    HW155364   9.139  10.472   5.710 -0.1863 -0.0602 -0.5526
16424SOL    HW255365   9.173  10.524   5.848 -0.5923 -0.3067 -0.3586
16425SOL     OW55366   6.752   8.987   1.847  0.4185  0.2673  0.4715
16425SOL    HW155367   6.787   9.012   1.762 -1.6084 -0.5784 -0.7062
16425SOL    HW255368   6.767   8.893   1.852 -1.3292 -0.0755  0.0320
16426SOL     OW55369   6.662   8.528   2.527 -0.0386 -0.2523 -0.1069
16426SOL    HW155370   6.740   8.582   2.520  0.7706 -1.1156  1.6543
16426SOL    HW255371   6.605   8.560   2.457  0.9653  1.8866 -0.0418
16427SOL     OW55372   6.648   1.784   9.716 -0.3073  0.2217 -0.3848
16427SOL    HW155373   6.577   1.725   9.739  0.5642 -1.0742 -0.9163
16427SOL    HW255374   6.710   1.777   9.788  0.5994 -0.8735 -1.2275
16428SOL     OW55375   9.189   2.301   4.201  0.0971 -0.1830 -0.2377
16428SOL    HW155376   9.239   2.327   4.124  1.3823  0.5834  0.8166
16428SOL    HW255377   9.201   2.372   4.263 -4.0433  1.1148 -0.6025
16429SOL     OW55378   6.184   5.051   6.521 -0.2425 -0.4237 -0.2991
16429SOL    HW155379   6.253   4.985   6.531  1.4522  1.1924 -0.7232
16429SOL    HW255380   6.185   5.072   6.428  0.1202  1.0631  0.0164
16430SOL     OW55381   8.266   3.135   6.363 -0.1530 -0.0675  0.0405
16430SOL    HW155382   8.284   3.064   6.301  2.1258  0.6203 -0.1947
16430SOL    HW255383   8.179   3.115   6.397 -0.4596 -1.8160 -1.5496
16431SOL     OW55384   3.970   0.358   5.702 -0.1545 -0.4366 -0.0931
16431SOL    HW155385   4.062   0.381   5.694  0.2486 -0.9234  2.2345
16431SOL    HW255386   3.951   0.368   5.796 -2.6068  0.1337 -0.5688
16432SOL     OW55387   8.776   6.603   5.367 -0.1710  0.1604  0.1686
16432SOL    HW155388   8.709   6.640   5.425  0.0395  0.7255  0.0629
16432SOL    HW255389   8.741   6.518   5.341  0.1813 -0.5514  1.8918
16433SOL     OW55390  10.817   6.593   9.703  0.1958 -0.5512 -0.0621
16433SOL    HW155391  10.902   6.548   9.701  0.9908  0.7949  1.4204
16433SOL    HW255392  10.834   6.678   9.663 -0.2898 -0.0386  0.7857
16434SOL     OW55393   9.155   8.803   2.437  0.3005  0.6172 -0.2606
16434SOL    HW155394   9.112   8.787   2.353  0.8466 -2.4634 -0.0995
16434SOL    HW255395   9.242   8.835   2.414  1.6336 -3.1365 -1.2095
16435SOL     OW55396   7.267   1.825   5.359 -0.1979 -0.1351  0.6178
16435SOL    HW155397   7.244   1.820   5.452  1.2104  0.2308  1.0170
16435SOL    HW255398   7.184   1.838   5.314 -0.6591  2.6649  2.0820
16436SOL     OW55399   4.724   5.058  10.531 -0.7912 -0.2359  0.2854
16436SOL    HW155400   4.662   5.037  10.461 -0.1868  0.4462 -0.4653
16436SOL    HW255401   4.786   4.986  10.531 -0.6299 -0.0981 -0.0699
16437SOL     OW55402   7.819   7.608   5.088  0.7163  0.4830 -0.2034
16437SOL    HW155403   7.807   7.699   5.060  0.4201  0.4123 -0.3050
16437SOL    HW255404   7.841   7.615   5.181  1.7358  0.7205 -0.4424
16438SOL     OW55405   5.957   1.921   6.019  0.1960  0.1160 -0.1015
16438SOL    HW155406   5.865   1.923   6.046 -0.2327  0.2270 -1.4778
16438SOL    HW255407   5.996   1.996   6.064 -1.2130  2.2187 -2.1400
16439SOL     OW55408   2.413   7.742   1.811 -0.2716  0.3621  0.5887
16439SOL    HW155409   2.445   7.827   1.780  0.6843 -0.0873  0.2986
16439SOL    HW255410   2.489   7.703   1.855 -0.4225 -0.7254 -0.0776
16440SOL     OW55411   7.375   4.279   7.664 -0.0383  0.0848  0.0820
16440SOL    HW155412   7.401   4.188   7.677  0.2945  0.3723  1.7199
16440SOL    HW255413   7.300   4.274   7.605  0.9580 -1.1054 -1.1533
16441SOL     OW55414   7.804   6.095   0.579 -0.4976  0.1560 -0.3763
16441SOL    HW155415   7.877   6.093   0.640 -0.4328 -0.1915 -0.4636
16441SOL    HW255416   7.827   6.164   0.516  0.0577 -0.3762 -0.7733
16442SOL     OW55417  10.060   1.175   4.353  0.1657 -0.4256 -0.0890
16442SOL    HW155418  10.086   1.094   4.310  0.1979 -1.1372  1.2344
16442SOL    HW255419  10.143   1.215   4.380  0.1388 -2.5566  3.8781
16443SOL     OW55420   2.437   7.404  10.159  0.4026  0.0386  0.2816
16443SOL    HW155421   2.515   7.371  10.114  0.2616  1.3694 -1.0169
16443SOL    HW255422   2.467   7.423  10.248  1.9086  1.5849 -0.4856
16444SOL     OW55423  10.623   5.752   8.892  0.0132 -0.0974 -0.1383
16444SOL    HW155424  10.591   5.682   8.835 -0.7160  0.0930  0.0184
16444SOL    HW255425  10.574   5.830   8.865 -1.0437 -0.1995  1.3237
16445SOL     OW55426   3.594   7.275   0.604  0.0330 -0.1682  0.2388
16445SOL    HW155427   3.520   7.336   0.600  0.7977  0.7760  0.1505
16445SOL    HW255428   3.604   7.256   0.697  0.3420  0.5456  0.3595
16446SOL     OW55429   4.726   0.088   5.059 -0.6119 -1.0760  0.3581
16446SOL    HW155430   4.727   0.081   4.963  0.6488 -1.0329  0.3584
16446SOL    HW255431   4.633   0.079   5.082 -0.8718 -1.6794 -0.8228
16447SOL     OW55432   2.156   1.613   6.825  0.6886  0.3692  0.1138
16447SOL    HW155433   2.239   1.580   6.859 -0.6514 -2.2610  1.1493
16447SOL    HW255434   2.113   1.655   6.899  0.9194  1.4335 -0.3360
16448SOL     OW55435   5.772   7.963   8.455  0.5092 -0.1057  0.1158
16448SOL    HW155436   5.767   7.899   8.527 -1.2860 -0.4534 -0.2542
16448SOL    HW255437   5.809   7.914   8.382  3.0823  0.4558  0.9521
16449SOL     OW55438   3.227   8.369   1.528  0.3571  0.5566  0.0509
16449SOL    HW155439   3.276   8.360   1.610  0.9703 -0.1073 -0.3745
16449SOL    HW255440   3.178   8.451   1.538  1.7875  1.4122  0.3733
16450SOL     OW55441   2.042   0.365  10.358 -0.3583 -0.2001 -0.4625
16450SOL    HW155442   2.085   0.385  10.275  0.5861 -1.8317 -0.4194
16450SOL    HW255443   2.049   0.269  10.366 -0.0728 -0.0514  1.6742
16451SOL     OW55444   2.542   7.139   7.611 -0.3621 -0.4178 -0.1004
16451SOL    HW155445   2.535   7.223   7.655 -0.4205  0.5221 -1.8328
16451SOL    HW255446   2.525   7.158   7.519  0.0389 -2.2560 -0.5979
16452SOL     OW55447   8.936   1.172   6.732  0.0054  0.1768  0.1305
16452SOL    HW155448   8.883   1.120   6.792 -0.4182  0.4442 -0.0083
16452SOL    HW255449   9.023   1.131   6.734  0.1113  0.4461  1.2473
16453SOL     OW55450   8.353   7.473   5.616 -0.1462 -0.4449 -0.4561
16453SOL    HW155451   8.414   7.524   5.562 -0.1159 -0.6269 -0.5929
16453SOL    HW255452   8.282   7.449   5.557  0.4107 -1.5655 -0.6896
16454SOL     OW55453   4.165   7.510   7.474 -0.1787  0.1121  0.5379
16454SOL    HW155454   4.242   7.460   7.503  1.0532  1.1190 -0.8422
16454SOL    HW255455   4.197   7.563   7.401 -2.0917  0.9252  0.2325
16455SOL     OW55456   6.786   4.182   8.073 -0.3499  0.3785 -0.2910
16455SOL    HW155457   6.770   4.166   8.166  1.2741 -1.4210 -0.2611
16455SOL    HW255458   6.705   4.155   8.029 -0.2613 -1.1410  0.4261
16456SOL     OW55459   4.926   6.985   7.591 -0.9661 -0.3551  0.1925
16456SOL    HW155460   4.888   7.044   7.656 -2.0888 -1.1121  0.2557
16456SOL    HW255461   4.978   6.923   7.643 -0.3877  0.1187  0.1905
16457SOL     OW55462   7.483  10.108  10.227  0.4005  0.5430  0.6245
16457SOL    HW155463   7.457  10.200  10.215 -1.7707 -0.0132  0.7103
16457SOL    HW255464   7.401  10.061  10.237  1.3828 -1.6383 -0.7909
16458SOL     OW55465   3.925   6.730   2.364 -0.1738  0.3041 -0.0053
16458SOL    HW155466   3.842   6.776   2.353  0.5588  1.6602 -0.0789
16458SOL    HW255467   3.924   6.661   2.297 -1.5818 -0.2550  0.5536
16459SOL     OW55468   1.975   7.218   0.342  0.0659 -0.0619  0.3253
16459SOL    HW155469   1.975   7.312   0.362 -1.0867 -0.3486  1.8448
16459SOL    HW255470   1.959   7.214   0.248  2.5537  1.2919 -0.2744
16460SOL     OW55471   8.820   8.638   2.274 -0.4869 -0.6408  0.1430
16460SOL    HW155472   8.862   8.555   2.294 -1.4836 -1.0022  0.8255
16460SOL    HW255473   8.800   8.676   2.359  2.1639  1.5207 -0.0568
16461SOL     OW55474   5.330   9.401   6.497 -0.1679 -0.1489  0.2588
16461SOL    HW155475   5.407   9.368   6.545 -0.2183 -0.3512  0.2034
16461SOL    HW255476   5.359   9.404   6.405  0.4490  1.7600  0.4825
16462SOL     OW55477   1.274   5.202   7.462  0.4204 -0.0017  0.4763
16462SOL    HW155478   1.239   5.167   7.543  0.1082 -0.8571 -0.0140
16462SOL    HW255479   1.199   5.247   7.421  0.7093  0.8948  0.8963
16463SOL     OW55480   6.009   2.455   5.107  0.3741 -0.0195 -0.1593
16463SOL    HW155481   6.097   2.422   5.087  1.4302  2.2056  0.5297
16463SOL    HW255482   6.006   2.460   5.203  0.7259  2.8223 -0.2105
16464SOL     OW55483   9.935   5.721   8.894 -0.3916 -0.1111 -0.1791
16464SOL    HW155484   9.924   5.626   8.895  0.8499 -0.2729 -0.3953
16464SOL    HW255485   9.957   5.743   8.985 -0.9309  0.0103 -0.0742
16465SOL     OW55486  10.367   8.066   5.532 -0.5369 -0.2040 -0.3680
16465SOL    HW155487  10.287   8.104   5.569 -0.6449 -0.2306 -0.5707
16465SOL    HW255488  10.351   8.063   5.438  0.7104  2.1930 -0.7305
16466SOL     OW55489  10.056   4.906   9.535 -0.3162 -0.4668 -0.0939
16466SOL    HW155490  10.091   4.953   9.611  0.0875  1.4140 -1.3932
16466SOL    HW255491  10.003   4.836   9.573  1.3887 -0.7587  1.9160
16467SOL     OW55492   3.037   0.339   6.906 -0.0680  0.4374 -0.4851
16467SOL    HW155493   3.013   0.291   6.985  2.7864  0.3914  0.4789
16467SOL    HW255494   3.066   0.425   6.938  1.5949  0.2449 -1.3582
16468SOL     OW55495   1.236   2.771   9.309 -0.3888 -0.2179 -0.3839
16468SOL    HW155496   1.158   2.718   9.322 -0.1470 -0.7463 -1.0865
16468SOL    HW255497   1.277   2.774   9.396 -2.3991  2.0583  0.6201
16469SOL     OW55498   6.697   2.219   6.922  0.1806  0.0184  0.4859
16469SOL    HW155499   6.710   2.313   6.928 -0.1251  0.0934 -0.0108
16469SOL    HW255500   6.785   2.183   6.908  0.5900  0.0486  2.6364
16470SOL     OW55501   7.472   1.182   9.699  0.2647  0.2662 -0.2635
16470SOL    HW155502   7.497   1.164   9.790 -0.8575 -0.4132 -0.0741
16470SOL    HW255503   7.389   1.229   9.706  0.3579  0.5390 -0.9356
16471SOL     OW55504   7.177   2.396   5.873 -0.6427  0.1757 -0.1114
16471SOL    HW155505   7.242   2.339   5.832 -0.7794 -0.3232  0.3496
16471SOL    HW255506   7.191   2.482   5.832 -0.2339 -0.1154 -0.5950
16472SOL     OW55507   5.390   3.168   0.864  0.2755 -0.2706 -0.0370
16472SOL    HW155508   5.419   3.250   0.905  1.8117 -1.3751  1.2450
16472SOL    HW255509   5.333   3.196   0.793  0.1835  1.8829  0.7868
16473SOL     OW55510   5.354   7.262   8.802  0.0468  0.2516  0.2609
16473SOL    HW155511   5.263   7.268   8.771  0.0479 -1.1471 -0.0936
16473SOL    HW255512   5.405   7.246   8.722  0.4043 -0.5231  0.6366
16474SOL     OW55513   6.326   0.104   0.091  0.3285 -0.3814  0.0307
16474SOL    HW155514   6.339   0.159   0.014 -0.2220 -2.2323 -1.4649
16474SOL    HW255515   6.233   0.114   0.111  0.1922 -0.8809 -0.3439
16475SOL     OW55516   0.941   1.470   5.956  0.0878  0.1948 -0.3848
16475SOL    HW155517   0.917   1.436   6.042 -1.7673  0.3018 -0.8285
16475SOL    HW255518   0.943   1.392   5.899  2.1413  0.0009 -0.1142
16476SOL     OW55519   2.008   7.235   5.573 -0.2694  0.8048  0.0591
16476SOL    HW155520   2.013   7.255   5.667  0.1494  0.0799  0.1945
16476SOL    HW255521   2.013   7.140   5.568 -1.8236  0.7245 -0.6113
16477SOL     OW55522   8.694   8.773   5.040 -0.1772  0.2472  0.0860
16477SOL    HW155523   8.618   8.801   5.091 -0.3426 -1.0615  0.5961
16477SOL    HW255524   8.667   8.783   4.948 -0.8734  0.0240  0.2648
16478SOL     OW55525   3.377   2.615   4.663 -0.0747 -0.2101 -0.7421
16478SOL    HW155526   3.313   2.590   4.729  0.3080 -3.0498 -1.3178
16478SOL    HW255527   3.331   2.676   4.606 -1.4913 -0.3559  0.2002
16479SOL     OW55528   8.438   6.286  10.007  0.0958  0.2309  0.0669
16479SOL    HW155529   8.526   6.250   9.998  1.3009  2.9210 -0.0048
16479SOL    HW255530   8.446   6.353  10.075 -2.0450  0.1359  0.4750
16480SOL     OW55531   2.141   3.883   3.105 -0.6747  0.0864  0.4975
16480SOL    HW155532   2.054   3.857   3.134 -0.5621 -0.4020  0.4112
16480SOL    HW255533   2.191   3.897   3.185 -0.4703 -0.8932  0.5520
16481SOL     OW55534   9.555   6.555   5.407  0.1480 -0.0066 -0.3456
16481SOL    HW155535   9.602   6.477   5.435 -0.2098  0.1882  0.8684
16481SOL    HW255536   9.514   6.531   5.324  0.0039 -1.1089  0.0376
16482SOL     OW55537   4.914   1.890   9.277 -0.1512 -0.1037  0.1373
16482SOL    HW155538   4.861   1.821   9.316 -1.0924  0.6747  0.2915
16482SOL    HW255539   4.935   1.857   9.189 -3.2064  0.6003 -1.0102
16483SOL     OW55540   3.894   0.787   9.634  0.3659 -0.0929  0.2891
16483SOL    HW155541   3.989   0.793   9.622  0.3158 -1.4366 -1.2239
16483SOL    HW255542   3.858   0.855   9.576  0.3832  0.0044  0.3922
16484SOL     OW55543  10.072   7.873  10.294 -0.0158  0.4596 -0.1761
16484SOL    HW155544  10.142   7.880  10.359  0.0754 -0.5730 -0.1437
16484SOL    HW255545  10.025   7.956  10.300  0.7854  0.8963  0.2847
16485SOL     OW55546   0.277   8.498  10.727  0.1653 -0.2302  0.0814
16485SOL    HW155547   0.209   8.444  10.685  0.1137  1.2844 -1.9469
16485SOL    HW255548   0.237   8.584  10.736  2.4196  1.4465 -3.5171
16486SOL     OW55549   7.537   5.916   0.690  0.1821  0.5795 -0.5991
16486SOL    HW155550   7.517   5.996   0.640 -0.7599  0.8540  0.1861
16486SOL    HW255551   7.539   5.944   0.781  2.0438  0.1048 -0.4505
16487SOL     OW55552   3.882   9.928   8.555  0.7384  0.1312 -0.1282
16487SOL    HW155553   3.977   9.917   8.566  0.7239  0.8658  0.9547
16487SOL    HW255554   3.873  10.010   8.507  0.6739 -0.7270 -1.6198
16488SOL     OW55555   3.359   0.616   9.867 -0.3548  0.3208 -0.1787
16488SOL    HW155556   3.439   0.567   9.886  0.7439  1.7494 -0.9586
16488SOL    HW255557   3.320   0.572   9.792 -0.0505 -0.1032 -0.0875
16489SOL     OW55558   6.937   6.325   2.099 -0.6966  0.3180  0.7974
16489SOL    HW155559   6.976   6.392   2.043 -1.5263  1.7498  1.8405
16489SOL    HW255560   6.980   6.244   2.074  1.7740  1.5439  0.7795
16490SOL     OW55561   8.522   0.869   5.132  0.2519  0.1585  0.0984
16490SOL    HW155562   8.463   0.881   5.058 -0.1316  0.6659  0.4784
16490SOL    HW255563   8.592   0.813   5.099 -0.2438 -0.1308 -0.4637
16491SOL     OW55564   2.479   1.007   6.919 -0.1578 -0.2603 -0.2252
16491SOL    HW155565   2.553   1.030   6.862  0.3719 -2.8520 -0.6989
16491SOL    HW255566   2.515   1.012   7.007  0.2417 -0.3562 -0.3793
16492SOL     OW55567   5.311   4.266   1.078  0.4111 -0.3203 -0.5054
16492SOL    HW155568   5.383   4.270   1.141 -0.1506  0.1020  0.1174
16492SOL    HW255569   5.322   4.182   1.035  0.3761 -0.9553  0.6806
16493SOL     OW55570   4.154   4.184   1.035 -0.0613 -0.2800 -0.0293
16493SOL    HW155571   4.157   4.090   1.013 -3.2929 -0.3476 -0.6238
16493SOL    HW255572   4.171   4.187   1.129 -2.4296 -1.8176  0.5307
16494SOL     OW55573   3.127   2.788   7.736  0.1864 -0.6851 -0.6830
16494SOL    HW155574   3.073   2.807   7.812 -0.1753 -1.7606 -0.6485
16494SOL    HW255575   3.183   2.865   7.726  0.9542 -0.9458  1.2616
16495SOL     OW55576   7.008   8.438   3.907  0.5454  0.0288 -0.1410
16495SOL    HW155577   7.039   8.401   3.825 -0.3264 -1.8477  0.3178
16495SOL    HW255578   7.085   8.439   3.964  0.6520 -0.8170 -0.2666
16496SOL     OW55579   4.009   2.993   2.637  0.3004  0.4311  0.5552
16496SOL    HW155580   4.019   3.063   2.703 -0.5596 -1.7330  3.1576
16496SOL    HW255581   4.086   2.937   2.651 -0.2961 -0.4701  0.2655
16497SOL     OW55582   6.148   1.041   2.911  0.5335  0.2122 -0.3283
16497SOL    HW155583   6.170   1.012   2.822  0.2266  0.8095 -0.6100
16497SOL    HW255584   6.180   0.971   2.968 -0.7692 -0.9861 -1.0126
16498SOL     OW55585   8.720   2.129   5.884 -0.2917  0.1790 -0.2086
16498SOL    HW155586   8.771   2.163   5.811 -2.7330  2.3836 -1.0381
16498SOL    HW255587   8.683   2.047   5.852  0.6221 -0.1058 -0.5436
16499SOL     OW55588   8.912   8.760   0.267 -0.7471 -0.4664 -0.1394
16499SOL    HW155589   8.833   8.714   0.293 -0.6227 -0.8395 -0.4118
16499SOL    HW255590   8.894   8.790   0.178 -0.4401 -0.8941 -0.3502
16500SOL     OW55591   2.628   2.857   5.739 -0.4274  0.0814 -0.1513
16500SOL    HW155592   2.638   2.764   5.759  2.0102  0.3321  0.0528
16500SOL    HW255593   2.588   2.858   5.652  0.5384 -1.1821 -0.6339
16501SOL     OW55594   5.559   3.820   5.144  0.3676  0.0433  0.0956
16501SOL    HW155595   5.587   3.814   5.053  0.4719  1.3629  0.0270
16501SOL    HW255596   5.632   3.781   5.194  1.0227  0.7780 -0.2805
16502SOL     OW55597   3.517   2.430   5.294 -0.2271 -0.3045  0.0399
16502SOL    HW155598   3.518   2.508   5.349  2.7084 -0.5299  0.4688
16502SOL    HW255599   3.476   2.363   5.348 -1.0659  0.4520  0.3674
16503SOL     OW55600   7.726   2.322   8.979 -0.1641  0.4061  0.0804
16503SOL    HW155601   7.661   2.257   9.004  0.1081  0.3660  0.7035
16503SOL    HW255602   7.809   2.275   8.979 -0.1841  0.3463 -1.1661
16504SOL     OW55603   0.532   8.003   5.669  0.2777 -0.4316 -0.0439
16504SOL    HW155604   0.550   7.951   5.747  1.3617 -0.0240 -0.0000
16504SOL    HW255605   0.583   8.083   5.681 -2.1674  1.1872  0.4060
16505SOL     OW55606   8.435   5.290   5.292  0.2296 -0.4176 -0.3304
16505SOL    HW155607   8.499   5.236   5.337 -0.4509 -0.7203  0.2955
16505SOL    HW255608   8.432   5.371   5.343  3.3111  1.5014 -2.8047
16506SOL     OW55609   6.375   7.456   9.532 -0.1247 -0.5010 -0.0178
16506SOL    HW155610   6.404   7.537   9.574  0.1965  0.0713 -1.2841
16506SOL    HW255611   6.398   7.468   9.439 -0.7378 -1.7402 -0.3469
16507SOL     OW55612   6.082   7.403   6.103  0.3020  0.1433  0.0018
16507SOL    HW155613   6.041   7.331   6.056  1.0358 -0.5238  0.3521
16507SOL    HW255614   6.106   7.466   6.034  0.9933 -0.6318 -0.4889
16508SOL     OW55615   6.165   6.193   4.396  0.3815  0.5440 -0.3330
16508SOL    HW155616   6.225   6.212   4.323  0.0676 -0.5269 -0.8958
16508SOL    HW255617   6.093   6.147   4.355  0.2441 -0.1712  0.6886
16509SOL     OW55618   6.325   7.721   3.822 -0.6755  0.2800  0.6963
16509SOL    HW155619   6.307   7.628   3.841 -1.8198  0.9192  3.1446
16509SOL    HW255620   6.399   7.742   3.878 -0.3653  0.8411  0.0785
16510SOL     OW55621   3.119   1.678   6.141  0.0230  0.0503  0.5689
16510SOL    HW155622   3.155   1.646   6.224  2.8359 -2.2918 -1.3743
16510SOL    HW255623   3.185   1.738   6.108  1.5676 -2.8763 -2.1912
16511SOL     OW55624   1.145   4.463   0.034 -0.1879 -0.4866  0.0791
16511SOL    HW155625   1.214   4.529   0.032 -1.6331  1.1198 -2.2918
16511SOL    HW255626   1.191   4.380   0.044  1.9515  0.6156 -0.0613
16512SOL     OW55627   1.751   6.677   9.263 -0.1131 -0.1342  1.2747
16512SOL    HW155628   1.792   6.605   9.310 -1.4717 -0.6710  1.6958
16512SOL    HW255629   1.747   6.647   9.172 -2.2055 -1.3847  1.7085
16513SOL     OW55630   5.573   8.492   9.581 -0.3487  0.1995 -0.6032
16513SOL    HW155631   5.631   8.568   9.587 -1.2524  0.9416 -0.9735
16513SOL    HW255632   5.577   8.466   9.489 -1.5071  1.0111 -0.9054
16514SOL     OW55633   4.185   0.546   0.392 -0.1847 -0.1488 -0.1070
16514SOL    HW155634   4.160   0.605   0.321 -0.5928  0.2255  0.3360
16514SOL    HW255635   4.272   0.514   0.368  0.3125  1.1029 -0.0684
16515SOL     OW55636   1.954   9.784   7.479 -0.6535 -0.4102 -0.7144
16515SOL    HW155637   1.861   9.774   7.502 -0.3840  2.0708  2.1780
16515SOL    HW255638   1.956   9.863   7.424 -0.2936 -0.6471 -1.0414
16516SOL     OW55639   1.536   0.465  10.261 -0.1038 -0.0006 -0.0251
16516SOL    HW155640   1.548   0.502  10.348 -0.1413 -0.6381  0.2546
16516SOL    HW255641   1.456   0.507  10.229  0.1821  0.6088  0.0403
16517SOL     OW55642   8.913   7.517   3.872 -0.1536  0.4731  0.1210
16517SOL    HW155643   8.856   7.473   3.809  0.5866 -1.3253  0.6413
16517SOL    HW255644   8.882   7.607   3.873 -1.1506  0.2009 -1.6820
16518SOL     OW55645   4.512   5.390   0.205  0.9967  0.3613  0.2080
16518SOL    HW155646   4.502   5.304   0.246  0.9587  1.3753  2.4766
16518SOL    HW255647   4.606   5.401   0.193  1.1453  0.6845  1.5490
16519SOL     OW55648   8.742  10.761   9.892  0.1062  0.1569 -0.9908
16519SOL    HW155649   8.800  10.832   9.864  0.1648  1.0963  1.2936
16519SOL    HW255650   8.800  10.686   9.903  0.1333 -0.1462 -2.9002
16520SOL     OW55651   3.580   0.420   4.333 -0.3152 -0.0124 -0.5474
16520SOL    HW155652   3.643   0.444   4.401 -0.0280 -0.4655 -0.6505
16520SOL    HW255653   3.634   0.393   4.258 -0.6131 -1.4405 -0.2744
16521SOL     OW55654   0.874   0.216   0.775  0.1704 -0.7720  0.5661
16521SOL    HW155655   0.797   0.205   0.720 -1.9864 -0.6263  3.3355
16521SOL    HW255656   0.893   0.310   0.772 -1.2447 -0.4316  1.6580
16522SOL     OW55657   3.357   2.296   6.296  0.4489 -0.6656 -0.3795
16522SOL    HW155658   3.429   2.260   6.245 -0.2574 -1.1465 -1.0586
16522SOL    HW255659   3.278   2.265   6.251 -0.1835 -0.5654  0.6425
16523SOL     OW55660   0.064   7.334   5.300  0.3644  0.0919  0.7938
16523SOL    HW155661   0.010   7.391   5.245 -0.0060 -0.3095  0.7335
16523SOL    HW255662   0.070   7.381   5.384 -2.6636 -1.1844  1.8812
16524SOL     OW55663   1.490   4.543   6.423 -0.4424  0.0253  0.1174
16524SOL    HW155664   1.490   4.530   6.518  0.1125 -1.8095 -0.0865
16524SOL    HW255665   1.532   4.464   6.388 -3.9608 -1.1617 -1.8711
16525SOL     OW55666   6.750   8.628   3.925  0.6298  0.6318  0.2020
16525SOL    HW155667   6.827   8.572   3.939  0.1507 -0.2742 -0.6445
16525SOL    HW255668   6.676   8.575   3.955  0.2345  1.1112  0.0938
16526SOL     OW55669   2.668   6.293   4.296  0.5207  0.1013  0.5311
16526SOL    HW155670   2.734   6.232   4.264  1.0795 -0.5277  2.6697
16526SOL    HW255671   2.698   6.379   4.265  0.4925 -0.5096 -1.3086
16527SOL     OW55672   1.867   5.525   4.984  0.4983 -0.1626  0.5086
16527SOL    HW155673   1.829   5.612   4.967  0.9799 -0.0423 -0.0122
16527SOL    HW255674   1.882   5.489   4.896  1.8948 -0.0634  0.6943
16528SOL     OW55675   9.558   9.653   8.259 -0.5972 -0.3984 -0.6650
16528SOL    HW155676   9.640   9.667   8.306 -0.1992 -1.4224 -1.0263
16528SOL    HW255677   9.538   9.560   8.273 -2.2210  0.0429  0.2348
16529SOL     OW55678   2.351   6.862   8.490  0.0894  0.3369 -0.3416
16529SOL    HW155679   2.273   6.861   8.434  0.2479 -0.3297 -0.5534
16529SOL    HW255680   2.400   6.785   8.464 -0.0006 -0.1825  0.9705
16530SOL     OW55681   5.790   6.513   0.251  0.5649 -0.2267 -0.6963
16530SOL    HW155682   5.793   6.418   0.241  0.9027 -0.3466  0.3677
16530SOL    HW255683   5.882   6.539   0.259  0.4882  0.2236 -1.2231
16531SOL     OW55684   3.311   8.042   1.969 -0.3459  0.1617 -0.3906
16531SOL    HW155685   3.296   7.949   1.980 -1.1183  0.3922  0.5919
16531SOL    HW255686   3.315   8.055   1.874 -1.4306 -0.6847 -0.5548
16532SOL     OW55687   3.292   1.096   8.985 -0.3495 -0.5164 -0.3459
16532SOL    HW155688   3.345   1.075   9.062 -0.1324 -1.2777 -0.6886
16532SOL    HW255689   3.322   1.183   8.958  0.5461 -0.8219 -0.3746
16533SOL     OW55690   6.780   0.350   9.788  0.3726 -0.1663 -0.8254
16533SOL    HW155691   6.794   0.424   9.847  3.0978 -0.5339 -0.8936
16533SOL    HW255692   6.688   0.326   9.802 -0.4246  2.7460 -0.3041
16534SOL     OW55693   3.115   9.583   7.080 -0.2072 -0.4251 -0.0816
16534SOL    HW155694   3.159   9.589   6.995  1.6580  2.7234  0.9275
16534SOL    HW255695   3.022   9.590   7.060  0.1840  0.1027 -1.8969
16535SOL     OW55696  10.750   0.581  10.116  0.1895 -0.0198  0.0926
16535SOL    HW155697  10.842   0.588  10.142 -0.2124  0.0768  1.6248
16535SOL    HW255698  10.725   0.670  10.090  0.7165 -0.2001 -1.1032
16536SOL     OW55699   6.722   8.652   1.849 -0.5267 -0.1367  0.3358
16536SOL    HW155700   6.788   8.592   1.815 -0.5687 -0.0965  0.1820
16536SOL    HW255701   6.649   8.596   1.877 -0.8679 -0.1101 -0.4784
16537SOL     OW55702  10.837   2.295   9.381  0.0748 -0.0889  0.1488
16537SOL    HW155703  10.820   2.288   9.475 -0.0001  0.4239  0.1765
16537SOL    HW255704  10.918   2.245   9.367 -1.2821 -2.4050  0.0564
16538SOL     OW55705  10.918   9.768   3.500 -0.0268  0.1217  0.2149
16538SOL    HW155706  11.007   9.800   3.511  0.9813 -2.0082 -1.1635
16538SOL    HW255707  10.909   9.697   3.564  0.0468 -1.0451 -1.0114
16539SOL     OW55708   6.026   1.569   3.154 -0.0783 -0.4951 -0.1923
16539SOL    HW155709   6.061   1.574   3.065 -1.2875  0.4369 -0.6498
16539SOL    HW255710   6.062   1.488   3.189  2.4278  0.3153 -0.6359
16540SOL     OW55711   5.024   1.795   9.012 -0.5829  0.1969 -0.0445
16540SOL    HW155712   5.115   1.766   9.003 -0.5994  0.0646  0.1998
16540SOL    HW255713   4.972   1.724   8.975 -0.5741  0.4341 -0.5228
16541SOL     OW55714   2.600   4.647   2.557  0.0271 -0.5522 -0.6774
16541SOL    HW155715   2.688   4.613   2.576 -0.2045 -0.9006 -0.2109
16541SOL    HW255716   2.548   4.569   2.538 -0.2825 -0.3810 -0.5351
16542SOL     OW55717   6.311   7.715  10.533  0.0184  0.3982 -0.4903
16542SOL    HW155718   6.222   7.698  10.562  0.2096 -0.6852 -0.5173
16542SOL    HW255719   6.312   7.809  10.513 -0.5504  0.8414  1.4162
16543SOL     OW55720   3.153   8.708   9.796 -0.1357  0.4502 -0.0403
16543SOL    HW155721   3.205   8.780   9.831  1.5285  0.3465 -2.0560
16543SOL    HW255722   3.079   8.751   9.752  0.5273  0.9264 -0.7212
16544SOL     OW55723   4.708   9.110   4.616 -0.4688 -0.3648 -0.0834
16544SOL    HW155724   4.615   9.131   4.611 -0.3181  0.2860 -0.1773
16544SOL    HW255725   4.725   9.100   4.710 -0.6648 -0.6331 -0.0760
16545SOL     OW55726   8.482   1.994   5.487 -0.3442  0.0778  0.3768
16545SOL    HW155727   8.505   2.076   5.443  0.7404 -1.0960 -1.3035
16545SOL    HW255728   8.394   1.974   5.456 -1.7445  1.8516  2.7880
16546SOL     OW55729   7.466   6.818   3.295 -0.1771 -0.4395 -0.6162
16546SOL    HW155730   7.463   6.752   3.226 -0.7264 -1.1533  0.0769
16546SOL    HW255731   7.382   6.811   3.340 -0.2963  0.8163 -0.5881
16547SOL     OW55732   1.640   9.488   5.881 -0.1733  0.1394  0.1257
16547SOL    HW155733   1.546   9.478   5.893 -0.1640  0.6744  0.6748
16547SOL    HW255734   1.679   9.431   5.947 -0.0963 -0.9371 -0.8191
16548SOL     OW55735   2.686   7.929   5.560 -0.0905  0.1290  0.0585
16548SOL    HW155736   2.745   7.853   5.559  0.4164  0.4556  1.6925
16548SOL    HW255737   2.681   7.954   5.653 -1.8987  0.8272 -0.1797
16549SOL     OW55738   4.451   6.537   3.591  0.3564  0.0910 -0.2832
16549SOL    HW155739   4.403   6.470   3.542  0.6738  0.3596 -0.9625
16549SOL    HW255740   4.395   6.614   3.587  1.0663  0.5537 -1.5061
16550SOL     OW55741   4.805   7.188   1.005  0.3283 -0.1234  0.1273
16550SOL    HW155742   4.716   7.165   0.976  0.5833  0.5350 -1.2927
16550SOL    HW255743   4.849   7.217   0.925  1.5065  0.5727  0.9930
16551SOL     OW55744   5.807   4.586   5.946 -0.7477 -0.2812 -0.2378
16551SOL    HW155745   5.833   4.544   6.028  0.0571 -0.9345 -0.8090
16551SOL    HW255746   5.770   4.670   5.972 -1.1355 -0.7682  0.8414
16552SOL     OW55747   4.201   0.558  10.027 -0.9394  0.4792 -0.6029
16552SOL    HW155748   4.172   0.566  10.118  0.1506 -0.7323 -0.1031
16552SOL    HW255749   4.123   0.531   9.979 -1.1828 -0.4994  0.2889
16553SOL     OW55750   0.305   8.411   1.992  0.7072 -0.3943 -0.2134
16553SOL    HW155751   0.252   8.474   2.042  2.3076 -0.9346  2.2986
16553SOL    HW255752   0.243   8.341   1.970  0.1133 -0.6199  1.9310
16554SOL     OW55753   5.942   3.590   6.142  0.4669  0.2424 -0.4799
16554SOL    HW155754   5.884   3.667   6.137 -1.3219 -1.0099 -0.1661
16554SOL    HW255755   5.943   3.568   6.235  2.6388  1.0407 -0.2614
16555SOL     OW55756   2.112   6.279   8.362  0.2360  0.2201  0.5188
16555SOL    HW155757   2.049   6.214   8.330  0.6340  0.1023 -0.0442
16555SOL    HW255758   2.157   6.310   8.283  0.4352  0.7783  0.8405
16556SOL     OW55759   4.396   9.110   0.490  0.0079  0.2148  0.5613
16556SOL    HW155760   4.402   9.179   0.424 -1.1970  0.8762  1.1083
16556SOL    HW255761   4.377   9.030   0.440 -0.7509  0.6827  0.0871
16557SOL     OW55762   1.886   8.676   1.281 -0.0345  0.1435  0.5119
16557SOL    HW155763   1.833   8.650   1.357 -0.5673 -0.2212  0.0161
16557SOL    HW255764   1.872   8.607   1.217  1.4349 -0.2251  0.5509
16558SOL     OW55765   8.523   3.673   8.333 -0.2803  0.0547  0.1797
16558SOL    HW155766   8.440   3.719   8.346  0.2212  1.8874 -2.3903
16558SOL    HW255767   8.588   3.727   8.379 -0.2649 -0.5583  0.9055
16559SOL     OW55768   2.560   6.720   4.568  0.2301  0.6356 -0.0085
16559SOL    HW155769   2.511   6.748   4.491 -1.1625  0.9099  0.9422
16559SOL    HW255770   2.495   6.677   4.624  1.4891 -0.8441  0.4008
16560SOL     OW55771   4.148   4.594   8.936 -0.0195 -0.2224  0.0375
16560SOL    HW155772   4.071   4.541   8.917 -0.3303 -0.0123  0.7120
16560SOL    HW255773   4.116   4.668   8.987  0.2429  1.2220 -1.7970
16561SOL     OW55774   7.514   5.261   6.905  0.0284  0.6144 -0.3425
16561SOL    HW155775   7.522   5.166   6.914 -2.7459  0.2768 -0.6521
16561SOL    HW255776   7.420   5.277   6.902  0.3983  3.1120 -3.0383
16562SOL     OW55777   7.795   8.906   6.353  0.2192 -0.0285  0.1405
16562SOL    HW155778   7.724   8.960   6.389 -0.8761 -1.3421 -0.0043
16562SOL    HW255779   7.757   8.819   6.343  1.2143 -0.2841 -1.9440
16563SOL     OW55780   3.041   1.990   4.717 -0.0893  0.4934  0.5928
16563SOL    HW155781   3.010   1.981   4.807 -1.2044  0.0481  0.1816
16563SOL    HW255782   2.962   2.009   4.667  0.4872  0.4751 -0.3381
16564SOL     OW55783   6.930   6.111   1.278 -0.5700  0.2325 -0.4444
16564SOL    HW155784   6.989   6.052   1.231  1.0386  0.0950  1.6045
16564SOL    HW255785   6.860   6.055   1.311  0.6724 -0.5061  1.0411
16565SOL     OW55786   4.748   2.689   6.893 -0.4962  1.0277 -0.2451
16565SOL    HW155787   4.844   2.687   6.883 -0.6162  2.1978 -1.9275
16565SOL    HW255788   4.733   2.654   6.981  1.4607  0.5780 -0.0428
16566SOL     OW55789   1.712   6.113   0.470 -0.5921  0.3413 -0.5762
16566SOL    HW155790   1.701   6.039   0.530 -0.5141  0.2407 -0.6857
16566SOL    HW255791   1.622   6.136   0.444 -0.5593 -0.4690 -1.4560
16567SOL     OW55792   2.597   8.988   5.583  0.1684 -0.1160 -0.1281
16567SOL    HW155793   2.551   8.927   5.525  0.2966 -0.4385  0.1055
16567SOL    HW255794   2.560   9.074   5.562 -0.9637 -0.4380  0.4623
16568SOL     OW55795   7.924   1.022   7.214  0.3807 -0.1883  0.0602
16568SOL    HW155796   7.921   1.078   7.291  2.2912  0.6808 -0.4424
16568SOL    HW255797   7.878   0.942   7.240 -3.5033  1.9608  0.4050
16569SOL     OW55798   7.235  10.453   9.810  0.1319  0.5078 -0.0761
16569SOL    HW155799   7.269  10.541   9.795  0.7644  0.3414  0.3538
16569SOL    HW255800   7.141  10.460   9.792  0.4222  0.8985 -1.6250
16570SOL     OW55801   2.034   9.153   7.904  0.0318  0.4267 -0.2323
16570SOL    HW155802   2.090   9.124   7.832 -0.4152 -0.2274 -0.3320
16570SOL    HW255803   2.092   9.154   7.980 -0.2712 -2.4566  0.1378
16571SOL     OW55804   0.821   7.970  10.256 -0.1209  0.3155  0.2083
16571SOL    HW155805   0.729   7.969  10.228  0.2638  0.2780 -1.1072
16571SOL    HW255806   0.871   7.964  10.175  1.0722  1.5599  0.8167
16572SOL     OW55807   8.222   8.296   9.258  0.5835 -0.0566 -0.0322
16572SOL    HW155808   8.197   8.204   9.249  0.1705  0.1879 -1.9532
16572SOL    HW255809   8.316   8.294   9.273  0.5697 -0.8021 -0.0103
16573SOL     OW55810   2.958   0.818  10.519 -0.1907 -0.3552  0.4973
16573SOL    HW155811   2.979   0.738  10.569 -2.0159 -0.7090  0.7609
16573SOL    HW255812   3.043   0.857  10.500  0.6765 -1.5986  1.6336
16574SOL     OW55813   1.113   0.153   7.549 -0.1433 -0.1361  0.2283
16574SOL    HW155814   1.082   0.134   7.638  1.1683  0.9273  0.9464
16574SOL    HW255815   1.033   0.173   7.501 -0.7518  1.2535  1.7010
16575SOL     OW55816  10.258   6.640   1.025 -0.3916  0.5472  0.8928
16575SOL    HW155817  10.261   6.578   0.952  0.0115 -1.2772  2.3882
16575SOL    HW255818  10.165   6.654   1.041 -0.4844  0.6148  0.3346
16576SOL     OW55819   2.274  10.199   1.936  0.7758 -0.1974  0.5901
16576SOL    HW155820   2.217  10.172   2.009 -2.2448  0.8605 -1.2015
16576SOL    HW255821   2.273  10.124   1.877 -1.4337  0.8891 -0.8747
16577SOL     OW55822   0.844   5.317   8.810 -0.1045  0.3202  0.5510
16577SOL    HW155823   0.900   5.321   8.887  0.4157  1.5858  0.1367
16577SOL    HW255824   0.880   5.383   8.751  1.1331 -2.2875 -1.8961
16578SOL     OW55825  10.180  10.464   8.498 -0.1567 -0.9410 -0.5332
16578SOL    HW155826  10.243  10.512   8.552 -1.0938  0.0482 -0.2917
16578SOL    HW255827  10.220  10.378   8.485  1.0397 -0.4776 -0.0235
16579SOL     OW55828   4.891  10.197  10.179 -0.1014 -0.1039 -0.0947
16579SOL    HW155829   4.947  10.164  10.249 -0.7839 -1.2623 -0.0670
16579SOL    HW255830   4.945  10.262  10.134  1.2190 -1.0678  0.0299
16580SOL     OW55831   6.500   8.559   6.693 -0.1936  0.5006 -0.0723
16580SOL    HW155832   6.508   8.556   6.598  0.9709  0.2336  0.0137
16580SOL    HW255833   6.446   8.636   6.711  0.9761  1.5475 -0.8942
16581SOL     OW55834   8.951   7.010   4.027 -0.5542  0.6440  0.1123
16581SOL    HW155835   8.876   7.031   3.972 -1.1225  1.4745  1.1638
16581SOL    HW255836   8.944   7.071   4.101  1.9249  1.7162 -0.4498
16582SOL     OW55837   9.777   1.621  10.736  0.3043  0.7894  0.2023
16582SOL    HW155838   9.818   1.645  10.653  0.3362  0.8117  0.2249
16582SOL    HW255839   9.686   1.649  10.726  0.1343  0.1524 -0.1005
16583SOL     OW55840   3.631   1.492   3.730 -0.3700  0.0003 -0.1874
16583SOL    HW155841   3.675   1.486   3.815  1.3531  0.2938 -1.0176
16583SOL    HW255842   3.671   1.568   3.688 -1.0842 -0.2306 -1.3219
16584SOL     OW55843   1.719   5.929   8.648 -0.3714 -0.1519  0.4790
16584SOL    HW155844   1.813   5.924   8.660 -0.2980 -0.0745 -0.0732
16584SOL    HW255845   1.699   6.023   8.658 -0.2193  0.0123 -0.6380
16585SOL     OW55846   5.903   8.511   8.326  0.3664  0.5637 -0.4264
16585SOL    HW155847   5.888   8.541   8.237  0.6940  0.1230 -0.6322
16585SOL    HW255848   5.878   8.419   8.325 -2.7905  1.2777  0.7358
16586SOL     OW55849   1.929   6.460   4.029  0.3572  0.5142  0.1152
16586SOL    HW155850   1.910   6.481   4.120 -0.2509 -1.9806  0.6267
16586SOL    HW255851   1.845   6.472   3.983 -0.1416 -1.1659  0.5187
16587SOL     OW55852   0.236   5.998   7.336 -0.0336 -0.6929  0.1274
16587SOL    HW155853   0.306   6.012   7.400  1.0346 -1.2718 -0.8567
16587SOL    HW255854   0.275   6.028   7.253 -1.2357 -0.3348 -0.3248
16588SOL     OW55855   2.358   6.592   2.771  0.5646  0.5008  0.7335
16588SOL    HW155856   2.351   6.649   2.695  0.3390 -1.2824 -0.6551
16588SOL    HW255857   2.436   6.538   2.754 -1.5511 -2.5299 -0.1880
16589SOL     OW55858   9.134   4.472  10.594  0.2163 -0.2801  0.3435
16589SOL    HW155859   9.140   4.554  10.644  0.3799 -1.2081  1.9282
16589SOL    HW255860   9.210   4.474  10.535  0.4471  0.5251  0.6576
16590SOL     OW55861   5.019   3.603   0.147  0.4753 -0.9412  0.3506
16590SOL    HW155862   5.088   3.597   0.081 -0.6850 -0.2913 -0.9719
16590SOL    HW255863   4.940   3.573   0.102 -0.4596  0.0549  1.2657
16591SOL     OW55864   5.918   6.425   3.122  0.5574 -0.1474  0.1240
16591SOL    HW155865   5.992   6.428   3.182  0.5263 -0.3968  0.1749
16591SOL    HW255866   5.844   6.401   3.176  0.2377  1.0621  0.2614
16592SOL     OW55867  10.762   8.065   7.775  0.4562  0.3101 -0.6604
16592SOL    HW155868  10.765   7.978   7.814  1.1112  0.4095 -0.4711
16592SOL    HW255869  10.704   8.115   7.831  2.5942  0.8985  1.1570
16593SOL     OW55870  10.762  10.839   5.973 -0.5149  0.2836 -0.0859
16593SOL    HW155871  10.744  10.836   6.067  1.3698 -0.9763  0.2843
16593SOL    HW255872  10.762  10.932   5.952  0.2897  0.6729  1.4591
16594SOL     OW55873   0.286   8.880   3.244 -0.3042  0.1179 -0.6691
16594SOL    HW155874   0.241   8.836   3.316 -0.7158  3.1921  1.1543
16594SOL    HW255875   0.229   8.954   3.222  1.9183  1.8513 -1.0248
16595SOL     OW55876  10.876  10.121   2.085  0.0612  0.8001 -0.4771
16595SOL    HW155877  10.871  10.209   2.049 -5.4543  0.4419 -1.5367
16595SOL    HW255878  10.829  10.126   2.169  0.8708 -0.8876  0.1282
16596SOL     OW55879   5.552   1.617  10.493  0.1377 -0.5337 -0.4518
16596SOL    HW155880   5.507   1.536  10.470  3.0645 -2.3880 -0.1437
16596SOL    HW255881   5.505   1.650  10.570 -0.3295 -2.6780  0.2393
16597SOL     OW55882  10.002   2.226  10.695  0.0082  0.1528  0.3241
16597SOL    HW155883  10.009   2.201  10.787 -0.8138 -1.0997  0.0604
16597SOL    HW255884   9.943   2.301  10.695  1.0835  1.0327  0.9334
16598SOL     OW55885   9.780   1.814   5.274 -0.0030  0.4985  0.7705
16598SOL    HW155886   9.760   1.728   5.310 -0.3774  0.2578  0.0111
16598SOL    HW255887   9.866   1.836   5.310  0.7178 -0.7915 -0.0914
16599SOL     OW55888   8.093   7.395   9.702  0.3225 -0.0592 -0.1113
16599SOL    HW155889   8.124   7.481   9.674 -0.2940  0.1480 -0.1776
16599SOL    HW255890   8.028   7.370   9.636 -0.9331  0.3008  0.9414
16600SOL     OW55891   1.319   9.419   9.301 -0.0194  0.1224 -0.0264
16600SOL    HW155892   1.265   9.405   9.379 -1.0772  2.7046 -0.2275
16600SOL    HW255893   1.320   9.334   9.257 -1.0425 -0.8698  1.7618
16601SOL     OW55894   6.064   6.584   0.139 -0.0164 -0.0064 -0.1837
16601SOL    HW155895   6.030   6.563   0.052 -0.1764  2.0877 -0.6835
16601SOL    HW255896   6.147   6.629   0.123  1.4729 -2.1440  0.9176
16602SOL     OW55897   7.728   6.779   5.201 -0.1080 -0.0866 -0.3683
16602SOL    HW155898   7.650   6.777   5.257  0.8463 -0.6389  0.9866
16602SOL    HW255899   7.779   6.702   5.229  0.3668 -0.4153 -2.0581
16603SOL     OW55900   9.633   9.478   5.922 -0.2372 -0.1576  0.3240
16603SOL    HW155901   9.558   9.531   5.948 -0.8253  0.1535 -1.7838
16603SOL    HW255902   9.689   9.538   5.872  0.5566 -0.8161  0.3925
16604SOL     OW55903   2.010   3.658   4.599 -0.1238 -0.3567  0.1347
16604SOL    HW155904   1.923   3.665   4.560 -0.4791 -0.0954  0.9451
16604SOL    HW255905   2.070   3.687   4.531 -0.7020 -0.2020 -0.3140
16605SOL     OW55906   9.774   0.891   7.889 -0.0133  0.3520  0.2574
16605SOL    HW155907   9.699   0.857   7.840 -0.1676  1.3994 -0.2426
16605SOL    HW255908   9.786   0.827   7.960 -1.2343  0.0556  0.2256
16606SOL     OW55909   9.118   1.144   6.137  0.1180  0.3930 -0.0674
16606SOL    HW155910   9.132   1.217   6.197  1.2839  0.7138 -0.7016
16606SOL    HW255911   9.148   1.176   6.052 -1.2459 -0.1541 -0.7826
16607SOL     OW55912   1.895   5.055   9.384  0.3897  0.3826 -0.0000
16607SOL    HW155913   1.889   5.150   9.396  0.4833  0.1697  2.0907
16607SOL    HW255914   1.988   5.036   9.391  0.2779  0.0405  0.6787
16608SOL     OW55915   0.381   9.403   1.011  0.6811  0.5304 -0.5427
16608SOL    HW155916   0.340   9.455   0.942 -1.2348 -0.2354 -0.0593
16608SOL    HW255917   0.314   9.338   1.034  1.7725 -0.0602  1.1211
16609SOL     OW55918   1.417   2.639   0.722 -0.1130 -0.1512 -0.3302
16609SOL    HW155919   1.488   2.685   0.766  0.0390 -1.3070  0.6789
16609SOL    HW255920   1.349   2.630   0.789 -0.0309 -1.6071 -0.4026
16610SOL     OW55921   5.495   4.202   0.863  0.6627  0.4377  0.2432
16610SOL    HW155922   5.530   4.215   0.775  0.0373 -3.4320 -0.7792
16610SOL    HW255923   5.572   4.206   0.920  1.2105  2.0618 -0.5670
16611SOL     OW55924   9.800   9.870   4.270 -0.4739  0.0059  0.3748
16611SOL    HW155925   9.795   9.926   4.347 -0.3736  0.4072  0.0919
16611SOL    HW255926   9.890   9.837   4.270 -0.9453 -1.4011  1.3991
16612SOL     OW55927   0.645   3.100   8.275  0.2848  0.1233 -0.1889
16612SOL    HW155928   0.706   3.073   8.343 -1.8630 -0.3827  1.6401
16612SOL    HW255929   0.605   3.019   8.244 -0.8780  0.5830  0.0552
16613SOL     OW55930   8.525   6.293   8.847 -0.0081 -1.0794  0.2440
16613SOL    HW155931   8.609   6.337   8.859 -1.7695  2.8496 -0.2132
16613SOL    HW255932   8.475   6.315   8.926 -1.3254 -1.5295 -0.4301
16614SOL     OW55933  10.659   5.298   0.267 -0.3703  0.2537 -0.2162
16614SOL    HW155934  10.723   5.347   0.319  0.8316 -1.2084 -0.2550
16614SOL    HW255935  10.681   5.207   0.283 -1.4724 -0.2536 -1.4836
16615SOL     OW55936  10.026   8.792   3.415 -0.3207  0.0799 -0.2710
16615SOL    HW155937  10.016   8.829   3.502 -1.0922  0.7516 -0.6282
16615SOL    HW255938  10.094   8.726   3.424 -0.3104  0.2275  0.8103
16616SOL     OW55939   6.578   3.347   8.355 -0.2361  0.6341  0.2308
16616SOL    HW155940   6.579   3.392   8.271 -1.4489 -2.8671 -1.8702
16616SOL    HW255941   6.498   3.377   8.398  0.2877  2.3002  0.0979
16617SOL     OW55942   6.466   1.383   1.309  0.1263 -0.2670 -0.1398
16617SOL    HW155943   6.530   1.454   1.315  0.9817 -1.0168 -0.1671
16617SOL    HW255944   6.465   1.344   1.396 -1.6943  0.8756  0.4226
16618SOL     OW55945  10.650   7.810   9.749 -0.1397  0.0792 -0.0015
16618SOL    HW155946  10.744   7.808   9.767  0.1423 -2.1877 -1.3902
16618SOL    HW255947  10.639   7.876   9.681 -0.0023  2.3292  2.0417
16619SOL     OW55948   6.653   1.516   7.345 -0.5205 -1.0182 -0.6690
16619SOL    HW155949   6.679   1.428   7.315  0.6963 -0.9128  0.0119
16619SOL    HW255950   6.729   1.547   7.395 -1.1866  0.1759 -0.3802
16620SOL     OW55951   7.656   8.939   4.875 -0.2103 -0.0762 -0.6434
16620SOL    HW155952   7.744   8.974   4.892 -0.4281  0.0921  0.1600
16620SOL    HW255953   7.630   8.980   4.792  0.2173  0.3600 -0.5682
16621SOL     OW55954   7.313   4.833   4.746 -0.0515 -0.7295 -0.7679
16621SOL    HW155955   7.274   4.798   4.665 -2.0489 -0.5750  0.0768
16621SOL    HW255956   7.241   4.835   4.809  1.0064  0.8958  0.4903
16622SOL     OW55957   0.887   1.988   4.787  0.2192 -0.5720  0.3432
16622SOL    HW155958   0.867   1.974   4.879 -0.9120  1.5888  0.4737
16622SOL    HW255959   0.844   1.916   4.741 -0.3380 -0.9097  1.3834
16623SOL     OW55960   3.937   6.184   6.240 -0.2580 -0.2440  0.2053
16623SOL    HW155961   3.850   6.160   6.207 -2.0969  0.9513  3.7064
16623SOL    HW255962   3.954   6.121   6.310  1.0031  0.5043  0.5921
16624SOL     OW55963   1.812   7.687   4.041  0.0207 -0.0188 -0.0807
16624SOL    HW155964   1.794   7.619   3.977 -2.4346 -0.4070  0.9174
16624SOL    HW255965   1.769   7.657   4.121  1.6312  1.2048  1.3233
16625SOL     OW55966   2.293   6.971   3.182 -0.2291  0.0336 -0.0327
16625SOL    HW155967   2.365   6.949   3.123  0.9248 -1.8456  1.9232
16625SOL    HW255968   2.301   7.065   3.196 -0.5387  0.5477 -2.7478
16626SOL     OW55969   7.595   1.049   1.473  0.7185 -0.4467 -0.8845
16626SOL    HW155970   7.506   1.014   1.482 -0.4534  2.4341 -0.1364
16626SOL    HW255971   7.595   1.092   1.387  1.2446 -0.0192 -0.6738
16627SOL     OW55972   7.501  10.592   3.504 -0.3636  0.2101 -0.4017
16627SOL    HW155973   7.530  10.536   3.432 -0.9373  0.0898 -0.5437
16627SOL    HW255974   7.582  10.614   3.551 -0.0686 -0.2869 -0.6652
16628SOL     OW55975   4.174   3.815   4.349 -0.9161  0.0269  0.6240
16628SOL    HW155976   4.083   3.843   4.355 -2.2677 -3.5811 -0.0048
16628SOL    HW255977   4.185   3.753   4.422  0.5484 -0.7701 -0.2239
16629SOL     OW55978   6.354   3.444   1.709 -0.1739 -0.1149  0.0105
16629SOL    HW155979   6.349   3.496   1.788 -0.0438  0.7607 -0.5471
16629SOL    HW255980   6.428   3.385   1.723 -0.9792 -0.9247  1.0843
16630SOL     OW55981   9.033   2.699  10.338  0.0286 -0.2752 -0.0446
16630SOL    HW155982   9.039   2.756  10.262  0.3183 -0.2930 -0.0358
16630SOL    HW255983   9.026   2.759  10.412  0.0855 -0.2543 -0.0562
16631SOL     OW55984   7.038   6.749   5.373  0.2879 -0.2608 -1.0804
16631SOL    HW155985   6.997   6.697   5.441 -0.4459 -0.3768 -1.5941
16631SOL    HW255986   7.110   6.795   5.417 -1.0612  0.8067  0.1180
16632SOL     OW55987  10.807   6.058   6.778  0.5177  0.6026  0.3868
16632SOL    HW155988  10.769   6.126   6.833  2.2329  0.1123  2.3068
16632SOL    HW255989  10.753   5.981   6.794 -0.3010  1.0169 -0.3394
16633SOL     OW55990   9.308   5.772   4.606 -0.7254  0.1781  0.2768
16633SOL    HW155991   9.212   5.765   4.604 -0.6891 -0.0516 -1.4679
16633SOL    HW255992   9.326   5.826   4.684 -2.2264 -0.2014  0.9232
16634SOL     OW55993   5.027   0.960  10.930 -0.2816 -0.1584  1.4841
16634SOL    HW155994   5.047   0.902  10.857  3.1023 -1.3488  3.1417
16634SOL    HW255995   4.998   1.042  10.889 -1.8438 -1.8203 -0.9885
16635SOL     OW55996  10.381   3.380   2.950  0.3497  0.0646  0.0018
16635SOL    HW155997  10.368   3.437   2.875  2.5721 -0.7227 -1.0585
16635SOL    HW255998  10.330   3.301   2.931  0.7055 -0.0293 -0.5560
16636SOL     OW55999   0.037   5.226   9.655  1.0865 -0.0595 -0.2851
16636SOL    HW156000  -0.010   5.275   9.723 -0.1116 -0.2083 -0.9819
16636SOL    HW256001   0.109   5.283   9.629  0.6743  0.6268  0.0638
16637SOL     OW56002   3.503   4.003   9.890  0.2803  0.0345 -0.5208
16637SOL    HW156003   3.488   3.947   9.966  1.3689 -2.2620 -1.8640
16637SOL    HW256004   3.421   4.001   9.841  0.3732 -0.5897 -0.6595
16638SOL     OW56005   0.210   1.133   4.302  0.2550 -0.3373 -0.5190
16638SOL    HW156006   0.172   1.111   4.387  0.1941  0.9218 -0.2062
16638SOL    HW256007   0.162   1.210   4.273  1.4236  0.2856 -0.8884
16639SOL     OW56008   9.536   6.267   7.518  0.3250 -0.3993 -0.2779
16639SOL    HW156009   9.576   6.279   7.432 -0.4792  1.2158 -0.4665
16639SOL    HW256010   9.444   6.250   7.500 -0.2584  1.8386  0.2464
16640SOL     OW56011   2.987   2.350   4.769 -0.3089  0.0377 -0.1191
16640SOL    HW156012   2.933   2.420   4.734 -0.7830 -0.0231  0.4696
16640SOL    HW256013   2.975   2.356   4.864 -1.7909 -1.9764 -0.1336
16641SOL     OW56014   0.591   8.711   1.965  0.1625  0.3517  0.2686
16641SOL    HW156015   0.546   8.662   1.896  0.3846  1.5993 -0.7992
16641SOL    HW256016   0.612   8.646   2.032 -1.9753 -0.5182  0.1674
16642SOL     OW56017  10.364   8.737   2.685  0.0897 -0.1144  0.0792
16642SOL    HW156018  10.445   8.728   2.736 -0.3848  1.9958  1.3162
16642SOL    HW256019  10.346   8.648   2.654  2.8891 -0.6505 -0.3040
16643SOL     OW56020   3.211   0.925  10.525 -0.0618  0.2657 -0.8239
16643SOL    HW156021   3.279   0.875  10.480  0.0339 -1.7130  1.3366
16643SOL    HW256022   3.243   0.934  10.615 -1.2503  2.0866 -0.5213
16644SOL     OW56023   5.670   9.180   3.435  0.1672 -0.1851 -0.2308
16644SOL    HW156024   5.756   9.185   3.394  1.0270  2.4317  1.6817
16644SOL    HW256025   5.644   9.271   3.450 -2.4680 -0.9209  0.2507
16645SOL     OW56026   5.567   3.560  10.156 -0.1616  0.1943  0.4553
16645SOL    HW156027   5.522   3.524  10.080 -2.2875  1.2539  1.1332
16645SOL    HW256028   5.646   3.600  10.120 -0.7000 -0.0600 -1.0833
16646SOL     OW56029   6.765   7.708   6.127  0.2428  0.2370  0.3821
16646SOL    HW156030   6.815   7.788   6.143  0.5748 -0.0075  0.5790
16646SOL    HW256031   6.831   7.642   6.109 -0.0812  0.2694 -1.0088
16647SOL     OW56032   7.306   6.666  10.357 -0.1250  0.0406  0.4130
16647SOL    HW156033   7.308   6.731  10.427  3.2390 -0.1753  0.6567
16647SOL    HW256034   7.312   6.582  10.401  1.4446 -0.1232 -0.0793
16648SOL     OW56035   6.865   0.417  10.486 -0.8184 -0.0924 -0.0866
16648SOL    HW156036   6.914   0.420  10.568  0.3570  1.3435 -0.8155
16648SOL    HW256037   6.914   0.356  10.431 -1.4229 -0.7926  0.1202
16649SOL     OW56038   5.483   6.984   3.071 -0.1148  0.7553 -0.0354
16649SOL    HW156039   5.451   7.058   3.123  1.4040  0.6732  1.0875
16649SOL    HW256040   5.426   6.982   2.995 -2.2492  1.0619  1.4731
16650SOL     OW56041   9.887   6.836   9.447 -0.5181 -0.1970 -0.3623
16650SOL    HW156042   9.920   6.889   9.375 -1.2752  0.2376 -0.3966
16650SOL    HW256043   9.795   6.861   9.455  0.0723  1.5114  2.2745
16651SOL     OW56044   1.110   8.250   7.544 -0.0034 -0.2370 -0.1167
16651SOL    HW156045   1.034   8.294   7.506 -1.1294 -2.1098 -0.1178
16651SOL    HW256046   1.084   8.228   7.633  1.5049  1.3362  0.8001
16652SOL     OW56047   2.118   8.542   1.646  0.7255 -0.0159  0.1062
16652SOL    HW156048   2.093   8.452   1.665 -0.3166  0.5289  1.4659
16652SOL    HW256049   2.184   8.564   1.712  1.2603  0.1229 -0.4542
16653SOL     OW56050   7.274   8.927   5.691 -0.2180  0.4347  0.1635
16653SOL    HW156051   7.210   8.858   5.709 -0.2627  0.6521  0.8948
16653SOL    HW256052   7.302   8.955   5.778  1.3422 -0.0863 -0.1474
16654SOL     OW56053   5.033   0.245   2.524  0.5879  0.0324 -0.0896
16654SOL    HW156054   5.015   0.161   2.482 -0.9698 -0.5420  1.5519
16654SOL    HW256055   5.006   0.311   2.460 -1.0296 -0.7852 -0.2969
16655SOL     OW56056   3.862   4.856   1.754 -0.1054 -0.4524  0.3288
16655SOL    HW156057   3.923   4.815   1.692  2.3110  0.3939  1.9976
16655SOL    HW256058   3.776   4.837   1.718  1.1228 -0.4142 -3.0399
16656SOL     OW56059   0.261   0.781   2.117  0.9934  0.2804  0.6738
16656SOL    HW156060   0.300   0.780   2.029  1.1477 -0.3955  0.7397
16656SOL    HW256061   0.247   0.873   2.136  1.5332  0.4710  0.1875
16657SOL     OW56062   5.400   8.112   3.882 -0.2113  0.6453  0.0811
16657SOL    HW156063   5.326   8.111   3.821 -1.1422  1.3467  1.1563
16657SOL    HW256064   5.477   8.111   3.825 -1.0172 -0.4954 -1.0632
16658SOL     OW56065   9.086   7.801   1.094  0.2923  0.7325 -0.5605
16658SOL    HW156066   9.173   7.760   1.092  0.1291 -0.0813  2.7990
16658SOL    HW256067   9.033   7.746   1.037  0.8003 -2.1301  1.4985
16659SOL     OW56068   7.974   0.677   4.418 -0.2400  0.2234 -0.1011
16659SOL    HW156069   8.046   0.695   4.357  0.0131  0.2190  0.1981
16659SOL    HW256070   7.997   0.595   4.459  0.4680  1.0915  1.2975
16660SOL     OW56071   8.906   1.288   0.430 -0.7563  0.0393  0.1130
16660SOL    HW156072   8.910   1.213   0.371 -0.5397  0.3222 -0.2346
16660SOL    HW256073   8.989   1.286   0.478 -0.1611  0.8127 -0.8378
16661SOL     OW56074   2.186   5.083   5.839 -0.1316  0.2023 -0.0890
16661SOL    HW156075   2.216   5.079   5.930  2.1448  0.7182 -0.7417
16661SOL    HW256076   2.193   4.993   5.807  3.9166  0.6520 -1.0515
16662SOL     OW56077   1.013   9.712   8.929  0.1990  0.4229  0.1929
16662SOL    HW156078   1.090   9.724   8.874 -0.0309  0.0068 -0.2226
16662SOL    HW256079   0.966   9.638   8.890 -1.7636  2.2367 -1.1555
16663SOL     OW56080   6.145   4.511   7.595  0.5428  0.5793 -0.0224
16663SOL    HW156081   6.066   4.550   7.557 -0.3481 -0.4403  0.7225
16663SOL    HW256082   6.146   4.421   7.561  0.4994  0.0885  1.2388
16664SOL     OW56083   0.356   2.660   5.709  0.4276 -0.3540  0.3319
16664SOL    HW156084   0.406   2.707   5.776 -1.7778  0.9039  1.1961
16664SOL    HW256085   0.353   2.570   5.741 -1.7589  0.4570  2.8160
16665SOL     OW56086   4.911   1.974   2.213 -0.3094 -0.1026  0.3455
16665SOL    HW156087   4.823   1.937   2.207 -1.7995  3.0048  0.9200
16665SOL    HW256088   4.934   1.966   2.305  0.1163 -1.0568  0.1678
16666SOL     OW56089   2.668   6.448   7.077  0.0994  0.1640  0.3886
16666SOL    HW156090   2.613   6.386   7.028  0.4215 -0.1385  0.4018
16666SOL    HW256091   2.708   6.395   7.146  2.9779 -0.4291 -1.5468
16667SOL     OW56092   0.550   3.881   2.381  0.0273 -0.2458 -0.4274
16667SOL    HW156093   0.503   3.898   2.462 -0.8187  2.3578 -1.3691
16667SOL    HW256094   0.584   3.966   2.354  0.9650 -1.1736 -2.3978
16668SOL     OW56095  10.708   7.663   2.845  0.3192  0.3516  0.3705
16668SOL    HW156096  10.655   7.656   2.766  0.2080 -1.4456  0.5676
16668SOL    HW256097  10.797   7.678   2.813  0.0613  1.0576 -0.0339
16669SOL     OW56098   6.965   2.381  10.302  0.4388  0.0360 -0.2471
16669SOL    HW156099   6.984   2.402  10.210  0.4484 -0.3772 -0.3402
16669SOL    HW256100   6.989   2.289  10.311  0.3902  0.0619  0.1592
16670SOL     OW56101   2.168   6.289   3.808 -0.4663  0.5879  0.5398
16670SOL    HW156102   2.080   6.252   3.805  0.7537 -2.4715 -0.8496
16670SOL    HW256103   2.187   6.296   3.902 -1.7296  0.1918  0.8473
16671SOL     OW56104   2.302   9.303   9.867 -0.1316  0.9168 -0.1828
16671SOL    HW156105   2.258   9.221   9.890  2.5777 -0.6226 -0.0452
16671SOL    HW256106   2.256   9.370   9.918 -1.7478 -0.6618  0.5443
16672SOL     OW56107   7.824   7.050  10.012  0.1828  0.1731 -0.1112
16672SOL    HW156108   7.827   7.022  10.104  1.0496 -0.0256 -0.1945
16672SOL    HW256109   7.798   6.972   9.964  0.3118  0.1207 -0.0965
16673SOL     OW56110  10.300   1.191   7.807 -0.1419 -0.3896  0.0271
16673SOL    HW156111  10.233   1.257   7.789 -0.4672 -0.7621 -0.1364
16673SOL    HW256112  10.318   1.200   7.901  0.3303  0.4078 -0.1221
16674SOL     OW56113   4.593   6.241   9.805 -0.1496 -0.5697  0.0427
16674SOL    HW156114   4.568   6.155   9.839 -0.8661 -0.7857 -0.9951
16674SOL    HW256115   4.559   6.303   9.869  0.7679 -1.0587  1.0397
16675SOL     OW56116   4.687   2.003  10.307  0.2674  0.4315 -0.1850
16675SOL    HW156117   4.599   2.035  10.287 -0.2448 -0.5317  0.4165
16675SOL    HW256118   4.743   2.043  10.241 -0.8929 -0.2610 -1.6609
16676SOL     OW56119   4.501   1.581   6.739  0.2524 -0.2327  0.5461
16676SOL    HW156120   4.406   1.571   6.744  0.1515 -0.6249 -1.2544
16676SOL    HW256121   4.514   1.661   6.688  0.8432 -0.8689 -0.3342
16677SOL     OW56122  10.822   6.389   0.031 -0.1066  0.3491 -0.4675
16677SOL    HW156123  10.777   6.359  -0.048 -1.2633  1.0501 -0.0998
16677SOL    HW256124  10.872   6.313   0.060 -1.2273 -0.5434 -0.7839
16678SOL     OW56125   8.119   1.954   1.571 -0.0923  0.1563 -0.2920
16678SOL    HW156126   8.181   1.989   1.635  0.0498  0.4550 -0.5910
16678SOL    HW256127   8.034   1.990   1.599 -0.6315 -2.3448  1.7038
16679SOL     OW56128   5.607   4.281   6.499 -0.7252  0.0525  0.3397
16679SOL    HW156129   5.701   4.286   6.513 -0.4301 -0.2437 -1.4177
16679SOL    HW256130   5.586   4.188   6.509 -0.4913 -0.1809 -1.1787
16680SOL     OW56131   6.956   4.410   9.852 -0.1667  0.2199  0.7697
16680SOL    HW156132   6.991   4.345   9.791 -3.1039 -2.0306  1.2271
16680SOL    HW256133   6.878   4.444   9.808 -0.0086  1.6641  1.5641
16681SOL     OW56134   5.720   0.011  10.457 -0.0651 -0.2683  0.4375
16681SOL    HW156135   5.713  -0.023  10.546  0.0199 -0.7630  0.2625
16681SOL    HW256136   5.792   0.073  10.461  0.0517 -0.4161  0.6804
16682SOL     OW56137   4.681  10.730   0.744  0.1630  0.2157  0.3762
16682SOL    HW156138   4.612  10.744   0.809 -0.2118 -0.0921  0.0525
16682SOL    HW256139   4.755  10.781   0.776  0.0154 -0.0112  1.0983
16683SOL     OW56140   5.241   5.616   9.655 -0.3379 -0.4237 -0.6345
16683SOL    HW156141   5.312   5.553   9.649  0.4034 -0.2472  3.3161
16683SOL    HW256142   5.171   5.581   9.600  1.5262 -2.4641 -1.8140
16684SOL     OW56143   8.844   1.358   5.387  0.9449 -0.0589  0.1335
16684SOL    HW156144   8.896   1.431   5.352  0.7335 -0.6194 -1.4596
16684SOL    HW256145   8.882   1.281   5.344 -1.4069 -0.4536 -1.4025
16685SOL     OW56146  10.611  10.803   1.490  0.2612  0.2525  0.9746
16685SOL    HW156147  10.606  10.876   1.429 -2.7468 -0.4230  0.2561
16685SOL    HW256148  10.675  10.831   1.556  0.5022  2.7446 -0.2054
16686SOL     OW56149   5.265  10.135   1.679  0.1626 -0.5500 -0.4224
16686SOL    HW156150   5.339  10.121   1.620  1.1997 -0.3508  0.7843
16686SOL    HW256151   5.298  10.111   1.765 -0.7989  0.7115  0.3374
16687SOL     OW56152   5.713   2.620   5.465 -0.4592  0.3664  0.2656
16687SOL    HW156153   5.643   2.563   5.497 -0.8968  1.6265  1.7075
16687SOL    HW256154   5.681   2.653   5.381 -0.4703 -0.9918 -0.2818
16688SOL     OW56155   6.654   1.704   0.743 -0.0847  0.3099 -0.1255
16688SOL    HW156156   6.562   1.732   0.747 -0.5196 -0.8150 -1.3782
16688SOL    HW256157   6.697   1.770   0.689  0.4993  2.3214  2.5979
16689SOL     OW56158   6.956   7.064   9.749  0.3596  0.2765  0.5678
16689SOL    HW156159   6.988   7.141   9.702 -0.8182  0.9537  0.8298
16689SOL    HW256160   6.916   7.099   9.828 -2.1207 -0.3661 -0.3161
16690SOL     OW56161  10.849   5.416   9.000  0.8278  0.3164  0.6991
16690SOL    HW156162  10.800   5.334   9.002  2.3847 -0.6516  0.6113
16690SOL    HW256163  10.848   5.442   8.908  2.6704 -1.1140  0.2214
16691SOL     OW56164   4.475   0.309   7.406  0.3187  0.0363 -0.1993
16691SOL    HW156165   4.562   0.340   7.383  0.9833 -0.9777  0.8385
16691SOL    HW256166   4.487   0.216   7.426 -0.7200  0.1809  1.2747
16692SOL     OW56167  10.243   2.131   2.962  0.3246  0.1945  0.3745
16692SOL    HW156168  10.287   2.171   2.887  0.2973  1.4914  1.0350
16692SOL    HW256169  10.282   2.172   3.039  1.6116 -2.3644  1.2090
16693SOL     OW56170  10.170   3.317  10.399 -0.2057  0.5207 -0.3209
16693SOL    HW156171  10.212   3.402  10.389 -0.9305  0.7029 -2.2103
16693SOL    HW256172  10.090   3.322  10.346 -0.3408 -1.2597 -0.3698
16694SOL     OW56173   8.316   4.637   8.448 -0.5596 -0.0388  0.4605
16694SOL    HW156174   8.310   4.619   8.542  2.0021  0.7464  0.8451
16694SOL    HW256175   8.321   4.551   8.407  0.2678 -0.3711  1.2406
16695SOL     OW56176   7.852   6.627   6.628  0.4416  0.0698  0.4789
16695SOL    HW156177   7.927   6.615   6.570  1.1916 -0.4513  1.5212
16695SOL    HW256178   7.829   6.720   6.619 -0.0749 -0.1950 -1.3432
16696SOL     OW56179   8.391   4.384   8.783 -0.0826  0.0073  0.1118
16696SOL    HW156180   8.336   4.461   8.768 -0.7178  0.0322  2.1653
16696SOL    HW256181   8.338   4.310   8.754 -0.7321  0.1383  0.9118
16697SOL     OW56182   1.395  10.437   0.094 -0.3268  0.3287 -0.0225
16697SOL    HW156183   1.416  10.495   0.167  0.8013 -0.1296  0.0414
16697SOL    HW256184   1.318  10.476   0.053 -0.5514  0.9781  0.9821
16698SOL     OW56185   8.887   7.908   0.401  0.0756 -0.4501  0.1420
16698SOL    HW156186   8.830   7.952   0.337  0.6571  0.7069  0.3792
16698SOL    HW256187   8.840   7.829   0.426 -0.7775 -0.2254 -0.7134
16699SOL     OW56188   3.048   8.590   2.164  0.3292  0.6184 -0.1011
16699SOL    HW156189   2.966   8.635   2.187  0.5258  1.7418 -1.4190
16699SOL    HW256190   3.117   8.645   2.202  0.4980 -0.2391  0.8662
16700SOL     OW56191   1.957   2.059   6.683  0.3149 -0.0284 -0.4413
16700SOL    HW156192   1.999   2.018   6.759  2.2336  1.3006 -0.7240
16700SOL    HW256193   1.884   2.109   6.719  0.7513 -0.0069  0.4257
16701SOL     OW56194   3.457   6.732   9.934  0.3887  0.7965 -0.5649
16701SOL    HW156195   3.506   6.809   9.962 -1.4193  1.1815  2.0068
16701SOL    HW256196   3.404   6.762   9.860  0.3669  1.8056 -0.1570
16702SOL     OW56197  10.235   6.167   6.850  0.1886 -0.3387  0.8849
16702SOL    HW156198  10.151   6.181   6.892  0.9980 -0.3081  2.5747
16702SOL    HW256199  10.219   6.096   6.788 -1.3299  0.4558  0.3232
16703SOL     OW56200   1.298   8.503   1.617 -0.4948 -0.1261 -0.4265
16703SOL    HW156201   1.355   8.463   1.683 -1.4771 -0.7399  0.0663
16703SOL    HW256202   1.255   8.429   1.574 -0.9128  0.3309 -0.8062
16704SOL     OW56203   0.215   5.984   2.859  0.7698  0.2071  0.2604
16704SOL    HW156204   0.263   6.063   2.887  1.0773  0.8742 -1.9839
16704SOL    HW256205   0.242   5.971   2.768  0.4141 -2.2931  0.4624
16705SOL     OW56206   3.465   3.780   3.097  0.2470 -0.4485  0.4069
16705SOL    HW156207   3.386   3.728   3.107  0.3280 -0.5610  0.4528
16705SOL    HW256208   3.518   3.733   3.033 -0.4084  0.4254 -0.8320
16706SOL     OW56209   5.886   5.091   5.489 -0.2257 -0.4998  0.0565
16706SOL    HW156210   5.857   5.032   5.559  0.4701  0.2244  0.9721
16706SOL    HW256211   5.829   5.069   5.415 -2.3154  0.0685  1.4152
16707SOL     OW56212   8.492   5.791   8.091  0.1989  0.1837  0.2116
16707SOL    HW156213   8.429   5.860   8.071  0.0144  0.2892  1.1264
16707SOL    HW256214   8.561   5.835   8.140  0.6416 -0.0692 -0.1810
16708SOL     OW56215   6.633  10.161   2.022 -0.2255 -1.0108  0.3739
16708SOL    HW156216   6.559  10.145   2.080 -1.0655 -1.1090 -0.6786
16708SOL    HW256217   6.692  10.218   2.072 -1.6135  0.1173  0.7908
16709SOL     OW56218   9.180   8.712   8.129  0.2000 -0.2366  0.1838
16709SOL    HW156219   9.207   8.732   8.039  0.0382  0.7274  0.3389
16709SOL    HW256220   9.194   8.794   8.176  0.8165 -0.8956  1.1703
16710SOL     OW56221   0.228   8.956   7.412  0.0432 -0.2524  0.6091
16710SOL    HW156222   0.255   8.986   7.499  0.2449  1.2299  0.0721
16710SOL    HW256223   0.132   8.953   7.416 -0.0192  1.0291  0.5366
16711SOL     OW56224   1.669   0.647   8.617  0.1420  0.0142 -0.0784
16711SOL    HW156225   1.705   0.726   8.576  0.6000  0.3982  1.0127
16711SOL    HW256226   1.739   0.583   8.612  0.6597  0.4514  1.1660
16712SOL     OW56227   7.023   5.947   1.067  0.3006 -0.1877  0.0177
16712SOL    HW156228   7.027   5.860   1.106  1.8358 -0.9168 -1.6334
16712SOL    HW256229   6.935   5.953   1.030 -0.4567 -0.2758  1.7317
16713SOL     OW56230   2.040   8.522   6.567  0.3976 -0.0634  0.4119
16713SOL    HW156231   1.997   8.443   6.534  3.3836 -0.3480 -3.6119
16713SOL    HW256232   2.105   8.490   6.629  0.5456 -0.6182 -0.0221
16714SOL     OW56233   1.257   5.180   8.957  0.0005 -0.2345 -0.1988
16714SOL    HW156234   1.272   5.137   9.041 -0.5784  0.5346  0.2981
16714SOL    HW256235   1.344   5.182   8.916  0.9744  2.3577  1.7954
16715SOL     OW56236  10.657   9.065   8.446  0.0150 -0.0108  0.0157
16715SOL    HW156237  10.635   8.988   8.394  0.3335  0.7866 -1.3576
16715SOL    HW256238  10.574   9.091   8.487 -1.2658  1.5750 -3.2115
16716SOL     OW56239   7.672   2.027   1.089 -0.7355  0.2916  0.3102
16716SOL    HW156240   7.627   1.981   1.018 -1.2461  0.4826  0.5005
16716SOL    HW256241   7.608   2.028   1.160  0.0721 -0.6528  1.0759
16717SOL     OW56242   2.396  10.376   0.420 -0.1726 -0.9348 -0.2419
16717SOL    HW156243   2.355  10.460   0.436 -0.0330 -0.5871 -1.5664
16717SOL    HW256244   2.344  10.336   0.350 -0.0822 -1.8336  0.1876
16718SOL     OW56245   3.280   9.535   4.055  0.1037  0.0972 -0.0324
16718SOL    HW156246   3.346   9.466   4.047  0.8147  0.9114 -1.6005
16718SOL    HW256247   3.233   9.533   3.972 -0.4554  0.9190  0.2512
16719SOL     OW56248   9.898   6.982  10.085  0.1671  0.5574  0.1659
16719SOL    HW156249   9.836   6.909  10.079  0.6665  0.0533  0.9191
16719SOL    HW256250   9.851   7.056  10.047 -1.0064  0.2463  0.9306
16720SOL     OW56251   5.876   0.748   8.210  0.2430  0.2484 -0.0806
16720SOL    HW156252   5.822   0.787   8.141 -0.0426  0.6930  0.3907
16720SOL    HW256253   5.908   0.822   8.261 -0.5303 -0.1234  0.9878
16721SOL     OW56254   3.138   0.188   5.084  0.4381 -0.1887 -0.0390
16721SOL    HW156255   3.185   0.257   5.037 -0.8391  0.5527 -0.2912
16721SOL    HW256256   3.093   0.234   5.155 -1.6222 -0.4733 -1.0940
16722SOL     OW56257   3.740   8.506   1.142  0.0597  0.3111  0.0441
16722SOL    HW156258   3.762   8.455   1.064  0.0807 -0.9986  0.8828
16722SOL    HW256259   3.663   8.557   1.115  0.6044  0.5747 -1.1005
16723SOL     OW56260   1.752   8.621   7.491 -0.7007  0.2543 -0.6254
16723SOL    HW156261   1.753   8.583   7.579  1.0512  0.0383 -0.7127
16723SOL    HW256262   1.786   8.552   7.434 -1.1226  0.6480 -1.3762
16724SOL     OW56263   9.459  10.177   3.164 -0.3177  0.0505  0.1033
16724SOL    HW156264   9.463  10.151   3.072 -2.0325 -1.9273  0.5005
16724SOL    HW256265   9.479  10.097   3.213 -1.8984  0.3846  1.4195
16725SOL     OW56266   0.738   7.262   7.116  0.5274 -0.0283 -0.1521
16725SOL    HW156267   0.790   7.286   7.040 -0.3793 -0.0433 -0.7902
16725SOL    HW256268   0.679   7.193   7.085  0.7288 -0.6482  0.7825
16726SOL     OW56269   3.217   3.266   4.763  0.7483  0.2143  0.7290
16726SOL    HW156270   3.279   3.339   4.758  0.1792  0.7799  1.7585
16726SOL    HW256271   3.159   3.279   4.688 -1.6721  3.0114  2.8627
16727SOL     OW56272   8.224   6.257   8.735 -0.3531 -0.3711 -0.0026
16727SOL    HW156273   8.302   6.249   8.789 -0.4995 -1.0600  0.1138
16727SOL    HW256274   8.255   6.295   8.652 -0.0722  0.3306  0.4158
16728SOL     OW56275   8.143   7.963   0.354  0.3237 -0.0837 -0.4023
16728SOL    HW156276   8.221   8.012   0.380 -1.1757  1.5723  1.2118
16728SOL    HW256277   8.083   8.029   0.320 -0.8719 -1.1525 -0.4278
16729SOL     OW56278   5.229   6.356  10.208 -0.3655 -0.3601 -0.1511
16729SOL    HW156279   5.153   6.411  10.227 -0.4574 -0.6661  0.3873
16729SOL    HW256280   5.197   6.291  10.145 -0.2566  0.1945 -0.7883
16730SOL     OW56281   4.388   2.826   7.522  0.3522  0.4716  0.3377
16730SOL    HW156282   4.464   2.776   7.551 -1.6488 -1.6330  2.3919
16730SOL    HW256283   4.393   2.908   7.570  2.5975  1.5297 -1.5155
16731SOL     OW56284   8.732   4.901   3.030  0.3424 -0.0233 -0.0546
16731SOL    HW156285   8.699   4.972   3.084 -0.5302  0.0483 -0.6667
16731SOL    HW256286   8.679   4.825   3.053  0.3623 -0.1414 -0.3769
16732SOL     OW56287   8.698  10.300   8.465  0.1658  0.0375 -0.5446
16732SOL    HW156288   8.790  10.300   8.491 -0.2560 -0.7452  1.1214
16732SOL    HW256289   8.681  10.391   8.439  1.5753  0.0231 -1.6115
16733SOL     OW56290   2.313  10.215   9.268  0.6102  0.5740 -0.3046
16733SOL    HW156291   2.373  10.290   9.261  0.4023  0.9355  1.3668
16733SOL    HW256292   2.321  10.170   9.184  0.2385  2.8456 -1.6490
16734SOL     OW56293   6.603   5.261   2.030  0.9798 -0.5172 -0.0802
16734SOL    HW156294   6.560   5.183   2.065 -0.7437 -0.4080 -1.7815
16734SOL    HW256295   6.614   5.242   1.937 -0.5282  1.6602 -0.7770
16735SOL     OW56296   1.049   6.596   7.676 -0.4117 -0.3160 -0.0223
16735SOL    HW156297   1.107   6.522   7.658  0.2249  0.2411 -0.3276
16735SOL    HW256298   1.105   6.660   7.721 -1.0647 -0.1996  0.6363
16736SOL     OW56299   0.591   3.128   5.814 -0.1800  0.5262 -0.3612
16736SOL    HW156300   0.512   3.080   5.792 -1.0503  2.5193 -1.9358
16736SOL    HW256301   0.560   3.202   5.868  0.5713  1.3725 -1.0500
16737SOL     OW56302   1.018   3.718   6.129  0.0003  0.1915  0.0477
16737SOL    HW156303   1.045   3.810   6.128 -2.2515  0.9320  0.4510
16737SOL    HW256304   1.048   3.683   6.045 -0.1381  1.6385 -0.6323
16738SOL     OW56305   8.226   8.270   5.681 -0.4648 -0.0875 -0.4569
16738SOL    HW156306   8.313   8.298   5.651 -0.2167 -0.5302 -0.1504
16738SOL    HW256307   8.167   8.299   5.612 -0.2160  1.1912 -0.1670
16739SOL     OW56308   6.378   8.905   2.040 -0.1660  0.0417 -0.7613
16739SOL    HW156309   6.333   8.823   2.059  1.3422 -1.1445 -2.1034
16739SOL    HW256310   6.322   8.972   2.080 -1.1608 -1.6426  0.8539
16740SOL     OW56311   6.299   4.670   2.564 -0.0830  0.5011 -0.2237
16740SOL    HW156312   6.369   4.617   2.602 -1.2315 -2.3061 -1.7166
16740SOL    HW256313   6.337   4.708   2.485  0.4507  1.0700  0.2976
16741SOL     OW56314  10.427   1.473   5.968  0.0411 -0.4185 -0.5507
16741SOL    HW156315  10.444   1.499   5.877 -2.2293  0.4757 -0.7769
16741SOL    HW256316  10.438   1.378   5.968 -0.8990 -0.5565 -2.0319
16742SOL     OW56317   4.469   1.777   1.989 -0.2187 -0.1926  0.6893
16742SOL    HW156318   4.393   1.834   2.003 -0.7009 -0.6237 -0.0846
16742SOL    HW256319   4.452   1.736   1.904  0.7148 -0.5636  0.6741
16743SOL     OW56320   7.915   7.513   2.864  0.8269 -0.6779 -0.2002
16743SOL    HW156321   7.972   7.581   2.900 -0.8423  0.6960 -0.0914
16743SOL    HW256322   7.954   7.492   2.780  0.4028  1.7323 -1.0714
16744SOL     OW56323   0.388  10.925   1.699  0.0963 -0.3129  0.2934
16744SOL    HW156324   0.358  10.878   1.777  1.4286 -1.7518  0.0113
16744SOL    HW256325   0.345  11.010   1.704 -2.6964 -1.6390  0.6944
16745SOL     OW56326   1.034  10.400   9.667  0.7410  0.3727 -0.2377
16745SOL    HW156327   0.987  10.474   9.631  0.6242  0.6623  0.4929
16745SOL    HW256328   1.019  10.329   9.605 -1.4793  0.1770  0.4615
16746SOL     OW56329   3.413   7.180   9.486  0.2743  0.0472 -0.1465
16746SOL    HW156330   3.468   7.258   9.488  0.0854  0.1797 -0.1370
16746SOL    HW256331   3.457   7.122   9.424 -0.2383  0.6441 -1.0912
16747SOL     OW56332   5.674  10.584   1.947  0.0351 -0.3766  0.5931
16747SOL    HW156333   5.690  10.670   1.908 -0.9037 -1.3430 -2.1549
16747SOL    HW256334   5.579  10.581   1.963 -0.0957 -1.2390 -0.2568
16748SOL     OW56335   2.240   9.416   5.092 -0.0669  0.0966 -0.2039
16748SOL    HW156336   2.283   9.427   5.177 -0.2587 -0.5710 -0.0198
16748SOL    HW256337   2.312   9.414   5.029  0.1029  0.1494 -0.0136
16749SOL     OW56338   5.950   5.070   4.489  0.5511 -0.0782  0.0455
16749SOL    HW156339   5.921   4.996   4.437  0.6937 -1.3173  1.6589
16749SOL    HW256340   5.894   5.069   4.567 -0.8119  2.7553 -0.7817
16750SOL     OW56341   5.780   2.025   0.141  0.0523  0.0608 -0.2537
16750SOL    HW156342   5.731   2.103   0.168 -1.4759 -0.5962 -1.0329
16750SOL    HW256343   5.834   2.055   0.068  1.0694  0.8606  0.7971
16751SOL     OW56344   8.257   5.985   4.908  0.1499 -0.0456  0.2278
16751SOL    HW156345   8.172   5.984   4.863  0.1391  0.9507  0.2031
16751SOL    HW256346   8.247   6.052   4.976  0.4416 -0.9574  1.1879
16752SOL     OW56347   5.308   7.943   0.298 -0.1916  0.6740 -0.4485
16752SOL    HW156348   5.234   7.996   0.330 -0.3938  0.7137 -0.9752
16752SOL    HW256349   5.267   7.868   0.255  0.0939  0.2337  0.0413
16753SOL     OW56350   7.901   3.428   5.107  0.1552 -0.1208  0.4147
16753SOL    HW156351   7.828   3.447   5.049 -0.0276 -0.4908  0.5198
16753SOL    HW256352   7.929   3.514   5.140  0.4542  0.1171 -0.4411
16754SOL     OW56353   6.147   4.815   9.578 -0.2174 -0.4160  0.5503
16754SOL    HW156354   6.215   4.752   9.600 -0.5031 -0.4052  1.5531
16754SOL    HW256355   6.154   4.828   9.484 -0.6955 -2.5864  0.1701
16755SOL     OW56356  10.224   8.415   0.469 -0.6263 -0.5586 -0.0152
16755SOL    HW156357  10.299   8.422   0.411  1.6071 -1.2685  2.5706
16755SOL    HW256358  10.222   8.499   0.515 -0.4240 -1.0940  0.9978
16756SOL     OW56359   5.861   7.949   4.063 -0.4913 -0.3111 -0.1344
16756SOL    HW156360   5.799   7.917   3.997  0.2914 -0.2512 -0.9170
16756SOL    HW256361   5.921   8.005   4.014  0.6162 -0.9415  0.4571
16757SOL     OW56362   3.290   3.787   8.514 -0.3720 -0.2579  0.7320
16757SOL    HW156363   3.195   3.780   8.525 -0.6407 -1.0556 -1.5878
16757SOL    HW256364   3.323   3.809   8.601 -3.0098  3.7639  0.9501
16758SOL     OW56365   0.530  10.013   8.610  0.2862 -0.1973  0.3225
16758SOL    HW156366   0.566  10.087   8.561  0.6074  0.8113  1.9870
16758SOL    HW256367   0.524  10.046   8.700 -2.5117 -1.1526  0.5537
16759SOL     OW56368   4.209   9.663   7.252 -0.0434  0.7680 -0.0443
16759SOL    HW156369   4.118   9.676   7.280 -0.6737  0.1902 -1.6825
16759SOL    HW256370   4.245   9.752   7.248 -0.4557  0.9880  0.8356
16760SOL     OW56371   9.374   2.827   1.956 -0.7099  0.3267 -0.3226
16760SOL    HW156372   9.292   2.807   2.000 -0.9776 -0.9331 -1.3307
16760SOL    HW256373   9.366   2.920   1.931 -2.3553 -0.0716 -1.4460
16761SOL     OW56374   6.218   5.593   8.563 -0.2003 -0.3627  0.2695
16761SOL    HW156375   6.219   5.600   8.468  0.5630  1.2806  0.3646
16761SOL    HW256376   6.140   5.641   8.591 -0.5742 -1.0703  0.4838
16762SOL     OW56377   5.737   1.653   6.617 -0.1653 -0.1972 -0.5819
16762SOL    HW156378   5.659   1.696   6.654 -0.1459  1.6394 -2.4620
16762SOL    HW256379   5.804   1.663   6.684 -1.5142 -1.9138  1.1299
16763SOL     OW56380   4.139   1.665   6.219 -0.4355  0.5667  0.6052
16763SOL    HW156381   4.230   1.671   6.246 -0.2278 -0.7966  0.2590
16763SOL    HW256382   4.092   1.639   6.299 -0.3479  0.1626  0.5300
16764SOL     OW56383   1.090   3.266   6.759 -0.3900  0.2213  0.8817
16764SOL    HW156384   1.045   3.340   6.718 -1.2963 -0.9037 -0.2398
16764SOL    HW256385   1.183   3.289   6.754 -0.5115  0.4831 -1.1378
16765SOL     OW56386   3.733   8.202   5.463  0.5845  0.0535 -0.0889
16765SOL    HW156387   3.646   8.164   5.476  0.6137  0.4035  1.3089
16765SOL    HW256388   3.749   8.252   5.543  1.8204  0.4976 -0.5945
16766SOL     OW56389   1.489   6.326   1.260  0.2325 -0.2031  0.1525
16766SOL    HW156390   1.420   6.261   1.272 -1.3992  1.0049 -2.0183
16766SOL    HW256391   1.451   6.390   1.200  1.3174  3.3883  2.9605
16767SOL     OW56392   6.192   8.087   1.677 -0.2387  0.2361  0.3028
16767SOL    HW156393   6.114   8.063   1.726  0.0249 -2.4100 -0.4241
16767SOL    HW256394   6.205   8.180   1.697 -3.2373  0.6419  0.8307
16768SOL     OW56395   9.790   0.198   8.319 -0.1224  0.1287 -0.4194
16768SOL    HW156396   9.752   0.256   8.252 -2.0152  1.2075  1.4920
16768SOL    HW256397   9.871   0.242   8.345  1.6162 -1.1858 -3.1128
16769SOL     OW56398   2.903  10.424   2.995 -0.1276 -0.0607  0.4438
16769SOL    HW156399   2.819  10.457   2.962  0.1185  1.2282  1.0440
16769SOL    HW256400   2.910  10.462   3.083  0.8542 -0.5728  0.5944
16770SOL     OW56401   6.897   6.718  10.400 -0.8208 -0.4241 -0.0152
16770SOL    HW156402   6.876   6.747  10.489 -0.4049 -0.3672  0.0663
16770SOL    HW256403   6.962   6.780  10.369  1.0570 -1.9399  0.6361
16771SOL     OW56404   8.655   2.549   8.008  0.5334  0.2045 -0.2384
16771SOL    HW156405   8.601   2.574   7.932  0.0765 -0.9279 -0.3009
16771SOL    HW256406   8.670   2.456   7.997  2.7655  0.5279 -0.3532
16772SOL     OW56407   7.157   9.351   1.916 -0.4530  0.5964  0.5361
16772SOL    HW156408   7.251   9.366   1.915 -0.1980 -0.5948 -2.1224
16772SOL    HW256409   7.148   9.256   1.930 -1.1672  0.4839 -0.5744
16773SOL     OW56410   1.173   8.315   5.748 -0.1825 -0.1247 -0.0473
16773SOL    HW156411   1.206   8.225   5.750  0.5522  0.1429  0.0379
16773SOL    HW256412   1.229   8.359   5.684  0.1512  0.5354  0.6892
16774SOL     OW56413  10.478   6.628   0.784 -0.0689 -0.3427  0.3087
16774SOL    HW156414  10.538   6.703   0.785  0.4431 -0.7392  0.1111
16774SOL    HW256415  10.462   6.612   0.691 -0.3131 -0.3693  0.3560
16775SOL     OW56416   8.356   0.173  10.552 -0.0216  0.7248  0.4750
16775SOL    HW156417   8.443   0.185  10.514 -0.4031 -2.6047 -1.9347
16775SOL    HW256418   8.372   0.133  10.637  0.8975 -0.4349 -0.2013
16776SOL     OW56419   0.488   3.585   8.215 -0.2714  0.3411 -0.9154
16776SOL    HW156420   0.402   3.608   8.182 -1.1738 -2.2428 -0.5492
16776SOL    HW256421   0.487   3.490   8.222  2.9225  0.1257 -1.7285
16777SOL     OW56422  10.780   1.689   7.564 -0.7251  0.1371 -0.6020
16777SOL    HW156423  10.784   1.648   7.650 -0.6381  0.3840 -0.4860
16777SOL    HW256424  10.731   1.770   7.579 -0.0032  0.5852 -0.6161
16778SOL     OW56425   0.667   4.884   8.642  0.6235 -0.6699 -0.4021
16778SOL    HW156426   0.748   4.931   8.659  0.9652 -1.2182 -0.4779
16778SOL    HW256427   0.611   4.903   8.717  1.5891 -1.9414  0.6838
16779SOL     OW56428   6.188   2.593   1.227  0.1557  1.0318  0.9100
16779SOL    HW156429   6.274   2.623   1.196  0.1551  1.5758  1.4235
16779SOL    HW256430   6.143   2.672   1.254 -1.7097  1.1553 -2.1178
16780SOL     OW56431  10.890   2.813   6.897 -0.1084  0.5644 -0.6853
16780SOL    HW156432  10.838   2.813   6.978 -0.1615 -0.0034 -0.7204
16780SOL    HW256433  10.978   2.786   6.925 -0.3979 -0.7315 -0.9862
16781SOL     OW56434   3.408   9.972   9.704  0.6617  0.3341 -0.2354
16781SOL    HW156435   3.497   9.936   9.696 -0.0902 -1.7505  0.2050
16781SOL    HW256436   3.351   9.897   9.696 -1.1319  1.7183 -1.0345
16782SOL     OW56437   1.822   2.847   3.640 -0.2236  0.0110  0.0949
16782SOL    HW156438   1.904   2.884   3.673 -0.7401 -1.9875  4.2654
16782SOL    HW256439   1.845   2.812   3.554  3.0938  0.3593  0.6894
16783SOL     OW56440   1.902   1.352   3.986 -0.3398 -0.2223  0.1996
16783SOL    HW156441   1.820   1.353   4.036  0.0012  1.3201  0.7861
16783SOL    HW256442   1.902   1.435   3.938  0.5495 -0.5213 -0.3463
16784SOL     OW56443   4.589   8.915   6.135  0.1368 -0.2675  0.1607
16784SOL    HW156444   4.575   8.856   6.209 -0.0496  0.3710  0.6547
16784SOL    HW256445   4.651   8.981   6.169 -0.9706  0.7899  0.1890
16785SOL     OW56446   0.045   2.345   7.691  0.1016  0.2483  0.4155
16785SOL    HW156447   0.075   2.358   7.781 -0.4257  0.4989  0.5531
16785SOL    HW256448   0.044   2.432   7.653  0.7941  0.0889  0.0124
16786SOL     OW56449   8.948   6.387   7.403 -0.1451  0.1252 -0.0953
16786SOL    HW156450   8.883   6.455   7.421  0.4913  0.4382  1.1293
16786SOL    HW256451   8.979   6.405   7.315 -1.2793  0.3244 -0.4706
16787SOL     OW56452   1.675   0.504   2.766 -0.2982  0.0827 -0.0287
16787SOL    HW156453   1.745   0.443   2.788  0.5582  1.5713  1.6649
16787SOL    HW256454   1.597   0.466   2.807  0.0621 -0.3055  0.3054
16788SOL     OW56455   1.151   9.426   6.796  0.3011 -0.4768  0.3488
16788SOL    HW156456   1.208   9.352   6.776  1.1535  0.4098 -0.6628
16788SOL    HW256457   1.201   9.479   6.859  0.1611 -0.2146  0.2417
16789SOL     OW56458   6.361   6.844   0.545  0.4014  0.5221 -0.3069
16789SOL    HW156459   6.435   6.784   0.530  0.2086  0.3565 -0.6134
16789SOL    HW256460   6.291   6.787   0.577  0.8760  0.9073  1.4953
16790SOL     OW56461   8.036   8.658   9.465 -0.0896 -1.0162 -0.2957
16790SOL    HW156462   8.028   8.632   9.373  0.5952 -0.0949 -0.6377
16790SOL    HW256463   8.052   8.753   9.461 -0.2631 -0.9317  0.7861
16791SOL     OW56464   6.261   9.403  10.033  0.0442 -0.2007  0.2270
16791SOL    HW156465   6.185   9.364  10.075 -0.4702  0.5458  0.0032
16791SOL    HW256466   6.287   9.339   9.966 -0.1548 -0.6223  0.5472
16792SOL     OW56467   0.470   4.461   8.448 -0.2663 -0.9229  0.3034
16792SOL    HW156468   0.514   4.545   8.459  1.1392 -1.8389  2.2695
16792SOL    HW256469   0.377   4.480   8.463 -0.0256  0.3119  0.3449
16793SOL     OW56470   0.954   3.694   5.406  0.2385 -0.6620  0.0267
16793SOL    HW156471   0.890   3.637   5.448 -0.6206  0.4188  0.2283
16793SOL    HW256472   0.930   3.693   5.313 -0.3505  0.0561  0.1577
16794SOL     OW56473   1.142   1.796   0.011 -0.2472  0.1468  0.2653
16794SOL    HW156474   1.091   1.866   0.052 -0.2417  1.4437 -1.7511
16794SOL    HW256475   1.189   1.841  -0.060  1.4326 -1.5432  0.2404
16795SOL     OW56476   4.056   5.159   1.545  0.4707 -0.0330 -0.0112
16795SOL    HW156477   4.138   5.191   1.583  0.1558  0.3764  0.3248
16795SOL    HW256478   3.994   5.162   1.618  0.4136 -1.3412  0.0222
16796SOL     OW56479   4.358   8.860   3.404 -0.0711  0.0556 -0.2997
16796SOL    HW156480   4.335   8.790   3.466 -0.8676 -0.2970 -0.9819
16796SOL    HW256481   4.453   8.851   3.393 -0.1100 -0.6925 -0.1052
16797SOL     OW56482   6.643   7.898   9.836 -0.4228  0.2104 -0.6854
16797SOL    HW156483   6.666   7.980   9.879 -0.5718  1.0662 -2.1548
16797SOL    HW256484   6.706   7.834   9.870 -0.1409  0.9785  0.2914
16798SOL     OW56485   8.587   7.196   9.149  0.2946 -0.0001 -0.1932
16798SOL    HW156486   8.590   7.119   9.205 -0.4302 -0.1750 -0.3895
16798SOL    HW256487   8.535   7.170   9.074 -0.0350  0.7069 -0.2232
16799SOL     OW56488   5.091   4.247   9.172 -0.6103 -0.0430 -0.5366
16799SOL    HW156489   5.084   4.192   9.251  1.4339 -3.2649 -2.3667
16799SOL    HW256490   5.176   4.289   9.180  0.1136 -1.2671 -1.4409
16800SOL     OW56491  10.076   6.309   5.070  0.1254 -0.1210 -0.0664
16800SOL    HW156492  10.024   6.252   5.126  0.3915  0.3408  0.6614
16800SOL    HW256493  10.142   6.347   5.128  0.0285  0.8322 -0.5545
16801SOL     OW56494   6.569   7.479   1.443  0.2797  0.3478  0.6094
16801SOL    HW156495   6.536   7.405   1.495  0.1454 -0.5432 -0.6986
16801SOL    HW256496   6.587   7.547   1.508  1.0833 -1.0613  1.9332
16802SOL     OW56497  10.326  10.611   6.580  0.5415 -0.1330  0.8625
16802SOL    HW156498  10.263  10.558   6.531 -1.1669 -0.6748  3.4415
16802SOL    HW256499  10.405  10.557   6.583 -0.2183 -1.2721  0.9754
16803SOL     OW56500   7.110   1.794   6.451  0.2247  0.3276 -0.4962
16803SOL    HW156501   7.101   1.887   6.431  1.9771  0.5239 -0.4955
16803SOL    HW256502   7.198   1.771   6.422  0.0215 -1.2163 -0.0091
16804SOL     OW56503   1.643   3.702   7.263  0.3546  0.2313 -0.4253
16804SOL    HW156504   1.589   3.762   7.313 -0.7421  0.0692 -1.3824
16804SOL    HW256505   1.674   3.753   7.189  0.9746  0.1313 -0.2421
16805SOL     OW56506  10.056   0.218   9.785 -0.1983 -0.3592 -0.3641
16805SOL    HW156507  10.069   0.272   9.863 -0.3263  1.2901 -1.4534
16805SOL    HW256508  10.115   0.254   9.720 -0.3463 -1.4994 -1.1683
16806SOL     OW56509   6.438   5.953   6.580  0.1997 -0.3079  0.4502
16806SOL    HW156510   6.424   5.940   6.674  0.2744  1.9177  0.8335
16806SOL    HW256511   6.456   6.047   6.572  0.1551 -0.4490 -1.8071
16807SOL     OW56512   5.327   2.654  10.060  0.1553 -0.4286  0.0886
16807SOL    HW156513   5.297   2.703   9.984  0.7381 -1.1206 -0.6046
16807SOL    HW256514   5.281   2.694  10.134  0.0586  0.6649 -0.5412
16808SOL     OW56515   5.576   4.570   4.384  0.5162 -0.1634 -0.4129
16808SOL    HW156516   5.500   4.517   4.408  0.5703 -1.0032 -1.9951
16808SOL    HW256517   5.544   4.660   4.385 -0.1096 -0.3819  0.3357
16809SOL     OW56518   5.336   9.366   2.809 -0.4135  0.4487  0.2348
16809SOL    HW156519   5.407   9.361   2.874 -0.0729  1.2337 -0.0606
16809SOL    HW256520   5.353   9.293   2.750 -0.7723 -0.3247  1.0579
16810SOL     OW56521   2.761   4.243  10.225 -0.4390 -0.0697  0.0497
16810SOL    HW156522   2.668   4.231  10.240 -0.8505  1.7640 -0.7563
16810SOL    HW256523   2.786   4.316  10.282  0.6487 -0.8912  0.6654
16811SOL     OW56524   9.260  10.784   9.614 -0.1756  0.6232 -0.0224
16811SOL    HW156525   9.184  10.819   9.660 -1.2232 -3.3118  1.6510
16811SOL    HW256526   9.322  10.762   9.683  1.3692  1.2052 -1.1693
16812SOL     OW56527   6.123   0.309   5.118  0.0971  0.7371 -0.8310
16812SOL    HW156528   6.211   0.344   5.100  0.0033  0.5164 -1.7879
16812SOL    HW256529   6.070   0.341   5.045 -0.1310 -0.9161 -1.4269
16813SOL     OW56530   3.627   4.741   2.231  0.0280  0.2177  0.3353
16813SOL    HW156531   3.717   4.718   2.253 -0.6464 -0.3436  2.8171
16813SOL    HW256532   3.596   4.669   2.176  0.3600 -0.9280  1.5862
16814SOL     OW56533  10.201   0.107  10.681 -0.1943  0.3754 -0.2236
16814SOL    HW156534  10.208   0.201  10.666 -1.6869  0.6527  0.6417
16814SOL    HW256535  10.188   0.098  10.776  0.9790 -0.7819 -0.1370
16815SOL     OW56536  10.907  10.247   8.126 -0.0021 -0.4924 -0.0794
16815SOL    HW156537  10.978  10.249   8.061  0.3535  1.1535  0.3210
16815SOL    HW256538  10.948  10.209   8.204 -0.6453 -3.2632 -0.9807
16816SOL     OW56539   6.752  10.208   8.996 -0.5325  0.2877  0.7039
16816SOL    HW156540   6.777  10.267   9.066 -1.3516  0.7723  0.6019
16816SOL    HW256541   6.810  10.133   9.006  1.2857  1.5522  0.1791
16817SOL     OW56542   3.485  10.084   4.410  0.0913  0.0641  0.4268
16817SOL    HW156543   3.529  10.103   4.327  1.3553  0.7378  1.2352
16817SOL    HW256544   3.410  10.029   4.384  0.5468  0.1137 -1.1338
16818SOL     OW56545   3.046   9.092   4.451 -0.5232  0.1301  0.0275
16818SOL    HW156546   3.034   9.025   4.519  1.5792 -1.8011 -1.3785
16818SOL    HW256547   2.963   9.093   4.403 -1.1567 -0.2499  1.0819
16819SOL     OW56548   3.119   5.318   5.194  0.0797 -0.1599 -0.5575
16819SOL    HW156549   3.040   5.362   5.226 -0.5286 -0.5338 -1.4875
16819SOL    HW256550   3.187   5.385   5.195 -1.0568  1.1508 -2.9013
16820SOL     OW56551   2.359  10.042   0.311  0.7949  0.2764  0.4236
16820SOL    HW156552   2.411  10.114   0.274  0.2452  0.4035 -0.1234
16820SOL    HW256553   2.279  10.084   0.343  1.2143  0.1457  1.6715
16821SOL     OW56554   4.946   8.539   9.442  0.1624  0.1926 -0.2656
16821SOL    HW156555   4.902   8.616   9.405  0.3176  0.3007 -0.2267
16821SOL    HW256556   5.013   8.576   9.499 -0.8386  0.0393  1.0586
16822SOL     OW56557   2.713   8.038   1.138 -0.1610 -0.1653  0.5260
16822SOL    HW156558   2.698   8.124   1.099  0.2736  1.3939  3.5106
16822SOL    HW256559   2.625   8.006   1.160 -0.2501  1.5667  3.2257
16823SOL     OW56560   0.142   7.240   8.531  0.4818  0.2978 -0.2209
16823SOL    HW156561   0.072   7.230   8.596 -0.7550 -1.9790 -1.7711
16823SOL    HW256562   0.123   7.323   8.488 -0.7384  0.1726  0.0286
16824SOL     OW56563   4.108   1.808   3.854  0.1124 -0.3049  0.2885
16824SOL    HW156564   4.183   1.858   3.885  1.0080 -2.2970  1.6150
16824SOL    HW256565   4.032   1.850   3.896  0.4172  1.7279 -1.0645
16825SOL     OW56566   5.960   2.260   1.098  0.5965  0.7035  0.1602
16825SOL    HW156567   5.900   2.221   1.161 -0.0326  0.7158 -0.4144
16825SOL    HW256568   5.950   2.355   1.110  0.5041  0.7054  0.0726
16826SOL     OW56569   6.962   2.988   2.963  0.5933  0.4326  0.5088
16826SOL    HW156570   6.909   2.921   3.005  2.9316 -2.0147 -0.1626
16826SOL    HW256571   6.982   3.050   3.033 -0.7819 -0.0885  1.4060
16827SOL     OW56572   8.166   6.824   0.862  0.5833  0.0376  0.2622
16827SOL    HW156573   8.186   6.867   0.779 -0.6828 -2.1622 -1.2738
16827SOL    HW256574   8.094   6.764   0.841  0.1940 -0.5558  2.9738
16828SOL     OW56575   3.938   7.522  10.026  0.1683 -0.2580  0.6107
16828SOL    HW156576   3.852   7.483  10.013 -0.7966  1.6177  1.0530
16828SOL    HW256577   3.983   7.509   9.942 -1.2026  0.3223 -0.2460
16829SOL     OW56578   1.314   8.487   5.594  0.1534 -0.0744  0.2096
16829SOL    HW156579   1.267   8.500   5.512 -1.1681 -1.2426  0.7415
16829SOL    HW256580   1.404   8.470   5.568 -0.0083  0.7044 -0.9194
16830SOL     OW56581   0.832   6.948  10.096 -0.2985 -0.2372 -0.1468
16830SOL    HW156582   0.813   6.877  10.035  0.0444  0.3799 -0.9849
16830SOL    HW256583   0.748   6.966  10.138 -0.1961 -1.7556  0.7674
16831SOL     OW56584   2.316   9.881   8.456 -0.2305 -0.0693 -0.4168
16831SOL    HW156585   2.397   9.891   8.505  0.1427  2.0098 -1.3823
16831SOL    HW256586   2.247   9.906   8.518 -0.4405 -3.4820  0.9846
16832SOL     OW56587   4.263   0.859   6.600  0.1676 -0.1015  0.8648
16832SOL    HW156588   4.194   0.874   6.535  0.8573 -2.4298 -0.5478
16832SOL    HW256589   4.321   0.795   6.558  1.6713 -0.3026  3.0874
16833SOL     OW56590   7.071   9.944   3.260 -0.1135  0.1187  0.5730
16833SOL    HW156591   7.094   9.906   3.176 -2.4636 -1.9519  0.7542
16833SOL    HW256592   7.043  10.033   3.239 -1.8890 -0.7676 -1.0825
16834SOL     OW56593   7.053   3.429   4.235 -0.0793  0.2012 -0.0832
16834SOL    HW156594   6.994   3.450   4.163  0.3988 -1.3135 -0.9554
16834SOL    HW256595   7.010   3.358   4.283 -0.4758  1.3067  1.2623
16835SOL     OW56596   2.288   9.847   7.006  0.1415  0.2700  0.1865
16835SOL    HW156597   2.296   9.911   6.935  1.3431 -1.7846 -1.6575
16835SOL    HW256598   2.210   9.874   7.054  0.6074  3.1015 -0.4519
16836SOL     OW56599   8.827   3.621   0.851 -0.2597 -0.4308 -0.3340
16836SOL    HW156600   8.859   3.702   0.810  1.3414 -0.8256  0.0692
16836SOL    HW256601   8.852   3.552   0.789 -0.8536 -0.7083 -0.2702
16837SOL     OW56602   2.240  10.584   9.792 -0.0825  0.1062 -0.5948
16837SOL    HW156603   2.327  10.603   9.757  0.0208  0.0801 -0.3514
16837SOL    HW256604   2.216  10.663   9.841  0.2706 -0.3142  0.2622
16838SOL     OW56605   0.499   9.322   2.430 -0.0442 -0.3070 -0.4021
16838SOL    HW156606   0.437   9.352   2.496  0.1406 -2.0159  0.6009
16838SOL    HW256607   0.451   9.326   2.348 -0.1754  2.1723 -0.2644
16839SOL     OW56608   0.730   1.162  10.907 -0.3237 -0.0696 -0.4586
16839SOL    HW156609   0.746   1.147  11.000  3.0012  0.5927 -0.8141
16839SOL    HW256610   0.754   1.079  10.865 -0.7140  0.0065 -0.8437
16840SOL     OW56611   6.557   6.477   8.343  0.2688 -0.1626 -0.0299
16840SOL    HW156612   6.573   6.553   8.399 -2.5785  0.3874  0.1898
16840SOL    HW256613   6.514   6.512   8.265 -0.6575 -1.4626 -0.1459
16841SOL     OW56614   3.805   6.670  10.226 -0.2880 -0.0679 -0.2726
16841SOL    HW156615   3.801   6.716  10.142  1.1848  0.9670  0.1608
16841SOL    HW256616   3.723   6.692  10.269 -0.8305 -0.1746 -1.2301
16842SOL     OW56617  10.115   7.394   7.524 -0.4414 -0.5741  0.3219
16842SOL    HW156618  10.086   7.376   7.435 -0.4601 -2.1821  0.6136
16842SOL    HW256619  10.130   7.488   7.526  0.1988 -0.5900 -1.5608
16843SOL     OW56620  10.534   1.232   9.206  0.1732  0.4630  0.0324
16843SOL    HW156621  10.551   1.145   9.244  1.6706 -0.2456 -2.1015
16843SOL    HW256622  10.479   1.275   9.272 -1.6719 -2.5103  0.6749
16844SOL     OW56623   5.223   1.963   4.453  0.4815  0.1532  0.3283
16844SOL    HW156624   5.311   2.001   4.443  0.0385  0.9189 -0.8124
16844SOL    HW256625   5.171   2.005   4.385 -0.2242 -2.0336 -0.5499
16845SOL     OW56626   1.708   0.605   4.965  0.2422 -0.2777  0.0718
16845SOL    HW156627   1.788   0.553   4.957 -1.1948 -2.9982  1.8243
16845SOL    HW256628   1.638   0.545   4.938 -1.3796  1.3632  0.4394
16846SOL     OW56629   9.032   9.872   9.674  0.1045 -0.0820 -0.1919
16846SOL    HW156630   9.090   9.862   9.750 -0.2718 -0.1412  0.0874
16846SOL    HW256631   8.945   9.851   9.707  0.1937 -2.1135 -1.0928
16847SOL     OW56632   8.052   3.483   6.860  0.0931  0.0711  0.1583
16847SOL    HW156633   7.963   3.470   6.827  0.0309  0.2577  0.2524
16847SOL    HW256634   8.049   3.567   6.906  0.3076  0.0596  0.1955
16848SOL     OW56635   5.636  10.405   4.230 -0.1277  0.3216 -0.4795
16848SOL    HW156636   5.579  10.423   4.154 -1.3362 -1.3237 -0.0026
16848SOL    HW256637   5.591  10.447   4.303  1.3775  2.4924 -0.6998
16849SOL     OW56638   3.202   5.128  10.528  0.1370  0.2278  0.3992
16849SOL    HW156639   3.153   5.196  10.483 -0.3439  0.2414  0.9343
16849SOL    HW256640   3.275   5.108  10.469  0.1316  1.0126  0.1213
16850SOL     OW56641   0.002   9.610   4.847  0.1930 -0.2037 -0.2324
16850SOL    HW156642   0.026   9.521   4.874  0.4079 -0.4214 -1.0857
16850SOL    HW256643  -0.080   9.599   4.798 -0.2217  0.1797  0.3716
16851SOL     OW56644   5.783  10.618   4.580 -0.0913  0.4796  0.2809
16851SOL    HW156645   5.773  10.701   4.627 -1.5045  0.1247  0.6487
16851SOL    HW256646   5.852  10.635   4.516  0.9150  1.3868  1.5545
16852SOL     OW56647   7.613   9.382   2.100 -0.2133  0.9366 -0.2507
16852SOL    HW156648   7.642   9.338   2.180  1.2606 -1.7911 -2.1367
16852SOL    HW256649   7.663   9.463   2.098  2.0445 -0.3639  0.1569
16853SOL     OW56650   0.873   9.654   2.706 -0.1891 -0.3597 -0.1653
16853SOL    HW156651   0.805   9.632   2.642 -1.1926  0.1203  0.7076
16853SOL    HW256652   0.934   9.581   2.702 -1.3048 -1.3123 -0.2287
16854SOL     OW56653   4.433  10.504   4.058  0.2334  0.1412  0.0933
16854SOL    HW156654   4.403  10.429   4.006 -2.3305  1.5515 -0.6255
16854SOL    HW256655   4.436  10.470   4.148  1.1937 -1.3613 -0.4621
16855SOL     OW56656   2.929   0.286   5.514  0.8091  0.2897  0.4503
16855SOL    HW156657   3.016   0.257   5.488  0.0186 -0.5517 -1.4164
16855SOL    HW256658   2.873   0.265   5.439 -0.9422  1.1283  1.4599
16856SOL     OW56659   9.093   1.424   8.715 -0.1270  0.0814  0.1280
16856SOL    HW156660   9.059   1.368   8.645  0.9022 -0.2403 -0.1375
16856SOL    HW256661   9.088   1.370   8.794  2.3750 -1.0779 -0.3912
16857SOL     OW56662   4.299   6.619   0.832  0.1851 -0.1247 -0.1063
16857SOL    HW156663   4.335   6.547   0.780  1.5330  0.7755 -0.4880
16857SOL    HW256664   4.294   6.585   0.921  1.7009 -0.4313 -0.1010
16858SOL     OW56665   7.688   2.323   3.943 -0.4199  0.4182  0.1415
16858SOL    HW156666   7.748   2.258   3.981 -0.3350  1.4958  1.9982
16858SOL    HW256667   7.696   2.399   4.001 -1.6419  1.5403 -1.0989
16859SOL     OW56668   7.333   3.445   5.506 -0.0108  0.2045 -0.0783
16859SOL    HW156669   7.283   3.456   5.588 -0.7577  0.2617 -0.5302
16859SOL    HW256670   7.412   3.398   5.533 -0.4502 -0.1693  0.6118
16860SOL     OW56671   7.183   8.188  10.295  0.1491 -0.4909 -0.7051
16860SOL    HW156672   7.183   8.100  10.257  0.3450 -0.8885  0.1802
16860SOL    HW256673   7.262   8.230  10.259  1.1695 -1.3844  0.3888
16861SOL     OW56674   1.114   0.616   1.884 -0.1349 -0.7571  0.6052
16861SOL    HW156675   1.037   0.577   1.843 -1.0468  2.4837 -1.1366
16861SOL    HW256676   1.153   0.545   1.934 -2.8221 -3.2041 -0.4727
16862SOL     OW56677   2.857   6.024   4.533 -0.2213  0.7195 -0.8144
16862SOL    HW156678   2.935   6.059   4.490  0.5295  0.8318  0.5694
16862SOL    HW256679   2.799   6.099   4.542 -0.6426  0.5748 -2.1156
16863SOL     OW56680   9.476   5.083   0.560  0.4106 -0.1683  0.2444
16863SOL    HW156681   9.489   5.150   0.627 -0.2891  0.1887  0.0395
16863SOL    HW256682   9.439   5.131   0.486  1.9551 -0.4014 -0.7303
16864SOL     OW56683   1.894  10.924   7.215 -1.2121  0.3854 -0.0050
16864SOL    HW156684   1.920  10.895   7.128 -0.7062 -0.5388  0.4470
16864SOL    HW256685   1.799  10.939   7.208 -1.1975  0.1880 -0.6735
16865SOL     OW56686  10.412   8.935   1.027  0.1371  0.5551  0.3552
16865SOL    HW156687  10.362   8.939   0.945 -0.5272  0.0088  0.7200
16865SOL    HW256688  10.353   8.892   1.089  0.8234  0.4916  0.9808
16866SOL     OW56689   9.666   9.073   2.000  0.5122 -0.2419 -0.2147
16866SOL    HW156690   9.660   8.980   2.023  0.4531 -0.3236 -0.5538
16866SOL    HW256691   9.697   9.116   2.080  1.2188 -0.6455 -0.2699
16867SOL     OW56692   2.454   6.940   2.710  0.3905  0.5124 -0.1981
16867SOL    HW156693   2.543   6.911   2.689 -0.0348 -1.4859  0.5513
16867SOL    HW256694   2.400   6.904   2.639 -0.0643  0.0493  0.3771
16868SOL     OW56695   2.810   6.178   9.693 -1.4533 -0.5011 -0.4716
16868SOL    HW156696   2.844   6.115   9.757 -1.8438 -0.1055  0.1468
16868SOL    HW256697   2.763   6.242   9.747 -1.4715  0.0462 -1.1334
16869SOL     OW56698   9.912   7.975   8.608  0.1251 -0.2013 -0.3520
16869SOL    HW156699   9.859   8.053   8.591  1.4671  0.4621 -1.6698
16869SOL    HW256700   9.849   7.902   8.602 -1.0055  0.6951  0.1777
16870SOL     OW56701   6.072   6.469   1.345  0.3818  0.1944 -0.4600
16870SOL    HW156702   6.024   6.440   1.267  0.0364  1.1175 -0.6026
16870SOL    HW256703   6.160   6.487   1.313  0.9529 -1.8017 -0.1385
16871SOL     OW56704   7.214   6.205   1.849  0.1879  0.5848  0.3167
16871SOL    HW156705   7.231   6.123   1.895  0.7581 -0.3745 -1.4694
16871SOL    HW256706   7.120   6.203   1.831  0.3844 -0.3222 -0.7707
16872SOL     OW56707   2.805  10.618   6.494 -0.5919 -0.1694  0.1348
16872SOL    HW156708   2.884  10.658   6.530 -1.5203  2.8398 -0.9244
16872SOL    HW256709   2.821  10.524   6.501  2.2072  0.3107  1.7781
16873SOL     OW56710   6.264  10.095   0.306 -0.5440 -0.1833 -0.1231
16873SOL    HW156711   6.240  10.077   0.397  1.7687 -0.9665  0.4100
16873SOL    HW256712   6.233  10.019   0.258 -0.8718 -0.2494  0.1855
16874SOL     OW56713   6.868   1.508   4.604 -0.0483 -0.1347 -0.6095
16874SOL    HW156714   6.918   1.471   4.531 -0.5869 -0.7695 -0.6592
16874SOL    HW256715   6.791   1.453   4.612 -0.2723  0.2595  0.0926
16875SOL     OW56716   6.552   1.824   1.303  0.3707  0.5843 -0.4810
16875SOL    HW156717   6.638   1.806   1.265  0.5276  2.2169 -0.9778
16875SOL    HW256718   6.570   1.866   1.387  0.0161 -1.2829  0.5915
16876SOL     OW56719  10.724   6.888   7.210  0.3303 -0.7425 -0.7030
16876SOL    HW156720  10.683   6.929   7.286 -0.9888 -2.3638 -0.4791
16876SOL    HW256721  10.689   6.935   7.135  0.3922 -0.1764 -0.3825
16877SOL     OW56722   3.405   5.902   6.046  0.6784  0.0455 -0.5971
16877SOL    HW156723   3.478   5.925   5.989  0.8745  1.0763  0.0311
16877SOL    HW256724   3.428   5.817   6.082  0.4956 -0.6684 -2.1136
16878SOL     OW56725   3.250   5.571   5.195 -0.3095 -0.2176 -0.0753
16878SOL    HW156726   3.264   5.593   5.287 -1.5354  0.0938  0.0450
16878SOL    HW256727   3.310   5.630   5.148 -0.4633  0.3906  0.4707
16879SOL     OW56728   5.617   8.172  10.457  0.0075  0.7193  0.6374
16879SOL    HW156729   5.569   8.165  10.375 -1.8445  1.3580  1.5890
16879SOL    HW256730   5.691   8.112  10.448  0.5518  1.6649 -1.9240
16880SOL     OW56731   1.268   9.850   9.481  0.0152 -0.7666  0.6502
16880SOL    HW156732   1.349   9.804   9.505  1.1632  0.8425 -0.0027
16880SOL    HW256733   1.285   9.885   9.394 -0.4254  1.6736  1.4755
16881SOL     OW56734   3.655   8.609   7.869 -0.2459  0.2267  0.3138
16881SOL    HW156735   3.655   8.612   7.773 -1.2427 -0.1620  0.2833
16881SOL    HW256736   3.666   8.516   7.889  0.5958  0.3824  0.5964
16882SOL     OW56737  10.580   1.582   2.737  0.1226  0.1752  0.0696
16882SOL    HW156738  10.621   1.663   2.768 -2.0340  1.5956 -0.6168
16882SOL    HW256739  10.489   1.606   2.721 -0.4368 -2.2649 -0.7275
16883SOL     OW56740  10.685   8.834   3.875 -0.1170  0.0188 -0.1875
16883SOL    HW156741  10.707   8.785   3.796  0.5853 -0.0181  0.0279
16883SOL    HW256742  10.694   8.771   3.946  0.8910  0.4677  0.1021
16884SOL     OW56743   7.893  10.716   0.471 -0.4788 -0.4606  0.0758
16884SOL    HW156744   7.943  10.739   0.550  1.8495 -0.7655 -1.1920
16884SOL    HW256745   7.852  10.633   0.491 -0.0021 -0.4824  1.0056
16885SOL     OW56746   0.598   3.025   4.457  0.6822  0.1943  0.2360
16885SOL    HW156747   0.547   3.060   4.530  1.1666  1.9021 -0.2021
16885SOL    HW256748   0.532   2.991   4.396 -0.1311  3.2572 -0.7859
16886SOL     OW56749   4.547   9.988   5.919  0.5831  0.5328 -0.1802
16886SOL    HW156750   4.549   9.892   5.922 -1.1045  0.4877  1.1199
16886SOL    HW256751   4.594  10.016   5.997 -0.9902  0.6734  0.7523
16887SOL     OW56752   1.342   5.877   6.569  0.1708  0.5170 -0.2385
16887SOL    HW156753   1.320   5.818   6.498 -0.9078  0.4613  0.1253
16887SOL    HW256754   1.258   5.898   6.610  0.9393 -1.8140  2.9294
16888SOL     OW56755   8.968   1.255   2.399 -0.0951 -0.0714  0.1282
16888SOL    HW156756   8.963   1.188   2.467 -0.3377  0.0519  0.2360
16888SOL    HW256757   8.947   1.337   2.445  0.3487  0.1042  0.0336
16889SOL     OW56758   1.152   6.219   7.391 -0.3712  0.2784 -0.2420
16889SOL    HW156759   1.095   6.251   7.321  1.6225 -0.7849 -2.5399
16889SOL    HW256760   1.228   6.277   7.388  0.0565 -0.2241  0.5550
16890SOL     OW56761   6.209   0.146   5.336 -0.7797 -0.2731 -1.1129
16890SOL    HW156762   6.225   0.203   5.411  1.3583 -0.8339 -1.0976
16890SOL    HW256763   6.215   0.204   5.260 -0.0561 -0.2140 -1.0132
16891SOL     OW56764   3.048   5.986   0.966 -0.2832  0.0922 -0.3579
16891SOL    HW156765   3.141   5.988   0.945 -0.2347 -1.9581 -0.5868
16891SOL    HW256766   3.044   5.993   1.061  0.1499 -0.3066 -0.3049
16892SOL     OW56767   2.860   1.580   5.773 -0.2005  0.4878  0.1037
16892SOL    HW156768   2.887   1.575   5.682  1.4590  0.3259  0.5692
16892SOL    HW256769   2.873   1.491   5.807 -0.6788  0.5763  0.5387
16893SOL     OW56770   1.190   8.194   8.520  0.3953  0.2435  0.0728
16893SOL    HW156771   1.280   8.168   8.543  0.1950 -0.9502 -0.4590
16893SOL    HW256772   1.191   8.200   8.424 -0.9420 -3.2539 -0.2892
16894SOL     OW56773   6.322   7.676   6.364 -0.2788  0.2304 -0.7601
16894SOL    HW156774   6.416   7.663   6.352 -0.2017  0.3544 -0.3138
16894SOL    HW256775   6.283   7.591   6.345 -0.1994  0.4721 -2.1494
16895SOL     OW56776   2.007   1.530   6.174  0.7907  0.1622 -0.1314
16895SOL    HW156777   1.953   1.500   6.101  1.7113  0.9534 -1.1757
16895SOL    HW256778   1.944   1.555   6.242 -0.2234  1.4816 -1.4711
16896SOL     OW56779   2.961   7.318   5.578  0.5445  0.1223 -0.0204
16896SOL    HW156780   2.953   7.368   5.659  0.2519 -0.2190  0.1662
16896SOL    HW256781   3.055   7.309   5.565  0.5971 -0.0668  0.4413
16897SOL     OW56782  10.029   6.491  10.766  0.4723  0.2307  0.5521
16897SOL    HW156783   9.994   6.425  10.706  1.8291 -0.4653  0.4761
16897SOL    HW256784   9.959   6.505  10.830  0.7488 -2.7026  1.6765
16898SOL     OW56785   0.698   0.358   5.367 -0.0122 -0.2188 -0.6171
16898SOL    HW156786   0.678   0.372   5.460  0.7873 -1.2803 -0.2536
16898SOL    HW256787   0.622   0.392   5.320  0.5866  2.5691  0.2536
16899SOL     OW56788   1.821   5.103   1.722  0.3456 -0.5033  0.2334
16899SOL    HW156789   1.733   5.073   1.743 -0.9544  1.2187 -2.2183
16899SOL    HW256790   1.809   5.166   1.650  3.4731  0.6422  0.5312
16900SOL     OW56791   6.159   5.704  10.776  0.2354  0.6892  0.1679
16900SOL    HW156792   6.138   5.709  10.682 -0.5687  2.0177  0.3910
16900SOL    HW256793   6.110   5.627  10.807 -0.7214  1.1373 -0.2122
16901SOL     OW56794   6.128   9.855   9.853 -0.2507  0.1806  0.1371
16901SOL    HW156795   6.063   9.913   9.815 -0.1808  0.5300  0.5381
16901SOL    HW256796   6.089   9.768   9.848 -0.0652  0.1531 -1.1165
16902SOL     OW56797   2.588   2.668   3.695 -0.2191 -0.3006 -0.3919
16902SOL    HW156798   2.642   2.605   3.646  0.4094  0.8253 -1.1747
16902SOL    HW256799   2.603   2.752   3.652 -1.1798  0.3727  0.5345
16903SOL     OW56800   6.802   1.622   8.440 -0.3528 -0.8384 -0.0491
16903SOL    HW156801   6.712   1.619   8.473  0.1364 -2.5948  1.2699
16903SOL    HW256802   6.804   1.700   8.385 -2.0237  0.6820  1.8543
16904SOL     OW56803   3.603   0.259   9.485  0.0586  0.0534  0.5475
16904SOL    HW156804   3.688   0.301   9.472 -0.0033  0.0713  0.1913
16904SOL    HW256805   3.564   0.306   9.559  1.1871 -1.2390  2.0298
16905SOL     OW56806   6.187   3.941   4.649  0.7274  0.1188  0.0664
16905SOL    HW156807   6.100   3.919   4.618  1.4882 -1.4296 -1.1530
16905SOL    HW256808   6.177   4.026   4.693 -1.1214  0.6156 -1.1993
16906SOL     OW56809   3.326   0.844   3.462  0.1780 -0.0770  0.7225
16906SOL    HW156810   3.314   0.770   3.402 -1.1900  1.1749 -0.6460
16906SOL    HW256811   3.373   0.807   3.537  0.4892 -2.0742 -0.3863
16907SOL     OW56812   0.633   0.872   6.599  0.3421  0.0070 -0.0965
16907SOL    HW156813   0.544   0.894   6.575  0.1799 -0.9483 -0.4016
16907SOL    HW256814   0.642   0.778   6.579  1.5224  0.1690 -0.4222
16908SOL     OW56815   6.693   4.873   6.427  0.3032  0.2584  0.3509
16908SOL    HW156816   6.738   4.954   6.404 -1.2950  1.6137  1.7766
16908SOL    HW256817   6.728   4.849   6.513  0.2824 -0.2061  0.2332
16909SOL     OW56818   1.469   5.094   9.923 -0.6883  0.3004 -0.2808
16909SOL    HW156819   1.438   5.172   9.877 -1.6475 -1.0635 -2.0746
16909SOL    HW256820   1.390   5.044   9.943 -0.0395 -0.6652 -0.0086
16910SOL     OW56821   7.488  10.254   2.567  0.5376 -0.4143  0.0444
16910SOL    HW156822   7.488  10.245   2.472 -1.2328 -2.6585  0.1530
16910SOL    HW256823   7.570  10.298   2.588  0.4761  1.1064 -2.5726
16911SOL     OW56824   2.002   5.929   2.555  0.3048  0.8073 -0.0048
16911SOL    HW156825   2.069   5.861   2.560 -0.8338 -0.3001  1.1684
16911SOL    HW256826   2.049   6.011   2.568  1.5330  0.1250 -0.0664
16912SOL     OW56827   3.157   3.312   1.793 -0.1983  0.2882  0.1594
16912SOL    HW156828   3.076   3.287   1.837 -1.0487  1.6788 -0.5686
16912SOL    HW256829   3.219   3.242   1.817 -2.1494 -1.9796 -0.9792
16913SOL     OW56830   6.485   2.834   1.552  0.3008  0.4411  0.9676
16913SOL    HW156831   6.577   2.860   1.564  0.5596  0.1662 -0.2187
16913SOL    HW256832   6.478   2.815   1.458 -0.7144 -0.5514  1.2169
16914SOL     OW56833   4.077   6.361   2.718 -0.3582 -0.1605  0.0905
16914SOL    HW156834   4.105   6.397   2.802  1.7745 -1.1345 -0.1226
16914SOL    HW256835   4.034   6.433   2.673  0.9242  1.1741  0.9382
16915SOL     OW56836   1.054   6.467   8.181  0.0516 -0.3068 -0.3102
16915SOL    HW156837   1.120   6.443   8.117  1.5300  2.1043  0.1733
16915SOL    HW256838   1.027   6.384   8.220  0.4105 -1.6547 -2.7362
16916SOL     OW56839   8.809   4.522   3.842 -0.4153 -0.1443 -0.1746
16916SOL    HW156840   8.729   4.489   3.883  0.1986 -0.6267  0.6642
16916SOL    HW256841   8.833   4.455   3.778 -1.0965  0.3700 -0.9888
16917SOL     OW56842   2.694   8.133   9.956  0.3657 -0.4194 -0.3120
16917SOL    HW156843   2.676   8.227   9.951  1.6691 -0.1968 -1.3528
16917SOL    HW256844   2.620   8.097  10.004  0.4947  1.3205  1.2935
16918SOL     OW56845   2.212   8.196   8.725 -0.2297  0.8550 -0.3972
16918SOL    HW156846   2.226   8.106   8.755  1.9510  1.4015  0.3865
16918SOL    HW256847   2.126   8.219   8.761  0.0163 -0.2734  1.0248
16919SOL     OW56848   2.984   2.576   3.165 -0.2729  0.1710  0.5773
16919SOL    HW156849   3.002   2.522   3.241  0.5458  0.4412  0.5793
16919SOL    HW256850   2.961   2.662   3.200  1.8324  0.8054  0.4986
16920SOL     OW56851   9.666   0.200   6.285  0.0001  0.5690 -0.0701
16920SOL    HW156852   9.709   0.221   6.368  0.4787  1.3491 -0.5035
16920SOL    HW256853   9.732   0.220   6.219 -0.0549 -0.9034 -0.6079
16921SOL     OW56854   1.881   8.130   7.048  0.5526  0.1758  0.3523
16921SOL    HW156855   1.843   8.159   6.965  1.4864  0.1687 -0.0939
16921SOL    HW256856   1.835   8.181   7.115 -1.1191 -0.7292 -0.0445
16922SOL     OW56857   5.820   4.515   4.507 -0.6369  0.2526 -0.0067
16922SOL    HW156858   5.867   4.488   4.428  0.1379  0.7527  0.2619
16922SOL    HW256859   5.731   4.532   4.478 -0.2722  0.7861 -0.8636
16923SOL     OW56860   1.176   7.166  10.455  0.1418 -0.1797  0.0380
16923SOL    HW156861   1.218   7.144  10.372  0.9355  0.5949  0.2322
16923SOL    HW256862   1.248   7.172  10.518 -0.5055 -1.4194  0.9432
16924SOL     OW56863   0.477   4.151   0.260 -0.3302 -0.5379 -0.5687
16924SOL    HW156864   0.569   4.147   0.284  0.1210 -0.2658 -2.1579
16924SOL    HW256865   0.431   4.156   0.344  1.1606  0.5883  0.2450
16925SOL     OW56866   7.962   4.757   7.481 -0.0692  0.6424 -0.4630
16925SOL    HW156867   7.956   4.810   7.402 -0.1846  1.0351 -0.1950
16925SOL    HW256868   7.906   4.682   7.464 -0.2003  0.7938 -0.7049
16926SOL     OW56869   3.367   6.971   7.208  0.2822  0.3087 -0.3602
16926SOL    HW156870   3.336   6.885   7.180 -1.4214  1.1104 -1.1103
16926SOL    HW256871   3.299   7.003   7.267 -0.6006  2.2755 -2.2972
16927SOL     OW56872  10.370   7.037   0.017  0.8826 -0.2077 -0.2202
16927SOL    HW156873  10.462   7.055  -0.004  1.2131 -3.0264 -1.7180
16927SOL    HW256874  10.368   6.943   0.034 -1.9174 -0.4447 -1.4264
16928SOL     OW56875   7.612   6.387   5.384 -0.0822 -0.0582  0.1688
16928SOL    HW156876   7.684   6.439   5.348 -0.8702  0.8215 -0.1689
16928SOL    HW256877   7.545   6.451   5.406 -0.6195 -0.8312  0.8388
16929SOL     OW56878   5.205   4.395   2.608  0.3156  0.1224  0.1450
16929SOL    HW156879   5.248   4.464   2.558  0.7302 -0.7382 -0.7077
16929SOL    HW256880   5.146   4.442   2.667 -0.8598  1.1379 -1.7462
16930SOL     OW56881   3.286   8.410   7.867 -0.2057 -0.2474 -0.2381
16930SOL    HW156882   3.289   8.454   7.952  0.6020 -0.3727 -0.1983
16930SOL    HW256883   3.373   8.424   7.829 -0.8862  0.7120 -1.5126
16931SOL     OW56884   5.885   2.785   5.117  0.2404 -0.1832 -0.2897
16931SOL    HW156885   5.807   2.738   5.144  0.7170 -0.6978  0.2355
16931SOL    HW256886   5.955   2.748   5.171  1.2372 -1.2196 -2.1477
16932SOL     OW56887   5.725   7.103   6.861  0.3278 -0.1969 -0.1800
16932SOL    HW156888   5.802   7.086   6.807  0.4194 -1.1647  0.2457
16932SOL    HW256889   5.732   7.042   6.934  0.0508  0.9036  0.7814
16933SOL     OW56890   1.910   1.595   2.585 -0.2455  0.4696 -0.0033
16933SOL    HW156891   1.969   1.670   2.583  1.1358 -0.5221 -3.2144
16933SOL    HW256892   1.828   1.627   2.547  0.5133  0.3266 -1.8706
16934SOL     OW56893   8.088   4.289   6.547  0.4481  0.3124 -0.5315
16934SOL    HW156894   8.141   4.216   6.516 -0.7761  0.0118 -2.0367
16934SOL    HW256895   7.997   4.260   6.536 -0.1013  0.7806  2.0279
16935SOL     OW56896   9.161   4.956   9.561 -0.1163  0.4486 -0.2481
16935SOL    HW156897   9.111   4.923   9.487  2.7781  0.4106 -2.3755
16935SOL    HW256898   9.186   4.877   9.610  0.7904  0.1079 -1.2238
16936SOL     OW56899   3.440   1.298   7.109  0.0032 -0.0963 -0.0874
16936SOL    HW156900   3.428   1.312   7.015 -0.0500 -3.6865 -0.7538
16936SOL    HW256901   3.525   1.337   7.128  0.3048  0.1663 -1.7891
16937SOL     OW56902   5.648   6.487   0.707  0.1383  0.1007  0.0195
16937SOL    HW156903   5.710   6.510   0.637  1.9506 -0.0604  1.5065
16937SOL    HW256904   5.667   6.396   0.726  0.7959  0.5654  1.7727
16938SOL     OW56905   7.323   6.891   9.679 -0.7387  0.0259  0.3356
16938SOL    HW156906   7.354   6.953   9.612  0.2594 -0.2979  0.4736
16938SOL    HW256907   7.347   6.933   9.762 -1.9366  0.4065  0.5023
16939SOL     OW56908   9.385   3.021   8.466  0.1953  0.5180  0.1560
16939SOL    HW156909   9.312   3.010   8.527  0.8435  0.5133  0.9593
16939SOL    HW256910   9.363   2.966   8.391 -0.4577  0.2369  0.5500
16940SOL     OW56911   9.493   2.550   3.659 -0.1239  0.1290  0.0414
16940SOL    HW156912   9.428   2.563   3.729 -0.4511  2.0691 -0.5614
16940SOL    HW256913   9.450   2.490   3.598 -0.6129 -0.0674  0.5695
16941SOL     OW56914   1.177  10.327   4.209 -0.1802 -0.1574 -0.6795
16941SOL    HW156915   1.127  10.246   4.199 -1.2845  0.5257 -0.8462
16941SOL    HW256916   1.111  10.394   4.228  0.4382  1.1452 -2.8377
16942SOL     OW56917   4.251   7.184  10.691 -0.2001  0.1563 -0.0779
16942SOL    HW156918   4.236   7.247  10.762 -1.7819  0.6405 -0.8080
16942SOL    HW256919   4.215   7.102  10.724 -1.5948  0.5463 -0.5522
16943SOL     OW56920  10.160   9.275   0.787  0.0014  0.5522 -0.0675
16943SOL    HW156921  10.223   9.330   0.740  1.1685 -0.0845  0.7185
16943SOL    HW256922  10.204   9.252   0.869 -1.2192  0.0088  0.4572
16944SOL     OW56923   0.081   9.769   9.246 -0.1505 -0.4067  0.0552
16944SOL    HW156924   0.038   9.854   9.234  2.3361  1.0520  0.6708
16944SOL    HW256925   0.038   9.711   9.184 -1.3896  1.5237 -0.9871
16945SOL     OW56926   2.846   8.856   0.206  0.2556  0.3750  0.0178
16945SOL    HW156927   2.796   8.811   0.274  0.5428 -0.4208 -0.2907
16945SOL    HW256928   2.917   8.796   0.184 -1.3383 -0.6245 -2.9046
16946SOL     OW56929   1.156   0.523   2.967  0.3422  0.1928  0.0673
16946SOL    HW156930   1.137   0.560   3.054 -0.4932  0.0967 -0.0667
16946SOL    HW256931   1.125   0.433   2.973  3.0825 -0.8054  0.6523
16947SOL     OW56932   2.562   6.691   8.185 -0.1848 -0.0149 -0.1929
16947SOL    HW156933   2.549   6.786   8.184 -4.3619 -0.4154 -0.3299
16947SOL    HW256934   2.529   6.663   8.270 -0.4965 -1.4945 -0.7713
16948SOL     OW56935   1.528   4.699   8.551  0.0746 -0.1022  0.6510
16948SOL    HW156936   1.508   4.782   8.593  0.8757  0.3997  0.0627
16948SOL    HW256937   1.497   4.632   8.612 -2.0058  0.6177  0.4645
16949SOL     OW56938   1.919   4.642   1.461 -0.0770  0.0521  0.6226
16949SOL    HW156939   1.887   4.554   1.483  0.1448  0.1507  1.3905
16949SOL    HW256940   2.014   4.634   1.465 -0.0654  0.5246  1.5625
16950SOL     OW56941   1.363   1.165   5.436 -0.9433 -0.1809  0.0892
16950SOL    HW156942   1.440   1.173   5.379 -0.3193  0.8836  1.0349
16950SOL    HW256943   1.351   1.071   5.448  0.8003 -0.3700  0.6631
16951SOL     OW56944   9.223   8.143   9.735  0.2176 -0.3778  0.4874
16951SOL    HW156945   9.203   8.061   9.780 -1.2558 -0.1997  0.1999
16951SOL    HW256946   9.298   8.178   9.783 -1.0726 -0.3462  2.6243
16952SOL     OW56947   4.883   3.976   8.221 -0.1300 -0.0800  0.3703
16952SOL    HW156948   4.788   3.979   8.213 -0.0447  0.2287 -0.8322
16952SOL    HW256949   4.900   3.963   8.314 -1.3129  1.4622  0.8307
16953SOL     OW56950  10.210   2.796   4.544  0.3152  0.5038 -0.1673
16953SOL    HW156951  10.143   2.826   4.605  1.3102 -0.2819  1.3664
16953SOL    HW256952  10.260   2.731   4.593  1.7139  0.4963 -1.5290
16954SOL     OW56953   9.369   1.031   9.544 -0.4450 -0.3133 -0.2202
16954SOL    HW156954   9.385   0.946   9.586  0.2512 -0.6841 -1.1880
16954SOL    HW256955   9.403   1.095   9.606 -0.0772 -0.8020  0.0956
16955SOL     OW56956   3.883   1.984  10.363  0.0175 -0.0559  0.5031
16955SOL    HW156957   3.973   1.964  10.390 -0.2115 -0.6755  0.8266
16955SOL    HW256958   3.846   1.900  10.338  0.3739  0.5245 -2.3624
16956SOL     OW56959  10.657   3.878   5.807  0.0535 -0.4901 -0.0636
16956SOL    HW156960  10.590   3.845   5.747  0.9176 -0.9596 -0.8117
16956SOL    HW256961  10.672   3.968   5.779 -0.2622 -0.3873  0.1004
16957SOL     OW56962   8.079   0.559   9.038  0.1766  0.2530  0.4298
16957SOL    HW156963   7.996   0.523   9.070  0.7408 -0.8180  0.7385
16957SOL    HW256964   8.071   0.654   9.050 -0.5689  0.0691  1.5032
16958SOL     OW56965   1.353   2.914   0.519 -0.0896 -0.2119  0.3962
16958SOL    HW156966   1.271   2.960   0.500 -0.5647 -1.6027 -1.0760
16958SOL    HW256967   1.332   2.857   0.593 -0.0470  0.4187  0.9104
16959SOL     OW56968   2.814   7.034   7.634  0.3388 -0.5000 -0.6312
16959SOL    HW156969   2.745   7.100   7.626  0.5736 -0.3147 -1.1261
16959SOL    HW256970   2.807   7.004   7.725  1.8954  2.0401  0.4236
16960SOL     OW56971   8.545   2.248   2.417 -0.0851  0.1193 -0.0245
16960SOL    HW156972   8.519   2.159   2.439  1.6225 -0.0860  1.3785
16960SOL    HW256973   8.601   2.237   2.340  1.5172 -0.2742  1.1418
16961SOL     OW56974   5.661   3.450   1.221 -0.4171 -0.9638 -0.0985
16961SOL    HW156975   5.575   3.422   1.254 -0.1491 -1.1522  0.4467
16961SOL    HW256976   5.642   3.525   1.165 -1.1921 -2.3394 -1.7718
16962SOL     OW56977   7.614   3.882   1.833 -0.3077 -0.4276 -0.6638
16962SOL    HW156978   7.524   3.913   1.841 -0.2760 -0.6419  0.7626
16962SOL    HW256979   7.631   3.836   1.915  0.7880 -1.2338 -1.3188
16963SOL     OW56980   6.135   1.957   4.015 -0.2314  0.2124  0.5485
16963SOL    HW156981   6.160   1.915   3.933  0.4955 -2.4818  2.0388
16963SOL    HW256982   6.064   2.017   3.991  1.5951  1.3842 -2.3642
16964SOL     OW56983   4.591   1.765   0.006 -0.5746  0.3341 -0.1048
16964SOL    HW156984   4.568   1.783   0.097  0.1277 -1.7129  0.5185
16964SOL    HW256985   4.687   1.764   0.005 -0.3870  3.8586 -1.6631
16965SOL     OW56986   2.318   1.115   6.632 -0.3357  0.2933  0.2636
16965SOL    HW156987   2.382   1.045   6.616  1.3731  1.1279  2.8896
16965SOL    HW256988   2.342   1.184   6.570 -0.1203 -0.2543 -0.2760
16966SOL     OW56989   7.393   4.335   2.769  0.2004  0.2815 -0.5982
16966SOL    HW156990   7.435   4.375   2.845 -1.4853  0.8450  0.0941
16966SOL    HW256991   7.333   4.271   2.807  1.1186 -1.2218 -1.5984
16967SOL     OW56992   9.918   3.007   6.858  0.5212 -0.3464 -0.0687
16967SOL    HW156993   9.999   2.994   6.808  0.7046 -1.2670  0.4405
16967SOL    HW256994   9.908   2.926   6.909 -0.0504  0.2748  0.8286
16968SOL     OW56995   9.582   0.812   8.897 -0.3070  0.5457 -0.2747
16968SOL    HW156996   9.612   0.897   8.866 -0.4292  0.4992 -0.5335
16968SOL    HW256997   9.596   0.813   8.991  1.5620  0.0950 -0.5091
16969SOL     OW56998   3.281   3.815   4.917  0.5432 -0.2194  0.2350
16969SOL    HW156999   3.366   3.858   4.923 -0.0623  1.4262 -1.7961
16969SOL    HW257000   3.292   3.747   4.851  0.2399  0.1761 -0.2329
16970SOL     OW57001   9.160   4.463   0.963 -0.1697 -0.1595 -0.4732
16970SOL    HW157002   9.195   4.377   0.937 -0.0685 -0.0225 -0.7992
16970SOL    HW257003   9.138   4.505   0.880  0.4093  0.3947 -0.3530
16971SOL     OW57004   1.239   1.326   4.929 -0.3664 -0.1791  0.3358
16971SOL    HW157005   1.211   1.235   4.920  2.4733 -1.3154  1.8350
16971SOL    HW257006   1.245   1.339   5.024 -0.4933  1.5187  0.1312
16972SOL     OW57007   1.384   5.349   5.799 -0.5176 -0.0154 -0.1356
16972SOL    HW157008   1.370   5.300   5.880  0.9514  1.5770  1.1584
16972SOL    HW257009   1.441   5.293   5.746 -1.4038 -1.0214 -0.0569
16973SOL     OW57010   5.556   5.587   3.059  0.0403 -0.5063 -1.0094
16973SOL    HW157011   5.523   5.538   3.134  0.8762  0.8280  0.2817
16973SOL    HW257012   5.478   5.631   3.023 -0.1218  0.1688  0.1207
16974SOL     OW57013   9.578   7.957   3.237 -0.3620 -0.4109 -0.5520
16974SOL    HW157014   9.529   7.877   3.250 -0.8911 -0.1449 -0.8650
16974SOL    HW257015   9.534   8.001   3.163 -1.2544  1.0738  0.7976
16975SOL     OW57016   6.565   1.049   0.778 -0.3389 -0.3393 -0.0747
16975SOL    HW157017   6.503   0.979   0.799 -3.1371  2.2781  1.3386
16975SOL    HW257018   6.561   1.058   0.683 -3.3654  0.5879  0.0316
16976SOL     OW57019   8.107   8.935   9.961 -0.0215  0.2412  0.1953
16976SOL    HW157020   8.056   8.887   9.896 -0.4401 -0.1736  0.8162
16976SOL    HW257021   8.098   8.884  10.042 -0.2654  1.2160  0.8094
16977SOL     OW57022   0.676   4.951   8.247 -0.0625  0.0118 -0.3441
16977SOL    HW157023   0.678   4.955   8.152 -0.0510  0.7963 -0.3166
16977SOL    HW257024   0.621   5.026   8.273  0.8998  0.5090  0.3075
16978SOL     OW57025   6.458   1.971   5.615  0.7469  0.0269  0.1974
16978SOL    HW157026   6.446   1.877   5.601 -1.6652  0.3930 -0.6633
16978SOL    HW257027   6.446   2.010   5.528  0.5762  1.2105  0.7262
16979SOL     OW57028   0.036   5.756   8.787  0.0903 -0.0157  0.2683
16979SOL    HW157029   0.018   5.825   8.724  2.1476 -0.2455 -0.6556
16979SOL    HW257030  -0.015   5.681   8.755 -1.5015  0.7734  0.8187
16980SOL     OW57031   7.022   0.926  10.714 -0.4636 -0.8411  0.1170
16980SOL    HW157032   7.056   0.892  10.632  1.7802 -0.7493  0.9437
16980SOL    HW257033   7.053   1.016  10.718 -1.3361 -0.5479  0.6487
16981SOL     OW57034  10.852   9.098   7.299 -0.0164  0.3771  0.3853
16981SOL    HW157035  10.896   9.063   7.221  1.4973  0.0777  1.3305
16981SOL    HW257036  10.841   9.191   7.281 -0.8043  0.0999 -0.6697
16982SOL     OW57037   7.597   0.271   8.373 -0.1200  0.0882  0.0742
16982SOL    HW157038   7.592   0.358   8.332  0.7728  0.3067  0.4144
16982SOL    HW257039   7.548   0.280   8.454  0.6856  0.5299  0.5249
16983SOL     OW57040   8.242  10.118   0.867 -0.0207 -0.0191 -0.1858
16983SOL    HW157041   8.281  10.206   0.858 -1.0144  0.5068  0.4742
16983SOL    HW257042   8.275  10.070   0.791 -0.0514  1.1597 -0.9876
16984SOL     OW57043   8.824   7.988   6.230  0.1976 -0.0897 -0.0598
16984SOL    HW157044   8.907   8.026   6.260 -0.8958  2.2551  0.2417
16984SOL    HW257045   8.762   8.060   6.234 -2.8453 -2.5258  3.3388
16985SOL     OW57046   4.672   9.960   5.352 -0.1129 -0.2087 -0.1771
16985SOL    HW157047   4.708   9.912   5.426 -0.8094  0.8878  0.9273
16985SOL    HW257048   4.585   9.922   5.339 -0.4704  0.3803  0.3828
16986SOL     OW57049   5.455   4.693   2.991  0.2530 -0.3186  0.4219
16986SOL    HW157050   5.409   4.733   3.065  0.6416 -0.4554  0.7420
16986SOL    HW257051   5.539   4.738   2.988  0.8616 -1.3918  1.0508
16987SOL     OW57052   1.114   9.206  10.815  0.7241  0.1816 -0.0789
16987SOL    HW157053   1.161   9.225  10.896 -0.5526  1.1852  0.4529
16987SOL    HW257054   1.055   9.280  10.803 -0.4357 -0.8369 -0.9407
16988SOL     OW57055   1.776   5.149   8.514 -0.1288 -0.0218  0.0415
16988SOL    HW157056   1.682   5.137   8.498  0.1599 -0.0188 -1.9279
16988SOL    HW257057   1.804   5.210   8.445  1.0581  1.1200  1.4848
16989SOL     OW57058   6.812   4.810   6.916  0.1753  0.6257 -0.5047
16989SOL    HW157059   6.810   4.773   7.004  0.5973 -1.0534 -1.1586
16989SOL    HW257060   6.720   4.815   6.889  0.1347 -0.8934 -0.7432
16990SOL     OW57061   5.120   1.125  10.610  0.2997  0.3254 -0.1823
16990SOL    HW157062   5.154   1.054  10.556  0.2550 -0.0403  0.2643
16990SOL    HW257063   5.027   1.104  10.621  0.1880  0.6895 -0.4113
16991SOL     OW57064   6.720   4.171   3.236  0.2287  0.1097 -0.2059
16991SOL    HW157065   6.806   4.159   3.195 -0.2888 -2.2907 -0.7670
16991SOL    HW257066   6.657   4.154   3.165 -0.7685  2.4871  0.0173
16992SOL     OW57067   4.085   7.284   6.100 -0.2352 -0.1723  0.8426
16992SOL    HW157068   4.139   7.269   6.177 -0.7967  0.1588  1.3136
16992SOL    HW257069   3.995   7.285   6.134 -0.5189 -0.4477  0.1183
16993SOL     OW57070   2.947   7.175   8.546 -0.5773 -0.3499 -0.3746
16993SOL    HW157071   3.015   7.213   8.601 -1.5044 -0.9255  1.2156
16993SOL    HW257072   2.931   7.089   8.584 -2.3147 -0.1657 -0.6309
16994SOL     OW57073   2.192   1.972  10.807  0.0134 -0.6578  0.0252
16994SOL    HW157074   2.183   1.878  10.792  0.2085 -0.5268 -1.0008
16994SOL    HW257075   2.273   1.981  10.858  1.8300 -0.8537 -2.6328
16995SOL     OW57076   2.121   6.672   4.386  0.5040  0.3030 -0.7067
16995SOL    HW157077   2.183   6.607   4.422  0.3627 -0.7231 -2.2353
16995SOL    HW257078   2.119   6.742   4.452  0.6011 -1.2664  1.0537
16996SOL     OW57079   1.044   3.194   8.496  0.2884  0.4758 -0.1260
16996SOL    HW157080   1.014   3.236   8.416  1.6296  3.4330  0.7755
16996SOL    HW257081   1.134   3.226   8.508 -0.0459  0.5955  2.8169
16997SOL     OW57082   3.206  10.276   9.018 -0.2085 -0.0433 -0.3314
16997SOL    HW157083   3.241  10.346   9.072  0.7471 -0.7205 -0.0400
16997SOL    HW257084   3.113  10.271   9.042  0.6190 -1.9425  3.1787
16998SOL     OW57085  10.692   3.317   9.096  0.2365  0.3997  0.0706
16998SOL    HW157086  10.708   3.271   9.013 -0.3650 -0.6359  0.5193
16998SOL    HW257087  10.599   3.339   9.093 -0.5686 -2.3363  1.7538
16999SOL     OW57088  10.086   4.171   2.475  0.4412 -0.3199 -0.6422
16999SOL    HW157089  10.176   4.190   2.502  0.4335 -1.1110 -0.0160
16999SOL    HW257090  10.032   4.223   2.535  0.4628 -0.6234 -0.3584
17000SOL     OW57091   3.497   4.579   9.436  0.3149 -0.1096  0.3933
17000SOL    HW157092   3.416   4.627   9.417 -0.1825 -0.2969  1.8957
17000SOL    HW257093   3.494   4.502   9.380  1.2055  1.6055 -2.2034
17001SOL     OW57094   5.468   8.780   2.243  0.0734  0.2677  0.5224
17001SOL    HW157095   5.448   8.863   2.286  0.8165  0.8826 -0.2642
17001SOL    HW257096   5.526   8.734   2.303  1.6552  1.4104 -0.0446
17002SOL     OW57097   4.379   2.476   2.103  0.3587 -0.0892  0.4260
17002SOL    HW157098   4.338   2.390   2.107 -1.8348  0.9274  1.5257
17002SOL    HW257099   4.403   2.488   2.011 -2.6940 -0.4281 -0.5038
17003SOL     OW57100   6.551   5.739   8.275  0.1818 -0.2205 -0.7353
17003SOL    HW157101   6.496   5.747   8.352  1.2048  2.7687 -0.1887
17003SOL    HW257102   6.638   5.716   8.309 -0.0434 -2.1829 -1.3524
17004SOL     OW57103   0.167   9.563   1.443 -1.1420 -0.7355 -0.8974
17004SOL    HW157104   0.216   9.501   1.497  2.7085  0.9323 -2.1203
17004SOL    HW257105   0.210   9.647   1.456 -1.1028  0.1347 -5.0445
17005SOL     OW57106   7.469   0.898   3.985  0.2652 -0.2078 -0.3257
17005SOL    HW157107   7.448   0.875   4.076  1.3367 -1.4990 -0.3668
17005SOL    HW257108   7.453   0.992   3.979 -1.8574 -0.4588  0.6094
17006SOL     OW57109   8.593   8.760   8.614 -0.1668  0.0296  0.6747
17006SOL    HW157110   8.621   8.705   8.687 -0.2543 -0.8649  0.0428
17006SOL    HW257111   8.498   8.766   8.624 -0.2479 -0.5905  0.2938
17007SOL     OW57112   2.322   5.093   1.832  0.2884  0.2396  0.4151
17007SOL    HW157113   2.330   5.080   1.737 -1.6550  0.2247  0.2031
17007SOL    HW257114   2.346   5.185   1.845  2.6530 -0.3112  0.2496
17008SOL     OW57115   4.481   7.377   7.311  0.1041 -0.4203  0.6771
17008SOL    HW157116   4.444   7.465   7.304  0.3641 -0.2153  1.7044
17008SOL    HW257117   4.440   7.340   7.390 -1.3436 -1.8924 -0.6696
17009SOL     OW57118   6.747   8.506   1.095  0.2059 -0.1103 -0.5719
17009SOL    HW157119   6.782   8.436   1.151  0.8644  0.4223 -0.2991
17009SOL    HW257120   6.775   8.587   1.138 -1.2023  0.3393 -0.4615
17010SOL     OW57121   8.924   8.605   1.316 -0.2668  0.1780 -0.7221
17010SOL    HW157122   8.940   8.698   1.327  0.8563  0.1610 -1.9179
17010SOL    HW257123   8.912   8.571   1.405  2.5484  0.9214  0.0255
17011SOL     OW57124   6.673   9.994   4.689  0.2664  0.7981  0.8054
17011SOL    HW157125   6.579  10.005   4.703  0.0568  2.2330 -1.2907
17011SOL    HW257126   6.714  10.055   4.750  0.1275 -2.1117  4.1300
17012SOL     OW57127   0.587   0.522   5.824  0.1827  1.0782  0.2284
17012SOL    HW157128   0.628   0.490   5.904 -0.4363  1.5223  0.7375
17012SOL    HW257129   0.493   0.511   5.839 -0.0305  2.7081  0.2588
17013SOL     OW57130   4.950   7.224   2.145  0.1675  0.8367 -0.2821
17013SOL    HW157131   4.996   7.156   2.194  0.1307 -0.2456 -1.7030
17013SOL    HW257132   4.890   7.262   2.209 -0.6211 -1.2253  0.2892
17014SOL     OW57133  10.432   2.615   9.474  0.0100  0.5830  0.2702
17014SOL    HW157134  10.471   2.555   9.411 -0.1480  1.6440 -0.8816
17014SOL    HW257135  10.352   2.571   9.503  1.8051 -1.5196  2.4908
17015SOL     OW57136   1.940   5.714  10.893  0.3185  0.6200  0.6745
17015SOL    HW157137   1.950   5.626  10.928 -0.5967  1.0152  1.9862
17015SOL    HW257138   1.916   5.700  10.801 -0.7585 -0.5366  1.0957
17016SOL     OW57139   6.511   8.036   4.354 -0.7191 -0.1275  0.0933
17016SOL    HW157140   6.545   7.947   4.364 -0.7295 -0.0680  0.6753
17016SOL    HW257141   6.573   8.078   4.294 -1.1594 -0.7565 -0.8366
17017SOL     OW57142   7.141   1.132   7.035  0.3715 -0.2815 -0.4668
17017SOL    HW157143   7.101   1.140   7.121  2.2078 -0.3126  0.4532
17017SOL    HW257144   7.140   1.221   6.999 -0.6785 -0.3256 -0.5656
17018SOL     OW57145   6.322   4.832   1.393  0.2411  0.1974 -0.5096
17018SOL    HW157146   6.359   4.870   1.473 -0.0758  1.9556 -1.1599
17018SOL    HW257147   6.372   4.872   1.322 -0.3567 -0.3332 -1.2483
17019SOL     OW57148   1.405   0.783   6.588 -0.3991 -0.3377 -0.3026
17019SOL    HW157149   1.326   0.834   6.570 -1.0711 -1.2842 -0.1308
17019SOL    HW257150   1.467   0.808   6.520 -1.6154 -1.1778 -1.7752
17020SOL     OW57151   7.312   4.213   5.486 -0.2299  0.1556 -0.2471
17020SOL    HW157152   7.275   4.295   5.453  0.9371  1.0240  0.5435
17020SOL    HW257153   7.363   4.178   5.413  0.3252  0.8048 -0.1776
17021SOL     OW57154   8.130   8.639   0.659 -0.3254 -0.1855 -0.0853
17021SOL    HW157155   8.098   8.667   0.573  0.5193 -1.9083 -0.9955
17021SOL    HW257156   8.220   8.670   0.663 -0.8292  1.2892  0.8927
17022SOL     OW57157   5.450   3.422   3.443  0.0361  0.3241  0.3462
17022SOL    HW157158   5.432   3.473   3.522 -0.7210  1.2152 -0.3801
17022SOL    HW257159   5.545   3.407   3.446  0.2555  1.6204  0.6716
17023SOL     OW57160   0.953   9.608   6.331 -0.2668 -0.1196 -0.2748
17023SOL    HW157161   0.982   9.570   6.414 -0.1267 -0.8546 -0.6548
17023SOL    HW257162   1.026   9.664   6.304  0.0899 -0.6231 -0.3737
17024SOL     OW57163   4.120   7.322   4.598 -0.4091  0.5520  0.5102
17024SOL    HW157164   4.191   7.366   4.644  2.7239 -0.0056 -3.2776
17024SOL    HW257165   4.156   7.236   4.574 -2.5150  0.0407 -1.1918
17025SOL     OW57166  10.529   0.266   2.762  0.2401  0.1862 -0.5962
17025SOL    HW157167  10.486   0.301   2.684 -0.6555 -0.8239 -0.5890
17025SOL    HW257168  10.465   0.280   2.833  0.2463 -0.5967 -0.4237
17026SOL     OW57169   1.578   7.065   9.008  0.0698  0.2660  0.2478
17026SOL    HW157170   1.566   7.108   9.093  1.3112  1.6400 -0.2272
17026SOL    HW257171   1.530   7.119   8.946 -0.1235 -0.2581 -0.0698
17027SOL     OW57172   7.793   7.797   2.870 -0.1403  0.6590  0.1401
17027SOL    HW157173   7.842   7.858   2.815 -1.9236  0.7568 -1.4585
17027SOL    HW257174   7.823   7.710   2.844  0.2535  0.7561  0.2641
17028SOL     OW57175  10.544   2.751   7.484 -0.0752  0.5052  0.2213
17028SOL    HW157176  10.632   2.714   7.496 -0.7398 -1.8463 -1.4330
17028SOL    HW257177  10.486   2.675   7.485 -2.0244  1.9329  0.4327
17029SOL     OW57178   8.871   7.080   6.468 -0.2479 -0.2636  0.1239
17029SOL    HW157179   8.830   7.048   6.387 -1.5496  1.3939  0.0802
17029SOL    HW257180   8.951   7.028   6.476  0.3366  0.0632 -2.6322
17030SOL     OW57181   3.254  10.425   6.044 -0.5832 -0.3369 -0.3401
17030SOL    HW157182   3.236  10.366   5.970  0.1706 -0.0701 -0.7468
17030SOL    HW257183   3.169  10.442   6.082 -0.9365 -0.8254 -0.8924
17031SOL     OW57184   3.548   0.482   6.124 -0.4933 -0.0352 -0.1482
17031SOL    HW157185   3.571   0.393   6.152 -0.2258 -0.0697 -0.4737
17031SOL    HW257186   3.471   0.470   6.068 -1.9196  0.1683  1.6916
17032SOL     OW57187   2.784   5.551   1.847 -0.0066 -0.2353 -0.4111
17032SOL    HW157188   2.784   5.567   1.941 -0.8298  0.3504 -0.4993
17032SOL    HW257189   2.871   5.578   1.818 -0.2552  1.0309 -0.0421
17033SOL     OW57190   3.422   1.394   1.475 -0.0668 -0.3038 -0.6297
17033SOL    HW157191   3.368   1.436   1.542 -0.9391 -0.7853 -1.0192
17033SOL    HW257192   3.422   1.457   1.402 -1.8708 -1.1698 -1.4496
17034SOL     OW57193   7.186  10.736   2.097  0.0003  0.3533 -0.2931
17034SOL    HW157194   7.141  10.652   2.089  0.6195  0.0322 -0.4705
17034SOL    HW257195   7.279  10.715   2.086  0.1746  1.0422 -0.2088
17035SOL     OW57196  10.590   8.988   4.090  0.6756 -0.5722 -0.0970
17035SOL    HW157197  10.572   9.080   4.072  1.6920 -0.3481 -0.0069
17035SOL    HW257198  10.638   8.958   4.013 -0.4899 -1.2961 -0.5656
17036SOL     OW57199   2.360  10.094   9.731 -0.3923  0.1511 -0.0098
17036SOL    HW157200   2.369  10.135   9.645 -2.0025  2.6144  0.8789
17036SOL    HW257201   2.357  10.168   9.792 -1.9232 -1.3803  1.8884
17037SOL     OW57202   9.237   2.722   8.407 -0.3359  0.2621  0.2544
17037SOL    HW157203   9.290   2.643   8.399  2.5123  2.1308 -0.6941
17037SOL    HW257204   9.222   2.732   8.501 -0.4188 -1.1897  0.4077
17038SOL     OW57205   3.185   0.351   3.048  0.2415  0.6258 -0.3046
17038SOL    HW157206   3.217   0.440   3.037 -0.2283  0.7136 -1.0570
17038SOL    HW257207   3.100   0.361   3.091 -0.3495  0.6357 -1.4322
17039SOL     OW57208   8.573   3.548   7.616 -0.1014  0.4598 -0.0106
17039SOL    HW157209   8.598   3.631   7.656 -0.8577  1.1405 -0.8935
17039SOL    HW257210   8.621   3.481   7.666 -0.7030  1.2891  1.7653
17040SOL     OW57211   9.087   7.612   6.609  0.4536 -0.4147  0.1978
17040SOL    HW157212   9.002   7.627   6.652  0.0567  2.6786 -1.4194
17040SOL    HW257213   9.065   7.566   6.528  0.8640 -3.2738  1.5885
17041SOL     OW57214   7.474   9.778  10.679 -0.0204  0.0083  0.3439
17041SOL    HW157215   7.485   9.762  10.773  1.7788  1.0072  0.3462
17041SOL    HW257216   7.487   9.692  10.639  1.0735 -0.1179  0.9149
17042SOL     OW57217   2.045  10.865   9.731 -0.2455 -0.4495 -0.0218
17042SOL    HW157218   1.960  10.885   9.691 -0.5415  1.6912  1.5210
17042SOL    HW257219   2.109  10.884   9.663 -0.8556  1.0766 -0.2009
17043SOL     OW57220   4.417   6.332   4.491  0.4092  0.1650  0.2040
17043SOL    HW157221   4.451   6.296   4.573 -1.2883  0.6577  1.1732
17043SOL    HW257222   4.348   6.392   4.518 -0.8842 -0.4044 -1.6373
17044SOL     OW57223   8.714   8.944   7.179  0.1391  0.0593  0.2179
17044SOL    HW157224   8.654   8.870   7.171 -1.2225  1.0428  0.8911
17044SOL    HW257225   8.789   8.908   7.226 -0.7087 -0.7970  0.9814
17045SOL     OW57226   7.674   4.109   6.885 -0.0507 -0.6132 -0.5481
17045SOL    HW157227   7.606   4.152   6.834 -1.5616 -3.1872 -0.8456
17045SOL    HW257228   7.645   4.116   6.976  0.7358  0.6844 -0.3737
17046SOL     OW57229   3.321   0.241   4.004  0.2883 -0.2280 -0.0290
17046SOL    HW157230   3.294   0.166   3.950 -0.5201 -0.3416  0.5040
17046SOL    HW257231   3.329   0.314   3.942  1.0933 -0.7576 -0.5523
17047SOL     OW57232  10.495   0.474   0.664  0.8159 -0.0967 -0.2057
17047SOL    HW157233  10.464   0.435   0.583  0.1920 -1.8569  0.8269
17047SOL    HW257234  10.421   0.526   0.696  0.4742 -0.7340  0.0503
17048SOL     OW57235   6.595   2.897   3.028 -0.0859  0.2506 -0.5083
17048SOL    HW157236   6.517   2.842   3.030 -0.5824  0.9315 -0.5866
17048SOL    HW257237   6.667   2.838   3.051 -0.5499 -0.4989 -0.9247
17049SOL     OW57238   5.153   8.137   6.443 -0.3358 -0.3161 -0.5934
17049SOL    HW157239   5.239   8.176   6.428 -0.0079 -0.3820  0.9271
17049SOL    HW257240   5.167   8.043   6.430 -0.2762 -0.2797 -0.7855
17050SOL     OW57241   2.213   6.186   7.180  0.4960  0.4380 -0.4224
17050SOL    HW157242   2.193   6.179   7.086  1.7104  1.5943 -0.7901
17050SOL    HW257243   2.163   6.262   7.209 -0.2597 -0.2048 -0.0016
17051SOL     OW57244   3.637   0.311   6.615 -0.1139 -0.2626  0.2592
17051SOL    HW157245   3.660   0.357   6.534 -0.0034 -1.7955 -0.6184
17051SOL    HW257246   3.546   0.336   6.632 -0.9178 -1.6673 -1.6393
17052SOL     OW57247   2.645   9.178   1.438 -0.3574  0.7421  0.0627
17052SOL    HW157248   2.686   9.144   1.518  0.1909 -0.4222 -0.6877
17052SOL    HW257249   2.602   9.102   1.399 -0.8507  1.3570 -0.6154
17053SOL     OW57250   3.229   9.589   5.805  0.7031  0.1829 -0.5271
17053SOL    HW157251   3.316   9.580   5.842  0.3533 -1.1808  0.0553
17053SOL    HW257252   3.232   9.537   5.724  0.2657 -0.3929 -0.1802
17054SOL     OW57253   1.581   2.001   0.369 -0.0366  0.1510 -0.2853
17054SOL    HW157254   1.536   2.082   0.393 -0.3451 -0.0962 -0.0240
17054SOL    HW257255   1.660   2.031   0.323 -1.4344  0.5868 -2.6045
17055SOL     OW57256   2.013   2.284   0.733  0.2847 -0.5028 -0.0628
17055SOL    HW157257   2.069   2.349   0.776 -2.6164  0.9801  1.7887
17055SOL    HW257258   2.046   2.200   0.764  1.7150  0.2823  0.6318
17056SOL     OW57259   8.543   4.121  10.781  0.9158 -0.2907  0.5625
17056SOL    HW157260   8.525   4.066  10.705  0.1340  0.5828  0.1018
17056SOL    HW257261   8.532   4.062  10.856  0.7554 -0.9250  0.0498
17057SOL     OW57262   1.903   3.625   0.595  0.0752  0.2498  0.3380
17057SOL    HW157263   1.867   3.597   0.679 -0.1186 -1.9821 -0.4117
17057SOL    HW257264   1.947   3.547   0.561  0.5950  1.2473 -1.4123
17058SOL     OW57265   3.727   1.509   1.543 -0.0557  0.2370 -0.1824
17058SOL    HW157266   3.647   1.458   1.554  0.2160 -0.3815 -0.9800
17058SOL    HW257267   3.724   1.538   1.452  0.9142 -0.2828 -0.3819
17059SOL     OW57268   7.748   9.465   3.493 -0.3461 -0.1437 -0.5231
17059SOL    HW157269   7.789   9.383   3.468 -1.1613 -0.3046 -1.3786
17059SOL    HW257270   7.771   9.476   3.585  0.6896 -0.7613 -0.6890
17060SOL     OW57271   6.323   3.685   9.922  0.1981  0.3547  0.5305
17060SOL    HW157272   6.363   3.762   9.963 -1.3183  1.7640 -0.4988
17060SOL    HW257273   6.231   3.710   9.909 -0.2884 -1.5676 -0.0268
17061SOL     OW57274  10.676   6.699  10.201 -0.4785 -0.3428 -0.0767
17061SOL    HW157275  10.739   6.631  10.225  2.5035  2.5402  1.0646
17061SOL    HW257276  10.688   6.711  10.107  0.1053 -0.3910 -0.0146
17062SOL     OW57277   7.056   1.820   4.561 -0.2329 -0.0304 -1.0205
17062SOL    HW157278   6.961   1.818   4.562 -0.2723  0.7364 -1.4916
17062SOL    HW257279   7.084   1.746   4.614 -1.0874 -0.8900 -1.7470
17063SOL     OW57280   8.777   9.766   3.707  0.2283  0.1872 -0.4393
17063SOL    HW157281   8.816   9.680   3.699  0.8546  0.4126  0.0879
17063SOL    HW257282   8.779   9.802   3.618  1.4650  0.2915 -0.3892
17064SOL     OW57283   5.809   9.761   2.935  0.4522 -0.3120 -0.3326
17064SOL    HW157284   5.720   9.755   2.901  0.2693 -0.9647  0.2195
17064SOL    HW257285   5.825   9.855   2.945 -0.8047 -0.2163  1.1435
17065SOL     OW57286  10.306   3.452   3.837  0.1715  0.4251  0.2630
17065SOL    HW157287  10.249   3.504   3.894 -0.9743 -0.3460 -0.1402
17065SOL    HW257288  10.323   3.510   3.762  0.8880  1.0798  0.9055
17066SOL     OW57289   7.630   0.569   5.628  0.5536 -0.3444 -0.5704
17066SOL    HW157290   7.671   0.584   5.713  1.2235 -2.7010 -0.4027
17066SOL    HW257291   7.547   0.617   5.632  0.6841 -0.1970  1.2979
17067SOL     OW57292   9.112   4.227   2.826  0.7091  0.0349 -0.2445
17067SOL    HW157293   9.123   4.201   2.917  1.4564 -1.2524 -0.6789
17067SOL    HW257294   9.187   4.189   2.780  0.7166  1.2340 -1.2904
17068SOL     OW57295   0.553   9.664   3.036 -0.0533 -0.5741 -0.3308
17068SOL    HW157296   0.623   9.714   2.993 -0.8677  0.9689  0.0473
17068SOL    HW257297   0.594   9.628   3.115  0.0651  1.3857  0.5726
17069SOL     OW57298  10.074   2.684   6.151  0.5492  0.0714  0.0625
17069SOL    HW157299  10.134   2.611   6.165 -0.4085 -0.4671  1.6755
17069SOL    HW257300  10.090   2.743   6.225  0.3189  0.7953 -0.4498
17070SOL     OW57301   5.744  10.189   8.959 -0.3864 -0.4458  0.4541
17070SOL    HW157302   5.795  10.160   9.035 -2.4901 -0.8020  1.8398
17070SOL    HW257303   5.768  10.128   8.889  1.2211 -0.4380  0.9708
17071SOL     OW57304   7.432   7.810   6.082 -0.5533  0.3094  0.1617
17071SOL    HW157305   7.488   7.883   6.107  0.4914 -0.4974  0.2273
17071SOL    HW257306   7.482   7.732   6.105 -1.0186 -0.4448 -1.2655
17072SOL     OW57307   0.245   4.740   9.792 -0.0598  0.2020 -0.0461
17072SOL    HW157308   0.243   4.749   9.697  1.0604 -1.6910 -0.3107
17072SOL    HW257309   0.321   4.792   9.819  0.3786 -0.2593 -0.3606
17073SOL     OW57310   6.151  10.558   1.973 -0.7198 -0.1230 -0.0173
17073SOL    HW157311   6.115  10.639   2.010 -0.2082 -0.4240  1.2019
17073SOL    HW257312   6.240  10.552   2.010  0.2969  0.1599 -2.2777
17074SOL     OW57313   3.950   3.034   4.788  0.0434  0.1407  0.0604
17074SOL    HW157314   3.975   3.080   4.868  0.8912  1.7660 -1.0569
17074SOL    HW257315   3.927   2.946   4.816  1.9675  0.1468  1.8778
17075SOL     OW57316   8.250   9.717   1.654  0.2102  0.7221  1.0444
17075SOL    HW157317   8.242   9.638   1.601 -1.5133  0.7605  1.1891
17075SOL    HW257318   8.340   9.746   1.641  1.5578 -2.3544  2.6099
17076SOL     OW57319   8.093   3.902   9.540 -0.5794  0.4412  0.4744
17076SOL    HW157320   8.049   3.842   9.479 -0.9809  2.3633 -1.2407
17076SOL    HW257321   8.104   3.851   9.620  0.0189 -2.2551 -1.1873
17077SOL     OW57322   5.932   3.337   2.540  0.5255  0.0021 -0.4005
17077SOL    HW157323   5.987   3.366   2.613 -0.4551 -0.4287  0.5398
17077SOL    HW257324   5.846   3.321   2.580 -0.1448  0.1499 -1.7330
17078SOL     OW57325   5.439   1.229   3.643  0.1632 -0.2937  0.4715
17078SOL    HW157326   5.344   1.216   3.639  0.0442  0.6937 -0.1148
17078SOL    HW257327   5.471   1.194   3.560  0.3685 -0.9285  0.8051
17079SOL     OW57328  10.511   6.658   5.170  0.3598 -0.4128  0.1381
17079SOL    HW157329  10.558   6.656   5.087  0.5042 -2.1863  0.2283
17079SOL    HW257330  10.516   6.568   5.203  0.1096  0.1944  1.9523
17080SOL     OW57331   5.928   6.984  10.556  0.0165  0.0789  0.2636
17080SOL    HW157332   5.956   7.012  10.469 -1.8415 -0.6366 -0.6412
17080SOL    HW257333   5.916   6.889  10.547 -0.6973  0.0771  1.1415
17081SOL     OW57334   2.273  10.630   1.420 -0.3781  0.4418  0.0627
17081SOL    HW157335   2.297  10.720   1.442 -0.5614  0.4821  0.0986
17081SOL    HW257336   2.266  10.629   1.324 -1.0054  0.6251  0.1027
17082SOL     OW57337   8.624   8.986   4.497  0.1100  0.2881 -0.0112
17082SOL    HW157338   8.581   8.953   4.418  1.5920 -1.9151  0.0087
17082SOL    HW257339   8.553   9.018   4.552 -0.8839  3.1686 -2.6971
17083SOL     OW57340   4.652   3.460   3.587  0.3607  0.3738 -0.5137
17083SOL    HW157341   4.572   3.420   3.553 -0.5142  0.6364  1.1288
17083SOL    HW257342   4.638   3.554   3.574  0.6997  0.3779 -0.8402
17084SOL     OW57343   2.955   6.422   5.056  0.4122 -0.6920  0.1044
17084SOL    HW157344   3.050   6.415   5.070  0.2738 -0.8192  1.0846
17084SOL    HW257345   2.920   6.438   5.144 -0.6128 -2.1264 -0.0182
17085SOL     OW57346   4.101   0.920   3.698 -0.3542  0.0290  0.2716
17085SOL    HW157347   4.151   0.931   3.779  0.5267 -0.1697 -0.2365
17085SOL    HW257348   4.141   0.845   3.655 -1.3494 -0.3865  0.0295
17086SOL     OW57349   5.306   6.051   4.576  0.7312  0.1124 -0.5063
17086SOL    HW157350   5.341   6.117   4.636 -0.3105  0.9498 -0.7919
17086SOL    HW257351   5.215   6.041   4.603  0.9263 -1.3834 -0.3336
17087SOL     OW57352   4.119   0.856  10.078 -0.4513 -0.1753 -0.2699
17087SOL    HW157353   4.141   0.856   9.984 -0.0661 -0.2576 -0.1789
17087SOL    HW257354   4.186   0.802  10.119 -1.2268 -1.0218 -0.0804
17088SOL     OW57355   0.153   8.654   7.769 -0.2301 -0.4690 -0.2483
17088SOL    HW157356   0.062   8.654   7.742 -0.3952  0.4113  0.2908
17088SOL    HW257357   0.200   8.612   7.696 -0.8661  0.4001 -1.1668
17089SOL     OW57358   8.667   2.455   0.782 -0.1420 -0.1939  0.2740
17089SOL    HW157359   8.592   2.507   0.752  0.1173 -0.0072 -0.0504
17089SOL    HW257360   8.736   2.520   0.798 -0.2257 -0.3002  1.1388
17090SOL     OW57361   0.681   3.470   4.960  0.2255 -0.1889 -0.2838
17090SOL    HW157362   0.644   3.384   4.940  0.8782 -0.8959  1.3672
17090SOL    HW257363   0.776   3.458   4.954  0.3239  0.4426 -0.1539
17091SOL     OW57364   4.293   2.000   8.041 -0.2420  0.3729 -0.5829
17091SOL    HW157365   4.327   2.059   8.108 -0.3691 -1.5731  1.2703
17091SOL    HW257366   4.364   1.939   8.023 -1.4639 -1.5613  0.7654
17092SOL     OW57367   4.686   5.151   9.979 -0.7504  0.4837 -0.1781
17092SOL    HW157368   4.753   5.191   9.922 -0.5716  0.0348 -0.2834
17092SOL    HW257369   4.736   5.106  10.047 -0.9506  0.3554 -0.1149
17093SOL     OW57370   8.536   9.451   6.088 -0.8347 -0.2153  0.0096
17093SOL    HW157371   8.569   9.397   6.160 -0.7607 -0.5330 -0.2672
17093SOL    HW257372   8.578   9.536   6.103 -1.0632 -0.1851  0.5254
17094SOL     OW57373  10.889   5.437   0.770 -0.0723  0.0229 -0.0846
17094SOL    HW157374  10.865   5.345   0.782  1.9150 -0.7107 -1.2019
17094SOL    HW257375  10.959   5.451   0.834 -0.7390  0.9382  0.4588
17095SOL     OW57376   7.749   9.306   6.778 -0.2714  0.5961  0.5834
17095SOL    HW157377   7.693   9.379   6.752 -0.1162 -0.1295 -2.0614
17095SOL    HW257378   7.838   9.341   6.773 -0.2532  0.5275  0.4356
17096SOL     OW57379   5.901  10.922   8.735 -0.0636  0.8533 -0.3561
17096SOL    HW157380   5.865  11.004   8.702 -1.1591  0.5499  0.0285
17096SOL    HW257381   5.832  10.857   8.720 -1.4709  1.0219  4.0412
17097SOL     OW57382   4.056   9.941   3.431 -0.3595  0.0421 -0.0899
17097SOL    HW157383   4.039  10.034   3.450 -0.1583  0.0491  0.0692
17097SOL    HW257384   4.134   9.921   3.483  0.5603  0.2157 -1.3839
17098SOL     OW57385   5.356   1.673   5.143  0.1055  0.1117  0.1105
17098SOL    HW157386   5.399   1.600   5.189  0.6308  0.6420  0.4733
17098SOL    HW257387   5.287   1.631   5.091  2.8869 -1.1926 -2.8756
17099SOL     OW57388   7.608   0.573   6.397 -0.3641  0.1781  0.5053
17099SOL    HW157389   7.686   0.517   6.400  1.0594  2.0879  1.7944
17099SOL    HW257390   7.564   0.558   6.480 -1.2370 -0.6352 -0.0767
17100SOL     OW57391   5.329   5.715   7.570 -0.4259  0.1574 -0.1377
17100SOL    HW157392   5.310   5.727   7.476  0.5996  0.8056 -0.2900
17100SOL    HW257393   5.281   5.637   7.595 -1.9143  0.7998 -0.8480
17101SOL     OW57394   0.006   2.233   0.962  0.2005  0.7616 -0.2161
17101SOL    HW157395  -0.003   2.286   0.882 -1.5895 -0.1472 -0.6705
17101SOL    HW257396  -0.074   2.180   0.964  2.0868 -2.2652 -0.0335
17102SOL     OW57397  10.861   8.355   6.874  0.4502 -0.0080  0.5620
17102SOL    HW157398  10.947   8.330   6.840  0.1338  0.5894 -0.7582
17102SOL    HW257399  10.878   8.427   6.935  1.2194 -2.2879  3.2328
17103SOL     OW57400   2.298   7.727   3.822 -0.1979 -0.9526  0.0131
17103SOL    HW157401   2.304   7.813   3.782  0.0374 -0.0357  1.9109
17103SOL    HW257402   2.227   7.683   3.775 -0.8794  0.5847 -0.4540
17104SOL     OW57403   0.820   7.037   0.901  0.1302  0.4789  0.3750
17104SOL    HW157404   0.787   6.988   0.825 -0.9998  0.4882  0.8337
17104SOL    HW257405   0.876   6.974   0.947  0.6635  0.4116 -0.3445
17105SOL     OW57406   8.798   8.388   3.968  0.3607 -0.4820 -0.2100
17105SOL    HW157407   8.772   8.297   3.959  2.0299 -1.1130  0.8267
17105SOL    HW257408   8.825   8.414   3.879 -2.0050 -0.2996 -0.9497
17106SOL     OW57409   1.305   0.691   5.217  0.4800 -0.0444 -0.3563
17106SOL    HW157410   1.290   0.710   5.124 -2.9911  1.7983  0.4139
17106SOL    HW257411   1.233   0.632   5.241  0.3047  0.8533  1.4969
17107SOL     OW57412   2.638   8.658   1.457  1.1389  0.2448  0.1521
17107SOL    HW157413   2.563   8.700   1.415  1.3060 -0.6857 -1.1362
17107SOL    HW257414   2.606   8.633   1.544 -0.3733 -0.9309 -0.6835
17108SOL     OW57415   3.941   7.821  10.428 -0.2898 -0.5036 -0.5980
17108SOL    HW157416   3.872   7.815  10.362  0.2064 -2.2203 -1.0214
17108SOL    HW257417   3.898   7.859  10.504 -1.3185 -0.1284 -1.3462
17109SOL     OW57418   8.259   4.108   8.164 -0.9634  0.2346 -0.8988
17109SOL    HW157419   8.342   4.075   8.130  0.1859 -0.9945  2.6732
17109SOL    HW257420   8.280   4.194   8.200 -1.2024 -0.0776  0.0162
17110SOL     OW57421   5.700   7.156   4.763  0.2919  0.1743  0.1235
17110SOL    HW157422   5.778   7.192   4.720 -0.1349 -1.3250 -2.0958
17110SOL    HW257423   5.627   7.203   4.723 -0.1070 -1.0324 -0.6089
17111SOL     OW57424   8.356  10.569   8.395  0.2537  0.0271  0.1300
17111SOL    HW157425   8.408  10.553   8.474  1.3884  0.5365 -0.4879
17111SOL    HW257426   8.375  10.660   8.372 -3.3991  1.3757  1.6527
17112SOL     OW57427   8.672   3.776   7.715  0.3691 -0.0791  0.2438
17112SOL    HW157428   8.742   3.772   7.779 -2.2819 -2.1872  3.3153
17112SOL    HW257429   8.659   3.870   7.699  2.6988  0.3993  0.8027
17113SOL     OW57430   6.144   1.587   1.852 -0.6739 -0.3964  0.2663
17113SOL    HW157431   6.071   1.605   1.911  0.1060 -0.0307  1.1321
17113SOL    HW257432   6.170   1.497   1.873 -1.1897 -0.7202 -0.4102
17114SOL     OW57433   6.881   5.451   5.382 -0.4333  0.0261  0.2015
17114SOL    HW157434   6.969   5.413   5.378 -0.1835  0.7236 -1.8080
17114SOL    HW257435   6.870   5.476   5.474  0.7445 -1.6994  0.8527
17115SOL     OW57436   2.795   7.399   2.010  0.3809  0.4277  0.1919
17115SOL    HW157437   2.839   7.321   2.045  2.0286  1.2298 -0.0046
17115SOL    HW257438   2.703   7.387   2.034  1.0786 -0.1068  2.8668
17116SOL     OW57439   3.863   9.099   9.959  0.2686  0.1744 -0.1041
17116SOL    HW157440   3.809   9.022   9.973 -1.0000  1.0681  0.0305
17116SOL    HW257441   3.860   9.146  10.042  1.7052 -0.0256  0.0835
17117SOL     OW57442   7.199   3.730   9.084  0.2068  0.1875  0.0530
17117SOL    HW157443   7.261   3.798   9.056 -0.5536  1.3089  1.0079
17117SOL    HW257444   7.206   3.663   9.017  1.5690  0.8383 -0.5044
17118SOL     OW57445   1.552   0.941   8.448  0.3338 -0.2202 -0.1519
17118SOL    HW157446   1.537   0.955   8.354 -2.2730 -2.4749 -0.1979
17118SOL    HW257447   1.642   0.912   8.454  0.4831 -0.2495 -1.9868
17119SOL     OW57448   3.619   1.252   5.945  0.0687 -0.0018  0.2194
17119SOL    HW157449   3.567   1.296   6.012 -1.7249 -3.3432  1.2354
17119SOL    HW257450   3.565   1.255   5.866 -0.0319 -0.2910  0.2754
17120SOL     OW57451   2.715   6.822   1.274  0.2268  0.2460  0.2690
17120SOL    HW157452   2.711   6.727   1.264 -0.2320  0.1838  0.9571
17120SOL    HW257453   2.766   6.835   1.354 -0.5970  0.5422  0.7542
17121SOL     OW57454   0.858  10.287   7.876 -0.0144 -0.4560 -0.5369
17121SOL    HW157455   0.929  10.339   7.913 -1.3640  1.6550 -0.7357
17121SOL    HW257456   0.902  10.218   7.826  1.8499  0.0796  0.2815
17122SOL     OW57457   0.475   1.510   3.406  0.4839 -0.2252  0.4519
17122SOL    HW157458   0.413   1.452   3.364 -0.1145  0.0577  0.9265
17122SOL    HW257459   0.558   1.494   3.361 -0.5230  1.5680 -2.2841
17123SOL     OW57460   1.266   0.695   9.954  0.1149  0.0561  0.1916
17123SOL    HW157461   1.270   0.702   9.859  0.9644 -2.2603 -0.0063
17123SOL    HW257462   1.187   0.645   9.972  0.7521 -0.8373  0.5816
17124SOL     OW57463   5.995  10.061   7.901  0.1894 -0.2823  0.7685
17124SOL    HW157464   5.928  10.097   7.843  0.0617 -1.2707  0.2748
17124SOL    HW257465   5.998   9.968   7.879  1.4500 -0.3313  1.0566
17125SOL     OW57466   9.676   2.185   7.244  0.2476 -0.6918  0.3344
17125SOL    HW157467   9.633   2.103   7.221  0.8171 -1.1908  1.0415
17125SOL    HW257468   9.765   2.175   7.211 -0.4831  0.9537 -2.5694
17126SOL     OW57469   7.027   8.761   7.879 -0.3215  0.3049  0.3406
17126SOL    HW157470   6.957   8.737   7.940 -0.9849  2.2909  0.4324
17126SOL    HW257471   7.032   8.687   7.818 -0.8574 -0.9275  1.7245
17127SOL     OW57472   2.956   1.978   2.039  0.2249 -1.0231  0.3421
17127SOL    HW157473   2.992   2.065   2.024 -0.5787 -0.8342 -0.6665
17127SOL    HW257474   2.966   1.963   2.133 -0.4116  0.5262  0.6914
17128SOL     OW57475   7.564   0.706   1.379  0.0129 -0.2728  0.7288
17128SOL    HW157476   7.499   0.734   1.444 -0.8636  0.3850 -0.3899
17128SOL    HW257477   7.516   0.704   1.297  1.2815 -0.3843 -0.0369
17129SOL     OW57478   5.121   4.540   8.482 -0.0086 -0.2381 -0.4589
17129SOL    HW157479   5.026   4.551   8.483  0.1103  1.0394  0.7396
17129SOL    HW257480   5.155   4.629   8.490  1.2273 -0.8308  1.8514
17130SOL     OW57481   1.901   6.965   8.348  0.0262  0.3291  0.6845
17130SOL    HW157482   1.985   6.926   8.325  0.3592  1.5080 -0.2090
17130SOL    HW257483   1.847   6.953   8.271 -0.6021 -0.3163  1.2146
17131SOL     OW57484   1.082   4.249   5.903  0.1669  0.8009  0.3664
17131SOL    HW157485   1.090   4.280   5.993 -0.3638 -0.5883  0.9264
17131SOL    HW257486   1.051   4.325   5.854  1.8684  1.9830  1.0526
17132SOL     OW57487  10.606   6.004   7.412  0.2929  0.2881  0.0172
17132SOL    HW157488  10.516   5.972   7.408  1.2805 -2.9301  0.6221
17132SOL    HW257489  10.614   6.042   7.500 -0.1274 -0.6716  0.4829
17133SOL     OW57490   9.770  10.615   3.676 -0.2512 -0.0577  0.1052
17133SOL    HW157491   9.777  10.702   3.715 -0.3458  0.1188 -0.2653
17133SOL    HW257492   9.742  10.631   3.586  0.6392 -0.4226 -0.2490
17134SOL     OW57493   4.671   5.662   9.200 -0.3807  0.8104  0.1888
17134SOL    HW157494   4.678   5.754   9.175  0.4335  0.6938 -0.0264
17134SOL    HW257495   4.760   5.636   9.224 -0.4806 -0.0862 -0.3627
17135SOL     OW57496   8.324   1.584   3.749  0.1404 -0.2127  0.2250
17135SOL    HW157497   8.253   1.626   3.702 -0.5881 -2.1227 -0.4585
17135SOL    HW257498   8.404   1.619   3.709 -0.4132  0.9740  0.1267
17136SOL     OW57499   5.905   3.218   9.799 -0.0248 -0.6212  0.0052
17136SOL    HW157500   5.826   3.257   9.763  0.6825  0.2628 -0.6538
17136SOL    HW257501   5.894   3.124   9.787 -2.1436 -0.7721  2.3958
17137SOL     OW57502   4.443   7.644   0.325 -0.3382 -0.8904  0.0768
17137SOL    HW157503   4.512   7.580   0.310 -0.5698 -1.1007 -0.0928
17137SOL    HW257504   4.455   7.671   0.416 -0.4157 -1.3916  0.2387
17138SOL     OW57505   3.925   4.587   8.622  0.1761 -0.1760 -0.4802
17138SOL    HW157506   3.836   4.587   8.589 -0.0130 -0.4741  0.0171
17138SOL    HW257507   3.916   4.577   8.717  0.7378 -0.2809 -0.4302
17139SOL     OW57508   6.159   7.909   0.921  0.2875  0.2170 -0.0654
17139SOL    HW157509   6.186   7.866   1.002  1.6436  0.3892 -0.3952
17139SOL    HW257510   6.063   7.904   0.921  0.3107 -0.4894  1.1500
17140SOL     OW57511   4.094   0.989   0.930  0.1534 -0.4032  0.2488
17140SOL    HW157512   4.024   1.053   0.917 -0.2495 -0.8674  0.1053
17140SOL    HW257513   4.067   0.913   0.879  0.6724 -0.6566  0.3438
17141SOL     OW57514   6.314   9.142   9.417  0.3079  0.4900 -0.3819
17141SOL    HW157515   6.317   9.051   9.448 -3.0452  0.6116  0.7062
17141SOL    HW257516   6.323   9.135   9.322  1.1013 -0.8548 -0.2362
17142SOL     OW57517   2.214   6.177  10.664  0.2979 -0.2643 -0.3691
17142SOL    HW157518   2.170   6.218  10.738  1.3863  1.5918 -0.7066
17142SOL    HW257519   2.249   6.095  10.699 -0.4376 -0.1074  0.7662
17143SOL     OW57520   7.009   1.533   8.240 -0.6369  0.2910 -0.0311
17143SOL    HW157521   7.051   1.613   8.270  0.3795 -0.3387  0.2838
17143SOL    HW257522   6.936   1.562   8.186 -1.2286  1.4404  1.3316
17144SOL     OW57523   0.629   4.175  10.518 -0.1711 -0.0396 -0.0332
17144SOL    HW157524   0.674   4.143  10.597 -0.5711 -1.1717 -0.2408
17144SOL    HW257525   0.658   4.115  10.449  0.0385  0.8391 -0.7154
17145SOL     OW57526   2.906   3.970   2.350 -0.0123  0.3400 -0.0901
17145SOL    HW157527   2.896   3.986   2.443 -1.1973 -0.8702  0.0327
17145SOL    HW257528   2.839   4.025   2.308  2.5228  3.3454 -0.5880
17146SOL     OW57529   4.550   0.235  10.320  0.3098 -0.1572  0.4130
17146SOL    HW157530   4.633   0.279  10.303  1.6154 -2.5509  0.1803
17146SOL    HW257531   4.573   0.161  10.377 -1.3820 -1.7320 -0.8223
17147SOL     OW57532   4.076   8.116   5.148  0.3058  0.5887 -0.0568
17147SOL    HW157533   4.005   8.180   5.138 -0.6284 -0.1792  1.2710
17147SOL    HW257534   4.144   8.163   5.195  0.4352  1.1539 -0.7918
17148SOL     OW57535   4.793   9.258  10.326  0.1560  0.6495  0.5689
17148SOL    HW157536   4.888   9.260  10.342  0.3934 -0.9008 -0.4809
17148SOL    HW257537   4.782   9.194  10.256 -1.8060 -0.1662  1.5726
17149SOL     OW57538   6.114   9.601   9.246 -0.2073  0.3590  0.2280
17149SOL    HW157539   6.020   9.610   9.263  0.3957  1.6618  3.7001
17149SOL    HW257540   6.123   9.614   9.152 -3.5694 -0.9469 -0.4074
17150SOL     OW57541   3.431   8.520   3.794  0.0556  0.1512 -0.2729
17150SOL    HW157542   3.522   8.533   3.822  0.1076 -0.9836  0.1252
17150SOL    HW257543   3.437   8.466   3.715 -0.3037 -0.6154  0.2177
17151SOL     OW57544   7.076   2.609   2.702 -0.3638  0.2164  0.1362
17151SOL    HW157545   7.138   2.665   2.750 -1.0492 -0.0596  1.4019
17151SOL    HW257546   7.013   2.670   2.665 -0.3049  0.3815  0.3026
17152SOL     OW57547   5.585   4.035   6.381 -0.6400 -0.8708  0.2865
17152SOL    HW157548   5.537   3.970   6.433 -1.3695 -0.5038  0.0892
17152SOL    HW257549   5.518   4.073   6.323  0.0186 -0.7790 -0.4276
17153SOL     OW57550   3.549   9.128  10.929  0.0918 -0.5521 -0.6674
17153SOL    HW157551   3.562   9.035  10.912 -0.0918 -0.5482 -0.8376
17153SOL    HW257552   3.609   9.172  10.869  0.9338 -0.5771  0.1362
17154SOL     OW57553   7.644   6.061   2.244 -0.6044  0.0639 -0.6392
17154SOL    HW157554   7.708   6.131   2.256  0.1129 -0.3482 -1.8899
17154SOL    HW257555   7.560   6.106   2.246 -0.3026  0.6202  0.9950
17155SOL     OW57556   9.518   1.664   0.504 -0.2985 -0.2844 -0.6297
17155SOL    HW157557   9.438   1.613   0.494 -1.2669  1.4759 -2.4128
17155SOL    HW257558   9.525   1.715   0.423  0.6525  2.3494  0.9907
17156SOL     OW57559   6.494   9.071   1.040  0.4536 -0.1680  0.2825
17156SOL    HW157560   6.436   9.027   0.978  0.1120  0.3424  0.2312
17156SOL    HW257561   6.559   9.114   0.984 -0.8950  1.7965  0.1383
17157SOL     OW57562   0.744   7.787   1.500 -0.0864  0.0089  0.4714
17157SOL    HW157563   0.742   7.705   1.551  0.7227 -1.4885 -1.7402
17157SOL    HW257564   0.837   7.801   1.482 -0.4126 -0.4217 -1.8577
17158SOL     OW57565   0.344   1.288   8.541  0.2599  0.1738  0.3558
17158SOL    HW157566   0.333   1.360   8.480 -0.7713 -0.1114  0.1922
17158SOL    HW257567   0.411   1.318   8.602  0.2124  1.0583 -0.0174
17159SOL     OW57568   1.665   1.050   9.344  0.2148 -0.2285  0.5372
17159SOL    HW157569   1.688   1.026   9.434 -1.4878  0.4410  1.1826
17159SOL    HW257570   1.593   0.992   9.321 -0.0788  0.3320  0.0039
17160SOL     OW57571   8.997   2.534   8.085 -0.0044 -0.3411 -0.1587
17160SOL    HW157572   9.067   2.599   8.073 -1.7325  1.8316  0.8848
17160SOL    HW257573   8.974   2.507   7.996  0.3060  1.0261 -0.6817
17161SOL     OW57574   9.392   5.599   0.318 -0.1213  0.5534  0.2628
17161SOL    HW157575   9.407   5.528   0.256 -0.3884 -0.5179  1.3745
17161SOL    HW257576   9.410   5.559   0.404 -1.1733  1.5682  0.9743
17162SOL     OW57577   1.581   2.194   4.384 -0.1907  0.7452 -0.6107
17162SOL    HW157578   1.519   2.133   4.344 -0.9483  0.8035  0.4451
17162SOL    HW257579   1.611   2.150   4.464 -0.9012  1.8189  0.2697
17163SOL     OW57580   7.880   5.900  10.199  0.3287  0.1505 -0.0803
17163SOL    HW157581   7.948   5.910  10.265 -0.8835  0.1634  1.2265
17163SOL    HW257582   7.905   5.821  10.150 -0.6910 -2.2413  2.9435
17164SOL     OW57583   8.897   4.232   9.405 -0.1287  0.2920  0.2949
17164SOL    HW157584   8.869   4.254   9.316 -1.4116  2.1411  1.0911
17164SOL    HW257585   8.816   4.225   9.455  0.5721 -0.7630  1.3291
17165SOL     OW57586   7.174   4.626   9.109 -0.2518 -0.1800 -0.0507
17165SOL    HW157587   7.129   4.626   9.024  2.5878 -1.0113 -1.6812
17165SOL    HW257588   7.173   4.535   9.138  0.4444 -0.2349 -0.1742
17166SOL     OW57589   2.830   9.698   1.889  0.4468  0.2099  0.4120
17166SOL    HW157590   2.890   9.732   1.956 -0.1252  0.8208  0.6277
17166SOL    HW257591   2.743   9.722   1.920  0.1502  0.2352 -0.3998
17167SOL     OW57592   4.763   6.024   6.964  0.2574  0.1361 -0.1380
17167SOL    HW157593   4.731   5.939   6.993  0.3478  0.2540  0.3152
17167SOL    HW257594   4.842   6.039   7.017 -0.0927  0.7721  0.2091
17168SOL     OW57595   2.551   5.477   8.711  0.3109 -0.5314  0.4321
17168SOL    HW157596   2.639   5.499   8.681 -0.0942 -0.0009 -0.3995
17168SOL    HW257597   2.504   5.560   8.714 -0.4230 -0.9136 -0.0229
17169SOL     OW57598   8.166   3.120   4.053 -0.2826 -0.4757  0.2128
17169SOL    HW157599   8.202   3.050   4.108  0.4182 -0.4627 -0.2167
17169SOL    HW257600   8.243   3.166   4.021 -0.6772 -0.5697 -0.9023
17170SOL     OW57601   0.847   5.809   8.102 -0.1971  0.2259 -0.4901
17170SOL    HW157602   0.911   5.878   8.085 -0.0660  0.0513 -0.7167
17170SOL    HW257603   0.852   5.794   8.196  1.4931 -1.1119 -0.7299
17171SOL     OW57604   9.920   4.283   1.734  0.1052 -0.2351  0.2464
17171SOL    HW157605   9.882   4.206   1.691 -0.4808 -0.3128  0.8917
17171SOL    HW257606   9.889   4.279   1.824  2.0063 -0.5137  0.9230
17172SOL     OW57607   4.627  10.410   8.544 -0.1178  0.0047 -0.3439
17172SOL    HW157608   4.664  10.393   8.457  1.7734 -0.3905  0.4870
17172SOL    HW257609   4.547  10.459   8.526  0.2387 -0.0286 -2.3082
17173SOL     OW57610   4.618   6.865   6.208  0.3595  0.3718  0.0412
17173SOL    HW157611   4.623   6.847   6.302  0.0359 -1.6472 -0.2792
17173SOL    HW257612   4.708   6.883   6.183  0.6370 -0.2678  0.5389
17174SOL     OW57613   4.499   9.298   0.292  1.0770 -0.0243  0.1954
17174SOL    HW157614   4.545   9.234   0.238  0.5454 -0.0901 -0.1800
17174SOL    HW257615   4.543   9.381   0.273  2.0108 -0.3212  0.9590
17175SOL     OW57616   2.516   3.935   6.284  0.1398  0.7479  0.1423
17175SOL    HW157617   2.476   3.853   6.257  0.4348 -0.4371  2.9677
17175SOL    HW257618   2.484   4.000   6.221 -2.6668 -0.9400 -0.3171
17176SOL     OW57619   5.625   6.298   0.996 -0.0361 -0.3445 -0.3916
17176SOL    HW157620   5.620   6.252   0.912 -0.5017  0.8823 -1.0704
17176SOL    HW257621   5.668   6.381   0.975 -2.0614  0.9092  0.1352
17177SOL     OW57622   7.833   3.959   7.103 -0.1450 -0.0267 -0.1044
17177SOL    HW157623   7.767   4.028   7.111  1.8434  1.7912  2.1415
17177SOL    HW257624   7.915   4.007   7.089  1.0224 -2.0999 -0.7118
17178SOL     OW57625   2.175   7.602   9.768  0.6655  0.1080 -0.3618
17178SOL    HW157626   2.243   7.607   9.836 -2.7218  1.5732  3.2905
17178SOL    HW257627   2.139   7.513   9.777 -0.9452  0.8541  1.1850
17179SOL     OW57628   9.932   0.863  10.864  0.5627  0.2298 -0.4302
17179SOL    HW157629  10.024   0.847  10.842  0.7367  2.0455 -1.1976
17179SOL    HW257630   9.926   0.844  10.958  1.1277 -2.2181 -0.8164
17180SOL     OW57631  10.006   9.179   5.179  0.1629  0.3255  0.1089
17180SOL    HW157632   9.986   9.092   5.214  1.5297 -0.7486 -1.6055
17180SOL    HW257633   9.932   9.200   5.122  0.1632 -0.0469 -0.0294
17181SOL     OW57634   1.127   9.416   3.396 -0.0458  0.0575 -0.2026
17181SOL    HW157635   1.186   9.462   3.336 -0.1930 -0.6605 -0.9284
17181SOL    HW257636   1.040   9.425   3.356 -0.0872 -0.7610 -0.3145
17182SOL     OW57637   7.710   7.542   1.859 -0.0016  0.1889 -0.1517
17182SOL    HW157638   7.717   7.448   1.873  2.0793  0.2521 -0.4691
17182SOL    HW257639   7.618   7.562   1.874 -0.5134 -1.9160 -0.2778
17183SOL     OW57640   6.897   8.248  10.201 -0.1599 -0.5077 -0.4107
17183SOL    HW157641   6.981   8.286  10.226 -0.7496  2.0828 -2.0793
17183SOL    HW257642   6.920   8.162  10.166  1.6500 -0.2866  0.1126
17184SOL     OW57643   4.753   9.160   1.302  0.3663 -0.4262  0.3737
17184SOL    HW157644   4.702   9.235   1.271  0.7806  0.4847  1.7758
17184SOL    HW257645   4.843   9.180   1.277  0.2105 -1.5447 -1.1967
17185SOL     OW57646   0.724   2.915  10.486 -0.1849  0.1697 -0.1279
17185SOL    HW157647   0.665   2.969  10.433 -1.4713 -0.3770  0.6965
17185SOL    HW257648   0.669   2.845  10.520  1.1611 -0.9053 -0.0732
17186SOL     OW57649   2.096   9.710   0.893  0.9087 -0.4473  0.0649
17186SOL    HW157650   2.119   9.790   0.847  0.6994 -0.0377  0.6693
17186SOL    HW257651   2.165   9.699   0.959  2.5631 -2.2932 -1.8026
17187SOL     OW57652   7.693   8.148   0.612  0.7222  0.8585  0.3365
17187SOL    HW157653   7.616   8.194   0.646 -0.4995  0.2644 -1.4503
17187SOL    HW257654   7.704   8.074   0.672 -0.6715  0.4586  0.1500
17188SOL     OW57655   9.367   8.007   4.138 -0.2413  0.4198  0.3560
17188SOL    HW157656   9.311   8.025   4.063  1.9447  1.2881 -1.1639
17188SOL    HW257657   9.330   8.061   4.209 -3.6578 -2.0654  0.7041
17189SOL     OW57658   6.145   7.258   4.185  0.3369  0.0932  0.0872
17189SOL    HW157659   6.078   7.325   4.169 -0.4314 -0.5829  0.3892
17189SOL    HW257660   6.213   7.277   4.121 -1.1802 -0.5877 -1.8481
17190SOL     OW57661   7.329   7.789   6.940  0.4356 -0.1527 -0.0808
17190SOL    HW157662   7.283   7.708   6.921  1.6866 -0.4839 -2.0757
17190SOL    HW257663   7.397   7.794   6.872  1.2537  1.8862  0.8014
17191SOL     OW57664   8.500   3.427   3.251 -0.9538  0.2887 -0.0056
17191SOL    HW157665   8.553   3.507   3.257 -0.5009  0.1217 -1.5210
17191SOL    HW257666   8.532   3.372   3.323 -1.3790  1.5053  1.1695
17192SOL     OW57667   3.550   3.475   8.162  0.2975 -0.1132  0.2933
17192SOL    HW157668   3.489   3.532   8.209 -0.9582 -2.5761  1.8061
17192SOL    HW257669   3.523   3.481   8.070 -0.5826  0.7417  0.5953
17193SOL     OW57670   7.844   3.080   9.797 -0.1576 -0.0825  0.1107
17193SOL    HW157671   7.934   3.107   9.819  0.2349 -0.0691 -1.4028
17193SOL    HW257672   7.844   2.985   9.812  0.7288 -0.4224 -1.6863
17194SOL     OW57673   5.680   0.096   8.350 -0.0243  0.6202  0.2045
17194SOL    HW157674   5.622   0.167   8.323 -1.5174 -0.9157 -0.8421
17194SOL    HW257675   5.627   0.017   8.342  1.1481 -0.5221  2.6058
17195SOL     OW57676   7.835   2.327  10.638  0.3686  0.1553  0.0761
17195SOL    HW157677   7.868   2.358  10.723 -0.9743  2.1215 -0.0398
17195SOL    HW257678   7.763   2.268  10.661 -0.5097  1.2965  0.3489
17196SOL     OW57679   7.170   6.541   3.261 -0.4700 -0.2404 -0.0768
17196SOL    HW157680   7.223   6.526   3.339 -1.9244 -1.5056  0.7036
17196SOL    HW257681   7.156   6.636   3.260  0.0615 -0.1397  0.8596
17197SOL     OW57682   2.553   2.800   9.808  0.6912 -0.8922  0.0620
17197SOL    HW157683   2.577   2.891   9.788 -1.1784  0.0262  1.5824
17197SOL    HW257684   2.634   2.761   9.841  2.4231 -0.8705 -3.6788
17198SOL     OW57685  10.441   6.237  10.132  0.7795 -0.0467  0.2388
17198SOL    HW157686  10.403   6.182  10.201  0.3783 -0.3710 -0.2280
17198SOL    HW257687  10.486   6.175  10.075  1.4155  0.2598  0.4017
17199SOL     OW57688   3.624   6.039  10.283 -0.3076  0.2150  0.2581
17199SOL    HW157689   3.684   6.076  10.219 -1.4385 -0.7411 -1.4304
17199SOL    HW257690   3.571   6.114  10.313 -0.1478  0.5779 -0.3575
17200SOL     OW57691   0.568   1.422  10.641 -0.2429  0.0824  0.2817
17200SOL    HW157692   0.488   1.402  10.594 -0.5392 -0.4315  1.0010
17200SOL    HW257693   0.573   1.518  10.640 -0.4823  0.0954 -0.3765
17201SOL     OW57694   2.252  10.364   0.113 -0.7655 -0.3351  0.2109
17201SOL    HW157695   2.177  10.304   0.111 -1.3338  0.3673  0.1481
17201SOL    HW257696   2.221  10.438   0.165 -0.0113 -0.1661  0.4215
17202SOL     OW57697   5.614   1.926   3.971 -0.4094  0.3407 -0.4448
17202SOL    HW157698   5.660   1.928   4.055 -1.2077 -1.7865  0.0959
17202SOL    HW257699   5.527   1.962   3.991 -0.2888  0.7197 -0.5906
17203SOL     OW57700   8.389   0.553   6.542  0.1852  0.2372  0.0053
17203SOL    HW157701   8.403   0.508   6.459 -1.2668  1.2335 -0.8277
17203SOL    HW257702   8.303   0.523   6.571  0.2124  0.7198  0.6023
17204SOL     OW57703   3.052   0.746   1.656  0.1874  0.0227  0.4545
17204SOL    HW157704   3.144   0.722   1.648  0.7002  1.7131  0.9174
17204SOL    HW257705   3.031   0.787   1.572 -0.2187 -0.5271  0.2772
17205SOL     OW57706   7.938   8.345   5.101  0.3697 -0.6465 -0.0997
17205SOL    HW157707   7.962   8.425   5.054  0.3827 -0.9066 -0.5412
17205SOL    HW257708   8.006   8.334   5.166 -0.9037  1.0542  1.6371
17206SOL     OW57709   7.540   1.956   6.559  0.2598  0.0651 -0.4328
17206SOL    HW157710   7.540   2.020   6.630 -1.0545  0.8747 -1.1063
17206SOL    HW257711   7.515   1.874   6.601  1.0144  0.1913  0.2841
17207SOL     OW57712   3.736   3.534   0.867  0.3133  0.2527  0.0074
17207SOL    HW157713   3.747   3.584   0.786 -0.3443 -0.3608 -0.4705
17207SOL    HW257714   3.676   3.587   0.919  0.8203  0.7009  0.1442
17208SOL     OW57715   6.983   3.372   7.392 -0.7864 -0.2169 -0.2413
17208SOL    HW157716   6.897   3.400   7.360 -1.0050 -1.0497 -0.3963
17208SOL    HW257717   6.966   3.342   7.481 -0.5920 -0.0916 -0.1608
17209SOL     OW57718   5.138   9.737   3.555 -0.3887 -0.0713  0.2736
17209SOL    HW157719   5.232   9.740   3.538 -0.3383 -0.1109  0.5441
17209SOL    HW257720   5.129   9.687   3.636 -0.7431 -1.3245 -0.5166
17210SOL     OW57721   1.058   9.379   4.357 -0.2725  0.3302  0.0873
17210SOL    HW157722   0.977   9.369   4.406 -1.0308 -0.0356 -1.1915
17210SOL    HW257723   1.089   9.467   4.378 -0.8612  0.3793  0.7803
17211SOL     OW57724   2.941   6.743   0.855 -0.3273  0.1796 -0.1480
17211SOL    HW157725   2.892   6.809   0.902  1.0744  1.0483  0.1509
17211SOL    HW257726   3.017   6.789   0.819  1.9232 -1.5925  1.9297
17212SOL     OW57727   6.264   1.843   0.015  0.1980  0.7151  0.2261
17212SOL    HW157728   6.230   1.878  -0.067 -0.1290  1.1910  0.5638
17212SOL    HW257729   6.230   1.901   0.083 -0.5387 -0.3586  0.8180
17213SOL     OW57730   1.850   8.108   5.438  0.2883 -0.3015 -0.0700
17213SOL    HW157731   1.881   8.025   5.473  0.3668  0.0266  0.6399
17213SOL    HW257732   1.836   8.164   5.514  1.3445  0.7236 -0.5898
17214SOL     OW57733   5.923   8.847   0.630  0.1672  0.1376 -0.4291
17214SOL    HW157734   5.912   8.776   0.567 -0.2685  0.0472 -0.2597
17214SOL    HW257735   5.868   8.821   0.704  1.2275 -0.0978  0.2890
17215SOL     OW57736   2.273   7.882   4.385  0.3846  0.3986 -0.0989
17215SOL    HW157737   2.311   7.969   4.398 -0.7299  0.8067  0.6390
17215SOL    HW257738   2.348   7.824   4.371  1.2093  1.3033  0.4732
17216SOL     OW57739   0.861   0.044   7.258 -0.5295 -0.2024 -0.4058
17216SOL    HW157740   0.934  -0.004   7.220  1.3565 -0.1122  2.6921
17216SOL    HW257741   0.808  -0.024   7.300  1.2117  0.0467  2.5041
17217SOL     OW57742   9.908   7.825   8.356 -0.0320 -0.0244  0.3144
17217SOL    HW157743  10.001   7.835   8.374  0.0083  3.0114 -1.0167
17217SOL    HW257744   9.866   7.824   8.442  1.1011  0.5312  0.8863
17218SOL     OW57745   1.100   2.919   8.504 -0.7331  0.1271  0.2048
17218SOL    HW157746   1.096   3.015   8.497 -1.0110  0.1326  0.4421
17218SOL    HW257747   1.134   2.903   8.592  2.8808  0.0510 -1.0352
17219SOL     OW57748   7.386   9.040   4.998  0.2751 -0.1509 -0.0963
17219SOL    HW157749   7.307   9.095   5.004  0.7893  0.4659  1.3514
17219SOL    HW257750   7.406   9.039   4.904 -2.2963 -1.5810 -0.7246
17220SOL     OW57751   3.948   7.069  10.183  0.0409  0.4320  0.4639
17220SOL    HW157752   3.894   7.139  10.220  0.1729  0.3600  0.7906
17220SOL    HW257753   3.904   7.047  10.100 -1.6205 -1.0433  1.6565
17221SOL     OW57754   5.956   4.477   4.278  0.2594  0.6285 -0.1314
17221SOL    HW157755   6.029   4.487   4.339  1.1539 -2.8929 -0.4429
17221SOL    HW257756   5.984   4.525   4.200  0.5072  2.4456  1.0072
17222SOL     OW57757   8.968   2.690   0.672  0.0310  0.4288 -0.0529
17222SOL    HW157758   9.024   2.629   0.720 -1.0915 -1.0939 -0.5980
17222SOL    HW257759   8.944   2.756   0.737 -0.2079 -0.7357  1.0965
17223SOL     OW57760   7.777   3.276   5.374  0.5845  0.4468 -0.0468
17223SOL    HW157761   7.799   3.295   5.283 -1.0659  0.3071 -0.5027
17223SOL    HW257762   7.827   3.340   5.424  1.7568  0.3353 -1.0152
17224SOL     OW57763   9.564   7.605   0.244 -0.0149  0.2731 -0.3435
17224SOL    HW157764   9.487   7.630   0.192 -0.5688 -0.7186 -0.0296
17224SOL    HW257765   9.611   7.687   0.259 -0.7497  0.8191 -0.9667
17225SOL     OW57766   8.708   1.074   3.890 -0.4088 -0.0761 -0.0176
17225SOL    HW157767   8.684   1.059   3.798 -0.0322 -1.3221  0.0657
17225SOL    HW257768   8.714   0.986   3.927  0.4351  0.3712  0.9471
17226SOL     OW57769   1.994   8.539   4.549  0.1266  0.1976  0.5013
17226SOL    HW157770   2.082   8.506   4.565 -0.3162 -1.1918  0.1699
17226SOL    HW257771   1.938   8.489   4.609 -0.4847  0.8085  0.4558
17227SOL     OW57772   5.946   4.545   9.530 -0.4651  0.4400 -0.0233
17227SOL    HW157773   5.897   4.468   9.556  0.5777 -0.1185  0.3339
17227SOL    HW257774   5.929   4.554   9.436 -1.9850  0.8233  0.2538
17228SOL     OW57775   1.699   4.469   8.439 -0.0394  0.0737  0.5620
17228SOL    HW157776   1.666   4.379   8.442 -0.1503  0.1281  1.0701
17228SOL    HW257777   1.692   4.494   8.347 -2.2189  0.3698  0.7393
17229SOL     OW57778   3.017   2.966   2.248 -0.1758 -0.0353  0.0695
17229SOL    HW157779   3.100   2.944   2.290 -0.7703  0.6583  1.6915
17229SOL    HW257780   2.997   3.054   2.279 -2.7655 -1.1300  1.9123
17230SOL     OW57781   5.659  10.323   3.254  0.6786 -0.3448  0.1457
17230SOL    HW157782   5.736  10.344   3.307  0.0868  0.3807  0.7552
17230SOL    HW257783   5.585  10.352   3.307  0.0616  0.5154 -1.1370
17231SOL     OW57784  10.420   8.469   7.733  0.1236 -0.2152 -0.0687
17231SOL    HW157785  10.433   8.442   7.824 -0.4103  1.1987  0.4594
17231SOL    HW257786  10.505   8.455   7.691  0.7906  0.4745  1.0282
17232SOL     OW57787   6.341   6.967  10.683 -0.2497  0.0562  0.7543
17232SOL    HW157788   6.251   6.986  10.710 -0.7373 -1.0743  0.0229
17232SOL    HW257789   6.357   6.878  10.714 -0.5944 -1.0423 -1.9314
17233SOL     OW57790   8.514   0.782   1.007 -0.6345 -0.3098 -0.7693
17233SOL    HW157791   8.431   0.743   0.979 -1.9989  1.8595  0.0266
17233SOL    HW257792   8.562   0.708   1.045 -3.4119 -1.2227  1.4133
17234SOL     OW57793   6.369   3.703   8.592  0.6790 -0.0524 -0.0299
17234SOL    HW157794   6.409   3.628   8.635 -2.0425 -1.1853  0.7757
17234SOL    HW257795   6.301   3.665   8.536 -0.3786  1.7735 -0.0647
17235SOL     OW57796   9.518   7.503   4.847  0.3827  0.1651 -0.2950
17235SOL    HW157797   9.585   7.571   4.840  0.3637  0.0988 -1.4655
17235SOL    HW257798   9.495   7.483   4.756 -0.6476 -0.3876  0.0673
17236SOL     OW57799   3.956   7.276   5.529 -0.0194 -0.0905  0.5672
17236SOL    HW157800   3.956   7.238   5.441  0.8718  0.3207  0.3795
17236SOL    HW257801   3.951   7.370   5.514 -1.4041 -0.0647  1.0125
17237SOL     OW57802   9.493   2.435   1.162  0.3800  0.2993  0.5776
17237SOL    HW157803   9.449   2.424   1.247  2.0155 -1.7971  1.2524
17237SOL    HW257804   9.578   2.471   1.183  0.3165  1.0187 -0.3408
17238SOL     OW57805   5.828   9.657   9.331  0.0762  0.3510  0.2797
17238SOL    HW157806   5.843   9.689   9.420 -0.7647 -0.8456  0.8672
17238SOL    HW257807   5.743   9.694   9.307 -0.3144 -0.4023  0.4867
17239SOL     OW57808   6.153   3.786   0.609  0.3422 -0.8073  0.0192
17239SOL    HW157809   6.100   3.797   0.688 -0.4159  1.5315 -0.7168
17239SOL    HW257810   6.108   3.718   0.558 -1.8393  0.8472 -0.4189
17240SOL     OW57811   4.249   3.574   3.134  1.0407 -0.1826 -0.1635
17240SOL    HW157812   4.210   3.642   3.078  1.1329  0.2236  0.2593
17240SOL    HW257813   4.235   3.606   3.223  1.8966 -0.2783  0.0094
17241SOL     OW57814   2.481  10.841   6.853 -0.0751 -0.0594 -0.3078
17241SOL    HW157815   2.447  10.919   6.808  0.1721  1.0586  1.3522
17241SOL    HW257816   2.571  10.833   6.823 -0.1968  0.1156 -0.7269
17242SOL     OW57817   0.216   6.310   2.259 -0.0881  0.1008 -0.5493
17242SOL    HW157818   0.228   6.359   2.178  0.1045 -0.9298 -1.1571
17242SOL    HW257819   0.136   6.259   2.245  1.4064 -2.1964 -1.2148
17243SOL     OW57820   4.365   8.948   2.089 -0.1243 -0.3081  0.0746
17243SOL    HW157821   4.294   9.010   2.074  0.4587  0.4363  0.2882
17243SOL    HW257822   4.444   9.002   2.086  0.2378 -0.5097  3.1064
17244SOL     OW57823   4.591   1.186   5.808 -0.5529  0.4876  0.6270
17244SOL    HW157824   4.671   1.198   5.859  0.1683 -1.0065 -0.0958
17244SOL    HW257825   4.554   1.104   5.840 -0.5499 -0.0232 -0.6531
17245SOL     OW57826   6.592   9.903   4.217  0.3591  0.2813 -0.0866
17245SOL    HW157827   6.582   9.898   4.312 -0.0378  1.5469 -0.0420
17245SOL    HW257828   6.580   9.996   4.197 -2.8868 -0.3662 -1.7397
17246SOL     OW57829   0.756   8.736   0.295 -0.3147  0.2253  0.4752
17246SOL    HW157830   0.777   8.654   0.249 -1.6960  1.2264 -2.1522
17246SOL    HW257831   0.708   8.708   0.373  0.1920 -1.4920  0.2269
17247SOL     OW57832   0.939  10.858   2.710  0.3017 -0.3710 -0.5068
17247SOL    HW157833   0.927  10.841   2.803  2.0647  1.3196  0.1017
17247SOL    HW257834   0.981  10.778   2.676 -0.7090 -1.1457  0.0397
17248SOL     OW57835  10.556   1.232   1.928 -0.3234  0.9606 -0.5136
17248SOL    HW157836  10.612   1.214   2.003  0.5834  1.6200 -1.0065
17248SOL    HW257837  10.487   1.165   1.932 -0.9611  1.6586  1.5408
17249SOL     OW57838  10.700  10.694   2.954  0.1953 -0.1568 -0.4962
17249SOL    HW157839  10.619  10.745   2.963 -0.3093 -1.0409  0.1333
17249SOL    HW257840  10.727  10.708   2.864  0.1942  1.3954 -0.2736
17250SOL     OW57841   6.373   6.997   5.717  0.0715  0.3139  0.4227
17250SOL    HW157842   6.350   6.904   5.714  0.6465  0.1636  0.6533
17250SOL    HW257843   6.304   7.037   5.770 -0.4904  0.1214 -0.1363
17251SOL     OW57844   0.267   4.270   0.740  0.6878  0.1842 -0.1369
17251SOL    HW157845   0.204   4.311   0.681 -0.5633 -0.1263  0.9288
17251SOL    HW257846   0.255   4.316   0.823 -0.0313 -1.6285  0.8092
17252SOL     OW57847  10.382   2.718   5.958 -0.4143  0.2814 -0.1707
17252SOL    HW157848  10.357   2.627   5.946  0.2935  0.1046 -0.3492
17252SOL    HW257849  10.401   2.726   6.051 -0.0047  0.1178 -0.2364
17253SOL     OW57850   8.727   2.603  10.413  0.1299 -0.2782 -0.2471
17253SOL    HW157851   8.794   2.639  10.356  0.1959 -0.8310 -0.5219
17253SOL    HW257852   8.766   2.524  10.450  0.3217  0.3807  1.0425
17254SOL     OW57853   2.129   7.805   5.990 -0.2502 -0.4118 -0.2057
17254SOL    HW157854   2.102   7.850   6.070  0.7998 -0.3382  0.1229
17254SOL    HW257855   2.056   7.747   5.969  0.3282 -2.0486  2.0087
17255SOL     OW57856  10.032   0.066  10.125  0.3405 -0.1148 -0.2390
17255SOL    HW157857  10.038  -0.011  10.180  2.0475  0.9837  1.2246
17255SOL    HW257858  10.122   0.082  10.097 -0.1415  0.7648 -1.3698
17256SOL     OW57859   5.947   5.297   5.316  0.7197 -0.9623  0.0644
17256SOL    HW157860   5.936   5.234   5.387 -2.1638  0.0464  0.6195
17256SOL    HW257861   5.936   5.382   5.358  0.7760 -0.2497 -1.3186
17257SOL     OW57862   1.488   5.748   0.841  0.4350 -0.0028 -0.0381
17257SOL    HW157863   1.509   5.656   0.826 -0.4095 -0.0249 -1.2206
17257SOL    HW257864   1.400   5.759   0.806  0.8706  1.4665 -0.7813
17258SOL     OW57865   8.740   7.541   6.390 -0.1942  0.1427 -0.7848
17258SOL    HW157866   8.827   7.547   6.351  0.2642 -1.0194  0.0218
17258SOL    HW257867   8.728   7.624   6.435  0.1117  0.6677 -1.6357
17259SOL     OW57868   3.124   3.607   7.254 -0.1037  0.3468  0.0880
17259SOL    HW157869   3.194   3.590   7.318  0.3280  1.3914 -0.0938
17259SOL    HW257870   3.043   3.593   7.304  0.2302  0.5428  0.7048
17260SOL     OW57871   4.723   4.792   6.763 -0.6031 -0.4190 -0.2778
17260SOL    HW157872   4.643   4.792   6.816 -0.2266  0.1872  0.3082
17260SOL    HW257873   4.692   4.809   6.673 -1.0437  1.0865  0.1229
17261SOL     OW57874   0.618   2.568   2.200  0.2592 -0.2014  0.3468
17261SOL    HW157875   0.633   2.500   2.265  1.8869 -0.2697 -0.0372
17261SOL    HW257876   0.529   2.553   2.169  0.6071 -2.2635  0.1737
17262SOL     OW57877   0.390   0.266   3.147  0.3266  0.3569  0.5193
17262SOL    HW157878   0.460   0.308   3.098 -0.9687  1.9050 -0.1373
17262SOL    HW257879   0.405   0.293   3.238  0.1328  1.4344  0.2567
17263SOL     OW57880   2.871   4.741   0.275 -0.1399 -0.2516 -0.0060
17263SOL    HW157881   2.785   4.707   0.300 -0.5816 -0.1920 -1.3640
17263SOL    HW257882   2.919   4.665   0.244  0.4947 -0.3679  1.1820
17264SOL     OW57883   9.597   5.112   8.430  0.1530  0.1104  0.5931
17264SOL    HW157884   9.581   5.057   8.353  0.9391 -0.7185  1.0028
17264SOL    HW257885   9.610   5.050   8.501 -2.9293  0.8379  1.9519
17265SOL     OW57886   9.281   0.508   8.264 -0.5779  0.1570 -0.1033
17265SOL    HW157887   9.250   0.598   8.275 -0.7590 -0.1427  2.3954
17265SOL    HW257888   9.300   0.501   8.170 -0.7325  2.7240 -0.4133
17266SOL     OW57889   7.658   9.662   0.158  1.3066  0.3235 -0.0466
17266SOL    HW157890   7.697   9.578   0.181 -0.1879  0.0247  1.6734
17266SOL    HW257891   7.732   9.723   0.155  2.1729 -0.6349  0.8745
17267SOL     OW57892   7.618   4.869   9.990  0.3977  0.1094  0.1815
17267SOL    HW157893   7.617   4.798   9.926  1.2832  1.3046 -1.2082
17267SOL    HW257894   7.709   4.874  10.019  0.2258  0.3127  0.6942
17268SOL     OW57895   2.209   7.757   0.318  0.3558 -0.5314  0.6238
17268SOL    HW157896   2.151   7.832   0.335  0.2099 -0.1715 -1.2709
17268SOL    HW257897   2.232   7.725   0.406  2.1519  3.0001  1.6410
17269SOL     OW57898   3.535   5.310  10.702 -0.2638 -0.0343 -0.1047
17269SOL    HW157899   3.577   5.224  10.712 -0.3524 -0.0613  0.0261
17269SOL    HW257900   3.487   5.323  10.783  1.8707  1.3016  1.0449
17270SOL     OW57901   3.059   8.024   4.196  0.2615  0.2383 -0.4807
17270SOL    HW157902   3.061   7.931   4.174  0.5197  0.1782 -0.2161
17270SOL    HW257903   3.105   8.067   4.124  0.2658  0.1462 -0.5325
17271SOL     OW57904   3.550   8.171   0.310  0.4087 -0.4382 -0.2156
17271SOL    HW157905   3.539   8.076   0.318  1.5975 -0.5654  0.1593
17271SOL    HW257906   3.595   8.183   0.227  0.8638 -0.2573  0.0561
17272SOL     OW57907  10.215   3.574   5.881 -0.3705 -0.1441 -0.3322
17272SOL    HW157908  10.236   3.567   5.788 -0.4270  1.8784 -0.5349
17272SOL    HW257909  10.121   3.557   5.886 -0.7431  1.5877 -0.9292
17273SOL     OW57910   2.522  10.802   2.960 -0.2668  0.2673 -0.0595
17273SOL    HW157911   2.573  10.867   2.911 -0.3088 -0.1248 -0.6293
17273SOL    HW257912   2.437  10.799   2.915 -0.1855 -0.3454 -0.1770
17274SOL     OW57913   2.588   4.879   9.322  0.2337 -0.0981  0.5517
17274SOL    HW157914   2.641   4.959   9.321 -0.2412  0.3205  3.1122
17274SOL    HW257915   2.652   4.809   9.337  0.4306  0.0135  0.2515
17275SOL     OW57916   0.016   6.612   1.118 -0.0724 -0.0994 -0.0121
17275SOL    HW157917  -0.070   6.652   1.131 -0.6071 -1.0748 -0.4321
17275SOL    HW257918   0.049   6.596   1.206  0.1383  1.1889  0.1698
17276SOL     OW57919  10.200   5.241   9.178 -0.3912  0.1004  0.7220
17276SOL    HW157920  10.283   5.242   9.226 -0.2834  2.1720  0.5627
17276SOL    HW257921  10.167   5.152   9.190  1.9336 -0.8613  0.6288
17277SOL     OW57922   3.464   8.368   8.200  0.0877  0.2085 -0.0190
17277SOL    HW157923   3.484   8.462   8.209 -1.0823  0.3313  1.8096
17277SOL    HW257924   3.549   8.325   8.211  0.2913  0.9691  1.8060
17278SOL     OW57925   9.549   5.967   2.327 -0.0402 -0.0098 -0.5446
17278SOL    HW157926   9.544   5.901   2.258  2.7732 -0.8272 -0.0780
17278SOL    HW257927   9.531   5.919   2.408  0.0881  0.2021 -0.3872
17279SOL     OW57928   6.090   8.822   0.385 -0.2276  0.2589  0.6891
17279SOL    HW157929   6.112   8.794   0.474 -0.0536  0.0327  0.5743
17279SOL    HW257930   6.018   8.764   0.360  0.4898 -0.4660  0.2465
17280SOL     OW57931   3.723   3.400   2.094  0.2085 -0.6108 -0.1757
17280SOL    HW157932   3.795   3.459   2.117 -0.4589  0.9393 -1.8115
17280SOL    HW257933   3.677   3.445   2.022 -1.4360 -2.2945 -0.2557
17281SOL     OW57934   0.709   7.843   0.927 -0.0323 -0.1453 -0.2903
17281SOL    HW157935   0.739   7.752   0.917 -0.9515 -0.5304  0.3049
17281SOL    HW257936   0.631   7.849   0.871  0.0072  0.2704 -0.3024
17282SOL     OW57937   4.885  10.673   6.401  1.0788 -0.5110 -0.1214
17282SOL    HW157938   4.889  10.660   6.307  0.1380  2.0271 -0.5955
17282SOL    HW257939   4.829  10.603   6.433  1.5873 -1.5351 -1.3973
17283SOL     OW57940  10.360   5.544   8.062  0.2391 -0.1808  0.4917
17283SOL    HW157941  10.291   5.516   8.122 -0.2740 -0.2932 -0.1328
17283SOL    HW257942  10.320   5.539   7.975  0.2854  2.0282  0.2880
17284SOL     OW57943   4.856   7.659   7.675 -0.2160  0.0289  0.2175
17284SOL    HW157944   4.802   7.634   7.600  1.5334  2.0921 -1.9110
17284SOL    HW257945   4.851   7.755   7.677  2.2952  0.2296  0.6958
17285SOL     OW57946   8.804   4.348   5.918 -0.3738  0.0155 -0.1409
17285SOL    HW157947   8.772   4.340   6.008  2.7608 -0.1001  1.0896
17285SOL    HW257948   8.806   4.259   5.885 -1.9182  0.0971 -0.5291
17286SOL     OW57949   9.592   1.065   0.819  0.1079  0.2729  0.8418
17286SOL    HW157950   9.509   1.106   0.845 -0.3709 -0.6383  0.8045
17286SOL    HW257951   9.659   1.130   0.840 -0.2839 -0.1377  3.8284
17287SOL     OW57952   1.896   4.435   6.462 -0.0340  0.0598 -0.2586
17287SOL    HW157953   1.945   4.490   6.523 -0.7815 -0.1701  0.5728
17287SOL    HW257954   1.883   4.490   6.385  1.0138  0.3161 -0.2625
17288SOL     OW57955   9.327  10.411   4.605  0.1025 -0.1455  0.2211
17288SOL    HW157956   9.337  10.316   4.595  0.6921 -0.1026  0.3609
17288SOL    HW257957   9.241  10.430   4.567 -1.3989 -1.1683  2.8267
17289SOL     OW57958   4.211   0.180   5.442  0.4525  0.3546 -0.1626
17289SOL    HW157959   4.285   0.121   5.458  1.2335  0.8838 -1.5953
17289SOL    HW257960   4.247   0.248   5.384 -1.2232  0.4833 -1.1203
17290SOL     OW57961   2.248   3.598  10.213  0.7040 -0.8243  0.6805
17290SOL    HW157962   2.157   3.584  10.240  0.4471 -0.1196  0.2219
17290SOL    HW257963   2.290   3.636  10.290 -0.3972  2.6247 -0.2455
17291SOL     OW57964   3.576   5.784   6.812  0.0243  0.1215 -0.0863
17291SOL    HW157965   3.520   5.706   6.811 -0.6467  0.5708  0.8999
17291SOL    HW257966   3.597   5.799   6.720 -0.3129 -0.8860 -0.3421
17292SOL     OW57967   3.466   0.770   9.004 -0.0772  0.4857 -0.0471
17292SOL    HW157968   3.484   0.846   9.060 -0.2393  0.4008  0.1200
17292SOL    HW257969   3.452   0.698   9.065 -0.7436  0.4964 -0.1837
17293SOL     OW57970   8.519   3.301   0.212  0.4870 -0.4897 -0.0751
17293SOL    HW157971   8.465   3.294   0.133  0.0266 -1.3741  0.3126
17293SOL    HW257972   8.501   3.221   0.261 -0.8866  0.9855  1.9788
17294SOL     OW57973   2.558   5.736   8.647 -0.2328 -0.3885  0.0383
17294SOL    HW157974   2.643   5.709   8.613 -0.4695 -1.1791  0.0563
17294SOL    HW257975   2.574   5.821   8.688  0.7948 -1.0394  1.0382
17295SOL     OW57976   4.077   3.313   8.021 -0.6385  0.3321 -0.1134
17295SOL    HW157977   4.114   3.370   8.089  0.6942  0.8548 -1.2331
17295SOL    HW257978   4.054   3.233   8.068  0.2954  0.6566  0.9554
17296SOL     OW57979   9.619   1.361   3.248  0.3822  0.2211 -0.4432
17296SOL    HW157980   9.676   1.336   3.176 -0.7799  0.8233 -1.5978
17296SOL    HW257981   9.679   1.401   3.312  1.2632  0.8686 -1.6318
17297SOL     OW57982   2.793   8.529   8.487  0.0759 -0.1853  0.4656
17297SOL    HW157983   2.793   8.606   8.429  0.0432 -0.5687 -0.0483
17297SOL    HW257984   2.701   8.511   8.502  0.0677 -0.7145 -0.2076
17298SOL     OW57985   6.018   5.144   3.778 -0.1824  0.2213  0.1394
17298SOL    HW157986   6.029   5.053   3.806 -0.0197 -0.3652 -1.6954
17298SOL    HW257987   6.006   5.193   3.859  3.0587 -0.9242  1.4841
17299SOL     OW57988   4.622   6.571   7.018 -0.3859  0.9568 -0.2599
17299SOL    HW157989   4.676   6.532   6.949  0.1956 -0.0492  0.7224
17299SOL    HW257990   4.548   6.512   7.027  0.8399 -0.3789  1.7006
17300SOL     OW57991   9.466   2.908   6.979 -0.7944 -0.8267  0.0637
17300SOL    HW157992   9.506   2.994   6.980 -1.2123 -0.6319  0.1439
17300SOL    HW257993   9.511   2.860   7.048  1.3336 -1.5595 -1.6946
17301SOL     OW57994   2.884   6.128   4.214  0.0746  0.0959 -0.1016
17301SOL    HW157995   2.899   6.058   4.150  1.5163  2.6040 -2.7003
17301SOL    HW257996   2.946   6.109   4.284 -1.3342 -2.5599  0.5778
17302SOL     OW57997   7.603   2.219   7.329  0.1009  0.5030  0.6626
17302SOL    HW157998   7.612   2.147   7.391 -0.8635 -0.3847 -0.1871
17302SOL    HW257999   7.589   2.297   7.383 -0.6474 -0.2298  1.5471
17303SOL     OW58000   3.669   4.797   3.861  0.5614  0.1422 -0.2599
17303SOL    HW158001   3.762   4.816   3.845  0.6041 -0.1288 -0.3342
17303SOL    HW258002   3.663   4.784   3.955  0.6434 -0.0837 -0.2859
17304SOL     OW58003   1.479  10.548   5.679 -0.7458  0.5080  0.4954
17304SOL    HW158004   1.545  10.500   5.630 -0.4739  0.0287  1.3028
17304SOL    HW258005   1.431  10.598   5.613 -0.6786 -0.4461 -0.3007
17305SOL     OW58006   0.092   3.744   2.451  0.4848 -0.4101  0.1692
17305SOL    HW158007   0.056   3.710   2.533 -0.9023 -1.0023 -0.6413
17305SOL    HW258008   0.182   3.712   2.448 -0.4845 -3.3733 -0.1549
17306SOL     OW58009   5.119   8.397   7.877  0.1724 -0.4947  0.4206
17306SOL    HW158010   5.077   8.437   7.800 -0.2927 -0.9442  0.4355
17306SOL    HW258011   5.046   8.374   7.934  0.5382  0.2601  1.2179
17307SOL     OW58012   8.652   0.010   3.463 -0.2370 -0.2286 -0.2484
17307SOL    HW158013   8.606   0.090   3.436  0.3161  0.1248 -0.1685
17307SOL    HW258014   8.588  -0.038   3.515 -0.8214 -0.1965 -0.9220
17308SOL     OW58015  10.296   0.388   1.688 -0.1667  0.2941 -0.6001
17308SOL    HW158016  10.276   0.335   1.766 -0.1030  0.6073 -0.3719
17308SOL    HW258017  10.241   0.350   1.619 -1.7214  1.2538  0.0504
17309SOL     OW58018   2.349   3.252   1.728  0.5284  0.0650  0.7570
17309SOL    HW158019   2.260   3.283   1.710 -0.1408 -2.3226 -0.3858
17309SOL    HW258020   2.387   3.237   1.641  1.6930  0.0333  1.2550
17310SOL     OW58021   2.228   0.197   5.439 -0.0722  0.0647 -0.3127
17310SOL    HW158022   2.314   0.155   5.444 -0.2239 -0.1655  0.4267
17310SOL    HW258023   2.209   0.201   5.345  0.8013  0.2394 -0.4879
17311SOL     OW58024   5.188   6.604   9.085  0.0515 -0.4900  0.6654
17311SOL    HW158025   5.214   6.683   9.039  1.7610 -1.0803  0.5540
17311SOL    HW258026   5.189   6.628   9.177  1.3001 -0.5521  0.6839
17312SOL     OW58027   3.053   2.301   4.478 -0.3344 -0.3660 -0.1043
17312SOL    HW158028   3.063   2.295   4.573 -0.7710 -0.2276 -0.0501
17312SOL    HW258029   3.005   2.222   4.454  0.6387 -0.9055 -0.3380
17313SOL     OW58030   2.951   9.922  10.758  0.1337 -0.7107  0.4080
17313SOL    HW158031   2.908   9.965  10.684 -1.6077 -1.9837  0.6203
17313SOL    HW258032   2.962   9.991  10.823 -0.4822 -0.0979 -0.1295
17314SOL     OW58033  10.062   3.164   0.324  0.6762  0.1674  0.6090
17314SOL    HW158034  10.019   3.208   0.251 -0.8363 -0.8774  0.8161
17314SOL    HW258035  10.014   3.194   0.401  0.9152 -0.3183  0.9523
17315SOL     OW58036  10.011   0.805   3.820 -0.4037  0.2494  0.0618
17315SOL    HW158037   9.929   0.768   3.787 -0.9431 -0.4325  2.0316
17315SOL    HW258038   9.984   0.860   3.895  1.0253 -1.3213  1.8312
17316SOL     OW58039   7.974   3.887   8.920  0.1113  0.2506 -0.1813
17316SOL    HW158040   7.961   3.885   9.015  0.9119  0.0449 -0.0648
17316SOL    HW258041   7.959   3.797   8.892  1.6316 -0.0991  0.0222
17317SOL     OW58042   6.619   2.643   5.879  0.3905 -0.1310 -0.0222
17317SOL    HW158043   6.552   2.576   5.864 -0.5823  1.1704 -1.8240
17317SOL    HW258044   6.702   2.600   5.858 -0.0589 -1.1802  0.2966
17318SOL     OW58045   6.675  10.400   3.193 -0.1434  0.3595  0.5314
17318SOL    HW158046   6.740  10.341   3.232  1.0641  0.8850 -0.5948
17318SOL    HW258047   6.617  10.343   3.143  0.0704 -0.0180  0.7104
17319SOL     OW58048   8.887   0.155   8.657 -0.3067  0.4777  0.7715
17319SOL    HW158049   8.803   0.201   8.669 -0.6684 -0.2466  1.0922
17319SOL    HW258050   8.862   0.063   8.647  0.4379  0.2950  0.5578
17320SOL     OW58051   4.602   7.987   0.472 -0.1705 -0.7989 -0.6020
17320SOL    HW158052   4.556   7.919   0.522 -0.4656 -0.6076 -0.6096
17320SOL    HW258053   4.615   8.058   0.534 -0.2514 -0.6878 -0.7112
17321SOL     OW58054  10.619  10.271  10.003  0.9272  0.2314  0.2837
17321SOL    HW158055  10.689  10.317  10.050  2.4373 -0.2939 -1.3088
17321SOL    HW258056  10.656  10.257   9.915 -1.7288  1.1718 -1.0951
17322SOL     OW58057   7.588   3.984   9.700 -0.6054  0.4353 -0.3200
17322SOL    HW158058   7.664   3.933   9.730 -1.0208 -1.0855 -1.7420
17322SOL    HW258059   7.627   4.062   9.660  0.1853 -0.1154 -0.6524
17323SOL     OW58060   2.456   4.441   0.563  0.2980 -0.1261 -0.6391
17323SOL    HW158061   2.531   4.456   0.620  0.3677 -0.0147 -0.7592
17323SOL    HW258062   2.411   4.526   0.561  0.1483 -0.2029 -0.5362
17324SOL     OW58063  10.675   6.319   6.426  0.9582  0.1081  0.2630
17324SOL    HW158064  10.716   6.246   6.379 -0.7600 -1.0677  0.4817
17324SOL    HW258065  10.686   6.395   6.369  2.2129 -0.4613 -0.2764
17325SOL     OW58066   5.259  10.395   1.998 -0.7981  1.0001 -0.4137
17325SOL    HW158067   5.308  10.477   1.993  0.0375  0.5511  0.1135
17325SOL    HW258068   5.288  10.354   2.080  0.0677 -0.5892 -1.4628
17326SOL     OW58069   2.737  10.285   2.728 -0.5971 -0.5741 -0.6959
17326SOL    HW158070   2.706  10.360   2.780  1.7622  0.9084 -1.2685
17326SOL    HW258071   2.762  10.220   2.794 -0.4858  0.0648 -0.0917
17327SOL     OW58072   7.087   1.845   9.591 -0.1522 -0.4863 -0.6071
17327SOL    HW158073   7.177   1.825   9.619  0.7283  2.2755 -1.1853
17327SOL    HW258074   7.034   1.829   9.670  0.5995 -3.1440 -0.5356
17328SOL     OW58075   9.079   5.783   6.421  0.6630 -0.3608  0.1217
17328SOL    HW158076   9.158   5.835   6.439  0.7410  0.2920 -1.8661
17328SOL    HW258077   9.111   5.711   6.366  0.0080 -0.6256  0.0847
17329SOL     OW58078   0.891   7.827   2.183 -0.3694  0.2272  0.7959
17329SOL    HW158079   0.803   7.822   2.220  0.1882 -0.1997  2.1134
17329SOL    HW258080   0.931   7.902   2.227  0.2630 -0.2023  0.9702
17330SOL     OW58081   4.675   7.508   0.964 -0.6378 -0.3695 -0.0787
17330SOL    HW158082   4.652   7.415   0.961  1.0803 -0.8136 -0.2456
17330SOL    HW258083   4.757   7.511   1.012  0.6579  0.7764 -2.2155
17331SOL     OW58084   7.897   2.859   4.733  0.5037 -0.0992 -0.4865
17331SOL    HW158085   7.909   2.925   4.801 -0.8571 -1.0243  0.7209
17331SOL    HW258086   7.975   2.804   4.739 -0.6408 -1.6768  2.1727
17332SOL     OW58087   1.478   4.327   7.670  0.4339  0.1648  0.3410
17332SOL    HW158088   1.570   4.308   7.687  0.4183 -0.2081  0.0241
17332SOL    HW258089   1.461   4.288   7.584 -0.1742 -0.2824  0.6576
17333SOL     OW58090   7.355   6.565   5.417  0.4819  0.0998 -0.6095
17333SOL    HW158091   7.306   6.636   5.459  2.1864  0.4009  1.0027
17333SOL    HW258092   7.319   6.485   5.455  2.2755  0.3745  1.9684
17334SOL     OW58093   1.835   3.949   0.351  0.8631  0.1936 -0.0056
17334SOL    HW158094   1.851   4.043   0.350 -0.0595  0.3739 -2.0028
17334SOL    HW258095   1.875   3.916   0.272  0.8800 -1.0564  0.5006
17335SOL     OW58096   4.098   3.398   9.517 -0.1688  0.0545 -0.1754
17335SOL    HW158097   4.003   3.392   9.517 -0.2247  0.2723  1.7552
17335SOL    HW258098   4.123   3.385   9.426 -1.9527 -1.3949 -0.5226
17336SOL     OW58099   7.940   0.080   3.782  0.5514 -0.2861  0.1730
17336SOL    HW158100   7.919   0.171   3.805  1.1097  0.0276 -0.5207
17336SOL    HW258101   7.857   0.033   3.794  0.6559 -0.0360  2.1858
17337SOL     OW58102   0.031   6.919   0.321  0.6020  1.2629  0.1307
17337SOL    HW158103  -0.030   6.900   0.393 -1.0397  3.5375 -0.5380
17337SOL    HW258104   0.090   6.984   0.357  1.7598  0.1462  0.3131
17338SOL     OW58105  10.458   5.315   9.271  0.2562 -0.0250 -0.3051
17338SOL    HW158106  10.461   5.388   9.209  0.6348 -0.1939 -0.4882
17338SOL    HW258107  10.542   5.270   9.260 -0.2397 -0.9021 -0.7078
17339SOL     OW58108   9.288   1.127   1.627  0.6319 -0.4652  0.1521
17339SOL    HW158109   9.322   1.174   1.551  0.9448  0.4245  0.8190
17339SOL    HW258110   9.193   1.131   1.618  0.6463  0.5182  0.3065
17340SOL     OW58111   8.744   2.795   0.010  0.0871 -0.3414 -0.1282
17340SOL    HW158112   8.736   2.732  -0.062  1.9902 -1.5190  0.6245
17340SOL    HW258113   8.806   2.860  -0.022 -0.2976  0.0287 -0.1318
17341SOL     OW58114   4.024   6.576   3.561 -0.2729  0.0736  1.0478
17341SOL    HW158115   4.104   6.531   3.533 -1.4583 -0.5893 -1.6175
17341SOL    HW258116   4.051   6.667   3.575  1.0330 -0.2384  0.7381
17342SOL     OW58117   6.630   8.058   9.231 -0.0361  0.3501 -0.0569
17342SOL    HW158118   6.665   8.058   9.320 -0.1823 -1.3902  0.0288
17342SOL    HW258119   6.673   8.133   9.188  0.3742  0.9304  1.3216
17343SOL     OW58120   5.016   7.140   7.867 -0.1049 -0.0413 -0.0694
17343SOL    HW158121   5.006   7.187   7.949 -0.0170 -0.5443  0.2308
17343SOL    HW258122   5.096   7.090   7.877 -0.2863 -0.3903 -0.3199
17344SOL     OW58123   6.748   7.519   7.289  0.4302 -0.0032  0.2198
17344SOL    HW158124   6.755   7.615   7.293 -0.4893  0.0196  2.4329
17344SOL    HW258125   6.726   7.493   7.378  0.7277 -2.3091 -0.3343
17345SOL     OW58126   6.597   4.192   1.371 -0.3215 -0.3143 -0.0873
17345SOL    HW158127   6.623   4.101   1.388  0.9182  0.2106  0.9692
17345SOL    HW258128   6.661   4.245   1.418 -1.5959  1.1085  0.1335
17346SOL     OW58129   8.615   0.876   7.564  0.1064  0.6053 -0.4965
17346SOL    HW158130   8.561   0.851   7.490 -0.7399  1.6253 -0.2590
17346SOL    HW258131   8.564   0.852   7.641 -0.2479  1.9637 -0.2688
17347SOL     OW58132   5.661   1.566   7.261  0.1834 -0.2288 -0.3909
17347SOL    HW158133   5.725   1.510   7.218 -0.2684 -2.2890  1.4668
17347SOL    HW258134   5.589   1.507   7.283 -1.0794  1.4444  0.1458
17348SOL     OW58135   5.784   6.255   6.929 -0.1179  0.0336 -0.0536
17348SOL    HW158136   5.790   6.214   7.015 -0.1775  1.0254  0.4455
17348SOL    HW258137   5.872   6.248   6.892 -0.2790 -1.1000 -0.2656
17349SOL     OW58138   8.132   6.921   8.130 -0.4652  0.3810  0.3658
17349SOL    HW158139   8.224   6.937   8.150 -0.5536  0.8868  0.3846
17349SOL    HW258140   8.115   6.972   8.051 -0.3643 -0.8461 -0.4755
17350SOL     OW58141   6.647   9.708   6.462 -0.1522 -0.6148 -0.2202
17350SOL    HW158142   6.685   9.621   6.451  0.1034 -0.6417  0.7675
17350SOL    HW258143   6.695   9.763   6.400 -0.9162 -1.3283 -1.4793
17351SOL     OW58144   3.779   7.292  10.212 -0.1752  0.3043  0.4086
17351SOL    HW158145   3.689   7.284  10.242  0.0157  0.5086  1.0719
17351SOL    HW258146   3.774   7.350  10.136 -0.4881  1.1989  1.0879
17352SOL     OW58147   9.523  10.312   9.445 -0.0807 -0.4064  0.2725
17352SOL    HW158148   9.480  10.346   9.524  0.1021 -0.3149  0.3335
17352SOL    HW258149   9.589  10.379   9.424 -0.2595 -0.3362 -0.0675
17353SOL     OW58150   5.436   2.782   5.538  0.6256  0.3744  0.0317
17353SOL    HW158151   5.374   2.841   5.580  1.7990  1.2768  0.5540
17353SOL    HW258152   5.475   2.834   5.468 -0.0923 -0.5907 -1.1228
17354SOL     OW58153   9.388   9.164   3.312 -0.0841  0.1417 -0.7019
17354SOL    HW158154   9.339   9.090   3.277  0.7220 -0.5601 -0.3700
17354SOL    HW258155   9.459   9.125   3.361  1.2369  1.1251 -1.7464
17355SOL     OW58156   3.819   1.611   6.205 -0.3915 -0.1208 -0.6776
17355SOL    HW158157   3.832   1.572   6.118 -1.3319 -1.3641 -0.2962
17355SOL    HW258158   3.859   1.698   6.199  0.3464 -0.5302 -2.0732
17356SOL     OW58159   5.212   7.569   6.989  0.0877  0.0855 -0.4123
17356SOL    HW158160   5.272   7.623   6.937  0.4664  0.4995  0.4483
17356SOL    HW258161   5.147   7.631   7.022  0.6740  0.0739  0.7968
17357SOL     OW58162   0.268   7.516   0.206  0.0934  0.6899  0.1779
17357SOL    HW158163   0.257   7.425   0.182  0.5418  0.7508 -0.2748
17357SOL    HW258164   0.189   7.560   0.175 -0.1333  0.4553  0.4207
17358SOL     OW58165   7.388   6.081   5.474 -0.1314 -0.0653  0.0231
17358SOL    HW158166   7.333   6.004   5.486  1.0368 -0.6719  1.9065
17358SOL    HW258167   7.421   6.074   5.385 -0.1284 -1.7077  0.1362
17359SOL     OW58168   2.283   6.870   4.833  0.4685  0.0281 -0.0244
17359SOL    HW158169   2.329   6.861   4.917  0.5934 -3.1440 -0.3039
17359SOL    HW258170   2.191   6.876   4.857  0.5897  0.4107  0.3686
17360SOL     OW58171   1.777   0.371   6.143 -0.8466 -0.2510 -0.1652
17360SOL    HW158172   1.822   0.451   6.118 -1.5959  1.3794  3.2130
17360SOL    HW258173   1.836   0.328   6.205 -1.8476 -0.6210  0.5528
17361SOL     OW58174   0.219   0.942   3.575 -0.6034  0.0654 -0.1421
17361SOL    HW158175   0.179   0.976   3.654 -1.2126  0.8342 -0.7608
17361SOL    HW258176   0.262   0.861   3.602  0.8970  1.3096  1.3738
17362SOL     OW58177   5.772   4.017   8.571  0.2294  0.3142 -0.1911
17362SOL    HW158178   5.708   4.037   8.503 -1.4369  0.6174  1.3980
17362SOL    HW258179   5.773   4.095   8.626  1.4425  0.0125  0.2360
17363SOL     OW58180   4.085   2.417   9.946 -0.2106  0.1551  0.4286
17363SOL    HW158181   4.160   2.363   9.971  1.7799  3.0739  1.2637
17363SOL    HW258182   4.091   2.424   9.851 -0.0773 -0.4915  0.3856
17364SOL     OW58183   9.490   9.259   9.375 -1.0704  0.2126 -0.2402
17364SOL    HW158184   9.507   9.351   9.394 -2.4264  0.7722 -1.5128
17364SOL    HW258185   9.548   9.238   9.301 -0.3295 -0.1548  0.4252
17365SOL     OW58186   2.509   0.047   4.301  0.5610  0.1250  0.1014
17365SOL    HW158187   2.501   0.012   4.390  1.0451 -3.5768 -1.1151
17365SOL    HW258188   2.424   0.030   4.261  0.9599 -0.0990 -0.6744
17366SOL     OW58189   7.660   7.692   9.455 -0.5913  0.2497  0.2760
17366SOL    HW158190   7.640   7.621   9.394  1.8965 -0.2314 -0.1142
17366SOL    HW258191   7.674   7.769   9.400  2.0533 -0.2740  0.0496
17367SOL     OW58192   3.525   8.203   2.631  0.1304 -0.1077  0.4741
17367SOL    HW158193   3.607   8.237   2.596  0.3496 -1.4871 -0.4026
17367SOL    HW258194   3.457   8.252   2.584  0.4384 -0.6385 -0.5415
17368SOL     OW58195   7.347   7.349  10.148 -0.9192  0.1021  0.4113
17368SOL    HW158196   7.426   7.318  10.103 -0.7845 -0.4623  1.0191
17368SOL    HW258197   7.361   7.325  10.240 -1.2391  1.1286  0.7439
17369SOL     OW58198   2.882   2.951   3.947 -0.3627 -0.1433  0.1799
17369SOL    HW158199   2.959   3.008   3.946  0.7871 -1.6357 -1.5312
17369SOL    HW258200   2.809   3.010   3.927  0.7529  0.8049 -1.2902
17370SOL     OW58201   6.718   4.728   9.181 -0.0796 -0.2540  0.2444
17370SOL    HW158202   6.681   4.816   9.172 -1.0791 -0.5742  1.0655
17370SOL    HW258203   6.813   4.742   9.178 -0.2323  0.7730 -0.2892
17371SOL     OW58204   2.839   6.268   7.793  0.3405 -0.2924 -0.3289
17371SOL    HW158205   2.798   6.316   7.721  0.6457  2.7532  1.3520
17371SOL    HW258206   2.773   6.205   7.821 -1.3551  1.2290 -0.7475
17372SOL     OW58207   2.650   2.192   4.860 -0.7301 -0.3789 -0.6614
17372SOL    HW158208   2.696   2.208   4.942 -0.8645  1.3807 -0.9069
17372SOL    HW258209   2.562   2.229   4.873 -0.7110  0.0403 -1.6375
17373SOL     OW58210   6.097   2.119   6.130 -0.2012  0.2722  0.4795
17373SOL    HW158211   6.080   2.199   6.081 -0.3005  0.1359  0.2911
17373SOL    HW258212   6.192   2.118   6.142 -0.2841  0.9007  1.3092
17374SOL     OW58213   4.682   2.659   8.013 -0.1493 -0.3119 -0.8135
17374SOL    HW158214   4.654   2.646   8.103  0.1583 -0.5137 -0.7480
17374SOL    HW258215   4.753   2.596   8.000 -0.3592 -0.4585 -1.2726
17375SOL     OW58216   9.006   6.394   4.219 -0.8478 -0.0806 -0.0428
17375SOL    HW158217   9.055   6.313   4.203 -0.1604  0.4213 -0.5319
17375SOL    HW258218   9.061   6.463   4.182 -1.6024  0.5730  0.0316
17376SOL     OW58219   0.380   1.340   5.018  0.7707  0.3800  0.0970
17376SOL    HW158220   0.413   1.260   5.058  0.1145  0.5427  0.9801
17376SOL    HW258221   0.392   1.326   4.924  0.3820 -0.8832  0.2252
17377SOL     OW58222   7.617   0.389  10.315  0.1979 -0.4714  0.5526
17377SOL    HW158223   7.620   0.331  10.391 -0.9021  0.5694  1.4211
17377SOL    HW258224   7.574   0.338  10.247  0.7423 -1.2408  0.7749
17378SOL     OW58225   0.667   7.735   4.114  0.5046  0.3578  0.6218
17378SOL    HW158226   0.645   7.677   4.041 -3.2676  2.1436  0.0756
17378SOL    HW258227   0.719   7.806   4.074  2.4680 -0.9573  0.7075
17379SOL     OW58228   0.835   1.970   2.721  0.4181  0.1705 -0.3005
17379SOL    HW158229   0.772   1.970   2.793 -1.0251 -0.3926 -1.5082
17379SOL    HW258230   0.782   1.953   2.643  1.9913  0.3317 -1.4512
17380SOL     OW58231   8.649   9.882  10.060  0.0159 -0.3222  1.0996
17380SOL    HW158232   8.562   9.921  10.049  0.1940  0.5189  2.4531
17380SOL    HW258233   8.689   9.933  10.130  2.3886  0.6361 -0.8300
17381SOL     OW58234   6.401   5.088   9.212  0.3788  0.9157 -0.6027
17381SOL    HW158235   6.319   5.127   9.180  1.1636  1.9465 -1.4446
17381SOL    HW258236   6.407   5.118   9.303 -0.7973 -0.2379 -0.1207
17382SOL     OW58237   3.391   0.395   6.648  0.2520  0.3392 -0.1126
17382SOL    HW158238   3.325   0.394   6.578 -0.5922  0.0817  0.6794
17382SOL    HW258239   3.346   0.434   6.723  0.4126 -1.5463  1.0167
17383SOL     OW58240   0.166   0.745   7.720 -0.1635  0.3842 -0.0641
17383SOL    HW158241   0.102   0.687   7.762 -0.3332  0.8245  0.2908
17383SOL    HW258242   0.129   0.761   7.633 -0.3934  0.4103  0.0385
17384SOL     OW58243   0.538   1.023   4.084 -0.2478  0.1274 -0.4003
17384SOL    HW158244   0.450   0.991   4.104  0.8544 -2.5751  0.4937
17384SOL    HW258245   0.577   1.041   4.170  0.7082 -0.5217 -0.6842
17385SOL     OW58246   9.453   8.183   6.311  0.4397 -0.3762 -0.1081
17385SOL    HW158247   9.390   8.223   6.251  0.7889  1.4083  0.6590
17385SOL    HW258248   9.526   8.156   6.255  0.3874  0.5024 -0.6196
17386SOL     OW58249   6.499   4.297   7.377 -0.4536  0.3723 -0.1143
17386SOL    HW158250   6.419   4.306   7.428  0.5616  1.5521  1.3758
17386SOL    HW258251   6.555   4.368   7.408  1.3566 -0.7134 -0.7324
17387SOL     OW58252   7.175   7.355   9.433 -0.6059  0.8452  0.2375
17387SOL    HW158253   7.191   7.412   9.358  0.7495 -0.3895 -0.4642
17387SOL    HW258254   7.130   7.410   9.496 -1.2801  2.0831 -1.2583
17388SOL     OW58255   1.037   2.097   6.999 -0.1774 -0.1790 -0.2258
17388SOL    HW158256   1.107   2.031   6.998  0.0404  0.0197 -2.3325
17388SOL    HW258257   1.081   2.178   7.024 -0.3920 -0.7022  2.0838
17389SOL     OW58258   3.984  10.182   1.923 -0.2032 -0.1048 -0.5272
17389SOL    HW158259   3.895  10.212   1.938  0.1445  0.4775  0.3983
17389SOL    HW258260   3.977  10.086   1.921 -0.9948 -0.0403 -1.4851
17390SOL     OW58261   4.855   1.184   4.436  0.2082  0.5349 -0.0304
17390SOL    HW158262   4.842   1.171   4.529  0.7157 -0.0156 -0.0297
17390SOL    HW258263   4.900   1.269   4.430 -0.1649  0.7497  0.1959
17391SOL     OW58264   2.388   1.376   3.978 -0.7783  0.1112 -0.4739
17391SOL    HW158265   2.382   1.315   4.051 -0.0979  0.3092 -0.2496
17391SOL    HW258266   2.339   1.333   3.907  0.1732 -0.9675 -0.5034
17392SOL     OW58267   6.256   4.445   5.042  0.3579  0.0209 -0.3733
17392SOL    HW158268   6.303   4.528   5.054 -0.1474  0.1976  0.4265
17392SOL    HW258269   6.299   4.405   4.966  2.9189 -0.6032  1.2684
17393SOL     OW58270   3.859   4.720   6.894  0.2709 -0.3590  0.1108
17393SOL    HW158271   3.795   4.718   6.823  0.7697 -1.4910 -0.3353
17393SOL    HW258272   3.908   4.638   6.883  0.3007 -0.5918  1.8063
17394SOL     OW58273   7.229   5.583   5.652 -0.0686  0.0931 -0.0719
17394SOL    HW158274   7.256   5.613   5.739 -2.4182  1.6719  0.2322
17394SOL    HW258275   7.233   5.488   5.657  0.7178  0.1661  1.4628
17395SOL     OW58276   6.790  10.501   5.872 -0.2567  0.3764 -0.4572
17395SOL    HW158277   6.817  10.487   5.962  0.7796 -1.0239 -0.9454
17395SOL    HW258278   6.699  10.472   5.868  0.5542 -2.3908 -0.4668
17396SOL     OW58279   8.177   7.083   1.662  0.4843  0.3877  0.0493
17396SOL    HW158280   8.164   7.090   1.567  2.1606  1.3382 -0.1471
17396SOL    HW258281   8.272   7.084   1.674  0.3149  1.9955  1.8302
17397SOL     OW58282   9.194   3.752   9.863  0.4274 -0.3983  0.2264
17397SOL    HW158283   9.176   3.807   9.787 -0.2557  0.7105  1.1525
17397SOL    HW258284   9.211   3.666   9.827  0.9994  0.3010 -1.2398
17398SOL     OW58285  10.712   2.567   4.797 -0.0720 -0.0512  0.0691
17398SOL    HW158286  10.771   2.638   4.822  2.3930 -2.0259  0.2541
17398SOL    HW258287  10.676   2.595   4.713  0.6209  1.5441  0.2669
17399SOL     OW58288   3.243   5.635   8.607 -0.1391  0.4317  0.0571
17399SOL    HW158289   3.204   5.722   8.612  0.1545  0.5659  0.0696
17399SOL    HW258290   3.219   5.603   8.521 -0.4758  0.4139  0.1555
17400SOL     OW58291   0.158   8.771  10.476  0.2476 -0.8236  0.0871
17400SOL    HW158292   0.215   8.823  10.419 -0.9715  0.7130  0.1837
17400SOL    HW258293   0.120   8.705  10.419  0.0512 -0.1319 -0.5985
17401SOL     OW58294   3.314   2.966   2.428  0.0327  0.2736 -0.2196
17401SOL    HW158295   3.264   2.886   2.445 -0.4407  0.1371 -1.9860
17401SOL    HW258296   3.294   3.024   2.501  0.0543 -1.0648  0.8782
17402SOL     OW58297   2.836   6.905   1.041  0.1118 -0.5278  0.4060
17402SOL    HW158298   2.772   6.963   1.000 -0.4845 -2.5279 -1.7425
17402SOL    HW258299   2.798   6.884   1.126 -1.3492 -0.4399 -0.1913
17403SOL     OW58300   3.672   3.868   8.873 -0.1333 -0.2305  0.1090
17403SOL    HW158301   3.731   3.923   8.924 -2.4029 -0.4800  3.3028
17403SOL    HW258302   3.729   3.821   8.812  2.9139 -0.3158  2.8000
17404SOL     OW58303   2.381   4.334   3.531 -0.6224 -0.1786 -0.2018
17404SOL    HW158304   2.322   4.312   3.603 -0.1260 -1.8192 -0.2713
17404SOL    HW258305   2.322   4.366   3.462 -1.1976  0.3750  0.5270
17405SOL     OW58306  10.697   1.936   8.243 -0.4768 -0.4247  0.2644
17405SOL    HW158307  10.731   1.882   8.171  0.3837 -1.0125  1.0882
17405SOL    HW258308  10.772   1.989   8.270 -1.0434  0.4731  0.1377
17406SOL     OW58309   4.500   8.850   9.731  0.2818  0.2851  0.3487
17406SOL    HW158310   4.572   8.789   9.751 -0.4213 -0.1706  1.5728
17406SOL    HW258311   4.425   8.815   9.779 -0.6682  0.9828 -0.5862
17407SOL     OW58312   1.857   1.176   5.435  0.0379 -0.1572  0.1938
17407SOL    HW158313   1.800   1.240   5.477  0.0362  0.9574 -1.4071
17407SOL    HW258314   1.918   1.150   5.504  0.3425  1.9399  0.8113
17408SOL     OW58315  10.893   2.516   6.916  0.2360  0.3295 -0.0231
17408SOL    HW158316  10.956   2.539   6.848  3.0122  0.5142  2.4400
17408SOL    HW258317  10.875   2.599   6.961 -1.6580  0.2350 -0.4977
17409SOL     OW58318   3.688   2.139   4.707  0.5403 -0.5050 -0.0885
17409SOL    HW158319   3.673   2.228   4.676  0.3175 -0.7514 -0.7110
17409SOL    HW258320   3.601   2.102   4.717  0.5983 -1.6284 -2.8045
17410SOL     OW58321   6.047   3.104   6.454 -0.1257  0.0803  0.0107
17410SOL    HW158322   6.015   3.052   6.380 -0.0922  0.6232 -0.3855
17410SOL    HW258323   6.115   3.048   6.494 -0.6241 -0.5064  0.0599
17411SOL     OW58324   1.780   5.723  10.202 -0.7641 -0.1018  0.0054
17411SOL    HW158325   1.838   5.762  10.136 -0.5194 -2.3917 -1.2570
17411SOL    HW258326   1.792   5.777  10.279  1.1335  1.0252 -0.9833
17412SOL     OW58327  10.739   8.269   4.864  0.8943  0.0925  0.6646
17412SOL    HW158328  10.683   8.285   4.939 -1.1399  0.0501 -0.7785
17412SOL    HW258329  10.720   8.340   4.803  1.0549 -0.9181 -0.6164
17413SOL     OW58330   5.048   3.541   3.178 -0.3228  0.3562 -0.2575
17413SOL    HW158331   5.140   3.551   3.201 -0.6984  1.9846  0.7260
17413SOL    HW258332   5.041   3.574   3.088 -0.0203  0.7285 -0.1467
17414SOL     OW58333  10.753   5.132   6.750  0.1972 -0.0162 -0.1655
17414SOL    HW158334  10.792   5.080   6.680  1.2084 -0.0686  0.4074
17414SOL    HW258335  10.701   5.069   6.801 -0.1948 -0.0603 -0.6159
17415SOL     OW58336   3.885   4.322   4.999  0.0091 -0.1331  0.0253
17415SOL    HW158337   3.952   4.372   4.952 -1.3741  0.2079 -1.6829
17415SOL    HW258338   3.857   4.379   5.070  1.6306 -0.3580  0.8899
17416SOL     OW58339   9.589   8.205   2.258  0.0752 -0.0284  0.2881
17416SOL    HW158340   9.529   8.240   2.192  0.2474  2.1044  1.1852
17416SOL    HW258341   9.532   8.171   2.327 -0.1215  1.1853  0.7358
17417SOL     OW58342   1.817   6.367   5.529  0.4242 -0.1355  0.2606
17417SOL    HW158343   1.867   6.417   5.594  0.8200 -0.8495  0.5143
17417SOL    HW258344   1.794   6.432   5.462  0.8076  0.4194  0.6575
17418SOL     OW58345   9.938   6.170   8.571 -0.2780  0.2569 -0.2512
17418SOL    HW158346   9.868   6.234   8.556  0.7360  1.4139 -0.1295
17418SOL    HW258347  10.011   6.221   8.604  1.7011 -0.4126 -3.2290
17419SOL     OW58348   6.400   4.890   3.200 -0.7490 -0.1274  0.0791
17419SOL    HW158349   6.425   4.819   3.259 -0.0862 -0.4270 -0.5360
17419SOL    HW258350   6.306   4.900   3.212 -0.5450  0.1754  1.5557
17420SOL     OW58351   9.798   1.143   4.668  0.4354  0.5081  0.4912
17420SOL    HW158352   9.750   1.219   4.636 -0.1095 -0.6235 -1.5895
17420SOL    HW258353   9.737   1.070   4.657  2.3171 -0.8824 -1.6493
17421SOL     OW58354   3.049   9.189   7.397  0.2552  0.0081 -0.1943
17421SOL    HW158355   2.982   9.170   7.463 -0.4612  0.8440 -0.6779
17421SOL    HW258356   3.050   9.284   7.389  1.3772  0.0048 -0.3310
17422SOL     OW58357   2.139   0.773   2.716  0.2328  0.1532 -0.0391
17422SOL    HW158358   2.051   0.763   2.751  1.0995 -2.7466  1.7700
17422SOL    HW258359   2.162   0.864   2.733 -1.4651  0.2788  1.9841
17423SOL     OW58360   2.788   9.034   3.143 -0.4135  0.6406  0.4485
17423SOL    HW158361   2.876   9.040   3.107  0.2723  1.4721  2.1436
17423SOL    HW258362   2.799   8.988   3.227 -1.6783  0.2569  0.4218
17424SOL     OW58363   0.189   7.132   0.432 -0.1430  0.4661 -0.3840
17424SOL    HW158364   0.275   7.126   0.391 -0.2738  2.0554 -1.0123
17424SOL    HW258365   0.153   7.215   0.398 -0.6709  1.3826  2.2106
17425SOL     OW58366   9.541   3.571   9.099  0.0095 -0.4633 -0.2369
17425SOL    HW158367   9.609   3.585   9.165  0.1441  3.5143 -0.9653
17425SOL    HW258368   9.471   3.526   9.146  1.1592 -0.1773  1.8849
17426SOL     OW58369   8.953   5.513   9.124  0.0556  0.4616  0.4918
17426SOL    HW158370   8.876   5.459   9.108  0.6344 -0.2117 -0.0602
17426SOL    HW258371   8.943   5.588   9.065  1.1886 -1.0179 -1.6933
17427SOL     OW58372   6.085   9.422   9.659 -0.1560  0.5076  0.0970
17427SOL    HW158373   6.118   9.374   9.735  0.7674  1.0381  0.0546
17427SOL    HW258374   6.082   9.357   9.589  1.1803  0.5021  0.0112
17428SOL     OW58375   4.188  10.420   9.881 -0.2383  0.0677 -0.1091
17428SOL    HW158376   4.247  10.477   9.931 -0.0212 -0.3377  0.1013
17428SOL    HW258377   4.100  10.447   9.908 -0.1243 -1.0518  1.5474
17429SOL     OW58378   2.293   6.454   8.558  0.0572 -0.2299 -0.5741
17429SOL    HW158379   2.263   6.407   8.480 -0.2180 -0.7614 -0.1591
17429SOL    HW258380   2.225   6.520   8.574  0.4811  0.3695 -1.2015
17430SOL     OW58381   5.189   9.257   8.212 -0.2664  0.3187  0.5307
17430SOL    HW158382   5.095   9.265   8.231 -1.1213 -3.8954 -0.7267
17430SOL    HW258383   5.202   9.311   8.134 -1.5377  1.3450  0.9931
17431SOL     OW58384   7.719   6.296   2.647  0.1168  0.6109  0.7594
17431SOL    HW158385   7.783   6.348   2.598  0.1928 -0.1930 -0.0054
17431SOL    HW258386   7.668   6.251   2.580  1.4780 -2.0247  1.3874
17432SOL     OW58387   0.393   5.819   6.640  0.0864  0.5964 -0.1691
17432SOL    HW158388   0.458   5.754   6.613 -0.6449 -0.0107 -0.5306
17432SOL    HW258389   0.427   5.855   6.722  1.0666  0.5793 -0.5602
17433SOL     OW58390   8.947   5.523   6.498 -0.3457 -0.5137  0.3680
17433SOL    HW158391   8.918   5.528   6.407  0.4474 -0.7255  0.0913
17433SOL    HW258392   8.967   5.613   6.522 -0.4786 -0.4675  0.3054
17434SOL     OW58393   0.885   0.769   7.567  0.5525 -0.6321 -0.1433
17434SOL    HW158394   0.963   0.737   7.611  1.1374  0.3443 -0.4538
17434SOL    HW258395   0.883   0.863   7.585 -0.3671 -0.5811 -0.4153
17435SOL     OW58396   2.117   7.107   7.341  0.0819  0.7701 -0.1234
17435SOL    HW158397   2.091   7.187   7.295 -3.0135  0.4609  0.8497
17435SOL    HW258398   2.064   7.038   7.302  1.3670 -0.5015  0.2934
17436SOL     OW58399   8.740   0.555   0.153 -0.0767 -0.3855  0.3907
17436SOL    HW158400   8.813   0.616   0.164  0.3570 -1.0294  1.1684
17436SOL    HW258401   8.781   0.468   0.150 -0.8998 -0.9180  2.5742
17437SOL     OW58402   3.374   1.924   5.013 -0.1125  0.0378  0.1230
17437SOL    HW158403   3.361   2.010   5.053  0.8330  0.4004 -0.3032
17437SOL    HW258404   3.432   1.877   5.073 -0.0199 -0.0205 -0.0093
17438SOL     OW58405   4.918   3.774   4.157  0.3071 -0.5557 -0.6618
17438SOL    HW158406   5.009   3.802   4.164  0.2159 -0.6037  1.1139
17438SOL    HW258407   4.922   3.679   4.160  0.1551 -0.5405  0.4278
17439SOL     OW58408   4.155   9.612   1.273  0.4324 -0.0510 -0.4136
17439SOL    HW158409   4.209   9.538   1.246 -0.1013 -0.7948  0.4896
17439SOL    HW258410   4.116   9.644   1.191 -0.7209 -1.9049 -0.6626
17440SOL     OW58411  10.876   4.039  10.517  0.2619 -0.4872 -0.5566
17440SOL    HW158412  10.785   4.029  10.490  0.1739  0.0174 -0.4661
17440SOL    HW258413  10.925   3.984  10.456 -0.1227 -0.9132 -0.4795
17441SOL     OW58414   9.640   0.464   6.878  0.1106  0.0585  0.6251
17441SOL    HW158415   9.658   0.463   6.972 -0.0408 -0.5786  0.6470
17441SOL    HW258416   9.724   0.487   6.838 -0.0669  1.3701  0.9672
17442SOL     OW58417   7.698   4.233   9.641  0.0934  0.0011 -0.4827
17442SOL    HW158418   7.733   4.201   9.558 -0.9538  0.5362 -1.1572
17442SOL    HW258419   7.716   4.327   9.640 -1.4995  0.3466 -0.9752
17443SOL     OW58420   6.592   3.485   8.081  0.8187  0.4401 -0.1729
17443SOL    HW158421   6.628   3.490   7.992 -0.1917 -1.1367 -0.7102
17443SOL    HW258422   6.506   3.526   8.075 -0.3976 -2.0353 -0.6207
17444SOL     OW58423   9.679   9.074   0.331  0.1352 -0.1206  0.1428
17444SOL    HW158424   9.697   9.118   0.248 -0.4894 -0.4759 -0.1886
17444SOL    HW258425   9.614   9.007   0.309  1.4386 -1.5779  0.5341
17445SOL     OW58426   3.274   6.416   5.663  0.6035 -0.3178  0.3951
17445SOL    HW158427   3.185   6.426   5.627  0.4506  0.8618  1.0715
17445SOL    HW258428   3.326   6.385   5.588 -0.2434 -0.4033 -0.1750
17446SOL     OW58429  10.502   9.470   0.503  0.2173  0.2441  0.4908
17446SOL    HW158430  10.477   9.517   0.582  1.1805 -0.1232  1.0278
17446SOL    HW258431  10.536   9.538   0.445  0.2162  0.4106  0.6818
17447SOL     OW58432   0.549  10.795   8.537  0.3089 -0.3253 -0.1147
17447SOL    HW158433   0.590  10.878   8.561  0.7386 -0.7766  0.7385
17447SOL    HW258434   0.456  10.809   8.552  0.6670 -1.1464  3.6985
17448SOL     OW58435   0.167   1.723   8.328  0.6991  0.1564 -0.3190
17448SOL    HW158436   0.097   1.699   8.388  1.5794 -0.7106  0.4138
17448SOL    HW258437   0.226   1.647   8.329  1.2426  0.5404 -1.5096
17449SOL     OW58438   3.935   6.232   5.754  0.2279 -0.2568  0.5668
17449SOL    HW158439   3.968   6.248   5.843  1.0600  0.3135  0.1689
17449SOL    HW258440   3.925   6.319   5.716  1.6003 -0.5364 -0.4948
17450SOL     OW58441   3.028   5.189   6.549  0.0917  0.2951 -0.7205
17450SOL    HW158442   2.955   5.250   6.548 -2.2637 -2.1645  2.3795
17450SOL    HW258443   3.088   5.224   6.615  0.0571  0.5842 -0.8416
17451SOL     OW58444  10.614   9.014   6.856  0.4041  0.5126  0.0030
17451SOL    HW158445  10.604   8.933   6.908 -0.3018  0.7296  0.2203
17451SOL    HW258446  10.598   9.084   6.919 -1.1276  0.7654 -0.6349
17452SOL     OW58447   8.099   7.801   7.521 -0.3466  0.1627  0.1040
17452SOL    HW158448   8.155   7.808   7.444  0.0464 -1.0497  0.2660
17452SOL    HW258449   8.020   7.850   7.498  0.2291  0.7748 -0.6249
17453SOL     OW58450   6.550   1.622  10.328  0.0994  0.3093 -0.1621
17453SOL    HW158451   6.459   1.623  10.301  0.2130  3.2892 -0.7574
17453SOL    HW258452   6.600   1.623  10.247  0.6991 -1.0145  0.1606
17454SOL     OW58453  10.309   0.542   8.651  0.6650  0.4988  0.0859
17454SOL    HW158454  10.259   0.596   8.590  1.7736  1.8715  0.3422
17454SOL    HW258455  10.246   0.516   8.718 -0.1896  0.3486 -0.7474
17455SOL     OW58456   5.654   6.551   2.731  0.0254  0.3827 -0.2350
17455SOL    HW158457   5.643   6.469   2.683  0.4928  0.0083  0.2748
17455SOL    HW258458   5.734   6.538   2.782  1.3614  1.9676 -1.7872
17456SOL     OW58459   4.499   6.623   4.468  0.2029  0.5527 -0.8307
17456SOL    HW158460   4.586   6.660   4.453  0.3122  0.6451  0.0172
17456SOL    HW258461   4.510   6.528   4.455  0.4015  0.5764 -0.8290
17457SOL     OW58462  10.928   2.830   6.622  0.3717  0.3125 -0.4718
17457SOL    HW158463  10.907   2.836   6.715  1.5731  0.2821 -0.1858
17457SOL    HW258464  10.844   2.845   6.578 -0.9797 -2.9111  0.6299
17458SOL     OW58465   6.385  10.677   8.740 -0.1177  0.1344 -0.0265
17458SOL    HW158466   6.369  10.770   8.721 -3.3680 -0.4733 -0.8932
17458SOL    HW258467   6.472  10.660   8.703  0.3913  2.7182 -0.2334
17459SOL     OW58468   1.804   7.522   5.264  0.4507 -0.4476 -0.6826
17459SOL    HW158469   1.789   7.515   5.358  0.2068  1.7851 -0.4978
17459SOL    HW258470   1.720   7.496   5.225 -0.0242  0.3044 -0.1875
17460SOL     OW58471   7.374   2.477   9.056  0.4964 -0.2681  0.3052
17460SOL    HW158472   7.294   2.431   9.084  0.8381  0.0377  1.8974
17460SOL    HW258473   7.345   2.535   8.986 -0.7255 -0.0682  0.9471
17461SOL     OW58474   1.458   0.152   5.068  0.1452  0.2680 -0.7960
17461SOL    HW158475   1.496   0.140   4.981  0.5988 -0.6697 -0.4784
17461SOL    HW258476   1.382   0.209   5.053 -0.0978 -0.3109 -1.8765
17462SOL     OW58477   2.599   5.954   1.589  0.1784  0.2746 -0.1044
17462SOL    HW158478   2.558   5.877   1.628  0.8263 -0.8916 -1.6257
17462SOL    HW258479   2.557   5.964   1.504  1.8672  0.0374 -1.0089
17463SOL     OW58480   1.259   8.686   2.102  0.1089  0.1225  0.3065
17463SOL    HW158481   1.237   8.730   2.185  0.7746  1.1295 -0.0385
17463SOL    HW258482   1.319   8.746   2.058 -1.1953  0.2066 -1.4791
17464SOL     OW58483   6.335   9.213   4.936 -0.5483  0.1822  0.4571
17464SOL    HW158484   6.412   9.268   4.922 -1.8073  2.0342  0.4165
17464SOL    HW258485   6.283   9.224   4.857 -0.4305 -1.8497  0.0528
17465SOL     OW58486  10.681   8.683   6.209 -0.0518  0.1126 -0.0482
17465SOL    HW158487  10.644   8.677   6.121  0.2628  0.7434 -0.2337
17465SOL    HW258488  10.690   8.593   6.238 -0.3047 -0.0942 -0.6047
17466SOL     OW58489   8.960   1.864   5.344  0.0286 -0.4013  0.5309
17466SOL    HW158490   8.893   1.911   5.294  0.2704 -0.3785  0.2224
17466SOL    HW258491   8.921   1.850   5.430 -0.2071 -0.0084  0.4895
17467SOL     OW58492   6.687   2.351   7.288  0.8531  0.3896 -0.1772
17467SOL    HW158493   6.723   2.264   7.270  4.8789  2.0513 -1.2640
17467SOL    HW258494   6.639   2.373   7.209  1.0278 -0.2868 -0.4835
17468SOL     OW58495   4.628  10.220   6.376  0.2570 -0.3508  0.2998
17468SOL    HW158496   4.556  10.174   6.419  1.3288 -0.6965  1.7910
17468SOL    HW258497   4.707  10.184   6.417  1.3507 -0.6598 -1.9384
17469SOL     OW58498   6.658   9.422   5.286 -0.3594  0.0274  0.4182
17469SOL    HW158499   6.583   9.375   5.249  0.1406  0.2103 -0.8592
17469SOL    HW258500   6.656   9.508   5.243 -0.1736  0.5116  1.3495
17470SOL     OW58501   3.380   7.834   1.051  0.0645  0.3204 -0.6234
17470SOL    HW158502   3.344   7.894   0.986 -0.6714  0.4420 -0.1071
17470SOL    HW258503   3.377   7.883   1.133  0.1488 -0.1556 -0.3326
17471SOL     OW58504   2.040   9.973   7.764  0.1838 -0.5070  0.4637
17471SOL    HW158505   2.104   9.973   7.692 -0.7518  1.8115 -0.4940
17471SOL    HW258506   2.071  10.043   7.822 -0.5903 -0.4678  0.8302
17472SOL     OW58507   6.287   9.161   1.824 -0.0977  0.0224 -0.2877
17472SOL    HW158508   6.316   9.070   1.828 -2.0598 -0.6829 -0.8330
17472SOL    HW258509   6.230   9.171   1.900  1.6872  1.4540  0.9362
17473SOL     OW58510   1.038   0.083   9.242  0.1061  0.3121 -0.5349
17473SOL    HW158511   1.095   0.007   9.231  0.0675  0.3273 -0.8683
17473SOL    HW258512   0.967   0.069   9.179 -0.8673 -0.2553  0.6396
17474SOL     OW58513   2.877   2.794   6.641 -0.6498 -0.4732 -0.0961
17474SOL    HW158514   2.816   2.733   6.682  0.3468 -1.5665 -0.1982
17474SOL    HW258515   2.926   2.832   6.714 -2.3286  1.4633  0.1202
17475SOL     OW58516   1.901   4.219   0.386 -0.1958 -0.4903 -0.0005
17475SOL    HW158517   1.964   4.272   0.436  0.3993  0.2158 -1.4401
17475SOL    HW258518   1.835   4.282   0.356 -0.2532 -0.8079 -0.5545
17476SOL     OW58519   5.793  10.566   9.833 -0.2198 -0.2999 -0.2607
17476SOL    HW158520   5.886  10.549   9.847 -0.1187 -0.1323 -0.7221
17476SOL    HW258521   5.762  10.490   9.783 -0.2309 -0.1301 -0.5092
17477SOL     OW58522   9.739   9.625   9.789  0.3178 -0.6187 -0.0334
17477SOL    HW158523   9.768   9.555   9.730 -1.7915 -0.2860 -1.5838
17477SOL    HW258524   9.653   9.596   9.821  1.5948 -1.0291  3.4132
17478SOL     OW58525   4.832   6.949   9.687  0.2526  0.2310  0.0378
17478SOL    HW158526   4.778   6.907   9.620 -0.4988  1.0557  0.1020
17478SOL    HW258527   4.893   7.003   9.637 -0.8323  1.4812 -0.0161
17479SOL     OW58528   8.304  10.052   0.565  0.2570  0.0582  0.7150
17479SOL    HW158529   8.238   9.983   0.551  1.2102 -0.7364  0.0155
17479SOL    HW258530   8.312  10.095   0.480  0.6838  0.1025  0.7760
17480SOL     OW58531   5.173   4.915   6.960  0.8563 -0.2423 -0.3191
17480SOL    HW158532   5.127   4.998   6.950 -0.1785 -0.5498  1.5732
17480SOL    HW258533   5.253   4.937   7.009  0.4972 -0.3719  0.3351
17481SOL     OW58534   8.890  10.651  10.867  0.3285 -0.2615  0.8523
17481SOL    HW158535   8.881  10.556  10.873 -1.5616 -0.1518  0.4398
17481SOL    HW258536   8.917  10.666  10.776 -1.7917 -0.3207  0.1607
17482SOL     OW58537  10.884   0.250   8.465 -0.3840 -0.4637  0.5598
17482SOL    HW158538  10.948   0.188   8.431  0.4774 -0.3202  1.8486
17482SOL    HW258539  10.800   0.215   8.436  0.2256 -0.9622 -0.6872
17483SOL     OW58540   2.499   4.303   4.807  0.1767  0.2720  0.1718
17483SOL    HW158541   2.593   4.291   4.816  0.1623  0.6764  0.9698
17483SOL    HW258542   2.463   4.284   4.894 -0.4438  0.4213 -0.0429
17484SOL     OW58543   9.030   7.480   8.429 -0.2726 -0.2349  0.0738
17484SOL    HW158544   8.990   7.559   8.394  0.0232 -0.4367 -0.7304
17484SOL    HW258545   8.973   7.455   8.502 -0.4930  0.5841  0.1869
17485SOL     OW58546   2.986   7.560   5.061 -0.1218  0.2590 -0.3737
17485SOL    HW158547   3.051   7.526   5.122  1.2210 -0.7173 -2.2690
17485SOL    HW258548   2.972   7.651   5.089  0.2956 -0.1996  1.4645
17486SOL     OW58549   8.807   0.137   3.852 -0.5595  0.6040 -0.8559
17486SOL    HW158550   8.799   0.220   3.898  3.9990  0.5203  0.6088
17486SOL    HW258551   8.760   0.075   3.908 -1.4839  1.6850 -0.3903
17487SOL     OW58552   7.055   1.307   3.376 -0.3128  1.0945  0.2451
17487SOL    HW158553   7.012   1.222   3.379 -2.0426  1.9570  1.5741
17487SOL    HW258554   7.075   1.327   3.468  0.6420  1.8693 -0.1074
17488SOL     OW58555   5.145   4.821   5.893  0.0602  0.0153  0.3903
17488SOL    HW158556   5.088   4.787   5.962 -0.7279  0.7439  0.1097
17488SOL    HW258557   5.107   4.905   5.870  0.8944  0.2277 -0.2495
17489SOL     OW58558   0.884   7.533   2.797  0.0085 -0.0746  0.6229
17489SOL    HW158559   0.836   7.569   2.872  1.5143  2.0552  0.6255
17489SOL    HW258560   0.867   7.595   2.726  0.3542 -0.9166 -0.2077
17490SOL     OW58561  10.446   1.796   3.878  0.1325 -0.1167 -0.2411
17490SOL    HW158562  10.402   1.866   3.829 -1.0052 -1.1299 -0.7003
17490SOL    HW258563  10.411   1.715   3.841  0.3197 -0.9238  1.2804
17491SOL     OW58564   3.184   9.443  10.634  0.4072  0.2920 -0.1057
17491SOL    HW158565   3.140   9.377  10.688  2.9516 -0.8937  0.6785
17491SOL    HW258566   3.247   9.484  10.693  1.4851  0.7780 -1.5345
17492SOL     OW58567  10.146   1.266   2.289 -0.5261 -0.2514 -0.2314
17492SOL    HW158568  10.074   1.284   2.349 -0.2345 -0.4319  0.1786
17492SOL    HW258569  10.126   1.180   2.252  0.0727 -0.8478  0.7813
17493SOL     OW58570  10.882   3.146   3.561  0.0012 -0.0213 -0.1944
17493SOL    HW158571  10.884   3.103   3.646 -0.4443  1.4630  0.6121
17493SOL    HW258572  10.927   3.086   3.502  2.0342 -0.2450  1.4847
17494SOL     OW58573  10.438   7.882   2.018 -0.3030  0.6130  0.0113
17494SOL    HW158574  10.359   7.864   1.968 -0.0749 -0.8248  0.1116
17494SOL    HW258575  10.424   7.840   2.103  0.3620  0.7682  0.2108
17495SOL     OW58576   4.920   2.077   5.364  0.0202 -0.1656 -0.1512
17495SOL    HW158577   4.995   2.128   5.394 -1.4537  1.2221  1.3828
17495SOL    HW258578   4.861   2.141   5.326  0.0344 -1.3899 -2.4092
17496SOL     OW58579  10.785   0.863   9.823  0.9327  0.7801  0.0819
17496SOL    HW158580  10.763   0.771   9.836 -2.1347  0.8414 -3.1877
17496SOL    HW258581  10.733   0.910   9.888  0.7502  0.3031  0.2855
17497SOL     OW58582   1.199   3.147   9.737 -0.2958  0.4987 -0.1060
17497SOL    HW158583   1.174   3.226   9.688 -2.2186  0.9127  1.4344
17497SOL    HW258584   1.117   3.101   9.753  0.4591 -0.4017  1.4127
17498SOL     OW58585   1.492   6.829   2.850  0.5962 -0.1195 -0.1608
17498SOL    HW158586   1.451   6.891   2.790  1.0358  0.5656  0.2347
17498SOL    HW258587   1.466   6.858   2.937  0.1924 -0.9452  0.0067
17499SOL     OW58588   5.717   8.041   6.962  0.0598  0.4578 -0.3270
17499SOL    HW158589   5.807   8.015   6.981  0.0681  0.2081 -0.7020
17499SOL    HW258590   5.726   8.119   6.907  0.0561  0.0787 -0.8715
17500SOL     OW58591   6.954  10.818   7.535 -0.1248 -0.6035 -0.5579
17500SOL    HW158592   6.981  10.819   7.443  0.2239  2.0511 -0.4969
17500SOL    HW258593   6.934  10.909   7.556  0.7059 -0.9499  2.2601
17501SOL     OW58594   8.163   9.767   0.492  0.3785  0.4680  0.0560
17501SOL    HW158595   8.096   9.791   0.428 -0.3272 -1.3258  0.0745
17501SOL    HW258596   8.119   9.775   0.577  0.3106 -0.2456  0.0975
17502SOL     OW58597   6.617   2.178  10.798  0.0656  0.4164  0.4894
17502SOL    HW158598   6.708   2.203  10.787  0.4267 -0.6822  0.8961
17502SOL    HW258599   6.613   2.135  10.884 -0.7846  0.2749  0.3947
17503SOL     OW58600   8.238   0.358   4.755 -0.0320 -0.7713  0.8483
17503SOL    HW158601   8.220   0.340   4.848  0.3137 -0.5467  0.9601
17503SOL    HW258602   8.294   0.436   4.756 -0.4367 -0.4743  0.4245
17504SOL     OW58603  10.634   6.891  10.409  0.4491  0.6564 -0.3939
17504SOL    HW158604  10.714   6.911  10.459  0.2685 -1.2722  0.7278
17504SOL    HW258605  10.664   6.834  10.339  0.0638 -0.0638  0.0237
17505SOL     OW58606   9.402   8.289   8.020 -0.1913 -0.2661 -0.5534
17505SOL    HW158607   9.497   8.277   8.019 -0.0298  0.7786  0.1761
17505SOL    HW258608   9.384   8.332   8.104 -1.4827 -1.7900  0.0084
17506SOL     OW58609   3.995   7.680   4.057 -0.0255  0.5817  0.3390
17506SOL    HW158610   4.086   7.678   4.088  0.5710 -0.0943 -1.3543
17506SOL    HW258611   3.964   7.591   4.070 -0.6578  0.9475  1.4406
17507SOL     OW58612   1.708   3.054   7.432 -0.5394  0.2645 -0.1769
17507SOL    HW158613   1.756   2.978   7.465  0.1565  0.3852 -0.8818
17507SOL    HW258614   1.743   3.128   7.481  0.0171  0.3533 -0.6952
17508SOL     OW58615   7.720   0.031   5.119 -0.5115 -0.0723 -0.1545
17508SOL    HW158616   7.744   0.120   5.143 -2.8574  1.0723 -1.7183
17508SOL    HW258617   7.630   0.038   5.087 -1.3063 -3.2466  0.9835
17509SOL     OW58618   2.730   6.513   0.261  0.6676  0.9612 -0.2427
17509SOL    HW158619   2.648   6.546   0.222  0.3745  1.8669  1.0651
17509SOL    HW258620   2.701   6.462   0.337  0.9897 -3.7471 -2.8977
17510SOL     OW58621   3.113   0.815   0.630 -0.5242  0.2921 -0.2555
17510SOL    HW158622   3.122   0.901   0.588  1.6851  1.5005  2.3139
17510SOL    HW258623   3.183   0.762   0.592 -1.5596 -0.2458 -1.4659
17511SOL     OW58624   6.053   4.763   2.947 -0.1644 -0.0953 -0.4973
17511SOL    HW158625   6.116   4.694   2.967  1.2639  0.9506 -1.1961
17511SOL    HW258626   5.968   4.724   2.967  0.5919 -2.0075 -0.7874
17512SOL     OW58627   6.796   1.366   9.585 -0.2745 -0.4113 -0.1309
17512SOL    HW158628   6.809   1.461   9.587 -0.6302 -0.3590  1.2560
17512SOL    HW258629   6.861   1.333   9.523  0.5725  0.6366  0.1815
17513SOL     OW58630   4.900   3.743   8.661  0.4572  0.0883  0.2211
17513SOL    HW158631   4.987   3.705   8.662 -0.0422 -1.1241 -0.0816
17513SOL    HW258632   4.870   3.736   8.752  0.0684 -1.0151  0.0251
17514SOL     OW58633   5.549   7.063   2.324  0.8708 -0.0478  0.1762
17514SOL    HW158634   5.574   6.971   2.328  0.7670 -0.2497 -2.4120
17514SOL    HW258635   5.462   7.066   2.365  0.3142 -1.3452 -0.8524
17515SOL     OW58636  10.264   2.757   3.922 -0.5537 -0.1054  0.3251
17515SOL    HW158637  10.359   2.752   3.911 -0.5025  0.9754  0.2043
17515SOL    HW258638  10.234   2.667   3.907  0.6695 -1.0285  2.7477
17516SOL     OW58639  10.173   1.516   7.327  0.2175  0.1594  0.2560
17516SOL    HW158640  10.167   1.432   7.371  2.5941  0.3715  1.1395
17516SOL    HW258641  10.229   1.570   7.384  2.0622  0.9927 -2.1245
17517SOL     OW58642  10.814   3.746   2.279  0.8553 -0.1096 -0.3059
17517SOL    HW158643  10.839   3.797   2.202  2.4804 -0.2660  0.0999
17517SOL    HW258644  10.893   3.742   2.333 -0.0833 -0.5216  1.0928
17518SOL     OW58645   2.110   5.464   6.535 -0.1586 -0.1750 -0.0892
17518SOL    HW158646   2.056   5.392   6.568  0.6112 -0.3722  0.7689
17518SOL    HW258647   2.195   5.452   6.577  0.7733 -0.2276 -1.8767
17519SOL     OW58648   4.926  10.585   2.561  0.2910 -0.1031 -0.1837
17519SOL    HW158649   4.888  10.672   2.572  0.4118 -0.2561  1.6157
17519SOL    HW258650   4.882  10.531   2.626 -0.1030 -1.5326 -1.5591
17520SOL     OW58651   0.924  10.335   0.011  0.6687 -0.1317 -0.1521
17520SOL    HW158652   0.917  10.426  -0.019 -1.3470 -0.3420 -0.4808
17520SOL    HW258653   0.958  10.342   0.100 -2.4242  1.2567  1.0648
17521SOL     OW58654   9.456   3.570   3.010 -0.2839  0.8149  0.1152
17521SOL    HW158655   9.519   3.615   3.067 -1.7767  1.2468  1.4930
17521SOL    HW258656   9.395   3.639   2.983  0.4124  0.6375 -2.1151
17522SOL     OW58657   6.529   2.447   7.095  0.4901 -0.3725 -0.0831
17522SOL    HW158658   6.507   2.538   7.115 -1.7814 -1.0360  0.7292
17522SOL    HW258659   6.517   2.439   7.001 -0.0522 -0.0044 -0.0484
17523SOL     OW58660   3.158   6.345   9.446  1.1598 -0.1489 -0.2693
17523SOL    HW158661   3.071   6.385   9.438  0.5801 -1.0864  1.0154
17523SOL    HW258662   3.170   6.333   9.540  1.5488 -2.4424 -0.5686
17524SOL     OW58663   0.287   1.470   8.342 -0.2804 -0.6823  0.9332
17524SOL    HW158664   0.244   1.397   8.297  1.0406 -2.2930  2.1395
17524SOL    HW258665   0.374   1.474   8.303  0.4950 -1.3800  2.4692
17525SOL     OW58666   8.730   2.886   1.973  0.0592 -0.3900  0.0739
17525SOL    HW158667   8.751   2.928   1.889  0.2411 -0.5083  0.0603
17525SOL    HW258668   8.677   2.951   2.019 -0.1800 -0.3899 -0.1993
17526SOL     OW58669   3.081   2.861   5.752 -0.1342  0.2076 -0.1402
17526SOL    HW158670   3.065   2.952   5.727 -0.5554 -0.2475 -1.6460
17526SOL    HW258671   3.075   2.861   5.847 -1.5529  1.5093 -0.1806
17527SOL     OW58672   0.433   7.530   6.918  0.4624  0.5998 -0.0641
17527SOL    HW158673   0.447   7.444   6.878 -0.8096 -0.0837  0.8670
17527SOL    HW258674   0.364   7.570   6.864 -0.3786  0.1826  0.6740
17528SOL     OW58675   5.271   8.411   3.408 -0.1241 -0.6808  0.2000
17528SOL    HW158676   5.228   8.341   3.358  0.2460 -0.3627 -0.5686
17528SOL    HW258677   5.339   8.443   3.350  0.4487 -0.4436  0.9970
17529SOL     OW58678   9.127   1.371   1.204  0.1973  0.2355  0.0512
17529SOL    HW158679   9.033   1.386   1.195  0.3236  0.8187 -0.3313
17529SOL    HW258680   9.134   1.287   1.250 -0.5396  1.5358  2.7218
17530SOL     OW58681   6.867   7.642   9.557  0.0812 -0.1364 -0.1629
17530SOL    HW158682   6.936   7.709   9.554 -0.4109  0.3499 -2.1644
17530SOL    HW258683   6.792   7.684   9.514 -1.7060 -0.4512  2.4078
17531SOL     OW58684   8.889   9.709   2.071  0.3083  0.3349  0.0793
17531SOL    HW158685   8.932   9.791   2.096  0.8814  0.1295 -0.2039
17531SOL    HW258686   8.883   9.714   1.976  0.4349  0.0099  0.0542
17532SOL     OW58687   3.079   4.667   7.893  0.3559 -0.1796 -0.3270
17532SOL    HW158688   3.086   4.637   7.802 -1.4327 -1.3741 -0.1372
17532SOL    HW258689   3.095   4.588   7.945  0.9679  0.4114  0.3872
17533SOL     OW58690  10.636   2.078   6.837 -0.1832 -0.6968 -0.2335
17533SOL    HW158691  10.720   2.122   6.821 -1.4067  1.0531 -2.5719
17533SOL    HW258692  10.620   2.027   6.758 -0.9413 -1.7355  0.5583
17534SOL     OW58693   9.395  10.118   6.806 -0.1285 -0.3175  0.0785
17534SOL    HW158694   9.414  10.169   6.885 -1.7110  0.4529 -0.0061
17534SOL    HW258695   9.420  10.175   6.734  0.9572 -0.8744 -0.0093
17535SOL     OW58696   7.009   1.549   9.861 -0.2616 -0.6397 -0.6152
17535SOL    HW158697   6.956   1.548   9.781 -1.7146 -0.9677  0.3062
17535SOL    HW258698   7.007   1.459   9.892  2.2292 -1.0292 -1.3844
17536SOL     OW58699   4.607   9.056   0.638 -0.2047  0.3352 -0.0752
17536SOL    HW158700   4.533   9.087   0.587 -1.1803 -0.4753  0.8020
17536SOL    HW258701   4.570   8.989   0.695  1.3842 -0.7964 -0.3041
17537SOL     OW58702   7.864  10.156   5.445 -0.3281 -0.8247  0.3518
17537SOL    HW158703   7.801  10.098   5.401 -0.2796 -0.4595 -0.2129
17537SOL    HW258704   7.949  10.130   5.411 -0.2936 -0.5115  0.1907
17538SOL     OW58705   8.660   2.898   2.359 -0.2570  0.2154  0.3768
17538SOL    HW158706   8.674   2.806   2.382 -2.3009  0.2554  2.0562
17538SOL    HW258707   8.719   2.946   2.417 -0.3657  0.0279  0.6447
17539SOL     OW58708   1.349   3.068   0.066 -0.1245 -0.6139 -0.0839
17539SOL    HW158709   1.256   3.079   0.085  0.1438  2.4682  0.0011
17539SOL    HW258710   1.382   3.012   0.137 -1.7596 -1.0890  0.3308
17540SOL     OW58711   5.736   8.278   7.657 -0.0031 -0.0382  0.3424
17540SOL    HW158712   5.662   8.339   7.648 -0.1891 -0.2100  0.6585
17540SOL    HW258713   5.811   8.324   7.620 -0.4714 -0.2593 -0.9351
17541SOL     OW58714   4.961   2.386   5.520 -0.1253  0.5287 -0.5735
17541SOL    HW158715   4.957   2.408   5.613  0.6756 -0.4286 -0.2903
17541SOL    HW258716   5.036   2.327   5.513  0.0886  0.9256 -1.9035
17542SOL     OW58717   7.142  10.861   4.872  0.5367 -0.1220 -0.1259
17542SOL    HW158718   7.227  10.884   4.834  0.4010 -2.0774 -1.7683
17542SOL    HW258719   7.109  10.791   4.816 -1.6164 -0.2579  1.2136
17543SOL     OW58720  10.606   5.416   6.357  0.6913  0.4842  0.1526
17543SOL    HW158721  10.585   5.354   6.287 -0.3727  1.8459 -0.8001
17543SOL    HW258722  10.701   5.408   6.370  0.7303 -0.5503 -0.6991
17544SOL     OW58723   1.373   3.960   9.736 -0.0365 -0.8300  0.2150
17544SOL    HW158724   1.377   3.899   9.810  0.8342 -1.1330 -0.0636
17544SOL    HW258725   1.397   4.045   9.773 -1.4624 -0.5897  0.6496
17545SOL     OW58726   5.915   9.334   1.767  0.6682  0.3279  0.6607
17545SOL    HW158727   5.824   9.360   1.751 -0.0377 -0.8318  2.4390
17545SOL    HW258728   5.937   9.277   1.694 -0.0050  0.6632  0.1837
17546SOL     OW58729   2.933   4.473  10.285 -0.3084 -0.2086  0.1212
17546SOL    HW158730   3.005   4.536  10.272  0.9550 -1.5202  0.4647
17546SOL    HW258731   2.963   4.393  10.242 -1.9596 -0.5523 -0.4630
17547SOL     OW58732   0.521   2.310   4.441  0.4284  0.0967 -0.0517
17547SOL    HW158733   0.554   2.388   4.484 -1.2162  0.3466  0.8327
17547SOL    HW258734   0.516   2.334   4.348  0.1097  0.9676  0.1863
17548SOL     OW58735   2.869   9.318   9.726 -0.6364  0.0250 -0.4424
17548SOL    HW158736   2.826   9.377   9.788 -2.2895 -1.5025 -0.0378
17548SOL    HW258737   2.935   9.272   9.777 -0.4968  0.3318 -0.3494
17549SOL     OW58738   1.335   2.580   2.213 -0.0931 -0.0247  0.3101
17549SOL    HW158739   1.252   2.597   2.168 -0.5903 -2.5474  0.1762
17549SOL    HW258740   1.311   2.570   2.305 -0.1198 -1.6544  0.1530
17550SOL     OW58741   3.092   6.375   0.269 -0.0014  0.2422 -0.3940
17550SOL    HW158742   3.027   6.370   0.338 -0.6865  0.5001 -1.0126
17550SOL    HW258743   3.044   6.357   0.188  0.9156 -0.7595 -0.7502
17551SOL     OW58744   7.302   6.498   0.240  0.2932  0.0741 -0.3593
17551SOL    HW158745   7.230   6.547   0.200  1.2277  1.0954 -0.8462
17551SOL    HW258746   7.310   6.419   0.186 -0.1947  0.1394 -0.5350
17552SOL     OW58747   3.842   0.782   4.891  0.5624  1.0913  0.0220
17552SOL    HW158748   3.754   0.787   4.854 -0.1926 -1.2205  1.3016
17552SOL    HW258749   3.898   0.752   4.819 -0.6945 -2.3853  0.3000
17553SOL     OW58750   0.535   4.828   5.648  0.3399  0.8456 -0.0671
17553SOL    HW158751   0.552   4.922   5.648 -1.6176  1.2399 -0.6240
17553SOL    HW258752   0.440   4.820   5.653  0.4900 -1.1333  0.9299
17554SOL     OW58753   3.360   0.035   7.148  0.0286  0.6254 -0.5592
17554SOL    HW158754   3.405   0.010   7.067  0.0158  0.6141 -0.5626
17554SOL    HW258755   3.383  -0.033   7.211 -0.6071  0.1979 -0.7790
17555SOL     OW58756   7.038   3.326   3.645  0.3403 -0.2081  0.2696
17555SOL    HW158757   6.972   3.389   3.674  1.6667  0.4566  2.0542
17555SOL    HW258758   6.992   3.242   3.645 -0.1582 -0.0606  3.2472
17556SOL     OW58759   1.215   3.118   2.300 -0.4017  0.5715  0.2161
17556SOL    HW158760   1.171   3.183   2.245  2.9063  0.1228 -3.4211
17556SOL    HW258761   1.206   3.036   2.252  1.6271 -0.1176  0.9034
17557SOL     OW58762  10.068   1.870  10.410 -0.1231  0.2386 -0.3076
17557SOL    HW158763  10.028   1.957  10.411 -0.0169  0.2854  1.2427
17557SOL    HW258764  10.109   1.864  10.323 -3.0826  0.3355 -1.8608
17558SOL     OW58765  10.712   1.461   8.923  0.8398 -0.1231 -0.1084
17558SOL    HW158766  10.756   1.377   8.913 -0.5901 -0.8832 -0.2972
17558SOL    HW258767  10.652   1.448   8.997 -0.3254  0.3002 -0.9579
17559SOL     OW58768   2.061   6.428   8.116  0.3494  0.0180 -0.2922
17559SOL    HW158769   2.072   6.486   8.040  0.2718  0.4511  0.0215
17559SOL    HW258770   1.971   6.396   8.109  0.3591  0.0176 -0.4149
17560SOL     OW58771   5.293   6.661   2.008  0.1489  0.3600 -0.0151
17560SOL    HW158772   5.311   6.567   2.001  0.8191  0.2863  2.1392
17560SOL    HW258773   5.372   6.699   2.045 -0.6391  1.5658  0.5100
17561SOL     OW58774   6.463  10.620   9.619 -0.1324  0.2524  0.3800
17561SOL    HW158775   6.450  10.676   9.696  1.9380  0.5710  0.5673
17561SOL    HW258776   6.548  10.579   9.635 -0.3110 -0.7379 -1.1106
17562SOL     OW58777   2.798  10.012   8.574  0.0075  0.2037 -0.2992
17562SOL    HW158778   2.829  10.043   8.488 -0.4980  1.3262 -0.1003
17562SOL    HW258779   2.876   9.979   8.617  0.5144  0.8332 -0.7045
17563SOL     OW58780   8.641   9.401   9.687 -0.1505 -0.5786  0.1849
17563SOL    HW158781   8.663   9.349   9.764 -0.5925 -2.0357 -0.6285
17563SOL    HW258782   8.599   9.479   9.722 -0.1350 -1.1041  1.4248
17564SOL     OW58783   4.086   8.561   8.924 -0.1468 -0.5813  0.7466
17564SOL    HW158784   4.119   8.487   8.873 -0.2216 -0.7067  0.8812
17564SOL    HW258785   3.999   8.578   8.888 -0.1782 -0.6364  0.7973
17565SOL     OW58786   9.268   4.411   4.407 -0.5342  0.6915 -0.4782
17565SOL    HW158787   9.245   4.435   4.497  0.3657  2.5420 -0.7166
17565SOL    HW258788   9.184   4.395   4.364 -1.0125  0.7437  0.4224
17566SOL     OW58789   5.278   9.571   3.025  0.4160 -0.0933 -0.3112
17566SOL    HW158790   5.193   9.599   3.058  1.0646  0.7286  0.7473
17566SOL    HW258791   5.267   9.479   3.003 -0.7397  0.0115 -0.2150
17567SOL     OW58792   6.199   2.196   5.503 -0.0400 -0.5510  0.0434
17567SOL    HW158793   6.157   2.114   5.528 -1.2946 -0.4119 -1.4624
17567SOL    HW258794   6.259   2.173   5.432  0.5956 -0.3457  0.4974
17568SOL     OW58795   4.059   4.081   0.365  0.0481 -0.0030  0.4018
17568SOL    HW158796   4.051   4.171   0.399 -1.1572 -0.2465  0.8213
17568SOL    HW258797   4.103   4.091   0.281 -0.7847  1.0754  0.0680
17569SOL     OW58798   1.926   5.059   6.133  0.0987 -0.7611 -0.4152
17569SOL    HW158799   2.017   5.041   6.159  0.5591  1.3112 -0.4117
17569SOL    HW258800   1.930   5.144   6.090 -1.9856 -0.2240  0.3453
17570SOL     OW58801   3.502  10.705   7.572 -0.1156 -0.5189  0.4567
17570SOL    HW158802   3.591  10.682   7.598 -0.5606 -1.9004  0.8007
17570SOL    HW258803   3.470  10.762   7.642  0.3462 -0.3468  0.5281
17571SOL     OW58804   7.391   9.485   0.553 -0.0393  0.4390 -0.5296
17571SOL    HW158805   7.333   9.471   0.478 -0.1839  0.7079 -0.4706
17571SOL    HW258806   7.345   9.446   0.627  0.5564 -0.7232 -0.7513
17572SOL     OW58807   8.530   7.329   5.767 -0.2225 -0.1373 -0.0545
17572SOL    HW158808   8.459   7.357   5.708 -1.6134  1.0860  2.0758
17572SOL    HW258809   8.596   7.398   5.760  0.7206 -1.1395 -1.8303
17573SOL     OW58810   0.707   1.503   3.231 -0.1816 -0.1395 -0.2475
17573SOL    HW158811   0.706   1.421   3.182  0.4527  0.0358 -0.5587
17573SOL    HW258812   0.797   1.509   3.265 -0.5000 -0.0642  0.6099
17574SOL     OW58813   9.594   3.475   9.401 -0.2564  1.3164  0.5699
17574SOL    HW158814   9.636   3.391   9.384 -0.3663  1.1567  1.0576
17574SOL    HW258815   9.508   3.451   9.436 -0.1996  1.6269  0.9260
17575SOL     OW58816   5.132   5.596   0.697  0.5359  0.1156  0.1656
17575SOL    HW158817   5.097   5.522   0.747  0.0185 -0.4185 -0.9443
17575SOL    HW258818   5.074   5.669   0.718 -0.2433 -0.3408 -0.3533
17576SOL     OW58819   2.653   6.876   5.807  0.5715  0.4089  0.2555
17576SOL    HW158820   2.674   6.904   5.718 -0.3372 -0.3559 -0.2137
17576SOL    HW258821   2.681   6.949   5.863  1.1909  0.8744 -0.6445
17577SOL     OW58822   9.557   2.029   1.825 -0.4898  0.5706 -0.2710
17577SOL    HW158823   9.537   2.091   1.755 -0.5796  2.2314  1.1383
17577SOL    HW258824   9.486   2.041   1.889 -0.9275 -1.5696 -0.2778
17578SOL     OW58825   4.887   7.846   6.471 -0.6848 -0.1769 -0.2789
17578SOL    HW158826   4.828   7.774   6.493 -0.5799 -0.4202 -0.7654
17578SOL    HW258827   4.882   7.906   6.545  0.0325 -1.1965  0.6328
17579SOL     OW58828  10.637   4.612   8.710 -0.1998 -0.9326 -0.2255
17579SOL    HW158829  10.659   4.519   8.721 -0.6392 -0.8688  1.4771
17579SOL    HW258830  10.711   4.649   8.662  2.1400 -1.3092  2.7634
17580SOL     OW58831   9.267   2.182   9.216  0.0957 -0.0299  0.1234
17580SOL    HW158832   9.240   2.150   9.302 -2.3241 -1.7544 -1.1361
17580SOL    HW258833   9.361   2.164   9.212  0.2499  0.0525  2.3588
17581SOL     OW58834   6.781   7.053   3.246 -0.4221  0.3000 -0.3967
17581SOL    HW158835   6.756   6.961   3.238  0.0591 -0.0562  1.5634
17581SOL    HW258836   6.820   7.075   3.162 -1.3339 -1.0291 -1.2061
17582SOL     OW58837   9.584   7.688   9.555  0.3834  0.1452 -0.0720
17582SOL    HW158838   9.528   7.612   9.572  1.5269 -0.5574  0.6436
17582SOL    HW258839   9.531   7.763   9.581  0.1876 -0.5776  1.7888
17583SOL     OW58840   2.954  10.189   9.486 -0.4773 -0.1441 -0.0353
17583SOL    HW158841   3.028  10.149   9.533 -0.1901 -1.0408 -1.2156
17583SOL    HW258842   2.986  10.276   9.461  0.2952 -0.6293 -0.7787
17584SOL     OW58843   2.013   3.345   8.211 -0.0030  0.2520  0.1842
17584SOL    HW158844   2.075   3.341   8.283  0.6736  0.2718 -0.3922
17584SOL    HW258845   1.927   3.355   8.253  0.3426 -0.1503  0.9932
17585SOL     OW58846   2.282   4.921   7.001 -0.2229  0.2369  0.3629
17585SOL    HW158847   2.370   4.958   6.993 -0.8733  2.4783  2.3621
17585SOL    HW258848   2.227   4.980   6.949 -0.7080 -0.5424 -0.0318
17586SOL     OW58849   0.713   2.992   8.733 -0.4222  0.3024  0.3613
17586SOL    HW158850   0.723   2.922   8.798  1.5579  0.1233 -0.0796
17586SOL    HW258851   0.744   2.952   8.651  1.2029  1.8241  0.1968
17587SOL     OW58852  10.422   1.179   3.337  0.0647  0.2569  0.3499
17587SOL    HW158853  10.424   1.102   3.394  1.9047 -0.4282 -0.5240
17587SOL    HW258854  10.455   1.250   3.391  2.6068 -0.5615  0.0263
17588SOL     OW58855   2.192   2.997   8.343 -0.3101  0.2809 -0.4978
17588SOL    HW158856   2.214   2.911   8.378 -0.8303  0.3505  0.0239
17588SOL    HW258857   2.236   3.000   8.258  0.9041  0.0682  0.0954
17589SOL     OW58858   0.909   8.973   8.899  0.0148  0.1996 -0.0597
17589SOL    HW158859   0.835   9.008   8.949 -0.3685 -0.9350  0.1844
17589SOL    HW258860   0.978   8.960   8.963 -0.0488 -0.0704 -0.0479
17590SOL     OW58861   1.823   7.221   4.412 -0.0612  0.4036 -0.4245
17590SOL    HW158862   1.863   7.181   4.335  0.5712 -1.2997  0.7225
17590SOL    HW258863   1.882   7.293   4.435  0.9649 -0.4566 -0.2772
17591SOL     OW58864   8.496   5.799   6.740  0.3154 -0.3471  0.0993
17591SOL    HW158865   8.428   5.731   6.750  0.9572 -1.0243 -0.0602
17591SOL    HW258866   8.484   5.855   6.817  0.6042 -1.3907  0.9345
17592SOL     OW58867   0.846   0.542   1.827 -0.1060 -0.2812 -0.5299
17592SOL    HW158868   0.816   0.479   1.892  0.0466 -1.4072 -1.5326
17592SOL    HW258869   0.781   0.537   1.757  0.3658  0.0739 -0.9978
17593SOL     OW58870   0.182   2.203   5.432 -0.1092 -0.1144  0.1609
17593SOL    HW158871   0.111   2.145   5.460 -0.3714 -0.6259 -1.4569
17593SOL    HW258872   0.243   2.203   5.505 -1.8208  0.4626  1.6849
17594SOL     OW58873   9.437   9.127   1.875 -0.6977  0.0719 -0.1306
17594SOL    HW158874   9.530   9.114   1.890 -0.5560 -0.3266 -1.2537
17594SOL    HW258875   9.399   9.136   1.962  0.3993  0.3248  0.3261
17595SOL     OW58876   8.434   7.650   8.218 -0.3056 -0.5751 -0.9125
17595SOL    HW158877   8.356   7.681   8.173 -0.2641  2.0882  0.6422
17595SOL    HW258878   8.485   7.606   8.150 -2.4693 -1.1617 -2.2671
17596SOL     OW58879   4.542   5.312   5.549  0.1249  0.2460  0.0087
17596SOL    HW158880   4.488   5.389   5.529 -1.0015 -0.7843 -1.0292
17596SOL    HW258881   4.479   5.242   5.564  1.1246 -0.3567  1.5601
17597SOL     OW58882   0.106   9.413   8.437  0.2656  0.6994  0.5215
17597SOL    HW158883   0.179   9.442   8.382 -2.6897  0.9239 -3.7898
17597SOL    HW258884   0.118   9.318   8.446  1.7607  0.9296  1.0981
17598SOL     OW58885   2.565   9.756   5.076 -0.2699  0.2260 -0.1272
17598SOL    HW158886   2.591   9.680   5.129 -0.7961 -0.2338 -0.5281
17598SOL    HW258887   2.514   9.811   5.136 -0.7574 -0.2331 -0.1168
17599SOL     OW58888   1.211   7.461   5.938  0.0096 -0.2761 -0.2877
17599SOL    HW158889   1.250   7.548   5.933  0.4621 -0.4324  0.3801
17599SOL    HW258890   1.283   7.401   5.920 -0.4641 -0.5039 -1.5229
17600SOL     OW58891   1.529   2.455   6.126  0.0946 -0.4216  0.8206
17600SOL    HW158892   1.468   2.465   6.053  2.4236  0.7767 -1.0983
17600SOL    HW258893   1.481   2.490   6.202 -2.1587 -1.0875 -0.2277
17601SOL     OW58894   7.435   0.194   1.653  0.0441 -0.1557 -0.4370
17601SOL    HW158895   7.424   0.112   1.701  0.7006  1.4039  2.6147
17601SOL    HW258896   7.366   0.251   1.686 -0.5200  0.5334 -2.6459
17602SOL     OW58897   1.310   8.193   4.027  0.3677 -0.0137  0.3889
17602SOL    HW158898   1.266   8.202   3.943 -0.4071 -0.2041  0.7716
17602SOL    HW258899   1.401   8.173   4.004  0.3790  0.8713 -0.4110
17603SOL     OW58900   7.883   8.885   2.645 -0.0244  0.6313  0.0882
17603SOL    HW158901   7.811   8.904   2.584 -0.1844 -1.0759 -0.2919
17603SOL    HW258902   7.929   8.969   2.654 -0.5385  1.1534 -1.6569
17604SOL     OW58903   8.854  10.266   0.239 -0.0442 -0.7754  0.2368
17604SOL    HW158904   8.925  10.246   0.300 -0.1968 -1.6756  0.1334
17604SOL    HW258905   8.779  10.283   0.296 -0.3833 -2.3754  0.3190
17605SOL     OW58906   3.920   9.144  10.781  0.2072 -0.5801  0.1642
17605SOL    HW158907   3.934   9.072  10.719  0.1281 -0.5340  0.0923
17605SOL    HW258908   3.850   9.196  10.742  0.1110 -0.5879  0.3223
17606SOL     OW58909   1.515   7.014  10.783  0.4269  0.0591  0.0442
17606SOL    HW158910   1.588   6.952  10.784  1.1686  0.9123  0.8574
17606SOL    HW258911   1.451   6.977  10.844  1.1483  0.4048  1.0307
17607SOL     OW58912   3.388   4.280   3.534  0.4916 -0.1309 -0.0161
17607SOL    HW158913   3.295   4.296   3.550 -0.0751 -2.3084 -0.7138
17607SOL    HW258914   3.405   4.320   3.450  0.3721  0.8662  0.4240
17608SOL     OW58915   6.923   1.549   7.712  0.1836  0.4675 -0.5783
17608SOL    HW158916   6.875   1.466   7.700  0.7411 -0.0306  0.5012
17608SOL    HW258917   7.012   1.522   7.732  0.1358  1.2827  0.8787
17609SOL     OW58918   3.956  10.277   9.637 -0.0067 -0.1651 -0.1484
17609SOL    HW158919   4.035  10.226   9.656  0.8884  1.1079 -0.3316
17609SOL    HW258920   3.928  10.309   9.722  1.8465  2.4248 -0.3917
17610SOL     OW58921   4.266   8.165   9.633  0.0731  0.6938  0.1771
17610SOL    HW158922   4.254   8.199   9.722  2.6699  1.1622  0.4287
17610SOL    HW258923   4.238   8.236   9.576 -1.6726  0.3676  0.5718
17611SOL     OW58924   0.605   2.900   6.394 -0.5613 -0.1399  0.2688
17611SOL    HW158925   0.633   2.819   6.437 -0.1889 -0.1304  0.0503
17611SOL    HW258926   0.686   2.938   6.361 -0.7814  0.1330  0.0423
17612SOL     OW58927   1.124   5.034   9.735 -0.4977 -0.1600  0.5484
17612SOL    HW158928   1.117   5.033   9.831 -1.1406  0.1493  0.5062
17612SOL    HW258929   1.160   4.947   9.714 -0.9495 -0.4744  1.0274
17613SOL     OW58930   0.384   4.701   8.898 -0.3420 -0.4324 -0.1387
17613SOL    HW158931   0.450   4.665   8.840 -1.3394  0.6200 -2.0324
17613SOL    HW258932   0.372   4.791   8.867 -1.2349  0.0233  1.4377
17614SOL     OW58933   6.939   3.672   3.966  0.1689  0.1115  0.0574
17614SOL    HW158934   6.861   3.654   3.914 -0.3507 -1.3038  1.2608
17614SOL    HW258935   6.993   3.593   3.955  0.0882 -0.1807  1.5537
17615SOL     OW58936   0.202   1.051   7.081  1.3777 -0.1833 -0.5441
17615SOL    HW158937   0.251   0.970   7.067 -0.9687 -2.1486  1.5104
17615SOL    HW258938   0.263   1.109   7.127  3.3700 -0.3534 -2.7612
17616SOL     OW58939  10.683  10.723   2.367 -0.4703  0.3338 -0.4474
17616SOL    HW158940  10.599  10.676   2.376  0.1807 -0.6678  0.7971
17616SOL    HW258941  10.719  10.723   2.456  0.8106  0.8332 -0.9481
17617SOL     OW58942   4.748   2.267   6.686  0.0857  0.4336 -0.3622
17617SOL    HW158943   4.754   2.176   6.655  2.4100  0.8496 -1.3983
17617SOL    HW258944   4.759   2.261   6.781  2.4191 -0.2985 -0.6100
17618SOL     OW58945  10.678   5.688   8.257  0.5328 -0.2196 -0.0054
17618SOL    HW158946  10.657   5.768   8.208  0.6122 -0.6937 -0.8330
17618SOL    HW258947  10.622   5.692   8.335 -2.8647 -1.4637 -2.1181
17619SOL     OW58948   0.396   9.369   4.616  0.0320  0.1591  0.1414
17619SOL    HW158949   0.347   9.450   4.602 -0.7616 -0.0404  1.5532
17619SOL    HW258950   0.448   9.386   4.694  1.4597  0.0007 -0.7411
17620SOL     OW58951   2.133   2.158   7.128  0.3183  0.4094  0.1256
17620SOL    HW158952   2.066   2.195   7.185 -0.3490  2.1980 -1.6782
17620SOL    HW258953   2.129   2.212   7.049  2.5099 -0.7273 -0.8494
17621SOL     OW58954   8.399   3.146   9.245 -0.0898  0.0352 -0.0294
17621SOL    HW158955   8.471   3.111   9.297 -0.0260  1.0199  0.5648
17621SOL    HW258956   8.425   3.130   9.154 -0.4439 -2.1879  0.1880
17622SOL     OW58957   2.715  10.011   6.434  0.5025  0.3395  0.4187
17622SOL    HW158958   2.729  10.105   6.446 -0.3442  0.2967  2.0257
17622SOL    HW258959   2.654  10.004   6.361  1.8069  0.9243 -0.7873
17623SOL     OW58960   5.107   5.243   7.244 -0.4807  0.4853  0.3202
17623SOL    HW158961   5.184   5.186   7.246  1.0586  2.4699  0.5566
17623SOL    HW258962   5.037   5.186   7.213  1.1896 -1.2694 -0.4917
17624SOL     OW58963   1.858   8.582   2.255 -0.1258  0.0502  0.2953
17624SOL    HW158964   1.942   8.604   2.296  0.0537 -0.5232  0.2517
17624SOL    HW258965   1.869   8.491   2.225  0.2433  0.8493 -2.2576
17625SOL     OW58966   3.441   4.069   9.417 -0.5600 -0.1353  0.1466
17625SOL    HW158967   3.411   4.051   9.506  1.8262 -1.4068  0.7926
17625SOL    HW258968   3.428   3.987   9.370  0.0706 -0.1187 -0.0728
17626SOL     OW58969   8.492   9.821   3.670 -0.2149 -0.2751  0.0800
17626SOL    HW158970   8.587   9.815   3.668 -0.2738 -1.6648  0.0163
17626SOL    HW258971   8.470   9.837   3.761  0.0309 -1.6966  0.4110
17627SOL     OW58972   4.249   5.467   9.549 -0.5735  0.1684  0.0145
17627SOL    HW158973   4.162   5.433   9.568 -0.3236 -0.0336  0.8367
17627SOL    HW258974   4.243   5.560   9.572 -0.6484  0.2157 -0.1943
17628SOL     OW58975   1.843  10.902   2.800  0.2670  0.1994  0.2127
17628SOL    HW158976   1.756  10.942   2.801  0.3558  0.3950  0.3288
17628SOL    HW258977   1.833  10.821   2.850 -0.0666 -0.2547 -0.5684
17629SOL     OW58978   5.013   3.486   0.406 -0.1380 -0.3483  0.1934
17629SOL    HW158979   5.095   3.484   0.456  0.1438 -1.3327 -0.2763
17629SOL    HW258980   5.040   3.475   0.315 -0.5786  2.2300 -0.3098
17630SOL     OW58981   7.748   3.849   7.586  0.0352  0.0374 -0.5530
17630SOL    HW158982   7.738   3.767   7.635  0.2091  0.0501 -0.4969
17630SOL    HW258983   7.662   3.890   7.590  0.5057  0.9190  1.3167
17631SOL     OW58984   7.739   4.390   9.126  0.4607 -0.8389  0.2327
17631SOL    HW158985   7.784   4.306   9.125  1.6029 -0.2501 -1.2029
17631SOL    HW258986   7.734   4.416   9.034  2.3503  1.7620  0.7354
17632SOL     OW58987  10.679   9.010   6.292 -0.0702 -0.0111 -0.4646
17632SOL    HW158988  10.702   8.950   6.221  1.3058  0.8811 -0.8235
17632SOL    HW258989  10.738   9.085   6.279  0.5724 -0.0405  1.9291
17633SOL     OW58990   9.418   8.769   6.372  0.0004 -0.5456 -0.1281
17633SOL    HW158991   9.476   8.832   6.415 -1.1110 -1.8594  3.6776
17633SOL    HW258992   9.338   8.818   6.352  0.6693  0.1659 -1.2112
17634SOL     OW58993   8.454   5.280   7.036  0.3151  0.3730  0.0145
17634SOL    HW158994   8.525   5.298   7.098  1.1333  1.3510 -1.1527
17634SOL    HW258995   8.443   5.185   7.039  1.1194  0.2916  0.8194
17635SOL     OW58996   1.096   3.464   2.707 -0.2277  0.2672 -0.3825
17635SOL    HW158997   1.106   3.377   2.669 -3.0323 -0.6694  0.7752
17635SOL    HW258998   1.017   3.499   2.666 -0.8288  1.0004  1.3113
17636SOL     OW58999   2.916   7.751   0.906 -0.0151 -0.0092  0.0244
17636SOL    HW159000   2.826   7.775   0.884 -0.3452 -0.5963  0.6991
17636SOL    HW259001   2.934   7.674   0.851  0.3592  0.5770 -0.6919
17637SOL     OW59002   1.947   6.570   9.742 -0.1337 -0.2103 -0.7338
17637SOL    HW159003   1.928   6.492   9.689 -0.8054 -0.6748  0.1627
17637SOL    HW259004   2.041   6.564   9.759 -0.4221 -1.6766  0.5867
17638SOL     OW59005   6.458  10.157   5.451 -0.4020  0.0535 -0.1946
17638SOL    HW159006   6.375  10.109   5.448  0.9819 -2.5201 -0.6270
17638SOL    HW259007   6.458  10.200   5.537 -0.8925 -2.5286  1.2099
17639SOL     OW59008   1.911   6.217   0.291  0.4980 -0.8593 -0.3036
17639SOL    HW159009   1.846   6.206   0.360 -0.9044 -2.4934 -1.7835
17639SOL    HW259010   1.886   6.299   0.248  1.3346  0.1269  1.0098
17640SOL     OW59011   7.976   4.801   6.899  0.5163  0.0532 -0.2562
17640SOL    HW159012   8.068   4.787   6.875  0.9841  0.6452  1.0447
17640SOL    HW259013   7.964   4.896   6.889  0.4606  0.1788  0.8423
17641SOL     OW59014   7.537   7.862   2.957  0.2988  0.3166  0.0109
17641SOL    HW159015   7.478   7.788   2.970 -0.0370  0.9568  3.0477
17641SOL    HW259016   7.611   7.826   2.908 -0.0508 -1.9766  1.0307
17642SOL     OW59017   9.370   8.091   6.619  0.1599 -0.0785  0.1971
17642SOL    HW159018   9.452   8.067   6.576  1.5406  1.3864  1.8523
17642SOL    HW259019   9.375   8.048   6.705 -0.6998  0.2435  0.4233
17643SOL     OW59020   3.642   4.006   5.582 -0.2384  0.2239  0.1700
17643SOL    HW159021   3.697   4.085   5.589 -0.8853  0.5696  1.7228
17643SOL    HW259022   3.606   3.994   5.670 -2.9934  0.2393 -0.8784
17644SOL     OW59023   2.857   3.011  10.770 -0.0181 -0.1796  0.2150
17644SOL    HW159024   2.779   3.016  10.714 -0.7942  1.4693  1.3791
17644SOL    HW259025   2.828   2.966  10.849  0.3987 -0.1765  0.3742
17645SOL     OW59026   0.013   7.409   6.914  0.3443  0.1685 -0.4220
17645SOL    HW159027  -0.056   7.472   6.931  0.5213  0.9181 -2.2188
17645SOL    HW259028   0.025   7.363   6.997 -1.0845  1.2086  0.4057
17646SOL     OW59029   7.113   8.823   6.636 -0.2982  0.2149 -0.7726
17646SOL    HW159030   7.037   8.766   6.649 -1.0371  1.1504 -0.9156
17646SOL    HW259031   7.076   8.909   6.617  0.7369  0.1179 -3.7626
17647SOL     OW59032   6.302   1.709   3.874  0.0074  0.0666 -0.4713
17647SOL    HW159033   6.299   1.652   3.951 -1.2050  0.5555 -0.1390
17647SOL    HW259034   6.387   1.690   3.834 -0.2590 -1.7687 -0.2260
17648SOL     OW59035   3.980   6.726   7.198  0.5683 -0.9705 -0.3214
17648SOL    HW159036   4.020   6.752   7.281 -0.6379 -0.4646  0.1324
17648SOL    HW259037   4.053   6.703   7.142  1.4096 -1.3296  0.8860
17649SOL     OW59038   5.523   0.635   9.333 -0.3555  0.3223  0.5154
17649SOL    HW159039   5.479   0.562   9.375  0.7408 -0.1173  0.9414
17649SOL    HW259040   5.614   0.628   9.362  0.0297  1.1182 -0.4323
17650SOL     OW59041   3.605   4.512   5.832  0.0180 -0.4765 -0.2124
17650SOL    HW159042   3.668   4.548   5.896  1.1349 -0.1567 -1.4478
17650SOL    HW259043   3.594   4.582   5.768  1.7573 -2.0354 -2.3465
17651SOL     OW59044   8.063   6.400   7.414  0.0955  0.3426  0.4836
17651SOL    HW159045   7.981   6.413   7.366  1.0066  0.3877 -1.1284
17651SOL    HW259046   8.066   6.306   7.432  0.0629  0.1996 -0.2066
17652SOL     OW59047   7.645   7.357   8.676 -0.0958 -0.1968  0.0232
17652SOL    HW159048   7.739   7.369   8.691 -0.3526  0.4656  1.2935
17652SOL    HW259049   7.605   7.378   8.761 -1.4446  0.3304 -0.7158
17653SOL     OW59050   7.887   9.215   3.420 -0.6502  0.2629  0.1865
17653SOL    HW159051   7.872   9.186   3.510  0.3797 -0.0682  0.2745
17653SOL    HW259052   7.969   9.265   3.425  0.7045 -1.7112 -0.9150
17654SOL     OW59053  10.174  10.426   6.460  0.1093  0.0342  0.2842
17654SOL    HW159054  10.188  10.343   6.506 -1.6273  0.1246  1.0390
17654SOL    HW259055  10.172  10.402   6.368  0.0582 -0.7060  0.4687
17655SOL     OW59056   3.282   5.933   1.347 -0.1711  0.2158 -0.0007
17655SOL    HW159057   3.376   5.944   1.358 -0.0134  0.8741 -1.7099
17655SOL    HW259058   3.259   5.859   1.403  0.9756  1.3629  2.0743
17656SOL     OW59059   1.201  10.192   7.376  0.4059  0.0289 -0.0309
17656SOL    HW159060   1.215  10.240   7.294  2.2613 -2.1543 -1.0857
17656SOL    HW259061   1.189  10.101   7.350 -0.9212 -0.4797  2.0490
17657SOL     OW59062   2.185   4.193   5.708 -0.0453  0.7062  0.4327
17657SOL    HW159063   2.179   4.100   5.690 -1.2551  0.7625  0.4582
17657SOL    HW259064   2.261   4.202   5.765  0.7359 -0.1148 -0.4436
17658SOL     OW59065   2.871  10.664   8.349 -0.0927 -0.0967 -0.8101
17658SOL    HW159066   2.843  10.755   8.357  0.3452  0.1483 -1.9052
17658SOL    HW259067   2.905  10.657   8.260  0.5410 -1.1499 -0.5043
17659SOL     OW59068   2.765   1.740   8.149 -0.5218  0.2469 -0.2832
17659SOL    HW159069   2.782   1.651   8.180 -0.3656  0.5175  0.4119
17659SOL    HW259070   2.670   1.750   8.158 -0.4906  0.2874  0.0057
17660SOL     OW59071   0.408   7.729   0.776 -0.0696  0.2437  0.3570
17660SOL    HW159072   0.479   7.673   0.808 -0.8508 -0.5532  0.7657
17660SOL    HW259073   0.329   7.676   0.788 -0.6074  0.6240 -1.2476
17661SOL     OW59074   4.999   5.497   5.841 -0.5295 -0.0234 -0.3974
17661SOL    HW159075   5.002   5.590   5.862 -0.7627 -0.5971  2.5871
17661SOL    HW259076   4.930   5.462   5.897 -0.0725 -2.0899 -1.0456
17662SOL     OW59077   1.805   6.255   6.563 -0.3126  0.0351  0.5118
17662SOL    HW159078   1.827   6.192   6.494  1.5430 -0.9363  1.8778
17662SOL    HW259079   1.740   6.313   6.524 -0.4825 -1.4290 -1.5119
17663SOL     OW59080   3.723   8.218   3.095 -0.0730 -0.2023 -0.8235
17663SOL    HW159081   3.662   8.155   3.056 -1.6553  0.1710  0.8877
17663SOL    HW259082   3.696   8.223   3.187 -0.0785  3.0292 -0.8968
17664SOL     OW59083   5.226   6.487   3.815  0.3316 -0.5046 -0.2071
17664SOL    HW159084   5.261   6.539   3.887  0.3859 -0.5240 -0.2193
17664SOL    HW259085   5.137   6.465   3.842  0.5722 -1.0561  0.1415
17665SOL     OW59086   4.548   7.237   9.621  0.3165  0.4710  0.2066
17665SOL    HW159087   4.634   7.261   9.587  0.9247 -0.2344  1.2058
17665SOL    HW259088   4.535   7.293   9.697  0.9546 -1.0294  1.4705
17666SOL     OW59089   8.027   8.656   6.078  0.2876  0.4870  0.3916
17666SOL    HW159090   7.968   8.688   6.146  1.8195  2.0642  1.0730
17666SOL    HW259091   8.057   8.571   6.111 -0.3185  0.4380  0.8395
17667SOL     OW59092   9.499   8.646   7.439  0.5103 -0.6749  0.0954
17667SOL    HW159093   9.454   8.715   7.487  1.4175 -0.6697  0.9565
17667SOL    HW259094   9.468   8.656   7.349  0.7511  0.9750  0.1562
17668SOL     OW59095   7.107   4.699   4.607 -0.3843  0.1235 -0.0649
17668SOL    HW159096   7.167   4.626   4.594 -0.2677  0.2557 -0.2793
17668SOL    HW259097   7.020   4.663   4.586 -0.5891 -0.4762  1.6640
17669SOL     OW59098   3.859   4.911   6.536  0.0303 -0.2425 -0.6028
17669SOL    HW159099   3.800   4.861   6.591 -1.2262  1.5501 -0.2151
17669SOL    HW259100   3.832   4.890   6.447  0.1898 -1.0189 -0.4673
17670SOL     OW59101   8.246   3.273   1.221  0.0189  0.2935  0.0876
17670SOL    HW159102   8.318   3.211   1.212 -0.7572 -0.3773 -2.1960
17670SOL    HW259103   8.219   3.267   1.312 -0.0222 -2.7615 -0.0450
17671SOL     OW59104  10.693   4.925   5.531  0.3921 -0.0403 -0.6973
17671SOL    HW159105  10.684   5.008   5.579 -0.1326  0.4213 -1.5740
17671SOL    HW259106  10.713   4.952   5.442  0.8609 -0.8874 -0.8565
17672SOL     OW59107   0.568   7.257  10.474 -0.0066 -0.5361 -0.5669
17672SOL    HW159108   0.602   7.171  10.496  0.7577 -0.7652 -2.4235
17672SOL    HW259109   0.555   7.254  10.379 -1.8527  0.7528 -0.4162
17673SOL     OW59110   8.811   8.613   7.549 -0.0637  0.8429  0.2169
17673SOL    HW159111   8.859   8.534   7.527 -2.6960 -0.8597  0.2110
17673SOL    HW259112   8.862   8.654   7.620  1.5661 -0.5850 -0.0740
17674SOL     OW59113   7.516  10.079   2.804  0.7997  0.0150 -0.3615
17674SOL    HW159114   7.602  10.121   2.797  0.3502  0.9754 -0.2783
17674SOL    HW259115   7.510  10.023   2.726  1.1118  0.6825 -0.8728
17675SOL     OW59116   3.546   8.815   2.260 -0.0233  0.0723 -0.3769
17675SOL    HW159117   3.588   8.772   2.185  2.9294 -0.0466  1.2133
17675SOL    HW259118   3.599   8.893   2.276 -0.4772 -0.0078  1.6904
17676SOL     OW59119   2.092   2.712   1.328  0.3079  0.3263 -0.0413
17676SOL    HW159120   2.105   2.803   1.355 -0.4363  0.8319 -1.2686
17676SOL    HW259121   2.014   2.683   1.375 -0.0432  0.6666 -0.4055
17677SOL     OW59122   9.732   2.364   4.592 -0.0581 -0.8233  0.8065
17677SOL    HW159123   9.744   2.394   4.682 -0.0088  1.1222  0.1972
17677SOL    HW259124   9.688   2.279   4.601 -0.7070 -0.3516  2.6391
17678SOL     OW59125   7.039   8.252   6.967  0.2114  0.6460 -0.3521
17678SOL    HW159126   6.949   8.226   6.984  0.5563 -1.2434 -1.1796
17678SOL    HW259127   7.042   8.270   6.873  1.1297 -1.3872 -0.7594
17679SOL     OW59128   6.322   3.159   5.833 -0.2957  0.1056  0.9082
17679SOL    HW159129   6.371   3.216   5.774  0.4702 -2.6718 -1.3716
17679SOL    HW259130   6.230   3.173   5.809 -0.2603  1.5119  1.5262
17680SOL     OW59131   5.113   7.323   8.719  0.3039  0.3090  0.2794
17680SOL    HW159132   5.162   7.396   8.681  1.0541 -1.2662 -1.9802
17680SOL    HW259133   5.031   7.320   8.669 -0.5421  0.6504  1.5743
17681SOL     OW59134   1.831   0.210   9.344 -0.2934  0.6068 -0.0844
17681SOL    HW159135   1.825   0.250   9.431  0.1082  0.1484  0.1602
17681SOL    HW259136   1.828   0.284   9.284 -0.4004  0.9436  0.3272
17682SOL     OW59137   7.585   9.700   8.738 -0.3299 -0.7360  0.2211
17682SOL    HW159138   7.593   9.778   8.684 -0.0324 -1.2566 -0.5013
17682SOL    HW259139   7.491   9.688   8.749 -0.3816  0.4906  1.5053
17683SOL     OW59140   9.080  10.171   7.703 -0.5982  0.0150 -0.1190
17683SOL    HW159141   9.130  10.101   7.746 -1.8178 -0.7413  0.1233
17683SOL    HW259142   9.044  10.223   7.775 -1.0212 -0.0817 -0.2538
17684SOL     OW59143   9.569   1.335   9.341 -0.0120 -0.2267 -0.0569
17684SOL    HW159144   9.513   1.258   9.333  1.1746 -1.0356 -0.9859
17684SOL    HW259145   9.648   1.303   9.384 -1.0961  1.3917  3.5174
17685SOL     OW59146   2.013   1.697   7.041  0.2626 -0.4245  0.2513
17685SOL    HW159147   1.930   1.742   7.052  1.6817  2.3843  0.2879
17685SOL    HW259148   2.037   1.668   7.129 -0.9458 -1.9027  0.1330
17686SOL     OW59149   3.869   9.775   2.609  0.2273 -0.2375 -0.0032
17686SOL    HW159150   3.828   9.699   2.651  0.0901  0.8748  1.9503
17686SOL    HW259151   3.832   9.775   2.520  0.4388 -2.5813 -0.1773
17687SOL     OW59152   9.217  10.336   8.857 -0.2317 -0.0165  0.0427
17687SOL    HW159153   9.305  10.306   8.878 -0.6208 -1.0101  0.3548
17687SOL    HW259154   9.160  10.271   8.899 -1.0949  0.2159 -0.7496
17688SOL     OW59155  10.617   0.786   9.167  0.4816 -0.0278  0.2392
17688SOL    HW159156  10.675   0.739   9.107 -0.3589 -0.4639 -0.2494
17688SOL    HW259157  10.556   0.833   9.110 -1.0186 -1.3118  0.7212
17689SOL     OW59158   6.708   9.851  10.703  0.0480  0.2741 -0.2270
17689SOL    HW159159   6.767   9.887  10.769 -0.0336  0.8823 -0.4709
17689SOL    HW259160   6.750   9.871  10.619  0.6811 -1.4374 -0.3520
17690SOL     OW59161   4.877   8.007   7.561 -0.2295 -0.1820  0.2732
17690SOL    HW159162   4.852   7.960   7.481  0.3780 -0.7795  0.4188
17690SOL    HW259163   4.972   8.016   7.554 -0.0862 -0.8044  1.2216
17691SOL     OW59164   1.425  10.573  10.709  0.3510 -0.6336  0.1518
17691SOL    HW159165   1.418  10.487  10.667  1.2797 -2.4525  3.4042
17691SOL    HW259166   1.359  10.573  10.777  0.3231  1.3158  0.1863
17692SOL     OW59167   3.093   4.119   1.800 -0.3336  0.4358  0.0014
17692SOL    HW159168   3.019   4.060   1.785 -0.7949  1.1340 -0.5677
17692SOL    HW259169   3.128   4.136   1.713  1.0312 -0.5274  0.3321
17693SOL     OW59170   3.199   7.122   2.483  0.8096  0.3040 -0.2931
17693SOL    HW159171   3.231   7.129   2.393  1.7618  2.7475  0.1586
17693SOL    HW259172   3.158   7.207   2.500  3.3122  1.0841  2.5231
17694SOL     OW59173   1.722  10.138   6.972  0.6573  0.1372  0.2810
17694SOL    HW159174   1.718  10.221   7.019  0.2346 -0.2573  0.9434
17694SOL    HW259175   1.815  10.117   6.969  0.5882 -0.6595  2.4226
17695SOL     OW59176   8.349   1.294  10.243 -0.2810 -0.1668  0.0749
17695SOL    HW159177   8.295   1.251  10.308 -0.1554 -0.4287  0.0070
17695SOL    HW259178   8.416   1.230  10.221 -0.4373 -0.1566 -0.4561
17696SOL     OW59179   5.999  10.300   7.457  0.2253  0.0321  0.0109
17696SOL    HW159180   5.960  10.251   7.384 -2.9336  1.3227  0.6498
17696SOL    HW259181   5.994  10.391   7.429  0.6310  0.4157  1.1376
17697SOL     OW59182   3.868   2.638   5.655 -0.3107 -0.1198 -0.2074
17697SOL    HW159183   3.938   2.659   5.718 -0.8365  0.3940  0.2115
17697SOL    HW259184   3.791   2.624   5.709 -0.3523 -1.5954 -0.5974
17698SOL     OW59185   5.858  10.560   2.139 -0.0482 -0.0098 -0.0038
17698SOL    HW159186   5.817  10.640   2.172  2.1612  1.3929 -0.4936
17698SOL    HW259187   5.823  10.550   2.050 -0.9578 -0.0954  0.3461
17699SOL     OW59188   0.076   6.157   0.946 -0.8040  0.4836  0.2172
17699SOL    HW159189   0.135   6.083   0.960  1.0020  1.8655  0.3632
17699SOL    HW259190   0.021   6.131   0.872 -2.1894 -2.0873  2.0293
17700SOL     OW59191   2.613   6.303   2.835 -0.3954 -0.0149  0.4484
17700SOL    HW159192   2.636   6.266   2.920 -1.1741 -2.3901 -0.2780
17700SOL    HW259193   2.694   6.298   2.784 -0.7772 -2.1314 -0.0502
17701SOL     OW59194   0.805   2.718   6.854 -0.3653  0.7785 -0.0766
17701SOL    HW159195   0.886   2.676   6.827  0.0610  1.0696  0.7336
17701SOL    HW259196   0.798   2.795   6.797 -0.2028  0.6217 -0.3085
17702SOL     OW59197   5.367   1.292   6.007 -0.3356 -0.2887 -0.8322
17702SOL    HW159198   5.428   1.298   6.080 -0.3421 -0.2280 -0.8317
17702SOL    HW259199   5.338   1.200   6.007  0.2135 -0.4685 -1.2020
17703SOL     OW59200   7.214  10.293   5.715 -0.2928  0.4275 -0.2677
17703SOL    HW159201   7.135  10.258   5.756  0.7551 -1.7200  0.0142
17703SOL    HW259202   7.243  10.224   5.656  1.4404  1.1356 -0.2758
17704SOL     OW59203   6.195   0.254   1.355  0.4313  0.3726  0.1791
17704SOL    HW159204   6.147   0.186   1.402  0.9719 -0.0412  0.1349
17704SOL    HW259205   6.222   0.214   1.273  0.4513  0.7484 -0.0024
17705SOL     OW59206   1.435   3.570   3.853 -0.9075 -0.2761 -0.1017
17705SOL    HW159207   1.413   3.481   3.824  0.0211 -0.8115  0.7471
17705SOL    HW259208   1.351   3.615   3.858 -1.6152 -1.6137  1.0347
17706SOL     OW59209   2.514   2.342   8.276 -0.0502 -0.6756  0.2113
17706SOL    HW159210   2.589   2.376   8.227 -1.2797 -0.5451 -1.6705
17706SOL    HW259211   2.523   2.246   8.271  1.1454 -0.6999  1.9199
17707SOL     OW59212   4.977   4.844   4.392  0.0555 -0.3419  0.2283
17707SOL    HW159213   4.925   4.865   4.314  0.3849  1.5975  0.4782
17707SOL    HW259214   5.000   4.929   4.429 -0.0299 -1.2181  2.4265
17708SOL     OW59215   4.901   3.643   6.518  0.3270 -0.1725  0.3359
17708SOL    HW159216   4.845   3.713   6.486  1.4488  0.9483  0.7380
17708SOL    HW259217   4.846   3.593   6.579 -0.6024  0.0959 -0.2724
17709SOL     OW59218   2.985   1.406   1.959 -0.0210 -0.9171 -0.1318
17709SOL    HW159219   3.037   1.422   2.038  0.5312  0.2898 -0.7104
17709SOL    HW259220   3.013   1.474   1.898 -1.8292 -0.6177 -0.6948
17710SOL     OW59221   6.269   6.464   5.678 -0.3199  0.7313  0.3932
17710SOL    HW159222   6.225   6.461   5.593  2.2097 -1.2877 -0.9732
17710SOL    HW259223   6.212   6.414   5.736 -0.7942 -0.1485 -0.7996
17711SOL     OW59224   2.628   8.669   0.992  0.0131 -0.3254  0.0288
17711SOL    HW159225   2.621   8.664   0.897 -1.4528 -1.2666  0.1504
17711SOL    HW259226   2.542   8.699   1.021 -0.0975 -1.5897  1.1177
17712SOL     OW59227   8.135   3.818  10.633  0.1118  0.6471  0.0813
17712SOL    HW159228   8.065   3.883  10.631  0.3931  0.9744  0.5068
17712SOL    HW259229   8.134   3.779  10.546 -2.2793 -1.2138  0.8440
17713SOL     OW59230   7.136   4.614   6.952  0.2570  0.3388 -0.4176
17713SOL    HW159231   7.155   4.586   6.863 -0.2939  0.8869 -0.7183
17713SOL    HW259232   7.071   4.551   6.984  0.4071  0.1786 -0.4313
17714SOL     OW59233   6.181   5.309   1.052 -0.2700 -0.2648  0.4465
17714SOL    HW159234   6.215   5.358   0.978  1.6341 -1.2786  0.5915
17714SOL    HW259235   6.086   5.323   1.048 -0.3387 -0.8773 -2.6264
17715SOL     OW59236  10.113   5.638   0.097  0.6053  0.0407  0.5250
17715SOL    HW159237  10.145   5.548   0.100  0.8254  0.0975 -0.0133
17715SOL    HW259238  10.062   5.648   0.177 -1.5565 -1.3652 -0.5899
17716SOL     OW59239   3.377   6.390   0.205 -0.0247 -0.0181 -0.4128
17716SOL    HW159240   3.361   6.443   0.127  0.4785  0.6602 -0.0655
17716SOL    HW259241   3.292   6.388   0.250  0.1866  1.3324  0.0710
17717SOL     OW59242   7.787   7.276   4.671  0.1130  0.3064  0.0220
17717SOL    HW159243   7.694   7.301   4.679  0.2956  1.3065 -0.8202
17717SOL    HW259244   7.804   7.274   4.577  0.9507  0.1350  0.1693
17718SOL     OW59245  10.179   1.929   4.872  0.1767 -0.1827 -0.0778
17718SOL    HW159246  10.087   1.908   4.858 -0.1883 -0.0549  1.8343
17718SOL    HW259247  10.185   1.947   4.966  1.6828  2.2576 -0.5717
17719SOL     OW59248   3.501   6.469   6.655 -0.4393 -0.3803  0.1871
17719SOL    HW159249   3.421   6.425   6.627 -0.1709 -0.3170 -0.7201
17719SOL    HW259250   3.470   6.548   6.700 -0.9236 -1.4786  1.8842
17720SOL     OW59251   2.562   6.322   7.460 -0.5650 -0.2653 -0.4181
17720SOL    HW159252   2.513   6.395   7.422 -0.6575 -0.9632 -1.6734
17720SOL    HW259253   2.503   6.247   7.452 -0.6362 -0.4162  1.2390
17721SOL     OW59254   8.879   2.211   5.633  0.1768  0.5261 -0.3543
17721SOL    HW159255   8.815   2.226   5.564  0.9813  0.5161 -1.1284
17721SOL    HW259256   8.959   2.254   5.601  0.8403 -0.3319  0.1163
17722SOL     OW59257   7.281   8.070   6.508  0.3256 -0.2585  0.3387
17722SOL    HW159258   7.318   8.134   6.448 -1.0731 -1.2367 -1.6526
17722SOL    HW259259   7.254   8.122   6.584  2.0718  1.0118  0.1601
17723SOL     OW59260   4.339   9.892   8.804  0.1016 -0.0952  0.0663
17723SOL    HW159261   4.349   9.837   8.882 -0.1998  1.4710  1.2516
17723SOL    HW259262   4.428   9.898   8.768  0.0218 -1.9686 -0.5701
17724SOL     OW59263   0.803   9.840   2.413 -0.4816  0.2445 -0.1669
17724SOL    HW159264   0.878   9.884   2.375 -1.2763  0.0971 -1.9862
17724SOL    HW259265   0.742   9.911   2.434 -0.9779  0.1853 -1.3349
17725SOL     OW59266   5.052   0.813   6.882  0.9437 -0.7384 -0.4366
17725SOL    HW159267   5.062   0.907   6.869  1.2777 -0.8036 -0.6612
17725SOL    HW259268   5.077   0.774   6.798  0.9380 -1.0342 -0.3024
17726SOL     OW59269   3.391   4.401   7.121 -0.0287 -0.0860  0.2936
17726SOL    HW159270   3.354   4.316   7.098  0.0053 -0.0609  0.1484
17726SOL    HW259271   3.388   4.452   7.040 -0.3015  0.1427  0.4474
17727SOL     OW59272   7.551   9.704   2.764 -0.4107  0.0386 -0.2356
17727SOL    HW159273   7.560   9.609   2.769 -0.0616 -0.0037 -1.5348
17727SOL    HW259274   7.624   9.737   2.816 -0.3254 -0.3882 -0.0749
17728SOL     OW59275   5.658   5.744   4.235 -0.7004 -0.1976 -0.3925
17728SOL    HW159276   5.692   5.770   4.149 -1.1451  0.7944 -0.2870
17728SOL    HW259277   5.733   5.705   4.280 -0.0580  0.6631 -0.6790
17729SOL     OW59278   6.646   9.325  10.748 -0.3956 -0.2369  0.0863
17729SOL    HW159279   6.702   9.310  10.823  0.6609  0.1948 -0.6038
17729SOL    HW259280   6.609   9.412  10.761 -0.5331 -0.3283  0.3026
17730SOL     OW59281   0.410   3.653   7.566 -0.0728  0.1925 -0.9337
17730SOL    HW159282   0.480   3.713   7.590 -1.5727  0.8271  2.5306
17730SOL    HW259283   0.420   3.578   7.625  0.5682 -2.2043 -3.8048
17731SOL     OW59284   5.815   3.354   4.550 -0.0500  0.5959  0.0292
17731SOL    HW159285   5.725   3.385   4.558  0.1939  1.4877 -0.4989
17731SOL    HW259286   5.807   3.260   4.533 -0.9687  0.9664 -1.8888
17732SOL     OW59287   2.224   0.684  10.411  0.2024 -0.0453 -0.1848
17732SOL    HW159288   2.151   0.688  10.472  0.2898 -0.1279 -0.0746
17732SOL    HW259289   2.298   0.721  10.459 -0.0456  1.2074 -0.7169
17733SOL     OW59290   2.192   9.372   9.618 -0.3080 -1.0477 -0.4177
17733SOL    HW159291   2.144   9.455   9.614  1.3844 -0.0525 -1.6830
17733SOL    HW259292   2.234   9.373   9.703 -1.6506 -1.4429  0.2755
17734SOL     OW59293   8.612   9.477   4.928 -0.2507  0.1685  0.0253
17734SOL    HW159294   8.578   9.395   4.892  1.2919 -0.4556 -0.0960
17734SOL    HW259295   8.596   9.542   4.859  3.8058 -1.2477 -2.6652
17735SOL     OW59296   4.221  10.184   8.352 -0.2397 -0.6736  0.3081
17735SOL    HW159297   4.186  10.273   8.358  2.6878  0.7135 -0.9379
17735SOL    HW259298   4.291  10.182   8.417  1.7753 -0.9008 -1.7241
17736SOL     OW59299   2.647   0.799   2.372  0.0019 -0.1726 -0.7230
17736SOL    HW159300   2.668   0.888   2.343 -0.4106 -0.2404 -1.2438
17736SOL    HW259301   2.644   0.748   2.291  0.4883 -0.7186 -0.4021
17737SOL     OW59302  10.142   1.132   5.778  0.9735 -0.9855 -0.3418
17737SOL    HW159303  10.065   1.145   5.722  1.5358 -2.0890 -1.4177
17737SOL    HW259304  10.186   1.217   5.779  0.0751 -0.5080 -0.2018
17738SOL     OW59305   4.952   5.906   0.517 -0.7955 -0.2138  0.3016
17738SOL    HW159306   5.023   5.853   0.479 -0.6493  0.9808 -1.1766
17738SOL    HW259307   4.941   5.870   0.605 -0.4103 -2.4043 -0.4751
17739SOL     OW59308   8.494   1.472   5.480  0.0601  0.3856  0.6052
17739SOL    HW159309   8.424   1.514   5.530 -0.9055 -0.4716  0.0265
17739SOL    HW259310   8.483   1.379   5.497  2.1727  0.3094  1.8827
17740SOL     OW59311   1.180  10.712   2.094  0.2738 -0.2172  0.1401
17740SOL    HW159312   1.256  10.768   2.079  0.0415 -0.1709 -0.9923
17740SOL    HW259313   1.183  10.647   2.023 -0.8912 -0.0214 -0.1163
17741SOL     OW59314   6.765   0.602   4.759  0.5422  0.5509  0.0715
17741SOL    HW159315   6.729   0.513   4.760  0.5172  0.5425 -0.8447
17741SOL    HW259316   6.855   0.591   4.791 -0.2607  0.5973  2.5457
17742SOL     OW59317   9.191   6.361   7.579 -0.2979 -0.1553  0.2081
17742SOL    HW159318   9.107   6.372   7.533 -1.1194  3.0499  2.1058
17742SOL    HW259319   9.256   6.396   7.519 -0.5547 -0.9785 -0.5681
17743SOL     OW59320   8.469   6.166  10.414 -0.1246  0.6535  0.4147
17743SOL    HW159321   8.495   6.169  10.322  0.0298 -0.2956  0.4176
17743SOL    HW259322   8.502   6.083  10.446 -1.9481  0.0263  0.8031
17744SOL     OW59323  10.297  10.367   8.820 -0.0974  0.3088  0.2076
17744SOL    HW159324  10.360  10.336   8.755 -0.5651  1.8623 -1.0420
17744SOL    HW259325  10.352  10.400   8.892  0.4701  0.2084 -0.1699
17745SOL     OW59326   6.899   4.578   4.508 -0.5512 -0.1374  0.6261
17745SOL    HW159327   6.901   4.505   4.569  1.4780  0.1379  0.9444
17745SOL    HW259328   6.918   4.539   4.422 -0.4124 -0.1176  0.6474
17746SOL     OW59329   3.137   8.880   6.725  0.1857  0.1214  0.2727
17746SOL    HW159330   3.149   8.973   6.746  1.7312  0.3992 -1.5729
17746SOL    HW259331   3.086   8.845   6.798 -0.8497  2.5167  0.7921
17747SOL     OW59332   8.872   6.786   7.158 -0.2185  0.3315  0.2430
17747SOL    HW159333   8.938   6.839   7.202  0.2873 -0.1098  0.0261
17747SOL    HW259334   8.913   6.700   7.149 -1.5332 -0.5415  1.8832
17748SOL     OW59335   5.965   2.063   8.327 -0.0843 -0.0015  0.1613
17748SOL    HW159336   5.998   2.038   8.413 -0.0324 -1.3719 -0.2210
17748SOL    HW259337   5.873   2.085   8.341 -0.7317 -2.4495  0.2622
17749SOL     OW59338   3.335   1.634   9.390 -0.3119  0.6220 -0.2416
17749SOL    HW159339   3.387   1.562   9.353 -2.4131  0.0242 -2.2073
17749SOL    HW259340   3.379   1.713   9.358  0.5722  0.1892 -0.1486
17750SOL     OW59341   2.262   9.905   0.108 -0.2065 -0.6849  0.4377
17750SOL    HW159342   2.296   9.949   0.186  1.4390  1.0283 -1.1579
17750SOL    HW259343   2.320   9.830   0.096  0.7892  0.1556 -0.1936
17751SOL     OW59344   1.154   9.734  10.404  0.2056  0.1191  0.2466
17751SOL    HW159345   1.196   9.814  10.434 -0.3376  0.3112  0.4994
17751SOL    HW259346   1.068   9.733  10.447  0.7623 -1.3334  1.3971
17752SOL     OW59347   4.725   5.333   7.518  0.0137  0.4299 -0.1170
17752SOL    HW159348   4.760   5.255   7.475  0.8392  0.7377 -0.0415
17752SOL    HW259349   4.631   5.329   7.504 -0.0624 -1.0245  0.6365
17753SOL     OW59350   2.382   9.724   4.735  0.0621 -0.0088 -0.1679
17753SOL    HW159351   2.465   9.761   4.707  0.1598 -0.2251 -0.1637
17753SOL    HW259352   2.374   9.643   4.685  0.7865 -1.0109  1.2645
17754SOL     OW59353   4.891  10.480  10.681 -0.7001 -0.0919 -0.0038
17754SOL    HW159354   4.862  10.545  10.745 -1.7740 -1.3468  0.8113
17754SOL    HW259355   4.974  10.447  10.716 -1.6397 -1.2924  1.1372
17755SOL     OW59356   2.884   9.924   6.627  0.0551 -0.2404  0.2117
17755SOL    HW159357   2.842   9.977   6.560  0.9700 -0.2474 -0.3912
17755SOL    HW259358   2.965   9.971   6.647  0.2403 -0.7264  0.6260
17756SOL     OW59359   6.840   0.463   5.865  0.0360  0.0633  0.2428
17756SOL    HW159360   6.813   0.511   5.943  0.0944  1.6221 -0.6535
17756SOL    HW259361   6.935   0.459   5.870 -0.0488 -1.6285  1.2314
17757SOL     OW59362   8.625  10.284   0.667 -0.5770  0.1599 -0.2103
17757SOL    HW159363   8.626  10.315   0.576 -0.3222 -0.9219 -0.5980
17757SOL    HW259364   8.620  10.189   0.659 -0.0923  0.0292  0.9143
17758SOL     OW59365   1.756   3.682   6.994 -0.2584 -0.2229  0.5910
17758SOL    HW159366   1.729   3.641   6.913 -0.0053  0.1206  0.3272
17758SOL    HW259367   1.760   3.776   6.973  3.4175 -0.3786 -0.1164
17759SOL     OW59368  10.628   5.321   6.940  0.1090 -0.0022 -0.1614
17759SOL    HW159369  10.546   5.283   6.908  1.2654 -1.4950 -1.5377
17759SOL    HW259370  10.691   5.306   6.870  1.7686  0.3837  1.1564
17760SOL     OW59371   8.164   2.260   2.567  0.2079  0.0259 -0.5360
17760SOL    HW159372   8.184   2.260   2.473 -0.6930 -1.3343 -0.7554
17760SOL    HW259373   8.250   2.262   2.609  0.6351  0.3475 -1.3911
17761SOL     OW59374   8.413   6.871   0.005  0.3755  0.6712 -0.2005
17761SOL    HW159375   8.367   6.940  -0.044  0.8946  2.0830  1.2122
17761SOL    HW259376   8.504   6.902   0.010  0.6818 -0.2614  0.2383
17762SOL     OW59377   6.477   8.580   9.629  0.2467 -0.8251 -0.0491
17762SOL    HW159378   6.410   8.602   9.564 -0.2768 -1.8145  0.1345
17762SOL    HW259379   6.547   8.540   9.578  1.2766  1.2811 -0.4069
17763SOL     OW59380   6.779   5.393   4.517  0.7509  0.3447 -0.0509
17763SOL    HW159381   6.705   5.341   4.548  0.6493 -0.1831 -1.1219
17763SOL    HW259382   6.838   5.398   4.592  1.1962 -2.1269 -0.1428
17764SOL     OW59383   8.629   0.895  10.003 -0.2297 -0.2641 -0.6137
17764SOL    HW159384   8.680   0.835  10.056 -1.8481  0.2927  1.7339
17764SOL    HW259385   8.688   0.968   9.983  0.3076 -0.2653  0.8852
17765SOL     OW59386   3.479   0.607   9.446 -0.2148  0.0549 -0.4750
17765SOL    HW159387   3.568   0.573   9.435  0.0080  0.9890 -1.7643
17765SOL    HW259388   3.486   0.674   9.514 -0.6258 -2.2361  1.9693
17766SOL     OW59389   2.869   5.673   8.166 -0.0819  0.0071  0.1039
17766SOL    HW159390   2.872   5.597   8.108  0.8559  0.0113  0.1350
17766SOL    HW259391   2.857   5.747   8.108  0.6644 -0.0073 -0.0727
17767SOL     OW59392   9.902   2.317   6.951  0.3283 -0.4147 -0.7419
17767SOL    HW159393   9.957   2.251   6.908 -0.4074 -0.9856 -0.8476
17767SOL    HW259394   9.813   2.290   6.928  0.0324  1.0471 -1.3957
17768SOL     OW59395   6.148   8.204   7.628  0.9261  0.5784  0.0043
17768SOL    HW159396   6.092   8.280   7.611  0.1693  0.7640  2.7852
17768SOL    HW259397   6.126   8.142   7.558 -1.2496  1.4664 -0.1845
17769SOL     OW59398   3.161   8.486   6.646 -0.2556 -0.3869  0.0618
17769SOL    HW159399   3.225   8.456   6.711  0.8042 -0.2335 -0.8669
17769SOL    HW259400   3.136   8.406   6.599 -0.7217 -0.4380  0.3858
17770SOL     OW59401   6.072  10.851   2.655  0.1929 -0.2881  0.1652
17770SOL    HW159402   6.147  10.852   2.715 -0.1125  1.6917  0.5982
17770SOL    HW259403   6.028  10.935   2.671 -0.1892  0.0994 -2.4479
17771SOL     OW59404   9.847   0.065   2.216 -0.1164 -0.8160 -0.0736
17771SOL    HW159405   9.903   0.097   2.287 -0.2248  0.3390 -0.4995
17771SOL    HW259406   9.846   0.135   2.152  0.6307 -2.1403 -1.6199
17772SOL     OW59407   7.718   2.744   3.317  0.1223  0.1657 -0.6482
17772SOL    HW159408   7.788   2.807   3.299  0.3207 -0.5470 -2.6492
17772SOL    HW259409   7.698   2.757   3.409  1.7099  1.5821 -0.4374
17773SOL     OW59410   8.361   0.122   9.637 -0.1530 -0.2026  0.5917
17773SOL    HW159411   8.407   0.061   9.695  1.5531 -1.4406 -1.9116
17773SOL    HW259412   8.430   0.162   9.584 -1.7565 -0.6025 -1.9334
17774SOL     OW59413   9.773   9.220   5.918  0.6934 -0.0149 -0.8720
17774SOL    HW159414   9.702   9.284   5.919 -0.6208 -1.3603 -2.6683
17774SOL    HW259415   9.832   9.251   5.849  1.4386  0.5936 -0.0038
17775SOL     OW59416   5.267   5.733  10.823 -0.1473 -0.0852 -0.9689
17775SOL    HW159417   5.254   5.806  10.883  1.1076 -0.0520 -0.7123
17775SOL    HW259418   5.184   5.686  10.824 -0.2426  0.0784  0.5849
17776SOL     OW59419   4.407   0.761   4.558  0.2356  1.0097  0.5441
17776SOL    HW159420   4.420   0.678   4.602  0.0092 -0.2854 -1.7044
17776SOL    HW259421   4.495   0.796   4.545  0.3543  0.9059  1.0512
17777SOL     OW59422   7.089   2.163   3.098 -0.0618 -0.5318 -0.5143
17777SOL    HW159423   7.119   2.252   3.080  0.2473 -0.5347 -0.0207
17777SOL    HW259424   7.000   2.174   3.132 -0.5940 -0.5148 -1.8419
17778SOL     OW59425   7.858   6.030   8.406 -0.2524 -0.7828 -0.3870
17778SOL    HW159426   7.856   6.025   8.502 -1.0894 -0.4403 -0.3844
17778SOL    HW259427   7.939   6.078   8.387  1.5763 -3.4817  0.0083
17779SOL     OW59428   7.457   2.405   2.630  0.4909 -0.3688  0.7386
17779SOL    HW159429   7.438   2.480   2.687  0.4639 -0.4433  0.8290
17779SOL    HW259430   7.408   2.332   2.669  1.3358 -0.6807  1.2660
17780SOL     OW59431   4.405   5.991  10.790 -0.4653 -0.6312  0.4793
17780SOL    HW159432   4.475   5.936  10.755 -0.6340 -1.6537  1.6775
17780SOL    HW259433   4.411   5.980  10.885 -1.0065  0.8269  0.7068
17781SOL     OW59434   9.406   2.507   6.691 -0.6057  0.2238  0.2296
17781SOL    HW159435   9.317   2.475   6.677 -0.7896 -0.2278  2.1689
17781SOL    HW259436   9.409   2.590   6.644 -1.6316 -0.3510 -0.9165
17782SOL     OW59437  10.362   2.490   3.169 -0.3074  0.4273  0.1730
17782SOL    HW159438  10.412   2.524   3.094 -0.7778 -0.6665 -0.6497
17782SOL    HW259439  10.271   2.496   3.141 -0.4367 -0.7903  0.3159
17783SOL     OW59440   7.946   6.297   4.206  0.1416 -0.1720  0.1308
17783SOL    HW159441   7.917   6.364   4.268 -0.8578  1.3047 -1.8044
17783SOL    HW259442   7.886   6.223   4.221  0.9999 -0.5539  2.0114
17784SOL     OW59443   5.172   0.932   1.801  0.1896 -0.0073  0.2247
17784SOL    HW159444   5.209   0.872   1.736 -1.9601 -0.3004 -0.8157
17784SOL    HW259445   5.141   0.874   1.871 -0.7425 -0.0197 -0.1893
17785SOL     OW59446   9.995   9.938   6.783 -0.0659 -0.5595  1.1017
17785SOL    HW159447   9.944   9.908   6.709 -0.8546  1.2359  0.8618
17785SOL    HW259448  10.086   9.937   6.752 -0.4974  1.4562 -0.4028
17786SOL     OW59449   5.941   0.128   3.776  0.1245  0.1423 -0.1664
17786SOL    HW159450   5.958   0.073   3.853  0.7864  0.5322 -0.0232
17786SOL    HW259451   6.019   0.184   3.769  0.0999  0.0722 -1.1576
17787SOL     OW59452   6.901  10.316   2.196 -1.3452 -0.5041 -0.0826
17787SOL    HW159453   6.861  10.314   2.283  0.7934 -0.9170  0.9755
17787SOL    HW259454   6.936  10.228   2.184 -1.3291 -0.3577 -1.2459
17788SOL     OW59455   9.273   7.238   8.793  0.3744 -0.0600  0.1807
17788SOL    HW159456   9.289   7.303   8.724  1.4299  1.6354  1.9106
17788SOL    HW259457   9.285   7.154   8.750 -0.6765  0.8596 -2.0803
17789SOL     OW59458   4.289   0.200   2.119  0.1402 -0.2131 -0.5897
17789SOL    HW159459   4.302   0.289   2.085  2.3144 -0.3477 -0.2749
17789SOL    HW259460   4.228   0.160   2.058 -0.6732  1.4069 -0.8961
17790SOL     OW59461  10.686   4.782   7.064  0.1795 -0.4564  0.2017
17790SOL    HW159462  10.663   4.713   7.001 -0.4419 -1.0830  1.0777
17790SOL    HW259463  10.626   4.767   7.137 -0.6845  1.6790 -0.0117
17791SOL     OW59464  10.671   7.098   6.971 -0.2882  0.5370  0.0962
17791SOL    HW159465  10.649   7.190   6.986  1.3777  0.8918  0.5261
17791SOL    HW259466  10.731   7.100   6.896  0.7246 -0.0526  0.8660
17792SOL     OW59467   0.092   2.967   9.934 -0.2563  0.2503 -0.1277
17792SOL    HW159468   0.081   3.055   9.970  0.6307  0.8230 -1.2223
17792SOL    HW259469   0.003   2.940   9.911 -0.5734  0.7223  0.4998
17793SOL     OW59470   6.748  10.726   7.108  0.3528 -0.2627 -0.1666
17793SOL    HW159471   6.714  10.710   7.196 -3.4803 -0.3635 -1.4605
17793SOL    HW259472   6.768  10.820   7.107  2.0559 -0.5599  1.2039
17794SOL     OW59473   1.261   1.972   5.190  0.0418  0.4101  0.4184
17794SOL    HW159474   1.299   1.927   5.114 -1.8084  1.4699 -1.2470
17794SOL    HW259475   1.335   2.017   5.230  0.8978  0.9944 -1.6546
17795SOL     OW59476   1.494   6.251   6.788  0.1821 -0.0692 -0.0503
17795SOL    HW159477   1.426   6.314   6.766  1.0038  0.8937  0.0875
17795SOL    HW259478   1.511   6.205   6.706 -0.6596 -0.3610 -0.0703
17796SOL     OW59479   2.056   4.041   1.056 -0.2103  0.2305 -0.2523
17796SOL    HW159480   2.016   3.967   1.102  1.0386 -0.4716 -0.2567
17796SOL    HW259481   2.012   4.043   0.972 -0.2909 -0.4886 -0.2346
17797SOL     OW59482   4.717   4.320   7.516 -0.0700  0.0937 -0.4430
17797SOL    HW159483   4.755   4.234   7.498 -1.3505 -0.2683 -1.6102
17797SOL    HW259484   4.628   4.314   7.481 -1.0565  1.0669  1.7155
17798SOL     OW59485   6.391   2.574   3.949  0.2594 -0.0685 -0.0467
17798SOL    HW159486   6.426   2.496   3.992 -0.1344 -0.8713 -1.1267
17798SOL    HW259487   6.309   2.592   3.995 -0.4852 -1.3060 -0.8530
17799SOL     OW59488   8.754   6.572   7.463  0.0333  0.0499  0.1531
17799SOL    HW159489   8.664   6.571   7.497 -0.1330  0.7059 -0.2446
17799SOL    HW259490   8.793   6.650   7.502 -0.1366  0.7682 -1.0758
17800SOL     OW59491   0.637   9.377   0.924 -0.2173  0.3598  0.1533
17800SOL    HW159492   0.544   9.389   0.943 -0.5710 -1.3623 -0.3047
17800SOL    HW259493   0.682   9.430   0.989 -1.4787 -0.9637  2.2019
17801SOL     OW59494   9.576   6.195   6.213 -0.1121 -0.0839  0.2376
17801SOL    HW159495   9.591   6.277   6.261  0.5876 -1.1074  1.8248
17801SOL    HW259496   9.486   6.204   6.179 -0.4887  0.8523  1.4006
17802SOL     OW59497   4.567   6.085   8.918  0.4242 -0.3002  0.1024
17802SOL    HW159498   4.474   6.077   8.898 -0.4215  2.7859  2.0575
17802SOL    HW259499   4.598   6.152   8.857  1.1573 -0.6783  0.0535
17803SOL     OW59500   9.935   4.063   2.746  0.8731  0.0270 -0.1020
17803SOL    HW159501   9.921   4.149   2.706  2.9855  0.0225 -1.0067
17803SOL    HW259502   9.851   4.040   2.785 -0.3026  1.6103 -1.5658
17804SOL     OW59503   5.151   5.225   0.395  0.2005 -0.1664 -1.1919
17804SOL    HW159504   5.100   5.306   0.394 -0.2332 -0.3646  1.0118
17804SOL    HW259505   5.140   5.189   0.483  1.5647 -1.8885 -1.6428
17805SOL     OW59506   6.173   7.403   7.307 -0.0094  0.2820 -0.2049
17805SOL    HW159507   6.121   7.351   7.368 -0.0516  1.4804  0.8067
17805SOL    HW259508   6.248   7.433   7.358  0.7506  0.0605 -1.1654
17806SOL     OW59509   9.628   3.298   1.741 -0.0716  0.3661 -0.1146
17806SOL    HW159510   9.685   3.291   1.818 -0.8141  1.3014  0.5482
17806SOL    HW259511   9.687   3.295   1.666  0.7111 -0.0641  0.5086
17807SOL     OW59512   2.917   4.460   0.208  0.1242  0.2619 -0.2219
17807SOL    HW159513   2.993   4.415   0.244 -0.8904 -2.7148 -1.4606
17807SOL    HW259514   2.842   4.416   0.248 -0.9759  1.4605 -0.8763
17808SOL     OW59515   3.231   8.151   0.449 -0.1062  0.1735  0.1385
17808SOL    HW159516   3.326   8.151   0.462 -0.1174 -1.1771  0.4279
17808SOL    HW259517   3.207   8.058   0.450 -1.3767  0.4700 -0.3584
17809SOL     OW59518   2.034  10.177   0.066  0.1675 -0.5325 -0.2577
17809SOL    HW159519   2.028  10.139   0.154 -0.5335 -0.7056 -0.3725
17809SOL    HW259520   2.064  10.104   0.011  0.3234 -0.5032 -0.2118
17810SOL     OW59521  10.220   3.723   8.477  0.2534  0.3155  0.4501
17810SOL    HW159522  10.273   3.670   8.418  2.2774  0.6265  1.8805
17810SOL    HW259523  10.205   3.805   8.430  0.5543 -0.0055 -0.2115
17811SOL     OW59524  10.035   7.811   1.020  0.3017 -0.3442 -0.4207
17811SOL    HW159525  10.037   7.820   1.115 -0.1137  0.5598 -0.4880
17811SOL    HW259526  10.119   7.772   0.998  0.1930 -1.0474  0.3579
17812SOL     OW59527   0.842   5.024   7.058 -0.0334 -0.6974  0.0873
17812SOL    HW159528   0.895   5.084   7.006 -1.4750 -0.7571 -1.5174
17812SOL    HW259529   0.905   4.962   7.094  1.3798  1.1694  1.0171
17813SOL     OW59530   7.307   0.355   0.787 -0.1567  0.1308 -0.6284
17813SOL    HW159531   7.217   0.326   0.771  0.2165 -1.1172 -0.5677
17813SOL    HW259532   7.322   0.424   0.722 -1.1005  0.2635 -0.7225
17814SOL     OW59533   8.531   8.154   0.584 -0.5812  0.4288 -0.2495
17814SOL    HW159534   8.501   8.081   0.639 -1.3372 -0.5791 -1.9233
17814SOL    HW259535   8.619   8.129   0.557 -0.0804  1.0797  0.7181
17815SOL     OW59536   6.009   4.709   7.853  0.3751 -0.3697 -0.4383
17815SOL    HW159537   6.029   4.793   7.895  0.0954 -0.3783 -0.2822
17815SOL    HW259538   6.064   4.707   7.775  1.1206 -0.4912  0.0875
17816SOL     OW59539   8.593   1.322   7.993  0.4054 -0.3388 -0.7553
17816SOL    HW159540   8.622   1.297   8.081  0.7706 -0.4277 -0.8987
17816SOL    HW259541   8.525   1.259   7.971  1.8139 -1.7278 -1.4069
17817SOL     OW59542   4.152   8.007   2.552 -0.2144 -0.3923  0.1064
17817SOL    HW159543   4.146   7.950   2.629 -1.1490 -0.5493 -0.0657
17817SOL    HW259544   4.174   7.947   2.480 -0.0703 -0.3648  0.1292
17818SOL     OW59545   0.942   2.168  10.767  0.1896 -0.4849  0.1205
17818SOL    HW159546   0.991   2.249  10.780 -0.3686  0.2003 -1.6595
17818SOL    HW259547   1.008   2.099  10.771  1.0515  0.2702 -0.5294
17819SOL     OW59548   1.535   7.932   7.285  0.4473 -0.1210  0.3560
17819SOL    HW159549   1.627   7.956   7.298  0.2383  0.9102 -0.0075
17819SOL    HW259550   1.532   7.895   7.197  0.2826  1.0886 -0.1554
17820SOL     OW59551   1.658  10.187   0.821 -0.2034 -0.3283 -0.0394
17820SOL    HW159552   1.572  10.155   0.846 -1.0435  1.5227 -0.4297
17820SOL    HW259553   1.653  10.201   0.726  0.2353  0.5819  0.0556
17821SOL     OW59554   1.053   1.825   1.985  0.0486  0.3760  0.3803
17821SOL    HW159555   0.978   1.767   1.998  0.1658  0.4100  1.2502
17821SOL    HW259556   1.129   1.768   1.991  0.0952  0.2167 -1.2123
17822SOL     OW59557   3.109   2.913   3.508 -0.5047 -0.2037 -0.0850
17822SOL    HW159558   3.186   2.856   3.515  0.4739  1.1129  0.3868
17822SOL    HW259559   3.053   2.870   3.443  0.6886 -1.1252 -0.5465
17823SOL     OW59560  10.929   7.122  10.058 -0.3903 -0.0604 -0.5147
17823SOL    HW159561  10.930   7.134   9.964  0.6465 -0.4702 -0.5699
17823SOL    HW259562  10.993   7.185  10.091 -1.2463  0.5625 -0.0153
17824SOL     OW59563   8.289   1.595   3.225  0.1335 -0.6385 -0.1141
17824SOL    HW159564   8.252   1.516   3.264  1.5483 -1.6168 -0.6754
17824SOL    HW259565   8.213   1.645   3.196 -0.7671 -2.2026 -0.5452
17825SOL     OW59566   1.375   6.571   9.160  0.8630  0.4782 -0.1236
17825SOL    HW159567   1.449   6.510   9.162  1.2159  0.9196  0.7613
17825SOL    HW259568   1.412   6.652   9.125  0.6694  0.5403 -0.1867
17826SOL     OW59569   6.317   2.979  10.672  0.6055 -0.8130 -0.1186
17826SOL    HW159570   6.355   2.901  10.632  0.8554 -0.9993  0.4751
17826SOL    HW259571   6.326   2.965  10.766 -1.1548 -0.9692  0.0491
17827SOL     OW59572   4.655   0.045   9.544 -0.2074  0.8072  0.0311
17827SOL    HW159573   4.701  -0.010   9.480 -1.5878  1.4011 -1.5660
17827SOL    HW259574   4.642   0.129   9.499 -1.5172  1.1465  0.9570
17828SOL     OW59575   4.707   6.626   9.795  0.2725  0.4547 -0.2272
17828SOL    HW159576   4.651   6.598   9.722 -0.4664 -0.6568  0.7479
17828SOL    HW259577   4.794   6.593   9.773  0.2609  0.9262 -1.0379
17829SOL     OW59578  10.297  10.908   7.809 -0.3924  0.2523  0.7853
17829SOL    HW159579  10.244  10.971   7.858  0.8477  0.1552  2.3535
17829SOL    HW259580  10.233  10.850   7.767 -1.5381  1.9614  0.0643
17830SOL     OW59581  10.698   3.260   0.193  0.4722  0.5006  0.3973
17830SOL    HW159582  10.738   3.249   0.279  0.1926 -1.7376  0.3016
17830SOL    HW259583  10.772   3.269   0.133  0.6784  1.7047  0.8193
17831SOL     OW59584   4.666   1.506   3.114 -0.3321  0.0048 -1.0112
17831SOL    HW159585   4.758   1.489   3.097 -0.6666 -1.4468 -1.5831
17831SOL    HW259586   4.661   1.599   3.135  1.2877  0.0377 -0.6957
17832SOL     OW59587  10.542   0.003   6.814 -0.3177 -0.4031 -0.3481
17832SOL    HW159588  10.557  -0.079   6.765 -1.8932 -0.9320  0.0025
17832SOL    HW259589  10.506   0.063   6.749 -1.6241 -0.8438 -0.0669
17833SOL     OW59590   3.852   9.023   3.553  0.2023  0.1835 -0.6515
17833SOL    HW159591   3.897   8.961   3.495 -2.9181 -0.6297 -2.4664
17833SOL    HW259592   3.849   9.104   3.503 -0.2337  0.2581 -0.5053
17834SOL     OW59593   6.572   8.720   4.938  0.2320  0.6369  0.4459
17834SOL    HW159594   6.560   8.735   4.844 -0.5221 -0.4013  0.3556
17834SOL    HW259595   6.552   8.628   4.950  3.6560 -0.1379  1.1138
17835SOL     OW59596   0.212   7.122   5.083  0.9192 -0.8022  0.1408
17835SOL    HW159597   0.272   7.177   5.032 -1.1338  2.0712  0.5830
17835SOL    HW259598   0.125   7.142   5.048 -0.1129 -2.4649  1.5766
17836SOL     OW59599   6.350   0.902   5.113  0.6046 -0.1862  0.0426
17836SOL    HW159600   6.395   0.896   5.197 -0.3688 -0.3145  0.5777
17836SOL    HW259601   6.266   0.944   5.134  0.1118 -0.7344 -0.7594
17837SOL     OW59602   5.186   5.711   6.185  0.3714  0.0780  0.1247
17837SOL    HW159603   5.243   5.787   6.171 -0.4500  0.7814  0.4824
17837SOL    HW259604   5.224   5.665   6.259  1.1484 -0.1372 -0.3938
17838SOL     OW59605   6.707   5.531   1.727  0.4435 -0.5657 -0.8612
17838SOL    HW159606   6.617   5.557   1.749  0.8483  0.3241 -0.2373
17838SOL    HW259607   6.704   5.435   1.728 -0.4738 -0.5507 -0.7337
17839SOL     OW59608   6.283  10.055   1.426 -0.1965 -0.1649  0.3953
17839SOL    HW159609   6.304  10.093   1.511 -2.4283  1.7611  0.1865
17839SOL    HW259610   6.295  10.126   1.364  0.5048 -1.2946 -0.8215
17840SOL     OW59611   5.152   9.936   4.239 -0.1544  0.0223 -0.2899
17840SOL    HW159612   5.152   9.873   4.166 -1.7085 -0.9537  0.5017
17840SOL    HW259613   5.243   9.965   4.245  0.1770 -0.5050 -2.0688
17841SOL     OW59614   6.451   4.822   6.020  0.3197 -0.5904  0.0847
17841SOL    HW159615   6.537   4.846   5.986  0.3910  0.4272  0.9302
17841SOL    HW259616   6.406   4.906   6.034 -0.3337 -1.0538  0.8525
17842SOL     OW59617   3.214   6.112  10.500  0.3433  0.6559  0.0096
17842SOL    HW159618   3.148   6.061  10.547  0.3780  2.2844  1.9867
17842SOL    HW259619   3.296   6.063  10.513 -0.1035 -0.3132 -0.7184
17843SOL     OW59620   3.435   7.465   1.475  0.4255 -0.0532  0.2693
17843SOL    HW159621   3.408   7.534   1.415  0.5936 -0.7038 -0.5844
17843SOL    HW259622   3.363   7.456   1.537  0.7207  1.3859  0.8570
17844SOL     OW59623   4.483   4.235   3.157 -0.0851  0.0929 -0.1744
17844SOL    HW159624   4.552   4.181   3.194 -0.2858  1.0322  1.6886
17844SOL    HW259625   4.499   4.233   3.062  1.5185 -0.9943  0.0831
17845SOL     OW59626   2.627   1.059   4.141 -0.1989  0.2354 -0.2645
17845SOL    HW159627   2.676   1.096   4.214 -0.2657  0.9236 -0.5654
17845SOL    HW259628   2.537   1.092   4.153 -1.5361 -3.6283  2.1934
17846SOL     OW59629   4.457   3.918   9.121 -0.3853 -0.1462 -0.2863
17846SOL    HW159630   4.443   4.008   9.092 -2.1776 -0.4431 -0.4733
17846SOL    HW259631   4.531   3.923   9.181  0.2660  1.2602 -1.1592
17847SOL     OW59632   4.508   8.648   7.732  0.5566 -0.0449  0.0622
17847SOL    HW159633   4.552   8.581   7.680  1.2210  0.9175 -0.6556
17847SOL    HW259634   4.417   8.620   7.735  0.8650 -1.0950 -0.0301
17848SOL     OW59635   9.235   6.252   9.014  0.2604 -0.2468 -0.4536
17848SOL    HW159636   9.193   6.338   9.018 -0.7274 -0.7485  0.2553
17848SOL    HW259637   9.297   6.252   9.087 -0.5317 -0.5302  0.2335
17849SOL     OW59638   6.618   9.766   4.507  0.3446  0.1236 -0.8643
17849SOL    HW159639   6.602   9.836   4.569 -0.5539  0.2474 -1.2140
17849SOL    HW259640   6.534   9.755   4.461  0.5877 -0.8887 -1.1016
17850SOL     OW59641   6.952   9.075   4.725  0.4322  0.0355 -0.1891
17850SOL    HW159642   6.958   9.036   4.813  1.1613 -1.1223 -0.7356
17850SOL    HW259643   6.954   9.169   4.742  2.6439 -0.1409  0.9483
17851SOL     OW59644  10.130   9.781   9.687 -0.4463 -0.1784 -0.2969
17851SOL    HW159645  10.071   9.805   9.759 -0.6126 -0.7581 -0.2319
17851SOL    HW259646  10.120   9.686   9.679 -0.4875 -0.1168 -1.1349
17852SOL     OW59647   6.278   8.914   3.178  0.0747  0.2132  0.2266
17852SOL    HW159648   6.359   8.961   3.156  0.9083 -0.8758  0.8553
17852SOL    HW259649   6.295   8.875   3.263 -1.2255  0.1634  0.4822
17853SOL     OW59650   1.969   2.327   0.402  0.0781 -0.1193 -0.0228
17853SOL    HW159651   1.907   2.317   0.473  0.4686  1.8443  0.6595
17853SOL    HW259652   1.996   2.419   0.406  0.2785  0.0088 -2.5787
17854SOL     OW59653   4.285   7.625   7.820 -0.0235  0.0951 -0.6846
17854SOL    HW159654   4.294   7.720   7.826 -2.0915  0.2628  0.5556
17854SOL    HW259655   4.374   7.592   7.831  0.4774  1.8220  1.0789
17855SOL     OW59656  10.743   3.592   7.086  0.2471 -0.5991  0.6176
17855SOL    HW159657  10.757   3.536   7.163  2.4494 -1.7383 -0.5368
17855SOL    HW259658  10.767   3.538   7.012 -2.0379  0.4033 -0.9814
17856SOL     OW59659   7.911   4.640   0.083 -0.8783  0.3559 -0.2468
17856SOL    HW159660   7.836   4.581   0.085  0.1141 -1.0215 -1.5594
17856SOL    HW259661   7.961   4.618   0.162 -1.5964  0.9756  0.3989
17857SOL     OW59662  10.784   5.675   6.595 -0.1282  0.0499 -0.7507
17857SOL    HW159663  10.726   5.617   6.644  0.6003 -1.2952 -1.3981
17857SOL    HW259664  10.844   5.711   6.660  1.1119 -2.0507 -0.6395
17858SOL     OW59665   4.751   0.635   4.695 -0.4117  0.4448 -0.3514
17858SOL    HW159666   4.750   0.720   4.651 -0.0263  0.2982 -0.6503
17858SOL    HW259667   4.670   0.634   4.747 -0.5702  0.8659 -0.5833
17859SOL     OW59668   2.271   4.377   3.949 -0.3243 -0.3527 -0.3756
17859SOL    HW159669   2.284   4.439   4.021 -1.6793 -1.1783  0.6316
17859SOL    HW259670   2.224   4.427   3.882 -1.4522 -0.2859  0.4505
17860SOL     OW59671   9.841   0.070   6.775  0.3822  0.2546 -0.0342
17860SOL    HW159672   9.932   0.059   6.747  0.6024  1.2112  0.2342
17860SOL    HW259673   9.848   0.107   6.864 -0.2923 -2.1997  1.1090
17861SOL     OW59674   0.494   5.201  10.764 -0.3115  0.4663 -0.2620
17861SOL    HW159675   0.546   5.123  10.783 -0.1862 -0.0801 -2.5676
17861SOL    HW259676   0.513   5.261  10.837  1.3142 -0.7972  0.4112
17862SOL     OW59677   3.782   5.039   6.984  0.6920  0.1061  0.2134
17862SOL    HW159678   3.796   5.104   6.915  1.6511 -2.3406 -2.0900
17862SOL    HW259679   3.728   4.972   6.942  0.3057 -0.9335  2.2625
17863SOL     OW59680   2.128   9.156   7.043 -0.0559 -0.3628 -0.2910
17863SOL    HW159681   2.112   9.236   7.093 -3.2610 -1.7359  1.1929
17863SOL    HW259682   2.077   9.089   7.089  1.2756 -2.9560 -2.3264
17864SOL     OW59683   3.540   2.706   1.406 -0.7051  0.0474 -0.4026
17864SOL    HW159684   3.542   2.611   1.394 -1.5429  0.2006 -2.1754
17864SOL    HW259685   3.454   2.723   1.444  0.8082 -0.1533  3.4787
17865SOL     OW59686   6.945   5.146   0.837  0.1640 -0.9487  0.2149
17865SOL    HW159687   6.959   5.240   0.845  1.8574 -1.1748  0.2362
17865SOL    HW259688   6.976   5.110   0.920 -0.8992 -1.5008  0.3924
17866SOL     OW59689   4.475   3.034   2.656 -0.2753  0.2175 -0.6481
17866SOL    HW159690   4.529   2.970   2.702 -0.5972 -2.3572 -3.5187
17866SOL    HW259691   4.393   2.988   2.639 -0.5547  1.3697 -2.7525
17867SOL     OW59692   5.330   6.318   9.090  0.3770 -0.1133 -0.1137
17867SOL    HW159693   5.279   6.398   9.093 -0.2465 -0.5117  0.0753
17867SOL    HW259694   5.345   6.296   9.183 -2.3116 -1.9959 -0.0204
17868SOL     OW59695   8.854   1.871   7.178  0.5059  0.2388 -0.2757
17868SOL    HW159696   8.864   1.965   7.194  1.6559  0.1221 -0.2593
17868SOL    HW259697   8.798   1.866   7.101  2.1523  1.0083 -1.5789
17869SOL     OW59698   0.784   2.080   9.546 -0.1265  0.6253  0.1319
17869SOL    HW159699   0.741   2.004   9.585 -3.4854  0.8051 -2.6429
17869SOL    HW259700   0.827   2.045   9.468 -0.0287  1.2598 -0.1073
17870SOL     OW59701   6.967   5.862   4.205  0.3416  0.0270 -0.2281
17870SOL    HW159702   7.037   5.916   4.168  2.0570 -0.5279  2.0465
17870SOL    HW259703   6.890   5.919   4.204  1.5250  1.6949 -0.0917
17871SOL     OW59704   5.985   6.853   4.676 -0.2546 -0.2597  0.3857
17871SOL    HW159705   5.910   6.809   4.637 -0.2431 -0.2953  0.4035
17871SOL    HW259706   5.948   6.932   4.716  0.1103  1.3691 -2.2168
17872SOL     OW59707   9.078   9.275   3.751  0.6393 -0.7405  0.1176
17872SOL    HW159708   9.035   9.232   3.825 -0.8226  0.5159  0.0358
17872SOL    HW259709   9.149   9.326   3.792 -1.1625  1.2503  0.9136
17873SOL     OW59710   1.362   9.038   0.084 -0.0006  0.3217 -0.4205
17873SOL    HW159711   1.421   9.046   0.159  1.2835  0.5548 -1.4351
17873SOL    HW259712   1.299   9.109   0.095 -0.8496 -0.6342  1.2998
17874SOL     OW59713   7.132   0.699   2.187 -0.1204  0.4129  0.4795
17874SOL    HW159714   7.139   0.779   2.240  0.2618  0.6903  0.0207
17874SOL    HW259715   7.052   0.712   2.136  0.7947  1.2859 -0.8293
17875SOL     OW59716   6.672   4.507   9.340 -0.2807  0.2134 -0.4008
17875SOL    HW159717   6.765   4.484   9.341 -0.4330 -0.4285 -0.7410
17875SOL    HW259718   6.662   4.564   9.264 -0.8189 -2.6023 -2.5730
17876SOL     OW59719   7.831   0.320   1.977  0.0991  0.0722  0.7799
17876SOL    HW159720   7.736   0.311   1.966 -0.3677  2.1287  2.4500
17876SOL    HW259721   7.852   0.266   2.053  0.2228 -0.1435  0.5937
17877SOL     OW59722   7.469   4.279   8.613 -0.2891 -0.0528  0.7469
17877SOL    HW159723   7.517   4.360   8.628  0.4332 -0.4397  0.5655
17877SOL    HW259724   7.536   4.210   8.617 -1.0305 -0.7418  1.8947
17878SOL     OW59725   3.532   6.791   5.911 -0.0480  0.2237  0.3582
17878SOL    HW159726   3.472   6.799   5.985 -0.1489  1.8222  0.1550
17878SOL    HW259727   3.478   6.757   5.840 -0.9868  2.3378 -0.0353
17879SOL     OW59728   5.580   0.895   3.936 -0.8982 -0.1807 -0.3321
17879SOL    HW159729   5.643   0.957   3.898 -1.0972 -0.6280 -1.4242
17879SOL    HW259730   5.500   0.908   3.885 -2.1512  1.2653  1.8466
17880SOL     OW59731   4.510   7.224   6.569  0.0044  0.1023  0.6764
17880SOL    HW159732   4.459   7.304   6.586  0.8317  0.6143  0.8259
17880SOL    HW259733   4.511   7.179   6.654  0.0384  0.2286  0.7437
17881SOL     OW59734   1.465   6.152   7.982  0.1108 -0.1520  0.1529
17881SOL    HW159735   1.545   6.144   8.035 -0.8888 -2.4250  1.4492
17881SOL    HW259736   1.460   6.070   7.933 -2.4230 -0.9763  1.6347
17882SOL     OW59737   0.424  10.858   4.715 -0.0947 -0.4325  0.5290
17882SOL    HW159738   0.399  10.932   4.771  3.1804  1.1533  0.1300
17882SOL    HW259739   0.403  10.886   4.626 -2.2566 -1.6224  0.5795
17883SOL     OW59740   8.122   9.197   8.218 -0.3583 -0.1188  0.0699
17883SOL    HW159741   8.214   9.218   8.197 -0.3691 -0.2446 -0.1064
17883SOL    HW259742   8.074   9.276   8.194 -0.1919  0.2573  0.9475
17884SOL     OW59743   7.558   3.855   2.170  0.6070 -0.1415 -0.0032
17884SOL    HW159744   7.492   3.842   2.238 -0.8421 -2.2660 -1.6782
17884SOL    HW259745   7.548   3.946   2.143 -1.0660 -0.1804  0.4088
17885SOL     OW59746   2.828   1.198   1.946 -0.0961  0.2022 -0.2259
17885SOL    HW159747   2.869   1.281   1.971 -0.5431  0.5062 -0.4701
17885SOL    HW259748   2.789   1.216   1.860 -2.3646  0.5500  0.7781
17886SOL     OW59749   5.506   2.867   8.662 -0.2078 -0.5356  0.0560
17886SOL    HW159750   5.533   2.823   8.742 -1.0002 -0.3859  0.4126
17886SOL    HW259751   5.551   2.820   8.592  0.4952 -0.6609  0.5871
17887SOL     OW59752   1.976   8.298   6.809  0.1514 -0.4549 -0.1300
17887SOL    HW159753   1.884   8.284   6.785  0.1799  1.1386 -1.3296
17887SOL    HW259754   2.026   8.254   6.739  0.2728  0.0468 -0.3659
17888SOL     OW59755  10.751   9.198   4.259  0.1883  0.2578 -0.0439
17888SOL    HW159756  10.706   9.117   4.236  0.6432 -0.4949  1.5458
17888SOL    HW259757  10.842   9.184   4.231  0.3165  0.0994  0.4251
17889SOL     OW59758   2.833   4.837   5.156  0.7275 -0.4434  0.5343
17889SOL    HW159759   2.762   4.789   5.112  0.1502 -0.9148  1.9312
17889SOL    HW259760   2.863   4.900   5.091 -0.1600 -1.0567 -0.5012
17890SOL     OW59761   5.920   2.569   8.300 -0.2006  0.0236 -0.2873
17890SOL    HW159762   5.876   2.543   8.218  1.8570 -2.6653 -0.6913
17890SOL    HW259763   6.004   2.604   8.272  0.0083  0.2762  0.6389
17891SOL     OW59764   2.004   8.488   5.802 -0.1735 -0.1226 -0.5013
17891SOL    HW159765   2.056   8.509   5.879 -0.6540 -2.3987  0.5117
17891SOL    HW259766   2.009   8.567   5.747 -0.9969  2.1651  2.4669
17892SOL     OW59767   5.124   2.045   9.686  0.3629  0.2384  0.6481
17892SOL    HW159768   5.164   2.118   9.640 -0.9943 -0.4554 -1.8201
17892SOL    HW259769   5.030   2.065   9.686  0.2959  0.4888  3.7897
17893SOL     OW59770   1.442   0.949   2.198 -0.5678 -0.0281  0.8525
17893SOL    HW159771   1.534   0.943   2.225 -1.1110 -1.8462  2.5502
17893SOL    HW259772   1.417   0.858   2.179 -1.6721  0.5886 -0.9175
17894SOL     OW59773   0.441   0.247  10.024  0.7149  0.8344  0.1581
17894SOL    HW159774   0.474   0.228   9.936 -0.8829  1.1107 -0.5248
17894SOL    HW259775   0.489   0.326  10.050  1.0272  0.8906 -0.5515
17895SOL     OW59776   1.467   4.814   8.999 -0.0535 -0.4589  0.4634
17895SOL    HW159777   1.415   4.771   8.931 -1.5007  0.8940  0.6448
17895SOL    HW259778   1.442   4.771   9.080  0.1437 -0.7261  0.3820
17896SOL     OW59779   9.988   9.045   3.279  0.5300  0.2345  0.0367
17896SOL    HW159780  10.000   8.981   3.348  1.8455  0.4518  0.0243
17896SOL    HW259781  10.060   9.030   3.218 -0.8755 -0.2868 -1.5874
17897SOL     OW59782   9.928   2.063   7.244 -0.4217  0.0249  0.3515
17897SOL    HW159783   9.918   2.036   7.335  2.8297 -1.5195  0.4145
17897SOL    HW259784   9.967   2.150   7.249  1.9075 -0.9451  0.6352
17898SOL     OW59785   1.017   5.154   7.944  0.2032  0.2408 -0.2003
17898SOL    HW159786   0.981   5.211   8.011 -1.7731  0.4590 -1.3720
17898SOL    HW259787   1.031   5.070   7.989 -2.8931 -0.2159  0.1762
17899SOL     OW59788   9.937  10.871   0.289 -0.0125 -0.8429 -0.0261
17899SOL    HW159789   9.845  10.872   0.262 -0.3087  0.2081  0.9776
17899SOL    HW259790   9.942  10.934   0.360  1.5102 -0.8513 -0.1033
17900SOL     OW59791   4.751   6.647   1.165  0.5503 -0.0382 -0.2867
17900SOL    HW159792   4.788   6.728   1.199 -0.1443 -0.3545  1.2725
17900SOL    HW259793   4.828   6.593   1.143  1.0080  0.7791 -0.7697
17901SOL     OW59794   9.153   9.212   7.983  0.7891  0.2081  0.3454
17901SOL    HW159795   9.198   9.208   7.898 -1.3491 -0.3795 -0.8232
17901SOL    HW259796   9.094   9.287   7.975 -0.1965 -0.4903  0.8859
17902SOL     OW59797   4.755   6.815   4.458 -0.0453  0.1580 -0.5033
17902SOL    HW159798   4.756   6.845   4.549 -0.2896  0.5016 -0.6130
17902SOL    HW259799   4.823   6.747   4.455 -0.6316 -0.4746  0.1374
17903SOL     OW59800   2.108   5.717   7.349  0.2192  0.1308  0.1262
17903SOL    HW159801   2.076   5.702   7.259  1.2181  0.0220 -0.2218
17903SOL    HW259802   2.031   5.750   7.396 -0.7783 -1.3768 -0.3393
17904SOL     OW59803   7.105   4.972   7.385  0.2773  0.1707 -0.1384
17904SOL    HW159804   7.114   4.878   7.403 -0.5974  0.2035  0.4958
17904SOL    HW259805   7.012   4.989   7.393  0.4667  1.1561  0.0215
17905SOL     OW59806   3.079   1.806   3.714  0.1213  0.8322 -0.3200
17905SOL    HW159807   3.099   1.897   3.734 -0.5517  1.3199 -1.6879
17905SOL    HW259808   2.993   1.810   3.672 -1.2267 -0.7668  2.1205
17906SOL     OW59809   7.081   4.904   4.886  0.0760 -0.4422  0.2474
17906SOL    HW159810   7.028   4.895   4.965 -0.6046  0.2890 -0.1085
17906SOL    HW259811   7.019   4.887   4.814  0.5106 -0.3558 -0.1504
17907SOL     OW59812   2.947   1.095   0.919 -0.1261 -0.1271  0.4678
17907SOL    HW159813   2.908   1.097   0.831 -0.1328  3.6777  0.3809
17907SOL    HW259814   3.033   1.134   0.908  1.0255 -2.1168  1.8058
17908SOL     OW59815   8.073   8.297   2.475 -0.9072 -0.1958  0.3176
17908SOL    HW159816   8.090   8.207   2.445 -1.6928  0.1897 -1.4131
17908SOL    HW259817   7.994   8.289   2.529 -0.5898 -0.6353  0.7246
17909SOL     OW59818   5.525   4.326   5.310 -0.0426 -0.3141 -0.2538
17909SOL    HW159819   5.554   4.416   5.301 -3.7479  1.1344  0.4972
17909SOL    HW259820   5.594   4.274   5.269  1.8620  2.8727 -1.4351
17910SOL     OW59821   1.209   2.307   4.478 -0.3566  0.1784  0.9312
17910SOL    HW159822   1.126   2.261   4.467  0.5651 -1.1418 -1.1645
17910SOL    HW259823   1.245   2.271   4.560 -0.5495 -1.4472  0.3434
17911SOL     OW59824   9.437   4.849   9.446 -0.3734 -0.0087  0.4181
17911SOL    HW159825   9.528   4.827   9.426 -0.6721 -0.5769 -0.3706
17911SOL    HW259826   9.434   4.945   9.443 -0.0779 -0.0215 -0.8694
17912SOL     OW59827   8.267   1.019   9.977 -0.3277 -0.5407  0.1765
17912SOL    HW159828   8.257   1.070   9.896  1.3841 -0.9155 -0.3259
17912SOL    HW259829   8.278   0.929   9.947  0.7629 -0.6284  0.7782
17913SOL     OW59830  10.520  10.108   8.591 -0.2388  0.3691  0.0919
17913SOL    HW159831  10.607  10.068   8.587 -1.2715 -2.0942  0.4695
17913SOL    HW259832  10.470  10.051   8.650 -2.1533  1.6455 -0.2029
17914SOL     OW59833   9.513   5.543  10.848  0.0844 -0.2310  0.0195
17914SOL    HW159834   9.524   5.449  10.866 -0.8153 -0.2405  0.6359
17914SOL    HW259835   9.582   5.585  10.899 -0.3783 -0.4831  0.8781
17915SOL     OW59836   1.894   9.286   3.047  0.5284 -0.0010  0.6663
17915SOL    HW159837   1.908   9.196   3.076 -0.3846 -0.4182 -0.1461
17915SOL    HW259838   1.809   9.285   3.003  0.8625  1.0911 -0.0491
17916SOL     OW59839   9.932   8.605   0.942 -0.2942 -0.2276  0.1068
17916SOL    HW159840   9.990   8.534   0.971 -0.8559 -1.0869 -0.8159
17916SOL    HW259841   9.958   8.621   0.852 -1.1933 -0.3095 -0.1676
17917SOL     OW59842  10.037   6.514   2.730  0.6797  0.1349 -0.0857
17917SOL    HW159843  10.108   6.563   2.772  0.5989  0.1654  0.0181
17917SOL    HW259844  10.074   6.428   2.712  1.4474  0.8181 -2.0337
17918SOL     OW59845   8.452   8.066   3.026  0.7987  0.0643  0.5067
17918SOL    HW159846   8.421   8.152   2.998  0.0036  0.2323  1.8157
17918SOL    HW259847   8.450   8.013   2.947 -1.0655  0.5928  0.1626
17919SOL     OW59848   6.587   4.109   4.872  0.2638 -0.3186 -0.0936
17919SOL    HW159849   6.668   4.084   4.827  0.9758  2.8523 -0.8069
17919SOL    HW259850   6.614   4.176   4.935 -1.5921 -0.4105  0.8640
17920SOL     OW59851   9.188   1.888   6.364 -0.4003  0.3361  0.4815
17920SOL    HW159852   9.098   1.914   6.383 -0.4119  0.2768  0.5051
17920SOL    HW259853   9.183   1.844   6.279 -0.4258  0.1456  0.5811
17921SOL     OW59854   8.008   9.287   3.192 -0.4513 -0.3031 -0.5461
17921SOL    HW159855   7.947   9.248   3.255 -0.1085  2.4855  1.7451
17921SOL    HW259856   8.094   9.261   3.224 -0.2832  0.9186  0.0396
17922SOL     OW59857  10.318  10.237   0.597 -0.3391 -0.1059 -0.2374
17922SOL    HW159858  10.300  10.324   0.633 -1.1426 -0.6057  0.6259
17922SOL    HW259859  10.322  10.180   0.674 -0.5879 -0.9564 -0.8444
17923SOL     OW59860   3.684   9.692   0.652  0.1527  0.0143  0.1299
17923SOL    HW159861   3.662   9.613   0.701 -1.9860 -0.2386 -1.0983
17923SOL    HW259862   3.611   9.703   0.591  1.3946  1.7988 -1.1375
17924SOL     OW59863   2.176   3.161   5.973 -0.1776  0.3431 -0.1485
17924SOL    HW159864   2.147   3.071   5.991  0.7166  0.3848  1.7454
17924SOL    HW259865   2.237   3.152   5.899  0.8366 -0.8032  0.7782
17925SOL     OW59866   9.635   7.377   7.828  0.1920  0.1551  0.1654
17925SOL    HW159867   9.711   7.383   7.771  0.5945  0.7357  0.7482
17925SOL    HW259868   9.576   7.317   7.783 -0.2213  1.8515 -1.6990
17926SOL     OW59869   3.423   0.804   5.083 -0.2709 -0.1634  0.3129
17926SOL    HW159870   3.452   0.859   5.010 -0.7147 -1.3004 -0.7630
17926SOL    HW259871   3.495   0.743   5.097 -0.0228  0.3005  1.1113
17927SOL     OW59872   0.735   2.612   1.607  0.7121  0.5250 -0.1180
17927SOL    HW159873   0.795   2.644   1.674  0.5887  2.6188 -0.9172
17927SOL    HW259874   0.765   2.654   1.526 -1.3872  1.1159 -0.6670
17928SOL     OW59875   3.879   9.489   3.216 -0.0495  0.0052  0.0014
17928SOL    HW159876   3.928   9.503   3.297 -0.9679 -1.1767  0.7857
17928SOL    HW259877   3.916   9.409   3.178  0.1367  0.3551 -0.5818
17929SOL     OW59878   4.130  10.297   2.231  0.0942  0.1959  0.4323
17929SOL    HW159879   4.079  10.219   2.210 -0.4386  1.0203 -1.6056
17929SOL    HW259880   4.148  10.338   2.146  2.2828  1.1287  1.2519
17930SOL     OW59881   1.137   3.894   9.483  0.5123 -0.2103  0.2194
17930SOL    HW159882   1.126   3.950   9.407  2.3620  1.6067  1.1983
17930SOL    HW259883   1.217   3.844   9.465  0.6433 -0.1893  0.7062
17931SOL     OW59884   8.494  10.379   5.883  0.3950  0.2157  0.2165
17931SOL    HW159885   8.489  10.299   5.830  1.4086 -0.2857  0.8590
17931SOL    HW259886   8.504  10.449   5.819  1.7182 -0.3963 -0.2807
17932SOL     OW59887   9.694   2.412   8.441 -0.3039 -0.2895  0.3362
17932SOL    HW159888   9.649   2.340   8.485 -1.8008 -0.4570 -1.3507
17932SOL    HW259889   9.675   2.398   8.348 -1.2778  2.6499 -0.0031
17933SOL     OW59890   0.160  10.610   6.031  0.2325  0.0732  0.1481
17933SOL    HW159891   0.198  10.524   6.051 -0.5652  0.1983  2.4639
17933SOL    HW259892   0.105  10.631   6.107 -1.0244  1.8436 -1.1612
17934SOL     OW59893  10.565   8.766  10.888  0.8295 -0.5614  0.1457
17934SOL    HW159894  10.584   8.856  10.864  2.6995 -0.0751  2.9219
17934SOL    HW259895  10.496   8.772  10.954  0.2126 -1.2913 -0.4015
17935SOL     OW59896   5.501   1.372  10.320 -0.6758 -0.5371  0.2934
17935SOL    HW159897   5.410   1.381  10.291 -0.2283 -1.5042 -1.5905
17935SOL    HW259898   5.503   1.287  10.364 -1.2224  0.6661  2.7745
17936SOL     OW59899   9.312  10.327   5.237 -0.1201 -0.0262  0.4341
17936SOL    HW159900   9.382  10.263   5.224  0.8459  0.9485  0.6494
17936SOL    HW259901   9.259  10.321   5.158  0.2651 -0.6981  0.2159
17937SOL     OW59902   8.395   1.557   5.919 -0.0347 -0.2474  0.1616
17937SOL    HW159903   8.423   1.468   5.900  1.5053 -0.0149  1.1077
17937SOL    HW259904   8.472   1.598   5.959 -0.4387  1.7450 -0.9536
17938SOL     OW59905  10.496   1.371   1.126  0.3473 -0.0116  0.0609
17938SOL    HW159906  10.559   1.439   1.153  1.1515 -1.4465  2.0002
17938SOL    HW259907  10.412   1.401   1.162  0.8201 -0.3103  1.4837
17939SOL     OW59908   5.782   6.403   5.907  0.2569  0.0152 -0.1431
17939SOL    HW159909   5.706   6.364   5.864 -0.1432  1.3078 -0.6622
17939SOL    HW259910   5.817   6.465   5.843  1.7206 -0.4969  0.1135
17940SOL     OW59911   1.314   2.002   0.205 -0.4987 -0.1651 -0.3939
17940SOL    HW159912   1.373   1.948   0.259 -1.7897 -1.5693 -0.3281
17940SOL    HW259913   1.365   2.020   0.126  0.4419 -0.3673  0.1455
17941SOL     OW59914  10.263   3.537   5.623 -0.0695  0.3470  0.3014
17941SOL    HW159915  10.248   3.510   5.533  1.2720  0.4996  0.0110
17941SOL    HW259916  10.250   3.631   5.623 -2.2990  0.0881  0.7823
17942SOL     OW59917   9.297   0.874  10.675  0.2252  0.2030 -0.2835
17942SOL    HW159918   9.298   0.854  10.582  0.1924  0.2244 -0.2886
17942SOL    HW259919   9.213   0.917  10.689 -0.4166 -1.0872  0.0217
17943SOL     OW59920   5.633   4.244   4.775  0.1266 -0.6854  0.0985
17943SOL    HW159921   5.647   4.338   4.761 -2.6753 -0.1033  0.5504
17943SOL    HW259922   5.682   4.201   4.705  1.4269  1.0912 -0.1559
17944SOL     OW59923   6.985   0.311   1.560 -0.0433 -0.6706 -0.1078
17944SOL    HW159924   6.892   0.330   1.562  0.0027 -0.1404 -1.7604
17944SOL    HW259925   7.017   0.354   1.481  1.7651 -0.1556  0.8438
17945SOL     OW59926   0.397   9.693   2.029 -0.4286  0.5387  0.5428
17945SOL    HW159927   0.425   9.650   2.110 -2.2918  0.3617  1.1544
17945SOL    HW259928   0.362   9.777   2.058 -2.5090 -0.1328  0.1824
17946SOL     OW59929   6.437   7.236   0.189 -0.7697  0.7167  0.0417
17946SOL    HW159930   6.443   7.229   0.094  0.6818  1.8550  0.0183
17946SOL    HW259931   6.492   7.311   0.212  0.5972 -0.7399  1.9511
17947SOL     OW59932   0.667   8.131   5.245 -0.4070 -0.2400 -0.0561
17947SOL    HW159933   0.702   8.094   5.164  0.8667  0.7915 -0.0118
17947SOL    HW259934   0.745   8.156   5.296 -1.1874  0.7302  0.7150
17948SOL     OW59935   8.721   9.152   3.265  0.4757  0.9167  0.0027
17948SOL    HW159936   8.655   9.096   3.306  1.4825  0.1179  0.5934
17948SOL    HW259937   8.708   9.237   3.306  0.8255  0.3696  1.3251
17949SOL     OW59938   6.365   4.592   8.421 -0.9100 -0.5610  0.1422
17949SOL    HW159939   6.421   4.562   8.349  0.9178  0.7988  0.8955
17949SOL    HW259940   6.379   4.528   8.490  1.4138  0.7904  1.0391
17950SOL     OW59941   1.200   5.372   7.840 -1.1038 -0.1798 -0.6009
17950SOL    HW159942   1.283   5.324   7.833 -1.3256 -0.6932  0.1707
17950SOL    HW259943   1.134   5.304   7.857 -1.7526  0.1829 -1.5982
17951SOL     OW59944   8.131  10.182   2.000  0.2322 -0.7930 -1.0215
17951SOL    HW159945   8.212  10.232   2.013  0.3386 -0.7957 -1.6519
17951SOL    HW259946   8.151  10.094   2.033 -0.0438 -0.3635  0.3554
17952SOL     OW59947   8.051   2.205   5.087 -0.2488 -0.2980  0.2871
17952SOL    HW159948   8.056   2.191   4.992  2.5238  1.1531  0.1058
17952SOL    HW259949   8.015   2.294   5.096 -0.6343 -0.4829  0.6196
17953SOL     OW59950   2.055   6.954   0.422  0.5697 -0.0885 -0.2799
17953SOL    HW159951   2.073   6.898   0.346 -1.2987  0.9997 -1.6160
17953SOL    HW259952   2.030   7.038   0.384  1.5311  1.1373  1.6296
17954SOL     OW59953   5.106   4.159   2.671 -0.2630 -0.0043  0.1145
17954SOL    HW159954   5.128   4.221   2.601 -0.9299 -0.2039 -0.2775
17954SOL    HW259955   5.169   4.179   2.741  0.5503  0.0502 -0.6139
17955SOL     OW59956   0.991   3.876  10.731 -0.0832  0.0476  0.3664
17955SOL    HW159957   1.052   3.859  10.803 -1.8473 -1.5502  1.5852
17955SOL    HW259958   1.014   3.812  10.664 -0.0158 -0.1294  0.5576
17956SOL     OW59959   2.641   5.735   4.720  0.2896 -0.2733 -0.3108
17956SOL    HW159960   2.571   5.724   4.785 -0.2030  0.1961 -0.7454
17956SOL    HW259961   2.647   5.830   4.709  0.2424 -0.3571 -1.0818
17957SOL     OW59962   8.362   7.486   0.319 -0.1278 -0.5325  0.0310
17957SOL    HW159963   8.295   7.552   0.301 -1.1471 -0.8469  2.3387
17957SOL    HW259964   8.417   7.486   0.241 -0.9692  1.9768 -0.6690
17958SOL     OW59965   7.547   1.395   8.150  0.4585  0.2577 -0.1553
17958SOL    HW159966   7.550   1.338   8.073 -1.6692 -1.4695  0.9270
17958SOL    HW259967   7.521   1.480   8.116 -0.2304 -0.4222 -1.3857
17959SOL     OW59968  10.006   9.667   5.745  0.1454 -0.2001  0.0058
17959SOL    HW159969   9.912   9.656   5.733 -0.2148  2.1535  0.1194
17959SOL    HW259970  10.045   9.644   5.661 -0.3987 -2.0615  0.2246
17960SOL     OW59971  10.850   0.322   6.618  0.3150 -0.6427  0.1212
17960SOL    HW159972  10.811   0.235   6.604 -0.3249 -0.3386 -0.0297
17960SOL    HW259973  10.793   0.363   6.683  0.8002 -0.4507  0.4309
17961SOL     OW59974   6.761   5.603   9.790  0.7489  0.3262  0.0256
17961SOL    HW159975   6.798   5.528   9.838  1.7047  1.1279  0.5676
17961SOL    HW259976   6.835   5.660   9.773  0.1767  0.7544 -1.1746
17962SOL     OW59977   1.083   0.092   7.834  0.3487  0.4245  0.1737
17962SOL    HW159978   1.116   0.140   7.910  1.9332 -0.1320 -0.1202
17962SOL    HW259979   0.989   0.087   7.848  0.3885  1.8471  1.2194
17963SOL     OW59980   2.236  10.048  10.430 -0.2852  0.9387  0.0164
17963SOL    HW159981   2.279  10.126  10.465  0.6346  0.9948 -1.1899
17963SOL    HW259982   2.281   9.975  10.471 -0.5964  1.0207  0.5151
17964SOL     OW59983   2.057  10.467   8.034 -0.0415  0.2429 -0.0056
17964SOL    HW159984   2.149  10.471   8.060 -0.4178 -1.0381  1.6473
17964SOL    HW259985   2.057  10.416   7.953  0.6964  0.3186 -0.0573
17965SOL     OW59986   3.048   0.897   3.407  0.1083  0.4273  0.9807
17965SOL    HW159987   3.129   0.908   3.456  1.2124 -0.2936 -0.5806
17965SOL    HW259988   3.052   0.807   3.373 -1.0532  0.5750  0.3891
17966SOL     OW59989   4.993   5.881   2.881 -0.3485  0.1363  0.4403
17966SOL    HW159990   5.083   5.898   2.853 -0.5621 -0.6053 -0.7953
17966SOL    HW259991   4.954   5.968   2.891  0.1596  0.4583 -0.2357
17967SOL     OW59992   0.673   3.576  10.346  0.1755  0.4274  0.1368
17967SOL    HW159993   0.754   3.546  10.305 -0.1422 -1.3950  0.7540
17967SOL    HW259994   0.658   3.662  10.308  1.5918  0.1642 -1.1355
17968SOL     OW59995   3.791   6.799   9.513 -0.0315  0.6408  0.1081
17968SOL    HW159996   3.781   6.708   9.541 -0.2482  0.5337 -0.3130
17968SOL    HW259997   3.797   6.795   9.418 -1.7171  1.1937 -0.0496
17969SOL     OW59998   0.534   4.669   9.432 -0.1051  0.2014 -0.4565
17969SOL    HW159999   0.571   4.585   9.404 -0.5882 -0.1547 -0.0389
17969SOL    HW260000   0.532   4.722   9.352 -0.8541 -0.5753 -0.9694
17970SOL     OW60001   7.830   3.963  10.252 -0.0686  0.0163 -0.0089
17970SOL    HW160002   7.909   3.924  10.213  0.6056  1.5885 -0.2915
17970SOL    HW260003   7.838   3.945  10.345 -0.5993 -1.8846 -0.2840
17971SOL     OW60004   1.277   2.230  10.665 -0.1180 -0.3873  0.1454
17971SOL    HW160005   1.207   2.168  10.684 -1.6078  1.5472  1.2861
17971SOL    HW260006   1.275   2.292  10.737  1.4192  0.9244 -0.8691
17972SOL     OW60007   5.536   3.766   3.214 -0.3938 -0.1118 -0.4328
17972SOL    HW160008   5.517   3.858   3.233 -2.2183 -1.0040  2.9537
17972SOL    HW260009   5.615   3.747   3.263 -1.1750 -0.7829  0.6112
17973SOL     OW60010  10.517   2.118   8.416 -0.4747  0.4306  0.4019
17973SOL    HW160011  10.518   2.187   8.350 -3.4560  0.0278 -0.2181
17973SOL    HW260012  10.491   2.161   8.497  0.3549  0.4463  0.6717
17974SOL     OW60013   0.803   5.275  10.034  0.1010 -0.1632 -0.4851
17974SOL    HW160014   0.844   5.223   9.965  1.0979 -1.1851  0.8146
17974SOL    HW260015   0.867   5.345  10.051 -0.5631  0.6339 -1.2114
17975SOL     OW60016   7.478  10.171   0.892  0.0999 -0.2182  0.1844
17975SOL    HW160017   7.455  10.131   0.808  0.9900 -0.6968  0.1532
17975SOL    HW260018   7.398  10.167   0.943 -0.8953  1.4813 -1.1527
17976SOL     OW60019   4.014   5.380   3.779 -0.0792  0.3281 -0.8052
17976SOL    HW160020   3.930   5.341   3.803  1.2829 -2.4190 -0.1252
17976SOL    HW260021   4.055   5.403   3.862  0.4136  0.3951 -1.0636
17977SOL     OW60022   6.321   9.602   5.412  0.2248 -0.2011  0.6866
17977SOL    HW160023   6.320   9.693   5.382 -1.8664  0.5774  2.8069
17977SOL    HW260024   6.409   9.590   5.449  0.5778  0.9071  0.2408
17978SOL     OW60025   2.899   6.382  10.401  0.0792 -0.1343  0.4018
17978SOL    HW160026   2.804   6.374  10.400 -0.0735  0.4821  2.7710
17978SOL    HW260027   2.917   6.464  10.355 -0.3205 -1.2958 -1.9227
17979SOL     OW60028   2.583   1.750   0.295 -0.9252 -0.1248 -0.0281
17979SOL    HW160029   2.535   1.822   0.335 -2.1801 -1.5846  1.2422
17979SOL    HW260030   2.631   1.709   0.368 -0.6975 -0.9130 -0.5995
17980SOL     OW60031   3.642   6.706   2.278  0.1695  0.2725  0.6098
17980SOL    HW160032   3.600   6.713   2.192 -0.3486 -0.2825  0.8127
17980SOL    HW260033   3.688   6.622   2.276  2.2164  1.3295 -0.0006
17981SOL     OW60034   5.923   0.315   9.712  0.2855 -0.8122  0.1373
17981SOL    HW160035   5.875   0.373   9.653  1.4548 -0.9110 -0.9367
17981SOL    HW260036   6.009   0.355   9.721  0.5773 -1.5405  0.6640
17982SOL     OW60037   2.212   5.306   4.356 -0.2932 -0.1973 -0.2425
17982SOL    HW160038   2.279   5.246   4.323  0.7872  1.0282 -0.3553
17982SOL    HW260039   2.130   5.272   4.320  0.4575 -0.8141 -1.4492
17983SOL     OW60040   3.548   6.936   4.481 -0.2079  0.0153  0.0895
17983SOL    HW160041   3.506   7.014   4.445  1.1097  0.2098 -1.1379
17983SOL    HW260042   3.637   6.939   4.446 -0.1218 -2.0414  0.0096
17984SOL     OW60043   2.667   7.796   2.198  0.3721  0.2050 -0.0504
17984SOL    HW160044   2.615   7.812   2.277  0.8827 -0.4778  0.4353
17984SOL    HW260045   2.718   7.876   2.187  0.4566  0.2248  0.4424
17985SOL     OW60046   7.280   8.025   7.534 -0.3372  0.1096  0.1676
17985SOL    HW160047   7.241   8.102   7.576 -0.2230 -0.4132  1.2584
17985SOL    HW260048   7.256   7.952   7.591  4.0610 -0.0168  2.2854
17986SOL     OW60049   9.967   2.044   6.199  0.4905 -0.6390  0.6445
17986SOL    HW160050   9.954   1.976   6.133 -1.7204  0.7255 -0.4772
17986SOL    HW260051   9.896   2.033   6.261 -1.5552  2.0417 -0.9742
17987SOL     OW60052   9.249   0.158   7.185  0.0242 -0.3258 -0.3139
17987SOL    HW160053   9.316   0.173   7.118  0.0056 -1.4198 -0.5904
17987SOL    HW260054   9.296   0.160   7.268  0.0788  0.8377 -0.3605
17988SOL     OW60055  10.148   4.100   4.911  0.0842 -0.4136 -0.2526
17988SOL    HW160056  10.209   4.103   4.984 -0.8746  1.6895  0.5452
17988SOL    HW260057  10.163   4.181   4.863 -0.9759 -0.6103 -0.9702
17989SOL     OW60058   5.123  10.064   0.652  0.4132  0.2533  0.1919
17989SOL    HW160059   5.203  10.076   0.704  0.8594  0.2978 -0.4951
17989SOL    HW260060   5.120  10.141   0.595 -1.5596  1.6645  2.0380
17990SOL     OW60061  10.510   1.791   4.175 -0.1703  0.4184 -0.0165
17990SOL    HW160062  10.473   1.789   4.087 -0.6634  1.0629  0.1739
17990SOL    HW260063  10.457   1.854   4.223 -0.8200 -0.9719  1.1598
17991SOL     OW60064   8.942   4.708   9.826  0.0582  0.0107  0.1918
17991SOL    HW160065   9.033   4.683   9.810  0.0535 -0.7829  1.3083
17991SOL    HW260066   8.906   4.636   9.879 -1.1583  0.4113 -0.0575
17992SOL     OW60067   9.517   7.350  10.835  0.2929 -0.6892  0.0782
17992SOL    HW160068   9.463   7.280  10.799 -0.0422 -0.5540  0.3152
17992SOL    HW260069   9.607   7.320  10.822  0.1932 -0.4874 -1.1871
17993SOL     OW60070   8.529  10.558  10.409 -0.0195  0.3999 -0.1631
17993SOL    HW160071   8.450  10.527  10.452 -0.4647  2.3539  0.5099
17993SOL    HW260072   8.601  10.517  10.457 -0.5823  0.1259  0.4512
17994SOL     OW60073   2.142   6.233   1.292 -0.0200 -0.1841 -0.3136
17994SOL    HW160074   2.086   6.278   1.355  0.5397 -2.1746  1.7528
17994SOL    HW260075   2.086   6.166   1.253  0.2933 -0.6361  0.0026
17995SOL     OW60076   0.682   6.871   6.104 -0.4391  0.3599  0.2050
17995SOL    HW160077   0.679   6.962   6.075  0.4296  0.3235 -0.0426
17995SOL    HW260078   0.631   6.823   6.039 -1.4768  0.7515  0.7133
17996SOL     OW60079   7.361   9.002  10.589  0.0743  0.1304 -0.1049
17996SOL    HW160080   7.408   8.962  10.515  0.3684  1.3097 -0.5888
17996SOL    HW260081   7.411   9.082  10.608  0.6968 -0.7342  2.1671
17997SOL     OW60082   2.262   8.718  10.249 -0.4499 -0.2426  0.0031
17997SOL    HW160083   2.238   8.707  10.341 -1.3823  1.2231 -0.0318
17997SOL    HW260084   2.280   8.811  10.240  0.3858 -0.4971 -1.1393
17998SOL     OW60085   0.616   8.274   7.039  0.4953  0.2476  0.0202
17998SOL    HW160086   0.710   8.265   7.028  0.0801 -1.2727 -3.7879
17998SOL    HW260087   0.580   8.271   6.950 -3.1417  1.4561  1.2263
17999SOL     OW60088   2.819   7.466  10.650  0.4810  0.4268  0.8823
17999SOL    HW160089   2.766   7.537  10.613 -0.1692  0.6294  2.1271
17999SOL    HW260090   2.888   7.511  10.699 -0.1073  0.2308  1.9225
18000SOL     OW60091   4.642  10.769  10.225 -0.0889  0.0415 -0.5994
18000SOL    HW160092   4.571  10.823  10.260  0.4738  1.4214 -1.4987
18000SOL    HW260093   4.677  10.724  10.302 -0.5156  1.0296  0.2074
18001SOL     OW60094   0.249   2.394   9.036 -0.0647  0.0906 -0.8421
18001SOL    HW160095   0.269   2.311   8.993  3.5568 -0.1315  0.8392
18001SOL    HW260096   0.335   2.427   9.064 -1.7502  2.2529  2.3910
18002SOL     OW60097  10.543   0.874   3.667 -0.2198  0.4836 -0.0699
18002SOL    HW160098  10.477   0.896   3.601 -0.2133 -1.2453 -0.7095
18002SOL    HW260099  10.597   0.953   3.674 -1.2017  1.2628 -0.9299
18003SOL     OW60100   8.896   0.517   9.882  0.4440  0.0836  0.0949
18003SOL    HW160101   8.853   0.431   9.884  0.1794  0.2069 -0.2325
18003SOL    HW260102   8.872   0.557   9.965  1.2350 -0.4798  0.6056
18004SOL     OW60103   4.818   3.133   2.994  0.7024 -0.2783  0.6887
18004SOL    HW160104   4.791   3.071   2.927 -1.5793  1.9356 -0.6056
18004SOL    HW260105   4.739   3.148   3.047  1.1682  1.4255  0.9786
18005SOL     OW60106   3.694   7.207   8.563  0.5493 -0.2127 -0.1232
18005SOL    HW160107   3.658   7.278   8.510 -1.2700  0.5908  2.0254
18005SOL    HW260108   3.629   7.137   8.557  0.7604 -0.4495  0.2983
18006SOL     OW60109   7.803   8.832   8.028  0.3443  0.0385  0.1351
18006SOL    HW160110   7.869   8.877   8.080  0.7936  1.2619 -1.3920
18006SOL    HW260111   7.794   8.746   8.069  2.3597  0.1003  0.8332
18007SOL     OW60112   8.044   4.875   0.037 -0.4867  0.0063 -0.1051
18007SOL    HW160113   8.003   4.790   0.053  1.0809 -0.7115  0.2684
18007SOL    HW260114   7.975   4.939   0.055 -1.0098 -1.0837  2.0540
18008SOL     OW60115   2.164   3.864   2.314  0.2499  0.0501 -0.2996
18008SOL    HW160116   2.081   3.843   2.357 -0.6157  1.6569 -1.0809
18008SOL    HW260117   2.206   3.779   2.300 -1.3393 -0.8218 -0.0261
18009SOL     OW60118  10.125   9.002   9.911 -0.1868  0.2141 -0.5015
18009SOL    HW160119  10.200   8.984   9.968 -0.6224  2.0832  0.7873
18009SOL    HW260120  10.161   9.056   9.841  0.0046 -0.5087 -0.9695
18010SOL     OW60121   1.742  10.209   7.338  0.0737  0.1816  0.0645
18010SOL    HW160122   1.661  10.180   7.380  0.2150 -1.0304 -0.4447
18010SOL    HW260123   1.713  10.274   7.273 -0.4998 -0.2235 -0.0978
18011SOL     OW60124   7.430   1.570   4.275  0.1999 -0.1005 -0.2847
18011SOL    HW160125   7.504   1.619   4.240 -0.2675  0.7927 -0.0539
18011SOL    HW260126   7.358   1.633   4.276 -0.0142 -0.3267  1.4890
18012SOL     OW60127  10.332   6.973  10.172  0.2447  0.1787  1.2560
18012SOL    HW160128  10.374   6.890  10.197 -1.3977 -1.6377 -1.4357
18012SOL    HW260129  10.404   7.036  10.169  1.7110 -1.3062  2.5490
18013SOL     OW60130  10.749  10.346   8.967 -0.5964  0.1288  0.6919
18013SOL    HW160131  10.802  10.273   8.998 -0.5784 -1.9548 -3.4921
18013SOL    HW260132  10.811  10.417   8.952  0.0334 -0.3142  1.1707
18014SOL     OW60133   6.268  10.881   0.881 -0.0960  0.0996  0.1418
18014SOL    HW160134   6.231  10.935   0.811 -2.2515 -2.4186 -0.8286
18014SOL    HW260135   6.300  10.802   0.836 -1.3444 -1.5033  1.8713
18015SOL     OW60136   9.788   8.684   5.413 -0.3902 -0.1177  0.2350
18015SOL    HW160137   9.720   8.629   5.374 -0.5507  1.0651 -1.2615
18015SOL    HW260138   9.740   8.743   5.472 -0.3098 -1.0239  1.2353
18016SOL     OW60139   1.898   4.604   4.852  0.9328 -0.3694 -0.4719
18016SOL    HW160140   1.808   4.629   4.875  1.4362  1.7640 -0.6533
18016SOL    HW260141   1.892   4.577   4.760  0.7365  1.4445 -1.0252
18017SOL     OW60142  10.882   2.852  10.277 -0.4514  0.4938  0.1756
18017SOL    HW160143  10.822   2.787  10.314  0.7380 -0.4246  0.5860
18017SOL    HW260144  10.967   2.807  10.275 -0.3411  0.5756 -3.3511
18018SOL     OW60145   7.320   5.810   5.485 -0.2509  0.1624 -0.1207
18018SOL    HW160146   7.297   5.774   5.400 -1.7630  2.0210 -0.5620
18018SOL    HW260147   7.277   5.751   5.548 -1.5797  0.3822 -0.7766
18019SOL     OW60148   9.784   0.402   8.113  0.8713 -0.2266  0.0614
18019SOL    HW160149   9.780   0.498   8.104  3.2112  0.0426  1.2671
18019SOL    HW260150   9.867   0.377   8.072  0.4185 -1.7282  0.0040
18020SOL     OW60151   0.877   2.171   3.351  0.6453  0.1691 -0.2843
18020SOL    HW160152   0.931   2.150   3.275  1.9436 -0.3177  0.7500
18020SOL    HW260153   0.859   2.086   3.391  0.2095  0.4516  0.1280
18021SOL     OW60154   4.748   2.876   8.347  0.3046 -0.5287  0.7968
18021SOL    HW160155   4.840   2.876   8.321 -0.0544 -3.8051 -1.0543
18021SOL    HW260156   4.748   2.844   8.437  0.9670  0.1404  1.0453
18022SOL     OW60157   2.905  10.097   1.844  0.1952  0.1063 -0.2772
18022SOL    HW160158   2.971  10.143   1.792  0.4445 -0.8611 -0.8404
18022SOL    HW260159   2.843  10.064   1.780 -2.1320  2.8570  0.3612
18023SOL     OW60160   8.464   5.336  10.168 -0.6587  0.2985  0.2582
18023SOL    HW160161   8.471   5.266  10.104  1.3076  0.1393  0.5833
18023SOL    HW260162   8.500   5.413  10.124  0.9753  0.1242  1.2018
18024SOL     OW60163   6.235   1.544   4.087  0.4747  0.1651  0.1931
18024SOL    HW160164   6.280   1.464   4.060  1.3971  0.4462  0.8613
18024SOL    HW260165   6.145   1.517   4.103  0.9538 -0.9109  1.1765
18025SOL     OW60166   5.262   8.095   5.860 -1.0213 -0.7381 -0.6130
18025SOL    HW160167   5.184   8.151   5.855  0.1960  1.2544  1.1393
18025SOL    HW260168   5.277   8.084   5.954  2.1098  0.9365 -0.7923
18026SOL     OW60169   8.688   5.251  10.333 -0.3771  0.0656 -0.0005
18026SOL    HW160170   8.664   5.159  10.320 -0.3259 -0.0498  0.6802
18026SOL    HW260171   8.609   5.299  10.308 -0.4632 -0.1674 -0.1928
18027SOL     OW60172   7.628   9.422   8.594  0.8404  0.0413  0.1625
18027SOL    HW160173   7.677   9.389   8.669 -0.9038  0.7355  1.6871
18027SOL    HW260174   7.666   9.508   8.576  0.5380  0.3505  0.9837
18028SOL     OW60175   3.120   0.481   4.482 -0.2026  0.3751  0.0324
18028SOL    HW160176   3.091   0.434   4.405  0.3638  1.3573 -0.8076
18028SOL    HW260177   3.180   0.548   4.449 -0.2680  1.0967  1.2705
18029SOL     OW60178   5.948   3.088   4.099 -0.3156 -0.3897 -0.2749
18029SOL    HW160179   5.952   3.031   4.176 -2.7606  1.9289  1.7830
18029SOL    HW260180   5.857   3.086   4.072 -0.4422  2.1347 -0.3264
18030SOL     OW60181   0.408   4.103   8.080  0.4786  0.0120  0.0266
18030SOL    HW160182   0.327   4.072   8.120  0.6610 -1.2853 -0.5611
18030SOL    HW260183   0.389   4.194   8.056 -1.1433 -0.5380 -0.9435
18031SOL     OW60184   9.705   8.948   3.709 -0.8753  1.0660 -0.1050
18031SOL    HW160185   9.723   8.909   3.795 -0.4585 -0.3278 -0.7949
18031SOL    HW260186   9.792   8.968   3.674 -0.8585 -0.7410 -1.2310
18032SOL     OW60187   9.053   0.266   0.695  0.0287  0.2801  0.5688
18032SOL    HW160188   8.969   0.226   0.672  0.0403  0.1254  0.7924
18032SOL    HW260189   9.107   0.193   0.726 -0.0842  0.5197  1.3608
18033SOL     OW60190   6.929   4.295   0.777  0.2608  0.1173  0.1254
18033SOL    HW160191   6.909   4.337   0.694 -0.0634 -0.3708 -0.0503
18033SOL    HW260192   6.849   4.246   0.799  1.6668 -3.0534 -1.2867
18034SOL     OW60193  10.398   5.832   6.825 -0.2396 -0.4047 -0.1994
18034SOL    HW160194  10.339   5.859   6.754  1.6197 -3.5454 -3.2500
18034SOL    HW260195  10.357   5.753   6.860 -0.9408  0.9180  2.1272
18035SOL     OW60196   4.322   5.551   2.295  0.2042 -0.2720  0.0324
18035SOL    HW160197   4.256   5.548   2.226  2.5432 -1.0408 -2.3416
18035SOL    HW260198   4.354   5.461   2.303  2.9728  0.5110 -1.0731
18036SOL     OW60199   7.289   6.553   3.498 -0.0875 -0.0658  0.1445
18036SOL    HW160200   7.270   6.641   3.529 -0.9057  0.0170 -0.5289
18036SOL    HW260201   7.276   6.497   3.574 -2.9523  0.0241 -0.1708
18037SOL     OW60202   3.979   3.000   9.639 -0.5920  0.4747  0.7845
18037SOL    HW160203   3.987   3.047   9.721 -0.5579 -1.2081  1.7857
18037SOL    HW260204   4.011   2.912   9.658 -0.4731  0.0697 -1.0645
18038SOL     OW60205   2.432   8.978   7.266  0.2669 -0.0252  0.1841
18038SOL    HW160206   2.360   8.935   7.220  0.7705  0.1698 -0.8247
18038SOL    HW260207   2.506   8.971   7.206  0.7418  0.9487  0.6354
18039SOL     OW60208   8.487   2.206   3.608 -0.5979 -0.1059 -0.1021
18039SOL    HW160209   8.475   2.218   3.514  1.3935  0.4746 -0.3393
18039SOL    HW260210   8.440   2.279   3.648  0.7145  1.1810 -0.8324
18040SOL     OW60211   3.498   8.503   8.619  0.2480 -0.0754 -0.2243
18040SOL    HW160212   3.474   8.480   8.529 -0.5771 -0.6302  0.1247
18040SOL    HW260213   3.550   8.428   8.649  1.9432  0.8304 -0.7590
18041SOL     OW60214   3.468   9.521   7.050 -0.0432  0.0049  0.0920
18041SOL    HW160215   3.471   9.598   6.994 -1.0556  0.2242  0.3098
18041SOL    HW260216   3.557   9.510   7.082  0.2541  0.6721 -0.5002
18042SOL     OW60217   3.927   0.291   9.622  0.3087  0.1575 -0.0895
18042SOL    HW160218   3.868   0.262   9.691 -4.0771 -1.7364 -4.1087
18042SOL    HW260219   3.990   0.218   9.613 -0.0446 -0.2779  0.8289
18043SOL     OW60220   8.620   7.958   9.835  0.5038 -0.2875 -0.1534
18043SOL    HW160221   8.621   7.866   9.808 -0.2108 -0.2782 -0.2278
18043SOL    HW260222   8.642   7.956   9.928 -3.0090 -0.8974  0.8088
18044SOL     OW60223   8.323   8.319   3.417  0.5922  0.5227  0.1808
18044SOL    HW160224   8.367   8.243   3.380 -1.1030 -0.0678 -0.7461
18044SOL    HW260225   8.281   8.287   3.497  0.1479  0.5555 -0.0365
18045SOL     OW60226   2.435   6.971   2.010  0.3401 -0.2928 -0.5614
18045SOL    HW160227   2.415   6.888   2.053 -0.1481  0.3317  0.4737
18045SOL    HW260228   2.480   7.022   2.078 -1.2903  1.0794 -0.4425
18046SOL     OW60229   5.166   2.049   2.588 -0.4139  0.3201  0.6734
18046SOL    HW160230   5.244   2.104   2.580 -0.2078 -0.1873 -2.3913
18046SOL    HW260231   5.197   1.961   2.565 -1.6355 -0.1131  0.6030
18047SOL     OW60232   4.970  10.151   6.895  0.2254  0.0501  0.4149
18047SOL    HW160233   4.946  10.072   6.847  3.3704  0.3374 -1.8707
18047SOL    HW260234   4.941  10.223   6.840  0.1839  0.4699  0.9717
18048SOL     OW60235   0.351   4.069   8.437 -0.2820 -0.0121  0.2185
18048SOL    HW160236   0.439   4.051   8.404 -0.4418  1.4327 -1.1124
18048SOL    HW260237   0.364   4.131   8.509 -0.1651 -0.6059  0.7217
18049SOL     OW60238   2.690   7.681   8.957 -0.2684 -0.2957  0.3933
18049SOL    HW160239   2.773   7.657   8.915 -0.8068 -0.4039 -0.6436
18049SOL    HW260240   2.674   7.611   9.020 -0.0544 -0.8077 -0.1046
18050SOL     OW60241   8.851   5.344   0.632  0.2082 -0.0905  0.2864
18050SOL    HW160242   8.787   5.410   0.658  1.7248  0.9730  1.4755
18050SOL    HW260243   8.890   5.314   0.714  1.6256 -0.2929 -0.4299
18051SOL     OW60244   1.407  10.749   7.213 -0.4327  0.0389  0.7065
18051SOL    HW160245   1.411  10.655   7.228 -3.0323 -0.2350  0.2555
18051SOL    HW260246   1.369  10.785   7.293 -3.1122  0.1233 -0.4970
18052SOL     OW60247  10.382  10.808   2.940 -0.0710  0.6515 -0.2374
18052SOL    HW160248  10.400  10.852   3.023  0.6345  1.3755 -0.7529
18052SOL    HW260249  10.442  10.850   2.878  1.5375 -1.8571 -0.5156
18053SOL     OW60250   7.925   2.824   9.895 -0.9742 -0.7072 -0.2846
18053SOL    HW160251   7.978   2.745   9.884 -0.4316 -0.2783 -0.8565
18053SOL    HW260252   7.846   2.795   9.940 -1.2126 -1.7545 -1.3399
18054SOL     OW60253   6.025   6.286   9.596  0.5587  0.1138  0.2266
18054SOL    HW160254   6.118   6.303   9.582  0.5798  0.3951  0.6930
18054SOL    HW260255   6.019   6.191   9.600  1.1093  0.1206  1.9786
18055SOL     OW60256   1.988   6.508   5.695  0.3060  0.4041 -0.4447
18055SOL    HW160257   1.970   6.602   5.692  0.0564  0.3365 -1.4716
18055SOL    HW260258   2.083   6.502   5.708  0.1202  0.7718  1.3209
18056SOL     OW60259   2.152   1.345   1.774 -0.3891  0.1000 -0.0760
18056SOL    HW160260   2.150   1.398   1.854  0.3357  0.0575 -0.0186
18056SOL    HW260261   2.115   1.261   1.800  2.1630 -0.8203  0.9348
18057SOL     OW60262   8.262   5.307   6.825 -0.2426  0.0723 -0.4211
18057SOL    HW160263   8.346   5.309   6.870 -0.2662  1.2169 -0.3988
18057SOL    HW260264   8.239   5.214   6.821  1.9141 -0.4735 -2.1262
18058SOL     OW60265   0.651   8.843   6.245  0.4026 -0.1850 -0.2920
18058SOL    HW160266   0.718   8.911   6.259 -0.0293  0.1102  0.3959
18058SOL    HW260267   0.572   8.892   6.223  0.4491 -0.5439 -1.2950
18059SOL     OW60268   3.360   2.668  10.493  0.1513 -0.0731 -0.0496
18059SOL    HW160269   3.394   2.591  10.537 -0.0845 -1.1759 -1.7141
18059SOL    HW260270   3.289   2.699  10.550 -0.0233 -1.3277  0.4412
18060SOL     OW60271   7.405   1.938   6.319  0.2034 -0.6747  0.1706
18060SOL    HW160272   7.441   1.964   6.404  0.2537  0.7051 -0.2417
18060SOL    HW260273   7.477   1.894   6.275  0.9485  0.6883 -0.0382
18061SOL     OW60274   9.344  10.135   4.059  0.3648 -1.0298  0.7442
18061SOL    HW160275   9.331  10.040   4.059 -0.8220 -0.8966 -0.9485
18061SOL    HW260276   9.404  10.152   3.986 -0.5342 -0.3601  0.1461
18062SOL     OW60277   7.546   8.072   1.899 -0.3894 -0.2393 -0.3102
18062SOL    HW160278   7.600   8.105   1.970  0.2570  1.0006 -1.3418
18062SOL    HW260279   7.602   8.077   1.822 -0.7856 -2.3500 -0.7926
18063SOL     OW60280   7.034   7.749   5.206  0.3022 -0.5603  0.1159
18063SOL    HW160281   7.087   7.822   5.173 -1.8418  1.6589  1.3150
18063SOL    HW260282   7.006   7.702   5.127  1.6576 -0.1099 -0.6766
18064SOL     OW60283   7.422   9.336   0.823 -0.3688 -0.1928 -0.1719
18064SOL    HW160284   7.513   9.366   0.824  0.3606 -1.6852  4.8003
18064SOL    HW260285   7.370   9.416   0.828  0.7729  0.5913 -0.4839
18065SOL     OW60286   1.390   3.462   4.313 -0.6430 -0.3815  0.0814
18065SOL    HW160287   1.362   3.391   4.255  0.3211  1.6279 -3.0541
18065SOL    HW260288   1.316   3.522   4.314 -0.2673  0.0855  0.0990
18066SOL     OW60289   4.457   6.060   8.282  0.4540  0.3586 -0.3802
18066SOL    HW160290   4.403   6.133   8.312 -1.3647 -0.9249 -0.3963
18066SOL    HW260291   4.454   6.067   8.186 -0.3518 -0.1447 -0.4028
18067SOL     OW60292   3.792   9.933   8.807  0.2082  0.0804  0.1720
18067SOL    HW160293   3.818   9.915   8.717  0.7256 -0.9171  0.5100
18067SOL    HW260294   3.756  10.022   8.804  0.0710  0.0019 -1.0424
18068SOL     OW60295   5.580   8.742   7.960  0.1074 -0.3894  0.2224
18068SOL    HW160296   5.528   8.703   7.890 -0.9058  0.2972  0.5582
18068SOL    HW260297   5.595   8.671   8.022 -1.7777 -0.2716  0.8654
18069SOL     OW60298   6.885   3.597   6.773  0.4093 -0.4504 -0.2638
18069SOL    HW160299   6.829   3.671   6.797  1.4364  0.3849 -0.4322
18069SOL    HW260300   6.967   3.636   6.745  1.0969 -1.6725 -0.0077
18070SOL     OW60301   4.175   5.427   4.014 -0.0776 -0.3735 -0.0676
18070SOL    HW160302   4.148   5.355   4.071 -3.8157  2.1562  1.8108
18070SOL    HW260303   4.239   5.475   4.066  0.0450 -0.6101  0.0036
18071SOL     OW60304   0.010   8.091   7.140 -0.2575 -0.4086 -0.5141
18071SOL    HW160305   0.083   8.075   7.080 -0.3466 -1.5741 -0.3487
18071SOL    HW260306  -0.066   8.056   7.093 -0.5045 -0.3425 -0.1646
18072SOL     OW60307   5.527   1.429   2.702  0.6155 -0.6788 -0.2459
18072SOL    HW160308   5.603   1.434   2.644  0.0928 -0.4390 -0.9177
18072SOL    HW260309   5.465   1.493   2.667  0.2209 -0.6464  0.4811
18073SOL     OW60310   8.780   7.464   5.995 -0.4238 -0.2751  0.2991
18073SOL    HW160311   8.715   7.520   6.037 -1.9434 -1.9738  0.3630
18073SOL    HW260312   8.781   7.493   5.904 -1.3714 -0.2615  0.2770
18074SOL     OW60313   8.613   1.996   1.819 -0.6307 -0.3274  0.0167
18074SOL    HW160314   8.555   2.058   1.863  0.4062  0.7995 -0.1134
18074SOL    HW260315   8.653   1.946   1.889  1.2959  1.7085  0.5061
18075SOL     OW60316   7.766  10.727  10.518 -0.0847  0.2221  0.0151
18075SOL    HW160317   7.862  10.726  10.521 -0.0515 -0.5397 -0.9415
18075SOL    HW260318   7.741  10.637  10.498 -1.0466  0.2336  1.0580
18076SOL     OW60319   6.256   8.141  10.902  0.3904  1.0798 -0.2677
18076SOL    HW160320   6.178   8.143  10.958  0.5735  0.3940  0.0202
18076SOL    HW260321   6.261   8.050  10.872  1.9524  0.7159  0.9642
18077SOL     OW60322   0.666  10.577   8.666  0.4323 -0.6838  0.2962
18077SOL    HW160323   0.587  10.543   8.708  0.0305  1.5332  1.5049
18077SOL    HW260324   0.636  10.650   8.613  1.6757  0.3461  0.9505
18078SOL     OW60325   1.836   9.116   0.967  0.0586  0.0803 -0.1874
18078SOL    HW160326   1.823   9.098   1.060 -1.0852  1.1303 -0.1235
18078SOL    HW260327   1.862   9.208   0.963 -0.4153  0.1920 -0.9305
18079SOL     OW60328   8.973   6.137   5.875  0.0762 -0.0567  0.3960
18079SOL    HW160329   8.892   6.138   5.824 -0.0935 -2.4579  0.4904
18079SOL    HW260330   9.043   6.149   5.811 -0.3016  2.3203  0.3496
18080SOL     OW60331   1.207   1.353   5.294  0.0239 -0.1081  0.2982
18080SOL    HW160332   1.235   1.444   5.311 -0.0998  0.1729 -0.8989
18080SOL    HW260333   1.259   1.301   5.355 -0.0378  0.7784  1.1442
18081SOL     OW60334   2.470   4.908   9.619 -0.5246 -0.1090 -0.4504
18081SOL    HW160335   2.482   4.889   9.526 -1.1155 -2.9246 -0.0472
18081SOL    HW260336   2.558   4.917   9.654 -0.2385 -0.7255 -0.9972
18082SOL     OW60337  10.667   2.372   3.449  0.1949 -0.1576  0.5155
18082SOL    HW160338  10.660   2.311   3.375  1.2995 -0.0248  0.2894
18082SOL    HW260339  10.610   2.445   3.425 -0.1870 -0.5440  0.2292
18083SOL     OW60340   9.024   6.853   2.955 -0.7215 -0.3354  0.0817
18083SOL    HW160341   9.020   6.760   2.976  0.4268 -0.2150  0.9364
18083SOL    HW260342   9.109   6.864   2.912 -0.0574  0.5981  1.5727
18084SOL     OW60343   2.950   7.432   1.749  0.5493  0.0727  0.1157
18084SOL    HW160344   2.947   7.502   1.814  2.0846  1.0946 -0.8634
18084SOL    HW260345   2.958   7.352   1.801 -0.8480  0.6047  1.2374
18085SOL     OW60346  10.703   3.080   9.242  0.3343 -0.1430 -0.2708
18085SOL    HW160347  10.746   3.154   9.199  3.3668  0.7551  3.6636
18085SOL    HW260348  10.731   3.003   9.191  2.2355  0.9413 -0.9678
18086SOL     OW60349   5.725   9.304   0.248 -0.2452  0.2268  0.2203
18086SOL    HW160350   5.691   9.234   0.304  0.6434 -0.7562 -0.4276
18086SOL    HW260351   5.808   9.328   0.287  1.3107 -1.7731 -1.6139
18087SOL     OW60352   4.833  10.725   2.968 -0.5259  0.2459  0.4898
18087SOL    HW160353   4.750  10.772   2.972  0.1059  1.3763  1.0649
18087SOL    HW260354   4.879  10.753   3.047  0.8013  0.4174 -0.3221
18088SOL     OW60355   0.436   4.456   7.520 -0.1398  0.1152 -0.8155
18088SOL    HW160356   0.432   4.428   7.428 -1.1121 -0.3478 -0.6449
18088SOL    HW260357   0.427   4.375   7.570  0.9197  0.3006 -0.2982
18089SOL     OW60358   5.865   7.933   9.754  0.0168 -0.0026 -0.5962
18089SOL    HW160359   5.883   7.869   9.823 -0.9846 -0.3181 -0.6114
18089SOL    HW260360   5.934   7.919   9.690  1.9375  1.3869  1.0505
18090SOL     OW60361   6.200   8.552  10.842 -0.0356 -0.5288  0.0715
18090SOL    HW160362   6.181   8.573  10.750  1.3617  0.8224  0.0597
18090SOL    HW260363   6.215   8.458  10.842 -2.0310 -0.9175 -0.6996
18091SOL     OW60364   0.020   9.009   7.010 -0.1321 -0.4966  0.0233
18091SOL    HW160365  -0.029   8.944   6.959  0.6241  0.6302 -2.2829
18091SOL    HW260366   0.004   9.091   6.964 -0.0848  0.7662  2.1587
18092SOL     OW60367   1.473   6.920   7.262 -0.3866  0.2509  0.2763
18092SOL    HW160368   1.379   6.933   7.275 -0.2546  0.5019  1.0276
18092SOL    HW260369   1.511   6.931   7.349  0.1517 -1.6751  0.3232
18093SOL     OW60370   1.160   1.768   1.581  0.0654 -0.0665  0.0670
18093SOL    HW160371   1.169   1.844   1.639  0.2701 -0.0169 -0.0304
18093SOL    HW260372   1.178   1.693   1.638 -0.3065 -0.0545  0.2038
18094SOL     OW60373   5.135   8.379   9.696 -0.1362 -0.2075 -0.0606
18094SOL    HW160374   5.070   8.335   9.641 -0.1990 -0.9713  0.5937
18094SOL    HW260375   5.204   8.313   9.709  0.2712  0.2399  0.0970
18095SOL     OW60376   2.680   2.018   2.431 -0.1661 -0.1453  0.3515
18095SOL    HW160377   2.639   1.999   2.346  0.4347  0.7373 -0.1680
18095SOL    HW260378   2.751   1.954   2.438 -0.0781 -0.0849  0.0699
18096SOL     OW60379   4.836  10.242   1.172 -0.0788 -0.3992 -0.2344
18096SOL    HW160380   4.887  10.253   1.092  0.2149 -0.9505 -0.1289
18096SOL    HW260381   4.745  10.238   1.143 -0.3911  3.0686 -0.2469
18097SOL     OW60382   6.583   5.409   5.602 -0.2688  0.6463  0.5337
18097SOL    HW160383   6.571   5.395   5.508 -0.4122 -1.1018  0.7745
18097SOL    HW260384   6.517   5.474   5.625  0.1164  1.4985 -0.6555
18098SOL     OW60385   8.315   8.741   8.614 -0.4409 -0.1177 -0.0194
18098SOL    HW160386   8.269   8.705   8.689 -0.3833 -2.0998 -0.8804
18098SOL    HW260387   8.247   8.753   8.547 -0.0059 -1.5351 -0.7513
18099SOL     OW60388   1.464  10.183   1.376 -0.4173 -0.0252  0.4515
18099SOL    HW160389   1.422  10.102   1.404  0.6009 -0.4285  0.8528
18099SOL    HW260390   1.526  10.204   1.446 -0.5256  0.9964  0.2629
18100SOL     OW60391  10.182   0.360   4.123  0.9790  0.7263 -0.5892
18100SOL    HW160392  10.266   0.332   4.161  1.2633  0.6831 -1.2401
18100SOL    HW260393  10.181   0.455   4.134  2.2652  1.0627 -2.8024
18101SOL     OW60394  10.699   8.630   9.714  0.0793  0.3025  0.0162
18101SOL    HW160395  10.663   8.623   9.802 -0.4941  3.0229  0.1015
18101SOL    HW260396  10.637   8.686   9.667  0.9790 -0.1123 -1.7710
18102SOL     OW60397   3.592  10.269   2.223 -0.2042 -0.6913 -0.4019
18102SOL    HW160398   3.504  10.235   2.203 -1.3339  1.6591  0.2352
18102SOL    HW260399   3.581  10.318   2.304  1.2805  1.1258 -1.2217
18103SOL     OW60400   8.889   5.626   5.061  0.4411  0.1920 -0.1060
18103SOL    HW160401   8.905   5.568   5.134 -2.2110 -0.9556 -0.3349
18103SOL    HW260402   8.845   5.702   5.099  3.1395  1.8106  0.0655
18104SOL     OW60403  10.537   2.398   1.441 -0.1095  0.2390  0.0919
18104SOL    HW160404  10.596   2.342   1.491 -0.8517 -0.4654  0.1940
18104SOL    HW260405  10.481   2.439   1.507 -0.8600 -0.4255 -0.1170
18105SOL     OW60406   8.735   9.885   9.695  0.7295  0.3985  0.0737
18105SOL    HW160407   8.642   9.872   9.674  0.8705  0.8372 -0.8555
18105SOL    HW260408   8.759   9.965   9.648  1.3127  0.8850  1.1662
18106SOL     OW60409   4.300   6.023   1.397 -0.2121  0.1803 -0.4323
18106SOL    HW160410   4.358   6.027   1.321 -1.6562  0.1581 -1.5536
18106SOL    HW260411   4.291   5.930   1.415  0.2678  0.1900 -0.0885
18107SOL     OW60412   7.503   9.289   5.098 -0.3570  0.3650  0.1560
18107SOL    HW160413   7.583   9.292   5.046 -1.2000 -0.5194 -1.2758
18107SOL    HW260414   7.458   9.209   5.069 -1.3061  0.3196  1.6130
18108SOL     OW60415   4.986   2.305   4.644  0.2484  0.2828 -0.2642
18108SOL    HW160416   5.058   2.334   4.700  1.6502 -1.7174 -0.8892
18108SOL    HW260417   4.936   2.245   4.699  0.1470  0.2585 -0.3827
18109SOL     OW60418   5.257   5.833   5.185  0.1118 -0.0861 -0.1223
18109SOL    HW160419   5.181   5.775   5.180 -1.5358  2.0352 -0.9911
18109SOL    HW260420   5.255   5.868   5.274  0.3440 -0.3234 -0.0189
18110SOL     OW60421   4.996   6.641   3.495  0.7624 -0.2760 -0.2266
18110SOL    HW160422   5.060   6.689   3.546 -0.9029  0.5956  1.1539
18110SOL    HW260423   4.964   6.572   3.554 -2.9422  2.2225  1.0134
18111SOL     OW60424   5.435   3.198   7.179 -0.6612 -0.1172 -0.0536
18111SOL    HW160425   5.498   3.254   7.134 -1.7496  2.4882  1.5000
18111SOL    HW260426   5.489   3.131   7.221  0.8034  0.4044 -1.0325
18112SOL     OW60427   1.798   1.806   3.541 -0.2818 -0.0765  0.0427
18112SOL    HW160428   1.835   1.819   3.628  0.9568 -0.1830 -0.4472
18112SOL    HW260429   1.775   1.894   3.511 -1.2169 -0.0917  0.6727
18113SOL     OW60430   8.567   6.909   2.577 -0.1867  0.1409 -0.2910
18113SOL    HW160431   8.503   6.971   2.613  1.6247  1.5786  0.6030
18113SOL    HW260432   8.573   6.840   2.643 -1.6241 -0.6177 -0.9174
18114SOL     OW60433   2.342   5.026   6.592  0.5195 -0.3123  0.3602
18114SOL    HW160434   2.343   5.084   6.669  0.7019 -0.3375  0.3773
18114SOL    HW260435   2.379   4.944   6.624 -0.8176 -0.8215  0.6267
18115SOL     OW60436   3.543   9.531   6.441  0.1883 -0.0628  0.4840
18115SOL    HW160437   3.572   9.450   6.400  1.6600 -0.8505  2.8713
18115SOL    HW260438   3.611   9.595   6.420  0.4066 -0.1870  0.8007
18116SOL     OW60439   9.966   6.661   5.988 -0.0442 -0.1615  0.0347
18116SOL    HW160440  10.054   6.673   5.953  0.8863 -1.1519  1.8804
18116SOL    HW260441   9.908   6.694   5.919  1.6556 -1.2888 -2.0782
18117SOL     OW60442   9.674   2.462   7.292  0.1844  0.3935  0.4215
18117SOL    HW160443   9.630   2.475   7.376 -0.2141  0.7237  0.1691
18117SOL    HW260444   9.666   2.368   7.275  1.6538  0.0440  1.4880
18118SOL     OW60445   8.848   2.936   8.151 -0.3959  0.3216 -0.0376
18118SOL    HW160446   8.848   2.911   8.058  0.7707  0.5854 -0.1213
18118SOL    HW260447   8.757   2.928   8.178 -0.8604  0.8835 -1.3793
18119SOL     OW60448   5.932   2.495   3.188  0.2263 -0.2564  0.3063
18119SOL    HW160449   5.884   2.423   3.147  1.7931 -1.6583  0.8005
18119SOL    HW260450   5.953   2.554   3.116 -1.5539  0.0454 -0.0259
18120SOL     OW60451   0.455   1.912   7.304 -0.0765 -0.7986 -0.0942
18120SOL    HW160452   0.458   1.887   7.396  1.2847  0.2223  0.1743
18120SOL    HW260453   0.441   2.007   7.305 -0.8284 -0.8841 -0.9701
18121SOL     OW60454   2.363   9.702   5.493  0.1823 -0.1261 -0.3871
18121SOL    HW160455   2.433   9.764   5.511  0.2122 -0.2446 -0.0906
18121SOL    HW260456   2.327   9.681   5.580 -0.7008  0.5010 -0.5869
18122SOL     OW60457   9.265   9.554   9.979 -0.0665 -0.0293  0.1622
18122SOL    HW160458   9.230   9.548  10.068 -0.3263  0.4500  0.0959
18122SOL    HW260459   9.189   9.579   9.926  0.4293  1.2820  0.0499
18123SOL     OW60460   4.196   3.480   8.209  0.0454  0.2024 -0.2111
18123SOL    HW160461   4.288   3.460   8.230 -0.0456 -0.5289 -0.4938
18123SOL    HW260462   4.201   3.555   8.150  0.4060  0.8926  0.6674
18124SOL     OW60463   0.472   5.570   0.233 -0.2406 -0.2438  0.0515
18124SOL    HW160464   0.399   5.590   0.292 -0.9020  1.1833 -1.1698
18124SOL    HW260465   0.459   5.630   0.159  2.4630  0.4410  0.0297
18125SOL     OW60466   2.152   5.250   2.688  0.1954  0.3407  0.5838
18125SOL    HW160467   2.128   5.164   2.653  0.7301  0.1907  0.5703
18125SOL    HW260468   2.228   5.276   2.636 -1.3424  1.8839 -0.9973
18126SOL     OW60469   9.159   4.740   8.493  0.2097 -0.4228  0.3704
18126SOL    HW160470   9.245   4.707   8.519  0.3723  0.3013  0.7772
18126SOL    HW260471   9.100   4.712   8.564 -0.0259 -1.4601 -0.2111
18127SOL     OW60472   1.359   3.585   8.270 -0.5431  0.4382  0.3730
18127SOL    HW160473   1.446   3.546   8.276 -1.2839 -1.4154 -0.2002
18127SOL    HW260474   1.337   3.582   8.177 -0.8593  1.7991  0.3759
18128SOL     OW60475   8.287   9.688   3.160 -0.2587 -0.4224  0.5357
18128SOL    HW160476   8.243   9.773   3.158  0.8675  0.1720  0.3286
18128SOL    HW260477   8.217   9.625   3.178 -1.0056  0.6169  1.3971
18129SOL     OW60478   2.633   0.148   8.102  0.0892 -0.4622  0.0299
18129SOL    HW160479   2.705   0.085   8.111  0.5939  0.2565  1.1668
18129SOL    HW260480   2.659   0.223   8.154 -1.2767  0.0237  0.0656
18130SOL     OW60481   3.116   8.638  10.429 -0.0770 -0.3457 -0.1101
18130SOL    HW160482   3.084   8.597  10.510  0.7695 -1.4767 -0.3226
18130SOL    HW260483   3.185   8.698  10.458 -1.9035  1.7004  0.2950
18131SOL     OW60484   0.097   8.874   3.954 -0.2380 -0.7621 -0.3249
18131SOL    HW160485   0.061   8.822   4.025 -0.9444 -1.2915 -1.0687
18131SOL    HW260486   0.123   8.811   3.887 -0.9571 -0.1851 -1.1700
18132SOL     OW60487   5.945   1.207   8.456 -0.3599  0.4860  0.0550
18132SOL    HW160488   5.881   1.272   8.429 -0.0590  0.4872 -0.6698
18132SOL    HW260489   5.989   1.246   8.531 -1.0816  0.5569  0.4563
18133SOL     OW60490   4.891   0.081   0.964  0.1110  0.8532 -0.0905
18133SOL    HW160491   4.954   0.102   1.033 -1.4236  1.3087  1.2184
18133SOL    HW260492   4.809   0.121   0.992 -1.4295 -1.7464 -0.5118
18134SOL     OW60493   9.597   2.039   2.441  0.4216  0.4766  0.0987
18134SOL    HW160494   9.647   1.958   2.438  0.3331  0.4444 -0.5225
18134SOL    HW260495   9.522   2.018   2.498 -1.0806 -0.7396 -2.1806
18135SOL     OW60496   7.012   0.241   2.993 -0.0288 -0.2883  0.6778
18135SOL    HW160497   6.983   0.163   3.042 -0.2136 -1.1414 -0.7284
18135SOL    HW260498   7.084   0.209   2.938 -0.1902  0.5150 -0.0107
18136SOL     OW60499   7.178   6.806   3.230  0.0367  0.0744 -0.6681
18136SOL    HW160500   7.129   6.834   3.307  0.4368 -0.8790 -0.0361
18136SOL    HW260501   7.222   6.885   3.199 -1.0253  0.7044 -0.6035
18137SOL     OW60502  10.287  10.472   5.896  0.2994  0.4829  0.3209
18137SOL    HW160503  10.364  10.472   5.952  1.2663  1.3331 -0.9553
18137SOL    HW260504  10.306  10.406   5.829 -0.2839  0.3731  0.2549
18138SOL     OW60505   7.445   9.990   8.968 -0.0322  0.1407 -0.3171
18138SOL    HW160506   7.355   9.994   8.936  0.5640 -0.3776 -2.1482
18138SOL    HW260507   7.457   9.898   8.995 -0.2160  0.3463  0.5055
18139SOL     OW60508   4.864   9.642   6.031  0.5930 -0.3035  0.3736
18139SOL    HW160509   4.813   9.561   6.040 -1.0454  0.6331 -0.0249
18139SOL    HW260510   4.905   9.635   5.944 -0.9829  0.0246 -0.4429
18140SOL     OW60511   0.891   4.533   8.683 -0.2972  0.4654 -0.1811
18140SOL    HW160512   0.968   4.589   8.698 -1.4132  2.4382 -1.4179
18140SOL    HW260513   0.880   4.533   8.588  0.4510 -3.1106 -0.4199
18141SOL     OW60514   3.306   8.343   5.320 -0.2760  0.5134 -0.6262
18141SOL    HW160515   3.291   8.434   5.294 -1.1963  0.2181 -1.2142
18141SOL    HW260516   3.263   8.292   5.251 -2.2569 -0.3250  1.0969
18142SOL     OW60517   3.104   2.203   0.289 -0.3426 -0.4180 -0.1047
18142SOL    HW160518   3.057   2.192   0.372 -1.3722 -2.4103 -0.8838
18142SOL    HW260519   3.182   2.148   0.298 -0.5498 -0.7826 -0.5130
18143SOL     OW60520   7.261  10.197   9.525  0.1863  0.2115 -0.0362
18143SOL    HW160521   7.211  10.214   9.444 -0.3850  1.4703  0.5504
18143SOL    HW260522   7.324  10.269   9.529  1.0624 -0.5411  0.0183
18144SOL     OW60523  10.537   6.620   1.240  0.0164  0.6451  0.2171
18144SOL    HW160524  10.571   6.531   1.232  2.7180  1.6804 -0.8961
18144SOL    HW260525  10.450   6.617   1.199  0.4494 -1.2550 -0.6240
18145SOL     OW60526   8.237   3.630   9.382  0.3966 -0.1899 -0.2655
18145SOL    HW160527   8.240   3.544   9.341  1.7860  0.0685 -0.7478
18145SOL    HW260528   8.264   3.614   9.473  3.1135  0.0434 -0.9651
18146SOL     OW60529   4.094   6.058   3.963 -0.7257  0.3631  0.2731
18146SOL    HW160530   4.015   6.072   4.015 -1.1366 -1.4188  0.2098
18146SOL    HW260531   4.064   6.007   3.888  0.3931  0.1689 -0.0602
18147SOL     OW60532   4.335   2.707   3.481 -0.2677 -0.0396 -0.2572
18147SOL    HW160533   4.330   2.726   3.387 -1.2523 -0.1407 -0.2353
18147SOL    HW260534   4.362   2.616   3.485  2.1564  0.6180 -0.3921
18148SOL     OW60535   8.118   9.362   9.425 -0.2689 -0.1836  0.2729
18148SOL    HW160536   8.090   9.318   9.345  1.7980 -0.4462 -0.3748
18148SOL    HW260537   8.108   9.296   9.494 -2.0641  0.0466  0.2926
18149SOL     OW60538   3.444   1.186   4.732  0.3567  0.0146  0.6977
18149SOL    HW160539   3.476   1.174   4.643 -0.7313  1.2791  0.0886
18149SOL    HW260540   3.417   1.278   4.735 -2.3638 -0.7061  1.3566
18150SOL     OW60541  10.487   3.175   4.364  0.0592  0.3004 -0.3164
18150SOL    HW160542  10.519   3.233   4.296 -0.7751 -1.1959 -2.0916
18150SOL    HW260543  10.429   3.114   4.317 -0.5743 -0.7683  1.7507
18151SOL     OW60544  10.546   0.991   1.339  0.3868 -0.0033  0.4891
18151SOL    HW160545  10.568   0.940   1.418  0.2132 -1.1047 -0.1513
18151SOL    HW260546  10.554   1.082   1.367  1.1193 -0.3701  1.5641
18152SOL     OW60547   8.270   6.893   7.250  0.2975  0.0695  0.0500
18152SOL    HW160548   8.300   6.897   7.160  1.0809 -0.2705  0.2865
18152SOL    HW260549   8.176   6.876   7.244 -0.0500  2.0551 -0.7178
18153SOL     OW60550   6.866   2.847   4.812  0.0380  0.3720  0.0006
18153SOL    HW160551   6.790   2.851   4.870  0.5026  0.2923  0.6307
18153SOL    HW260552   6.905   2.761   4.830  0.9115  0.8632  0.5143
18154SOL     OW60553   3.957   8.387   9.797 -0.4751  0.0031  0.2302
18154SOL    HW160554   4.003   8.442   9.860  0.8528 -2.0302  1.1587
18154SOL    HW260555   3.924   8.314   9.849  0.5423 -1.6828 -1.3651
18155SOL     OW60556   7.281   9.224   3.324 -0.4925  0.4478  0.2053
18155SOL    HW160557   7.308   9.314   3.307 -0.2154  0.3664  0.2079
18155SOL    HW260558   7.359   9.182   3.361 -0.1821 -0.1655 -1.0826
18156SOL     OW60559   4.845   0.889   9.788 -0.0826  0.2221 -0.1880
18156SOL    HW160560   4.884   0.956   9.844 -1.6731 -1.6624  3.5051
18156SOL    HW260561   4.913   0.823   9.777 -0.5568 -0.7450  2.1085
18157SOL     OW60562   9.976   6.556   5.213 -0.0529  0.4510 -0.2493
18157SOL    HW160563   9.998   6.648   5.223  2.5812  0.0607 -1.4648
18157SOL    HW260564  10.003   6.534   5.124 -1.4520 -1.3064 -0.3049
18158SOL     OW60565   0.303   4.942   8.739 -0.5236 -0.2637 -0.7116
18158SOL    HW160566   0.255   4.968   8.817  0.7818 -1.0650  0.4027
18158SOL    HW260567   0.297   5.017   8.680  1.1727  1.6852  1.4555
18159SOL     OW60568   3.886   1.974  10.073 -0.6971 -0.8769  0.3525
18159SOL    HW160569   3.895   2.047  10.135 -0.2184  1.3669 -2.1668
18159SOL    HW260570   3.950   1.909  10.102  0.6513  0.7951  1.2846
18160SOL     OW60571   6.699   3.775   6.097 -0.2024  0.4333  0.3333
18160SOL    HW160572   6.732   3.831   6.167 -1.0112 -0.5248  1.5129
18160SOL    HW260573   6.633   3.720   6.139 -1.1226  0.2184 -1.3124
18161SOL     OW60574   0.509   2.934   3.378  0.4014  0.4786 -0.1032
18161SOL    HW160575   0.603   2.931   3.360  0.2600  0.6185 -0.8863
18161SOL    HW260576   0.467   2.919   3.293 -0.2919 -0.5680  0.3958
18162SOL     OW60577   8.206   1.211   8.887 -0.8693 -0.2353 -0.1578
18162SOL    HW160578   8.300   1.204   8.898 -0.8122  0.1473 -0.4011
18162SOL    HW260579   8.178   1.122   8.863 -0.3062  0.0423 -1.9984
18163SOL     OW60580   4.684  10.168   7.539  0.2764  0.0344 -0.7140
18163SOL    HW160581   4.760  10.148   7.595 -0.6316  0.2497  0.6475
18163SOL    HW260582   4.721  10.219   7.467  1.5115 -0.3625 -0.4030
18164SOL     OW60583   2.619  10.554   4.388 -0.0172 -0.2862  0.0314
18164SOL    HW160584   2.592  10.540   4.297  0.4251 -0.1170 -0.1276
18164SOL    HW260585   2.551  10.611   4.424 -0.0200 -0.0759 -0.2932
18165SOL     OW60586   0.535   7.604   9.680  0.7404 -0.3925  0.6382
18165SOL    HW160587   0.453   7.636   9.642  0.1850 -2.1872  0.2393
18165SOL    HW260588   0.511   7.574   9.768  1.2006  0.0683  0.9266
18166SOL     OW60589   2.034   8.601   0.896 -0.0441 -0.2216 -0.0762
18166SOL    HW160590   2.111   8.584   0.950  0.6346 -1.4547 -1.3488
18166SOL    HW260591   1.961   8.563   0.945  0.3360 -0.0411  0.6330
18167SOL     OW60592   9.531   7.756   2.210 -0.2260  0.2372 -0.2187
18167SOL    HW160593   9.488   7.684   2.257  0.4939 -1.1602 -1.6045
18167SOL    HW260594   9.610   7.773   2.262  0.9581 -1.8132 -1.2022
18168SOL     OW60595   5.114   8.802  10.667  0.1780  0.2119 -0.7354
18168SOL    HW160596   5.199   8.816  10.625 -1.5406  3.0301 -3.7342
18168SOL    HW260597   5.051   8.837  10.605 -3.1676 -0.7984  1.8159
18169SOL     OW60598   6.787  10.632   3.703  0.2397 -0.4671 -0.1013
18169SOL    HW160599   6.702  10.674   3.694  1.0166  1.1634 -0.3894
18169SOL    HW260600   6.849  10.699   3.673  1.7139 -1.0705  1.4329
18170SOL     OW60601   0.330   9.524  10.218  0.0304  0.5265 -0.5156
18170SOL    HW160602   0.268   9.456  10.190  0.6128  0.1390 -0.8873
18170SOL    HW260603   0.274   9.595  10.249 -0.5939 -0.1509 -0.0344
18171SOL     OW60604   2.878   4.797   7.547  0.7938  0.4792 -0.5579
18171SOL    HW160605   2.791   4.777   7.510  0.5712  0.2542  0.0626
18171SOL    HW260606   2.918   4.711   7.560  0.3843  0.4776  0.8439
18172SOL     OW60607   4.870   5.068   1.920  0.7914 -0.1432 -0.0847
18172SOL    HW160608   4.919   5.115   1.988 -1.8439  1.4902  0.8427
18172SOL    HW260609   4.802   5.021   1.968 -2.6614  2.8988 -1.5007
18173SOL     OW60610   8.275   6.464   5.894  0.0153  0.1583  0.5802
18173SOL    HW160611   8.269   6.447   5.988  0.5383  0.3685  0.6564
18173SOL    HW260612   8.328   6.392   5.859  0.6252  0.5846  0.6025
18174SOL     OW60613   3.608   8.154   6.909 -0.4477 -0.0748 -0.1786
18174SOL    HW160614   3.563   8.105   6.840 -0.6857  0.3776 -0.3510
18174SOL    HW260615   3.572   8.118   6.991 -2.2447  1.2656 -0.3161
18175SOL     OW60616   2.891   6.996   4.884  0.1412  0.5376  0.0706
18175SOL    HW160617   2.888   6.933   4.956 -0.3847  0.9789  0.4326
18175SOL    HW260618   2.843   6.954   4.813  0.3426  0.2588  0.0993
18176SOL     OW60619   8.217   7.516   7.847 -0.0415 -0.8507  0.6222
18176SOL    HW160620   8.303   7.557   7.850 -0.2896 -0.3151  0.5215
18176SOL    HW260621   8.232   7.431   7.805  0.2662 -0.3071 -0.3960
18177SOL     OW60622   6.571   3.951   1.119 -0.5926  0.3803  0.4000
18177SOL    HW160623   6.618   3.879   1.076 -0.7348  0.4199  0.1782
18177SOL    HW260624   6.625   4.028   1.101 -0.5604  0.3682  0.4434
18178SOL     OW60625   6.610   7.994   6.230  0.1035 -0.7002  0.3601
18178SOL    HW160626   6.583   7.906   6.203  1.9525 -1.1312 -0.2015
18178SOL    HW260627   6.681   8.017   6.171 -1.5324  1.9886 -0.7431
18179SOL     OW60628   0.238  10.071   1.606  0.1426  0.3270 -0.6593
18179SOL    HW160629   0.196  10.118   1.534  0.6773  1.8835  0.0064
18179SOL    HW260630   0.208  10.115   1.685  0.3455 -0.7213  0.0290
18180SOL     OW60631   3.837   7.889   5.694  0.1776  0.0488 -0.3959
18180SOL    HW160632   3.765   7.837   5.660 -0.4813 -1.4943  2.8902
18180SOL    HW260633   3.799   7.975   5.712 -0.2014 -0.0153 -0.8820
18181SOL     OW60634   7.174   9.303   2.844 -0.2024  0.3456 -0.2510
18181SOL    HW160635   7.185   9.383   2.895  1.3434 -0.7676  1.2771
18181SOL    HW260636   7.138   9.332   2.760 -0.7857  2.4864  0.6761
18182SOL     OW60637   0.294   8.724   4.754  0.0423 -0.6120 -0.1164
18182SOL    HW160638   0.199   8.716   4.754 -0.0085 -0.1819  0.9445
18182SOL    HW260639   0.324   8.657   4.693 -0.9752 -0.2458 -1.0343
18183SOL     OW60640   8.885   7.749   4.599  0.7888  0.4968  0.0400
18183SOL    HW160641   8.922   7.687   4.536  0.3874  1.4437 -1.1524
18183SOL    HW260642   8.867   7.696   4.676  0.7538 -0.8169 -0.8386
18184SOL     OW60643   4.946   8.575  10.520 -0.6297 -0.4315  0.2445
18184SOL    HW160644   5.032   8.613  10.506 -1.4461  1.1152 -0.8696
18184SOL    HW260645   4.962   8.481  10.531  1.3793  0.0781  2.2618
18185SOL     OW60646   0.992   5.404   0.575  0.0851 -0.2623 -0.2130
18185SOL    HW160647   0.918   5.419   0.517 -0.1450 -2.0872 -0.4760
18185SOL    HW260648   1.059   5.465   0.546 -0.6638  0.0991 -1.2221
18186SOL     OW60649   9.203   6.007   7.898  0.3385  0.1235 -0.4948
18186SOL    HW160650   9.220   6.031   7.807  0.9512 -0.6130 -0.5818
18186SOL    HW260651   9.245   6.077   7.949 -0.2690  0.7041 -0.7689
18187SOL     OW60652   5.742   8.930   4.507 -0.1714  0.4799  0.4420
18187SOL    HW160653   5.786   9.007   4.470 -2.3051  0.8357 -1.6270
18187SOL    HW260654   5.661   8.964   4.544 -1.7291 -0.8217 -1.5635
18188SOL     OW60655   3.181   5.301   6.742 -0.5366 -0.3138  0.6885
18188SOL    HW160656   3.229   5.261   6.815  0.9967  1.1880  0.5734
18188SOL    HW260657   3.233   5.378   6.718 -2.6507  0.9961  0.0192
18189SOL     OW60658   9.541   5.336   0.730  0.0440  0.1377  0.4388
18189SOL    HW160659   9.598   5.403   0.767  1.1046 -1.0366  0.9843
18189SOL    HW260660   9.520   5.278   0.803  3.1585 -2.9379 -0.8226
18190SOL     OW60661  10.440   9.599   9.899  0.0367 -0.2874 -0.1703
18190SOL    HW160662  10.441   9.692   9.876 -0.3730  0.0374  1.0300
18190SOL    HW260663  10.530   9.579   9.924 -0.2457  0.3238  1.4709
18191SOL     OW60664   2.654   3.369   1.336 -0.2293 -0.0539  0.0925
18191SOL    HW160665   2.625   3.460   1.327  2.3073  0.9228  0.9394
18191SOL    HW260666   2.706   3.368   1.416 -0.9345 -2.5074  0.6120
18192SOL     OW60667   6.450   7.049   8.031  0.6660 -0.4611 -0.3849
18192SOL    HW160668   6.388   6.998   8.084 -1.0585  2.9520  1.1761
18192SOL    HW260669   6.535   7.030   8.071 -0.2590 -0.1324  1.8878
18193SOL     OW60670   4.594   9.134   4.287 -0.3414  0.2784 -0.1673
18193SOL    HW160671   4.524   9.073   4.308  0.5850 -0.5645  0.5638
18193SOL    HW260672   4.599   9.191   4.364 -0.6572  0.7707 -0.5024
18194SOL     OW60673   0.075   9.687   0.467 -0.3271 -0.1957  0.4529
18194SOL    HW160674   0.164   9.654   0.479 -0.1313 -0.1937 -0.8575
18194SOL    HW260675   0.020   9.609   0.477  0.1427 -1.0855 -2.7197
18195SOL     OW60676   1.708   0.432   0.769  0.3826 -0.4188 -0.0424
18195SOL    HW160677   1.736   0.523   0.775  2.1700 -0.9852  0.9518
18195SOL    HW260678   1.641   0.432   0.700 -1.0020  1.9324  1.1651
18196SOL     OW60679   6.017   3.708   4.032 -0.0732  0.7700  0.2204
18196SOL    HW160680   6.040   3.719   4.124  1.7485 -0.7557 -0.0068
18196SOL    HW260681   6.099   3.687   3.989 -1.3122 -1.2288 -1.2953
18197SOL     OW60682   2.455   6.430   6.332 -0.2683 -0.0076  0.2230
18197SOL    HW160683   2.438   6.336   6.343  0.8517  0.0636  4.4891
18197SOL    HW260684   2.368   6.471   6.338 -0.6884 -0.6868 -0.9536
18198SOL     OW60685  10.393   1.076   7.576  0.1015  0.1099  0.0131
18198SOL    HW160686  10.363   1.120   7.656  0.6343  0.8844 -0.1973
18198SOL    HW260687  10.389   0.983   7.596  0.4386  0.3009  1.0240
18199SOL     OW60688   3.148   3.774  10.697  0.1610  0.2720 -0.7734
18199SOL    HW160689   3.096   3.776  10.777  0.4925  0.4505 -0.5608
18199SOL    HW260690   3.122   3.853  10.650  0.3008  0.4082 -0.6257
18200SOL     OW60691   4.441   0.856   0.228 -0.4812 -0.3913 -0.0281
18200SOL    HW160692   4.365   0.897   0.187 -0.3738  0.7225  0.8321
18200SOL    HW260693   4.500   0.929   0.246 -0.9536 -0.6317  3.0353
18201SOL     OW60694   9.176   4.276   7.987 -0.4255  0.1831 -0.2493
18201SOL    HW160695   9.219   4.251   7.905 -0.6792 -1.2378  0.0244
18201SOL    HW260696   9.222   4.355   8.015  2.1199 -1.2853  0.0531
18202SOL     OW60697   8.987   6.044   3.868 -0.0088  0.0067  0.1926
18202SOL    HW160698   8.892   6.049   3.874 -0.0345  1.8937 -0.8190
18202SOL    HW260699   9.005   5.956   3.835 -1.2066 -1.2388  2.6523
18203SOL     OW60700   2.858   6.981   8.805 -0.1029  0.7840 -0.4235
18203SOL    HW160701   2.798   7.008   8.875  0.2281 -0.3165  0.3114
18203SOL    HW260702   2.807   6.918   8.754  0.9060 -1.5487  1.2490
18204SOL     OW60703   6.244   1.820   5.125 -0.1567 -0.4253 -0.4147
18204SOL    HW160704   6.201   1.793   5.206 -1.4198  1.1848 -0.5066
18204SOL    HW260705   6.179   1.875   5.081  1.4926  0.9335 -1.2314
18205SOL     OW60706   6.808   5.725  10.766  0.2040 -0.1142 -0.5063
18205SOL    HW160707   6.834   5.634  10.778  0.1367 -0.1242 -0.4409
18205SOL    HW260708   6.782   5.730  10.674  3.2787  0.5876 -1.4331
18206SOL     OW60709  10.119   9.668   2.947  0.4889 -0.9018 -0.2479
18206SOL    HW160710  10.108   9.601   3.014 -0.5941 -1.2715 -0.7754
18206SOL    HW260711  10.211   9.695   2.956  1.5458 -3.7436 -1.1937
18207SOL     OW60712   3.065   7.050   8.307 -0.2627 -0.6101  0.4845
18207SOL    HW160713   3.151   7.015   8.329  1.0947  1.0276 -1.7036
18207SOL    HW260714   3.052   7.122   8.369 -0.8345 -1.8393  1.8384
18208SOL     OW60715   3.380   8.927   5.078  0.1182 -0.5121 -0.2235
18208SOL    HW160716   3.413   8.864   5.015  0.1214  0.3534 -1.1032
18208SOL    HW260717   3.440   8.921   5.153  0.8798 -0.6263 -0.8367
18209SOL     OW60718   9.740   4.494   6.556  0.2400 -0.4707 -0.3768
18209SOL    HW160719   9.663   4.543   6.526 -0.1703 -1.4057 -0.9165
18209SOL    HW260720   9.811   4.558   6.557 -0.5901  0.4614  0.3462
18210SOL     OW60721   3.312   6.550   2.225  0.0552  0.6366  0.4197
18210SOL    HW160722   3.357   6.595   2.153  1.8987 -0.2887  0.9293
18210SOL    HW260723   3.275   6.621   2.278 -0.3475  1.3700 -0.8012
18211SOL     OW60724   4.098   8.180  10.194 -0.0554  0.6563 -0.0724
18211SOL    HW160725   4.106   8.270  10.226  0.2154  0.8541 -0.6743
18211SOL    HW260726   4.130   8.126  10.266  1.3149  1.1287 -0.2895
18212SOL     OW60727   8.712   5.897   8.248  0.2612 -0.1630 -0.0567
18212SOL    HW160728   8.706   5.991   8.267 -2.2599  0.2987 -2.3875
18212SOL    HW260729   8.788   5.890   8.190  1.2420  0.1924  1.1482
18213SOL     OW60730   4.755   2.244   2.297 -0.1213 -0.1442 -0.1615
18213SOL    HW160731   4.723   2.229   2.208  1.3074  1.0916 -0.9436
18213SOL    HW260732   4.765   2.339   2.303  0.6071 -0.2738  1.0076
18214SOL     OW60733   5.579  10.582   1.353 -0.4673  0.0009  0.4588
18214SOL    HW160734   5.515  10.543   1.413  0.3792  0.4360  1.6862
18214SOL    HW260735   5.575  10.676   1.372 -0.0615  0.1282 -0.0543
18215SOL     OW60736   7.006   6.033  10.422  0.0505  0.2899 -0.2647
18215SOL    HW160737   7.079   6.095  10.436  0.2796  0.7083 -2.7710
18215SOL    HW260738   7.003   6.022  10.327 -1.3402 -1.9878 -0.0155
18216SOL     OW60739   5.887   0.959   4.753 -0.2481  0.3535 -0.1212
18216SOL    HW160740   5.861   0.892   4.817 -0.3721  0.4555 -0.0646
18216SOL    HW260741   5.953   0.916   4.699 -0.0758  0.2985  0.1341
18217SOL     OW60742   4.103   1.980  10.543 -0.2643 -0.1809 -0.7388
18217SOL    HW160743   4.071   2.045  10.605  0.5358  0.3984 -0.9122
18217SOL    HW260744   4.085   1.896  10.585 -3.4102 -0.0048 -1.5170
18218SOL     OW60745   2.156   5.092   9.153  0.1521 -0.7023 -0.3253
18218SOL    HW160746   2.131   5.034   9.081  0.4178 -1.1471 -0.0621
18218SOL    HW260747   2.147   5.038   9.232  0.5812 -0.4431 -0.0976
18219SOL     OW60748   2.677   2.127   9.375  0.0792 -0.3406  0.7300
18219SOL    HW160749   2.653   2.172   9.294 -0.4140 -1.9912 -0.0950
18219SOL    HW260750   2.648   2.036   9.361 -1.7642 -0.3128  3.4734
18220SOL     OW60751   9.777   1.073   1.834 -0.4751 -0.1045 -0.5847
18220SOL    HW160752   9.721   1.145   1.804 -1.6284 -0.8184 -0.1931
18220SOL    HW260753   9.721   1.021   1.892  0.6404 -0.7602 -0.0605
18221SOL     OW60754   5.356   1.594   0.564  0.1008 -0.3430  0.5947
18221SOL    HW160755   5.417   1.590   0.491  0.2600 -2.6858  0.7989
18221SOL    HW260756   5.371   1.681   0.602  1.9252 -0.1124 -0.5167
18222SOL     OW60757   7.342   1.762  10.584  0.1064  0.4110 -0.4592
18222SOL    HW160758   7.406   1.720  10.641 -0.8560 -1.8941 -0.9386
18222SOL    HW260759   7.269   1.785  10.642 -0.7910 -1.7624 -0.6010
18223SOL     OW60760   2.085   3.929   3.659 -0.1307  0.2812  0.8017
18223SOL    HW160761   2.014   3.982   3.696  1.0608  1.2050  1.8085
18223SOL    HW260762   2.165   3.965   3.696  0.9637 -0.2087 -0.9536
18224SOL     OW60763   2.571   6.290   8.890  0.0272  0.2917 -0.5312
18224SOL    HW160764   2.649   6.290   8.945  0.0978  0.8932 -0.6215
18224SOL    HW260765   2.499   6.310   8.951 -0.2189 -1.2997 -0.2520
18225SOL     OW60766   4.182   1.290   0.977  0.0187 -0.1006 -0.0179
18225SOL    HW160767   4.180   1.198   1.003 -1.6739  0.4170  1.9269
18225SOL    HW260768   4.093   1.321   0.989  0.2268  1.4850 -1.9958
18226SOL     OW60769   8.869  10.513   3.303 -0.1512  0.1891 -0.4072
18226SOL    HW160770   8.878  10.453   3.377  2.0279  0.6544 -0.2203
18226SOL    HW260771   8.881  10.600   3.341  1.4867  0.4121 -1.3159
18227SOL     OW60772   0.043   8.132   9.619  0.1979 -0.0042  0.1721
18227SOL    HW160773   0.115   8.179   9.580 -0.1481  0.0474 -0.4130
18227SOL    HW260774   0.033   8.170   9.707 -0.8194  1.8361 -0.6906
18228SOL     OW60775  10.885   2.070   0.088  0.2090  0.4122 -0.4135
18228SOL    HW160776  10.801   2.029   0.068  0.4392  0.6677 -2.0974
18228SOL    HW260777  10.882   2.155   0.044  1.0728  0.7253  0.0979
18229SOL     OW60778   4.947   2.042   2.874 -0.0193 -0.2041 -0.5087
18229SOL    HW160779   4.876   2.006   2.926  1.6890 -0.3340  1.9081
18229SOL    HW260780   4.999   1.966   2.848  1.1208  0.0701  0.7957
18230SOL     OW60781   6.851   3.582   2.249 -0.2912 -0.0512  0.0096
18230SOL    HW160782   6.787   3.633   2.199  0.1900 -0.3509 -0.9413
18230SOL    HW260783   6.816   3.493   2.251 -0.8631  0.1853  1.1995
18231SOL     OW60784   8.334   3.892  10.813  0.3044 -0.3764  0.2556
18231SOL    HW160785   8.259   3.894  10.753  0.3308  1.2795  0.2230
18231SOL    HW260786   8.326   3.973  10.863  1.3631 -0.8093  1.1494
18232SOL     OW60787   6.149  10.421  10.092  0.2658  0.4577 -0.0769
18232SOL    HW160788   6.244  10.427  10.105 -0.0471  2.1687  2.0759
18232SOL    HW260789   6.132  10.474  10.014  0.9214  2.0876  0.8236
18233SOL     OW60790   3.192   8.145   9.886  0.3558 -0.4125 -0.4120
18233SOL    HW160791   3.255   8.114   9.951  2.0158  0.9653 -1.2875
18233SOL    HW260792   3.161   8.228   9.920  0.1858 -0.3471 -0.7263
18234SOL     OW60793  10.249  10.725   3.513 -0.5527 -0.0400  0.2799
18234SOL    HW160794  10.200  10.652   3.475  0.2482 -0.8089  0.6616
18234SOL    HW260795  10.187  10.798   3.515 -1.0420 -0.3825 -1.1492
18235SOL     OW60796   9.062   7.554   7.176 -0.2716 -0.1028 -0.2753
18235SOL    HW160797   9.149   7.567   7.137 -0.2567  0.2090 -0.1348
18235SOL    HW260798   9.001   7.589   7.111 -0.2837 -0.1550 -0.2928
18236SOL     OW60799   9.790   9.472   7.495 -0.3958 -0.1503  0.0906
18236SOL    HW160800   9.710   9.484   7.546  0.7096  0.4060  1.7976
18236SOL    HW260801   9.774   9.517   7.413 -0.6660  2.9939  1.7166
18237SOL     OW60802   4.471   3.899  10.580 -0.3410  0.3496  0.0784
18237SOL    HW160803   4.446   3.923  10.669  3.9414 -0.6044  1.7636
18237SOL    HW260804   4.464   3.981  10.530 -1.5953  1.1817  1.5280
18238SOL     OW60805   1.658   6.695   1.592  0.1371  0.5814 -0.2792
18238SOL    HW160806   1.613   6.749   1.527  0.0302 -1.5223 -2.0594
18238SOL    HW260807   1.643   6.605   1.563  1.3007 -0.3893  1.8980
18239SOL     OW60808   0.117   5.524   7.586 -0.5321  0.2142  1.0992
18239SOL    HW160809   0.104   5.430   7.572 -1.7802  0.4849  0.3333
18239SOL    HW260810   0.089   5.565   7.505 -0.5354  1.2954  1.6320
18240SOL     OW60811   2.343   1.116   4.150  0.2081 -0.0651  0.0510
18240SOL    HW160812   2.341   1.088   4.058 -1.2458 -1.6346  0.5018
18240SOL    HW260813   2.319   1.037   4.199  0.8199  0.7812  1.7768
18241SOL     OW60814   8.154   3.521   5.962 -0.2442  0.3744  0.0339
18241SOL    HW160815   8.093   3.482   6.026 -0.9737  0.8118 -0.3777
18241SOL    HW260816   8.118   3.496   5.877  1.8170 -1.9323 -0.2889
18242SOL     OW60817   3.823   0.936   0.385 -0.2426 -0.0614  0.4278
18242SOL    HW160818   3.850   0.939   0.293 -1.2299 -1.7731  0.0253
18242SOL    HW260819   3.781   1.020   0.401 -2.3643 -0.6468 -1.4964
18243SOL     OW60820   4.948   1.365  10.718 -0.0731 -0.1284 -0.3038
18243SOL    HW160821   4.856   1.386  10.700 -0.5070 -0.4395  1.3446
18243SOL    HW260822   4.944   1.291  10.779  1.2500  0.4183  0.4893
18244SOL     OW60823   9.827   1.682   2.780  0.2037  0.4735 -0.0386
18244SOL    HW160824   9.745   1.672   2.829  0.2045  0.3850 -0.0548
18244SOL    HW260825   9.891   1.708   2.846  0.4714 -0.8017  0.2307
18245SOL     OW60826   0.092   0.520   6.721  0.0855  0.0550 -0.6583
18245SOL    HW160827   0.038   0.460   6.669 -1.2870  1.6514 -1.1776
18245SOL    HW260828   0.057   0.607   6.700  1.0111  0.9203  1.2124
18246SOL     OW60829   9.700   0.004  10.333  0.2768 -0.0184 -0.0306
18246SOL    HW160830   9.740  -0.073  10.374  2.4160  1.1885  0.2424
18246SOL    HW260831   9.747   0.014  10.250  0.1348  1.0776  0.0098
18247SOL     OW60832   0.574   7.158   5.418 -0.8309  0.1465  0.3962
18247SOL    HW160833   0.497   7.172   5.363 -1.0972  1.6099  1.0882
18247SOL    HW260834   0.553   7.201   5.500  1.3580  2.0918  0.0467
18248SOL     OW60835   5.880   4.851   1.112 -0.1132 -0.9497 -0.3723
18248SOL    HW160836   5.957   4.815   1.155  0.7161  1.1176  0.0029
18248SOL    HW260837   5.812   4.852   1.179  0.1155 -1.0036 -0.1399
18249SOL     OW60838   3.907   2.700   2.884 -0.0068  0.6684 -0.1006
18249SOL    HW160839   3.827   2.708   2.936 -0.2002 -0.7218 -0.1451
18249SOL    HW260840   3.876   2.684   2.795  0.2160 -2.8596  0.3369
18250SOL     OW60841   5.846   7.219   8.344 -0.2459  0.2264  0.4419
18250SOL    HW160842   5.911   7.283   8.316  0.0094  0.7064  2.0373
18250SOL    HW260843   5.763   7.266   8.341 -0.1548  0.4241  0.9117
18251SOL     OW60844  10.715   9.951   6.927  0.3080  0.2248 -0.3030
18251SOL    HW160845  10.782   9.958   6.996 -1.7781  0.3122  1.8372
18251SOL    HW260846  10.669   9.870   6.947 -0.7875  0.6088 -1.1760
18252SOL     OW60847   4.042   4.043   9.868  0.3306  0.2117  0.5610
18252SOL    HW160848   4.075   4.114   9.812  0.4028 -0.2622 -0.0084
18252SOL    HW260849   3.949   4.064   9.880  0.2336  0.1496 -0.0163
18253SOL     OW60850   6.116   5.919   2.695 -0.1560 -0.5524 -0.1164
18253SOL    HW160851   6.046   5.880   2.747  0.8063 -1.0174  0.8537
18253SOL    HW260852   6.194   5.867   2.715  0.4500 -0.1602 -1.3110
18254SOL     OW60853   5.577   0.264   3.569  0.0510  0.4090 -0.0139
18254SOL    HW160854   5.621   0.302   3.645  0.1243 -0.7428  0.5443
18254SOL    HW260855   5.603   0.172   3.570 -0.2231  0.3068 -1.2420
18255SOL     OW60856   1.466   8.307   9.111  0.3474  0.1477  0.1585
18255SOL    HW160857   1.492   8.218   9.135  1.5948  0.6364  0.7213
18255SOL    HW260858   1.411   8.336   9.184 -0.0202 -0.1390 -0.0021
18256SOL     OW60859   1.185   3.264   7.231  0.1005  0.1985  0.0374
18256SOL    HW160860   1.237   3.246   7.153  1.1574 -1.1549  1.0057
18256SOL    HW260861   1.205   3.355   7.252  0.8399  0.1784 -0.5198
18257SOL     OW60862   0.607   5.637   2.424 -0.0702 -0.4402 -0.1049
18257SOL    HW160863   0.552   5.577   2.473  1.4846 -1.4825  0.4439
18257SOL    HW260864   0.599   5.720   2.471  0.3843 -1.0938  1.1696
18258SOL     OW60865   0.602   5.210   7.810 -0.8217 -0.0724 -0.5176
18258SOL    HW160866   0.547   5.279   7.847  0.9261  1.6229 -0.9483
18258SOL    HW260867   0.640   5.249   7.732 -0.3648 -1.8072 -1.2029
18259SOL     OW60868   4.854   0.822   2.571  0.6288 -0.7575  0.6084
18259SOL    HW160869   4.855   0.913   2.540 -0.1275 -1.1477 -0.6368
18259SOL    HW260870   4.812   0.827   2.657  0.6279  0.0754  0.5720
18260SOL     OW60871   6.665   3.035   0.241 -0.5890 -0.2390 -1.1795
18260SOL    HW160872   6.607   3.002   0.173 -1.9154 -1.4079  0.4419
18260SOL    HW260873   6.753   3.018   0.208 -1.2006 -1.0525 -2.4624
18261SOL     OW60874   1.417   1.438   0.985  0.0834  0.2728  0.0815
18261SOL    HW160875   1.427   1.344   0.977 -0.8309  0.1728 -0.0416
18261SOL    HW260876   1.358   1.450   1.060  2.7700  0.9055  2.2404
18262SOL     OW60877   7.786   9.100   4.508  0.0004 -0.5561  0.3534
18262SOL    HW160878   7.742   9.173   4.463  2.4278  0.4186 -0.5933
18262SOL    HW260879   7.790   9.128   4.600 -1.2532 -0.6514  0.4551
18263SOL     OW60880   9.233   9.587   8.388  0.3462  0.5895 -0.3714
18263SOL    HW160881   9.308   9.632   8.427 -0.1059  0.6073  0.5022
18263SOL    HW260882   9.260   9.496   8.381  0.2476  0.4945  0.4580
18264SOL     OW60883   8.519   7.259   3.972 -0.1239  0.7267  0.3471
18264SOL    HW160884   8.576   7.313   4.027 -0.7239 -1.0324  2.8316
18264SOL    HW260885   8.475   7.322   3.915  3.2879  2.2914 -0.8805
18265SOL     OW60886   2.511   2.436   8.671  0.2211  0.5371 -0.6608
18265SOL    HW160887   2.509   2.376   8.745 -1.6388  0.2928 -0.8827
18265SOL    HW260888   2.522   2.523   8.710  1.5204  0.2291 -0.2697
18266SOL     OW60889   9.561   1.406   9.674  0.1238 -0.2249 -0.2247
18266SOL    HW160890   9.613   1.360   9.609  1.9628 -0.3492  1.2644
18266SOL    HW260891   9.534   1.487   9.630 -0.3874 -1.1921 -1.7738
18267SOL     OW60892   7.872   0.972   7.723 -0.5525 -0.1746 -0.0411
18267SOL    HW160893   7.828   1.015   7.650 -2.6774 -0.5051  0.9545
18267SOL    HW260894   7.864   0.878   7.704 -0.2826 -0.2409  0.1654
18268SOL     OW60895   0.126   9.371   7.902  0.1854 -0.3962 -0.2991
18268SOL    HW160896   0.053   9.433   7.891 -0.9835 -1.5168  0.8480
18268SOL    HW260897   0.129   9.324   7.819 -0.2022 -0.1293 -0.4726
18269SOL     OW60898   2.166   5.437   8.468 -0.5680 -0.2285 -0.2526
18269SOL    HW160899   2.196   5.348   8.450 -0.1808  0.0005 -0.7830
18269SOL    HW260900   2.246   5.489   8.466 -0.9646  0.3870 -1.5944
18270SOL     OW60901   1.259   6.991   3.173  0.3233  0.0405 -0.0006
18270SOL    HW160902   1.267   7.019   3.081  0.2075 -0.0366 -0.0344
18270SOL    HW260903   1.350   6.982   3.203  0.4063  1.8200  0.4385
18271SOL     OW60904   3.777   5.147   4.910 -0.0070 -0.9521  0.3523
18271SOL    HW160905   3.729   5.064   4.914  0.7619 -1.3703  1.3794
18271SOL    HW260906   3.740   5.199   4.981 -1.0949 -0.0399 -0.8279
18272SOL     OW60907  10.739   3.702   1.666 -0.1959 -0.0211  0.3936
18272SOL    HW160908  10.691   3.722   1.746 -0.2432  1.0258  0.1186
18272SOL    HW260909  10.828   3.731   1.684 -0.0676 -0.3520  0.2865
18273SOL     OW60910   1.029   4.223   8.899  0.1670  0.1445 -0.1005
18273SOL    HW160911   0.991   4.136   8.888  1.2278 -0.4160  0.5519
18273SOL    HW260912   1.070   4.242   8.815 -1.6340  0.8339 -0.8783
18274SOL     OW60913   0.093   0.079   5.779  0.3130 -0.5485  0.1048
18274SOL    HW160914   0.048   0.005   5.821  0.9803 -1.6141 -0.9669
18274SOL    HW260915   0.079   0.153   5.838 -1.5586 -1.1933  0.5427
18275SOL     OW60916   0.030   2.076   9.703 -0.2377  0.0108 -0.0918
18275SOL    HW160917  -0.020   2.157   9.712  1.5032  1.0677  0.5624
18275SOL    HW260918   0.073   2.083   9.617 -0.2027 -0.2901 -0.1011
18276SOL     OW60919   4.782   7.934   1.024  0.1346 -0.5851  0.8004
18276SOL    HW160920   4.814   7.956   1.111 -0.0332  0.1711  0.6737
18276SOL    HW260921   4.702   7.883   1.040 -0.5136  0.4890  1.0934
18277SOL     OW60922   8.159   3.961   0.828  0.3232  0.0415 -0.2570
18277SOL    HW160923   8.131   3.942   0.917  1.3952 -0.5920 -0.0318
18277SOL    HW260924   8.155   4.056   0.821  2.5225  0.3351  1.3170
18278SOL     OW60925   2.279   0.776   0.106 -0.6349 -0.2415  0.8207
18278SOL    HW160926   2.315   0.825   0.180 -1.6283  2.0994 -0.1439
18278SOL    HW260927   2.306   0.827   0.029 -1.3749 -1.4546 -0.2748
18279SOL     OW60928   8.408   5.063   6.204  0.2074 -0.0386  0.2079
18279SOL    HW160929   8.359   5.127   6.153 -0.1851 -0.0044  0.6213
18279SOL    HW260930   8.393   4.979   6.159 -0.7362 -0.1279  0.6838
18280SOL     OW60931   5.456   5.552   2.669  0.8130 -0.2043  0.1968
18280SOL    HW160932   5.551   5.538   2.663  0.9856  1.0973 -0.6578
18280SOL    HW260933   5.429   5.569   2.578  0.1426  1.5319  0.6710
18281SOL     OW60934   5.172   6.120   3.707 -0.4154  0.0326  0.1109
18281SOL    HW160935   5.100   6.175   3.676 -2.1982 -2.3449 -0.1868
18281SOL    HW260936   5.223   6.101   3.629  0.5462  1.6186  0.3021
18282SOL     OW60937   4.833   1.248   5.922 -0.1255  0.1466  0.1268
18282SOL    HW160938   4.800   1.332   5.890 -0.3631 -0.0208 -0.0703
18282SOL    HW260939   4.896   1.220   5.855  0.2945  0.3817  0.4153
18283SOL     OW60940   2.308   5.116   1.536 -0.4948  0.0426  0.2182
18283SOL    HW160941   2.341   5.192   1.489 -0.2936  0.4491  0.9972
18283SOL    HW260942   2.219   5.103   1.502  0.7831 -1.7860 -2.7756
18284SOL     OW60943   5.283   7.568   4.803  0.0931 -0.3579  0.0460
18284SOL    HW160944   5.330   7.625   4.742  0.6091  0.3548  1.0638
18284SOL    HW260945   5.299   7.607   4.889 -2.8403  0.2786  0.4312
18285SOL     OW60946   9.197   7.248  10.611 -0.0775  0.2674 -0.3039
18285SOL    HW160947   9.162   7.158  10.607  2.4641 -0.8910  1.2804
18285SOL    HW260948   9.171   7.280  10.697 -0.4257  0.8539 -0.6167
18286SOL     OW60949   5.568   4.924   3.654 -0.8427  0.3118  0.3109
18286SOL    HW160950   5.565   4.893   3.563 -0.1020 -0.8681  0.6618
18286SOL    HW260951   5.478   4.920   3.684 -1.3378  2.1096 -0.7976
18287SOL     OW60952   2.282   3.728   6.883 -0.0788 -0.6182  0.2076
18287SOL    HW160953   2.269   3.735   6.977  1.0127  1.0163  0.2838
18287SOL    HW260954   2.193   3.721   6.847 -0.7560  1.7004  1.2012
18288SOL     OW60955   1.643   0.591   0.287  0.0411 -0.0160 -0.3360
18288SOL    HW160956   1.554   0.606   0.321  0.1300 -1.2876  0.5317
18288SOL    HW260957   1.687   0.542   0.357  1.0633 -0.4240 -1.2465
18289SOL     OW60958   3.837   3.463  10.725  0.0804  0.8755 -0.2818
18289SOL    HW160959   3.769   3.530  10.712  0.1058  0.8635 -0.4769
18289SOL    HW260960   3.789   3.380  10.719 -0.2985  0.8869  1.8488
18290SOL     OW60961   7.766   7.530   1.025 -0.4718  0.7589 -0.1541
18290SOL    HW160962   7.850   7.483   1.026 -0.6197  0.4512  2.0729
18290SOL    HW260963   7.755   7.556   0.934  0.8625 -1.3066 -0.9949
18291SOL     OW60964   0.745   1.679   5.448  0.2819 -0.3447 -0.0830
18291SOL    HW160965   0.793   1.693   5.530  0.4689 -0.3861 -0.1837
18291SOL    HW260966   0.707   1.592   5.456  0.1147 -0.2583  0.0521
18292SOL     OW60967  10.086   7.925   7.282 -0.5198  0.5888 -0.3805
18292SOL    HW160968  10.123   7.980   7.351 -0.6441 -1.1639  1.1588
18292SOL    HW260969  10.030   7.863   7.328 -0.4310 -0.7926 -2.0453
18293SOL     OW60970   6.649   1.088   1.517  0.0602  0.1338 -0.7275
18293SOL    HW160971   6.598   1.169   1.524  0.4312  0.4672 -1.7876
18293SOL    HW260972   6.719   1.099   1.582  0.6483  1.0732 -1.4957
18294SOL     OW60973   3.549   3.414  10.920  0.2020  0.5273 -0.2653
18294SOL    HW160974   3.479   3.479  10.913 -0.6962 -0.5265 -1.6586
18294SOL    HW260975   3.627   3.465  10.942 -0.6350  1.9668 -0.4964
18295SOL     OW60976   8.632  10.559   2.481 -0.2126 -0.2037 -0.4506
18295SOL    HW160977   8.631  10.598   2.568 -0.7173  0.1991 -0.6373
18295SOL    HW260978   8.687  10.481   2.491 -1.0629 -0.7017  0.4529
18296SOL     OW60979   1.279  10.732   7.461  0.4629 -0.7157 -0.8730
18296SOL    HW160980   1.253  10.757   7.550 -0.7444 -1.7396 -0.9089
18296SOL    HW260981   1.346  10.665   7.474  0.7685 -0.3845 -0.7389
18297SOL     OW60982   6.202   9.074   2.167 -0.2570 -0.2068  0.3633
18297SOL    HW160983   6.108   9.084   2.150 -0.1433 -0.7434 -0.7035
18297SOL    HW260984   6.218   9.127   2.245 -1.0883  1.4980 -0.5639
18298SOL     OW60985   5.289   0.110   5.280  0.1370 -0.0774 -0.0232
18298SOL    HW160986   5.195   0.127   5.269  0.3490  0.7318 -0.7273
18298SOL    HW260987   5.330   0.196   5.268  0.9638 -0.4041  0.3927
18299SOL     OW60988   4.656   4.584   7.111 -0.0660  0.7262 -0.1483
18299SOL    HW160989   4.724   4.551   7.169 -1.2881 -0.1371  0.8594
18299SOL    HW260990   4.606   4.645   7.165 -0.3975  0.9463 -0.6960
18300SOL     OW60991  10.835   9.115   8.060  0.5608  0.5680  0.6376
18300SOL    HW160992  10.749   9.080   8.034  0.6782  0.4801  0.3606
18300SOL    HW260993  10.897   9.060   8.013  0.7677  0.6767  0.7854
18301SOL     OW60994   8.517   4.245   6.891  0.2688  0.1134 -0.3150
18301SOL    HW160995   8.424   4.227   6.883  0.4905 -0.9931 -0.7018
18301SOL    HW260996   8.526   4.298   6.970 -0.8807  1.9404 -1.3350
18302SOL     OW60997   8.071   9.697   5.955  0.0257 -0.4926 -0.0067
18302SOL    HW160998   7.997   9.653   5.997 -0.0335 -1.1139 -0.7564
18302SOL    HW260999   8.108   9.632   5.895 -1.5732  1.1837 -3.0218
18303SOL     OW61000   2.291   7.159   7.925 -0.4333 -0.5693 -1.0256
18303SOL    HW161001   2.382   7.131   7.931  0.6830  2.7635 -0.6966
18303SOL    HW261002   2.264   7.133   7.837  1.1303 -0.8064 -1.4733
18304SOL     OW61003   4.329   2.100   8.747 -0.3815 -0.2145 -0.4870
18304SOL    HW161004   4.385   2.163   8.702 -1.6758  1.2961 -0.0678
18304SOL    HW261005   4.255   2.087   8.688  0.1293 -1.8517 -0.8392
18305SOL     OW61006   5.878   3.870   8.990 -0.3108  0.8187 -0.2650
18305SOL    HW161007   5.954   3.823   8.956 -1.4902 -0.0883 -1.7836
18305SOL    HW261008   5.912   3.920   9.063  2.3734  2.6191 -2.5193
18306SOL     OW61009   1.590   8.870   5.830  0.1307 -0.2486 -0.4629
18306SOL    HW161010   1.580   8.949   5.883 -1.7168 -0.7887  0.0897
18306SOL    HW261011   1.651   8.816   5.880  0.4302  0.3165 -0.2107
18307SOL     OW61012   8.218   6.630   7.887  0.6979  0.1239 -0.0186
18307SOL    HW161013   8.297   6.578   7.901  0.0086 -0.6581  1.1321
18307SOL    HW261014   8.245   6.698   7.825  2.3392  0.0357  0.5295
18308SOL     OW61015   7.970   1.084   0.946  0.0190  0.1062  0.4271
18308SOL    HW161016   7.934   1.088   1.035 -0.3330  1.3956  0.2347
18308SOL    HW261017   8.061   1.057   0.959 -0.7167 -2.3943  0.9637
18309SOL     OW61018  10.064   0.614   9.371 -0.2493 -0.4545 -0.0933
18309SOL    HW161019  10.009   0.540   9.395  0.6415 -0.7173  1.2339
18309SOL    HW261020  10.004   0.689   9.368 -1.0721 -1.1255 -0.9890
18310SOL     OW61021   3.517   5.980   7.042 -0.9196  0.4622 -0.4299
18310SOL    HW161022   3.454   5.920   7.082 -0.3193 -0.0485 -0.2235
18310SOL    HW261023   3.527   5.948   6.952  0.9715 -1.1071  0.2497
18311SOL     OW61024  10.886   6.845  10.577 -0.0754  0.5314  0.2054
18311SOL    HW161025  10.916   6.755  10.565 -0.2398 -0.1398  3.6931
18311SOL    HW261026  10.955   6.899  10.538 -0.2887 -0.9919 -2.5805
18312SOL     OW61027   9.554   5.286   9.946  0.4491  0.1097 -0.0874
18312SOL    HW161028   9.574   5.336   9.867  0.9567  0.2214  0.1124
18312SOL    HW261029   9.514   5.349  10.005 -2.8872 -0.5726 -1.3588
18313SOL     OW61030   2.647   8.870   9.022  0.0325  0.4073 -0.2529
18313SOL    HW161031   2.694   8.787   9.017  0.5643  0.5391  1.7690
18313SOL    HW261032   2.596   8.864   9.102  0.1372  2.0656 -0.0338
18314SOL     OW61033  10.023   2.065   9.731  0.1083 -0.3410  0.0702
18314SOL    HW161034   9.982   1.982   9.756  0.2019 -0.6799 -0.8665
18314SOL    HW261035  10.033   2.059   9.636  0.9753  0.3546  0.1054
18315SOL     OW61036  10.429   9.752   1.914  0.1016 -0.2006  0.6790
18315SOL    HW161037  10.360   9.694   1.948  0.1359  0.4790  1.9554
18315SOL    HW261038  10.508   9.698   1.916 -0.3231 -0.9223 -0.6091
18316SOL     OW61039   0.549   0.290   5.094  0.4988 -0.1267 -0.3441
18316SOL    HW161040   0.471   0.294   5.040  1.1527  0.3644 -1.2862
18316SOL    HW261041   0.533   0.352   5.165 -0.1519 -0.3836 -0.2620
18317SOL     OW61042   9.501   6.041   5.720  0.0356  0.3187 -0.2172
18317SOL    HW161043   9.554   6.073   5.793  0.1216 -0.5170  0.1046
18317SOL    HW261044   9.481   6.119   5.668  0.9819  0.7501  0.0446
18318SOL     OW61045   6.628   0.380   4.740 -0.7031  0.0864  0.5898
18318SOL    HW161046   6.611   0.319   4.811 -2.0914  0.3400  0.5042
18318SOL    HW261047   6.617   0.327   4.660  0.0005  0.0089  0.5337
18319SOL     OW61048   7.203   1.068   2.940 -0.4158  0.3015  0.2181
18319SOL    HW161049   7.157   1.051   3.023 -0.6949  1.3868  0.3062
18319SOL    HW261050   7.273   1.129   2.964 -0.5809  0.7250 -0.3609
18320SOL     OW61051   1.765   6.940   0.227  0.0875  0.2539  0.3104
18320SOL    HW161052   1.750   6.898   0.142 -1.9781  0.0280  0.7393
18320SOL    HW261053   1.835   6.888   0.266 -0.6540 -1.2490 -0.2441
18321SOL     OW61054   4.630   9.711   3.587 -0.3359  0.4496 -0.1825
18321SOL    HW161055   4.706   9.708   3.529 -0.9691  0.5993 -1.0389
18321SOL    HW261056   4.556   9.724   3.529 -1.2134 -1.2645  0.4731
18322SOL     OW61057   6.459   8.704   3.683  0.3580  0.3127  0.1849
18322SOL    HW161058   6.489   8.636   3.744 -0.9881 -0.4463  0.0493
18322SOL    HW261059   6.365   8.714   3.702 -0.3371 -0.5974 -2.2867
18323SOL     OW61060   1.815   6.362   8.029  0.0941  0.0611 -0.1294
18323SOL    HW161061   1.769   6.446   8.038 -0.3537  0.2039 -2.9555
18323SOL    HW261062   1.755   6.298   8.067  0.0827  0.9003  1.3206
18324SOL     OW61063   6.695   3.460   1.978 -0.2692 -0.5229 -0.3757
18324SOL    HW161064   6.649   3.376   1.973 -0.0947 -0.6866  0.5187
18324SOL    HW261065   6.717   3.481   1.888  0.5171 -1.9046 -0.5303
18325SOL     OW61066   1.715   2.936   2.392 -0.0341 -0.2618  0.4102
18325SOL    HW161067   1.722   3.030   2.376 -0.5046 -0.3060 -0.1105
18325SOL    HW261068   1.639   2.909   2.340 -1.2483 -0.5340  2.2344
18326SOL     OW61069   2.182  10.890   4.581  0.1316 -0.1000 -0.2234
18326SOL    HW161070   2.172  10.819   4.518  0.5782 -0.0741 -0.3237
18326SOL    HW261071   2.238  10.855   4.649 -0.7409 -0.2921  0.4201
18327SOL     OW61072   4.630   1.177   2.154  0.4934  0.1484 -0.2125
18327SOL    HW161073   4.686   1.255   2.150  0.3934  0.4258  2.0815
18327SOL    HW261074   4.558   1.203   2.212  0.3496 -1.5586  0.4308
18328SOL     OW61075   6.940   5.475   4.714  0.3185 -0.0141 -0.7895
18328SOL    HW161076   6.962   5.566   4.691  1.5413  0.3712  1.5825
18328SOL    HW261077   7.024   5.437   4.741 -0.3555 -1.5545 -0.8013
18329SOL     OW61078   2.945   4.302   0.900  0.6616 -0.0411  0.1248
18329SOL    HW161079   3.025   4.355   0.902  0.0338  0.9698 -0.5079
18329SOL    HW261080   2.947   4.258   0.815 -0.2733  1.3447 -0.6509
18330SOL     OW61081   9.648   9.979   6.682 -0.6435 -0.1304 -0.2743
18330SOL    HW161082   9.704  10.024   6.618  1.3483 -0.7137  0.9532
18330SOL    HW261083   9.630  10.046   6.749 -2.0240  0.2426 -0.9845
18331SOL     OW61084   0.739   1.715   2.896  0.1633  0.2079 -0.3196
18331SOL    HW161085   0.795   1.700   2.820 -0.2992 -3.4472 -0.1210
18331SOL    HW261086   0.649   1.713   2.862 -0.0153 -0.3916  0.1573
18332SOL     OW61087   4.597   0.754   2.980 -0.5893 -0.3796 -0.0482
18332SOL    HW161088   4.515   0.726   2.939 -0.8182  0.8319 -0.4462
18332SOL    HW261089   4.666   0.710   2.930 -0.9815 -2.3998  1.0491
18333SOL     OW61090   5.288   7.028   4.049 -0.4088 -0.5809  0.1357
18333SOL    HW161091   5.290   7.002   4.141 -0.6447  0.4723  0.4533
18333SOL    HW261092   5.247   6.954   4.004 -0.9438 -0.8147  0.9831
18334SOL     OW61093   9.998   7.218   6.111 -0.5423 -0.0710  0.7311
18334SOL    HW161094  10.001   7.207   6.206 -0.0840 -1.0646  0.6139
18334SOL    HW261095  10.039   7.304   6.096 -1.3156  0.4510  1.4679
18335SOL     OW61096   7.759   9.062   2.981  0.5129  0.0417  0.1384
18335SOL    HW161097   7.787   8.971   2.990  1.2483  0.1983 -0.4796
18335SOL    HW261098   7.752   9.094   3.071 -1.4643 -1.1113  0.4417
18336SOL     OW61099   9.571   6.462  10.765  0.0514  0.5131 -0.1802
18336SOL    HW161100   9.483   6.494  10.785 -0.1645 -0.0859 -0.1289
18336SOL    HW261101   9.584   6.484  10.673 -0.5523 -0.2582 -0.4638
18337SOL     OW61102   2.371   0.920   0.347 -0.3111 -0.5438 -0.1915
18337SOL    HW161103   2.436   0.989   0.362 -0.0618 -0.8976  0.3560
18337SOL    HW261104   2.322   0.915   0.429 -2.2786  0.9982 -1.1888
18338SOL     OW61105   7.613   1.802   6.242  0.5748  0.5021  0.7674
18338SOL    HW161106   7.634   1.737   6.310 -2.6635  0.1127  1.5465
18338SOL    HW261107   7.681   1.789   6.176  1.0494 -2.5199  1.6845
18339SOL     OW61108   9.243   1.987   8.011 -0.1016 -0.2782 -0.1680
18339SOL    HW161109   9.179   1.921   8.037 -0.6422  0.2579 -0.1247
18339SOL    HW261110   9.191   2.064   7.988  0.4434 -0.2204 -1.3165
18340SOL     OW61111   6.549   6.951  10.021  0.3534 -0.3869  0.0402
18340SOL    HW161112   6.639   6.920  10.014  0.5245  0.4415 -3.3200
18340SOL    HW261113   6.498   6.889   9.968 -0.4356  0.9882 -0.8960
18341SOL     OW61114   5.384   3.956   3.835  0.1527  0.3954 -0.2434
18341SOL    HW161115   5.390   4.039   3.883  0.9106  0.4326 -0.3871
18341SOL    HW261116   5.409   3.889   3.898  0.5082  0.3799 -0.3954
18342SOL     OW61117   5.089   7.794   8.038 -0.5426 -0.1676 -0.2735
18342SOL    HW161118   5.025   7.724   8.046 -0.3914 -0.2993 -0.2221
18342SOL    HW261119   5.045   7.861   7.986  0.2136 -1.3800 -2.6396
18343SOL     OW61120   7.999   9.787   0.725 -0.0389  0.8641 -0.0175
18343SOL    HW161121   7.944   9.822   0.795 -1.5063  0.2079 -0.8042
18343SOL    HW261122   7.945   9.721   0.682  1.6884 -0.4735 -0.2740
18344SOL     OW61123   6.313   3.276   6.470  0.3989  0.1716  0.5157
18344SOL    HW161124   6.254   3.209   6.508  1.4108 -0.7481  0.5075
18344SOL    HW261125   6.310   3.260   6.376  0.9706 -0.1356  0.5498
18345SOL     OW61126   4.789   7.155   2.907  0.1751 -0.2636  0.1029
18345SOL    HW161127   4.811   7.079   2.961  1.8549 -0.6189 -1.0045
18345SOL    HW261128   4.694   7.161   2.912  0.1467 -1.3502  1.6487
18346SOL     OW61129   9.015   2.891   5.088 -0.0911 -0.5767  0.6020
18346SOL    HW161130   9.008   2.803   5.051 -0.4129 -0.6903  0.9367
18346SOL    HW261131   9.090   2.929   5.043 -0.9927 -0.4033 -0.8062
18347SOL     OW61132  10.011   0.368   2.288  0.4265 -0.3421 -0.3888
18347SOL    HW161133   9.936   0.357   2.230 -1.4790 -0.1203  1.8582
18347SOL    HW261134  10.015   0.286   2.338  0.6443  0.2553  0.6045
18348SOL     OW61135   4.132   0.813   2.026 -0.3576 -0.0413  0.6221
18348SOL    HW161136   4.077   0.828   2.103 -0.0344  1.3793  0.6010
18348SOL    HW261137   4.077   0.760   1.968 -1.4259  0.6573  0.9414
18349SOL     OW61138   3.883   0.532   8.993 -0.0691 -0.7388 -0.1125
18349SOL    HW161139   3.865   0.570   9.079  1.0745 -1.2509  0.3819
18349SOL    HW261140   3.797   0.523   8.952 -0.4160  3.5980 -0.8528
18350SOL     OW61141   3.952   0.872   7.064  0.1293 -0.0311 -0.0701
18350SOL    HW161142   3.872   0.820   7.071  1.2880 -1.8509  0.0385
18350SOL    HW261143   3.947   0.909   6.975 -1.8151  1.6625  0.6472
18351SOL     OW61144   5.157   7.570   2.405  0.1072 -0.4538  0.1836
18351SOL    HW161145   5.225   7.637   2.391  0.6144 -0.7271  1.3033
18351SOL    HW261146   5.151   7.525   2.320  1.5108 -0.5938  0.1347
18352SOL     OW61147   1.409   7.357   0.882  0.2364  0.1873  0.0407
18352SOL    HW161148   1.423   7.326   0.792  0.2851  1.7979 -0.5480
18352SOL    HW261149   1.332   7.413   0.876 -0.2488 -0.3339  1.1888
18353SOL     OW61150   5.591   3.532   5.978  0.4794 -0.1283 -0.6490
18353SOL    HW161151   5.665   3.491   5.933 -0.1487 -0.9359 -0.9827
18353SOL    HW261152   5.514   3.488   5.942 -0.0689 -0.6893  1.0623
18354SOL     OW61153   6.048   9.496   7.747  0.2301 -0.5025  0.4451
18354SOL    HW161154   6.119   9.558   7.758  0.4596 -0.3649 -1.4506
18354SOL    HW261155   6.052   9.441   7.825  0.6200  1.2312  1.7106
18355SOL     OW61156   9.215  10.649   9.923  0.2560 -0.2625  0.2584
18355SOL    HW161157   9.301  10.688   9.906  0.1157  0.0695  0.3134
18355SOL    HW261158   9.154  10.722   9.921  0.0942 -0.3623  1.1802
18356SOL     OW61159   3.229   9.945   0.393 -0.2592 -0.2282 -0.2480
18356SOL    HW161160   3.237   9.932   0.298  0.5834 -0.1555 -0.1963
18356SOL    HW261161   3.161  10.012   0.403 -0.3923 -0.2796 -0.7996
18357SOL     OW61162   5.256   9.904   2.337  0.1017 -0.2959 -0.6031
18357SOL    HW161163   5.261   9.993   2.371 -0.3274 -0.3041 -0.5143
18357SOL    HW261164   5.342   9.889   2.297  1.1524 -0.7531  1.6474
18358SOL     OW61165   2.582  10.211   6.056 -0.1264 -0.1061  0.3596
18358SOL    HW161166   2.599  10.117   6.055  0.9276  0.0284 -2.0140
18358SOL    HW261167   2.669  10.251   6.052 -0.5396  0.7994 -3.0152
18359SOL     OW61168   3.677   1.296   4.029  0.1776 -0.3167  0.0111
18359SOL    HW161169   3.702   1.220   4.081 -0.4715 -0.9699 -0.6077
18359SOL    HW261170   3.586   1.313   4.054 -0.6238 -1.5089 -1.8945
18360SOL     OW61171   5.501   7.660  10.149  0.6969 -0.3606 -0.5024
18360SOL    HW161172   5.506   7.748  10.185  1.8797  0.1708 -1.8600
18360SOL    HW261173   5.519   7.602  10.223 -0.8585  0.4663  0.5716
18361SOL     OW61174   7.373   3.875   0.303  0.1030 -0.2169  0.5397
18361SOL    HW161175   7.283   3.856   0.331  0.6190 -2.1803  1.0083
18361SOL    HW261176   7.372   3.857   0.209 -0.1328  0.4129  0.4136
18362SOL     OW61177   7.628   5.465   1.418 -0.1325  0.6579  0.8458
18362SOL    HW161178   7.600   5.489   1.329  1.7464 -0.9754 -0.2613
18362SOL    HW261179   7.618   5.546   1.468 -0.1000  1.9740 -1.1236
18363SOL     OW61180   8.357   0.258   6.081 -0.4607  0.2750  0.2003
18363SOL    HW161181   8.276   0.283   6.035 -0.0307 -0.0450 -0.7611
18363SOL    HW261182   8.424   0.315   6.043 -0.1720  0.3081  0.7531
18364SOL     OW61183  10.871   0.751   7.132 -0.2715 -0.0831 -0.0149
18364SOL    HW161184  10.966   0.739   7.133 -0.1388  0.5043 -1.6152
18364SOL    HW261185  10.856   0.828   7.187  0.3221  0.4958 -0.6371
18365SOL     OW61186   1.944   5.441   1.257 -1.1627 -0.3400 -0.1867
18365SOL    HW161187   1.972   5.471   1.343  2.3511 -0.1984 -1.2121
18365SOL    HW261188   1.889   5.512   1.224 -1.6830  0.0778  1.4775
18366SOL     OW61189   1.008   7.243   9.409  0.3672  0.5352  0.1804
18366SOL    HW161190   0.979   7.231   9.318 -0.7784 -0.1942  0.6189
18366SOL    HW261191   0.950   7.312   9.443 -1.1747 -1.1447  1.1596
18367SOL     OW61192   9.601   4.920   8.200 -0.3916  0.2934  0.1486
18367SOL    HW161193   9.617   4.988   8.135  1.1818 -1.2633 -1.1972
18367SOL    HW261194   9.529   4.868   8.163  0.6071 -0.6852 -0.4950
18368SOL     OW61195   4.332   2.811   7.239 -0.3498 -0.7340 -0.3223
18368SOL    HW161196   4.330   2.813   7.334 -0.1935  0.5269 -0.3240
18368SOL    HW261197   4.335   2.718   7.216 -2.2864 -1.1435  0.8437
18369SOL     OW61198   6.899   8.900   0.642 -0.3658  0.0767  0.0864
18369SOL    HW161199   6.861   8.814   0.626 -0.9495  0.3734 -0.1499
18369SOL    HW261200   6.857   8.930   0.722  1.5159 -0.8094  1.5033
18370SOL     OW61201   2.818   2.318   1.701 -0.0780 -0.0484  0.2961
18370SOL    HW161202   2.906   2.307   1.736  0.3360  0.3232 -0.5924
18370SOL    HW261203   2.786   2.398   1.741 -0.3436 -0.6294  1.2685
18371SOL     OW61204   2.277   2.034   9.621  0.3558 -0.0380  0.3510
18371SOL    HW161205   2.252   1.944   9.640  0.4390 -0.2689 -0.6083
18371SOL    HW261206   2.333   2.028   9.543 -0.6782  0.9532 -0.4987
18372SOL     OW61207   1.175   3.398   1.733 -0.3208 -0.5218  0.2824
18372SOL    HW161208   1.269   3.410   1.721 -0.4431 -0.7165 -1.0366
18372SOL    HW261209   1.166   3.305   1.756 -0.2405 -0.6678 -0.2663
18373SOL     OW61210   9.020   6.720   0.783  0.1679 -0.0983 -0.3860
18373SOL    HW161211   8.969   6.801   0.775  0.3928  0.1271  0.3835
18373SOL    HW261212   8.968   6.664   0.841  0.4028 -0.1868 -0.2588
18374SOL     OW61213   3.987   2.335   2.254  0.1271 -1.0341 -0.4658
18374SOL    HW161214   3.979   2.396   2.181  1.4098 -0.6138 -0.2740
18374SOL    HW261215   4.078   2.305   2.251  0.9364  0.7920  2.3592
18375SOL     OW61216   7.875   9.064   2.254  0.0591  0.0238 -0.5453
18375SOL    HW161217   7.895   8.978   2.292 -1.8811  0.3443  1.3908
18375SOL    HW261218   7.906   9.058   2.163  1.2785 -2.1934 -0.0469
18376SOL     OW61219  10.751   9.439   7.722  0.1672  0.6160 -0.5048
18376SOL    HW161220  10.766   9.508   7.658  1.6619  0.5100 -0.3170
18376SOL    HW261221  10.799   9.364   7.687  0.1008  0.2404  0.1981
18377SOL     OW61222   4.142   3.416   9.227 -0.4174 -0.0613 -0.8182
18377SOL    HW161223   4.143   3.326   9.194 -0.3212  0.0006 -0.9857
18377SOL    HW261224   4.233   3.444   9.223 -0.3793 -0.1192 -0.3087
18378SOL     OW61225   2.171   9.819   8.842  0.4053  0.4594  0.3764
18378SOL    HW161226   2.175   9.736   8.890  1.8817  0.2398 -0.0677
18378SOL    HW261227   2.177   9.793   8.750  2.5849  1.1138  0.2904
18379SOL     OW61228   7.597   6.014   6.638 -0.0013 -0.0296 -0.1029
18379SOL    HW161229   7.624   6.040   6.726  1.1482  3.7303 -1.3916
18379SOL    HW261230   7.505   6.041   6.632 -0.7261 -2.1679  0.5082
18380SOL     OW61231   7.949   9.804   4.224 -0.1708  0.4061  0.3923
18380SOL    HW161232   7.879   9.761   4.174  0.4287 -1.3241  0.9730
18380SOL    HW261233   7.905   9.874   4.271 -1.3446 -0.0479  0.0173
18381SOL     OW61234   9.214   4.355   1.246  0.1021  0.2324 -0.1294
18381SOL    HW161235   9.130   4.398   1.226 -0.6598 -0.6047  1.0965
18381SOL    HW261236   9.229   4.375   1.339  1.0950  0.0932 -0.2568
18382SOL     OW61237   1.194   1.906   2.902 -0.2346 -0.4857  0.1076
18382SOL    HW161238   1.148   1.859   2.971  1.2708  0.4402  1.8316
18382SOL    HW261239   1.144   1.887   2.823 -1.7597 -1.9743  1.3442
18383SOL     OW61240   1.889   9.546   1.058  0.0916 -0.2740  0.0771
18383SOL    HW161241   1.838   9.482   1.009 -1.9687 -0.2546  2.0201
18383SOL    HW261242   1.931   9.600   0.991 -2.1258 -0.5748 -1.6801
18384SOL     OW61243   2.689   3.330   9.571 -0.2819  0.1540 -0.3631
18384SOL    HW161244   2.670   3.343   9.478  1.0035 -0.5929 -0.7637
18384SOL    HW261245   2.753   3.258   9.572  1.6065  1.7329  0.9132
18385SOL     OW61246   9.167   7.207   4.266 -0.5229 -0.7142 -0.8637
18385SOL    HW161247   9.113   7.197   4.344 -1.0630  0.2054 -1.1109
18385SOL    HW261248   9.124   7.275   4.215  1.5044  0.9148 -0.5054
18386SOL     OW61249   2.540   1.280   3.050  0.1058  0.3225  0.2900
18386SOL    HW161250   2.462   1.296   3.104 -0.3817  0.0873 -0.3244
18386SOL    HW261251   2.612   1.278   3.112 -0.2708  1.3650  0.7860
18387SOL     OW61252   1.330   2.260   1.527  0.6762  0.0695 -0.5622
18387SOL    HW161253   1.385   2.278   1.451 -1.0042  1.2020 -1.5808
18387SOL    HW261254   1.252   2.217   1.490  0.1099  0.0564  0.6112
18388SOL     OW61255   2.336   5.973   2.109 -0.0053 -0.1402  0.3135
18388SOL    HW161256   2.271   5.932   2.166  0.4518 -0.6967  0.4440
18388SOL    HW261257   2.394   5.902   2.083  0.1421  0.2184 -0.3719
18389SOL     OW61258   2.628  10.867   8.460 -0.5926  0.3026  0.3640
18389SOL    HW161259   2.710  10.916   8.457 -1.1745  1.2626 -0.6228
18389SOL    HW261260   2.653  10.780   8.490  0.7474  0.6320  0.2702
18390SOL     OW61261   2.050   9.255   3.464 -0.8151 -0.2218  0.7236
18390SOL    HW161262   2.026   9.306   3.388  0.3772  0.0396  0.4983
18390SOL    HW261263   2.017   9.167   3.446  0.4151 -0.4509 -0.6348
18391SOL     OW61264   1.890   8.218   8.098  0.8200  0.0127 -0.1942
18391SOL    HW161265   1.830   8.201   8.026  1.1199 -0.1310 -0.4120
18391SOL    HW261266   1.977   8.212   8.059  1.0200 -0.9420  0.3514
18392SOL     OW61267   5.201   7.021   9.130 -0.3058 -0.0405  0.1830
18392SOL    HW161268   5.186   7.106   9.088  0.2477 -0.0009  0.0550
18392SOL    HW261269   5.259   7.040   9.203 -0.9992 -0.1630  0.7806
18393SOL     OW61270   8.578   7.009   7.100  0.0828  0.5465  0.4383
18393SOL    HW161271   8.589   7.101   7.122  0.8014  0.4261  0.6090
18393SOL    HW261272   8.488   7.002   7.068 -0.6552  0.9194  2.3406
18394SOL     OW61273   8.218   6.587   4.405 -0.5695  0.1742 -0.4945
18394SOL    HW161274   8.296   6.643   4.398 -0.4649  0.3947  1.7920
18394SOL    HW261275   8.251   6.499   4.390  0.1130  0.2786  0.3360
18395SOL     OW61276   7.780   3.695   2.100  0.1666  0.0440  0.4507
18395SOL    HW161277   7.837   3.762   2.063 -0.8936  1.6513  1.5837
18395SOL    HW261278   7.738   3.738   2.174  0.2964 -2.2532  1.9388
18396SOL     OW61279   3.092  10.717   5.614  0.8071  0.1334 -0.0002
18396SOL    HW161280   3.045  10.679   5.540 -0.5363 -0.9911  1.3555
18396SOL    HW261281   3.049  10.801   5.629 -0.5553 -0.6945  0.9546
18397SOL     OW61282   7.104   4.073   0.722  0.0841  0.0588  0.0673
18397SOL    HW161283   7.036   4.006   0.719 -0.2152  0.3369 -3.3438
18397SOL    HW261284   7.059   4.153   0.751 -0.2176 -0.5141  1.2230
18398SOL     OW61285   1.840  10.400   4.053  0.0556 -0.1279 -0.1481
18398SOL    HW161286   1.886  10.343   3.990  0.7987  1.3596 -0.9989
18398SOL    HW261287   1.762  10.349   4.078  0.4243 -1.3095 -1.2680
18399SOL     OW61288   8.597   6.102   4.643 -0.2328  0.3027  0.4613
18399SOL    HW161289   8.622   6.172   4.703  0.3272 -0.4359  1.1198
18399SOL    HW261290   8.633   6.128   4.558  0.3988  0.5755  0.8050
18400SOL     OW61291   2.654   7.696   7.508  0.0077 -0.2666 -0.9750
18400SOL    HW161292   2.710   7.620   7.492 -0.6177 -0.5840 -1.7418
18400SOL    HW261293   2.632   7.690   7.601 -0.4821 -1.3669 -1.1404
18401SOL     OW61294   1.479   1.076   6.715  0.5810 -0.0323  0.4058
18401SOL    HW161295   1.425   1.052   6.640  2.1329 -1.9743 -0.1723
18401SOL    HW261296   1.416   1.101   6.783 -0.8550  1.7254 -1.4648
18402SOL     OW61297   1.037   4.947  10.839 -0.2559  0.0979 -0.3557
18402SOL    HW161298   0.950   4.914  10.860  0.4835 -1.7126  0.1237
18402SOL    HW261299   1.060   5.005  10.911 -1.2949  1.1274 -0.8211
18403SOL     OW61300   6.503   3.592   4.856  0.2889 -0.1502  0.1496
18403SOL    HW161301   6.500   3.631   4.768 -0.6783 -0.0170  0.2225
18403SOL    HW261302   6.511   3.667   4.915 -2.1658  0.0605  0.3236
18404SOL     OW61303   1.762   7.458   9.453  0.1648 -0.1798 -0.1588
18404SOL    HW161304   1.827   7.510   9.499 -1.2776  1.3580  0.2605
18404SOL    HW261305   1.679   7.482   9.495 -0.7209 -1.8239 -0.8772
18405SOL     OW61306   6.583   4.080   5.713 -0.0664 -0.1797  0.2144
18405SOL    HW161307   6.526   4.003   5.710 -0.4831  0.1435 -0.3325
18405SOL    HW261308   6.525   4.154   5.695  0.6834  0.0732 -1.3710
18406SOL     OW61309   6.643   4.759   8.203  0.0106  0.2596  1.0336
18406SOL    HW161310   6.608   4.672   8.184  0.0772  0.2441  0.9802
18406SOL    HW261311   6.688   4.750   8.287 -0.7791  0.4667  1.4866
18407SOL     OW61312   6.377   3.002   1.718  0.0743 -0.4396  0.3219
18407SOL    HW161313   6.285   2.988   1.695  0.2535 -0.3204 -0.4910
18407SOL    HW261314   6.426   2.956   1.650  0.6228 -1.0817  1.1273
18408SOL     OW61315   7.361   6.414   8.486  0.1902  0.2185  0.3231
18408SOL    HW161316   7.280   6.363   8.482 -0.0890  0.5133  1.7061
18408SOL    HW261317   7.333   6.505   8.478  0.5062  0.2723 -0.2693
18409SOL     OW61318   2.697   7.116   5.124 -0.0066 -0.1827  0.1944
18409SOL    HW161319   2.693   7.096   5.030 -0.4412 -1.1795  0.4139
18409SOL    HW261320   2.725   7.207   5.128 -0.9986  0.1926 -0.9306
18410SOL     OW61321   1.140   6.351   8.669  0.5861  0.4177 -0.1284
18410SOL    HW161322   1.193   6.276   8.642 -0.2097  0.5426 -2.2539
18410SOL    HW261323   1.050   6.319   8.667  0.3716  0.9297  0.8358
18411SOL     OW61324   0.532   8.417  10.397  0.0327  0.7907  0.3039
18411SOL    HW161325   0.479   8.350  10.354 -0.7767  1.3036  0.4769
18411SOL    HW261326   0.607   8.430  10.339 -0.5068  0.7203 -0.4213
18412SOL     OW61327   8.140   5.045   0.425 -0.3162  0.1570 -0.2851
18412SOL    HW161328   8.047   5.033   0.443 -0.3951  1.3164  0.1262
18412SOL    HW261329   8.145   5.066   0.332 -0.2890 -1.5920 -0.7159
18413SOL     OW61330   4.039   6.083   6.770 -0.0358 -0.4509  0.2633
18413SOL    HW161331   4.069   5.992   6.761 -1.2534 -0.7062 -1.6391
18413SOL    HW261332   3.947   6.075   6.796  0.1705  0.2794  1.2869
18414SOL     OW61333   4.528   7.317   0.401  0.0447  0.4423  0.1351
18414SOL    HW161334   4.510   7.313   0.307 -2.7274  2.1765  0.4480
18414SOL    HW261335   4.543   7.227   0.427 -2.6818 -0.6041 -1.4598
18415SOL     OW61336   5.378   3.193   1.908 -0.1648 -0.3245 -0.1586
18415SOL    HW161337   5.286   3.173   1.920 -0.6193 -0.5038 -3.1114
18415SOL    HW261338   5.419   3.109   1.886  0.3790 -0.0266 -0.3304
18416SOL     OW61339   8.191   7.901   3.125  0.2336 -0.4175  0.2576
18416SOL    HW161340   8.278   7.924   3.156  0.4124 -0.6820 -0.0418
18416SOL    HW261341   8.195   7.913   3.030 -0.0046 -0.5932  0.2229
18417SOL     OW61342   8.739   9.605   6.966 -0.0503 -0.1060  0.3112
18417SOL    HW161343   8.807   9.662   7.003  0.8533 -0.3964 -0.8543
18417SOL    HW261344   8.786   9.545   6.909 -1.2787 -0.3890 -0.4457
18418SOL     OW61345   2.513   1.599   5.263  0.6019  0.4380 -0.2700
18418SOL    HW161346   2.543   1.669   5.321  2.7434  0.0360 -0.8210
18418SOL    HW261347   2.577   1.596   5.192  0.7624 -2.2490 -0.1267
18419SOL     OW61348   6.480   9.369   7.806 -0.4666 -0.5635  0.0678
18419SOL    HW161349   6.430   9.321   7.739  0.8753 -0.1429 -1.2816
18419SOL    HW261350   6.539   9.303   7.842  1.4156 -0.0253 -1.8245
18420SOL     OW61351   9.302   5.638   3.374  0.1949 -0.1242  0.2528
18420SOL    HW161352   9.285   5.657   3.467  1.6956 -0.5892  0.6527
18420SOL    HW261353   9.327   5.722   3.337 -2.5780  0.5300 -0.3018
18421SOL     OW61354   2.676   4.277   8.195  0.1610 -0.4988  0.3624
18421SOL    HW161355   2.727   4.204   8.230  1.8903 -0.9174 -2.6716
18421SOL    HW261356   2.610   4.237   8.140  0.6864  0.1547 -0.7892
18422SOL     OW61357   8.722   4.539   7.590 -0.4947 -0.0179  0.1040
18422SOL    HW161358   8.628   4.557   7.590 -0.3013  1.0538 -0.1135
18422SOL    HW261359   8.761   4.618   7.628  0.3323 -0.3816  0.0212
18423SOL     OW61360  10.613   2.539   0.902 -0.2628  0.6783  0.2128
18423SOL    HW161361  10.541   2.490   0.863 -1.7743  1.8726  1.4030
18423SOL    HW261362  10.619   2.506   0.992  0.7629  0.5271  0.1052
18424SOL     OW61363   1.209   1.900   9.417  0.5524  0.0080 -0.2579
18424SOL    HW161364   1.125   1.930   9.384  0.3284 -0.8931 -0.5538
18424SOL    HW261365   1.244   1.844   9.347  0.4733 -1.2108  0.6306
18425SOL     OW61366   0.855   8.021   8.758 -0.1043  0.0815 -0.0793
18425SOL    HW161367   0.850   7.962   8.683 -3.1330  0.2504 -0.1165
18425SOL    HW261368   0.817   7.972   8.831  3.8377 -0.5209  1.8165
18426SOL     OW61369   4.717   5.516   6.489 -0.6846 -0.3889 -0.1990
18426SOL    HW161370   4.808   5.497   6.465 -1.3358 -2.9104 -0.9472
18426SOL    HW261371   4.716   5.506   6.585  0.0466  0.8054 -0.0525
18427SOL     OW61372   1.866   1.870   3.243  0.7345  0.0214  0.7043
18427SOL    HW161373   1.824   1.835   3.164  0.6761  2.5423 -0.4863
18427SOL    HW261374   1.797   1.871   3.309  0.1169  0.0778  0.0716
18428SOL     OW61375   7.965   9.424   8.197  0.2925  0.1825  0.3775
18428SOL    HW161376   8.017   9.477   8.135 -1.5122  0.5342 -0.9236
18428SOL    HW261377   7.910   9.488   8.243  1.1545 -0.1510  1.9322
18429SOL     OW61378   1.121   6.321   6.466  0.4174 -0.4184  0.2571
18429SOL    HW161379   1.112   6.251   6.401  0.4440 -0.9557  0.8251
18429SOL    HW261380   1.050   6.382   6.446 -1.3513 -1.9865  1.4472
18430SOL     OW61381   4.754   6.739   4.201 -0.2198 -0.2534  0.3214
18430SOL    HW161382   4.750   6.756   4.295 -0.3280 -0.8768  0.4342
18430SOL    HW261383   4.812   6.806   4.167 -1.0174  0.6443  0.6708
18431SOL     OW61384   4.912   5.075   7.122 -0.6000  0.0901 -0.3946
18431SOL    HW161385   4.954   5.128   7.054 -0.9209  1.4550  0.4393
18431SOL    HW261386   4.894   4.991   7.079  2.2840 -0.3190 -0.9957
18432SOL     OW61387   1.790   6.713   8.515 -0.2090 -0.0589  0.2496
18432SOL    HW161388   1.755   6.692   8.602 -0.5344  0.6388  0.2995
18432SOL    HW261389   1.836   6.796   8.528 -0.2597  0.0490 -0.2396
18433SOL     OW61390   0.774   7.653   5.613 -0.3271 -0.1104  0.0095
18433SOL    HW161391   0.795   7.647   5.520  1.7625 -1.9876  0.5201
18433SOL    HW261392   0.798   7.567   5.648  0.5404  1.1079  2.5866
18434SOL     OW61393   6.618   9.262  10.071  0.0724  0.2884  0.1058
18434SOL    HW161394   6.525   9.242  10.081 -1.0933  4.2940 -1.0208
18434SOL    HW261395   6.653   9.188  10.020 -2.6251 -0.9891 -0.0623
18435SOL     OW61396  10.602   0.018   4.897 -0.6472 -0.3977  0.3413
18435SOL    HW161397  10.561  -0.042   4.959  0.9104 -0.3668  1.4674
18435SOL    HW261398  10.648  -0.040   4.836 -0.4664 -0.3882  0.4680
18436SOL     OW61399   6.712   6.453   6.343 -0.7743 -0.2708  0.2671
18436SOL    HW161400   6.619   6.442   6.360 -0.2303 -2.3613  2.3694
18436SOL    HW261401   6.731   6.392   6.272 -0.8353 -0.5748  0.5101
18437SOL     OW61402   0.322   1.559   0.485  0.0382  0.1844  0.4559
18437SOL    HW161403   0.311   1.480   0.537 -1.0717  0.5405  0.7721
18437SOL    HW261404   0.417   1.565   0.471  0.4201  0.2857  2.7380
18438SOL     OW61405   5.965   6.973   8.413  0.8583  0.2654  0.0415
18438SOL    HW161406   6.029   6.988   8.483  1.9650  0.4007 -0.9713
18438SOL    HW261407   5.918   7.056   8.406  1.8046  0.7914 -0.3987
18439SOL     OW61408   0.543   0.664   9.685  0.1610  0.3446  0.2707
18439SOL    HW161409   0.563   0.589   9.629 -0.0111  0.3606  0.1868
18439SOL    HW261410   0.448   0.662   9.695  0.0623  1.0702 -0.4685
18440SOL     OW61411   7.606   7.992   7.030  0.9782 -0.0877 -0.1869
18440SOL    HW161412   7.549   8.003   6.954 -0.1646 -2.7025  0.1816
18440SOL    HW261413   7.567   7.919   7.079  1.4699  1.6526  3.1057
18441SOL     OW61414   6.910   8.252   2.229  0.0061  0.3096  0.1510
18441SOL    HW161415   6.829   8.206   2.207 -0.4652  1.4642 -0.6162
18441SOL    HW261416   6.980   8.197   2.195 -0.5922  0.7368 -1.8561
18442SOL     OW61417   6.845  10.033   4.359 -0.0640  0.3974 -0.2432
18442SOL    HW161418   6.791  10.111   4.375 -3.4022 -1.5092 -1.1535
18442SOL    HW261419   6.845  10.022   4.264  0.3247 -0.7186 -0.1318
18443SOL     OW61420  10.104   7.131   5.290  0.3835 -0.2327 -0.5676
18443SOL    HW161421  10.021   7.151   5.334  0.5561 -0.3840 -0.1740
18443SOL    HW261422  10.088   7.046   5.247 -0.2522  0.5679 -1.9973
18444SOL     OW61423   5.186   3.362   5.052  0.8780  0.0040  0.4360
18444SOL    HW161424   5.229   3.447   5.061 -0.3675  0.8190 -0.9340
18444SOL    HW261425   5.240   3.314   4.990  0.7823  0.3494  0.0864
18445SOL     OW61426   8.408   1.446   1.309  0.7426 -0.3363  0.4813
18445SOL    HW161427   8.344   1.388   1.350 -0.2670  0.3146 -0.1018
18445SOL    HW261428   8.433   1.507   1.378 -0.3809  0.2886  0.3759
18446SOL     OW61429   5.109   3.144   8.930 -0.3712  0.2454 -0.1205
18446SOL    HW161430   5.114   3.117   8.838 -1.7883 -2.7567  0.5577
18446SOL    HW261431   5.015   3.145   8.949 -0.0691 -0.0755  1.5251
18447SOL     OW61432   5.524   4.302   7.419 -0.6723 -0.3915  0.1141
18447SOL    HW161433   5.509   4.255   7.501 -2.4978 -0.4055 -0.1793
18447SOL    HW261434   5.492   4.243   7.351  0.6466 -0.2973 -0.6182
18448SOL     OW61435  10.029   9.479   8.139  0.3693 -0.3184  0.3287
18448SOL    HW161436   9.977   9.518   8.069 -0.1381 -2.2019 -0.3982
18448SOL    HW261437  10.071   9.554   8.182 -2.3609  1.2485  0.5145
18449SOL     OW61438   4.920   2.332   6.501  0.1340 -0.4771 -0.0512
18449SOL    HW161439   4.854   2.276   6.543  0.4038 -1.3049 -0.7048
18449SOL    HW261440   5.002   2.285   6.514  0.1512 -1.0906 -2.0415
18450SOL     OW61441   2.180   2.235   0.181 -0.6259 -0.2433 -0.0620
18450SOL    HW161442   2.109   2.248   0.243  0.3858  1.0795  0.8803
18450SOL    HW261443   2.197   2.140   0.182 -1.1965 -0.3465  1.0370
18451SOL     OW61444  10.016   4.002   8.438  0.4124  0.2105  0.2500
18451SOL    HW161445  10.081   4.038   8.378 -0.2839  0.0152 -0.6436
18451SOL    HW261446   9.974   4.079   8.477 -0.1310  0.3651 -0.6203
18452SOL     OW61447   7.104   3.951   9.387 -0.5009  0.2770  0.6750
18452SOL    HW161448   7.118   3.909   9.471  2.1944  3.0940  1.8381
18452SOL    HW261449   7.167   3.909   9.328  1.5864  1.9307  1.6127
18453SOL     OW61450   3.994  10.685   3.882 -0.6206  0.0903 -0.6740
18453SOL    HW161451   4.020  10.602   3.922 -0.0859  0.4993 -0.1591
18453SOL    HW261452   4.057  10.748   3.915  0.6677  0.2213 -3.1170
18454SOL     OW61453  10.204   4.534   0.381 -0.3772 -0.0218 -0.1675
18454SOL    HW161454  10.172   4.451   0.415  0.5095 -0.2541  0.1201
18454SOL    HW261455  10.279   4.510   0.327 -1.3324  0.4011 -1.7707
18455SOL     OW61456   9.583   2.785   1.065  0.6191 -0.3076 -0.0993
18455SOL    HW161457   9.629   2.868   1.052 -0.7755  1.0289  2.6416
18455SOL    HW261458   9.644   2.731   1.115  0.8780 -0.3000 -0.4000
18456SOL     OW61459   2.148   2.668   5.275 -0.2771  0.6369 -0.2110
18456SOL    HW161460   2.178   2.759   5.274 -0.4346  0.6987  0.1696
18456SOL    HW261461   2.065   2.669   5.228  1.1853  0.1159 -3.0473
18457SOL     OW61462  10.561   3.105   8.613  0.3792  0.0821 -0.7108
18457SOL    HW161463  10.545   3.030   8.670 -1.4431  0.7859 -0.2213
18457SOL    HW261464  10.540   3.074   8.525 -0.6852  0.0652 -0.4699
18458SOL     OW61465   4.533   3.813   3.027 -0.2325  0.5671 -0.1394
18458SOL    HW161466   4.615   3.863   3.022  0.0915 -0.0300 -1.0017
18458SOL    HW261467   4.556   3.733   3.073 -1.3924  2.3787  4.1180
18459SOL     OW61468   0.345  10.907   2.867 -0.0008 -0.3419 -0.2535
18459SOL    HW161469   0.282  10.852   2.819 -1.2931  0.9928 -0.1532
18459SOL    HW261470   0.299  10.932   2.947  0.5665  0.8653 -0.2869
18460SOL     OW61471   6.963   3.397   3.000  0.3114  0.3149 -0.3022
18460SOL    HW161472   6.917   3.375   3.081  0.9585 -0.1364 -0.0399
18460SOL    HW261473   6.944   3.489   2.985  0.0985  0.3735  0.3089
18461SOL     OW61474   6.476  10.530   5.242 -0.3125  0.3922  0.8149
18461SOL    HW161475   6.550  10.568   5.288  0.0081  1.7142 -0.7109
18461SOL    HW261476   6.439  10.602   5.191 -0.6668 -0.9563 -0.9651
18462SOL     OW61477   2.260   4.472   8.128  0.3606  0.4929 -0.7892
18462SOL    HW161478   2.207   4.439   8.201  2.2627  0.4717  0.6428
18462SOL    HW261479   2.309   4.396   8.097  0.3838  0.7408 -1.3714
18463SOL     OW61480   8.215  10.426   0.556 -0.3573  0.1553 -0.2345
18463SOL    HW161481   8.225  10.520   0.573  1.1319 -0.0459  0.0933
18463SOL    HW261482   8.245  10.415   0.466 -0.3266 -0.0390 -0.1999
18464SOL     OW61483   5.488   1.302   6.254 -0.1021  0.7550 -0.3682
18464SOL    HW161484   5.395   1.284   6.267  0.2760 -2.0430 -0.9609
18464SOL    HW261485   5.523   1.312   6.343 -0.7783  0.8902 -0.1085
18465SOL     OW61486   7.422  10.647   3.237 -0.4066 -0.4105  0.2312
18465SOL    HW161487   7.366  10.713   3.196 -0.2628  0.6422  1.6481
18465SOL    HW261488   7.403  10.654   3.330  2.3305  0.2521  0.8213
18466SOL     OW61489   2.046   6.860   7.217 -0.5465 -0.4718  0.5039
18466SOL    HW161490   1.981   6.893   7.154 -2.1350 -1.5420  1.5068
18466SOL    HW261491   2.114   6.822   7.162 -0.8709  0.4275 -0.5909
18467SOL     OW61492   6.546   1.183   3.927  0.5695  0.7039 -0.4321
18467SOL    HW161493   6.583   1.173   4.015  1.1127 -0.4962 -0.7781
18467SOL    HW261494   6.485   1.256   3.935  2.5782  2.4381  0.3012
18468SOL     OW61495   2.897   5.798   4.646  0.0960  0.0896  0.3428
18468SOL    HW161496   2.814   5.759   4.674 -1.3471  1.1902 -2.0553
18468SOL    HW261497   2.874   5.889   4.624  2.0342  0.5446  0.0181
18469SOL     OW61498   6.854  10.161  10.128  0.6093  0.3521 -0.2062
18469SOL    HW161499   6.860  10.155  10.224  0.3977  0.4250 -0.1878
18469SOL    HW261500   6.839  10.071  10.100 -0.8186  0.5146 -0.0596
18470SOL     OW61501   8.814   1.999   4.959  0.1844 -0.7218  0.2531
18470SOL    HW161502   8.753   1.996   4.885  0.2809 -3.9291  0.1789
18470SOL    HW261503   8.896   1.963   4.925  0.8355 -0.4432  1.4441
18471SOL     OW61504  10.379   3.263   8.269  0.6031 -0.6085 -0.5722
18471SOL    HW161505  10.444   3.193   8.270  0.9011 -0.3289 -0.2087
18471SOL    HW261506  10.426   3.339   8.236  0.5491 -0.3253 -0.0050
18472SOL     OW61507   0.327   1.201   3.527  0.1645  0.3082  0.3811
18472SOL    HW161508   0.413   1.187   3.567 -0.4853 -0.1319  1.6783
18472SOL    HW261509   0.281   1.118   3.539  0.1224 -0.0570 -1.8471
18473SOL     OW61510   4.976   1.141   3.804 -0.3055  0.2242  0.5095
18473SOL    HW161511   5.011   1.090   3.876  1.2574  0.6992  0.1240
18473SOL    HW261512   4.961   1.228   3.841  1.9614  0.9094 -0.0581
18474SOL     OW61513   2.079   5.307   6.230  0.3280  0.0592 -0.4180
18474SOL    HW161514   2.038   5.380   6.184 -1.3930 -0.4186  0.2798
18474SOL    HW261515   2.066   5.327   6.323  0.6642 -0.6730 -0.2089
18475SOL     OW61516   6.139   9.392   5.471 -0.0595 -0.1664 -0.1725
18475SOL    HW161517   6.182   9.415   5.553 -1.0958 -1.0218  0.6370
18475SOL    HW261518   6.175   9.454   5.407  1.1336  0.1900  0.8069
18476SOL     OW61519   2.596   3.929   8.892  0.1791 -0.2188  0.4892
18476SOL    HW161520   2.520   3.968   8.850  0.5887  0.2283  0.1393
18476SOL    HW261521   2.618   3.854   8.837 -0.6091 -0.9540  1.1613
18477SOL     OW61522   6.391   0.873   0.101  0.7885 -0.9295  0.0179
18477SOL    HW161523   6.331   0.857   0.174 -0.2111  1.7726 -0.0711
18477SOL    HW261524   6.478   0.863   0.139  0.2849 -0.5459  1.3439
18478SOL     OW61525  10.434   6.119   9.860 -0.3354  0.7085 -0.0927
18478SOL    HW161526  10.520   6.152   9.833 -1.0377  0.2270 -3.2770
18478SOL    HW261527  10.449   6.027   9.881 -0.1332  0.4513 -1.2823
18479SOL     OW61528   2.239   3.178   0.390  0.0194 -0.4755  0.0138
18479SOL    HW161529   2.326   3.218   0.388  0.2825 -0.8544  1.9124
18479SOL    HW261530   2.249   3.098   0.339  0.7207 -0.3770 -0.0133
18480SOL     OW61531   6.634  10.144   6.275  0.0723 -0.0410 -0.0527
18480SOL    HW161532   6.551  10.191   6.278  0.4199  0.5854 -0.1914
18480SOL    HW261533   6.677  10.175   6.196  0.6460 -0.0018  0.2659
18481SOL     OW61534   7.502   0.641   0.049  0.1764  0.5129 -0.3109
18481SOL    HW161535   7.573   0.601   0.099  0.2021  0.8787 -0.0474
18481SOL    HW261536   7.517   0.613  -0.041 -1.4333 -2.4622  0.2147
18482SOL     OW61537   6.871   8.901   4.517  0.2752 -0.1162  0.7577
18482SOL    HW161538   6.910   8.973   4.568  0.6154 -0.1591  0.5622
18482SOL    HW261539   6.823   8.944   4.447 -0.5349 -0.0430  1.3474
18483SOL     OW61540   3.115   9.038   9.548  0.4331  0.0740  0.4896
18483SOL    HW161541   3.030   9.065   9.514  0.6044  1.9148  1.3635
18483SOL    HW261542   3.171   9.034   9.471  0.2276  1.7449  0.1991
18484SOL     OW61543   5.930   3.561   9.200  0.0650 -0.8099 -0.8692
18484SOL    HW161544   5.999   3.584   9.261  0.2697 -3.2908 -0.0671
18484SOL    HW261545   5.858   3.530   9.255  0.8550 -4.7127 -1.7696
18485SOL     OW61546   3.635  10.702   9.995 -0.3167 -0.0493  0.0568
18485SOL    HW161547   3.633  10.633  10.062 -0.6130 -0.3770 -0.2885
18485SOL    HW261548   3.609  10.659   9.914 -0.7263  0.5115 -0.1230
18486SOL     OW61549   0.743   3.766   5.627 -0.0236 -0.1856 -0.8547
18486SOL    HW161550   0.824   3.720   5.604 -0.9440 -1.6702 -1.2673
18486SOL    HW261551   0.714   3.805   5.544  0.9023  1.4667 -0.4506
18487SOL     OW61552   6.160   0.682   0.930 -0.0028 -0.2148 -0.3012
18487SOL    HW161553   6.162   0.594   0.891  0.1017 -0.7902  0.9628
18487SOL    HW261554   6.197   0.738   0.862 -1.1513 -0.9411 -1.5868
18488SOL     OW61555   8.554   7.335   0.937 -0.4069 -0.1581 -0.3158
18488SOL    HW161556   8.533   7.249   0.972  0.5888 -1.0757 -1.8644
18488SOL    HW261557   8.616   7.372   1.000  3.7381 -2.9801 -2.2712
18489SOL     OW61558   2.206   3.846   5.248 -0.1277 -0.1898  0.0921
18489SOL    HW161559   2.300   3.856   5.234  0.0884  0.4688  1.8181
18489SOL    HW261560   2.198   3.767   5.301 -0.6247 -0.5729 -0.5260
18490SOL     OW61561   2.409   0.320   9.880 -0.0047  0.0559  0.8152
18490SOL    HW161562   2.456   0.238   9.895  1.9396  0.6415 -1.5017
18490SOL    HW261563   2.448   0.381   9.943 -0.4297 -0.3928  1.5364
18491SOL     OW61564   2.243   4.968   4.115 -0.3619  0.1401  0.0955
18491SOL    HW161565   2.173   5.033   4.122 -0.9301 -0.4747  0.1804
18491SOL    HW261566   2.253   4.932   4.203 -2.0274 -1.9002 -0.4618
18492SOL     OW61567   3.315   6.249   8.713 -0.0236 -0.1647  0.3155
18492SOL    HW161568   3.285   6.262   8.623 -0.3869 -0.2640  0.4160
18492SOL    HW261569   3.410   6.252   8.708  0.0609  4.8459  0.6533
18493SOL     OW61570   9.897   2.758   0.646 -0.0726  0.3553 -0.3124
18493SOL    HW161571   9.869   2.822   0.581  3.3598  1.7755 -0.6039
18493SOL    HW261572   9.855   2.786   0.728  0.5718  2.4166 -0.6448
18494SOL     OW61573   2.096   4.081   3.919  0.4742  0.4885 -0.0695
18494SOL    HW161574   2.157   4.008   3.927  0.3995  0.4882  0.5599
18494SOL    HW261575   2.091   4.118   4.007  3.1908  3.4740 -1.0045
18495SOL     OW61576   2.965   5.138   4.121 -0.4996  0.0368 -0.1501
18495SOL    HW161577   2.970   5.168   4.030  0.4217  2.2447  0.5608
18495SOL    HW261578   3.057   5.130   4.148 -0.7684  0.3263  0.8577
18496SOL     OW61579   2.332  10.155   1.508  0.2261  0.2234  0.2692
18496SOL    HW161580   2.380  10.202   1.440 -0.9060 -0.6632 -1.2049
18496SOL    HW261581   2.385  10.166   1.588  0.7365  2.6942 -0.3530
18497SOL     OW61582   9.020   5.611   0.784 -0.9822 -0.0226 -0.1365
18497SOL    HW161583   8.968   5.601   0.864 -0.2517  0.6481  0.4358
18497SOL    HW261584   9.093   5.551   0.796 -1.1029 -0.2433 -0.5030
18498SOL     OW61585   9.199   6.874   9.034  0.7169 -0.2322 -0.6698
18498SOL    HW161586   9.164   6.841   8.952  0.3990 -0.4939 -0.4315
18498SOL    HW261587   9.200   6.969   9.024  0.5043 -0.2560 -0.9034
18499SOL     OW61588   2.433   8.603   5.571 -0.7578 -0.4489 -0.7024
18499SOL    HW161589   2.377   8.664   5.620 -1.3465 -1.5582  0.0601
18499SOL    HW261590   2.376   8.528   5.553  0.3975 -1.4791 -0.1771
18500SOL     OW61591   0.723   4.936  10.070  0.0563 -0.1224 -0.4593
18500SOL    HW161592   0.797   4.950  10.011  0.0336 -0.5075 -0.5818
18500SOL    HW261593   0.647   4.932  10.012 -0.1318  0.7409 -0.2974
18501SOL     OW61594   3.579   7.013   4.069 -0.3831 -0.4383 -0.0254
18501SOL    HW161595   3.494   7.056   4.069  0.3095  1.0318 -0.0960
18501SOL    HW261596   3.560   6.920   4.072 -1.9785 -0.1309  0.1552
18502SOL     OW61597  10.067   6.838   4.818  0.4505  0.4894 -0.3199
18502SOL    HW161598   9.995   6.891   4.783 -0.3584 -0.1873  0.2820
18502SOL    HW261599  10.117   6.898   4.873  0.4374  1.0032 -0.8575
18503SOL     OW61600   0.650   4.720   8.406 -0.5811  0.2201  0.7204
18503SOL    HW161601   0.645   4.739   8.500 -1.5906  0.5355  0.6117
18503SOL    HW261602   0.653   4.806   8.365 -0.0953  0.0808  0.4562
18504SOL     OW61603   8.199   4.747   9.289  0.4739  0.1457 -0.9368
18504SOL    HW161604   8.270   4.689   9.259 -0.5377 -0.6537 -1.8566
18504SOL    HW261605   8.213   4.754   9.383  0.5915 -1.6674 -0.7866
18505SOL     OW61606   5.981   2.563   1.014 -0.1553  0.0155 -0.2487
18505SOL    HW161607   6.022   2.546   1.099 -0.1850  0.1381 -0.2100
18505SOL    HW261608   6.042   2.621   0.969  0.6917 -1.3774 -0.9777
18506SOL     OW61609   3.767  10.622   1.026 -0.2023  0.2128 -0.3823
18506SOL    HW161610   3.728  10.709   1.022 -0.9367 -0.0312  0.9281
18506SOL    HW261611   3.851  10.631   0.982 -0.4690  1.4736 -0.6611
18507SOL     OW61612   0.038   3.536   6.050 -0.0709  0.0074  0.2079
18507SOL    HW161613  -0.048   3.561   6.018  0.0367  0.5791  0.3546
18507SOL    HW261614   0.039   3.440   6.045 -1.5441 -0.1956  2.2374
18508SOL     OW61615   1.758   1.932   4.016 -0.4557 -0.0528 -0.2992
18508SOL    HW161616   1.812   1.891   4.084  0.1689  0.4878 -0.4590
18508SOL    HW261617   1.818   1.943   3.942 -0.2624  2.2344  0.1328
18509SOL     OW61618   3.193   7.652   2.590  0.1303  0.1907  0.0995
18509SOL    HW161619   3.273   7.702   2.608  0.4903 -0.0948 -0.6731
18509SOL    HW261620   3.142   7.708   2.532 -0.2681  0.3937  0.6321
18510SOL     OW61621   3.784   7.512   3.604  0.0596  0.4580  0.9105
18510SOL    HW161622   3.798   7.606   3.609  0.1217  0.5086 -0.0489
18510SOL    HW261623   3.749   7.497   3.517  0.5541 -0.4734  0.8530
18511SOL     OW61624   0.404   8.618   3.181 -0.0413  0.8737  0.1386
18511SOL    HW161625   0.366   8.702   3.209 -0.1757  1.4945 -1.7826
18511SOL    HW261626   0.461   8.642   3.108  0.5263 -0.6352  0.0691
18512SOL     OW61627   9.193   3.082   3.333  0.2028  0.3951  0.8357
18512SOL    HW161628   9.213   3.139   3.259 -0.5010 -0.2223  0.1470
18512SOL    HW261629   9.152   3.139   3.397  2.0338  1.2132  1.3273
18513SOL     OW61630   4.275   7.633   4.110  0.6070 -0.3486 -0.0330
18513SOL    HW161631   4.260   7.555   4.163 -0.8833  0.0880  0.2407
18513SOL    HW261632   4.301   7.700   4.173 -0.2332 -0.0801  0.0457
18514SOL     OW61633   3.307   2.865   6.455 -0.1414  0.1398  0.0661
18514SOL    HW161634   3.382   2.807   6.439  0.2601  0.6559  0.0687
18514SOL    HW261635   3.234   2.805   6.468  0.1096 -0.3568 -0.7264
18515SOL     OW61636   7.395   2.528   8.734  0.1763  0.4445 -0.2667
18515SOL    HW161637   7.412   2.534   8.640 -1.7892  0.6539 -0.6717
18515SOL    HW261638   7.347   2.609   8.754  0.3931  0.3058  0.8830
18516SOL     OW61639  10.791   4.026   8.841  0.0334 -0.1133  0.2362
18516SOL    HW161640  10.724   3.969   8.878  1.2786 -0.1621  2.5796
18516SOL    HW261641  10.851   3.967   8.795 -0.9280 -0.1702 -0.9998
18517SOL     OW61642   2.264  10.618   3.526  0.1365 -0.2657 -0.5902
18517SOL    HW161643   2.196  10.686   3.528  0.6354  0.2226  0.3617
18517SOL    HW261644   2.234  10.557   3.459 -0.6763  0.5298 -0.9753
18518SOL     OW61645   3.728   9.746   1.937 -0.0389 -0.5079  0.6793
18518SOL    HW161646   3.721   9.753   1.842 -0.7242  0.6434  0.7953
18518SOL    HW261647   3.821   9.761   1.955  0.1802 -1.1732  0.1784
18519SOL     OW61648   4.381   4.972   0.104  0.2394  0.0154  0.1738
18519SOL    HW161649   4.287   4.961   0.090  0.0440 -2.1718  2.5237
18519SOL    HW261650   4.419   4.960   0.017 -1.6049  0.4001 -0.7410
18520SOL     OW61651  10.348   0.722   4.849  0.2173 -0.2207  0.2630
18520SOL    HW161652  10.330   0.809   4.887  2.5577 -0.0468  1.1244
18520SOL    HW261653  10.355   0.738   4.755  0.4337  0.5005  0.3956
18521SOL     OW61654   7.341   0.458   5.376  0.1834 -0.3489 -0.5648
18521SOL    HW161655   7.433   0.453   5.348  0.7852  0.8781  1.0842
18521SOL    HW261656   7.317   0.550   5.367 -0.2610 -0.3032  0.8752
18522SOL     OW61657  10.519   2.044   1.138 -0.3377  0.1164  0.3248
18522SOL    HW161658  10.434   2.005   1.116  0.1443 -0.9374  0.2900
18522SOL    HW261659  10.568   1.973   1.180  0.6075  0.6530  0.1556
18523SOL     OW61660   7.232  10.767   2.968 -0.2650  0.2944 -0.3016
18523SOL    HW161661   7.319  10.730   2.956 -0.3890 -1.4003  2.9597
18523SOL    HW261662   7.189  10.755   2.883  2.4397  0.7378 -1.8484
18524SOL     OW61663   5.776   2.362   4.541 -0.1996  0.2124 -0.0003
18524SOL    HW161664   5.709   2.341   4.606  1.1171 -0.0049  1.3516
18524SOL    HW261665   5.783   2.284   4.487  0.5260 -0.6554  1.2868
18525SOL     OW61666   4.611   1.958   8.095 -0.0968  0.3824 -0.6464
18525SOL    HW161667   4.628   1.936   8.003 -2.3714  0.1254 -1.0449
18525SOL    HW261668   4.570   1.881   8.132  2.8492 -0.4053  1.3118
18526SOL     OW61669   2.058   2.896   5.073  0.1550 -0.4491 -0.0419
18526SOL    HW161670   2.131   2.893   5.135  0.5899 -1.9768 -0.5752
18526SOL    HW261671   2.079   2.968   5.014 -0.5082  1.3569  1.8186
18527SOL     OW61672   0.069   3.498   5.376  0.1183  0.0367  0.0968
18527SOL    HW161673   0.020   3.476   5.455  0.1358  1.2796  0.4717
18527SOL    HW261674   0.064   3.419   5.322 -0.3626 -0.6367  1.0946
18528SOL     OW61675  10.349   7.665   8.552  0.3007 -0.0186  0.3263
18528SOL    HW161676  10.329   7.583   8.507  0.1929 -0.4374  1.1221
18528SOL    HW261677  10.323   7.650   8.643 -0.6761  1.2528  0.2818
18529SOL     OW61678   4.231   0.777   9.080  0.2329 -0.4215  0.1755
18529SOL    HW161679   4.182   0.824   9.013  1.9258  0.7497 -0.3095
18529SOL    HW261680   4.238   0.687   9.047 -0.3421 -0.2489 -0.4288
18530SOL     OW61681   8.357   7.830   6.029  0.4182 -0.5897  0.0692
18530SOL    HW161682   8.410   7.879   5.966 -0.6285 -0.1202 -0.4669
18530SOL    HW261683   8.345   7.744   5.989  0.0976 -0.4261 -0.1932
18531SOL     OW61684  10.909   2.271   8.100  0.1732  0.3647 -0.4519
18531SOL    HW161685  10.987   2.251   8.048  0.4509 -2.3047  0.7829
18531SOL    HW261686  10.920   2.218   8.179 -1.8867  1.6009  0.7451
18532SOL     OW61687   5.135   3.647   8.736 -0.7089  0.0556  0.1938
18532SOL    HW161688   5.130   3.603   8.821 -0.0516  1.5950  1.0736
18532SOL    HW261689   5.192   3.592   8.683 -1.0874 -0.8955  0.7553
18533SOL     OW61690   4.986   1.098  10.014  0.0306  0.5450 -0.4093
18533SOL    HW161691   4.939   1.159  10.072  0.8471  0.5919  0.2258
18533SOL    HW261692   5.034   1.154   9.954 -0.2521  0.5082 -0.6685
18534SOL     OW61693   7.555   5.972  10.220  0.2661  0.5648  0.1010
18534SOL    HW161694   7.648   5.950  10.210  0.0677 -0.5747  0.5968
18534SOL    HW261695   7.521   5.972  10.131  0.6519  0.5893 -0.0520
18535SOL     OW61696   2.987   6.012  10.608  0.5214 -0.7973  0.0684
18535SOL    HW161697   2.941   5.955  10.547  2.3548 -1.4127 -0.8305
18535SOL    HW261698   2.921   6.075  10.637 -0.7267 -1.2874 -1.5549
18536SOL     OW61699   6.158   7.679   5.986  0.4329 -0.0216 -0.0653
18536SOL    HW161700   6.098   7.736   6.034  0.7501  0.6083 -0.4091
18536SOL    HW261701   6.142   7.699   5.894  2.7736  1.8648 -0.1465
18537SOL     OW61702   1.807   8.200   3.668 -0.2804 -0.5719  0.0057
18537SOL    HW161703   1.830   8.139   3.738 -0.2830 -1.0429 -0.3999
18537SOL    HW261704   1.761   8.147   3.604 -0.2372 -0.1526 -0.3788
18538SOL     OW61705   7.566   7.957   6.713 -0.5450  0.1680 -0.0151
18538SOL    HW161706   7.492   8.001   6.672  0.5752  2.1407 -0.0160
18538SOL    HW261707   7.608   7.908   6.642 -1.1081  0.0357 -0.2652
18539SOL     OW61708   4.099   4.045   7.721  0.1478  0.1299  0.1402
18539SOL    HW161709   4.154   4.113   7.759  0.8154  0.5080 -1.4525
18539SOL    HW261710   4.051   4.089   7.650 -1.1867 -0.5221  0.5944
18540SOL     OW61711   4.987   8.036   2.083  0.0146  0.0282  0.4256
18540SOL    HW161712   4.926   7.983   2.135  0.5928 -0.6050  0.4672
18540SOL    HW261713   4.930   8.085   2.023 -0.5138 -0.8768  0.1685
18541SOL     OW61714   9.326   3.993   0.799  0.6153  0.1867  0.0428
18541SOL    HW161715   9.268   4.058   0.759  1.0521  0.4186 -0.2162
18541SOL    HW261716   9.271   3.950   0.865 -0.5298 -1.1329 -1.6854
18542SOL     OW61717   9.363   7.821   2.767  0.5026 -0.4357 -0.1786
18542SOL    HW161718   9.379   7.741   2.818  0.6718  0.5311  1.3728
18542SOL    HW261719   9.291   7.864   2.813  0.4471  0.3313 -0.9652
18543SOL     OW61720   4.517   2.031   0.828 -0.3551  0.2050 -0.1380
18543SOL    HW161721   4.422   2.041   0.820 -0.3913 -0.5207 -0.7939
18543SOL    HW261722   4.547   2.114   0.866 -0.9762  1.3642 -2.0543
18544SOL     OW61723   0.362   1.237   5.857 -0.1212  0.3993 -0.0059
18544SOL    HW161724   0.318   1.283   5.928 -0.8544  1.3675 -1.0575
18544SOL    HW261725   0.434   1.295   5.832 -0.5348  0.5943 -0.7704
18545SOL     OW61726   4.591   2.898   3.148  0.0260  0.0800  0.1790
18545SOL    HW161727   4.563   2.985   3.119  1.5534  0.0902 -1.4490
18545SOL    HW261728   4.513   2.843   3.141 -0.6682  1.0638  0.0977
18546SOL     OW61729   0.456   5.005   7.137 -0.0538  0.4408 -0.1421
18546SOL    HW161730   0.495   5.017   7.051 -1.3934  2.0174 -0.5664
18546SOL    HW261731   0.501   5.068   7.193  0.4793 -0.2537  0.2391
18547SOL     OW61732   0.272   3.478   4.215  0.0091 -0.1621  0.1059
18547SOL    HW161733   0.252   3.439   4.300  0.7295  1.7667  1.2351
18547SOL    HW261734   0.352   3.433   4.187  0.7864  0.3962  1.3335
18548SOL     OW61735   8.641   9.775  10.618 -0.6910  0.8409  0.0258
18548SOL    HW161736   8.585   9.752  10.691 -0.2431  0.8656  0.3809
18548SOL    HW261737   8.610   9.860  10.589 -1.0771  0.6841 -0.0192
18549SOL     OW61738   0.281   0.572   3.409  0.3868 -0.2622 -0.0103
18549SOL    HW161739   0.283   0.651   3.355  0.7112  0.1401  0.5799
18549SOL    HW261740   0.236   0.599   3.490 -0.4696 -0.9653 -0.2341
18550SOL     OW61741   1.623   8.772   0.724 -0.2693  0.3177 -0.7453
18550SOL    HW161742   1.608   8.677   0.730  0.2989 -0.1723 -4.6048
18550SOL    HW261743   1.704   8.787   0.773 -1.8264 -0.5436  2.4089
18551SOL     OW61744   4.316   7.383   3.771 -0.5590  0.3315  0.0832
18551SOL    HW161745   4.224   7.381   3.799 -0.5495  0.4388  0.1227
18551SOL    HW261746   4.363   7.334   3.839 -0.8602 -1.5363 -0.9895
18552SOL     OW61747   2.651  10.620   8.565  0.1020 -0.2835  0.6377
18552SOL    HW161748   2.669  10.532   8.533  1.1246  0.1648 -0.0681
18552SOL    HW261749   2.725  10.640   8.623 -0.5819 -0.2222  1.5116
18553SOL     OW61750   4.296   9.643   0.836 -0.1726 -0.5287 -0.1262
18553SOL    HW161751   4.258   9.568   0.882  0.3259 -0.1966  0.8487
18553SOL    HW261752   4.366   9.605   0.783  0.0900 -0.7574  0.3790
18554SOL     OW61753   9.124   0.050   0.135 -0.3218  0.5167 -0.5804
18554SOL    HW161754   9.087  -0.031   0.170  0.2336  0.8239  0.7916
18554SOL    HW261755   9.179   0.022   0.062 -0.2141 -0.3333 -0.1851
18555SOL     OW61756   8.339   2.072   3.114 -0.0481  0.4016 -0.0696
18555SOL    HW161757   8.403   2.126   3.068 -0.2708  0.4030 -0.3786
18555SOL    HW261758   8.376   2.060   3.201  2.8615 -3.7186 -1.5781
18556SOL     OW61759  10.679   3.023  10.270 -0.0418 -0.2156 -0.6528
18556SOL    HW161760  10.761   2.974  10.274  0.2430  0.1232 -1.8222
18556SOL    HW261761  10.700   3.102  10.220 -0.9651  0.1178 -0.5450
18557SOL     OW61762   6.326   7.651   5.244  0.0550  0.3707 -0.1597
18557SOL    HW161763   6.282   7.566   5.243 -1.5201  1.1130 -2.9572
18557SOL    HW261764   6.365   7.657   5.332 -1.9035 -2.1302  0.9908
18558SOL     OW61765   6.576   3.853  10.518 -0.5398 -0.2155 -0.2770
18558SOL    HW161766   6.529   3.793  10.576  0.4890 -0.0680  0.7341
18558SOL    HW261767   6.602   3.798  10.444  0.1064 -0.9591  0.4862
18559SOL     OW61768   1.092  10.440   7.468  0.0285  0.1676  0.2359
18559SOL    HW161769   1.146  10.444   7.547 -0.8130 -1.1442  0.9093
18559SOL    HW261770   1.061  10.350   7.464 -0.7423  0.4566 -1.0724
18560SOL     OW61771   6.750   9.755   9.026  0.5358 -0.5474  0.0444
18560SOL    HW161772   6.793   9.670   9.032  0.4354 -0.5517  0.8168
18560SOL    HW261773   6.691   9.757   9.101  0.6744  0.2801  0.1358
18561SOL     OW61774   5.131   3.981   5.704  0.0824 -0.3577 -0.4612
18561SOL    HW161775   5.148   3.929   5.625  1.6771  1.6393 -1.5252
18561SOL    HW261776   5.037   3.975   5.717 -0.1470 -1.1567 -2.2220
18562SOL     OW61777   3.139   2.258   2.127 -0.1172 -0.1193  0.1388
18562SOL    HW161778   3.056   2.281   2.085  0.4022 -0.0540 -0.8579
18562SOL    HW261779   3.119   2.263   2.221 -1.4229 -0.7537 -0.0716
18563SOL     OW61780   7.756  10.445   5.572  0.0909 -0.2562 -0.3975
18563SOL    HW161781   7.742  10.524   5.624  0.7907  0.6105 -1.4755
18563SOL    HW261782   7.693  10.452   5.500 -2.1885 -2.3674  1.2340
18564SOL     OW61783   7.741   1.645   7.232  0.5133 -0.3382 -0.2844
18564SOL    HW161784   7.776   1.728   7.200  1.0036 -0.6590 -0.5969
18564SOL    HW261785   7.678   1.670   7.299 -0.2068  0.3321 -1.1817
18565SOL     OW61786   9.168   2.524   8.910  0.4730  0.5360  0.1811
18565SOL    HW161787   9.246   2.508   8.963 -0.2438 -0.0780  1.0725
18565SOL    HW261788   9.096   2.484   8.960 -0.1765 -0.3684 -1.3911
18566SOL     OW61789   4.687  10.831   1.584  0.1141  0.1495  0.2745
18566SOL    HW161790   4.670  10.738   1.569  0.3563  0.1955 -0.3196
18566SOL    HW261791   4.724  10.834   1.673 -0.2879 -0.2694  0.4613
18567SOL     OW61792   7.909   2.252   1.074  0.8906  0.3732  0.1518
18567SOL    HW161793   7.894   2.200   1.153 -0.2208  0.6920  0.1696
18567SOL    HW261794   7.992   2.220   1.039 -0.0820 -1.9258 -0.2222
18568SOL     OW61795   8.288   2.287   2.303  0.6325 -0.4137  0.0573
18568SOL    HW161796   8.266   2.379   2.290 -1.1806 -0.3546  2.7837
18568SOL    HW261797   8.376   2.288   2.341 -0.1451  0.4171  1.9690
18569SOL     OW61798   2.027   8.444   3.215  0.3580  0.6489  0.6671
18569SOL    HW161799   2.002   8.424   3.124  0.2017  3.0678  0.0805
18569SOL    HW261800   2.097   8.508   3.206  1.2478 -0.0519  2.2993
18570SOL     OW61801   7.102   1.788   4.961 -0.3307 -0.3093  0.2169
18570SOL    HW161802   7.078   1.826   5.045 -0.6551 -0.5815  0.2490
18570SOL    HW261803   7.053   1.839   4.897  1.5072  1.2915 -0.0017
18571SOL     OW61804  10.756   5.912   2.625  0.4536 -0.0352 -0.0295
18571SOL    HW161805  10.814   5.848   2.667  0.6009  0.5333  0.6497
18571SOL    HW261806  10.721   5.866   2.549  2.7641 -0.0035 -1.2069
18572SOL     OW61807   7.154   3.915  10.155 -0.1840 -0.4032  0.2444
18572SOL    HW161808   7.242   3.948  10.136 -0.7227  1.1704  0.3563
18572SOL    HW261809   7.103   3.936  10.076 -0.3669 -1.7617 -0.0331
18573SOL     OW61810   9.109   5.654   4.930 -0.1591 -0.1802 -0.2657
18573SOL    HW161811   9.020   5.647   4.966 -0.9200  0.1063 -1.9794
18573SOL    HW261812   9.125   5.748   4.924  0.6391 -0.2312  0.8723
18574SOL     OW61813   2.789   8.946  10.211  0.4086  0.0771  0.3746
18574SOL    HW161814   2.784   9.006  10.285  1.0387  0.0760  0.4287
18574SOL    HW261815   2.871   8.898  10.225 -0.7695 -1.8617  1.1220
18575SOL     OW61816   0.535   9.125  10.610  0.1255  0.4235 -0.1691
18575SOL    HW161817   0.577   9.210  10.594  0.0640  0.6028  0.6133
18575SOL    HW261818   0.458   9.145  10.663  0.1961 -0.1364  0.1493
18576SOL     OW61819   3.004   9.356   4.309 -0.2339  0.1597  0.1176
18576SOL    HW161820   3.020   9.357   4.215  0.4645  2.3393  0.2029
18576SOL    HW261821   3.086   9.326   4.347  0.1312  1.1036  0.0942
18577SOL     OW61822   0.402   5.199  10.324 -0.1396 -0.0744  0.7629
18577SOL    HW161823   0.495   5.176  10.323  0.0133  0.5249 -0.3481
18577SOL    HW261824   0.356   5.116  10.316  0.2647 -0.4629  2.2490
18578SOL     OW61825   2.940   7.875   2.909 -0.2096 -0.1848  0.3092
18578SOL    HW161826   3.015   7.816   2.906  0.7155  0.9888 -0.8919
18578SOL    HW261827   2.902   7.861   2.996 -0.2308 -2.7441 -0.0334
18579SOL     OW61828  10.291   8.581   4.876  0.4777 -0.0424  0.2918
18579SOL    HW161829  10.377   8.540   4.870  1.4459  1.7488  1.3063
18579SOL    HW261830  10.308   8.668   4.912 -1.7746  0.3256  0.5916
18580SOL     OW61831   8.126   8.129   4.692  0.6948 -0.0687  0.1361
18580SOL    HW161832   8.147   8.064   4.625 -0.6209 -0.3532 -0.0251
18580SOL    HW261833   8.194   8.118   4.758  0.9918 -1.0139 -0.3089
18581SOL     OW61834   9.720   9.564   1.643  0.2096 -0.1268 -0.8766
18581SOL    HW161835   9.714   9.478   1.685 -0.8776  0.5059  0.3671
18581SOL    HW261836   9.708   9.547   1.550 -0.1104 -1.3139 -0.6345
18582SOL     OW61837   5.981   6.350   4.523  0.1825  0.0232  0.0347
18582SOL    HW161838   5.905   6.292   4.531 -0.3027  0.4925 -0.9977
18582SOL    HW261839   6.053   6.291   4.501 -0.3597 -0.2000 -1.2690
18583SOL     OW61840   3.707   5.332   9.971  0.3227 -0.4031 -0.3747
18583SOL    HW161841   3.636   5.335  10.035  1.6175  0.1048  1.1045
18583SOL    HW261842   3.738   5.422   9.964  2.2482 -0.9268  0.7243
18584SOL     OW61843   0.691   3.940   5.428  0.3700  0.2752  0.1209
18584SOL    HW161844   0.640   4.010   5.388 -0.4241 -0.7228 -0.6589
18584SOL    HW261845   0.724   3.889   5.354  1.2287  0.0131  0.6678
18585SOL     OW61846   2.007  10.219   6.624  0.2965 -0.0421  0.2638
18585SOL    HW161847   1.997  10.196   6.532 -2.6382  1.6044  0.0417
18585SOL    HW261848   2.100  10.233   6.636  0.7827 -0.5591 -2.3645
18586SOL     OW61849   8.344   9.223  10.465  0.2274  0.3171  0.3411
18586SOL    HW161850   8.362   9.221  10.371 -0.3003  2.5523  0.1452
18586SOL    HW261851   8.424   9.260  10.504 -0.7697  2.5703  0.3612
18587SOL     OW61852   8.816   9.688   7.286 -0.2117 -0.3305  0.2392
18587SOL    HW161853   8.757   9.618   7.259  1.5792 -1.4214 -1.1105
18587SOL    HW261854   8.865   9.710   7.207  1.6872 -0.0233  1.4164
18588SOL     OW61855   5.185   3.827   7.024  0.4048 -0.2399 -0.0696
18588SOL    HW161856   5.158   3.753   7.079  0.9301 -0.8017 -0.5516
18588SOL    HW261857   5.184   3.793   6.935  0.8223  0.2872 -0.2838
18589SOL     OW61858   8.446   5.759   9.864 -0.2172  0.0970  0.2098
18589SOL    HW161859   8.360   5.798   9.880 -0.2616 -0.0061  0.2285
18589SOL    HW261860   8.466   5.712   9.945 -1.2025 -1.8341 -0.5960
18590SOL     OW61861   8.050   0.475   0.598 -0.1627  0.4913  0.0218
18590SOL    HW161862   7.968   0.520   0.580 -0.1020  0.4467 -0.3759
18590SOL    HW261863   8.031   0.383   0.583  0.1453  0.5496 -0.7711
18591SOL     OW61864   9.453   4.235  10.820 -0.1298  0.1364  0.7316
18591SOL    HW161865   9.417   4.179  10.889  0.9688 -0.1928  1.0576
18591SOL    HW261866   9.384   4.238  10.754 -0.9232 -0.1263  1.5139
18592SOL     OW61867   8.411   9.783   2.894  0.6200  0.2474  0.0327
18592SOL    HW161868   8.329   9.775   2.943  1.0887 -0.1960  0.7703
18592SOL    HW261869   8.422   9.876   2.878 -1.7932  0.1666 -3.1795
18593SOL     OW61870   6.065   5.332   6.485  0.3484 -0.2037 -0.0712
18593SOL    HW161871   6.139   5.356   6.430  0.6570 -0.1852  0.3462
18593SOL    HW261872   6.100   5.266   6.546  0.9852  2.2996  2.4679
18594SOL     OW61873   3.628   3.826   0.490 -0.2089  0.8174 -0.4393
18594SOL    HW161874   3.544   3.790   0.460  0.8926 -0.2020 -2.4359
18594SOL    HW261875   3.671   3.754   0.534 -0.9634  1.7732  2.0673
18595SOL     OW61876   9.645   6.405   9.585  0.1381  0.3117 -0.3517
18595SOL    HW161877   9.705   6.470   9.622 -0.1232 -0.3674  1.3840
18595SOL    HW261878   9.683   6.321   9.610 -0.3170 -0.1896 -1.2820
18596SOL     OW61879   5.887   6.459   7.294 -0.0034  0.0910 -0.3515
18596SOL    HW161880   5.890   6.449   7.389 -0.5993 -0.3156 -0.3719
18596SOL    HW261881   5.796   6.480   7.274 -0.0344 -0.5063 -0.8920
18597SOL     OW61882   8.122   7.673   2.946 -0.0923  0.2053 -0.6811
18597SOL    HW161883   8.199   7.628   2.981  0.3904  0.1283 -1.7962
18597SOL    HW261884   8.154   7.759   2.920 -1.1987  1.6248  2.2817
18598SOL     OW61885  10.560   2.923  10.031 -0.5780  0.0227 -0.5492
18598SOL    HW161886  10.490   2.989  10.027  0.1083  0.7224 -1.4797
18598SOL    HW261887  10.603   2.939  10.115 -1.7348 -0.6555  0.2088
18599SOL     OW61888   4.474   7.124   8.316 -0.5750  0.1111  0.5122
18599SOL    HW161889   4.488   7.054   8.380  1.2092 -0.2635 -0.2209
18599SOL    HW261890   4.534   7.103   8.244  0.8453  2.9398  0.7184
18600SOL     OW61891   3.959   5.313   5.801  0.2391  0.1930 -0.3027
18600SOL    HW161892   3.941   5.220   5.787 -0.2971  0.6199 -2.7664
18600SOL    HW261893   3.934   5.356   5.719  1.2802  2.4199  0.4608
18601SOL     OW61894   6.596   4.600   0.397  0.2293  0.4772 -0.6823
18601SOL    HW161895   6.633   4.595   0.486  0.0784  0.8657 -0.5996
18601SOL    HW261896   6.562   4.512   0.381  0.0567  0.4656 -0.2674
18602SOL     OW61897   3.885   3.356   1.535  0.2897 -0.2918 -0.1556
18602SOL    HW161898   3.790   3.363   1.526  0.3377  0.1914 -0.3338
18602SOL    HW261899   3.901   3.369   1.628  0.2265  0.2160 -0.2137
18603SOL     OW61900   3.118   0.534   7.309 -0.3217 -0.0469 -0.4257
18603SOL    HW161901   3.063   0.612   7.313  0.7396  0.6407  2.3041
18603SOL    HW261902   3.147   0.530   7.218 -0.7359  2.4973 -0.7402
18604SOL     OW61903   4.406   2.314   1.396 -0.8164  0.1486  0.9435
18604SOL    HW161904   4.467   2.370   1.347 -0.7158  0.9881  1.9941
18604SOL    HW261905   4.417   2.227   1.358  0.7702  0.3547  0.8806
18605SOL     OW61906   4.412   0.242   4.202  0.3641  0.4036 -0.0779
18605SOL    HW161907   4.326   0.243   4.243 -0.0378  0.9527 -0.8988
18605SOL    HW261908   4.451   0.159   4.229 -0.9123 -0.4256 -0.6734
18606SOL     OW61909   9.724   8.956   4.541  0.5147 -0.2021 -0.0083
18606SOL    HW161910   9.710   8.904   4.620 -0.5785 -0.3748 -0.2949
18606SOL    HW261911   9.802   8.918   4.501 -0.3373 -1.7791 -0.2867
18607SOL     OW61912   1.995   9.292   3.876 -0.1292  0.2377 -0.0145
18607SOL    HW161913   2.060   9.241   3.827 -1.2583 -1.6115  0.3198
18607SOL    HW261914   2.024   9.286   3.967  0.5666  1.5353 -0.1231
18608SOL     OW61915   3.250   8.054   9.292 -0.6897  0.0514  0.3216
18608SOL    HW161916   3.344   8.056   9.273 -0.8788 -0.2046 -0.6835
18608SOL    HW261917   3.229   8.144   9.319 -0.0333 -0.0575  1.2471
18609SOL     OW61918   2.733   9.792  10.885  0.1260 -0.4520  0.1944
18609SOL    HW161919   2.753   9.796  10.979  1.0396  0.4150 -0.0235
18609SOL    HW261920   2.809   9.829  10.843 -0.6812  0.0527 -0.8532
18610SOL     OW61921   7.263   7.088   3.248 -0.0078  0.3365  0.1761
18610SOL    HW161922   7.333   7.149   3.269  0.2030  0.3918 -0.6518
18610SOL    HW261923   7.187   7.121   3.295  0.0194  1.4473 -0.5367
18611SOL     OW61924  10.429   8.875   8.713  0.4866  0.4456 -0.5152
18611SOL    HW161925  10.435   8.948   8.775 -0.1036  0.7051 -0.7603
18611SOL    HW261926  10.428   8.916   8.627 -0.3840  0.1828 -0.6381
18612SOL     OW61927   0.524   9.626   6.521  0.4035  0.0158  0.2095
18612SOL    HW161928   0.553   9.589   6.437  0.6584 -0.0203  0.3119
18612SOL    HW261929   0.605   9.646   6.568  0.3159 -2.0584  1.3788
18613SOL     OW61930   9.025   7.562   3.266 -0.3352  0.4610 -0.3747
18613SOL    HW161931   9.078   7.564   3.346  1.1736  1.9034 -1.3385
18613SOL    HW261932   8.992   7.472   3.260  0.6748 -0.0366  1.1122
18614SOL     OW61933   4.346   0.860   7.417 -0.4375  0.1570  0.2590
18614SOL    HW161934   4.252   0.849   7.426 -0.2385 -0.6521  1.5931
18614SOL    HW261935   4.382   0.772   7.428  0.5833  0.7240  1.8801
18615SOL     OW61936   6.926   1.596   5.832  0.3065 -0.0626 -0.8454
18615SOL    HW161937   7.005   1.545   5.813  0.8498  0.5633 -0.3229
18615SOL    HW261938   6.919   1.659   5.760 -0.0089 -0.4514 -1.1587
18616SOL     OW61939   5.810   6.289  10.011  0.5597  0.5072 -0.1593
18616SOL    HW161940   5.754   6.335   9.948  1.2113 -0.5826 -1.6009
18616SOL    HW261941   5.763   6.208  10.030 -0.1537  1.2938  1.6719
18617SOL     OW61942   7.321   6.557   8.729  0.1744 -0.2708  0.1908
18617SOL    HW161943   7.389   6.494   8.702  1.8687  2.2540 -1.9537
18617SOL    HW261944   7.247   6.538   8.673  1.1683  0.4157 -1.4363
18618SOL     OW61945  10.407  10.009   0.780 -0.1015 -0.0529  0.1768
18618SOL    HW161946  10.498  10.006   0.810  0.1783  0.8884 -0.5120
18618SOL    HW261947  10.368  10.083   0.827 -0.7062 -0.8317  0.9364
18619SOL     OW61948   2.361   6.721   3.421 -0.0180 -0.0596  0.4616
18619SOL    HW161949   2.364   6.702   3.515  0.7597  0.3827  0.5365
18619SOL    HW261950   2.268   6.720   3.400 -0.1416 -1.6018  0.9300
18620SOL     OW61951   1.821   4.343   2.198 -0.5485 -0.2634 -0.1006
18620SOL    HW161952   1.879   4.267   2.212  2.3361  1.6269 -0.9294
18620SOL    HW261953   1.806   4.378   2.286  1.2053  0.2910  0.0128
18621SOL     OW61954   4.139   2.461   6.228 -0.3000 -0.1861  0.6847
18621SOL    HW161955   4.054   2.452   6.187 -0.2707  0.8790  0.3694
18621SOL    HW261956   4.192   2.510   6.165  0.6176 -1.0117  0.7797
18622SOL     OW61957   0.651   4.161   8.421 -0.2349  0.1035 -0.0303
18622SOL    HW161958   0.725   4.197   8.470  1.4845 -1.4062 -1.3511
18622SOL    HW261959   0.633   4.227   8.354 -0.2570  0.5864  0.4400
18623SOL     OW61960  10.642   4.973   0.394  0.2050 -0.1737  0.5642
18623SOL    HW161961  10.579   4.917   0.440 -0.3493 -0.2416 -0.2350
18623SOL    HW261962  10.590   5.013   0.324  1.2953 -1.1704 -0.8811
18624SOL     OW61963   5.519   0.147   0.761  0.2787  0.1098 -0.7134
18624SOL    HW161964   5.427   0.152   0.784  0.0995 -1.6283 -0.9062
18624SOL    HW261965   5.564   0.130   0.844  0.5693  1.7911 -0.4768
18625SOL     OW61966   3.154   3.425   8.267  0.3389 -0.6030  0.4506
18625SOL    HW161967   3.083   3.430   8.332  1.2590  0.4235  1.4015
18625SOL    HW261968   3.189   3.336   8.277 -0.3244 -0.8665  0.4892
18626SOL     OW61969   8.589   0.526   3.478 -0.5722 -0.5674 -0.0425
18626SOL    HW161970   8.516   0.475   3.443  0.7694 -1.4017 -1.7941
18626SOL    HW261971   8.649   0.460   3.513 -0.2261  0.0305  0.5041
18627SOL     OW61972   1.943   7.923   4.015 -0.3817  0.0318 -0.3007
18627SOL    HW161973   1.985   7.941   4.099 -0.2338 -0.4277 -0.2749
18627SOL    HW261974   1.904   7.837   4.025 -1.6509  0.5951 -0.2067
18628SOL     OW61975   2.206  10.753   7.255 -0.0687  0.0960 -0.1440
18628SOL    HW161976   2.245  10.821   7.199  2.8272  0.2709  1.8988
18628SOL    HW261977   2.193  10.679   7.196  1.3986  0.7718 -1.3910
18629SOL     OW61978  10.179   8.519   7.090 -0.4678  0.7806  0.4919
18629SOL    HW161979  10.155   8.482   7.175 -1.7300  2.2041  0.8009
18629SOL    HW261980  10.098   8.518   7.040  0.5413 -1.2973 -1.2555
18630SOL     OW61981   3.578   7.775   1.988  0.1621  0.0245 -0.6991
18630SOL    HW161982   3.548   7.819   2.068  3.5480 -0.1359  0.8771
18630SOL    HW261983   3.538   7.688   1.991 -1.0404  0.5853 -0.0584
18631SOL     OW61984   5.892  10.310  10.463  0.1874 -0.4916 -0.2373
18631SOL    HW161985   5.867  10.225  10.426  1.6773 -1.0163 -0.1136
18631SOL    HW261986   5.904  10.367  10.387 -0.1054 -0.5983 -0.3630
18632SOL     OW61987   6.188   9.642   1.349  0.4068  0.1430  0.2095
18632SOL    HW161988   6.166   9.715   1.407  0.3102 -0.8822  1.5170
18632SOL    HW261989   6.201   9.568   1.408 -0.5859 -1.1677 -1.1513
18633SOL     OW61990   4.311   6.350   3.472 -0.1016  0.3498  0.3224
18633SOL    HW161991   4.326   6.278   3.533 -0.5432 -1.4001 -1.5115
18633SOL    HW261992   4.242   6.317   3.413 -0.4262  2.3462 -0.4936
18634SOL     OW61993   6.239   9.309   2.887 -0.5166  0.4333  0.2231
18634SOL    HW161994   6.197   9.336   2.805  1.3338  0.2273 -0.8516
18634SOL    HW261995   6.179   9.244   2.924 -2.5033  2.1527  0.2289
18635SOL     OW61996   6.156   6.685   8.552 -0.2399 -0.4236  0.5077
18635SOL    HW161997   6.243   6.723   8.541 -1.2662  1.4455 -2.5658
18635SOL    HW261998   6.171   6.602   8.597  3.4054 -1.1352 -1.6149
18636SOL     OW61999   5.676   8.931   2.414 -0.0277  0.3267  0.2519
18636SOL    HW162000   5.710   8.879   2.487  0.2492  0.1280 -0.0141
18636SOL    HW262001   5.604   8.981   2.452  1.1662  1.4983  1.0675
18637SOL     OW62002   6.569   7.272   7.702  0.3442  0.0958 -0.7347
18637SOL    HW162003   6.633   7.204   7.680  0.5804  0.4888 -1.3063
18637SOL    HW262004   6.577   7.283   7.796  0.9798 -0.0070 -0.7708
18638SOL     OW62005   3.596   5.501   3.800  0.0622  0.6434  0.2764
18638SOL    HW162006   3.630   5.552   3.727  0.8428  1.2930  1.0598
18638SOL    HW262007   3.549   5.565   3.854 -1.1974  0.0169 -0.0616
18639SOL     OW62008   5.179   8.087  10.559 -0.1549 -0.7566  0.5089
18639SOL    HW162009   5.152   8.051  10.474 -1.3443 -0.5500  0.7718
18639SOL    HW262010   5.240   8.022  10.594 -0.0954 -1.1270 -0.2583
18640SOL     OW62011   7.329   1.854   4.739  0.0169  0.4821  0.3326
18640SOL    HW162012   7.254   1.878   4.793 -0.1506 -1.4350  1.0607
18640SOL    HW262013   7.402   1.848   4.800 -0.2335 -1.9950  0.4955
18641SOL     OW62014   7.241   3.294   4.800  0.1263 -0.1222  0.2500
18641SOL    HW162015   7.313   3.254   4.849 -0.8150 -1.2228  0.7743
18641SOL    HW262016   7.167   3.234   4.813 -0.3494 -0.0743 -1.9505
18642SOL     OW62017  10.824   0.394  10.851  0.2889 -0.1344 -0.0625
18642SOL    HW162018  10.761   0.391  10.923  0.5844 -0.6524  0.1774
18642SOL    HW262019  10.817   0.483  10.817 -0.4138 -0.1201  0.1003
18643SOL     OW62020   3.026   7.414   7.070  0.0201 -0.0334  0.4840
18643SOL    HW162021   3.058   7.384   6.985  0.8643 -0.9621  1.1132
18643SOL    HW262022   3.105   7.434   7.120 -0.4694  3.3895  0.1175
18644SOL     OW62023   7.652   6.231   6.451  0.1899 -0.3845 -0.1505
18644SOL    HW162024   7.675   6.146   6.489 -0.3425 -0.8409 -0.8274
18644SOL    HW262025   7.690   6.295   6.511 -2.1460 -1.0246  2.1511
18645SOL     OW62026   7.625   4.513   2.372  0.2458 -0.5381 -0.3863
18645SOL    HW162027   7.602   4.443   2.434  0.1780 -0.7282 -0.6241
18645SOL    HW262028   7.562   4.503   2.301  1.4170 -1.4440 -1.3430
18646SOL     OW62029   5.675   5.245   8.660 -0.1461  0.0170 -0.3307
18646SOL    HW162030   5.769   5.252   8.644 -0.1837  0.3004 -0.4299
18646SOL    HW262031   5.645   5.183   8.594 -0.4078  1.6736 -1.8581
18647SOL     OW62032  10.444  10.272   9.296  0.0673 -0.4740  0.4151
18647SOL    HW162033  10.437  10.178   9.316 -0.2406  0.0811  3.3521
18647SOL    HW262034  10.408  10.315   9.373  2.0412  2.1012  0.0064
18648SOL     OW62035   8.802   6.570   3.666  0.0374  0.2107  0.0801
18648SOL    HW162036   8.811   6.493   3.722  0.5411  0.4825  0.3767
18648SOL    HW262037   8.887   6.579   3.623 -0.3089  0.0686 -0.6507
18649SOL     OW62038   0.591   8.104   4.079 -0.1706  0.2964  0.9367
18649SOL    HW162039   0.557   8.031   4.027  1.6182 -0.3169  0.5652
18649SOL    HW262040   0.587   8.073   4.169 -0.8005  0.3364  0.9305
18650SOL     OW62041   7.682   8.107   1.670 -0.2111  0.4053  0.4184
18650SOL    HW162042   7.704   8.156   1.591 -0.5997  2.7521  1.6962
18650SOL    HW262043   7.751   8.041   1.677 -0.3481 -0.0817 -2.0063
18651SOL     OW62044   5.441   9.712  10.460 -0.3593 -0.1976  0.1617
18651SOL    HW162045   5.513   9.701  10.398 -0.6140 -0.5839 -0.0700
18651SOL    HW262046   5.387   9.634  10.449  0.1450 -0.7940  1.6166
18652SOL     OW62047   3.089   9.938   2.768 -0.0752 -0.1012 -0.9808
18652SOL    HW162048   3.073  10.020   2.815  1.3574 -0.1448 -0.3596
18652SOL    HW262049   3.107   9.874   2.837  1.2010 -0.3755 -1.5499
18653SOL     OW62050   7.582   7.422   1.190 -0.8328  0.2700  0.1760
18653SOL    HW162051   7.626   7.496   1.150  0.5184  0.9620  2.7001
18653SOL    HW262052   7.649   7.354   1.196 -0.1994  1.0092  3.2164
18654SOL     OW62053   8.119   8.834  10.223 -0.7693 -0.2237  0.1841
18654SOL    HW162054   8.057   8.762  10.233 -1.3415  0.3238  0.6974
18654SOL    HW262055   8.117   8.879  10.307  1.0301 -0.7214  0.5280
18655SOL     OW62056   5.940  10.070  10.302  0.5320 -0.1657 -0.4064
18655SOL    HW162057   6.028  10.047  10.331  0.4931  0.5404  0.2901
18655SOL    HW262058   5.889   9.990  10.316  0.7261 -0.1247  0.6107
18656SOL     OW62059   6.852   3.094   0.504 -0.2223  0.3927 -0.0861
18656SOL    HW162060   6.823   3.066   0.417  1.6505  1.8634 -1.2623
18656SOL    HW262061   6.868   3.188   0.495 -1.3694  0.8990  2.2871
18657SOL     OW62062   2.764   6.643   9.790 -0.0387  0.1015 -0.0239
18657SOL    HW162063   2.672   6.627   9.810  0.0769 -1.2686 -0.4749
18657SOL    HW262064   2.811   6.572   9.834  0.8761  1.1106  0.6822
18658SOL     OW62065   6.919   1.780   1.889 -0.1580  0.0311 -0.2107
18658SOL    HW162066   6.862   1.845   1.847  0.5396  0.6763 -0.1651
18658SOL    HW262067   6.958   1.732   1.817  1.9734  1.9227 -0.4231
18659SOL     OW62068   3.316   0.434   4.227 -0.0565  0.1171  0.8502
18659SOL    HW162069   3.410   0.445   4.240  0.2144  0.0312 -0.8946
18659SOL    HW262070   3.305   0.340   4.215 -0.2025  0.2474 -0.0688
18660SOL     OW62071   6.710   0.981   6.278 -0.1333 -0.2782 -0.1308
18660SOL    HW162072   6.734   0.988   6.371 -0.0959 -0.4226 -0.1299
18660SOL    HW262073   6.615   0.967   6.279  0.2020 -2.9498  0.0040
18661SOL     OW62074   4.437   5.920   0.138 -0.0418  0.1879 -0.0163
18661SOL    HW162075   4.360   5.923   0.194 -0.9964 -0.2988 -1.2439
18661SOL    HW262076   4.449   5.827   0.118 -0.3533  0.4148 -1.4091
18662SOL     OW62077   3.246   5.901   5.522 -0.0777  0.9306  0.0942
18662SOL    HW162078   3.173   5.840   5.515  1.2606 -0.6670 -0.6583
18662SOL    HW262079   3.258   5.913   5.617  0.9225 -1.6887  0.3850
18663SOL     OW62080   9.899  10.755   3.110  0.5231 -0.3313 -0.4689
18663SOL    HW162081   9.978  10.718   3.150 -0.4550 -0.4389  1.4851
18663SOL    HW262082   9.864  10.684   3.056  0.8040 -0.8955  0.0760
18664SOL     OW62083   2.106   9.992   2.929 -0.8026 -0.0808 -0.8409
18664SOL    HW162084   2.196   9.988   2.897 -1.2901 -0.5270 -2.2441
18664SOL    HW262085   2.071  10.073   2.892 -0.6705  0.6974  0.6449
18665SOL     OW62086   7.222   8.192   9.894 -0.0113  0.7010 -0.4578
18665SOL    HW162087   7.233   8.160   9.984 -2.2252  0.2502 -0.2951
18665SOL    HW262088   7.279   8.269   9.889  1.9637 -0.6151  0.5514
18666SOL     OW62089   0.224   3.517   7.193 -1.0887 -0.1626  0.1343
18666SOL    HW162090   0.292   3.576   7.158 -1.8466  0.5659 -0.1496
18666SOL    HW262091   0.193   3.562   7.272 -2.6704  0.5707 -0.8543
18667SOL     OW62092   2.796   7.600   7.066 -0.4222  0.6456 -0.3831
18667SOL    HW162093   2.739   7.574   6.994 -1.6058 -1.8129  1.2674
18667SOL    HW262094   2.869   7.538   7.063 -2.1270 -1.7493  2.2934
18668SOL     OW62095   7.663  10.229   1.531  0.3364 -0.4096 -0.1538
18668SOL    HW162096   7.682  10.298   1.594  0.9122 -0.4124 -0.3192
18668SOL    HW262097   7.689  10.266   1.446 -2.8123  0.6134 -0.8081
18669SOL     OW62098   3.554   3.661   2.880 -0.0009 -0.5097 -0.3607
18669SOL    HW162099   3.612   3.589   2.854  1.0612  0.0891  0.2977
18669SOL    HW262100   3.466   3.624   2.875  0.5434 -1.9489  0.2665
18670SOL     OW62101   1.078   0.183   4.857  0.6277 -0.0517 -0.2559
18670SOL    HW162102   1.065   0.099   4.901  0.8121  0.1601  0.2112
18670SOL    HW262103   1.102   0.160   4.767 -1.8940 -0.4739 -0.8830
18671SOL     OW62104   3.521   6.848   6.553 -0.3438 -0.6389 -0.1366
18671SOL    HW162105   3.598   6.791   6.558 -0.5293 -0.8804 -0.0099
18671SOL    HW262106   3.447   6.789   6.568 -0.4993 -0.2645  0.5939
18672SOL     OW62107   4.109   8.458   9.200 -0.3144 -0.0061 -0.4399
18672SOL    HW162108   4.129   8.369   9.168 -2.7209 -0.6078 -0.4643
18672SOL    HW262109   4.128   8.515   9.125 -0.4149 -0.7196 -1.0256
18673SOL     OW62110   9.500   2.999   9.542 -0.0656  0.2374 -0.4686
18673SOL    HW162111   9.568   2.943   9.580 -0.0329  0.3815 -0.3180
18673SOL    HW262112   9.524   3.005   9.449 -0.3858 -0.4671 -0.6019
18674SOL     OW62113   7.822   9.759  10.658  0.1062 -0.0385 -0.3052
18674SOL    HW162114   7.802   9.845  10.694  1.8841  1.7833 -3.3073
18674SOL    HW262115   7.757   9.745  10.590 -0.6142 -1.4915  0.6113
18675SOL     OW62116   9.937   4.265   6.860 -0.2606  0.1422  0.2266
18675SOL    HW162117  10.013   4.233   6.812 -0.0908  1.4053 -0.3711
18675SOL    HW262118   9.868   4.201   6.842 -0.2524  0.6747 -1.8793
18676SOL     OW62119  10.250   4.151   7.625  0.6513  0.0631 -0.1205
18676SOL    HW162120  10.328   4.202   7.646 -0.2044  0.5178  2.3938
18676SOL    HW262121  10.239   4.161   7.531  1.8139  2.6957 -0.0849
18677SOL     OW62122   3.299   2.544   9.831  0.5482  0.3177  0.0207
18677SOL    HW162123   3.349   2.463   9.824 -0.8720 -0.4487 -2.2814
18677SOL    HW262124   3.365   2.614   9.832  1.7155 -0.7588 -0.2049
18678SOL     OW62125   4.771  10.821   4.228 -0.5301  0.0552 -0.0068
18678SOL    HW162126   4.805  10.814   4.139  0.1427  2.9314 -0.0706
18678SOL    HW262127   4.786  10.735   4.266  0.4956 -0.8201 -2.2031
18679SOL     OW62128   8.854   8.190   1.122 -0.1594 -0.1189 -0.0749
18679SOL    HW162129   8.905   8.116   1.153 -0.4518 -1.5659 -2.7122
18679SOL    HW262130   8.767   8.154   1.104 -0.7471  1.2099 -0.0706
18680SOL     OW62131   1.770   4.770   8.763 -0.1787 -0.0162  0.0393
18680SOL    HW162132   1.827   4.844   8.742  1.1750 -0.9125  0.3975
18680SOL    HW262133   1.725   4.796   8.843  1.2295 -0.0523  0.8669
18681SOL     OW62134   7.106   8.488   4.189  0.2660 -0.7960  0.4198
18681SOL    HW162135   7.047   8.536   4.246 -0.5793  0.1473 -1.1662
18681SOL    HW262136   7.159   8.556   4.148 -0.7989 -1.1609 -1.7015
18682SOL     OW62137   4.050   9.596   4.064 -0.8899  0.3891  0.0432
18682SOL    HW162138   3.961   9.624   4.043 -1.2429 -1.2823 -0.8772
18682SOL    HW262139   4.102   9.619   3.987 -1.2787 -1.7248 -0.9313
18683SOL     OW62140   4.264   4.403   4.174 -0.4903  0.1371  0.7912
18683SOL    HW162141   4.176   4.422   4.141 -0.5269  3.7283  2.3897
18683SOL    HW262142   4.252   4.396   4.269  0.9474  1.0238  1.0649
18684SOL     OW62143   3.555   1.800   5.156 -0.1574 -0.0575  0.1583
18684SOL    HW162144   3.601   1.722   5.126 -0.2445 -0.6554  1.5055
18684SOL    HW262145   3.555   1.792   5.252 -0.4014  1.4595  0.3044
18685SOL     OW62146   8.318   9.419   1.320 -0.0515  0.0959 -0.8269
18685SOL    HW162147   8.356   9.348   1.371 -1.0488  1.2041  1.6212
18685SOL    HW262148   8.373   9.495   1.341 -0.1474  0.4819 -1.9042
18686SOL     OW62149   3.244   1.032   8.699 -0.2071 -0.3871 -0.1814
18686SOL    HW162150   3.243   1.050   8.793 -1.8633 -0.5423 -0.1517
18686SOL    HW262151   3.153   1.039   8.671 -0.1556 -2.9834 -1.2778
18687SOL     OW62152   0.555   1.480   4.434  0.0994  0.5456  0.0856
18687SOL    HW162153   0.596   1.401   4.469 -0.1025  1.0406  1.4888
18687SOL    HW262154   0.567   1.473   4.339  0.2995 -1.0381  0.2021
18688SOL     OW62155   6.218   4.738  10.270  0.4343  0.1463 -0.1315
18688SOL    HW162156   6.140   4.746  10.215 -0.8936 -0.8305  1.5058
18688SOL    HW262157   6.291   4.760  10.212 -1.0482  1.1894 -1.6941
18689SOL     OW62158   5.317   6.532   8.593  0.4870  0.4634 -0.6773
18689SOL    HW162159   5.378   6.460   8.578 -0.5951 -0.4189 -0.9436
18689SOL    HW262160   5.237   6.490   8.623  1.0939  1.7955  3.4554
18690SOL     OW62161   9.394   6.194   5.122  0.8324  0.2288  0.2812
18690SOL    HW162162   9.400   6.233   5.035  1.7261 -0.3611  0.0634
18690SOL    HW262163   9.484   6.168   5.143  0.3423 -1.3254  0.5942
18691SOL     OW62164   0.924   4.220   7.840  0.2626 -0.0760  0.3034
18691SOL    HW162165   0.939   4.225   7.935  0.0432 -1.2534  0.4135
18691SOL    HW262166   0.972   4.295   7.805 -0.1033  0.7044  1.3888
18692SOL     OW62167   5.920   6.527   6.787  0.0797  0.0181 -0.3345
18692SOL    HW162168   5.901   6.538   6.881 -1.3405  1.6187 -0.7533
18692SOL    HW262169   5.853   6.466   6.756 -0.3760  0.6288 -0.5715
18693SOL     OW62170   9.585   2.710   8.730  0.1380  0.5929 -0.0041
18693SOL    HW162171   9.550   2.650   8.796  0.7253 -1.1580 -1.2236
18693SOL    HW262172   9.641   2.770   8.779 -0.8537  0.5037  1.3122
18694SOL     OW62173   8.488   0.631   2.917 -0.7026 -0.1023 -0.2004
18694SOL    HW162174   8.518   0.614   2.828 -2.0435 -1.5684 -0.4211
18694SOL    HW262175   8.426   0.703   2.908 -0.0010  0.5003 -0.2739
18695SOL     OW62176  10.462   2.238   3.608 -0.1883 -0.2424 -0.1624
18695SOL    HW162177  10.524   2.272   3.544  0.7776  0.7083  1.2331
18695SOL    HW262178  10.499   2.262   3.693 -2.1638 -0.1843  0.7356
18696SOL     OW62179   8.039   8.215   1.518  0.4147  0.3069 -0.2116
18696SOL    HW162180   8.109   8.170   1.566 -0.5020  0.9843  1.9011
18696SOL    HW262181   8.079   8.241   1.435  1.8164 -1.7702 -0.2579
18697SOL     OW62182   2.626   2.080   3.646 -0.5494  0.2941  0.2632
18697SOL    HW162183   2.720   2.098   3.654 -0.0541 -2.4373  2.3494
18697SOL    HW262184   2.587   2.165   3.628  2.3944  1.3440 -2.2050
18698SOL     OW62185  10.687   8.764   7.930  0.2521  0.5162 -0.1694
18698SOL    HW162186  10.636   8.759   8.011  2.0385  0.6337  1.0095
18698SOL    HW262187  10.621   8.774   7.862 -1.3112  0.6033  1.2730
18699SOL     OW62188   8.414   0.367   2.974  0.7394  0.1190 -0.3743
18699SOL    HW162189   8.480   0.299   2.989  0.6872  0.0059 -0.6511
18699SOL    HW262190   8.464   0.449   2.969  0.9689 -0.0900 -1.5998
18700SOL     OW62191   7.403   2.274   3.944  0.5549  0.5029 -0.7899
18700SOL    HW162192   7.371   2.319   4.023  0.4227 -1.4366  0.3190
18700SOL    HW262193   7.498   2.275   3.953  0.6458  1.9392 -1.6036
18701SOL     OW62194   9.111   7.817   3.695 -0.4575 -0.2487 -0.0030
18701SOL    HW162195   9.030   7.783   3.656 -0.1194 -0.0662 -0.8893
18701SOL    HW262196   9.130   7.896   3.645  1.3556 -1.3714 -1.1951
18702SOL     OW62197   3.798   7.346   9.096  0.2681  0.3210  0.1314
18702SOL    HW162198   3.870   7.385   9.046  0.0745 -0.7345 -1.0052
18702SOL    HW262199   3.780   7.263   9.052 -0.1112 -0.5223  1.7888
18703SOL     OW62200   3.408  10.323   5.754  0.0963  0.3412  0.5773
18703SOL    HW162201   3.328  10.304   5.803 -0.6243  0.2506 -0.5974
18703SOL    HW262202   3.477  10.276   5.800 -0.9218 -1.5036  0.2891
18704SOL     OW62203   4.099   7.484   7.986 -0.2739 -0.3493 -0.8466
18704SOL    HW162204   4.056   7.437   7.915  0.3212  0.9966 -2.1261
18704SOL    HW262205   4.165   7.538   7.944  1.0141 -0.5079  0.8598
18705SOL     OW62206   5.071  10.422   3.456 -0.0394 -0.1099 -0.2763
18705SOL    HW162207   5.081  10.369   3.534 -0.8100  0.0164 -0.0821
18705SOL    HW262208   5.152  10.473   3.450  0.6813 -1.2430 -0.4293
18706SOL     OW62209   1.525   2.380  10.630  0.5843  0.0183  0.1938
18706SOL    HW162210   1.547   2.431  10.553  0.5181  2.0704  1.4599
18706SOL    HW262211   1.466   2.312  10.598  1.6755 -0.0714 -1.7604
18707SOL     OW62212   2.699   5.087   2.200 -0.2483  0.1052 -0.5375
18707SOL    HW162213   2.698   5.114   2.292 -0.0523 -1.3670 -0.0789
18707SOL    HW262214   2.791   5.069   2.181 -0.2062  0.9594 -1.2094
18708SOL     OW62215   9.373   9.406   1.541 -0.2220  0.3592  0.6234
18708SOL    HW162216   9.394   9.465   1.468 -0.1766  0.4155  0.6812
18708SOL    HW262217   9.318   9.459   1.599 -0.9279  0.0549  0.2324
18709SOL     OW62218   4.750   8.725   6.664  0.4141  0.0590  0.4415
18709SOL    HW162219   4.837   8.705   6.699 -0.3920 -0.6926  2.1350
18709SOL    HW262220   4.740   8.664   6.591  1.0776 -0.2478  0.5932
18710SOL     OW62221   2.904   1.711   0.196 -0.4274  0.0776  0.3819
18710SOL    HW162222   2.810   1.703   0.216 -0.7615  0.4322 -0.9020
18710SOL    HW262223   2.923   1.804   0.209 -0.3988  0.1153  0.0746
18711SOL     OW62224   6.677   2.152   4.275 -0.2692  0.0895 -0.2916
18711SOL    HW162225   6.594   2.157   4.228  1.1889 -0.5600 -3.1442
18711SOL    HW262226   6.689   2.058   4.293  0.1995  0.0851 -0.6040
18712SOL     OW62227   9.521   4.414   7.439  1.0628  0.2196  0.4496
18712SOL    HW162228   9.489   4.483   7.496  1.1184  1.2689 -0.7474
18712SOL    HW262229   9.616   4.423   7.441  1.0414  0.8800 -0.5000
18713SOL     OW62230   5.827   0.123   9.891  0.3075  0.9951 -0.3024
18713SOL    HW162231   5.880   0.186   9.842  0.0825  1.2351 -0.2372
18713SOL    HW262232   5.777   0.176   9.953 -0.8260  0.8805 -1.0879
18714SOL     OW62233   4.087   6.854   3.695 -0.3835  0.4380 -0.3713
18714SOL    HW162234   4.163   6.837   3.750 -0.4905  3.5210  0.9044
18714SOL    HW262235   4.123   6.898   3.618 -0.7613  0.9955 -0.2312
18715SOL     OW62236   1.886   7.494   3.044  0.2292  0.3687  0.0321
18715SOL    HW162237   1.934   7.577   3.039  0.1670  0.4449  0.5978
18715SOL    HW262238   1.914   7.455   3.127 -2.1840  1.3786  1.4510
18716SOL     OW62239   6.926   2.599   2.947 -0.5751  0.4603  0.4390
18716SOL    HW162240   6.944   2.578   2.856  0.9042  0.4323  0.7076
18716SOL    HW262241   7.002   2.566   2.995 -2.5292 -2.0256  2.0681
18717SOL     OW62242  10.673   8.558   0.670  0.3562  0.0043 -0.6252
18717SOL    HW162243  10.616   8.626   0.708  1.5007  0.8612 -0.3678
18717SOL    HW262244  10.647   8.478   0.714 -1.0120  0.2603 -0.9046
18718SOL     OW62245  10.446   8.098   5.037  0.1073 -0.5563 -0.3226
18718SOL    HW162246  10.383   8.039   5.078  0.3518  0.7770  2.1797
18718SOL    HW262247  10.512   8.113   5.104  0.9845  1.1717 -1.4870
18719SOL     OW62248   0.809   2.416   4.309  0.7705 -0.4463 -0.5527
18719SOL    HW162249   0.758   2.442   4.232 -1.2589  0.2788  0.9298
18719SOL    HW262250   0.766   2.336   4.340 -1.4621  1.6859  2.3482
18720SOL     OW62251  10.459   4.421   8.518  0.0868 -0.2770  0.3352
18720SOL    HW162252  10.444   4.513   8.539 -1.2931  0.2349 -2.3769
18720SOL    HW262253  10.554   4.411   8.522  0.2317  1.1527  1.0636
18721SOL     OW62254   4.277   9.644   4.554 -0.1450 -0.2591  0.0394
18721SOL    HW162255   4.348   9.639   4.490 -0.1224  1.3993 -0.1111
18721SOL    HW262256   4.198   9.651   4.501  0.0485  3.8893 -0.0054
18722SOL     OW62257   2.808  10.547   4.606 -0.4069  0.3808  0.3711
18722SOL    HW162258   2.809  10.637   4.576 -3.4536  0.1113 -0.9618
18722SOL    HW262259   2.721  10.515   4.583  0.6315 -2.9985  0.5316
18723SOL     OW62260   4.539   0.272   9.400  0.0473 -0.4515  0.1428
18723SOL    HW162261   4.477   0.210   9.361 -0.9310  0.0533  0.8650
18723SOL    HW262262   4.485   0.335   9.446  0.9942  1.1208 -0.7776
18724SOL     OW62263   2.670   5.048  10.709 -0.0051 -0.0245  0.3680
18724SOL    HW162264   2.628   5.000  10.638 -0.6200 -1.5260  1.6802
18724SOL    HW262265   2.600   5.068  10.770  0.5008  1.3079  0.5593
18725SOL     OW62266  10.275   8.652  10.729  0.2068 -0.3351 -0.1152
18725SOL    HW162267  10.356   8.701  10.741 -0.1014  0.8767 -2.4154
18725SOL    HW262268  10.206   8.713  10.755 -0.0546 -0.9019  0.5618
18726SOL     OW62269   6.438   5.175   8.783 -0.7251 -0.3020 -0.0240
18726SOL    HW162270   6.475   5.101   8.831 -1.3873 -0.5221  0.1588
18726SOL    HW262271   6.458   5.157   8.691  1.0289  0.3917  0.1831
18727SOL     OW62272   2.016   2.859  10.040 -0.5564 -0.4074 -0.0293
18727SOL    HW162273   1.992   2.791  10.103 -0.1428 -0.5650 -0.0356
18727SOL    HW262274   1.952   2.851   9.970 -1.3578  0.1295  0.6174
18728SOL     OW62275   9.708   3.959   6.029  0.3628  0.4195 -0.3150
18728SOL    HW162276   9.672   4.042   5.999 -1.7436 -0.3292 -0.0423
18728SOL    HW262277   9.668   3.894   5.970 -0.2825 -0.6382  1.2372
18729SOL     OW62278   6.607   5.405   0.572 -0.4241 -0.2272 -0.0648
18729SOL    HW162279   6.515   5.424   0.588 -0.3448  0.0466  0.0778
18729SOL    HW262280   6.608   5.358   0.489 -0.7800 -1.0771  0.4021
18730SOL     OW62281   6.504   1.275   9.589  0.6154  0.1449 -0.0466
18730SOL    HW162282   6.592   1.286   9.553 -0.3361  1.9658 -2.0313
18730SOL    HW262283   6.454   1.232   9.520 -0.4000  0.4216  0.4856
18731SOL     OW62284   8.382   9.274   3.792  0.6293  0.8173  0.5841
18731SOL    HW162285   8.322   9.277   3.867  1.5272  0.2485  1.3514
18731SOL    HW262286   8.409   9.365   3.779 -1.9339  1.4526 -1.1047
18732SOL     OW62287  10.801   9.709   7.263  0.0325 -0.0955 -0.0580
18732SOL    HW162288  10.836   9.783   7.214  0.5911 -0.2149  0.1480
18732SOL    HW262289  10.767   9.649   7.197  0.3489 -0.0382 -0.2766
18733SOL     OW62290   2.578   3.067   3.225 -0.5634  0.0405 -0.1245
18733SOL    HW162291   2.511   3.136   3.223 -0.1880  0.4065 -0.1111
18733SOL    HW262292   2.598   3.056   3.318  0.2741  0.7905 -0.2071
18734SOL     OW62293   5.491   8.983  10.254  0.0911  0.1403 -0.1216
18734SOL    HW162294   5.556   9.035  10.208 -0.9174  1.1030 -0.5031
18734SOL    HW262295   5.415   9.041  10.263 -1.6678 -1.6944 -1.9315
18735SOL     OW62296   0.634   9.043  10.273  0.2154  0.0684  0.0776
18735SOL    HW162297   0.541   9.041  10.252  0.1369  0.3480  0.3934
18735SOL    HW262298   0.665   8.954  10.254  0.3877  0.5822 -2.2780
18736SOL     OW62299   9.428   2.280   7.748  0.2350  0.5073  0.3653
18736SOL    HW162300   9.463   2.235   7.825 -1.0157  0.5251  0.9538
18736SOL    HW262301   9.373   2.215   7.705  0.5743  0.6414 -0.2889
18737SOL     OW62302   1.939   7.213   0.079 -0.1279 -0.6996  0.3783
18737SOL    HW162303   1.966   7.302   0.058  0.5738 -1.3685 -1.8134
18737SOL    HW262304   1.855   7.202   0.034  0.7324 -1.7251 -1.0641
18738SOL     OW62305   2.555   9.100   4.527  0.4863 -0.9216  0.0819
18738SOL    HW162306   2.467   9.102   4.491  0.6339 -2.0727 -0.3998
18738SOL    HW262307   2.606   9.051   4.463  1.7745  0.7367 -0.2470
18739SOL     OW62308   5.097   6.294   1.974 -0.2272  0.2784 -0.5650
18739SOL    HW162309   5.055   6.226   1.921 -0.2154  1.0135 -1.5410
18739SOL    HW262310   5.037   6.368   1.970 -0.5845  0.1105  1.0884
18740SOL     OW62311   5.728   3.355   3.501 -0.0634  0.1095  0.6674
18740SOL    HW162312   5.719   3.289   3.570  2.5537 -0.9056  0.1377
18740SOL    HW262313   5.732   3.439   3.547 -1.8749 -0.1719  1.4394
18741SOL     OW62314   0.922   0.890   3.897  0.2152 -0.2836  0.1630
18741SOL    HW162315   0.940   0.809   3.848  1.6670  0.5964 -0.8515
18741SOL    HW262316   1.004   0.940   3.890 -1.2042  2.0666 -0.8240
18742SOL     OW62317   0.231   0.005  10.720 -0.2031  0.2509  0.0590
18742SOL    HW162318   0.159   0.068  10.716 -1.4347 -1.1223 -1.7491
18742SOL    HW262319   0.275   0.014  10.636  1.8039  1.0656  1.1512
18743SOL     OW62320   9.423   7.815   3.449 -0.2394 -0.5463 -0.1949
18743SOL    HW162321   9.396   7.771   3.529 -0.1829 -1.2548 -0.5522
18743SOL    HW262322   9.380   7.766   3.379 -2.2820  1.5364 -0.5144
18744SOL     OW62323   1.865   9.800   1.861 -0.0696  0.8803  0.1298
18744SOL    HW162324   1.913   9.872   1.902 -1.0612  1.2560  0.6787
18744SOL    HW262325   1.866   9.731   1.928 -0.6121  1.0319  0.2984
18745SOL     OW62326   2.131   2.381   5.954  0.1334 -0.5503  0.3525
18745SOL    HW162327   2.062   2.348   5.896  0.2016 -1.7591  0.9393
18745SOL    HW262328   2.184   2.438   5.897 -0.8679 -0.2396 -0.2985
18746SOL     OW62329   8.272   4.699   4.569 -0.0960  0.4892 -0.1864
18746SOL    HW162330   8.196   4.728   4.519 -0.4038  1.3053  0.7270
18746SOL    HW262331   8.272   4.604   4.561 -1.6227  0.4222  0.3728
18747SOL     OW62332   8.248   6.023   6.972  0.3646  0.0702  0.3950
18747SOL    HW162333   8.167   5.980   6.945 -0.7127  1.3964  1.3676
18747SOL    HW262334   8.235   6.043   7.065  1.0561  1.8802  0.1431
18748SOL     OW62335  10.805   1.728   7.166 -0.4525 -0.0527 -0.5227
18748SOL    HW162336  10.816   1.660   7.099  0.9002  0.7358 -1.1448
18748SOL    HW262337  10.783   1.807   7.116  0.6853  0.5709 -0.0541
18749SOL     OW62338   7.429   6.504   5.832  0.0331  0.1766  0.1116
18749SOL    HW162339   7.449   6.417   5.865  1.6574  0.3300 -0.4025
18749SOL    HW262340   7.510   6.554   5.843  0.7285  0.2872 -3.9130
18750SOL     OW62341   5.157   3.110   2.058 -0.1455 -0.0703  0.1001
18750SOL    HW162342   5.145   3.036   2.117 -0.6187  0.8040  1.1439
18750SOL    HW262343   5.090   3.173   2.086  0.2094  0.7201 -0.8003
18751SOL     OW62344   5.874   2.816  10.721 -0.0375 -0.3319  0.4748
18751SOL    HW162345   5.930   2.804  10.644 -0.8700 -0.2724 -0.1577
18751SOL    HW262346   5.822   2.735  10.726 -2.3129  0.9255 -1.0034
18752SOL     OW62347   4.927   4.356   0.620  0.4459 -0.0298  0.3327
18752SOL    HW162348   4.856   4.315   0.572  0.7267  0.6991 -0.7299
18752SOL    HW262349   4.884   4.401   0.693 -0.1312  0.0707 -0.0654
18753SOL     OW62350   8.204   1.192   3.464 -0.2239  0.3156 -0.2767
18753SOL    HW162351   8.213   1.100   3.492  0.6500  0.4412 -0.1438
18753SOL    HW262352   8.253   1.241   3.529  0.2728  0.7836 -1.0051
18754SOL     OW62353   0.880   4.638   7.809  0.0580  0.0695 -0.3318
18754SOL    HW162354   0.953   4.575   7.807  1.2144  1.3198  0.4193
18754SOL    HW262355   0.900   4.699   7.738 -1.2831 -0.6198 -1.3326
18755SOL     OW62356   4.646   2.847   2.769  0.8372 -0.5075 -0.3756
18755SOL    HW162357   4.725   2.860   2.822 -0.6064  0.5543  1.6628
18755SOL    HW262358   4.613   2.761   2.795  1.3582 -1.0165 -1.3351
18756SOL     OW62359   2.373   8.259   6.186  0.6554 -0.3682 -0.5755
18756SOL    HW162360   2.406   8.337   6.231  0.0257 -0.5740  0.2832
18756SOL    HW262361   2.451   8.220   6.146  1.0704  0.3820 -0.5230
18757SOL     OW62362   5.305   2.706   3.286  0.4936  0.0147 -0.1567
18757SOL    HW162363   5.369   2.770   3.318  0.3580  0.7796 -1.3555
18757SOL    HW262364   5.226   2.757   3.271  0.0247 -0.6694 -0.0288
18758SOL     OW62365   6.640   7.970   2.735 -0.0123 -0.4254 -0.0564
18758SOL    HW162366   6.674   7.881   2.743  0.1781 -0.6787 -2.7145
18758SOL    HW262367   6.714   8.022   2.705 -0.6434  0.1195 -0.7310
18759SOL     OW62368   7.096   1.860   2.984  0.5025  0.1924  0.4134
18759SOL    HW162369   7.005   1.888   2.988  0.5636  0.5210 -0.3752
18759SOL    HW262370   7.114   1.851   2.890  0.9712 -0.8883  0.5953
18760SOL     OW62371   7.591   8.546   6.178  0.3184 -0.3898 -0.4611
18760SOL    HW162372   7.502   8.523   6.204  0.1858  0.5281 -0.0519
18760SOL    HW262373   7.586   8.641   6.161  0.9000 -0.5750 -1.7557
18761SOL     OW62374   6.464   9.306   8.979 -0.9218 -0.3426  0.5384
18761SOL    HW162375   6.507   9.238   8.926  2.4217  2.3967 -0.6101
18761SOL    HW262376   6.424   9.364   8.915 -0.8129  0.5806  1.2923
18762SOL     OW62377   0.530  10.504  10.750 -0.2244 -0.6978  0.1854
18762SOL    HW162378   0.521  10.556  10.830  0.0194 -0.2710 -0.0599
18762SOL    HW262379   0.441  10.477  10.728 -0.4994  0.4622 -0.2304
18763SOL     OW62380   0.223   2.352   0.344  0.2489  0.0176 -0.5976
18763SOL    HW162381   0.315   2.362   0.368  0.4268 -1.6653 -0.5128
18763SOL    HW262382   0.220   2.371   0.250  0.5293  0.8204 -0.4577
18764SOL     OW62383   0.751   9.380   8.505  0.8930  0.1263  0.2432
18764SOL    HW162384   0.753   9.332   8.422 -0.4281 -0.5145  0.5494
18764SOL    HW262385   0.784   9.467   8.483  0.7703 -0.1031 -0.9130
18765SOL     OW62386   4.118  10.545   7.134  1.1298  0.5174 -0.3026
18765SOL    HW162387   4.108  10.595   7.215 -1.0223  0.8438 -0.7127
18765SOL    HW262388   4.050  10.579   7.076  0.6753 -1.7709 -1.1944
18766SOL     OW62389   7.501   0.372   1.928 -0.4069 -0.0904 -0.2156
18766SOL    HW162390   7.473   0.423   2.004 -1.5990 -1.0364  0.0217
18766SOL    HW262391   7.499   0.281   1.958 -0.2671 -0.4257 -1.1892
18767SOL     OW62392   4.119   6.263   0.085  0.2820 -0.0756  0.4882
18767SOL    HW162393   4.185   6.251   0.153  1.4012  3.2327  0.1492
18767SOL    HW262394   4.167   6.300   0.011 -0.9950 -3.0212 -2.0184
18768SOL     OW62395   7.607   7.817   2.489 -0.0857  0.2838  0.1031
18768SOL    HW162396   7.692   7.802   2.530 -0.1613  1.7203  0.8535
18768SOL    HW262397   7.548   7.756   2.533  0.5863 -0.9604 -0.6573
18769SOL     OW62398   3.897   6.290   1.496  0.5240 -0.3529  0.3764
18769SOL    HW162399   3.887   6.384   1.513 -1.0114 -0.1461 -1.4041
18769SOL    HW262400   3.957   6.285   1.422 -1.9467 -0.5003 -1.7548
18770SOL     OW62401   4.484   9.162   3.813  0.2021  0.3344 -0.4419
18770SOL    HW162402   4.482   9.084   3.868 -0.0843  0.0958 -0.7902
18770SOL    HW262403   4.576   9.173   3.790  0.1971 -0.0953 -0.6700
18771SOL     OW62404   9.512   9.906   4.678 -0.0348 -0.5691  0.0189
18771SOL    HW162405   9.460   9.983   4.653  0.6016  0.7661  2.4120
18771SOL    HW262406   9.447   9.837   4.690 -0.9566  0.2934  0.1879
18772SOL     OW62407   6.864   5.175   5.821  0.1139 -0.0203 -0.0475
18772SOL    HW162408   6.855   5.266   5.794  1.4827 -0.3700 -1.8552
18772SOL    HW262409   6.912   5.133   5.750  3.9368 -1.0486  2.8069
18773SOL     OW62410   5.555   6.901  10.340 -0.5259  0.0573  0.3231
18773SOL    HW162411   5.612   6.900  10.263 -0.2683 -1.3487  0.5107
18773SOL    HW262412   5.527   6.811  10.351  0.2115  0.0097  2.4255
18774SOL     OW62413   6.027   1.167   7.855  0.2960 -0.1122  0.5269
18774SOL    HW162414   5.961   1.098   7.857 -0.8466  0.8489 -1.2088
18774SOL    HW262415   6.090   1.139   7.789  0.7079 -0.2314  0.9644
18775SOL     OW62416   2.848   2.657  10.700  0.0579  0.2812  0.0104
18775SOL    HW162417   2.875   2.617  10.783  1.2797 -0.9587 -0.9369
18775SOL    HW262418   2.753   2.662  10.706  0.0413 -0.7987  1.0345
18776SOL     OW62419   4.686   5.707   6.084 -0.0652 -0.2626  0.0278
18776SOL    HW162420   4.608   5.655   6.105 -0.4250 -0.1860 -1.0406
18776SOL    HW262421   4.733   5.656   6.019 -0.3555  0.6697 -0.9426
18777SOL     OW62422   9.263   7.499   1.575 -0.4129 -0.3677 -0.6456
18777SOL    HW162423   9.214   7.474   1.497  2.5132 -0.7796 -2.5152
18777SOL    HW262424   9.355   7.492   1.549  0.7354 -0.7648  2.9349
18778SOL     OW62425   2.451   5.827   1.340 -0.9958 -0.4391 -0.0074
18778SOL    HW162426   2.401   5.907   1.357 -0.1263  0.5576 -1.8162
18778SOL    HW262427   2.465   5.827   1.245  0.7883 -1.6487  0.2090
18779SOL     OW62428  10.173   5.188   6.167 -0.6858 -0.5273 -0.8588
18779SOL    HW162429  10.102   5.210   6.227 -0.6226 -2.9816  0.1994
18779SOL    HW262430  10.132   5.136   6.098 -0.3154  0.1908 -1.6537
18780SOL     OW62431   6.094   8.758   2.400  0.3130 -0.2854  0.5435
18780SOL    HW162432   6.116   8.684   2.456  0.3894 -0.4983  0.2341
18780SOL    HW262433   6.154   8.750   2.325  1.0958  0.7228  1.0464
18781SOL     OW62434   8.856   5.653   7.160  0.1171 -0.2761 -0.5077
18781SOL    HW162435   8.919   5.677   7.229 -1.4874  1.7389  0.3566
18781SOL    HW262436   8.809   5.579   7.196  0.9409 -0.8240 -0.5198
18782SOL     OW62437   0.529   5.085   5.717 -0.1873  0.4527 -0.2687
18782SOL    HW162438   0.574   5.170   5.715 -0.3850  0.7521  2.8592
18782SOL    HW262439   0.466   5.094   5.789 -0.4776 -2.2466 -0.1096
18783SOL     OW62440   8.361   7.996   5.657  0.3662 -0.2557  0.2444
18783SOL    HW162441   8.341   8.072   5.711  0.5171 -0.0251 -0.0258
18783SOL    HW262442   8.455   8.002   5.640  0.2664 -0.1650 -0.2902
18784SOL     OW62443   2.984   7.066   3.232  0.6002 -0.3205 -0.5338
18784SOL    HW162444   2.932   7.145   3.246  1.0784  0.0419 -0.7465
18784SOL    HW262445   3.071   7.099   3.209  0.3389 -0.8934 -2.4709
18785SOL     OW62446   4.842   9.745  10.386  0.4566  0.5776  0.1115
18785SOL    HW162447   4.746   9.744  10.393  0.3689  2.3458 -0.3514
18785SOL    HW262448   4.871   9.680  10.450 -1.1217 -3.0625 -2.5316
18786SOL     OW62449  10.492   9.211   2.257 -0.6128  0.0256 -0.1927
18786SOL    HW162450  10.487   9.286   2.198 -0.6372 -0.5669 -0.9553
18786SOL    HW262451  10.557   9.153   2.218 -0.0599 -0.0348  0.7748
18787SOL     OW62452   7.743   8.369   3.239 -0.1415  0.3132 -0.2511
18787SOL    HW162453   7.755   8.354   3.145  0.5310  2.0927 -0.4951
18787SOL    HW262454   7.730   8.281   3.276  0.2517 -0.4882 -1.9062
18788SOL     OW62455   5.054   3.810   7.935 -0.1093  0.2625 -0.6340
18788SOL    HW162456   5.056   3.805   7.839  0.1868  0.6101 -0.6494
18788SOL    HW262457   5.032   3.901   7.954  1.9156  0.7464 -0.3824
18789SOL     OW62458   1.275   1.551   2.484  0.3750 -0.2668  0.3299
18789SOL    HW162459   1.309   1.577   2.570  0.1760  2.8913 -0.4312
18789SOL    HW262460   1.335   1.590   2.421 -1.2985  0.3482 -0.9719
18790SOL     OW62461   2.765   2.433   1.428  0.4220 -0.5539 -0.0815
18790SOL    HW162462   2.673   2.458   1.417  0.6471 -0.2868 -1.5730
18790SOL    HW262463   2.775   2.420   1.522 -2.3846 -5.1940 -0.0501
18791SOL     OW62464   0.866   2.640   1.127  0.1672  0.0861  0.4215
18791SOL    HW162465   0.872   2.565   1.186 -3.3341 -0.6743  0.0155
18791SOL    HW262466   0.859   2.602   1.039  3.0161  1.1361 -0.3684
18792SOL     OW62467   6.909   4.363   4.671 -0.6280 -0.0650  0.0816
18792SOL    HW162468   6.913   4.284   4.618 -1.2606  0.7193 -1.2098
18792SOL    HW262469   6.952   4.340   4.753  0.7398 -1.2241 -0.9157
18793SOL     OW62470   0.167   5.077   8.958  0.3670  0.3341 -0.2497
18793SOL    HW162471   0.188   5.103   9.048  0.0450 -0.6071  0.1077
18793SOL    HW262472   0.071   5.072   8.956  0.3328 -4.6720  0.9210
18794SOL     OW62473   1.070   5.583   7.272 -0.2514 -0.0772 -0.7331
18794SOL    HW162474   1.159   5.616   7.265 -0.0725 -0.4121 -0.0543
18794SOL    HW262475   1.021   5.633   7.205  0.6016 -0.4845 -1.6875
18795SOL     OW62476   1.930   4.017   4.781  0.2124 -0.2273  0.2187
18795SOL    HW162477   1.981   3.978   4.852  1.9361  0.0393 -0.8202
18795SOL    HW262478   1.863   3.951   4.762  1.6297 -1.6890  0.0529
18796SOL     OW62479   0.264   0.211   4.270 -0.0470  0.6883 -0.2330
18796SOL    HW162480   0.304   0.296   4.249 -0.7597  0.5684 -2.3895
18796SOL    HW262481   0.209   0.192   4.194 -2.2668 -0.3101  1.5149
18797SOL     OW62482   4.438   7.625   3.378  0.2472  0.0943  0.4216
18797SOL    HW162483   4.409   7.622   3.470  0.7176  0.7907  0.6039
18797SOL    HW262484   4.531   7.648   3.383  0.0930  0.9382 -0.2477
18798SOL     OW62485   8.830   9.486   0.597  0.2810  0.1663 -0.2794
18798SOL    HW162486   8.857   9.563   0.547 -1.1572  0.8113 -0.1039
18798SOL    HW262487   8.782   9.432   0.534 -2.4967  1.4878  0.5300
18799SOL     OW62488   2.807   1.508   0.885  0.2644  0.2939 -0.0773
18799SOL    HW162489   2.891   1.547   0.909 -0.1074  1.5174 -0.7058
18799SOL    HW262490   2.815   1.491   0.791 -0.0777  0.1316 -0.0786
18800SOL     OW62491   7.983  10.928   6.538 -0.2702  0.0470 -0.0136
18800SOL    HW162492   7.980  10.886   6.624  2.3292 -0.4910 -0.0886
18800SOL    HW262493   8.016  10.860   6.479  0.9840  1.2511 -0.7777
18801SOL     OW62494  10.529   3.357   1.167  0.5811 -0.5334  0.0422
18801SOL    HW162495  10.598   3.366   1.232  1.4853 -2.1313 -0.6333
18801SOL    HW262496  10.459   3.310   1.213  1.3620 -1.9838 -0.1858
18802SOL     OW62497   1.715   9.950   3.346  0.6242 -0.2202 -0.5149
18802SOL    HW162498   1.734  10.014   3.277 -1.8302  1.1209 -0.0744
18802SOL    HW262499   1.724  10.000   3.427  0.1399 -0.8493 -0.0702
18803SOL     OW62500   4.427   4.835   2.624  0.2580 -1.6891 -0.0326
18803SOL    HW162501   4.506   4.783   2.611  1.3869 -0.0028 -0.2304
18803SOL    HW262502   4.424   4.852   2.718  0.7701 -0.8245 -0.1628
18804SOL     OW62503   5.234   1.796   9.789  0.2815 -0.3885 -1.2490
18804SOL    HW162504   5.191   1.758   9.712  0.8679  0.0729 -1.8189
18804SOL    HW262505   5.233   1.891   9.773 -0.4469 -0.2068 -0.2290
18805SOL     OW62506   9.276   8.853   3.501 -0.4090 -0.1891 -0.3833
18805SOL    HW162507   9.245   8.943   3.490 -0.4021 -0.1697 -0.2480
18805SOL    HW262508   9.342   8.859   3.570 -0.3587 -0.2862 -0.4244
18806SOL     OW62509   8.837   8.622   4.866 -0.0803 -0.0868  0.3647
18806SOL    HW162510   8.834   8.697   4.807  1.3489  1.1061  1.7433
18806SOL    HW262511   8.815   8.658   4.952  0.4647 -1.2901  1.0309
18807SOL     OW62512   9.227   6.814   8.279  0.3867  0.8477 -0.1036
18807SOL    HW162513   9.311   6.769   8.284 -0.9842 -1.9502 -0.5002
18807SOL    HW262514   9.162   6.749   8.305 -1.6754  3.0642  0.7333
18808SOL     OW62515   9.606   0.436   8.579 -0.1902  0.3045 -0.3215
18808SOL    HW162516   9.601   0.444   8.484  0.3345  0.6847 -0.3220
18808SOL    HW262517   9.558   0.355   8.599 -1.0420  0.6830 -0.8198
18809SOL     OW62518   9.576   0.860   6.444  0.3419  0.0899  0.0105
18809SOL    HW162519   9.539   0.942   6.479 -1.9191 -1.0269  0.4595
18809SOL    HW262520   9.533   0.849   6.359 -2.2078 -2.2908  1.4278
18810SOL     OW62521   2.428   9.304   0.239 -0.2736 -0.2460  0.1322
18810SOL    HW162522   2.485   9.380   0.226  0.9008 -1.4592 -2.8594
18810SOL    HW262523   2.339   9.340   0.239  0.3026  1.5517  3.6144
18811SOL     OW62524   7.863   3.498   8.964  0.1096 -0.4099  0.1843
18811SOL    HW162525   7.928   3.544   8.911 -0.2001 -1.4636 -1.1659
18811SOL    HW262526   7.796   3.469   8.901 -0.4667 -1.3794  1.1971
18812SOL     OW62527   4.642   2.083   1.152 -0.9149 -0.0696 -0.8708
18812SOL    HW162528   4.679   2.023   1.087 -2.1801 -0.2210 -1.4776
18812SOL    HW262529   4.671   2.170   1.124 -1.1604 -0.1690 -1.4382
18813SOL     OW62530   5.691   3.715   1.821 -0.0696  0.5363 -0.4222
18813SOL    HW162531   5.620   3.700   1.883 -0.5750 -1.0566 -1.3513
18813SOL    HW262532   5.765   3.666   1.857 -0.6517 -1.2434 -1.5418
18814SOL     OW62533  10.337   1.818   0.072 -0.6305 -0.2991 -0.0814
18814SOL    HW162534  10.429   1.794   0.067 -0.8135 -1.3164  1.0736
18814SOL    HW262535  10.300   1.792  -0.012  0.1204  0.1087 -0.5464
18815SOL     OW62536   1.052   5.957  10.286  0.2020  0.2865 -0.0703
18815SOL    HW162537   1.090   5.961  10.374  0.6545  0.0977 -0.2556
18815SOL    HW262538   0.958   5.951  10.301  0.2036  1.2279  0.3868
18816SOL     OW62539   6.161   8.088   2.694  0.1852  0.1622  0.3681
18816SOL    HW162540   6.086   8.075   2.751  0.0806  0.3772  0.2824
18816SOL    HW262541   6.237   8.083   2.752  0.0299  1.4548  0.7195
18817SOL     OW62542   6.011   5.380   9.889  0.1201 -0.0808 -0.2108
18817SOL    HW162543   6.095   5.423   9.908 -0.3499  0.5916  0.4023
18817SOL    HW262544   6.035   5.300   9.843  1.0054  1.1725 -2.0559
18818SOL     OW62545   1.868   4.375   1.482  0.2493  0.5188 -0.0984
18818SOL    HW162546   1.888   4.298   1.429 -2.6581  0.2793 -1.0452
18818SOL    HW262547   1.803   4.344   1.545 -0.9562  2.1123 -0.4828
18819SOL     OW62548   8.994   7.443   9.286 -0.4730  0.5068  0.2170
18819SOL    HW162549   9.064   7.425   9.349  0.0437  0.7314 -0.2810
18819SOL    HW262550   8.927   7.378   9.306  0.6373 -0.9145 -0.4346
18820SOL     OW62551   0.283   8.437   8.682  0.4791 -0.4035 -0.5301
18820SOL    HW162552   0.253   8.525   8.701  2.1783  0.1363 -0.2198
18820SOL    HW262553   0.364   8.427   8.731  0.1669 -2.2586 -0.3130
18821SOL     OW62554   2.804   0.454   5.113  0.3915 -0.7017 -0.0115
18821SOL    HW162555   2.866   0.499   5.056  0.7065 -1.9654 -0.7043
18821SOL    HW262556   2.844   0.457   5.200  0.8095 -0.3984 -0.2138
18822SOL     OW62557   9.616   7.667   2.602 -0.1139 -0.1097  0.1275
18822SOL    HW162558   9.585   7.709   2.682  1.2087  0.2137  0.4858
18822SOL    HW262559   9.619   7.574   2.622  0.0238 -0.0482  0.3848
18823SOL     OW62560   2.257   7.127   4.979  0.2154 -0.1118  0.0749
18823SOL    HW162561   2.324   7.066   4.948 -0.4424 -1.0392  0.4391
18823SOL    HW262562   2.197   7.073   5.030 -1.0374  0.6164 -0.5739
18824SOL     OW62563   3.580   3.720   0.972  0.1893  0.0615  0.0846
18824SOL    HW162564   3.529   3.750   0.897  0.0103 -1.3782 -0.4020
18824SOL    HW262565   3.536   3.757   1.048 -0.0362  0.9707 -0.4714
18825SOL     OW62566   5.403   1.866   9.278 -0.4886  0.7941  0.0835
18825SOL    HW162567   5.325   1.921   9.272 -1.5036 -0.7235 -1.7509
18825SOL    HW262568   5.371   1.782   9.311  0.5578  0.4441  0.2492
18826SOL     OW62569   0.139   3.887   1.098  0.5353 -0.5452 -0.1502
18826SOL    HW162570   0.212   3.891   1.159 -0.7023 -2.6187  1.6349
18826SOL    HW262571   0.062   3.904   1.152 -0.4748 -0.5330 -1.5341
18827SOL     OW62572   2.299   2.955   3.844 -0.0390  0.3381  0.5377
18827SOL    HW162573   2.326   3.045   3.823 -2.3877  1.2175  1.0131
18827SOL    HW262574   2.322   2.945   3.937  1.7458 -0.1998  0.0777
18828SOL     OW62575   8.199   0.368   8.885  0.2933 -0.1442 -0.2498
18828SOL    HW162576   8.175   0.422   8.960  0.1253 -1.4251  0.6483
18828SOL    HW262577   8.116   0.336   8.851  0.0451  2.8655 -2.9818
18829SOL     OW62578   2.222   6.550   9.836  0.0742 -0.2724 -1.2333
18829SOL    HW162579   2.240   6.457   9.844  0.5862 -0.1245 -0.5877
18829SOL    HW262580   2.249   6.572   9.746  0.6326 -0.5942 -1.1487
18830SOL     OW62581   7.666   2.448   4.341 -0.0973 -0.2929 -0.5461
18830SOL    HW162582   7.614   2.392   4.399 -0.3361  1.2228  0.7751
18830SOL    HW262583   7.691   2.522   4.395 -0.8444  1.5345 -2.5230
18831SOL     OW62584   3.702   4.157   2.102  0.2549  0.0139 -0.3387
18831SOL    HW162585   3.773   4.221   2.110  1.3433 -1.0164 -1.2780
18831SOL    HW262586   3.627   4.198   2.144  1.5997  0.8399  1.3552
18832SOL     OW62587   7.660   8.805   8.653  0.5679  0.1730  0.2916
18832SOL    HW162588   7.751   8.823   8.676  1.7553 -1.0260 -2.9434
18832SOL    HW262589   7.631   8.883   8.606  1.1129 -0.6784 -1.5668
18833SOL     OW62590   2.650  10.850   7.639  0.2350  0.5103  0.1316
18833SOL    HW162591   2.578  10.791   7.618  0.7332 -0.4947  1.1308
18833SOL    HW262592   2.723  10.818   7.585  0.1187  1.1233 -0.3974
18834SOL     OW62593   5.199   9.339   2.243  0.0315  0.1021  0.0449
18834SOL    HW162594   5.280   9.390   2.247  0.4046 -0.5147  0.4703
18834SOL    HW262595   5.148   9.381   2.174  0.6299  0.6149 -0.0953
18835SOL     OW62596   8.073  10.559   1.830  0.1964 -0.6453  0.3508
18835SOL    HW162597   8.090  10.538   1.922  0.1559 -0.5054  0.3908
18835SOL    HW262598   8.057  10.653   1.830 -0.2054 -0.7099  0.2627
18836SOL     OW62599   6.975   8.623   7.179  0.1034  0.0422 -0.7176
18836SOL    HW162600   6.961   8.582   7.094 -0.6952  0.5582 -0.8459
18836SOL    HW262601   6.957   8.716   7.164 -1.3716 -0.0452  0.3017
18837SOL     OW62602   9.448   5.553   8.584 -0.0019 -0.3777 -0.4551
18837SOL    HW162603   9.542   5.570   8.588 -0.0416 -0.2062 -0.2276
18837SOL    HW262604   9.438   5.464   8.617 -0.0033 -0.0939  0.3241
18838SOL     OW62605   3.782   6.988   5.453  0.4709 -0.0638 -0.6076
18838SOL    HW162606   3.796   6.986   5.359  0.3022 -0.7268 -0.6199
18838SOL    HW262607   3.690   6.965   5.465  0.2926  0.7632 -0.3218
18839SOL     OW62608   8.571   2.877   7.937  0.1706 -0.6164 -0.1236
18839SOL    HW162609   8.666   2.872   7.928  0.2501  1.6584 -1.0717
18839SOL    HW262610   8.557   2.894   8.031  0.6780 -1.2098  0.0633
18840SOL     OW62611   3.362   7.969   8.651 -0.2155 -0.5958 -0.7676
18840SOL    HW162612   3.327   7.946   8.737 -3.0129  2.9713 -0.7107
18840SOL    HW262613   3.296   7.938   8.589 -0.6059  0.9121 -1.1590
18841SOL     OW62614   1.987   4.804   1.991 -0.0649 -0.3663 -0.2487
18841SOL    HW162615   2.004   4.713   2.018  0.4134 -0.1861  0.0746
18841SOL    HW262616   2.074   4.840   1.974 -0.1980  0.2377  0.3132
18842SOL     OW62617   1.991   0.093   5.522 -0.4030 -0.0598 -0.0886
18842SOL    HW162618   2.011   0.014   5.571  3.0926  0.0108 -1.1139
18842SOL    HW262619   2.076   0.124   5.490 -1.8307  3.0710 -1.3310
18843SOL     OW62620   5.046   2.158   0.820  0.0686  0.2125 -0.3256
18843SOL    HW162621   4.958   2.140   0.853  0.2104 -0.0547 -0.0900
18843SOL    HW262622   5.042   2.249   0.789 -0.6895 -0.2422 -1.6417
18844SOL     OW62623   8.520   5.812   0.163  0.4488 -0.1790 -0.2314
18844SOL    HW162624   8.482   5.896   0.141 -0.6941 -0.7267 -0.4075
18844SOL    HW262625   8.607   5.833   0.198  0.7503  0.9695 -1.5688
18845SOL     OW62626   9.812  10.509   5.820 -0.0967 -0.2123  0.3775
18845SOL    HW162627   9.833  10.556   5.739  1.1095  0.3072  0.9747
18845SOL    HW262628   9.727  10.543   5.846 -1.0579 -1.2286 -1.2748
18846SOL     OW62629   3.849   1.904   7.321 -0.0278 -0.0989 -0.0080
18846SOL    HW162630   3.896   1.820   7.325 -0.1519 -0.1929 -0.4512
18846SOL    HW262631   3.897   1.961   7.381  1.9709  0.4415 -1.9982
18847SOL     OW62632   7.831   5.797   4.656  0.5623  1.0846  0.1718
18847SOL    HW162633   7.815   5.827   4.746 -0.1932  0.8009  0.1312
18847SOL    HW262634   7.927   5.796   4.649  0.6498  0.5182  1.1778
18848SOL     OW62635   0.204   9.221   6.202 -0.5095  0.3028  0.4895
18848SOL    HW162636   0.285   9.174   6.224  0.2004  1.0672 -0.4399
18848SOL    HW262637   0.197   9.289   6.269 -2.1332 -1.6942  2.5326
18849SOL     OW62638   4.686  10.339   1.900 -0.4403 -0.0477 -0.4617
18849SOL    HW162639   4.761  10.392   1.928 -0.2905 -0.1581 -0.6519
18849SOL    HW262640   4.689  10.262   1.957 -0.1906 -0.2277 -0.7140
18850SOL     OW62641   9.905   1.389   4.000  0.3054  0.0288  0.3714
18850SOL    HW162642   9.873   1.436   3.923  0.0141  0.3817  0.6989
18850SOL    HW262643   9.928   1.302   3.968  0.0249  0.1173 -0.0780
18851SOL     OW62644   3.460   9.779   6.863 -0.2344 -0.6313 -0.1045
18851SOL    HW162645   3.529   9.785   6.798  0.0293 -4.4300 -0.3924
18851SOL    HW262646   3.504   9.793   6.947  0.7602 -1.9724 -0.3668
18852SOL     OW62647   4.010   6.036   6.444  0.2346  0.0124  0.9225
18852SOL    HW162648   4.089   5.981   6.436  0.6016  0.4245  1.6226
18852SOL    HW262649   3.945   5.979   6.485  0.6576  0.1330  1.7712
18853SOL     OW62650   8.205   7.692   1.090 -0.1417 -0.4189 -0.4915
18853SOL    HW162651   8.225   7.718   1.180 -0.7768  0.4182 -0.5817
18853SOL    HW262652   8.260   7.615   1.075  0.5266 -0.1274  0.3564
18854SOL     OW62653   5.030   4.806   8.749  0.0761  0.0996 -0.2552
18854SOL    HW162654   5.010   4.894   8.782 -0.3512  0.4372 -1.3738
18854SOL    HW262655   4.991   4.747   8.814  1.4812  0.7003  1.1820
18855SOL     OW62656   7.647  10.759   8.834 -0.0408 -0.0727 -0.0848
18855SOL    HW162657   7.675  10.672   8.861  0.9572  0.3707  0.3555
18855SOL    HW262658   7.713  10.818   8.871 -0.2298  0.7969 -1.0769
18856SOL     OW62659  10.296   0.163   3.407 -0.3737  0.7127 -0.3380
18856SOL    HW162660  10.328   0.236   3.354  0.4546  0.6513  0.0605
18856SOL    HW262661  10.369   0.140   3.463 -0.4014 -0.8417 -0.8789
18857SOL     OW62662   5.056   6.647  10.121  0.0935  0.4112 -0.0261
18857SOL    HW162663   4.976   6.600  10.100  0.0836 -0.3680  1.5845
18857SOL    HW262664   5.120   6.617  10.056 -0.0707 -1.4550  0.6218
18858SOL     OW62665   8.392   9.556   3.790 -0.3917 -0.6161 -0.2798
18858SOL    HW162666   8.360   9.638   3.753 -1.3053 -0.6043  0.5052
18858SOL    HW262667   8.371   9.561   3.883 -0.9909 -1.9748 -0.3198
18859SOL     OW62668  10.094   2.942   7.644  0.3044  0.9044  0.2654
18859SOL    HW162669  10.035   3.013   7.620 -2.2637 -1.3582 -0.5687
18859SOL    HW262670  10.037   2.866   7.658  2.9574 -1.2900  0.1333
18860SOL     OW62671  10.333   2.400   5.205  0.3780  0.1371 -0.3220
18860SOL    HW162672  10.407   2.454   5.179  0.3405  0.3748  0.0443
18860SOL    HW262673  10.352   2.376   5.296 -0.3473  0.8313  0.0267
18861SOL     OW62674   3.051  10.610   6.629  0.7681 -0.3186  0.2903
18861SOL    HW162675   3.098  10.672   6.686 -0.1468  1.7570 -1.1008
18861SOL    HW262676   3.113  10.592   6.558  0.3465  0.6036 -0.3344
18862SOL     OW62677   3.100   5.320   3.689  0.5749  0.4329  0.2561
18862SOL    HW162678   3.125   5.374   3.614  2.0103  0.6836  0.8841
18862SOL    HW262679   3.181   5.309   3.739  0.0677 -1.2958  0.7897
18863SOL     OW62680   0.169  10.110  10.216 -0.2952  0.1554  0.1520
18863SOL    HW162681   0.130  10.062  10.143  0.6522  1.3507 -1.1767
18863SOL    HW262682   0.164  10.048  10.290 -2.1393 -0.7318 -0.6367
18864SOL     OW62683   7.720   2.483   3.228  0.1864  0.0866  0.2790
18864SOL    HW162684   7.760   2.435   3.301  0.9247 -2.4460 -1.6233
18864SOL    HW262685   7.718   2.574   3.257  1.7015 -0.6075  2.8882
18865SOL     OW62686   7.521   2.893   5.027 -0.4528  0.4582  0.0739
18865SOL    HW162687   7.533   2.864   5.117 -1.1998 -3.0990 -0.8273
18865SOL    HW262688   7.448   2.841   4.994  0.2916  1.0580 -2.8062
18866SOL     OW62689   1.339   4.664   5.340 -0.3955 -1.0315  0.1994
18866SOL    HW162690   1.381   4.660   5.254 -1.3387 -1.0602 -0.2770
18866SOL    HW262691   1.388   4.731   5.388  0.5123 -1.4303 -0.1480
18867SOL     OW62692   6.273   1.680   6.844  0.1912  0.2850  0.4389
18867SOL    HW162693   6.339   1.713   6.783 -0.3075 -1.2715 -1.0195
18867SOL    HW262694   6.305   1.705   6.931  1.1753  2.1372 -0.4035
18868SOL     OW62695   0.423  10.159   0.859  0.1746  0.1876  0.2543
18868SOL    HW162696   0.460  10.197   0.779  1.5903 -0.8834  0.3770
18868SOL    HW262697   0.333  10.135   0.834  0.1870  0.9949 -0.6311
18869SOL     OW62698   9.631   1.285   5.975 -0.3211 -0.2045 -0.1882
18869SOL    HW162699   9.698   1.223   6.006 -0.3305 -0.3008 -0.3566
18869SOL    HW262700   9.548   1.244   5.999 -0.4310 -1.4904 -2.4924
18870SOL     OW62701   1.687   1.632   3.209 -0.2369 -0.0631 -0.2061
18870SOL    HW162702   1.659   1.689   3.138 -0.7177  0.2448  0.2213
18870SOL    HW262703   1.759   1.581   3.173 -2.2993 -2.0123 -1.8733
18871SOL     OW62704   5.549   9.925   5.966 -0.2088  0.5716  0.3384
18871SOL    HW162705   5.642   9.903   5.958  0.3699  2.5305  0.9615
18871SOL    HW262706   5.529   9.908   6.059 -0.1408  1.2405  0.4807
18872SOL     OW62707   4.486   2.686   3.892  0.0890  0.0105 -0.2609
18872SOL    HW162708   4.396   2.718   3.899  0.0618 -0.1420  0.1220
18872SOL    HW262709   4.536   2.742   3.953  0.9719  2.6017 -3.0846
18873SOL     OW62710   6.609   7.189  10.545 -0.1064  0.1166  0.1893
18873SOL    HW162711   6.647   7.260  10.493 -0.7585 -0.6593 -1.4464
18873SOL    HW262712   6.575   7.231  10.623 -2.3860  2.0369 -1.6760
18874SOL     OW62713   0.512  10.221   0.580 -0.1430  0.2444 -0.0435
18874SOL    HW162714   0.445  10.287   0.595  0.9217  1.9287 -2.0659
18874SOL    HW262715   0.595  10.270   0.583  0.8613 -1.4140  0.5335
18875SOL     OW62716  10.390   9.881   9.747 -0.1171  0.0853 -0.0231
18875SOL    HW162717  10.336   9.849   9.675  2.4488 -1.3314 -1.4750
18875SOL    HW262718  10.333   9.879   9.823 -2.0892 -1.2318 -1.4375
18876SOL     OW62719   2.419   7.536   3.554 -0.4330 -0.3811 -0.3362
18876SOL    HW162720   2.488   7.568   3.611  1.5509 -1.3101 -2.0957
18876SOL    HW262721   2.364   7.482   3.611  0.7517 -0.2772  0.9558
18877SOL     OW62722   2.321   0.408   6.625  0.1292  0.1174 -0.1246
18877SOL    HW162723   2.261   0.456   6.682 -3.3267 -3.7491  0.0007
18877SOL    HW262724   2.391   0.378   6.682 -0.4684  0.6547  0.9074
18878SOL     OW62725   3.195   6.499   7.038 -0.3886  0.6623  0.2976
18878SOL    HW162726   3.143   6.510   7.118  0.8897 -2.8160  1.8504
18878SOL    HW262727   3.172   6.411   7.007  3.7932 -0.7624  0.6481
18879SOL     OW62728   6.992   3.760   9.895  0.2899 -0.8700 -0.0348
18879SOL    HW162729   6.979   3.749   9.801  0.2694 -0.4517 -0.0866
18879SOL    HW262730   7.076   3.719   9.913  0.7603 -0.1088 -0.4184
18880SOL     OW62731   5.424   8.160   7.625 -0.5076 -0.1116  0.0007
18880SOL    HW162732   5.472   8.105   7.687  1.6459  0.9852 -0.6043
18880SOL    HW262733   5.453   8.249   7.643 -2.8141  0.7259 -0.0332
18881SOL     OW62734   2.185   4.625   0.480 -0.3300  0.9930  0.3034
18881SOL    HW162735   2.185   4.629   0.575 -0.2520  0.4749  0.3277
18881SOL    HW262736   2.271   4.658   0.455  0.0156  0.2274  0.4591
18882SOL     OW62737   6.300  10.696   7.033  0.1362 -0.2400  0.0882
18882SOL    HW162738   6.372  10.690   6.970  0.3335 -0.6362  0.3414
18882SOL    HW262739   6.265  10.784   7.021 -0.1370 -0.4755 -0.8970
18883SOL     OW62740   4.741   1.936   8.981 -0.7328 -0.3532  0.2860
18883SOL    HW162741   4.835   1.945   8.995 -0.7943  0.2691  0.3155
18883SOL    HW262742   4.733   1.880   8.904 -0.3573 -1.3802  0.9759
18884SOL     OW62743   7.234   1.265   8.774  0.0976 -0.0483  0.3612
18884SOL    HW162744   7.259   1.210   8.848  1.7211 -1.1972 -0.9580
18884SOL    HW262745   7.310   1.321   8.760 -0.7466  1.1387  0.4089
18885SOL     OW62746   7.793   1.799   6.027  0.2342 -0.2537  0.1302
18885SOL    HW162747   7.884   1.771   6.021  0.4801  0.6183 -0.3117
18885SOL    HW262748   7.766   1.815   5.936  0.8198  3.0873  0.4074
18886SOL     OW62749   4.719   3.738   6.917 -0.0021  0.4089  0.1901
18886SOL    HW162750   4.773   3.662   6.897  0.3772  0.7980 -0.2911
18886SOL    HW262751   4.632   3.714   6.885 -0.8237 -1.2641  3.2585
18887SOL     OW62752   2.758   6.655   5.928  0.3704  0.2770  0.2338
18887SOL    HW162753   2.833   6.632   5.873 -0.5666  1.1638 -1.5099
18887SOL    HW262754   2.724   6.735   5.890 -2.4628 -0.9727 -0.1395
18888SOL     OW62755   7.396   7.009   6.101  0.2297  0.2866  0.2270
18888SOL    HW162756   7.303   7.031   6.108 -0.3415 -1.9010  0.1618
18888SOL    HW262757   7.415   6.960   6.181  1.4401  1.0255  0.4142
18889SOL     OW62758   6.069   2.046   3.672  0.1488  0.0934 -0.3522
18889SOL    HW162759   6.080   2.114   3.739  0.1200 -0.3187  0.0738
18889SOL    HW262760   5.980   2.014   3.685 -0.5430  1.3176 -1.8257
18890SOL     OW62761  10.917   7.076   7.380 -0.2487 -0.4527  0.0852
18890SOL    HW162762  10.863   7.126   7.441  2.0667  1.3843  0.7685
18890SOL    HW262763  10.860   7.061   7.305 -1.6498  1.6288  0.6389
18891SOL     OW62764   9.987   8.414   5.311 -0.2031 -0.0197 -0.2366
18891SOL    HW162765  10.070   8.443   5.273 -0.7008  0.1447 -1.2067
18891SOL    HW262766   9.934   8.493   5.315 -0.5904 -0.2717 -0.3413
18892SOL     OW62767   4.277   8.358   6.823 -0.2378  0.6207 -0.3646
18892SOL    HW162768   4.354   8.331   6.772 -0.2324 -3.5598  1.4455
18892SOL    HW262769   4.313   8.407   6.896  1.0828 -2.4597  1.2270
18893SOL     OW62770   1.812   3.570   3.347 -0.5350  0.6177 -0.3132
18893SOL    HW162771   1.860   3.506   3.400 -1.7778 -0.6348 -0.6505
18893SOL    HW262772   1.747   3.608   3.406 -0.8432  0.4074 -0.5123
18894SOL     OW62773   7.670   2.533   5.141 -0.1006 -0.0705  0.1805
18894SOL    HW162774   7.617   2.601   5.184 -0.9185 -0.4668 -0.1729
18894SOL    HW262775   7.727   2.500   5.211  1.5723  2.1434 -0.0174
18895SOL     OW62776   5.512   9.057   4.584 -0.2738 -0.6732  0.7131
18895SOL    HW162777   5.427   9.027   4.618 -0.8881  0.2420  0.0242
18895SOL    HW262778   5.518   9.149   4.610 -0.2984 -0.2344 -0.7310
18896SOL     OW62779   9.146  10.306   7.943  0.3009 -0.6323 -0.2219
18896SOL    HW162780   9.211  10.257   7.992  1.6193 -0.0875 -1.3577
18896SOL    HW262781   9.196  10.349   7.873 -1.4756 -1.3517 -2.0294
18897SOL     OW62782   6.965   1.053   1.968 -0.0015  0.2545 -0.6400
18897SOL    HW162783   7.045   1.000   1.971  0.4669  0.9990  0.7140
18897SOL    HW262784   6.915   1.016   1.895  1.5206 -0.2972 -1.4633
18898SOL     OW62785   7.332   8.473   8.899  0.4452  0.3252 -0.2318
18898SOL    HW162786   7.323   8.537   8.969  0.5865 -0.6917  0.7418
18898SOL    HW262787   7.365   8.524   8.825  0.7862  1.3404  0.5849
18899SOL     OW62788   4.453   7.360   2.251  0.3794 -0.0107 -0.0458
18899SOL    HW162789   4.383   7.354   2.186  0.3791 -0.2671 -0.0213
18899SOL    HW262790   4.501   7.439   2.227 -0.8946  1.0917  0.9036
18900SOL     OW62791   1.942   1.191   9.065 -0.4838  0.3205 -0.6376
18900SOL    HW162792   1.941   1.244   8.986  1.2653  1.5930  0.0980
18900SOL    HW262793   2.010   1.126   9.049 -0.4660  0.2771 -0.3911
18901SOL     OW62794   7.394   6.330   9.063 -0.4850 -0.2136  0.2167
18901SOL    HW162795   7.327   6.302   9.127 -0.1481  1.4800  1.3806
18901SOL    HW262796   7.395   6.425   9.070  4.2558 -0.1334  2.6976
18902SOL     OW62797   9.651   4.024   8.481  0.4685 -0.1887 -0.1224
18902SOL    HW162798   9.726   4.083   8.491 -1.2264  2.1384 -0.2351
18902SOL    HW262799   9.591   4.071   8.422 -0.1574 -2.9461 -1.9227
18903SOL     OW62800   1.772   0.512   4.430  0.7511  0.0859  0.0614
18903SOL    HW162801   1.805   0.426   4.405  0.1333 -0.2493  0.3907
18903SOL    HW262802   1.779   0.564   4.350 -1.7149 -1.1178 -1.0429
18904SOL     OW62803   7.869   6.340   3.251 -0.2679  0.0007 -0.5289
18904SOL    HW162804   7.951   6.291   3.262 -1.5566 -2.7308 -2.0434
18904SOL    HW262805   7.802   6.283   3.289 -1.5089  2.4478  1.2675
18905SOL     OW62806   3.011   8.582   0.878  0.0952 -0.0861  0.7053
18905SOL    HW162807   2.963   8.651   0.832 -0.6389 -0.4799  0.8621
18905SOL    HW262808   2.948   8.546   0.940 -0.6186 -3.0294 -1.4968
18906SOL     OW62809   2.178   7.399  10.302 -0.3690 -0.1395 -0.4067
18906SOL    HW162810   2.174   7.303  10.302  0.2243 -0.2335  2.0728
18906SOL    HW262811   2.187   7.422  10.210 -1.4080 -2.4126 -1.1657
18907SOL     OW62812   4.564   7.581   2.208 -0.0002 -0.4822 -0.4270
18907SOL    HW162813   4.527   7.633   2.279  1.0449 -0.8662  0.4197
18907SOL    HW262814   4.656   7.608   2.204  0.0765 -0.8390 -1.2901
18908SOL     OW62815   3.684   5.851   6.552 -0.1226 -0.3643  0.2590
18908SOL    HW162816   3.646   5.893   6.475  1.1498 -0.2836 -0.3547
18908SOL    HW262817   3.761   5.805   6.518  0.6551 -0.0497  1.5374
18909SOL     OW62818   8.536  10.530   5.428 -0.1786  0.1753 -0.2721
18909SOL    HW162819   8.583  10.478   5.362  0.8653 -0.1215  0.6795
18909SOL    HW262820   8.532  10.618   5.391  0.2150 -0.0283 -0.8144
18910SOL     OW62821   1.398   4.037  10.251 -0.0230 -0.5291 -0.2417
18910SOL    HW162822   1.343   4.097  10.201 -0.6676 -0.0305  1.0063
18910SOL    HW262823   1.485   4.079  10.252  0.3350 -1.1671 -1.9578
18911SOL     OW62824   5.037   5.606  10.843  0.0460 -0.0243 -0.4865
18911SOL    HW162825   4.945   5.592  10.820 -0.3312  1.1035  0.2347
18911SOL    HW262826   5.074   5.518  10.850 -0.7535 -0.4712 -1.6413
18912SOL     OW62827   0.060   2.924   3.442  0.5935  0.1726  0.1618
18912SOL    HW162828   0.066   2.891   3.353  3.1181  0.4488  0.1569
18912SOL    HW262829   0.116   2.866   3.493 -0.1972  0.4867  1.4291
18913SOL     OW62830   5.578   8.487   6.015 -0.5184  0.3077  0.2852
18913SOL    HW162831   5.653   8.518   5.965  0.9190 -0.5486  1.8197
18913SOL    HW262832   5.524   8.564   6.028  0.7957  1.2465  0.3241
18914SOL     OW62833   9.202   3.844   1.852  0.2722  0.0193  0.3598
18914SOL    HW162834   9.204   3.937   1.831  0.6576  0.0311  0.4476
18914SOL    HW262835   9.283   3.828   1.901  1.0514 -0.6813 -1.0567
18915SOL     OW62836   9.076   6.551   6.627  0.3009  0.9715  0.1437
18915SOL    HW162837   8.992   6.593   6.609  0.0771  0.3226 -0.4040
18915SOL    HW262838   9.106   6.520   6.541  1.0365  1.0836  0.3534
18916SOL     OW62839   4.093   2.721   5.793 -0.5501 -0.2689 -0.0101
18916SOL    HW162840   4.167   2.723   5.733 -1.6619  0.7688 -1.4110
18916SOL    HW262841   4.095   2.806   5.838 -0.5802 -0.4513  0.3410
18917SOL     OW62842   3.230   9.167   9.810  0.2777 -0.4077 -0.7333
18917SOL    HW162843   3.187   9.250   9.831 -0.5830 -0.6220 -1.6040
18917SOL    HW262844   3.215   9.155   9.717  1.3739 -0.9956 -0.8441
18918SOL     OW62845   2.769   5.006   7.686 -0.0857 -0.0356  0.7556
18918SOL    HW162846   2.725   5.035   7.606 -1.0152 -1.2171  0.8217
18918SOL    HW262847   2.821   4.930   7.659  1.3121  0.8505  0.8514
18919SOL     OW62848   4.257   7.503   8.652  0.2415  0.2077  0.1659
18919SOL    HW162849   4.197   7.485   8.724  1.4370 -0.3373  1.0640
18919SOL    HW262850   4.285   7.417   8.622  0.4396  0.4527 -0.3657
18920SOL     OW62851   4.602   2.571   2.705  0.0791  0.4347  0.5638
18920SOL    HW162852   4.559   2.502   2.655 -0.9831  0.7585  1.0225
18920SOL    HW262853   4.650   2.621   2.638  0.6208 -0.5524  0.1935
18921SOL     OW62854   1.921   7.549   0.985 -0.0914  0.0751 -0.5804
18921SOL    HW162855   1.989   7.482   0.991 -0.7100 -0.5510 -0.4175
18921SOL    HW262856   1.850   7.507   0.936 -0.1528  0.8956 -1.2243
18922SOL     OW62857   6.229   3.796   6.621 -0.5118 -0.4115 -0.4815
18922SOL    HW162858   6.222   3.707   6.585  1.8123 -0.4838 -0.9172
18922SOL    HW262859   6.197   3.852   6.551 -1.6939 -0.8711 -0.3302
18923SOL     OW62860   9.954   2.666   8.025  0.4561 -0.2746 -0.5903
18923SOL    HW162861  10.009   2.744   8.033 -0.3560  0.4874 -1.9058
18923SOL    HW262862   9.922   2.648   8.113  2.2623 -0.3505  0.0797
18924SOL     OW62863   3.814   6.520   3.721  0.0616 -0.0834  0.0552
18924SOL    HW162864   3.894   6.547   3.676  0.0741 -0.9664 -0.4736
18924SOL    HW262865   3.785   6.598   3.767  1.4180  0.1590  0.5437
18925SOL     OW62866   0.551   0.262   2.346  0.3487 -0.1531  0.1578
18925SOL    HW162867   0.505   0.194   2.395 -1.4419  1.2801  0.5830
18925SOL    HW262868   0.585   0.218   2.269 -1.8768 -1.3095 -0.2302
18926SOL     OW62869   1.902   4.246   8.108  0.1954 -0.2373  0.0534
18926SOL    HW162870   1.916   4.287   8.193  1.1240  0.2396 -0.3156
18926SOL    HW262871   1.900   4.152   8.127  0.6737 -0.1505  0.5687
18927SOL     OW62872   2.764   7.191   9.451 -0.0436 -0.6460  0.3648
18927SOL    HW162873   2.844   7.241   9.436 -0.5198 -0.0443 -0.2514
18927SOL    HW262874   2.731   7.172   9.363 -0.6300 -0.7867  0.6106
18928SOL     OW62875  10.332   8.828   4.930  0.3411  0.5059 -0.4380
18928SOL    HW162876  10.333   8.898   4.996  0.0900  0.3146 -0.2320
18928SOL    HW262877  10.315   8.874   4.848 -1.8901  0.4920 -0.0483
18929SOL     OW62878   4.996   6.335   6.890  0.3870  0.0915  0.0263
18929SOL    HW162879   4.941   6.257   6.901  0.3260 -0.2357 -2.2387
18929SOL    HW262880   5.024   6.333   6.799 -0.2070  3.1024 -0.3518
18930SOL     OW62881   2.004   4.727   4.375  0.2187  0.0278 -0.5917
18930SOL    HW162882   1.982   4.670   4.300 -0.0052 -0.2114 -0.3492
18930SOL    HW262883   1.964   4.683   4.450 -0.9320  1.0794 -0.5534
18931SOL     OW62884   8.666   7.900   6.442  0.5780 -0.1745  0.8163
18931SOL    HW162885   8.748   7.912   6.394  0.6174 -0.6738  0.7536
18931SOL    HW262886   8.627   7.987   6.445  0.3605 -0.2091 -0.5151
18932SOL     OW62887   0.526   2.999   0.121 -0.2406  0.3380 -0.0856
18932SOL    HW162888   0.463   3.053   0.072  0.2618  1.3238  0.3262
18932SOL    HW262889   0.488   2.993   0.209 -0.5269 -0.3921 -0.2498
18933SOL     OW62890   5.750   2.964   6.176 -0.0276  0.5871 -0.1513
18933SOL    HW162891   5.811   2.894   6.199 -0.2422  0.8232  1.2127
18933SOL    HW262892   5.708   2.934   6.095  2.0924  0.5601 -1.2965
18934SOL     OW62893   9.674   9.201   9.172 -1.1401 -0.5259 -0.1412
18934SOL    HW162894   9.731   9.124   9.168  0.5932  0.6460  0.5972
18934SOL    HW262895   9.664   9.227   9.081 -0.2502 -0.6159 -0.2810
18935SOL     OW62896   6.366   4.140   0.076  0.1830  0.7528 -0.4432
18935SOL    HW162897   6.409   4.066   0.032 -2.4004 -2.2163  1.6450
18935SOL    HW262898   6.297   4.167   0.016  0.0810  0.3731 -0.4946
18936SOL     OW62899   9.138   1.333   0.773  0.2423  0.0084  0.7471
18936SOL    HW162900   9.163   1.399   0.838  2.0565 -1.2197  1.3532
18936SOL    HW262901   9.043   1.323   0.784  0.2235  1.1962  1.8766
18937SOL     OW62902   1.709   3.299   5.491 -0.1511  0.0597  0.1749
18937SOL    HW162903   1.671   3.302   5.403 -1.0965  0.2142  0.5791
18937SOL    HW262904   1.719   3.391   5.516  0.2244  0.0168  0.1909
18938SOL     OW62905   1.632   8.012   3.500 -0.0324 -0.1106  0.1439
18938SOL    HW162906   1.680   8.008   3.418 -0.8939  0.0572 -0.3886
18938SOL    HW262907   1.562   8.076   3.484 -0.5352 -0.4691  0.8346
18939SOL     OW62908   0.728   5.788   9.014  0.4801 -0.2467  0.7486
18939SOL    HW162909   0.750   5.709   9.065 -0.6736 -1.4597 -0.5566
18939SOL    HW262910   0.696   5.850   9.080 -3.8099 -2.7721  1.4140
18940SOL     OW62911   5.877   1.322   1.054  0.1530 -0.0480 -0.0094
18940SOL    HW162912   5.920   1.287   0.976  0.2239  1.2093 -0.5631
18940SOL    HW262913   5.845   1.408   1.027 -3.2729 -1.1067  0.1565
18941SOL     OW62914   8.113   6.144  10.706 -0.8249  1.4138  0.0496
18941SOL    HW162915   8.113   6.149  10.610  0.3173  2.0785  0.0681
18941SOL    HW262916   8.050   6.075  10.726  0.1385  0.0742 -1.2660
18942SOL     OW62917   5.558   4.576   7.798 -0.1296 -0.2448  0.2241
18942SOL    HW162918   5.580   4.483   7.788 -0.8204 -0.3029 -0.9635
18942SOL    HW262919   5.623   4.621   7.744 -1.0145 -0.2006 -0.8349
18943SOL     OW62920  10.243   0.324   9.627  0.1244  0.0862  0.2242
18943SOL    HW162921  10.261   0.410   9.664  1.7919 -0.4064  0.6477
18943SOL    HW262922  10.317   0.270   9.655 -0.1301 -1.1023 -1.2724
18944SOL     OW62923   9.197   6.994   4.664 -0.0282  0.2339  0.3703
18944SOL    HW162924   9.202   6.901   4.644  2.5579  0.3984 -0.0295
18944SOL    HW262925   9.280   7.030   4.636 -1.3353  2.9070 -0.4284
18945SOL     OW62926   9.761   0.759   1.081 -0.5446 -0.0085 -0.1117
18945SOL    HW162927   9.676   0.778   1.122 -1.0407 -0.8581 -0.7122
18945SOL    HW262928   9.745   0.770   0.987 -0.4238 -1.7253 -0.3502
18946SOL     OW62929   4.779   7.923   2.252 -0.2273 -0.1742 -0.0906
18946SOL    HW162930   4.698   7.962   2.285 -0.0653 -0.0905  0.2100
18946SOL    HW262931   4.764   7.829   2.258  0.0195 -0.1700  0.7910
18947SOL     OW62932   5.507   1.700   6.764 -0.2519  0.7020 -0.3064
18947SOL    HW162933   5.503   1.725   6.856 -1.0954  1.0274 -0.4201
18947SOL    HW262934   5.425   1.653   6.749 -0.3334  1.0533 -0.9947
18948SOL     OW62935   9.208   9.463   2.474  0.2060  0.3366 -0.4389
18948SOL    HW162936   9.253   9.474   2.557  0.1458 -1.4224 -0.1399
18948SOL    HW262937   9.275   9.477   2.408  0.5614  0.4127 -0.0624
18949SOL     OW62938   7.650   9.602   9.898  0.6060  0.3405 -0.6287
18949SOL    HW162939   7.654   9.532   9.962  0.9717 -1.7371 -2.7786
18949SOL    HW262940   7.569   9.584   9.849 -0.6254  2.9079  0.2681
18950SOL     OW62941   2.410   4.330   9.151 -0.3312 -0.0309 -0.1836
18950SOL    HW162942   2.452   4.362   9.071  0.9909 -1.2117 -0.0238
18950SOL    HW262943   2.401   4.407   9.207  2.7073  0.1706  0.1907
18951SOL     OW62944   8.895   0.331   0.234  0.1337 -0.0574 -0.3162
18951SOL    HW162945   8.860   0.349   0.321  0.5551  0.3572 -0.2240
18951SOL    HW262946   8.990   0.325   0.247  0.0225 -3.6636 -0.1292
18952SOL     OW62947   9.433   7.472   3.469  0.2091 -0.0892  0.2544
18952SOL    HW162948   9.494   7.416   3.421 -0.5327 -0.8574  0.1780
18952SOL    HW262949   9.489   7.530   3.520  1.0052 -0.2456 -0.4088
18953SOL     OW62950   1.171   2.814   3.173 -0.4392  0.1254  0.2123
18953SOL    HW162951   1.079   2.788   3.182 -0.6290  0.9802  0.9125
18953SOL    HW262952   1.217   2.733   3.154 -1.4534 -0.1971 -1.0428
18954SOL     OW62953   1.176   8.079  10.079 -0.1545 -0.2287 -0.1587
18954SOL    HW162954   1.088   8.043  10.068 -0.4137  0.4546 -0.4145
18954SOL    HW262955   1.172   8.165  10.038 -0.0944  0.8963  2.0515
18955SOL     OW62956   2.987   2.556   9.245  0.3223 -0.4692 -0.2886
18955SOL    HW162957   3.035   2.600   9.176  0.0787 -0.7434 -0.6357
18955SOL    HW262958   2.903   2.532   9.205 -0.7101  1.2604  0.6773
18956SOL     OW62959   4.603   2.166   5.242 -0.2715 -0.0098 -0.3207
18956SOL    HW162960   4.517   2.206   5.247 -0.7106 -0.7057 -1.7788
18956SOL    HW262961   4.597   2.089   5.298  0.7846  2.1373  3.0526
18957SOL     OW62962  10.621  10.247   7.107 -0.5067 -0.2667 -0.0408
18957SOL    HW162963  10.704  10.260   7.061 -0.4513  0.3936  0.2476
18957SOL    HW262964  10.632  10.164   7.154 -0.0467 -0.2245 -0.0740
18958SOL     OW62965   0.123  10.262   1.376  0.1430  0.1086 -0.3122
18958SOL    HW162966   0.120  10.213   1.293  0.2094  0.0720 -0.2927
18958SOL    HW262967   0.211  10.299   1.379  0.3977 -0.5250  0.1084
18959SOL     OW62968   8.372   5.249   8.508 -0.4178 -0.3054 -0.0905
18959SOL    HW162969   8.323   5.168   8.493  0.5641 -0.7067 -1.2991
18959SOL    HW262970   8.422   5.232   8.589  2.2512 -2.2387 -1.9459
18960SOL     OW62971   9.843   6.335   7.469 -0.6258  0.4056 -0.5829
18960SOL    HW162972   9.835   6.314   7.562 -1.2090  2.9504  0.0085
18960SOL    HW262973   9.936   6.352   7.456 -0.5301 -0.0459 -0.4968
18961SOL     OW62974   5.674  10.641   0.573 -0.7689  0.6081 -0.2132
18961SOL    HW162975   5.710  10.561   0.537 -1.8622 -0.3145  0.6667
18961SOL    HW262976   5.580  10.624   0.580 -1.2624  2.5282 -1.4157
18962SOL     OW62977   7.006   6.533   0.775  0.3694  0.2013  0.2617
18962SOL    HW162978   6.996   6.611   0.829  0.6508  0.1613  0.3753
18962SOL    HW262979   6.955   6.552   0.696  1.2922  0.9371 -0.1764
18963SOL     OW62980   9.831  10.715   7.348 -0.1519  0.2630 -0.4751
18963SOL    HW162981   9.891  10.767   7.401 -1.7193  0.3540  1.3214
18963SOL    HW262982   9.885  10.645   7.312  1.0697  0.4186  0.9507
18964SOL     OW62983   2.712   2.439   0.749  0.2463  0.3180  0.4252
18964SOL    HW162984   2.733   2.526   0.716  1.6380 -0.1778 -0.0535
18964SOL    HW262985   2.628   2.418   0.709  0.5262  0.9119 -0.4937
18965SOL     OW62986   7.188   2.442  10.639 -0.4117  0.6654 -0.2365
18965SOL    HW162987   7.225   2.472  10.556  0.8251 -1.6565 -0.5931
18965SOL    HW262988   7.154   2.354  10.620  0.3596 -0.1364  1.7938
18966SOL     OW62989   3.938   1.507   4.836 -0.0363  0.1904  0.4859
18966SOL    HW162990   3.919   1.574   4.902 -1.1506 -0.3107  0.7109
18966SOL    HW262991   3.941   1.425   4.886  0.2314 -0.0551  0.0689
18967SOL     OW62992   6.288   4.958  10.889 -0.0092 -0.1800 -0.6046
18967SOL    HW162993   6.266   4.982  10.978  3.2795  0.4076  0.1771
18967SOL    HW262994   6.281   5.039  10.839 -2.6381 -0.6656 -1.1576
18968SOL     OW62995   8.591  10.318   7.918  0.0659  0.7749 -0.1600
18968SOL    HW162996   8.684  10.304   7.935  0.0697  0.8105 -0.1538
18968SOL    HW262997   8.548  10.296   8.000  0.1436  1.5996  0.1111
18969SOL     OW62998   9.653   0.849   3.352 -0.0684 -0.2714  0.5669
18969SOL    HW162999   9.613   0.936   3.359  0.8057  0.5179 -2.6108
18969SOL    HW263000   9.582   0.788   3.373 -1.8701  1.1704 -1.0185
18970SOL     OW63001   6.569   9.492   3.347 -0.1761 -0.1174 -0.1499
18970SOL    HW163002   6.505   9.434   3.307 -0.7748  0.6451 -0.3322
18970SOL    HW263003   6.650   9.477   3.299 -0.2000 -1.1281  0.1148
18971SOL     OW63004   9.903  10.450   4.173  0.5588  0.0166 -0.5449
18971SOL    HW163005   9.858  10.433   4.090 -1.4888  0.1209  0.4913
18971SOL    HW263006   9.848  10.515   4.217  0.4464 -1.5322  1.7579
18972SOL     OW63007   3.252   5.234   3.327  0.4127  0.5030 -0.1896
18972SOL    HW163008   3.254   5.185   3.409  1.5306  1.1446  0.1889
18972SOL    HW263009   3.218   5.321   3.351 -1.2451  0.0627 -0.7979
18973SOL     OW63010   3.447   4.653  10.701  0.5409 -0.1180 -0.2383
18973SOL    HW163011   3.457   4.743  10.732  1.6338  0.2395 -1.5151
18973SOL    HW263012   3.371   4.620  10.749  1.0914  0.9327  1.4784
18974SOL     OW63013  10.080  10.066   3.505 -0.2068  0.0301  0.0013
18974SOL    HW163014  10.119   9.985   3.471  0.9948 -0.9087  3.2532
18974SOL    HW263015  10.145  10.133   3.485 -0.8739  0.1528 -2.0518
18975SOL     OW63016   9.144   5.385   0.255  0.0239 -0.1970 -0.1380
18975SOL    HW163017   9.131   5.315   0.191  2.3939 -0.7483 -0.1274
18975SOL    HW263018   9.113   5.464   0.211 -0.0357 -0.8291 -1.2752
18976SOL     OW63019   1.192   7.328   1.108 -0.4952 -0.4917  0.3002
18976SOL    HW163020   1.156   7.279   1.035  1.4841 -0.0683 -1.0307
18976SOL    HW263021   1.285   7.304   1.111  0.0612  1.5147  0.9503
18977SOL     OW63022   7.977   1.295   3.059  0.1999 -0.0041 -0.2557
18977SOL    HW163023   8.048   1.260   3.113  0.1158  0.2824  0.0425
18977SOL    HW263024   7.951   1.222   3.003 -2.0512 -1.4452  2.4397
18978SOL     OW63025   4.887  10.596   7.267  0.0103 -0.3170  0.0690
18978SOL    HW163026   4.856  10.554   7.347 -1.7856 -0.6110 -0.7356
18978SOL    HW263027   4.809  10.635   7.229  0.8993  0.1408 -1.3654
18979SOL     OW63028   1.492   8.378   1.760  0.3772  0.4198  0.6065
18979SOL    HW163029   1.575   8.390   1.806  1.1311 -0.2697 -0.5130
18979SOL    HW263030   1.515   8.327   1.682 -0.7729  1.8718 -0.7403
18980SOL     OW63031   6.194   6.213   0.426  0.2740 -0.4362  0.4901
18980SOL    HW163032   6.163   6.129   0.392 -1.5999  0.1995  0.5115
18980SOL    HW263033   6.129   6.239   0.491 -1.2619  2.6942 -2.0267
18981SOL     OW63034   9.543   4.147   0.326  0.3762 -0.0198 -0.0024
18981SOL    HW163035   9.572   4.087   0.395 -0.6910 -1.6506 -0.8975
18981SOL    HW263036   9.615   4.149   0.264  0.8139  0.4055  0.5186
18982SOL     OW63037   9.270   4.027   2.722 -0.6236 -0.1049  0.5990
18982SOL    HW163038   9.342   4.044   2.784  0.0416 -1.2211  0.1671
18982SOL    HW263039   9.234   3.943   2.751 -1.6504  0.3627  0.6975
18983SOL     OW63040   4.549   1.603   7.306  0.1140 -0.6727 -0.0957
18983SOL    HW163041   4.641   1.578   7.310  0.2884  0.0227  0.2704
18983SOL    HW263042   4.522   1.611   7.397 -0.8866 -2.9028 -0.1284
18984SOL     OW63043   1.019   0.200  10.801 -0.1632  0.2835 -0.2697
18984SOL    HW163044   1.009   0.106  10.782 -0.0762  0.1343  0.3860
18984SOL    HW263045   1.114   0.214  10.802 -0.1838  0.7583 -2.0914
18985SOL     OW63046   4.499   4.874   3.550  0.1601  0.5427  0.1423
18985SOL    HW163047   4.588   4.844   3.568 -0.3837 -0.2552  1.6835
18985SOL    HW263048   4.459   4.801   3.502 -0.2697 -0.0055  1.2951
18986SOL     OW63049   2.832   1.759   3.630  0.2086 -0.3308 -0.3004
18986SOL    HW163050   2.774   1.753   3.555 -0.4059  0.2600  0.1114
18986SOL    HW263051   2.774   1.753   3.706  0.6153  0.7268  0.1191
18987SOL     OW63052   8.003  10.328   4.705 -0.0110  0.5183 -0.1499
18987SOL    HW163053   7.968  10.240   4.692  1.0017 -0.0889  0.9733
18987SOL    HW263054   7.993  10.371   4.621 -3.8127  0.5688  0.1444
18988SOL     OW63055   7.101   6.161   2.534 -0.2181 -1.1690  0.4842
18988SOL    HW163056   7.049   6.180   2.456  2.3351 -1.0563 -1.3326
18988SOL    HW263057   7.062   6.082   2.571 -2.5143 -0.2847  0.1091
18989SOL     OW63058  10.100   8.801   8.744 -0.3568  0.0281 -0.0590
18989SOL    HW163059  10.098   8.897   8.743  1.8921  0.1442  1.1888
18989SOL    HW263060  10.067   8.777   8.831  2.0537 -0.1124  0.8979
18990SOL     OW63061   7.468   0.059   7.758  0.6232  0.2839  0.5172
18990SOL    HW163062   7.524   0.125   7.717  0.1521  0.2657 -0.1721
18990SOL    HW263063   7.385   0.066   7.712  0.1561  0.0776  1.3017
18991SOL     OW63064   3.353   6.078   3.562  0.7766 -0.7661  0.2936
18991SOL    HW163065   3.339   6.129   3.641  3.3809 -0.3409  0.5911
18991SOL    HW263066   3.281   6.015   3.560  0.2287 -0.2989  2.5878
18992SOL     OW63067   4.789   4.603   4.816  0.0938  0.3499 -0.4998
18992SOL    HW163068   4.794   4.516   4.775 -0.7871  0.5265 -0.9997
18992SOL    HW263069   4.804   4.587   4.909 -2.2661 -0.6656 -0.2241
18993SOL     OW63070   3.286  10.249   3.344 -0.3057  0.0137  0.2641
18993SOL    HW163071   3.378  10.263   3.366  0.0472  0.3435 -1.2583
18993SOL    HW263072   3.238  10.312   3.397  0.5553  1.3619 -0.5072
18994SOL     OW63073   6.965  10.107   3.487 -0.1173 -0.6848 -0.1216
18994SOL    HW163074   7.032  10.139   3.427  0.1122 -1.1922 -0.1367
18994SOL    HW263075   6.886  10.100   3.433 -0.0062 -0.7698 -0.2736
18995SOL     OW63076   4.658   4.159   3.656 -0.2402  0.1984  0.2254
18995SOL    HW163077   4.646   4.244   3.613  0.6165  0.3687  0.3078
18995SOL    HW263078   4.746   4.131   3.630  1.1061  1.1596  3.2892
18996SOL     OW63079   2.268   7.876  10.574  0.6113 -0.9856  0.7304
18996SOL    HW163080   2.281   7.838  10.487 -1.9017  1.3609 -0.8231
18996SOL    HW263081   2.238   7.803  10.628 -2.1505 -1.7209 -1.6091
18997SOL     OW63082   8.765   5.200   8.623  0.2257  0.4979 -0.2361
18997SOL    HW163083   8.715   5.264   8.674  1.5077  0.4965  1.0942
18997SOL    HW263084   8.768   5.122   8.679 -0.3669 -0.3640 -1.3618
18998SOL     OW63085   5.809   1.235   4.735 -0.1745 -0.1759 -0.2548
18998SOL    HW163086   5.879   1.297   4.713 -1.1014  0.3852 -1.8132
18998SOL    HW263087   5.856   1.156   4.763  1.0700  0.4682 -0.4238
18999SOL     OW63088   0.211   9.231   8.127  0.0192 -0.0830 -0.0074
18999SOL    HW163089   0.122   9.202   8.149  0.2226 -1.0243 -0.4156
18999SOL    HW263090   0.205   9.261   8.036 -0.2143  1.3067  0.4402
19000SOL     OW63091   5.847   8.537   2.986 -0.5549  0.7175  0.1858
19000SOL    HW163092   5.862   8.613   2.929  1.2109 -0.9935 -1.8016
19000SOL    HW263093   5.924   8.535   3.043 -0.5527  0.3798  0.1710
19001SOL     OW63094   4.722   5.494   4.894  0.4033 -0.2907 -0.0384
19001SOL    HW163095   4.793   5.532   4.944  1.0058 -0.0787 -1.0209
19001SOL    HW263096   4.748   5.403   4.879  0.7213 -0.0846 -0.8135
19002SOL     OW63097   3.899   6.832   6.522  0.4555 -0.0567 -0.0916
19002SOL    HW163098   3.854   6.749   6.507 -1.8430  1.0091  0.3822
19002SOL    HW263099   3.965   6.837   6.453 -0.6077 -1.4405 -1.2656
19003SOL     OW63100   7.673   3.787   1.027 -0.2586 -0.0721  0.0752
19003SOL    HW163101   7.729   3.795   1.104 -1.2862  2.4236  0.6829
19003SOL    HW263102   7.687   3.869   0.979 -0.5005 -1.0737 -1.8178
19004SOL     OW63103   2.135   7.052   0.978 -0.1730 -0.0109  0.3242
19004SOL    HW163104   2.191   7.006   1.040 -0.6910  1.3532  1.8672
19004SOL    HW263105   2.047   7.023   0.999 -0.2628 -0.4089 -0.5651
19005SOL     OW63106   9.032   9.300   2.970 -0.0767 -0.0365  0.5482
19005SOL    HW163107   9.126   9.301   2.955  0.1541 -1.4958  1.6694
19005SOL    HW263108   9.022   9.315   3.064 -0.9812  0.2130  0.4227
19006SOL     OW63109   0.858   1.330   9.320 -0.0703 -0.0854 -0.1586
19006SOL    HW163110   0.776   1.359   9.361  0.4696  0.7669  0.3515
19006SOL    HW263111   0.877   1.398   9.255  1.7971  1.4028  1.8162
19007SOL     OW63112  10.350  10.312   2.097  0.0058  0.3669  0.1330
19007SOL    HW163113  10.356  10.263   2.179  0.1928  0.9423  0.4685
19007SOL    HW263114  10.270  10.280   2.056  0.3365 -0.5181  0.1472
19008SOL     OW63115   9.235   0.491   5.076 -0.4030 -0.0381  0.2715
19008SOL    HW163116   9.325   0.479   5.108  0.0245  0.6658 -0.6348
19008SOL    HW263117   9.242   0.560   5.010 -1.6784  0.2964  0.4617
19009SOL     OW63118   3.902   3.739   3.132  0.0760  0.2437  0.6643
19009SOL    HW163119   3.812   3.742   3.164 -0.4392  1.9453 -0.7603
19009SOL    HW263120   3.917   3.647   3.110 -1.7674  0.1227 -0.2409
19010SOL     OW63121   0.157   9.454   9.706  0.3105 -0.6760  0.2066
19010SOL    HW163122   0.171   9.532   9.652  1.6156 -0.6314  0.5926
19010SOL    HW263123   0.166   9.485   9.796 -1.3078 -0.8638  0.4712
19011SOL     OW63124   6.038   1.461   6.582  0.1063 -1.0380  0.1088
19011SOL    HW163125   6.080   1.376   6.569  1.3621 -0.2547 -1.2574
19011SOL    HW263126   6.011   1.488   6.494 -1.5096 -0.6084  0.7010
19012SOL     OW63127   9.889   5.842  10.206  0.2913 -0.2641  0.3400
19012SOL    HW163128   9.814   5.901  10.218 -0.7253 -1.0420 -1.6289
19012SOL    HW263129   9.878   5.808  10.117  1.9630 -1.8699  0.6947
19013SOL     OW63130   6.422   3.914  10.845 -0.8473  0.2544  0.5936
19013SOL    HW163131   6.438   3.886  10.755  1.9586 -1.4279  1.5091
19013SOL    HW263132   6.329   3.934  10.847 -0.9357  0.7936 -2.7764
19014SOL     OW63133   5.507   2.815   2.702  0.1683 -0.5308 -0.1851
19014SOL    HW163134   5.460   2.734   2.683  1.6865 -1.9286  1.6125
19014SOL    HW263135   5.467   2.847   2.783  0.8680 -0.5601  0.1774
19015SOL     OW63136   7.017   6.649   1.166  0.2475  0.3434 -0.7119
19015SOL    HW163137   7.073   6.579   1.133  0.2150  0.4807 -1.0699
19015SOL    HW263138   6.979   6.615   1.247  2.2313  0.8951  0.5122
19016SOL     OW63139   1.869   4.588  10.764  0.3411  0.2042  0.3390
19016SOL    HW163140   1.915   4.518  10.718 -0.9106  0.2472 -1.0255
19016SOL    HW263141   1.845   4.650  10.696 -0.2594  1.0155  1.2600
19017SOL     OW63142   5.310   1.291   0.365 -0.5482  0.0754  0.8105
19017SOL    HW163143   5.359   1.229   0.311 -0.0214  2.0740 -1.1626
19017SOL    HW263144   5.369   1.311   0.438 -0.2529 -0.8289  0.8281
19018SOL     OW63145   2.680   3.719   0.741  0.5302  0.3272 -0.3988
19018SOL    HW163146   2.614   3.765   0.689 -0.5744  0.0113  0.6721
19018SOL    HW263147   2.644   3.630   0.751 -0.0658  0.7848  2.1397
19019SOL     OW63148   8.896   6.178   8.001 -0.7087  0.2426  0.3998
19019SOL    HW163149   8.837   6.252   7.988 -1.5194 -0.4717 -0.1370
19019SOL    HW263150   8.968   6.194   7.939  0.2697  1.6866  1.8394
19020SOL     OW63151   2.913   0.746  10.088  0.3321  0.1411  0.6388
19020SOL    HW163152   3.007   0.742  10.105  0.9873  0.5312 -2.3293
19020SOL    HW263153   2.905   0.802  10.011 -2.3053 -0.2709  0.5196
19021SOL     OW63154   4.143   3.509  10.305 -0.0255  0.1697 -0.0831
19021SOL    HW163155   4.066   3.515  10.249  0.1694  0.1040 -0.3594
19021SOL    HW263156   4.114   3.543  10.389 -0.0478  1.1875 -0.4912
19022SOL     OW63157   7.281   7.500   5.486 -0.1283  0.1156 -0.0040
19022SOL    HW163158   7.269   7.543   5.401 -0.9832  1.9221  0.9638
19022SOL    HW263159   7.243   7.562   5.549  1.0086 -0.9081  1.7596
19023SOL     OW63160   6.812   8.727   1.566  0.1517 -0.3741  0.0960
19023SOL    HW163161   6.896   8.726   1.612  0.3338 -0.9476 -0.2368
19023SOL    HW263162   6.789   8.820   1.559  0.0265 -0.2878  1.4919
19024SOL     OW63163   4.367   6.704   1.417  0.8460 -0.9117 -0.3474
19024SOL    HW163164   4.377   6.726   1.324  0.9020 -1.6151 -0.5161
19024SOL    HW263165   4.450   6.732   1.457  0.5109  0.1317 -0.3489
19025SOL     OW63166   7.243   2.290  10.084 -0.3411 -0.2192 -0.0071
19025SOL    HW163167   7.180   2.230  10.123 -1.2657 -0.5870 -1.9300
19025SOL    HW263168   7.195   2.372  10.075  0.4803  0.4371  1.3463
19026SOL     OW63169   4.736   0.350   8.613  0.2190 -0.0130 -0.5781
19026SOL    HW163170   4.831   0.339   8.612  0.4557  1.0873  2.0697
19026SOL    HW263171   4.714   0.365   8.705 -2.5108  0.0399 -1.1399
19027SOL     OW63172   7.060   5.601   7.912 -0.7747  0.0099 -0.2889
19027SOL    HW163173   7.002   5.653   7.967  0.0684  0.5996  0.0635
19027SOL    HW263174   7.052   5.641   7.825 -0.7553  0.1991 -0.2035
19028SOL     OW63175   2.275   3.389   5.209  0.1147 -0.0175 -0.4153
19028SOL    HW163176   2.222   3.313   5.234  0.3909  0.2146  0.9550
19028SOL    HW263177   2.299   3.373   5.118 -1.1686 -0.7851 -0.6340
19029SOL     OW63178   0.628   2.505   4.148  0.1080  0.3708 -0.2135
19029SOL    HW163179   0.665   2.551   4.073  1.9595  1.5528  1.3275
19029SOL    HW263180   0.584   2.573   4.199  1.0783  0.1077  1.0299
19030SOL     OW63181   4.068   5.776   5.928  0.2230  0.1822 -0.2476
19030SOL    HW163182   3.987   5.734   5.900  0.0100  1.2755 -1.3253
19030SOL    HW263183   4.135   5.709   5.916 -0.3423 -0.3624 -0.4233
19031SOL     OW63184   4.416   8.970   8.559  0.1312  0.7422 -0.6690
19031SOL    HW163185   4.487   8.914   8.591  1.2054  0.5447 -3.1568
19031SOL    HW263186   4.344   8.910   8.542  1.5713 -0.2184 -4.1730
19032SOL     OW63187   0.566   2.396  10.354 -0.2307 -0.2087  0.1152
19032SOL    HW163188   0.594   2.329  10.292 -2.2654 -1.3987  0.3899
19032SOL    HW263189   0.638   2.403  10.417  0.8326 -0.7125 -1.0019
19033SOL     OW63190   6.774   3.455   1.710  0.3515  0.7642 -0.8468
19033SOL    HW163191   6.774   3.487   1.620  0.9028 -1.7571 -1.8212
19033SOL    HW263192   6.861   3.476   1.743  0.8457 -0.0126 -1.6048
19034SOL     OW63193   8.787   8.405   8.580  0.0596  0.6132 -0.6968
19034SOL    HW163194   8.791   8.439   8.669 -0.5875 -1.4089  0.1702
19034SOL    HW263195   8.700   8.432   8.549  0.0006  0.7262 -0.4435
19035SOL     OW63196   5.829   1.946   1.822  0.4237 -0.2346  0.3561
19035SOL    HW163197   5.893   1.959   1.891 -0.1499 -0.0804  0.8678
19035SOL    HW263198   5.755   1.903   1.865  0.7145 -1.6648 -0.5025
19036SOL     OW63199   9.801   6.027   6.993  0.3443  0.2514 -0.4684
19036SOL    HW163200   9.780   6.007   7.084  2.5190  0.5380  0.1523
19036SOL    HW263201   9.721   6.067   6.958 -0.6935 -0.3282  1.1449
19037SOL     OW63202   2.379   2.398   4.196  0.0334  0.1872  0.1632
19037SOL    HW163203   2.317   2.355   4.254 -0.5463 -1.4841 -1.5876
19037SOL    HW263204   2.331   2.410   4.114  0.6390  2.9640  0.1097
19038SOL     OW63205   4.852   3.123   9.307  0.2773 -0.1376  0.2874
19038SOL    HW163206   4.856   3.097   9.214  1.2349 -0.4990  0.4199
19038SOL    HW263207   4.763   3.157   9.318  0.2178  0.1112 -0.8147
19039SOL     OW63208   5.204   5.775   2.333  0.1727 -0.2337  0.0106
19039SOL    HW163209   5.175   5.686   2.315  0.3694 -0.5200  1.0207
19039SOL    HW263210   5.129   5.818   2.373  0.6990 -0.5874  1.4374
19040SOL     OW63211   7.861   5.143   4.661 -0.9539  0.3899 -0.4250
19040SOL    HW163212   7.910   5.220   4.633 -1.3590  1.0652  0.6564
19040SOL    HW263213   7.909   5.111   4.738 -1.4908  0.3007 -0.1265
19041SOL     OW63214  10.767   1.342   3.450 -0.0078 -0.2852 -0.0879
19041SOL    HW163215  10.825   1.418   3.457  0.3330 -0.5921  0.5294
19041SOL    HW263216  10.794   1.300   3.368 -1.4061  1.2124 -1.4063
19042SOL     OW63217   2.973   1.064   4.815  0.3294 -0.2381 -0.0242
19042SOL    HW163218   2.959   1.106   4.900 -0.3167 -0.5301  0.0197
19042SOL    HW263219   3.068   1.060   4.806  0.4446 -1.3746  1.2850
19043SOL     OW63220   3.196   3.591   1.684 -0.1600 -0.3300 -0.2877
19043SOL    HW163221   3.220   3.505   1.716  1.4811 -0.3312 -1.4269
19043SOL    HW263222   3.109   3.579   1.646  0.0228 -1.4671 -0.3760
19044SOL     OW63223   3.726   2.146   7.151  0.2045  0.1919 -0.6889
19044SOL    HW163224   3.737   2.225   7.203 -0.4412 -0.6384  0.7863
19044SOL    HW263225   3.777   2.080   7.197 -0.0935 -0.4874 -1.3114
19045SOL     OW63226   4.402   7.344   9.405  0.0299  0.5304  0.4370
19045SOL    HW163227   4.450   7.368   9.325 -1.3821  1.2889 -0.2150
19045SOL    HW263228   4.467   7.300   9.460  1.3641  1.1724 -0.5803
19046SOL     OW63229   0.073   8.452   5.346 -0.4276  0.3466 -0.1557
19046SOL    HW163230   0.054   8.531   5.296  1.0784  0.1763 -1.0565
19046SOL    HW263231   0.168   8.454   5.359 -0.6404 -0.1050  1.9128
19047SOL     OW63232   5.541   4.366   3.219  0.2249  0.2137 -0.1869
19047SOL    HW163233   5.511   4.378   3.309  1.2726 -0.4920  0.2791
19047SOL    HW263234   5.633   4.392   3.221 -0.3805  2.7369 -1.6783
19048SOL     OW63235   9.257   8.692   9.490 -0.4160 -0.2121 -0.1525
19048SOL    HW163236   9.198   8.718   9.561 -1.4073 -0.3918 -0.8909
19048SOL    HW263237   9.323   8.761   9.487 -0.8426  0.2264  0.3911
19049SOL     OW63238   5.932   0.618   0.441  0.5877 -0.5027 -0.2116
19049SOL    HW163239   5.948   0.533   0.483  0.5781  0.3479  1.6193
19049SOL    HW263240   5.977   0.681   0.497  0.7997  0.7097 -1.6674
19050SOL     OW63241   4.065   1.673   4.369  0.0195  0.4808  0.0652
19050SOL    HW163242   4.048   1.766   4.382  1.9720  0.8252  0.4761
19050SOL    HW263243   4.058   1.635   4.456  2.4662  0.8761  0.5017
19051SOL     OW63244  10.173   7.667   5.467 -0.3942 -0.1320 -0.3214
19051SOL    HW163245  10.115   7.592   5.480  0.4033 -0.4987  1.4499
19051SOL    HW263246  10.251   7.631   5.426 -0.7302  0.0756 -1.1680
19052SOL     OW63247   9.642   2.042   4.118  0.2982  0.4168 -0.2375
19052SOL    HW163248   9.643   1.947   4.130 -1.0533  0.4769  0.4369
19052SOL    HW263249   9.550   2.063   4.104  0.5374  1.6829  0.0467
19053SOL     OW63250   7.306   9.416   5.344  0.3224 -0.4340  0.3517
19053SOL    HW163251   7.298   9.363   5.265  0.4874  0.5625 -0.3514
19053SOL    HW263252   7.363   9.365   5.402 -0.1237 -1.3541 -0.0010
19054SOL     OW63253  10.814   9.691   3.271  0.1688  0.0438  0.2235
19054SOL    HW163254  10.845   9.722   3.356  0.3081  1.2918 -0.2542
19054SOL    HW263255  10.828   9.597   3.273 -2.1797 -0.3853  2.5720
19055SOL     OW63256   4.984   9.429   9.944 -0.2182 -0.1194  0.5569
19055SOL    HW163257   4.904   9.398   9.903 -0.2998 -0.6598  1.1246
19055SOL    HW263258   4.977   9.525   9.941 -1.0390 -0.1604  0.9011
19056SOL     OW63259   2.722   8.840   4.020 -0.4610  0.1797 -0.5462
19056SOL    HW163260   2.754   8.930   4.015 -2.8207  1.1198  0.1223
19056SOL    HW263261   2.780   8.798   4.083  0.9441  1.0806 -1.1855
19057SOL     OW63262   3.615   1.873   7.479 -0.4819  0.5021 -0.5755
19057SOL    HW163263   3.596   1.814   7.407  0.9591 -0.4500 -0.2401
19057SOL    HW263264   3.705   1.903   7.462  0.0651 -0.1097  1.0117
19058SOL     OW63265   7.700  10.842   3.754  0.4952 -0.0860  0.1357
19058SOL    HW163266   7.676  10.887   3.673  2.0728 -0.5940 -0.6524
19058SOL    HW263267   7.718  10.752   3.728  1.2573 -0.2078  0.9909
19059SOL     OW63268   0.323   7.003   5.362 -0.8357  0.6506  0.3818
19059SOL    HW163269   0.373   7.000   5.444 -2.0074  0.2992  1.1207
19059SOL    HW263270   0.358   6.931   5.309 -0.7858  0.1936  1.0202
19060SOL     OW63271   5.498   9.937   0.446 -0.5671  0.0112 -0.3682
19060SOL    HW163272   5.556   9.892   0.385 -1.2480  1.9862 -2.6004
19060SOL    HW263273   5.462  10.010   0.396  0.5290  3.1700  3.0242
19061SOL     OW63274   9.480   3.590   4.031  0.3302  0.4878  0.2905
19061SOL    HW163275   9.401   3.536   4.034 -0.1174  1.1351  0.2386
19061SOL    HW263276   9.545   3.538   4.078  0.0282 -0.2934 -0.1349
19062SOL     OW63277   3.156   1.764   4.962 -0.0363 -0.6702 -0.3469
19062SOL    HW163278   3.099   1.827   4.918  1.1178 -1.3254 -2.9872
19062SOL    HW263279   3.228   1.817   4.996  0.3061 -0.3919 -1.4659
19063SOL     OW63280   5.325   4.559   6.014  0.3619 -0.0279  0.4058
19063SOL    HW163281   5.276   4.587   6.091 -0.3111  0.2413 -0.1027
19063SOL    HW263282   5.311   4.629   5.950  0.3153 -0.5724 -0.1933
19064SOL     OW63283   8.641   7.819  10.482 -0.4734 -0.7227 -0.1439
19064SOL    HW163284   8.661   7.733  10.520  0.0187 -1.0903 -1.1855
19064SOL    HW263285   8.688   7.819  10.399  0.4323  0.9990  0.3355
19065SOL     OW63286   3.775   7.903   4.589 -0.1593 -0.5104  0.1114
19065SOL    HW163287   3.806   7.866   4.671  0.0640  1.8157  1.1525
19065SOL    HW263288   3.773   7.998   4.604 -0.5940 -0.0385 -2.3998
19066SOL     OW63289   9.745   5.304   0.032 -0.1707 -0.2630 -0.0369
19066SOL    HW163290   9.725   5.314   0.125 -1.7318 -2.3241 -0.0965
19066SOL    HW263291   9.681   5.241  -0.000  0.6298  0.0405 -2.4273
19067SOL     OW63292   4.927   0.190   3.725  0.1191 -0.2804  0.1739
19067SOL    HW163293   4.872   0.111   3.721  0.5140 -0.5478 -0.0206
19067SOL    HW263294   4.980   0.187   3.645  0.0604  0.2426  0.1083
19068SOL     OW63295   0.999   0.763   9.374 -0.5261  0.1316 -0.2788
19068SOL    HW163296   0.978   0.811   9.455  0.2584 -0.1597  0.1082
19068SOL    HW263297   0.917   0.719   9.350 -1.1944  1.4261 -0.4913
19069SOL     OW63298   9.036   5.194   8.414  0.1154  0.2006  0.4671
19069SOL    HW163299   8.999   5.278   8.441  0.0277  0.2116  0.3133
19069SOL    HW263300   8.961   5.146   8.377 -0.0278 -0.2743  1.3295
19070SOL     OW63301   7.407   8.621   0.456 -0.2183 -0.3359 -0.1718
19070SOL    HW163302   7.345   8.548   0.454  1.1588 -1.5627 -0.4876
19070SOL    HW263303   7.474   8.593   0.519 -1.0682  1.9327  1.8951
19071SOL     OW63304   2.830   5.598   8.671 -0.2078  0.3267  0.3909
19071SOL    HW163305   2.862   5.688   8.678  1.1223 -0.1579  0.9624
19071SOL    HW263306   2.899   5.551   8.625 -0.0093 -0.7910  1.7420
19072SOL     OW63307   6.183   3.528  10.700 -0.2857  0.0071 -0.1037
19072SOL    HW163308   6.096   3.489  10.706  0.5999 -2.4109 -1.4773
19072SOL    HW263309   6.241   3.466  10.745  0.9187  0.8265 -0.4613
19073SOL     OW63310   0.904   0.306   5.105  0.2535  0.0282  0.3971
19073SOL    HW163311   0.931   0.216   5.119  0.3752  0.3597  2.6346
19073SOL    HW263312   0.818   0.312   5.147 -0.0046  0.8224 -0.2127
19074SOL     OW63313   0.137   7.217   4.590  0.1127 -0.2317  0.0679
19074SOL    HW163314   0.041   7.219   4.599  0.0468 -0.5037 -0.5100
19074SOL    HW263315   0.163   7.309   4.596 -0.2101 -0.1351  0.0133
19075SOL     OW63316   8.261   9.705   9.407 -0.3944  0.8096  0.3541
19075SOL    HW163317   8.259   9.800   9.412 -0.0382  0.8434 -0.1114
19075SOL    HW263318   8.193   9.676   9.468  0.7767  1.3146  1.9769
19076SOL     OW63319   6.099   0.751   4.614  0.6395  0.0725 -0.2009
19076SOL    HW163320   6.108   0.656   4.626  3.0049  0.4251  1.3420
19076SOL    HW263321   6.189   0.783   4.611 -0.0489  2.6415  2.6137
19077SOL     OW63322   2.581   1.203   2.062  0.5178 -0.0613 -0.2049
19077SOL    HW163323   2.661   1.164   2.027 -0.1001 -0.6590 -0.9793
19077SOL    HW263324   2.512   1.139   2.044 -0.1809  0.5327  0.2578
19078SOL     OW63325   4.967   6.165   8.224 -0.2046  0.0419 -0.4004
19078SOL    HW163326   4.880   6.179   8.187  0.0014  0.6874 -0.6532
19078SOL    HW263327   5.000   6.087   8.179 -0.7454 -0.3526 -0.1239
19079SOL     OW63328  10.510   0.250   5.418 -0.5390  0.2244  0.2270
19079SOL    HW163329  10.564   0.232   5.495  1.1929 -0.2602 -1.0395
19079SOL    HW263330  10.497   0.165   5.377 -0.3908  0.6180 -0.6696
19080SOL     OW63331   2.639   5.140   7.999 -0.3204  0.6070 -0.8638
19080SOL    HW163332   2.624   5.054   7.959  1.6985  0.5561 -1.6630
19080SOL    HW263333   2.593   5.201   7.942 -1.0163  0.1493 -0.8060
19081SOL     OW63334   2.404  10.450   9.487 -0.3234  0.1399 -0.3771
19081SOL    HW163335   2.463  10.473   9.560 -0.7254  0.0634 -0.0226
19081SOL    HW263336   2.336  10.397   9.528  0.2046 -1.0964 -1.0713
19082SOL     OW63337   9.652   1.625   0.764  0.0768  0.2983 -0.2585
19082SOL    HW163338   9.613   1.630   0.676  1.3092 -0.6029 -0.8920
19082SOL    HW263339   9.672   1.716   0.786 -1.8738  0.7392 -0.1135
19083SOL     OW63340   6.369   7.386   0.893 -0.1496 -0.7366  0.7085
19083SOL    HW163341   6.454   7.404   0.931  0.0913 -0.7622  0.1967
19083SOL    HW263342   6.331   7.473   0.877 -0.7762 -0.7310  2.1341
19084SOL     OW63343  10.823   0.314   4.110 -0.0687 -0.0968  0.2226
19084SOL    HW163344  10.785   0.351   4.189  0.2879  0.1553  0.2777
19084SOL    HW263345  10.782   0.363   4.038  0.0759  0.1017  0.2765
19085SOL     OW63346   9.557  10.517   3.144  1.0026  0.7621  0.0997
19085SOL    HW163347   9.488  10.539   3.082  1.7027  2.8599 -0.0285
19085SOL    HW263348   9.513  10.466   3.212 -0.9108  2.7436  0.4572
19086SOL     OW63349  10.801   7.667   6.077  0.0758  0.1740  0.3001
19086SOL    HW163350  10.801   7.641   5.984 -0.0984 -1.4443  0.7225
19086SOL    HW263351  10.876   7.621   6.114 -0.0471  0.5587  1.0383
19087SOL     OW63352   1.749   8.953   4.062 -0.3679  0.2853 -0.2939
19087SOL    HW163353   1.725   9.025   4.003  0.2798 -0.4507 -1.5114
19087SOL    HW263354   1.739   8.874   4.008  0.7400 -0.3721  0.4309
19088SOL     OW63355   9.411   9.440   8.635  0.1253  0.0348  0.0621
19088SOL    HW163356   9.355   9.488   8.696  2.2021  2.2630  0.3319
19088SOL    HW263357   9.388   9.348   8.650 -3.1879  0.7822  0.3506
19089SOL     OW63358   1.163   8.590  10.621 -0.1687 -0.0320  0.2778
19089SOL    HW163359   1.105   8.661  10.594 -0.8625 -0.8201 -0.3761
19089SOL    HW263360   1.232   8.633  10.671  0.3181  1.2936 -1.4432
19090SOL     OW63361  10.308  10.855   0.325 -0.2575  0.3450 -0.1962
19090SOL    HW163362  10.368  10.790   0.363  1.0735  1.3109 -0.5630
19090SOL    HW263363  10.294  10.823   0.236 -0.3588  0.0686 -0.0836
19091SOL     OW63364   0.432   0.788   8.219 -0.1617 -0.1073 -0.2606
19091SOL    HW163365   0.501   0.773   8.284  0.3662  0.9699 -0.5352
19091SOL    HW263366   0.480   0.805   8.137 -0.7098  1.3696 -0.3026
19092SOL     OW63367   0.674   6.929  10.442  0.0480  0.2163  0.2048
19092SOL    HW163368   0.684   6.893  10.354 -2.4635  1.3050 -0.6223
19092SOL    HW263369   0.752   6.983  10.456  0.5645 -0.1174 -1.2805
19093SOL     OW63370  10.795   7.102   4.622 -0.2149  0.0621 -0.3467
19093SOL    HW163371  10.704   7.121   4.643  0.0306  0.1462  0.6998
19093SOL    HW263372  10.794   7.012   4.590 -0.9769  0.8144 -2.6179
19094SOL     OW63373   4.537   9.130   2.467  0.2525  0.3798  0.6767
19094SOL    HW163374   4.452   9.154   2.504  0.7241  0.8623  1.4739
19094SOL    HW263375   4.542   9.035   2.478 -1.0706  0.0224 -1.3083
19095SOL     OW63376   6.571  10.444   7.885 -0.5344 -0.1130  1.0264
19095SOL    HW163377   6.558  10.362   7.932 -1.5372 -0.0221  0.9255
19095SOL    HW263378   6.661  10.439   7.852 -0.4934 -1.0407  1.2528
19096SOL     OW63379   4.247   8.308   4.967 -0.2484 -0.5895 -0.2114
19096SOL    HW163380   4.233   8.216   4.945 -1.8133 -0.1149 -1.4146
19096SOL    HW263381   4.328   8.332   4.922  0.3119 -1.4218  0.3211
19097SOL     OW63382   0.885   9.002   1.256  0.0299  0.1951  0.3698
19097SOL    HW163383   0.833   9.070   1.299 -0.7285  0.4569 -0.9036
19097SOL    HW263384   0.879   8.927   1.315  0.6786  1.1310  1.6761
19098SOL     OW63385   3.518  10.812   2.485 -0.0850  0.0541 -0.2512
19098SOL    HW163386   3.472  10.862   2.417  1.9041 -0.8508 -2.3626
19098SOL    HW263387   3.610  10.812   2.457  0.8128 -0.4755  2.4081
19099SOL     OW63388   4.256   8.386   7.329  0.4428  0.2529 -0.2489
19099SOL    HW163389   4.182   8.400   7.271  1.1933 -0.4429 -1.4084
19099SOL    HW263390   4.325   8.351   7.272  2.3839  2.8121  0.3194
19100SOL     OW63391   0.306   5.483  10.312 -0.6072 -0.1558  0.1565
19100SOL    HW163392   0.375   5.418  10.295 -0.3223  0.3127 -0.5406
19100SOL    HW263393   0.236   5.459  10.250 -0.9948 -0.5131  0.7278
19101SOL     OW63394   0.035   3.933   7.730  0.1383 -0.0302  0.3962
19101SOL    HW163395   0.000   3.949   7.818 -1.4602 -0.1818 -0.1684
19101SOL    HW263396  -0.020   3.863   7.695  1.0331 -0.2689 -0.5758
19102SOL     OW63397   0.440   8.042   3.266  0.0892 -0.0831  0.3076
19102SOL    HW163398   0.428   8.117   3.208 -1.7441  0.1995  0.9873
19102SOL    HW263399   0.378   7.977   3.235 -0.2474 -0.2791  1.3502
19103SOL     OW63400   6.238   5.965   0.624 -0.1906  0.0734  0.0576
19103SOL    HW163401   6.327   5.954   0.592  0.4370 -0.3774  1.8540
19103SOL    HW263402   6.235   5.916   0.706 -1.7884  0.9522  0.5756
19104SOL     OW63403   4.247   4.594   5.149 -0.0508  0.1273  0.2020
19104SOL    HW163404   4.199   4.571   5.228  0.1532  1.6371  0.8123
19104SOL    HW263405   4.262   4.511   5.104 -1.2312 -0.6184  1.1331
19105SOL     OW63406   9.161   6.503   8.561  0.1302 -0.3323 -0.1056
19105SOL    HW163407   9.158   6.503   8.465 -0.3707 -0.0723 -0.0925
19105SOL    HW263408   9.253   6.487   8.582  1.1563  3.6730 -0.6651
19106SOL     OW63409   4.522   5.166   8.581 -0.2066 -0.0790  0.0131
19106SOL    HW163410   4.558   5.239   8.631  1.5518 -0.5357 -0.5010
19106SOL    HW263411   4.490   5.205   8.499  0.5597  0.1621 -0.1809
19107SOL     OW63412   1.066  10.064  10.639 -0.0371  0.2938  0.0252
19107SOL    HW163413   1.082  10.152  10.604 -0.1017 -0.2499 -1.4093
19107SOL    HW263414   0.991  10.075  10.697 -0.2230  1.1279 -0.3633
19108SOL     OW63415   6.375   5.940   3.384  0.2023 -0.4623  0.9823
19108SOL    HW163416   6.374   6.032   3.413 -0.1257  0.3324 -1.3888
19108SOL    HW263417   6.462   5.909   3.410  1.7877  1.6696 -1.3582
19109SOL     OW63418   4.495   5.112   0.759  0.4565  0.3692  0.4640
19109SOL    HW163419   4.550   5.133   0.834  1.1518 -0.4969  0.2157
19109SOL    HW263420   4.407   5.142   0.785  0.8501  0.8894  1.2509
19110SOL     OW63421   4.212   2.987   4.690  0.1498  0.0790 -0.3025
19110SOL    HW163422   4.121   3.016   4.694  0.3502  0.7889 -0.8534
19110SOL    HW263423   4.227   2.944   4.775 -0.1824  1.4846  0.4858
19111SOL     OW63424   5.801   8.045   7.523  0.0598 -0.0553 -0.3500
19111SOL    HW163425   5.775   8.115   7.583  0.6480  1.6522 -1.9911
19111SOL    HW263426   5.732   7.979   7.532 -1.0364  1.1663  0.5720
19112SOL     OW63427   1.777   1.653   5.751 -0.5112  0.0820 -0.7021
19112SOL    HW163428   1.718   1.683   5.820  1.7716  0.3608  1.2457
19112SOL    HW263429   1.762   1.715   5.679  0.3690  2.8797  1.3156
19113SOL     OW63430   0.722  10.411   7.631  0.2011 -0.1044 -0.2075
19113SOL    HW163431   0.791  10.467   7.595 -1.3362  2.3899  0.4712
19113SOL    HW263432   0.754  10.386   7.718  0.5904  0.3348 -0.2224
19114SOL     OW63433   6.645   2.687   3.850  0.2160  0.0362 -0.0387
19114SOL    HW163434   6.577   2.622   3.868  0.2097 -0.1275 -0.6199
19114SOL    HW263435   6.619   2.764   3.900 -0.7500  0.1921 -0.7427
19115SOL     OW63436   7.028   0.994   4.392  0.3854  0.3689  0.0928
19115SOL    HW163437   6.997   0.906   4.368 -0.3225  0.6462 -0.0472
19115SOL    HW263438   7.035   1.040   4.309 -1.7015  1.2141  0.3283
19116SOL     OW63439   1.486   4.666   7.384  0.5346  0.2667  0.2644
19116SOL    HW163440   1.558   4.727   7.398  1.4870 -1.0239  1.2262
19116SOL    HW263441   1.522   4.580   7.408 -1.0599 -0.5391 -0.0881
19117SOL     OW63442   1.923   0.830   0.148  0.4574  0.4119 -0.1087
19117SOL    HW163443   1.994   0.812   0.087 -0.0192  0.0362 -0.5576
19117SOL    HW263444   1.843   0.816   0.097  0.0556  0.0337  0.6089
19118SOL     OW63445   2.995  10.010   8.985 -0.1139  0.0552 -0.3603
19118SOL    HW163446   3.088   9.993   8.972 -0.2589  0.1594 -1.5864
19118SOL    HW263447   2.977   9.975   9.072  0.4260 -2.7701 -1.2787
19119SOL     OW63448   6.923   7.257   5.503  0.3569 -0.2808 -0.0102
19119SOL    HW163449   6.939   7.328   5.442 -1.6636  0.4025  0.1908
19119SOL    HW263450   6.952   7.178   5.457  1.3761  0.4959 -0.7494
19120SOL     OW63451   8.446   1.776   6.458  0.0960  0.0928  0.4492
19120SOL    HW163452   8.383   1.776   6.385 -1.4764 -0.6298  1.7266
19120SOL    HW263453   8.471   1.684   6.468  1.5832  0.4074 -0.1917
19121SOL     OW63454   8.264   1.106   5.714  0.0204  0.1022  0.3589
19121SOL    HW163455   8.233   1.190   5.747 -2.6472 -0.3300 -0.7422
19121SOL    HW263456   8.286   1.123   5.622 -0.8131 -0.4441  0.0501
19122SOL     OW63457   8.257   6.947  10.712 -0.0349 -0.5371  0.1889
19122SOL    HW163458   8.325   6.893  10.671 -0.0872 -1.6743  1.5223
19122SOL    HW263459   8.296   7.034  10.717  0.4494 -0.6514 -1.0740
19123SOL     OW63460   9.768   0.041  10.040  0.1884  0.3491 -0.3182
19123SOL    HW163461   9.767  -0.011   9.960  0.8881  2.2681 -1.6471
19123SOL    HW263462   9.861   0.055  10.058  0.0114  1.2350 -0.0610
19124SOL     OW63463   1.277   3.907   0.003 -0.0032 -0.3628  0.1012
19124SOL    HW163464   1.364   3.938  -0.024  0.9404 -1.1381  2.0002
19124SOL    HW263465   1.268   3.821  -0.039 -2.1346  1.6575 -4.2289
19125SOL     OW63466   6.620   8.232   1.586 -0.1690  0.0580  0.3083
19125SOL    HW163467   6.608   8.137   1.587 -0.6887  0.1085 -0.3567
19125SOL    HW263468   6.533   8.268   1.602  0.3148  0.4459  2.4624
19126SOL     OW63469   4.930   9.202   1.836  0.3854 -0.3688  0.4583
19126SOL    HW163470   4.836   9.219   1.826  0.2028 -0.4724  1.8649
19126SOL    HW263471   4.939   9.108   1.825  0.4583 -0.2544 -0.5489
19127SOL     OW63472   2.703   8.275   0.994 -0.8229 -0.4320  0.5308
19127SOL    HW163473   2.751   8.343   1.040 -0.7261  0.1964 -0.4646
19127SOL    HW263474   2.643   8.323   0.936 -0.3456 -1.1645 -0.6170
19128SOL     OW63475   9.232   2.480   7.235 -0.0428  1.3844  0.4726
19128SOL    HW163476   9.315   2.526   7.221  0.1967  0.7796 -0.1777
19128SOL    HW263477   9.172   2.522   7.174  0.4040  0.2873 -0.7771
19129SOL     OW63478   2.590   3.214   6.928  0.1713  0.1118 -0.1011
19129SOL    HW163479   2.563   3.302   6.903  0.7542  0.5138  0.6660
19129SOL    HW263480   2.542   3.196   7.009 -0.3037 -0.4650 -0.5026
19130SOL     OW63481   1.787   8.988   2.313  0.1741  0.1305 -0.1003
19130SOL    HW163482   1.725   8.949   2.252 -2.4006  0.4693  2.0986
19130SOL    HW263483   1.873   8.960   2.281 -1.1219 -1.3371 -2.6574
19131SOL     OW63484   2.062   4.930   7.739 -0.0968  0.1449 -0.2886
19131SOL    HW163485   2.032   5.014   7.774 -0.5149  0.1965 -0.7552
19131SOL    HW263486   2.011   4.919   7.658 -0.7102 -0.9854  0.2284
19132SOL     OW63487   4.149  10.532   1.282  0.0071 -0.5727 -0.3209
19132SOL    HW163488   4.079  10.487   1.233  0.2472 -1.7976  0.4091
19132SOL    HW263489   4.180  10.600   1.223  1.3519 -2.9590 -2.6106
19133SOL     OW63490   4.777   4.215   4.391  0.1146 -0.4314  0.3960
19133SOL    HW163491   4.776   4.141   4.330  0.5280 -0.2279  0.1331
19133SOL    HW263492   4.686   4.227   4.417 -0.0972 -0.3796 -0.3586
19134SOL     OW63493   6.707   7.252   6.760 -0.1689 -0.2034 -0.6079
19134SOL    HW163494   6.621   7.270   6.797  1.2429 -0.8163  3.4916
19134SOL    HW263495   6.758   7.331   6.780  0.7028 -0.5414 -1.4167
19135SOL     OW63496   7.803   2.508   9.951 -0.1153  0.3302  0.4707
19135SOL    HW163497   7.790   2.587  10.003  0.6592  0.9089 -0.1902
19135SOL    HW263498   7.819   2.439  10.016 -2.3488  0.3715  1.1246
19136SOL     OW63499   1.404   4.623   8.266  0.0388 -0.3748 -0.0606
19136SOL    HW163500   1.407   4.696   8.204  0.9113 -0.8032 -0.5430
19136SOL    HW263501   1.450   4.654   8.343 -1.9263  0.5309  0.8322
19137SOL     OW63502   9.336   9.501   0.494  0.1681 -0.3873 -0.4829
19137SOL    HW163503   9.378   9.425   0.455  0.6323 -0.1548 -0.4456
19137SOL    HW263504   9.401   9.571   0.487  0.0885 -0.2269  0.3015
19138SOL     OW63505   8.132   2.997   7.383 -0.6365 -0.2452  0.0734
19138SOL    HW163506   8.142   3.090   7.361 -0.2468 -0.4773 -0.7337
19138SOL    HW263507   8.089   2.958   7.307  0.8973 -1.0902 -0.4089
19139SOL     OW63508   4.834   4.858   2.946  0.0250  0.8634  0.5855
19139SOL    HW163509   4.930   4.853   2.951  0.0255  1.7280  2.0257
19139SOL    HW263510   4.815   4.952   2.947 -0.8731  0.6867  1.5820
19140SOL     OW63511   2.895   0.622   1.388 -0.0258 -0.3682 -0.4583
19140SOL    HW163512   2.908   0.530   1.410  0.0492 -0.2905 -0.1723
19140SOL    HW263513   2.982   0.661   1.395 -0.2723 -0.0015  0.7325
19141SOL     OW63514   6.791   7.657   1.283 -0.3649 -0.0356  0.1188
19141SOL    HW163515   6.806   7.566   1.258 -4.2409 -0.8207 -0.0041
19141SOL    HW263516   6.759   7.652   1.374  2.2920  1.6241  1.2719
19142SOL     OW63517   6.605   2.943   7.072 -0.2057 -0.7973  0.0595
19142SOL    HW163518   6.642   2.977   7.154 -1.1075 -1.2577  0.6786
19142SOL    HW263519   6.642   3.000   7.004  0.5725 -0.4142  0.7763
19143SOL     OW63520   9.538   8.416   0.342  0.2345 -0.7984 -0.1475
19143SOL    HW163521   9.563   8.329   0.310 -1.6820 -0.4037 -3.1339
19143SOL    HW263522   9.592   8.477   0.291 -0.7727 -0.1971 -0.5288
19144SOL     OW63523   6.886   2.154   0.140  0.3274  0.3768  0.0207
19144SOL    HW163524   6.915   2.086   0.079 -0.3702  1.6674 -1.8098
19144SOL    HW263525   6.920   2.125   0.225  2.0085 -1.0917 -1.0746
19145SOL     OW63526   7.811   7.867  10.443 -0.2803 -0.2433 -0.3013
19145SOL    HW163527   7.763   7.878  10.361 -0.2240 -1.1762 -0.4641
19145SOL    HW263528   7.866   7.790  10.429  3.5985  2.3408 -1.2692
19146SOL     OW63529   8.261   7.201   5.855  0.1639  0.7624 -0.3843
19146SOL    HW163530   8.173   7.166   5.841  0.3780 -0.6194  1.3548
19146SOL    HW263531   8.309   7.179   5.775 -0.1844 -1.5377 -0.0289
19147SOL     OW63532   3.369   9.362   2.830 -0.4941 -0.2227  0.5112
19147SOL    HW163533   3.460   9.379   2.855 -0.2366 -0.4614 -0.2379
19147SOL    HW263534   3.353   9.422   2.757 -0.6435 -0.8298  0.0403
19148SOL     OW63535  10.592   3.573   6.408  0.2431  0.4973 -0.0266
19148SOL    HW163536  10.606   3.619   6.326 -0.5766 -1.8131 -1.5537
19148SOL    HW263537  10.499   3.584   6.427 -0.0857 -0.8633 -0.6913
19149SOL     OW63538  10.757   6.913   4.896  0.2104  0.1995  0.1103
19149SOL    HW163539  10.738   6.820   4.907 -0.0411  0.1572 -0.6284
19149SOL    HW263540  10.851   6.915   4.880  0.3488  0.1469  0.8620
19150SOL     OW63541   2.003   1.038   0.290  0.1963  0.0538 -0.1252
19150SOL    HW163542   1.978   0.952   0.256 -1.1138 -0.1682  1.2966
19150SOL    HW263543   1.993   1.097   0.215 -1.0305 -0.6797 -0.5671
19151SOL     OW63544   6.338   8.333   6.198 -0.3580  0.2476  0.1865
19151SOL    HW163545   6.363   8.421   6.169 -0.7324  0.4891  0.5933
19151SOL    HW263546   6.422   8.290   6.217 -0.2091  1.1674  1.8687
19152SOL     OW63547   1.047   7.039   6.951  0.0278  0.2970 -0.3696
19152SOL    HW163548   0.996   7.019   7.030 -0.6113 -0.5669 -0.9728
19152SOL    HW263549   1.008   7.119   6.917  0.2742  0.6462  0.1565
19153SOL     OW63550   2.665   8.797   9.527  0.4541 -0.1544  0.3850
19153SOL    HW163551   2.641   8.706   9.543  1.8682 -0.5787  0.2233
19153SOL    HW263552   2.693   8.829   9.613 -1.5702  0.6411  0.7883
19154SOL     OW63553   9.568   8.831   0.234  0.5055  0.2595  0.1532
19154SOL    HW163554   9.489   8.832   0.289  0.8127 -0.6571  0.6226
19154SOL    HW263555   9.566   8.746   0.190  1.1528  0.2937  0.0538
19155SOL     OW63556   3.679   1.551   7.290 -0.2479  0.2440  0.5427
19155SOL    HW163557   3.640   1.627   7.247  1.4098  1.9109  1.8323
19155SOL    HW263558   3.632   1.545   7.374 -0.4235 -0.2160  0.4141
19156SOL     OW63559  10.153   1.263   5.469  0.2952  0.5166  0.6462
19156SOL    HW163560  10.193   1.347   5.448 -1.0095  1.1575  0.5853
19156SOL    HW263561  10.079   1.286   5.526 -0.4539 -0.5169  0.1245
19157SOL     OW63562   4.896   8.675   4.684 -0.3330 -0.4125 -0.3605
19157SOL    HW163563   4.827   8.721   4.637 -1.3268 -1.1822  0.3035
19157SOL    HW263564   4.941   8.623   4.617 -0.2289  0.2757 -0.8351
19158SOL     OW63565  10.094   5.771  10.788 -0.3576 -0.2071 -0.7756
19158SOL    HW163566  10.099   5.715  10.865 -2.2798 -0.5375 -0.8413
19158SOL    HW263567  10.185   5.794  10.769  0.1050  1.2882  2.5570
19159SOL     OW63568   5.877   6.451   5.197 -0.0710 -0.1150  0.1007
19159SOL    HW163569   5.944   6.436   5.130 -0.7917  0.3845 -0.7474
19159SOL    HW263570   5.803   6.397   5.169 -0.0838 -0.5544  0.9587
19160SOL     OW63571   0.708   0.180   0.531 -0.0237 -0.3204  0.2257
19160SOL    HW163572   0.721   0.266   0.491 -1.7779  0.0192  0.2903
19160SOL    HW263573   0.634   0.141   0.483  0.3272 -1.5209  0.6144
19161SOL     OW63574  10.739   8.729   1.575  0.6299  0.1509  0.0187
19161SOL    HW163575  10.833   8.737   1.592  0.3725  0.6663  1.3163
19161SOL    HW263576  10.733   8.718   1.480  2.1290 -2.0674  0.0952
19162SOL     OW63577   6.272   6.420   9.519 -0.4944 -0.2010  0.0499
19162SOL    HW163578   6.348   6.405   9.576 -1.3623 -0.0512  1.2948
19162SOL    HW263579   6.299   6.388   9.433  1.3179  0.7767  0.2300
19163SOL     OW63580   2.229   9.336   2.329  0.3458  0.1961  0.1980
19163SOL    HW163581   2.280   9.266   2.288  0.7328  0.6163 -0.0475
19163SOL    HW263582   2.205   9.301   2.415 -0.3766 -0.6403 -0.3400
19164SOL     OW63583   3.589   0.407   2.232 -0.3424 -0.0376  0.0261
19164SOL    HW163584   3.528   0.477   2.256 -2.1831 -1.1105 -1.2496
19164SOL    HW263585   3.605   0.360   2.314  0.2335  1.2948  0.7243
19165SOL     OW63586   0.855   8.347  10.440 -0.2071 -0.5756  0.7438
19165SOL    HW163587   0.874   8.256  10.461  0.8139 -0.3910  0.6894
19165SOL    HW263588   0.766   8.361  10.471 -1.3102 -2.2642 -1.4647
19166SOL     OW63589   2.525   4.387   0.183 -0.9228 -0.2172  0.2083
19166SOL    HW163590   2.576   4.322   0.232  1.9727  0.2656 -1.8932
19166SOL    HW263591   2.541   4.366   0.091 -1.1006  2.5289 -0.5520
19167SOL     OW63592   1.466   9.714   9.056 -0.1758 -0.4895  0.3078
19167SOL    HW163593   1.464   9.690   8.964  0.5181 -1.9188  0.6397
19167SOL    HW263594   1.540   9.666   9.092 -0.2103  0.3265  1.5452
19168SOL     OW63595   7.064   0.574  10.094 -0.2148 -0.1309  0.4852
19168SOL    HW163596   7.064   0.666  10.121 -1.0968 -0.2416  0.8933
19168SOL    HW263597   6.985   0.565  10.040  1.0075 -0.1370 -1.3961
19169SOL     OW63598   7.139   8.627   6.412  0.1268 -0.3549 -0.4808
19169SOL    HW163599   7.115   8.698   6.472  2.5698 -0.2780  0.4919
19169SOL    HW263600   7.081   8.555   6.437 -0.1135  0.2388  0.7910
19170SOL     OW63601   0.296   7.913   0.975 -0.4000  0.7133 -0.2257
19170SOL    HW163602   0.370   7.900   0.914 -2.1267  2.3357 -2.8895
19170SOL    HW263603   0.246   7.832   0.969 -0.6392  0.9127 -1.1695
19171SOL     OW63604  10.873   6.309   1.143  0.2448 -0.0961  0.1626
19171SOL    HW163605  10.891   6.396   1.108 -0.4987  0.6870  1.6344
19171SOL    HW263606  10.906   6.249   1.077 -0.0210  1.3029 -1.2887
19172SOL     OW63607  10.519   0.273   1.581 -0.3465  0.1277  0.0109
19172SOL    HW163608  10.549   0.205   1.641 -1.9508  0.2518  1.0485
19172SOL    HW263609  10.461   0.327   1.635 -2.0695  0.1023 -1.7054
19173SOL     OW63610   6.981   5.493   7.515  0.0423 -0.2085 -0.4004
19173SOL    HW163611   6.942   5.423   7.568  1.1278  0.2613  1.0941
19173SOL    HW263612   6.941   5.573   7.548 -0.8893 -0.0644 -1.8253
19174SOL     OW63613   4.823   2.422   3.297  0.2234  0.5101 -0.0935
19174SOL    HW163614   4.914   2.393   3.291 -0.4698 -2.3033  1.1077
19174SOL    HW263615   4.826   2.505   3.344  2.1449  0.4051  0.0215
19175SOL     OW63616   1.467   6.287   8.837  0.1866 -0.1394  0.1917
19175SOL    HW163617   1.404   6.356   8.857  1.2585  0.3906  1.8673
19175SOL    HW263618   1.415   6.207   8.839 -0.6574  0.3937  0.3261
19176SOL     OW63619   5.487   5.490   1.692 -0.1834  0.1199 -0.4187
19176SOL    HW163620   5.541   5.568   1.699  2.6906 -1.6634 -1.1123
19176SOL    HW263621   5.448   5.495   1.604 -2.0981  1.8878  0.4366
19177SOL     OW63622   6.527   0.863   4.314  0.7746 -0.2398  0.1393
19177SOL    HW163623   6.462   0.932   4.331  1.5951  0.8070 -0.7990
19177SOL    HW263624   6.481   0.802   4.256  0.5056  0.3226 -0.2572
19178SOL     OW63625   4.595   3.533   5.425  0.1469 -0.3167 -0.0686
19178SOL    HW163626   4.552   3.579   5.353  0.5582  1.1752  0.5953
19178SOL    HW263627   4.537   3.545   5.500  0.4813 -0.5091  0.2256
19179SOL     OW63628   5.351   6.842   5.887 -0.0578 -0.3458  0.1469
19179SOL    HW163629   5.394   6.866   5.970 -0.2896 -0.7032  0.3673
19179SOL    HW263630   5.287   6.912   5.873  0.4998  0.1245 -0.1182
19180SOL     OW63631   7.407   2.957   5.500  0.5162 -0.0922 -0.4861
19180SOL    HW163632   7.436   3.026   5.440 -0.7988 -0.7647 -1.9552
19180SOL    HW263633   7.325   2.989   5.536 -0.7497 -1.3006 -2.1000
19181SOL     OW63634  10.789   0.725   5.717 -0.4574 -0.0193 -0.1217
19181SOL    HW163635  10.712   0.706   5.664 -0.6429  1.6825 -0.5076
19181SOL    HW263636  10.856   0.753   5.654 -0.6983  2.0771  0.4807
19182SOL     OW63637   2.108   0.456  10.721  0.3245 -0.2039  0.0743
19182SOL    HW163638   2.055   0.477  10.645 -0.5831 -0.1936  0.6885
19182SOL    HW263639   2.191   0.503  10.708 -0.8913  2.2046  0.4756
19183SOL     OW63640   4.391   5.346   9.066 -0.0491 -0.2851  0.2821
19183SOL    HW163641   4.303   5.362   9.031  0.1691 -0.6598 -0.4487
19183SOL    HW263642   4.382   5.359   9.161 -0.3591  2.1724  0.0002
19184SOL     OW63643   4.019   9.042   0.925 -0.1947  0.6621 -0.3564
19184SOL    HW163644   3.972   8.977   0.978 -0.8190  2.3551  1.2729
19184SOL    HW263645   3.955   9.111   0.910  0.2299  0.6010 -2.6972
19185SOL     OW63646   0.664   8.535   6.688 -0.1252  0.3270 -0.0767
19185SOL    HW163647   0.572   8.538   6.716 -0.1414  0.1005 -0.0988
19185SOL    HW263648   0.665   8.471   6.617 -0.0458  0.7468 -0.4494
19186SOL     OW63649  10.250   7.881   1.820  0.0778  0.3255  0.3703
19186SOL    HW163650  10.168   7.832   1.821  0.1806  0.1514  0.6141
19186SOL    HW263651  10.229   7.964   1.777 -0.1258  0.1131  0.0572
19187SOL     OW63652   1.780   1.099   3.592  0.2429 -0.0053  0.6407
19187SOL    HW163653   1.843   1.034   3.623 -0.1673 -0.8186 -0.1732
19187SOL    HW263654   1.728   1.122   3.669 -1.1874 -2.4708  0.5112
19188SOL     OW63655   9.075   4.079   5.945  0.1667 -0.0805  0.0423
19188SOL    HW163656   9.135   4.006   5.962  2.1962  1.6769  0.8526
19188SOL    HW263657   9.070   4.126   6.029  0.0387  1.4773 -0.8019
19189SOL     OW63658   7.205   0.562   4.297 -0.2938 -0.1670  0.1442
19189SOL    HW163659   7.123   0.604   4.320 -0.0071 -0.0648  1.0287
19189SOL    HW263660   7.235   0.521   4.378  1.2222  0.9818  0.2118
19190SOL     OW63661   6.408  10.272   4.372  0.0377  0.0826 -0.1604
19190SOL    HW163662   6.482  10.332   4.362 -0.4137  0.4608 -1.3857
19190SOL    HW263663   6.334  10.328   4.396 -0.1109 -0.1484 -0.0774
19191SOL     OW63664  10.861   3.819  10.738  0.3684 -0.3235  0.4575
19191SOL    HW163665  10.872   3.901  10.691 -0.1154 -0.6634 -0.2744
19191SOL    HW263666  10.813   3.763  10.677  0.4809 -1.0672  1.0374
19192SOL     OW63667   0.334   3.043   7.040 -0.4209  0.2081  0.3237
19192SOL    HW163668   0.424   3.043   7.009 -0.5423  1.2778 -0.0537
19192SOL    HW263669   0.282   3.021   6.962 -0.6033  1.3045  0.1190
19193SOL     OW63670  10.728   5.605  10.392  0.2230  0.2308  0.2415
19193SOL    HW163671  10.785   5.630  10.318 -0.2461 -0.6401 -0.4442
19193SOL    HW263672  10.748   5.512  10.406 -0.5034  0.1030  0.4649
19194SOL     OW63673   1.439   0.868  10.093  0.3315  0.8881  0.1736
19194SOL    HW163674   1.408   0.781  10.067  0.2440  1.0412 -0.2376
19194SOL    HW263675   1.362   0.924  10.087  0.1000  0.7525  1.6202
19195SOL     OW63676   7.185   7.878   5.981  0.0364  0.4154  0.0522
19195SOL    HW163677   7.270   7.863   6.022  0.2415 -2.4501 -1.1658
19195SOL    HW263678   7.206   7.901   5.890 -0.4703 -0.3364 -0.2621
19196SOL     OW63679   5.433   5.348   1.038  0.6820  0.0958 -0.0251
19196SOL    HW163680   5.375   5.403   0.985  1.6271  0.3958 -0.7750
19196SOL    HW263681   5.469   5.408   1.104  1.6865  0.3959 -0.8222
19197SOL     OW63682   5.761  10.899   0.495  0.0381  0.1311 -0.6335
19197SOL    HW163683   5.722  10.814   0.515  0.4171 -0.8667 -3.6306
19197SOL    HW263684   5.777  10.939   0.580  0.8696 -3.2418  0.9459
19198SOL     OW63685   6.449   2.000   3.170  0.0152 -0.1633  0.7209
19198SOL    HW163686   6.491   1.920   3.140 -0.3297  0.0594 -0.4373
19198SOL    HW263687   6.414   1.979   3.256  1.4366 -0.7152  1.1893
19199SOL     OW63688   1.006   3.070   9.478 -0.0089  0.9349 -0.4062
19199SOL    HW163689   1.090   3.030   9.499 -0.9971 -1.0504  0.0512
19199SOL    HW263690   1.021   3.119   9.397  1.4759  0.2378 -0.5772
19200SOL     OW63691   2.462  10.039   6.830  0.4494 -0.1600  0.2660
19200SOL    HW163692   2.509  10.115   6.796 -0.2565 -0.9317 -2.7439
19200SOL    HW263693   2.530   9.980   6.862  1.2234  0.4438 -0.2426
19201SOL     OW63694   3.886   7.235   4.799 -0.2294 -0.6845 -0.0775
19201SOL    HW163695   3.848   7.161   4.846 -1.3885  0.3904  0.7390
19201SOL    HW263696   3.972   7.204   4.772 -1.2326 -2.8566 -1.0842
19202SOL     OW63697  10.078  10.222   5.116  0.4044  0.4846 -0.0656
19202SOL    HW163698  10.076  10.143   5.062  0.4879 -0.2786  1.0144
19202SOL    HW263699   9.987  10.236   5.141  0.4401  0.5042  0.0544
19203SOL     OW63700   8.131   3.676   1.015  0.0805  0.0678  0.0168
19203SOL    HW163701   8.087   3.664   1.099  1.4707 -0.7587  0.6638
19203SOL    HW263702   8.202   3.612   1.016  0.2574  0.1878 -1.7101
19204SOL     OW63703   5.186   3.441   9.615 -0.1550  0.4125 -0.4697
19204SOL    HW163704   5.114   3.464   9.556  0.5457 -0.9257 -1.9390
19204SOL    HW263705   5.263   3.437   9.558  0.7996  0.2955  0.7790
19205SOL     OW63706  10.915   0.800   6.402 -0.5473 -0.2563  0.2570
19205SOL    HW163707  10.964   0.725   6.369  0.1026  0.3172 -0.1138
19205SOL    HW263708  10.924   0.795   6.497 -1.2209 -1.1124  0.2851
19206SOL     OW63709   9.598   0.176   3.372  0.0930 -0.1820 -0.6356
19206SOL    HW163710   9.621   0.113   3.303 -0.8529 -0.2402 -0.9130
19206SOL    HW263711   9.628   0.260   3.337  0.6215 -0.3597 -0.6234
19207SOL     OW63712   6.806   3.778   9.024 -0.0667  0.4782 -0.4808
19207SOL    HW163713   6.780   3.731   8.944  1.5419  0.1738 -0.8673
19207SOL    HW263714   6.726   3.820   9.054 -1.3852 -1.7420 -0.6553
19208SOL     OW63715   9.626   9.405  10.149  0.0193 -0.3738  0.0635
19208SOL    HW163716   9.661   9.326  10.108 -0.3151 -1.4069  1.6868
19208SOL    HW263717   9.559   9.436  10.088  0.5872 -0.9892 -0.8870
19209SOL     OW63718   3.872   5.749   3.864 -0.3314 -0.3617 -0.1037
19209SOL    HW163719   3.790   5.743   3.816 -1.1093 -0.6770  1.2289
19209SOL    HW263720   3.873   5.673   3.922  0.7354 -0.1685  0.1659
19210SOL     OW63721  10.305   5.430   6.040 -0.0650 -0.4298 -0.2859
19210SOL    HW163722  10.304   5.437   6.136 -1.1726  2.5772 -0.4066
19210SOL    HW263723  10.235   5.368   6.021 -0.4690 -0.3610  0.8494
19211SOL     OW63724   8.876   3.132   6.302  0.2708 -0.6901  0.6068
19211SOL    HW163725   8.872   3.213   6.353 -1.1915 -0.4804  0.2135
19211SOL    HW263726   8.793   3.131   6.254  0.2059 -2.4850  0.7105
19212SOL     OW63727   4.940   7.372   0.320  0.5786 -0.1101 -0.2007
19212SOL    HW163728   4.949   7.465   0.343  0.4397 -0.5924  2.0986
19212SOL    HW263729   5.010   7.356   0.257  1.0529  1.3861 -0.1121
19213SOL     OW63730   0.403   6.278   6.188  0.1661  0.2532 -0.3564
19213SOL    HW163731   0.376   6.369   6.176  1.5708  1.2420  2.9024
19213SOL    HW263732   0.333   6.239   6.240  1.1555  0.5593  1.2783
19214SOL     OW63733   7.345   2.015   8.505  0.4058  0.1085  0.3151
19214SOL    HW163734   7.378   2.096   8.466 -0.0183  0.6109  0.9835
19214SOL    HW263735   7.258   2.004   8.467  0.5997 -0.2289 -0.0415
19215SOL     OW63736   5.526   1.697   1.162  0.2789  0.0861  0.5957
19215SOL    HW163737   5.551   1.605   1.175 -1.4093 -0.2684  1.6967
19215SOL    HW263738   5.504   1.728   1.249 -2.5683  0.4510 -0.1370
19216SOL     OW63739  10.477   6.961   6.738  0.3455  0.0382 -0.0081
19216SOL    HW163740  10.546   6.949   6.672 -1.0109 -1.1033 -1.3120
19216SOL    HW263741  10.433   7.042   6.713  0.0366 -0.2261 -0.3451
19217SOL     OW63742   9.673   7.296   8.698 -0.0829  0.2587 -0.0007
19217SOL    HW163743   9.709   7.369   8.647 -0.4812  0.1557 -0.4376
19217SOL    HW263744   9.717   7.302   8.783 -0.6459  1.4460  0.2157
19218SOL     OW63745   4.085   1.903  10.916 -0.5274 -0.2686  0.0411
19218SOL    HW163746   3.996   1.883  10.945 -0.7175 -1.0992 -1.0398
19218SOL    HW263747   4.135   1.824  10.939 -0.4905 -0.5744 -1.0591
19219SOL     OW63748   5.481   2.058   2.887 -0.6504 -0.5402 -0.4356
19219SOL    HW163749   5.493   1.972   2.847  0.8945 -0.1216 -0.9580
19219SOL    HW263750   5.569   2.086   2.911 -0.7829  1.7718 -2.1995
19220SOL     OW63751   1.684   8.719   6.344  1.0118 -0.3310 -0.2548
19220SOL    HW163752   1.661   8.812   6.348  0.2467 -0.5342  0.3009
19220SOL    HW263753   1.762   8.712   6.400  2.0675  0.2368 -1.5812
19221SOL     OW63754   1.784  10.806   7.727 -0.8599  0.1991  0.5212
19221SOL    HW163755   1.816  10.747   7.659  0.6429  0.8473  0.6228
19221SOL    HW263756   1.704  10.844   7.691  0.2249  0.9836 -1.1464
19222SOL     OW63757   9.395   7.111   9.608  0.2115  0.1643 -0.3282
19222SOL    HW163758   9.315   7.133   9.657 -0.9456 -0.1020 -2.0041
19222SOL    HW263759   9.449   7.190   9.615  0.1591  0.0929  1.4274
19223SOL     OW63760  10.286   1.788   9.788  0.4068 -0.7547  0.5615
19223SOL    HW163761  10.291   1.863   9.847 -2.2495 -0.9118  1.0910
19223SOL    HW263762  10.241   1.720   9.838  2.8473 -2.8516  0.1576
19224SOL     OW63763   8.406  10.668   9.484  0.6882 -0.3729  0.2182
19224SOL    HW163764   8.460  10.730   9.533 -0.5718 -0.8229  2.3019
19224SOL    HW263765   8.330  10.718   9.456  0.2103 -0.6776  0.9305
19225SOL     OW63766   2.391  10.085   0.684 -0.2872  0.0003 -0.5377
19225SOL    HW163767   2.323  10.151   0.671 -0.1623 -0.0723 -1.6100
19225SOL    HW263768   2.343  10.008   0.715 -0.5559  0.2661 -0.2786
19226SOL     OW63769   7.283   8.345   0.455  0.0594  0.6090  0.2122
19226SOL    HW163770   7.239   8.349   0.370 -0.4620 -1.0550  0.3522
19226SOL    HW263771   7.216   8.372   0.518 -0.1716  0.0027  0.2410
19227SOL     OW63772   8.122   0.167   7.469 -0.4352 -0.1209 -0.5029
19227SOL    HW163773   8.120   0.226   7.394  1.0031 -0.2506 -0.6700
19227SOL    HW263774   8.095   0.082   7.434  1.7960 -0.5580 -1.2690
19228SOL     OW63775   3.839   2.732   4.449 -0.2128  0.3519 -0.0416
19228SOL    HW163776   3.870   2.645   4.475  1.6429  0.4757 -1.5860
19228SOL    HW263777   3.744   2.723   4.441 -0.0883 -1.4513  0.1683
19229SOL     OW63778   1.689   4.811   7.443  0.4467  0.8033 -0.0813
19229SOL    HW163779   1.754   4.832   7.376  1.1410  1.0934  0.6692
19229SOL    HW263780   1.727   4.844   7.524 -0.2542  0.1965  0.5049
19230SOL     OW63781   3.068   8.864  10.216 -0.1589 -0.3376 -0.4275
19230SOL    HW163782   3.150   8.867  10.166 -0.7405 -1.1266 -1.4554
19230SOL    HW263783   3.068   8.777  10.257 -1.3908 -1.1552 -2.0571
19231SOL     OW63784   6.753   1.851   4.592  0.0201 -0.6292 -0.0167
19231SOL    HW163785   6.672   1.799   4.596 -0.5275  0.0824 -1.3704
19231SOL    HW263786   6.741   1.909   4.517  0.4048  1.7846  1.6486
19232SOL     OW63787   8.124   1.980   7.585 -0.4183 -0.3146  0.0476
19232SOL    HW163788   8.203   1.947   7.628 -0.0564  1.8180  1.1813
19232SOL    HW263789   8.051   1.941   7.634 -0.0541 -1.3643 -0.2446
19233SOL     OW63790   7.157   4.190   8.835  0.6624  0.3488  0.1103
19233SOL    HW163791   7.231   4.130   8.849  0.7923  0.5475  0.2849
19233SOL    HW263792   7.085   4.152   8.884  0.2723 -0.5563 -1.1361
19234SOL     OW63793   1.872   0.780   9.305  0.4201 -0.0551 -0.3310
19234SOL    HW163794   1.837   0.869   9.314 -1.0913 -0.5953 -0.4589
19234SOL    HW263795   1.847   0.736   9.387  3.4709  0.3240  0.9051
19235SOL     OW63796   6.155   3.260   9.062 -0.0642  0.7662  0.5567
19235SOL    HW163797   6.176   3.296   8.976  0.8159  1.2959  0.9862
19235SOL    HW263798   6.200   3.175   9.064 -1.0753  0.1959  0.0459
19236SOL     OW63799   6.380   6.470   7.595 -0.4909  0.0033  0.4011
19236SOL    HW163800   6.470   6.438   7.589 -0.8220 -0.8138 -0.2348
19236SOL    HW263801   6.376   6.541   7.531 -0.9989 -1.6688 -1.5279
19237SOL     OW63802   4.398   6.157   2.891 -0.3346 -0.1831 -0.9835
19237SOL    HW163803   4.401   6.178   2.798  0.0207  0.0347 -0.9212
19237SOL    HW263804   4.304   6.160   2.913 -0.2554  2.2521 -0.7652
19238SOL     OW63805   4.115  10.502   5.445  0.0811 -0.6208  0.0582
19238SOL    HW163806   4.038  10.481   5.393  0.8368 -0.4107 -1.1898
19238SOL    HW263807   4.084  10.564   5.511 -0.7055 -0.1286 -0.7589
19239SOL     OW63808   6.134   8.331   1.957 -0.6047 -0.3728  0.2301
19239SOL    HW163809   6.153   8.413   2.004 -2.1883 -1.0769  2.2824
19239SOL    HW263810   6.201   8.270   1.988 -1.1678 -0.6122  1.0333
19240SOL     OW63811  10.469   2.933   7.290  0.0846 -0.3153  0.3125
19240SOL    HW163812  10.468   2.859   7.351 -1.2453 -1.1851 -0.7091
19240SOL    HW263813  10.385   2.928   7.245 -0.0207  1.8282  0.1983
19241SOL     OW63814   2.040   6.814   3.565  0.2163 -0.5413 -0.1917
19241SOL    HW163815   2.037   6.782   3.475 -0.5789 -0.1010 -0.3282
19241SOL    HW263816   2.080   6.742   3.615 -1.7374 -1.8871 -0.4533
19242SOL     OW63817   5.778   7.454  10.163 -0.1957 -0.2822  0.1003
19242SOL    HW163818   5.798   7.482  10.074 -0.5217  0.1967  0.1726
19242SOL    HW263819   5.684   7.434  10.161  0.1035 -1.7826 -0.0513
19243SOL     OW63820   3.330  10.294   0.929  0.5130 -0.1299  0.2479
19243SOL    HW163821   3.323  10.375   0.979 -0.1848 -1.0047  1.6235
19243SOL    HW263822   3.424  10.274   0.928  0.4720 -0.5596  2.0164
19244SOL     OW63823   4.386   0.650   6.929 -0.6669  0.4040  0.1587
19244SOL    HW163824   4.296   0.667   6.902  0.1563  1.6025 -2.1191
19244SOL    HW263825   4.430   0.734   6.919  0.7016 -0.1405  1.3112
19245SOL     OW63826   0.643   0.951   3.834  0.1335  0.3331 -0.5937
19245SOL    HW163827   0.602   0.957   3.920 -0.6009 -0.9379 -0.8192
19245SOL    HW263828   0.735   0.933   3.852  0.3844  2.0198 -0.0838
19246SOL     OW63829   4.946   1.236   3.412  0.6966  0.0726  0.5288
19246SOL    HW163830   5.007   1.181   3.461  0.6590  0.3296  0.8654
19246SOL    HW263831   4.960   1.324   3.446 -0.5915 -0.0093  1.3665
19247SOL     OW63832   3.574   5.305   1.577  0.3284  0.5560  0.4254
19247SOL    HW163833   3.572   5.342   1.489 -1.1150  0.3235  0.3346
19247SOL    HW263834   3.631   5.363   1.626 -0.2550  1.7288 -0.2314
19248SOL     OW63835   3.307   0.287   0.151  0.0594  0.2733 -0.2453
19248SOL    HW163836   3.301   0.358   0.087 -2.5084 -0.3913 -0.8494
19248SOL    HW263837   3.217   0.257   0.162  1.0533 -3.1942 -0.3509
19249SOL     OW63838   7.845   9.590   0.652  0.0291  0.1506 -0.9241
19249SOL    HW163839   7.866   9.502   0.683  1.0153  1.2545  1.9208
19249SOL    HW263840   7.751   9.599   0.668  0.3950  0.4613  1.4208
19250SOL     OW63841   6.136   5.324  10.424 -0.3497  0.4526  0.4844
19250SOL    HW163842   6.168   5.253  10.368 -0.4384  0.8370 -0.0548
19250SOL    HW263843   6.088   5.279  10.494 -1.7112  0.0187 -0.6661
19251SOL     OW63844   7.483   5.888   9.111 -0.0842 -0.1822 -0.5008
19251SOL    HW163845   7.513   5.807   9.151  0.3279 -0.1606 -0.7572
19251SOL    HW263846   7.388   5.887   9.121 -0.1544 -1.0605 -1.1910
19252SOL     OW63847   7.668   5.781   6.472 -0.6141 -0.2342  0.2383
19252SOL    HW163848   7.732   5.820   6.412  1.1229 -0.1360  2.0284
19252SOL    HW263849   7.636   5.854   6.524 -0.4501 -0.6147  0.8813
19253SOL     OW63850   1.334   8.747   6.686 -0.5360 -0.0098  0.2678
19253SOL    HW163851   1.404   8.687   6.658  0.7363  1.0335  1.0848
19253SOL    HW263852   1.276   8.754   6.611 -0.3886 -1.7823 -0.0554
19254SOL     OW63853   2.527   6.611   8.472  0.1247 -0.5552 -0.0652
19254SOL    HW163854   2.605   6.581   8.519 -0.0180  0.0776  0.6003
19254SOL    HW263855   2.458   6.550   8.498  0.6070 -1.7462 -1.4625
19255SOL     OW63856   8.920  10.439   6.123  0.1322 -0.5203 -0.2198
19255SOL    HW163857   8.892  10.398   6.041  0.3403 -0.0846 -0.5131
19255SOL    HW263858   8.876  10.524   6.123 -0.0594 -0.6140  0.2403
19256SOL     OW63859   1.783   5.865   2.921 -0.6528  0.0131 -0.0348
19256SOL    HW163860   1.804   5.868   3.014  0.4277  0.5760 -0.2900
19256SOL    HW263861   1.854   5.911   2.878 -0.6523 -1.0449 -1.2369
19257SOL     OW63862   8.063   9.156   2.637  0.2479  0.0773 -0.0162
19257SOL    HW163863   7.990   9.178   2.695  0.8945 -0.8280  1.2077
19257SOL    HW263864   8.140   9.166   2.692  1.0608  1.0945 -1.3171
19258SOL     OW63865   2.076   1.985   6.907 -0.0248  0.1537  0.0141
19258SOL    HW163866   2.171   1.990   6.897 -0.1750  1.5297 -1.0321
19258SOL    HW263867   2.062   1.980   7.002  1.0418  2.2184  0.3366
19259SOL     OW63868   5.543   6.703   6.412 -1.3498 -0.0374 -0.2393
19259SOL    HW163869   5.567   6.635   6.475  1.3371  0.2235 -0.8593
19259SOL    HW263870   5.517   6.778   6.466 -0.4531 -0.2782  0.5578
19260SOL     OW63871   9.526   7.654   9.952 -0.3737  0.0747  0.6154
19260SOL    HW163872   9.614   7.676   9.920  0.0733  1.7956  2.7812
19260SOL    HW263873   9.470   7.662   9.875  1.4019 -1.9679 -1.0674
19261SOL     OW63874   5.367   9.530   7.306  0.6405  0.8349 -0.3379
19261SOL    HW163875   5.369   9.437   7.327  0.9420  1.0177  0.4768
19261SOL    HW263876   5.295   9.565   7.359 -2.9043  0.2654 -4.2084
19262SOL     OW63877  10.472   6.864   7.491 -0.0044 -0.3065 -0.5026
19262SOL    HW163878  10.526   6.786   7.506 -1.9778 -1.5907  0.4208
19262SOL    HW263879  10.386   6.829   7.465 -0.4124  1.6399 -1.9780
19263SOL     OW63880   2.630   7.282   6.874  0.1639 -0.4487 -0.3944
19263SOL    HW163881   2.559   7.281   6.939  0.0693  1.2734 -0.4492
19263SOL    HW263882   2.695   7.222   6.911  0.2954  0.7831  1.5291
19264SOL     OW63883   4.501   2.721   4.818  0.2160 -0.1549 -0.0042
19264SOL    HW163884   4.517   2.816   4.814 -0.5613  0.0951  1.9694
19264SOL    HW263885   4.427   2.712   4.877  0.6202 -2.0576  0.2512
19265SOL     OW63886   1.977  10.899   6.971 -0.4169  0.4148  0.3373
19265SOL    HW163887   2.048  10.845   6.935  2.0847  3.0166  1.0286
19265SOL    HW263888   1.995  10.987   6.938 -2.5316  1.4272  1.7196
19266SOL     OW63889   4.665   7.902   8.795  0.0144 -0.0193 -0.7681
19266SOL    HW163890   4.617   7.842   8.852  1.6776 -1.1318 -0.4571
19266SOL    HW263891   4.751   7.911   8.837  0.7271  0.4217 -2.2365
19267SOL     OW63892   0.525   1.263   9.689  0.2757  0.4430  0.9368
19267SOL    HW163893   0.537   1.187   9.746 -0.1100 -0.1173  0.2984
19267SOL    HW263894   0.436   1.292   9.707 -0.0721 -0.1166  0.2029
19268SOL     OW63895   2.377   1.989   6.941 -0.1940  0.0136  0.1148
19268SOL    HW163896   2.324   1.974   6.863  0.9857  0.1942 -0.7379
19268SOL    HW263897   2.417   1.904   6.960  0.7613  0.3252 -0.4296
19269SOL     OW63898   7.258   1.483  10.431  0.6510 -0.0755  0.0716
19269SOL    HW163899   7.272   1.540  10.356  0.2822 -0.6310 -0.4277
19269SOL    HW263900   7.277   1.538  10.507  1.3357  0.4031 -0.4341
19270SOL     OW63901   8.452   6.664   4.874  0.2172  0.2931  0.1031
19270SOL    HW163902   8.428   6.621   4.792 -1.4698 -1.1392  1.2728
19270SOL    HW263903   8.369   6.688   4.915  0.6266 -2.5043  3.1052
19271SOL     OW63904   2.826   5.793   0.912  0.1427 -0.6670  0.0535
19271SOL    HW163905   2.919   5.816   0.903 -0.5274  2.2535 -0.6906
19271SOL    HW263906   2.808   5.804   1.005  0.2571  0.2152 -0.0162
19272SOL     OW63907  10.521   6.867   8.638 -0.0146  0.3845 -0.0480
19272SOL    HW163908  10.453   6.802   8.656  0.0336  0.3383 -0.0303
19272SOL    HW263909  10.579   6.864   8.714 -0.0843  0.5408  0.0123
19273SOL     OW63910  10.852   5.047   0.110  0.0747  0.0633  0.3782
19273SOL    HW163911  10.781   5.037   0.173 -0.2795 -0.7330 -0.1367
19273SOL    HW263912  10.931   5.057   0.164 -0.2865 -0.1587  0.9482
19274SOL     OW63913   9.514   1.824  10.060  0.1492  0.1947 -0.3688
19274SOL    HW163914   9.581   1.758  10.041 -0.5383 -0.4712 -0.5042
19274SOL    HW263915   9.439   1.775  10.092  0.0126  1.0116  0.6173
19275SOL     OW63916   2.254  10.279   4.658 -0.4047  0.1618  0.7770
19275SOL    HW163917   2.285  10.190   4.672  0.0458  0.4196  1.4625
19275SOL    HW263918   2.159  10.273   4.673 -0.8370 -0.7288 -1.8295
19276SOL     OW63919   6.218   0.854   6.514  0.2743  0.7116  0.0493
19276SOL    HW163920   6.299   0.824   6.555 -0.3977 -0.5922  0.4650
19276SOL    HW263921   6.247   0.909   6.441  1.5488 -0.2481 -0.1935
19277SOL     OW63922   6.705   0.953   7.694  0.5640 -0.4699 -0.8486
19277SOL    HW163923   6.639   0.946   7.764  1.7124 -0.0200  0.3112
19277SOL    HW263924   6.654   0.970   7.615 -0.6307  2.0418  0.3563
19278SOL     OW63925   6.078  10.895   0.078  0.1480  0.6399  0.1458
19278SOL    HW163926   6.026  10.969   0.047  0.9088  0.4856 -1.6006
19278SOL    HW263927   6.047  10.880   0.167 -0.7037  2.4321  0.2019
19279SOL     OW63928   9.997   6.921   1.281  0.0678  0.0666 -0.2485
19279SOL    HW163929  10.080   6.939   1.324  0.2297 -1.8832  0.3184
19279SOL    HW263930  10.019   6.868   1.205 -0.5825  0.3941 -0.6833
19280SOL     OW63931   5.998   7.559   0.412  0.1590  0.1552 -0.0916
19280SOL    HW163932   5.980   7.480   0.463  1.1224 -0.5869 -0.8611
19280SOL    HW263933   6.089   7.549   0.384  1.2042  2.7104  1.8948
19281SOL     OW63934   2.974   7.417   0.510 -0.3298  0.0964  0.0783
19281SOL    HW163935   2.944   7.490   0.456 -2.0525  0.3079  1.2193
19281SOL    HW263936   2.934   7.339   0.471 -1.6368  0.2580  1.0119
19282SOL     OW63937   7.325   4.031   0.843  0.1248 -0.2201 -0.4333
19282SOL    HW163938   7.375   4.097   0.796  0.6463 -1.1608 -1.2425
19282SOL    HW263939   7.246   4.018   0.790 -0.4146  0.3810  0.1984
19283SOL     OW63940   4.681   8.251   0.105  0.4255 -0.7527 -0.0878
19283SOL    HW163941   4.636   8.179   0.149 -0.2865 -1.2742 -1.6161
19283SOL    HW263942   4.675   8.324   0.167  0.0246 -1.6280  0.9391
19284SOL     OW63943   2.531   3.789   2.260  0.0181  0.8155 -0.1525
19284SOL    HW163944   2.541   3.788   2.165  3.2835 -1.9150  0.0567
19284SOL    HW263945   2.461   3.727   2.278  0.0435  0.6202 -0.7240
19285SOL     OW63946   3.656   7.750   8.378 -0.2616  0.6389  0.4379
19285SOL    HW163947   3.683   7.711   8.295 -1.2343  0.8478  0.0069
19285SOL    HW263948   3.730   7.805   8.404  0.8819 -0.9908  0.7564
19286SOL     OW63949   0.733  10.368   4.124  0.0495 -0.1024  0.0725
19286SOL    HW163950   0.709  10.436   4.187  0.2838 -0.9508  1.1076
19286SOL    HW263951   0.687  10.289   4.155 -0.7832 -0.2855 -1.4936
19287SOL     OW63952   3.540   9.099   9.211 -0.1771 -0.5213 -0.0956
19287SOL    HW163953   3.554   9.163   9.141  1.1955  0.2765  0.8546
19287SOL    HW263954   3.628   9.066   9.231 -0.7009 -1.6438  0.4152
19288SOL     OW63955   3.810   3.507   7.515 -0.0033  0.0147  0.0287
19288SOL    HW163956   3.792   3.587   7.466  0.0216  1.7629  2.6869
19288SOL    HW263957   3.731   3.453   7.502 -0.9624  1.3869 -0.0758
19289SOL     OW63958   7.055   9.110   2.504  0.4269 -0.4946  0.8328
19289SOL    HW163959   7.034   9.072   2.589  1.5999 -0.7085  1.0410
19289SOL    HW263960   7.144   9.080   2.486  1.0364  1.3684  0.5489
19290SOL     OW63961   1.223   3.220   8.792 -0.0100  0.4927  0.3191
19290SOL    HW163962   1.213   3.304   8.836 -0.8635  0.4636  0.1984
19290SOL    HW263963   1.139   3.175   8.805 -0.5642  0.7584 -1.8664
19291SOL     OW63964   8.997   2.357  10.798  0.4512  0.6606  0.1989
19291SOL    HW163965   9.021   2.417  10.868  1.9350 -0.1213  0.3947
19291SOL    HW263966   8.945   2.289  10.842  1.5745  0.0449  0.6228
19292SOL     OW63967   1.679   0.999   7.243  0.5270 -0.0753  0.1382
19292SOL    HW163968   1.586   0.985   7.265  0.9969 -2.7193  0.7185
19292SOL    HW263969   1.720   1.015   7.328  0.9636 -1.4953  0.2208
19293SOL     OW63970   3.039   5.737   5.598 -0.5605  0.2796 -0.1021
19293SOL    HW163971   3.077   5.664   5.647 -0.3929  0.2626 -0.2557
19293SOL    HW263972   2.949   5.743   5.630 -0.1499  0.9438  0.9622
19294SOL     OW63973   5.605   9.772   0.239 -0.7447 -0.3202 -0.0976
19294SOL    HW163974   5.685   9.756   0.188 -0.6764 -0.3103  0.0057
19294SOL    HW263975   5.586   9.687   0.280  2.1507  0.7052  4.1298
19295SOL     OW63976   0.549   6.769   5.894  0.4214  0.0399 -0.2279
19295SOL    HW163977   0.609   6.760   5.820  1.0668 -0.8553  0.3772
19295SOL    HW263978   0.477   6.710   5.875  0.6514 -0.2900 -0.1030
19296SOL     OW63979   9.657   4.356   8.272  0.0063  0.8659 -0.4176
19296SOL    HW163980   9.750   4.337   8.267 -0.1494 -0.1817  0.4294
19296SOL    HW263981   9.647   4.439   8.225  1.5857  1.7684  0.7467
19297SOL     OW63982   5.862   4.495   7.586  0.0352  0.7085 -0.3026
19297SOL    HW163983   5.828   4.582   7.607 -0.9016  0.1182  0.7617
19297SOL    HW263984   5.798   4.458   7.526 -1.1800 -0.3255  1.5375
19298SOL     OW63985   2.313   6.956   5.668 -0.1997 -0.3241  0.8195
19298SOL    HW163986   2.224   6.988   5.657  0.0842  0.8919  1.9068
19298SOL    HW263987   2.339   6.985   5.755  1.7209  0.4966  0.0310
19299SOL     OW63988   3.397   2.026   6.102  0.5003 -0.0835 -0.0876
19299SOL    HW163989   3.392   1.936   6.069 -0.9106  0.1670 -0.6422
19299SOL    HW263990   3.488   2.036   6.131  0.5325 -1.8751  0.5506
19300SOL     OW63991   5.605   6.285   7.912 -0.0406 -0.6068  0.4107
19300SOL    HW163992   5.648   6.213   7.865 -0.2128 -0.5680  0.1898
19300SOL    HW263993   5.678   6.335   7.950  0.2321  0.3137 -1.1948
19301SOL     OW63994   5.064  10.568   1.598 -0.0673 -0.0643 -0.0727
19301SOL    HW163995   5.078  10.484   1.642 -0.6538 -0.4583 -0.6211
19301SOL    HW263996   5.026  10.544   1.513 -0.0325  0.7453 -0.3196
19302SOL     OW63997   7.021   6.868   6.185  0.0187  0.1270  0.2531
19302SOL    HW163998   7.041   6.943   6.129 -0.5160  0.7040  0.8358
19302SOL    HW263999   6.928   6.876   6.205 -0.2080 -1.0810 -0.2528
19303SOL     OW64000   5.180   5.364  10.087 -0.0119  0.0829  0.3804
19303SOL    HW164001   5.164   5.385   9.995 -0.4171  3.4633  1.0821
19303SOL    HW264002   5.112   5.300  10.109 -1.0610  0.5572 -1.2538
19304SOL     OW64003   7.949   8.350   9.268 -0.0529  0.4213  0.9847
19304SOL    HW164004   8.044   8.343   9.267  0.0182  1.2065  1.4711
19304SOL    HW264005   7.931   8.442   9.250 -0.6780  0.5683  2.2577
19305SOL     OW64006   9.601   9.351   6.581  0.2656  0.0162 -0.2752
19305SOL    HW164007   9.654   9.276   6.553  2.2208  0.2425  2.4503
19305SOL    HW264008   9.641   9.380   6.663 -5.4305 -1.2641  3.5322
19306SOL     OW64009   2.158   9.114   3.723  0.5152  0.2785  0.2137
19306SOL    HW164010   2.225   9.046   3.715 -0.5611 -0.8021  0.0719
19306SOL    HW264011   2.106   9.106   3.643 -0.9197 -0.1819  1.1508
19307SOL     OW64012   3.434   1.243   3.778  0.2593  0.4438  0.4046
19307SOL    HW164013   3.391   1.272   3.859  1.1868  0.2820  0.9757
19307SOL    HW264014   3.481   1.320   3.747  0.8721  0.1881  0.6799
19308SOL     OW64015   4.738   8.514   8.919  0.0336  0.2382  0.1774
19308SOL    HW164016   4.719   8.477   9.005 -0.3106  1.7068  0.7648
19308SOL    HW264017   4.833   8.526   8.918  0.1554 -0.6977 -0.0465
19309SOL     OW64018   6.526   3.528   3.221  0.3621 -0.1520 -1.2395
19309SOL    HW164019   6.544   3.520   3.315  3.8912  0.1814 -1.7381
19309SOL    HW264020   6.471   3.605   3.213  0.8200  0.3959  0.5115
19310SOL     OW64021   6.317   0.397   6.583 -0.1103 -0.3896  0.4393
19310SOL    HW164022   6.258   0.468   6.609 -1.8531 -1.6042 -0.0089
19310SOL    HW264023   6.321   0.403   6.488  1.3629  0.3045  0.5157
19311SOL     OW64024   3.158   0.176   9.337  0.1274  0.3751  0.1217
19311SOL    HW164025   3.174   0.206   9.247  0.4729  2.2059  0.7344
19311SOL    HW264026   3.130   0.255   9.383  0.0929 -0.4959  1.6582
19312SOL     OW64027   4.548   8.929   7.854  0.1074  0.3064  0.0292
19312SOL    HW164028   4.576   8.921   7.945 -0.2576  1.4730  0.2533
19312SOL    HW264029   4.540   8.838   7.824  1.4096 -0.0906  0.7828
19313SOL     OW64030   7.299  10.506   0.655  0.2772  0.3896 -0.0884
19313SOL    HW164031   7.288  10.530   0.747 -0.2079  0.0804 -0.0658
19313SOL    HW264032   7.223  10.453   0.634  2.1416 -2.6832  0.3405
19314SOL     OW64033   4.815   1.628   7.148 -0.2326 -0.1900 -0.3888
19314SOL    HW164034   4.727   1.607   7.117 -0.3358 -0.6784  0.2013
19314SOL    HW264035   4.848   1.693   7.087 -0.6926 -0.6124 -1.0931
19315SOL     OW64036   9.332   5.887   4.112  0.3293  0.4728  0.1784
19315SOL    HW164037   9.247   5.864   4.149  1.0801 -0.2046  1.5538
19315SOL    HW264038   9.335   5.982   4.116 -1.0689  0.6478 -1.5663
19316SOL     OW64039   6.360   9.618   7.791 -0.2972  0.1721 -0.1055
19316SOL    HW164040   6.381   9.658   7.707  1.9355  1.3014  0.9199
19316SOL    HW264041   6.412   9.538   7.794  1.0175  1.0404  0.9000
19317SOL     OW64042   2.010   4.351   7.232 -0.0255  0.0009 -0.1853
19317SOL    HW164043   1.978   4.261   7.232  0.5963 -0.2527  1.5387
19317SOL    HW264044   1.948   4.399   7.286 -0.4776  0.6856 -1.2788
19318SOL     OW64045   3.798   0.560   2.760 -0.5013 -0.2432  0.1390
19318SOL    HW164046   3.829   0.469   2.759 -0.5495 -0.2725  0.7565
19318SOL    HW264047   3.832   0.597   2.679 -0.3818 -0.7801 -0.0656
19319SOL     OW64048   3.362   5.455   2.006  0.2829 -0.5200 -0.2144
19319SOL    HW164049   3.452   5.484   2.017  0.1320 -0.0921 -0.0752
19319SOL    HW264050   3.335   5.427   2.094  0.0937 -0.0944 -0.1347
19320SOL     OW64051   4.344   8.962  10.523  0.2237 -0.2503 -0.2297
19320SOL    HW164052   4.407   8.951  10.595  0.7064  1.3687 -0.3666
19320SOL    HW264053   4.347   9.056  10.503 -1.2533 -0.3709 -1.1478
19321SOL     OW64054   3.388  10.203   7.925 -0.4456 -0.4099 -0.3881
19321SOL    HW164055   3.326  10.268   7.956 -1.0214 -1.2180  0.1829
19321SOL    HW264056   3.367  10.123   7.973 -0.9463 -1.5405 -2.3551
19322SOL     OW64057   3.878   7.764   2.279 -0.2407  0.7568  0.2107
19322SOL    HW164058   3.873   7.743   2.185 -0.5502 -0.2614  0.4490
19322SOL    HW264059   3.912   7.854   2.281  0.0486  0.6869 -0.8676
19323SOL     OW64060   0.561   2.619   3.049 -0.0855  0.2147 -0.5901
19323SOL    HW164061   0.502   2.562   3.000  0.1893 -0.7839  0.1852
19323SOL    HW264062   0.629   2.644   2.987 -1.6612  1.9698 -1.6998
19324SOL     OW64063   9.177   1.455   5.575  0.9533  0.6159  0.5177
19324SOL    HW164064   9.262   1.472   5.533  1.3100  1.3020  1.4680
19324SOL    HW264065   9.174   1.518   5.647 -0.0321  0.0686  0.9654
19325SOL     OW64066   2.212   8.181   3.970 -0.4388 -0.2082 -0.3033
19325SOL    HW164067   2.278   8.250   3.960 -0.6197 -0.0703 -0.5273
19325SOL    HW264068   2.261   8.100   3.959 -0.0843 -0.1475  0.6649
19326SOL     OW64069   9.553   1.966   7.123  0.7988 -0.1956 -0.1198
19326SOL    HW164070   9.548   1.960   7.028  2.6726  2.3837 -0.4775
19326SOL    HW264071   9.607   1.891   7.148  0.5967 -0.6971 -1.1214
19327SOL     OW64072   2.130   0.938   9.529  0.3286  0.1019 -0.5253
19327SOL    HW164073   2.181   0.858   9.517  1.5258  0.7843 -0.1652
19327SOL    HW264074   2.114   0.970   9.440  1.0795  0.2132 -0.6229
19328SOL     OW64075   0.287   5.123   0.124  0.7032 -0.4854 -0.2302
19328SOL    HW164076   0.376   5.094   0.105  0.8520 -0.5223  0.4738
19328SOL    HW264077   0.263   5.073   0.202 -0.1067 -0.8185 -0.6835
19329SOL     OW64078   7.681   9.416  10.093  0.2047  0.5750 -0.2515
19329SOL    HW164079   7.697   9.322  10.089  0.1660  0.6080 -1.4988
19329SOL    HW264080   7.635   9.429  10.176  0.4526 -0.4641  0.0600
19330SOL     OW64081   9.224   4.122   1.791 -0.3122  0.3897 -1.1654
19330SOL    HW164082   9.257   4.145   1.878  0.5462 -2.0162 -0.7850
19330SOL    HW264083   9.149   4.181   1.778 -1.1073  0.1407  1.6578
19331SOL     OW64084   7.130   9.037   5.445 -0.1424  0.3359  0.1202
19331SOL    HW164085   7.145   8.986   5.525 -0.0453  0.4212  0.1569
19331SOL    HW264086   7.093   9.120   5.477  1.2316  0.9413  0.1941
19332SOL     OW64087   5.386   9.127   5.209 -0.7851 -0.0704 -0.5859
19332SOL    HW164088   5.346   9.195   5.263  1.3364  0.3558  0.5580
19332SOL    HW264089   5.447   9.174   5.153  0.4970 -0.9703  0.0085
19333SOL     OW64090   4.406   6.554   4.764  0.5579  0.1140 -1.0447
19333SOL    HW164091   4.390   6.612   4.839  1.0456 -1.1319  0.0661
19333SOL    HW264092   4.470   6.491   4.797 -0.8585 -1.8140 -1.8031
19334SOL     OW64093   4.424   5.367   4.921  0.0134  0.3839  0.1103
19334SOL    HW164094   4.515   5.342   4.935  0.3581  0.6609 -1.4282
19334SOL    HW264095   4.424   5.462   4.932  0.5668  0.7972 -2.7245
19335SOL     OW64096   0.982   9.047   3.897  0.1486 -0.1088 -0.5748
19335SOL    HW164097   1.066   9.051   3.851 -0.6284  0.5441 -2.0024
19335SOL    HW264098   0.979   8.959   3.936  0.9802 -0.5581 -1.5079
19336SOL     OW64099   7.127  10.159   0.252 -0.4781  0.4069 -0.2521
19336SOL    HW164100   7.100  10.251   0.253  0.4521  0.6849 -0.0735
19336SOL    HW264101   7.213  10.159   0.209  0.7948  0.0089  2.1057
19337SOL     OW64102   8.788   9.973  10.282 -0.1237  0.3064 -0.0814
19337SOL    HW164103   8.844  10.028  10.228 -1.4032  1.2552 -0.5017
19337SOL    HW264104   8.738  10.034  10.336 -0.4358 -0.5199  0.5934
19338SOL     OW64105   2.760  10.518   7.720  0.0325  0.4446  0.0011
19338SOL    HW164106   2.842  10.557   7.751  0.7214 -1.2947  0.4921
19338SOL    HW264107   2.767  10.521   7.624  1.2308 -0.7345  0.0246
19339SOL     OW64108   4.726   8.502   7.064  0.6135 -0.2270 -0.3279
19339SOL    HW164109   4.666   8.532   7.132 -0.0411 -1.1993 -0.4560
19339SOL    HW264110   4.760   8.582   7.024  1.2042  0.3732  1.2914
19340SOL     OW64111   8.578   1.725   4.907 -0.2825  0.0742  0.2295
19340SOL    HW164112   8.493   1.765   4.924  0.4168  1.6241  0.2601
19340SOL    HW264113   8.631   1.748   4.984  0.0717 -1.1834  0.3807
19341SOL     OW64114   3.907   0.535   1.333 -0.1594  0.7045 -0.0754
19341SOL    HW164115   3.955   0.524   1.250 -1.0244  1.1659 -0.6501
19341SOL    HW264116   3.922   0.626   1.357 -1.8586  1.2745 -0.9996
19342SOL     OW64117   5.215   2.307   2.032 -0.0029  0.2500 -0.1885
19342SOL    HW164118   5.206   2.213   2.042  0.8957  0.1346 -0.4121
19342SOL    HW264119   5.136   2.343   2.072 -0.6711 -0.6218 -0.6911
19343SOL     OW64120   5.196   1.719   8.690 -0.3828 -0.5383 -0.4661
19343SOL    HW164121   5.194   1.645   8.751 -2.6014  0.8635  1.2750
19343SOL    HW264122   5.285   1.754   8.699  0.3948 -2.3669 -0.5971
19344SOL     OW64123   3.453   7.169   6.141  0.4068  0.0007 -0.0656
19344SOL    HW164124   3.449   7.092   6.084  0.8691  0.3376 -0.5723
19344SOL    HW264125   3.438   7.243   6.083 -0.6580  0.2638  0.5281
19345SOL     OW64126   5.898   6.236   3.633  0.0590 -0.2129  0.2489
19345SOL    HW164127   5.937   6.265   3.551 -0.9400  0.2073 -0.0870
19345SOL    HW264128   5.971   6.196   3.681  0.4510 -1.3300 -1.2176
19346SOL     OW64129   5.234   3.419   9.877  0.3773  0.0290 -0.7652
19346SOL    HW164130   5.209   3.423   9.784 -1.2535 -3.2338 -0.6264
19346SOL    HW264131   5.152   3.430   9.925  0.8323 -0.5223  0.1776
19347SOL     OW64132   3.953   7.892   9.190 -0.5545  0.6411  0.2323
19347SOL    HW164133   3.919   7.844   9.265  0.7956  0.8474  1.0187
19347SOL    HW264134   3.931   7.984   9.208 -0.8188  0.6141  0.0451
19348SOL     OW64135   8.770   9.100   8.693  0.3954 -0.3335  0.0966
19348SOL    HW164136   8.825   9.148   8.631 -0.0598 -0.2496 -0.2417
19348SOL    HW264137   8.696   9.157   8.710 -0.0651 -0.8422 -0.1739
19349SOL     OW64138   4.955  10.585   4.860 -0.2837 -0.0098  0.2241
19349SOL    HW164139   4.962  10.567   4.767 -1.0452  1.2130 -0.0901
19349SOL    HW264140   4.956  10.681   4.867 -1.9267 -0.0141  1.2936
19350SOL     OW64141   0.014   2.719   7.379  0.2366 -0.4272  0.7707
19350SOL    HW164142   0.090   2.772   7.357  0.7151 -0.1468  2.8981
19350SOL    HW264143   0.033   2.632   7.343  0.1134  0.3923 -1.4220
19351SOL     OW64144   2.947   1.105   5.155 -1.1041  0.0763  0.4003
19351SOL    HW164145   2.963   1.169   5.224 -0.6328  0.9792 -0.5248
19351SOL    HW264146   2.857   1.077   5.170 -1.4686  1.2703  0.5906
19352SOL     OW64147   5.304   4.091   9.453 -0.5894 -1.0562 -0.2660
19352SOL    HW164148   5.314   4.185   9.436 -0.8428 -0.8919  0.4567
19352SOL    HW264149   5.238   4.086   9.522  0.3228 -1.6844  0.5991
19353SOL     OW64150   4.435   1.266   3.425  0.0268  0.5279 -0.0209
19353SOL    HW164151   4.482   1.229   3.350 -0.5856  1.5913 -0.9619
19353SOL    HW264152   4.466   1.215   3.500 -1.0778 -2.2038 -1.2650
19354SOL     OW64153   7.413   7.899   9.601  0.0260  0.3183 -0.1644
19354SOL    HW164154   7.492   7.933   9.644 -0.2972 -1.2724  1.8404
19354SOL    HW264155   7.438   7.811   9.572 -0.6667  0.2350 -0.5165
19355SOL     OW64156   0.155  10.423   5.154  0.1894 -0.5512 -0.0499
19355SOL    HW164157   0.152  10.456   5.064 -1.3733 -1.3839 -0.3549
19355SOL    HW264158   0.217  10.480   5.199  0.0038  0.7208 -1.3256
19356SOL     OW64159   7.665   8.222   8.752  0.1176 -0.3377  0.8013
19356SOL    HW164160   7.601   8.264   8.695  0.4782  1.0096  1.3587
19356SOL    HW264161   7.711   8.161   8.694 -0.7890 -0.3805  0.1014
19357SOL     OW64162   5.751   2.576   9.465  0.0173 -0.0891  0.2100
19357SOL    HW164163   5.832   2.555   9.512 -1.6706 -0.6165  3.1247
19357SOL    HW264164   5.744   2.508   9.398  1.9161 -0.0643 -0.0821
19358SOL     OW64165   8.688   8.510  10.587 -0.1980 -0.4511 -0.0505
19358SOL    HW164166   8.606   8.489  10.543 -0.9056 -0.1013  1.0610
19358SOL    HW264167   8.663   8.567  10.660  1.0931  0.0903  0.0015
19359SOL     OW64168   3.800   1.649   9.318  0.2833 -0.0466 -0.3719
19359SOL    HW164169   3.792   1.711   9.390  2.0192  0.6256 -0.6964
19359SOL    HW264170   3.741   1.577   9.340 -2.5360  2.0739 -0.4294
19360SOL     OW64171   8.929   0.517  10.455 -0.3801  0.3942  0.3021
19360SOL    HW164172   8.965   0.460  10.523 -1.1950 -0.0091  0.4161
19360SOL    HW264173   8.918   0.602  10.498  1.6050  0.8867 -0.1022
19361SOL     OW64174   7.212   2.141   2.445  0.4823  0.6088 -0.1154
19361SOL    HW164175   7.221   2.226   2.403 -0.7029  1.4373  1.2309
19361SOL    HW264176   7.255   2.151   2.529  0.1436 -0.0562  0.1436
19362SOL     OW64177   7.240   2.500   8.064  0.2806  0.0156  0.1994
19362SOL    HW164178   7.325   2.510   8.021  0.1604 -1.7951 -0.5486
19362SOL    HW264179   7.236   2.572   8.126  0.2714  3.0911 -3.0808
19363SOL     OW64180   4.583   3.368   6.833  0.0571 -0.1235  0.9653
19363SOL    HW164181   4.646   3.300   6.859 -0.1187 -0.8696 -0.4671
19363SOL    HW264182   4.498   3.325   6.838 -0.1549  0.2981  1.0165
19364SOL     OW64183   5.344   3.180   6.762  0.0928 -0.1281 -0.0325
19364SOL    HW164184   5.378   3.092   6.745 -0.1718 -0.6008  1.7276
19364SOL    HW264185   5.273   3.167   6.824 -0.4938  1.2644 -0.3784
19365SOL     OW64186   1.884   5.884   6.406  0.4705  0.0649 -0.3911
19365SOL    HW164187   1.873   5.897   6.500 -2.7123  0.5465 -0.7255
19365SOL    HW264188   1.904   5.972   6.373 -1.4167  0.5023 -0.4535
19366SOL     OW64189   8.088   4.856   8.715 -0.1923  0.2547 -0.4569
19366SOL    HW164190   8.159   4.835   8.775 -0.0052  1.3858 -0.2540
19366SOL    HW264191   8.012   4.809   8.750  0.2050 -0.1127 -0.0726
19367SOL     OW64192   9.884   1.335   1.538 -0.3477 -0.1739 -0.4245
19367SOL    HW164193   9.800   1.290   1.550 -0.6760  0.2549 -1.0861
19367SOL    HW264194   9.920   1.341   1.627 -1.1755 -0.0392 -0.0854
19368SOL     OW64195  10.621   9.188   0.112  0.4764 -0.3837  0.5565
19368SOL    HW164196  10.588   9.251   0.177  1.6772 -0.2899  1.1016
19368SOL    HW264197  10.690   9.140   0.158 -0.0425 -1.7280 -0.0330
19369SOL     OW64198   4.618   6.236   6.849  0.3098  0.4270  0.2082
19369SOL    HW164199   4.544   6.256   6.907  0.5736  0.4283  0.5459
19369SOL    HW264200   4.664   6.165   6.893 -0.3854 -0.6683 -0.7840
19370SOL     OW64201   3.964   9.759   6.220 -0.2898 -0.1367  0.0932
19370SOL    HW164202   3.949   9.838   6.168  0.9545  0.0519 -0.0167
19370SOL    HW264203   3.946   9.687   6.161 -0.5844  0.0664 -0.0683
19371SOL     OW64204   7.270   3.176   1.081 -0.2610 -0.0060  0.5047
19371SOL    HW164205   7.266   3.271   1.075 -0.4623 -0.0121  0.5380
19371SOL    HW264206   7.363   3.156   1.078 -0.2777  0.0774 -1.3032
19372SOL     OW64207   3.818   1.140   7.409 -1.0261 -0.3123 -0.2198
19372SOL    HW164208   3.748   1.194   7.445  0.9842  0.4251  2.9992
19372SOL    HW264209   3.887   1.202   7.383  0.8672 -1.0844  2.5104
19373SOL     OW64210   0.632   1.170   6.090 -0.5549  0.2737 -0.8844
19373SOL    HW164211   0.682   1.232   6.144 -0.2609 -0.7971  0.1149
19373SOL    HW264212   0.606   1.221   6.013 -1.0001  1.8522  0.2608
19374SOL     OW64213   1.403   1.400   2.821 -0.1235 -0.4353 -0.5206
19374SOL    HW164214   1.347   1.364   2.751  0.3245  0.4658 -1.3681
19374SOL    HW264215   1.418   1.491   2.795  0.0489 -0.0723  0.7723
19375SOL     OW64216   7.731   8.200   2.053 -0.4235  0.2724 -0.7318
19375SOL    HW164217   7.714   8.257   2.128 -2.0260  1.0953 -1.6500
19375SOL    HW264218   7.792   8.250   1.999 -0.9807  0.6694 -1.0098
19376SOL     OW64219   4.243   7.784   4.355  0.3463  0.1090  0.0146
19376SOL    HW164220   4.182   7.720   4.391  0.5170  0.6729  1.3702
19376SOL    HW264221   4.310   7.794   4.422  0.1135  1.9827  0.0119
19377SOL     OW64222   9.062   4.537   8.241 -0.1045 -0.5785  0.8553
19377SOL    HW164223   9.065   4.624   8.281  0.0382  0.1656 -0.7170
19377SOL    HW264224   9.136   4.536   8.180  0.6809 -2.2831  1.7510
19378SOL     OW64225   0.140   8.487   2.610  0.0610 -0.1068  0.1898
19378SOL    HW164226   0.216   8.541   2.631  0.8976 -1.4442  0.8028
19378SOL    HW264227   0.130   8.430   2.687 -0.2794 -1.3319 -0.7306
19379SOL     OW64228   6.576   7.804   0.819 -0.1323  0.3128 -0.7436
19379SOL    HW164229   6.607   7.718   0.846 -1.9562 -0.7015 -1.6765
19379SOL    HW264230   6.646   7.839   0.765  0.9048 -0.2949  0.1746
19380SOL     OW64231   5.456   2.120   4.438  0.3948 -0.1914 -0.0802
19380SOL    HW164232   5.548   2.098   4.436  0.8466  1.5162 -0.1233
19380SOL    HW264233   5.433   2.133   4.346 -0.0523 -1.1861 -0.1172
19381SOL     OW64234   3.206   5.192   9.402  0.1464  0.1315  0.3803
19381SOL    HW164235   3.166   5.182   9.316  0.7694 -0.5460  0.1546
19381SOL    HW264236   3.242   5.281   9.403 -2.6516  1.3492  1.1698
19382SOL     OW64237   8.339   4.075   7.857  0.0576 -0.6230  0.2865
19382SOL    HW164238   8.277   4.007   7.830 -0.8988 -0.4205  1.8836
19382SOL    HW264239   8.323   4.147   7.796 -0.8602 -0.8035  0.3041
19383SOL     OW64240   6.206   3.203   8.434  0.4030  0.5966 -0.0203
19383SOL    HW164241   6.116   3.211   8.405  0.7368 -0.4068 -1.4282
19383SOL    HW264242   6.203   3.141   8.507 -0.0879  0.9636  0.2790
19384SOL     OW64243   4.758   7.085  10.357  0.4076  0.1379 -0.3514
19384SOL    HW164244   4.731   7.002  10.319  1.0680 -1.2436  2.0270
19384SOL    HW264245   4.710   7.151  10.307 -0.1064 -1.6331 -2.3186
19385SOL     OW64246   7.317   8.219   2.003  0.5033 -0.0830 -0.5587
19385SOL    HW164247   7.390   8.166   1.972  1.0618 -0.3994  1.2018
19385SOL    HW264248   7.356   8.304   2.025  0.4541 -0.3652  0.7353
19386SOL     OW64249   2.354   3.533   3.059 -0.2138  0.8450 -0.3342
19386SOL    HW164250   2.270   3.557   3.100 -1.5173 -1.5110 -1.4127
19386SOL    HW264251   2.345   3.561   2.968  0.1455  0.5648 -0.4590
19387SOL     OW64252   4.059   0.895   6.413  0.1890  0.2027  0.0835
19387SOL    HW164253   4.005   0.959   6.458  0.5160  0.9611 -0.5686
19387SOL    HW264254   4.003   0.818   6.404 -0.4143  0.6025  0.3544
19388SOL     OW64255   4.435   2.061  10.195  0.1501 -0.5044  0.0592
19388SOL    HW164256   4.374   2.065  10.122  1.0217 -2.1741 -0.8411
19388SOL    HW264257   4.388   2.014  10.264 -0.5179  0.6797  0.4307
19389SOL     OW64258   2.636  10.800   2.539  0.1197 -0.1427 -0.0002
19389SOL    HW164259   2.690  10.759   2.606  0.6994  1.7905  0.7849
19389SOL    HW264260   2.680  10.781   2.457  1.1731  0.0954  0.4885
19390SOL     OW64261   9.024  10.537   5.572 -0.4650 -0.2273 -0.0837
19390SOL    HW164262   9.024  10.494   5.486  0.9661  0.5118 -0.4856
19390SOL    HW264263   9.030  10.630   5.552 -0.3271 -0.0339  0.8238
19391SOL     OW64264   9.530   4.589   5.615  0.7294  0.1717 -0.2816
19391SOL    HW164265   9.446   4.604   5.658  0.3389  0.2700 -1.0628
19391SOL    HW264266   9.517   4.619   5.526  1.0531 -1.3881 -0.8920
19392SOL     OW64267   4.306   7.869   3.311  0.3996  0.1777  0.9855
19392SOL    HW164268   4.256   7.843   3.234  1.1778 -0.1987  0.5932
19392SOL    HW264269   4.344   7.787   3.344  0.8059  0.4595  1.2324
19393SOL     OW64270   3.467   9.268   0.478 -0.5592  0.0356  0.1868
19393SOL    HW164271   3.413   9.342   0.503  0.0302  0.2020  1.0333
19393SOL    HW264272   3.502   9.291   0.392  1.2373  1.6885  1.2947
19394SOL     OW64273   6.008   9.578   2.941 -0.5719  0.1526 -0.1464
19394SOL    HW164274   5.951   9.501   2.939  0.5772 -0.7533  0.9288
19394SOL    HW264275   5.947   9.652   2.952 -1.5491 -0.7728  0.8523
19395SOL     OW64276   3.821   2.648   6.732 -0.0671  0.4162  0.0849
19395SOL    HW164277   3.735   2.640   6.692  0.5187 -4.0414 -0.8842
19395SOL    HW264278   3.874   2.693   6.666 -1.1898  1.5121 -0.1054
19396SOL     OW64279   6.228   7.177   3.841  0.2427  0.4345  0.4863
19396SOL    HW164280   6.251   7.095   3.884  1.2873  0.4803  0.0477
19396SOL    HW264281   6.149   7.157   3.791  1.2254 -0.6954 -0.6956
19397SOL     OW64282   3.881   9.183   5.010 -0.3252 -0.2855 -0.3110
19397SOL    HW164283   3.789   9.160   5.019 -0.6203  0.8132 -0.3729
19397SOL    HW264284   3.888   9.222   4.923 -0.4319  2.2582  0.7061
19398SOL     OW64285   0.046  10.273   6.051 -0.0936  0.1062 -0.2974
19398SOL    HW164286   0.036  10.284   5.957  0.0837  0.4717 -0.2750
19398SOL    HW264287   0.133  10.308   6.070 -1.2551  2.8848  0.4353
19399SOL     OW64288   2.257   6.104   8.505 -0.6725 -0.1165 -0.2704
19399SOL    HW164289   2.318   6.145   8.567 -1.2048 -1.8105  1.4765
19399SOL    HW264290   2.216   6.178   8.459  0.2544  1.1802  0.9099
19400SOL     OW64291   2.148   4.887   7.236  0.1944 -0.1171 -0.0650
19400SOL    HW164292   2.213   4.906   7.169  0.5568 -1.0367  0.0155
19400SOL    HW264293   2.181   4.809   7.280  0.1027  0.6244  1.3639
19401SOL     OW64294   3.826   1.026   5.036 -0.1851 -0.1579  0.1331
19401SOL    HW164295   3.829   0.960   4.967 -2.1687 -0.4518  0.2645
19401SOL    HW264296   3.890   0.996   5.101  0.7922 -0.5454 -0.9815
19402SOL     OW64297   0.172   6.511  10.724 -0.5945 -0.2707 -0.0306
19402SOL    HW164298   0.121   6.542  10.649  0.0296 -1.1487 -0.8600
19402SOL    HW264299   0.163   6.579  10.790 -0.3578  1.0112 -1.2701
19403SOL     OW64300   0.589   3.551   3.283 -0.3525  0.1929 -0.0345
19403SOL    HW164301   0.529   3.495   3.331 -2.1003  0.9456 -1.2305
19403SOL    HW264302   0.563   3.542   3.192  2.5038 -0.7547 -0.8555
19404SOL     OW64303   6.908   3.264   1.373 -0.8650  0.5179  0.1262
19404SOL    HW164304   6.999   3.264   1.403 -0.7824 -1.4647  0.0068
19404SOL    HW264305   6.910   3.316   1.292  0.2282  0.2594 -0.0405
19405SOL     OW64306   5.297   3.188   9.674  0.1380  0.8805 -0.3094
19405SOL    HW164307   5.298   3.282   9.692  1.7924  1.1422 -1.5250
19405SOL    HW264308   5.261   3.181   9.585 -1.0281  0.2515  0.1931
19406SOL     OW64309   8.706   7.625   7.542  0.0661 -0.1190 -0.1265
19406SOL    HW164310   8.763   7.590   7.611  1.2148  0.3297 -0.8260
19406SOL    HW264311   8.740   7.713   7.524 -0.8808  0.1834 -0.5325
19407SOL     OW64312   7.779   8.766   5.027 -0.0758 -0.1145 -0.1473
19407SOL    HW164313   7.736   8.818   4.960 -0.2941  0.7449  0.6423
19407SOL    HW264314   7.746   8.677   5.013  1.5249 -0.4295 -2.5438
19408SOL     OW64315   8.832   3.492   7.910  0.3019 -0.4701 -1.0097
19408SOL    HW164316   8.914   3.520   7.952  0.4152  0.7640 -1.9754
19408SOL    HW264317   8.764   3.512   7.974  0.5507  0.6492 -1.0670
19409SOL     OW64318  10.380   9.204   5.433 -0.1421 -0.1035 -0.0433
19409SOL    HW164319  10.307   9.193   5.371  0.5151 -0.4895 -0.7725
19409SOL    HW264320  10.392   9.298   5.439 -0.8932 -0.0263  0.3151
19410SOL     OW64321   6.643   2.680  10.489  0.1027 -0.2760  0.0780
19410SOL    HW164322   6.737   2.672  10.473  0.1871 -0.9625  0.8507
19410SOL    HW264323   6.603   2.609  10.439 -0.1375  0.7471 -1.2280
19411SOL     OW64324   7.725   3.073   5.100  0.3850 -0.2447 -0.1785
19411SOL    HW164325   7.658   3.034   5.044 -0.1702  0.8798 -0.3227
19411SOL    HW264326   7.802   3.080   5.044 -0.1557  0.8330 -0.8146
19412SOL     OW64327   0.136   4.443   6.025 -0.0447  0.1916 -0.4894
19412SOL    HW164328   0.173   4.531   6.028  0.1884  0.1174 -1.0812
19412SOL    HW264329   0.196   4.394   5.969 -1.1209  0.1182 -1.6379
19413SOL     OW64330   6.390   9.593   6.610 -0.9436 -0.1372 -0.1494
19413SOL    HW164331   6.324   9.524   6.620 -0.2182 -1.0689 -1.5821
19413SOL    HW264332   6.455   9.574   6.677 -0.8198 -0.7553 -0.4447
19414SOL     OW64333   3.653   0.298   2.715  0.9614  0.1586 -0.4917
19414SOL    HW164334   3.735   0.282   2.761  0.6078  1.6296  0.7059
19414SOL    HW264335   3.596   0.226   2.741  1.2739  0.1331  0.1319
19415SOL     OW64336   8.189   8.377   1.085  0.5918 -0.6097 -0.6608
19415SOL    HW164337   8.146   8.309   1.034  0.6974 -1.5270  0.4567
19415SOL    HW264338   8.208   8.337   1.170  0.5261  0.8410  0.0837
19416SOL     OW64339   2.309   8.664   8.878 -0.1861 -0.2764  0.2131
19416SOL    HW164340   2.318   8.734   8.812 -0.6515  0.4332  0.8886
19416SOL    HW264341   2.373   8.598   8.851 -0.6498 -0.1931 -1.1865
19417SOL     OW64342   6.385   7.048   4.586 -0.4293 -0.2278  0.0031
19417SOL    HW164343   6.345   7.018   4.668  0.7992  0.2575  0.8072
19417SOL    HW264344   6.453   7.109   4.614 -0.2782  0.2878 -1.4156
19418SOL     OW64345   9.203   9.825   4.097  0.0317  0.4506 -0.9500
19418SOL    HW164346   9.121   9.843   4.051  0.0961 -0.9876 -1.7009
19418SOL    HW264347   9.261   9.792   4.028  0.8236  0.2294 -0.1891
19419SOL     OW64348   4.188   0.838   1.200 -0.5637  0.0078 -0.1120
19419SOL    HW164349   4.218   0.751   1.172  0.1912  0.8121 -1.9012
19419SOL    HW264350   4.250   0.899   1.161 -0.4362  1.3373  2.0380
19420SOL     OW64351   7.316   7.668  10.144  0.1527  0.2593  0.2514
19420SOL    HW164352   7.373   7.600  10.181 -2.2946 -1.1969  1.5848
19420SOL    HW264353   7.357   7.690  10.060  0.6906 -3.4677 -0.6506
19421SOL     OW64354   6.377   8.339  10.103 -0.0104 -0.2426  0.2154
19421SOL    HW164355   6.331   8.336  10.019  0.2528  1.4869 -0.0387
19421SOL    HW264356   6.456   8.287  10.089  0.6302  0.9940 -1.0276
19422SOL     OW64357  10.320   0.512   9.858 -0.7722 -0.2131  0.2109
19422SOL    HW164358  10.401   0.474   9.891 -0.8784 -0.2267  0.4559
19422SOL    HW264359  10.336   0.607   9.861 -1.0244 -0.1861  0.9409
19423SOL     OW64360   1.908   9.423   7.949  0.1666 -0.0978  0.0554
19423SOL    HW164361   1.864   9.455   8.028  0.5371  1.2044 -0.2409
19423SOL    HW264362   1.887   9.330   7.946  0.6792 -0.3377  2.0564
19424SOL     OW64363  10.195   1.932   8.497  0.4775  0.6455  0.0164
19424SOL    HW164364  10.121   1.934   8.437  1.7685 -1.0717 -1.7365
19424SOL    HW264365  10.185   2.011   8.550 -1.2961  1.6816 -1.7419
19425SOL     OW64366   9.286   3.020   5.016  0.0479  0.2377 -0.5268
19425SOL    HW164367   9.264   3.098   5.067  1.0144 -0.3906  0.9086
19425SOL    HW264368   9.370   3.042   4.974  0.6434 -0.2282  0.3856
19426SOL     OW64369   6.097   3.391   1.248  0.0209 -0.2799  0.0554
19426SOL    HW164370   6.088   3.475   1.293  0.2681 -0.7188  0.9392
19426SOL    HW264371   6.089   3.413   1.155  0.9088  0.8334  0.2159
19427SOL     OW64372   9.804  10.199   3.489 -0.0331 -0.2466 -0.3551
19427SOL    HW164373   9.867  10.172   3.556  0.1199  1.1171  0.0957
19427SOL    HW264374   9.857  10.223   3.414  0.0017  0.6982 -0.0485
19428SOL     OW64375   2.191   1.005   2.415  0.1845 -0.6804  0.1597
19428SOL    HW164376   2.118   1.002   2.477 -1.2260 -2.0645 -1.4506
19428SOL    HW264377   2.255   0.944   2.451  0.2252 -0.0245  1.2144
19429SOL     OW64378   3.999   4.847   1.369 -0.1940 -0.3309  0.2876
19429SOL    HW164379   3.989   4.800   1.287 -2.8452 -0.5777  0.6542
19429SOL    HW264380   3.978   4.783   1.437  0.4710  0.2537  1.0720
19430SOL     OW64381   5.067   9.462   6.226 -0.0842  0.3397  0.2181
19430SOL    HW164382   5.119   9.507   6.160 -0.5694  1.3169  0.4818
19430SOL    HW264383   4.985   9.441   6.183 -0.0657  0.1825  0.2574
19431SOL     OW64384   2.267   2.581   4.448 -0.2160  0.0410  0.4331
19431SOL    HW164385   2.333   2.602   4.382  0.6821 -0.9968  0.9785
19431SOL    HW264386   2.191   2.634   4.424  0.1732 -0.1398 -1.3078
19432SOL     OW64387   5.795   4.169   5.749 -0.6913  0.2485  0.1039
19432SOL    HW164388   5.834   4.201   5.830 -0.1482  0.7259 -0.3375
19432SOL    HW264389   5.783   4.075   5.763  1.0175  0.0003  0.1127
19433SOL     OW64390   3.353   9.787   2.326 -0.0094  0.0270 -0.7022
19433SOL    HW164391   3.298   9.797   2.404  1.1108 -0.7173  0.2219
19433SOL    HW264392   3.314   9.846   2.262 -0.4738  1.2978  0.6890
19434SOL     OW64393   7.770   1.203   5.208 -0.0458 -0.3548  0.0978
19434SOL    HW164394   7.739   1.135   5.148  0.8289 -0.2917 -0.4513
19434SOL    HW264395   7.761   1.284   5.158  0.0579 -0.2184  0.2985
19435SOL     OW64396   4.546   8.119   8.198 -0.2907 -0.2672  0.1667
19435SOL    HW164397   4.635   8.147   8.217 -0.3762 -1.1388  2.0385
19435SOL    HW264398   4.505   8.196   8.158  0.3356  1.3348  2.4119
19436SOL     OW64399   9.895   1.955   4.790  0.3219 -0.0036  0.6153
19436SOL    HW164400   9.856   2.033   4.831  1.9160  0.3346  1.5777
19436SOL    HW264401   9.877   1.884   4.852  1.1582  0.1509  1.0565
19437SOL     OW64402   3.380   5.837   3.297  0.4606 -0.5655  0.0723
19437SOL    HW164403   3.398   5.928   3.274 -0.7216 -0.1266  0.7926
19437SOL    HW264404   3.300   5.815   3.250  0.1314 -0.8778  0.7586
19438SOL     OW64405   0.774   0.986   8.167  0.0709  0.0470  0.1396
19438SOL    HW164406   0.703   1.049   8.161 -0.5252 -0.5939  0.3180
19438SOL    HW264407   0.746   0.913   8.111  1.5349  0.6564 -1.4711
19439SOL     OW64408  10.540   9.679   9.209  0.4390  0.0380  0.7873
19439SOL    HW164409  10.542   9.738   9.285  1.7099 -0.3896  1.1138
19439SOL    HW264410  10.509   9.596   9.244 -0.6569  0.2912  0.4676
19440SOL     OW64411   7.819   6.478   6.149 -0.0366  0.2163 -0.4545
19440SOL    HW164412   7.892   6.422   6.176 -0.4573 -0.9643 -1.6609
19440SOL    HW264413   7.860   6.558   6.117  0.6401  0.1600  0.2476
19441SOL     OW64414   5.533   9.936   9.650 -0.0358 -0.3616  0.3660
19441SOL    HW164415   5.487   9.863   9.608  1.1651 -1.3291  0.6838
19441SOL    HW264416   5.529  10.007   9.585 -0.2466 -1.0683 -0.4071
19442SOL     OW64417   5.972   3.232   9.444 -0.1618 -0.1007 -0.6713
19442SOL    HW164418   5.978   3.141   9.415  0.5095 -0.5661  0.8483
19442SOL    HW264419   6.024   3.282   9.380  0.2646 -0.9052 -0.9596
19443SOL     OW64420   0.362   0.583   2.847 -0.5019 -0.0907  0.1709
19443SOL    HW164421   0.307   0.612   2.920  0.1819  0.7807  0.3547
19443SOL    HW264422   0.299   0.558   2.779 -1.1523 -1.3307  1.1973
19444SOL     OW64423   3.932   4.427   8.212  0.1543  0.0848  0.6403
19444SOL    HW164424   3.963   4.518   8.212 -0.5502  0.3332  1.1359
19444SOL    HW264425   3.969   4.389   8.292  0.1481  0.0356  0.6199
19445SOL     OW64426  10.793   0.253   9.611 -0.0623  0.3827 -0.0865
19445SOL    HW164427  10.765   0.323   9.552 -2.2021 -0.7551 -0.5707
19445SOL    HW264428  10.814   0.296   9.693  0.5751  1.7565 -0.9416
19446SOL     OW64429   5.406   9.083  10.757 -0.0851 -0.7299  0.0283
19446SOL    HW164430   5.354   9.161  10.775  1.2443  0.6265 -1.5810
19446SOL    HW264431   5.474   9.083  10.825 -0.4079 -0.7891  0.3489
19447SOL     OW64432  10.133   4.735   0.164 -0.7175 -0.1817  0.2874
19447SOL    HW164433  10.070   4.806   0.178  1.8641  2.2250  0.5143
19447SOL    HW264434  10.193   4.741   0.239  2.8199  1.1245 -2.4045
19448SOL     OW64435   0.577   2.737   9.521  0.4502  0.7931 -0.0888
19448SOL    HW164436   0.503   2.701   9.472  0.0885 -0.5034  1.3287
19448SOL    HW264437   0.583   2.828   9.492 -1.5907  0.8847 -0.3664
19449SOL     OW64438  10.877   7.985   4.544 -0.1150 -0.8810 -0.5737
19449SOL    HW164439  10.803   8.035   4.578  1.2858 -0.0656  1.4589
19449SOL    HW264440  10.931   8.050   4.498  0.7628 -0.8436  0.4632
19450SOL     OW64441   2.256   3.773   0.546 -0.3517 -0.1934  0.2209
19450SOL    HW164442   2.164   3.787   0.527 -0.1574  1.2897  0.1983
19450SOL    HW264443   2.258   3.736   0.635 -0.9623 -0.3605  0.1640
19451SOL     OW64444  10.220  10.159   8.498 -0.3392 -0.2070 -0.3589
19451SOL    HW164445  10.148  10.142   8.437 -0.7520  2.6448 -0.8292
19451SOL    HW264446  10.184  10.140   8.584 -1.4953  0.6071 -0.6409
19452SOL     OW64447   1.804   2.489   7.359 -0.9990 -0.1759  1.1859
19452SOL    HW164448   1.856   2.568   7.343 -0.5289  0.1811  3.9733
19452SOL    HW264449   1.743   2.485   7.285  0.5358  1.4382 -0.2645
19453SOL     OW64450   9.535   5.663   6.206 -0.2296  0.4457 -0.1375
19453SOL    HW164451   9.504   5.574   6.191  2.3935 -0.4369 -0.7575
19453SOL    HW264452   9.531   5.705   6.120  3.6702 -0.9079 -1.1756
19454SOL     OW64453   7.833   2.141   7.677 -0.0497 -0.4451  0.5635
19454SOL    HW164454   7.768   2.086   7.633 -0.5649 -0.1354  0.9201
19454SOL    HW264455   7.781   2.205   7.725  0.5022 -0.5221  1.2921
19455SOL     OW64456   2.700   1.025   2.251 -0.3185  0.3887 -0.2206
19455SOL    HW164457   2.763   0.976   2.198  1.2706  3.1287 -1.0886
19455SOL    HW264458   2.621   1.028   2.198  0.4778  1.0554 -1.4323
19456SOL     OW64459   9.073   4.880   7.726  0.1978 -0.2112 -0.2401
19456SOL    HW164460   8.996   4.937   7.726  0.1231 -0.2907  0.5477
19456SOL    HW264461   9.145   4.937   7.752 -0.0001 -0.5984  1.2635
19457SOL     OW64462   8.907   7.508   1.569  0.0253  0.0973  0.2854
19457SOL    HW164463   8.830   7.460   1.599  0.2518 -0.5343 -0.1331
19457SOL    HW264464   8.945   7.452   1.501  1.6944 -0.3122  1.5080
19458SOL     OW64465   2.838   1.084   0.679  0.1123 -0.2885 -0.1171
19458SOL    HW164466   2.819   0.992   0.664 -1.6219  0.2860 -1.8579
19458SOL    HW264467   2.767   1.115   0.734  0.0187  0.2488 -0.5226
19459SOL     OW64468   0.228   1.453   3.620  0.5677 -0.1039  0.5014
19459SOL    HW164469   0.251   1.370   3.579  0.2186  0.3933 -0.7331
19459SOL    HW264470   0.310   1.484   3.658  1.0804 -0.2011 -0.4950
19460SOL     OW64471   9.000   8.655   9.309  0.0457 -0.5399 -0.1308
19460SOL    HW164472   8.982   8.655   9.215 -0.1876  1.1100 -0.1232
19460SOL    HW264473   9.089   8.622   9.317  0.3034 -0.0888 -1.0011
19461SOL     OW64474   5.844   0.905   5.872  0.0214 -0.1684 -0.1524
19461SOL    HW164475   5.932   0.884   5.903  0.9507 -0.3638 -2.7078
19461SOL    HW264476   5.811   0.823   5.835 -0.5001  0.3253 -0.8188
19462SOL     OW64477   2.651   8.593   4.238  0.3353  0.4031  0.1920
19462SOL    HW164478   2.743   8.598   4.266  0.0414 -2.0901  1.9727
19462SOL    HW264479   2.614   8.678   4.259  2.1419  1.3397 -0.2513
19463SOL     OW64480   7.796   7.831   3.132 -0.0047 -0.2086 -0.6742
19463SOL    HW164481   7.790   7.797   3.043 -1.3374  1.5108 -1.2929
19463SOL    HW264482   7.758   7.763   3.187 -0.6075 -0.6339 -1.6077
19464SOL     OW64483   2.153   5.518  10.294  0.3863 -0.0180  0.3004
19464SOL    HW164484   2.063   5.483  10.296  0.0405  0.6909 -1.1515
19464SOL    HW264485   2.146   5.597  10.240  2.1515 -0.7575 -1.0734
19465SOL     OW64486   7.749   1.608   0.250 -0.2051  0.0252  0.1118
19465SOL    HW164487   7.667   1.570   0.282 -0.4145 -0.7795 -1.3103
19465SOL    HW264488   7.817   1.565   0.302 -0.5918 -0.4531  0.2318
19466SOL     OW64489   9.953   4.150   8.019  0.0750 -0.3268  0.0325
19466SOL    HW164490   9.870   4.151   7.971 -0.9640  0.7280  1.7403
19466SOL    HW264491  10.017   4.117   7.956 -1.7570 -1.8965 -1.1179
19467SOL     OW64492   2.789   0.584   8.394  0.2109 -0.5186 -0.2135
19467SOL    HW164493   2.828   0.669   8.378  1.6956 -1.0463  0.4201
19467SOL    HW264494   2.779   0.580   8.490 -1.6022 -0.3404 -0.3505
19468SOL     OW64495  10.423   9.795   3.877  0.1679  0.3292  0.0001
19468SOL    HW164496  10.433   9.863   3.944  1.3172 -0.0996  0.2799
19468SOL    HW264497  10.512   9.763   3.862 -0.4675 -1.9881  0.7753
19469SOL     OW64498   2.295   5.792   2.361 -0.0294  0.2093  0.1820
19469SOL    HW164499   2.217   5.845   2.342  0.6558  1.0893 -0.2888
19469SOL    HW264500   2.278   5.754   2.447 -1.3395 -0.3107 -0.2885
19470SOL     OW64501   5.177   1.936   1.538 -0.5610  0.8654 -0.1416
19470SOL    HW164502   5.115   1.879   1.493 -0.2309 -0.0682  0.5584
19470SOL    HW264503   5.226   1.878   1.596  1.5575  1.4322 -1.2545
19471SOL     OW64504   5.745   3.222   6.299 -0.4295 -0.2952 -0.0406
19471SOL    HW164505   5.705   3.222   6.387 -0.4218  0.5145 -0.0319
19471SOL    HW264506   5.751   3.129   6.276 -1.9930 -0.4750  0.1156
19472SOL     OW64507   2.554   1.627   4.818 -0.3440  0.3678  0.2678
19472SOL    HW164508   2.626   1.690   4.820 -0.0130  0.0019  0.0868
19472SOL    HW264509   2.539   1.605   4.910  0.5616 -0.4253  0.2445
19473SOL     OW64510   1.100   2.145   3.721 -0.3633 -0.5718 -0.4470
19473SOL    HW164511   1.145   2.069   3.685  2.1815  0.2484  0.7384
19473SOL    HW264512   1.110   2.213   3.655 -2.4233 -1.1330 -1.3994
19474SOL     OW64513   4.400   6.560   1.826  0.5780  0.0889 -0.3309
19474SOL    HW164514   4.482   6.599   1.855  0.7614  0.4162 -1.2488
19474SOL    HW264515   4.406   6.468   1.854  0.6712  0.4225  0.7665
19475SOL     OW64516   0.231   4.070   7.517 -0.1547 -0.1097 -0.0870
19475SOL    HW164517   0.323   4.080   7.542 -0.6873 -0.2509  2.0947
19475SOL    HW264518   0.188   4.032   7.594 -2.5624  2.4787  0.0166
19476SOL     OW64519   3.481   4.965   2.210 -0.3953  0.3711  0.5564
19476SOL    HW164520   3.540   4.890   2.210  2.2060  2.2129 -0.9321
19476SOL    HW264521   3.419   4.947   2.139  2.7044  1.1802 -2.6537
19477SOL     OW64522   4.096   2.775   7.034 -0.1357 -0.6924  0.3406
19477SOL    HW164523   4.088   2.850   6.974  1.9839  0.9246  1.9325
19477SOL    HW264524   4.179   2.735   7.012  1.1683  0.5044  2.6663
19478SOL     OW64525   5.950   5.607   4.896  0.4422 -0.0938  0.2012
19478SOL    HW164526   5.993   5.647   4.972  0.9300 -0.1143 -0.0598
19478SOL    HW264527   5.858   5.629   4.907  0.4905 -0.1893  0.8614
19479SOL     OW64528   7.251   9.771   9.809  0.4023 -0.4860 -0.0523
19479SOL    HW164529   7.269   9.707   9.740  0.9463 -0.4511  0.0528
19479SOL    HW264530   7.250   9.855   9.765 -1.1048 -0.6154 -0.3320
19480SOL     OW64531   1.655   0.117   5.493  0.0661  0.4451  0.1109
19480SOL    HW164532   1.716   0.176   5.537  0.4093 -0.0677  0.3448
19480SOL    HW264533   1.642   0.155   5.406  0.4517  0.7506  0.1846
19481SOL     OW64534   5.774   4.340   2.490 -0.5597  0.3613  0.2334
19481SOL    HW164535   5.814   4.323   2.404  1.7684  1.9111  0.9195
19481SOL    HW264536   5.821   4.282   2.550  0.8924  2.3367  1.0876
19482SOL     OW64537   1.059   1.582   2.720  0.1843  0.0221  0.1680
19482SOL    HW164538   1.061   1.493   2.686  0.5218 -0.3458  1.1086
19482SOL    HW264539   1.031   1.572   2.812  0.5677  0.8423  0.3858
19483SOL     OW64540   5.756   0.869   2.388  0.0716  0.0291 -0.4811
19483SOL    HW164541   5.788   0.806   2.323 -0.1990 -0.3676 -0.2416
19483SOL    HW264542   5.813   0.856   2.464 -0.3748 -0.3770 -0.2074
19484SOL     OW64543   2.083   8.867   8.135 -0.2684  0.1712 -0.2138
19484SOL    HW164544   2.015   8.800   8.126  1.4901 -1.6625 -0.5402
19484SOL    HW264545   2.165   8.821   8.119  1.0174  2.5331 -1.0235
19485SOL     OW64546   5.937   8.277   9.058 -0.0744 -0.2406  0.1343
19485SOL    HW164547   5.910   8.189   9.087 -1.0561  0.0289  0.0835
19485SOL    HW264548   5.953   8.268   8.965  2.1008 -0.8789  0.5189
19486SOL     OW64549   9.764   0.766   2.575 -0.6146  0.1028 -0.2833
19486SOL    HW164550   9.806   0.761   2.660 -1.2366 -2.3244 -0.0358
19486SOL    HW264551   9.673   0.743   2.592 -0.9723  0.5717 -1.4656
19487SOL     OW64552   5.822   4.663   9.282  0.2905  0.2564  0.3186
19487SOL    HW164553   5.834   4.613   9.202  0.1658  0.1083  0.3924
19487SOL    HW264554   5.875   4.742   9.269 -0.1662  0.5003 -0.1438
19488SOL     OW64555   1.846  10.509   9.087 -0.6528  0.0069 -0.0186
19488SOL    HW164556   1.858  10.570   9.014 -1.1364  1.3135  0.9548
19488SOL    HW264557   1.897  10.546   9.158  0.2222 -1.5173  0.1951
19489SOL     OW64558   3.367   8.261   0.757  0.0521  0.2412  0.2832
19489SOL    HW164559   3.451   8.281   0.717  0.6131 -1.2345  0.6388
19489SOL    HW264560   3.305   8.256   0.684  1.0473 -2.4036 -0.4975
19490SOL     OW64561   1.631   0.318   5.851  0.2675 -0.3398  0.0074
19490SOL    HW164562   1.567   0.336   5.782  0.6941  2.9320  0.3004
19490SOL    HW264563   1.711   0.297   5.804  0.1856  0.4671 -0.5221
19491SOL     OW64564   9.189   9.196   5.808  0.1736  0.1985  0.4898
19491SOL    HW164565   9.173   9.277   5.855  0.1821  0.6498 -0.2758
19491SOL    HW264566   9.110   9.144   5.821  0.0536  0.4448  0.7382
19492SOL     OW64567   1.216   9.867   6.463  0.2349 -0.2148  0.2973
19492SOL    HW164568   1.287   9.810   6.433  0.2048  0.0760 -0.3350
19492SOL    HW264569   1.221   9.863   6.559 -0.2812 -1.9280  0.2962
19493SOL     OW64570   6.962   6.358   6.241  0.4240 -0.0457  0.2397
19493SOL    HW164571   6.991   6.423   6.177  0.7412 -0.7844 -0.3903
19493SOL    HW264572   7.025   6.365   6.313 -1.4439  2.6376  1.7818
19494SOL     OW64573   9.843   6.564   4.233 -0.1277  0.3880  0.5557
19494SOL    HW164574   9.799   6.487   4.196  1.4013  0.4886 -1.6681
19494SOL    HW264575   9.871   6.536   4.321  0.4422 -1.6474 -0.2135
19495SOL     OW64576   9.109   0.391   2.213 -0.1509  0.0936 -0.1438
19495SOL    HW164577   9.098   0.342   2.131  2.0488  0.5676 -0.7770
19495SOL    HW264578   9.118   0.323   2.280 -1.5457 -0.2996 -0.3219
19496SOL     OW64579   7.084   7.794   4.004  0.7402 -0.0985  0.5156
19496SOL    HW164580   7.142   7.721   3.982 -0.3228 -0.9018  0.2624
19496SOL    HW264581   7.134   7.873   3.981  1.4370 -0.7834 -0.4094
19497SOL     OW64582   7.782   4.361   8.376  0.1667  0.9493 -0.1665
19497SOL    HW164583   7.766   4.287   8.435  0.8232  0.9885  0.0696
19497SOL    HW264584   7.760   4.438   8.429 -1.7316  0.8917 -0.8145
19498SOL     OW64585   3.530   6.751   4.032 -0.1718 -0.0818  0.0451
19498SOL    HW164586   3.473   6.724   3.960 -0.2623  0.3217 -0.0383
19498SOL    HW264587   3.512   6.689   4.102 -0.0636 -0.4932 -0.2896
19499SOL     OW64588  10.662   4.388   7.230 -0.1396  0.3526 -0.4316
19499SOL    HW164589  10.692   4.473   7.196  3.1806  0.1959  1.6919
19499SOL    HW264590  10.702   4.381   7.316 -1.0791 -3.0045 -0.1265
19500SOL     OW64591   8.151   4.829   1.070 -0.5631 -0.2723 -0.2123
19500SOL    HW164592   8.074   4.786   1.108  0.3036 -0.0001  2.0302
19500SOL    HW264593   8.211   4.757   1.052  0.3719 -0.2268  2.3149
19501SOL     OW64594   5.640   6.731   6.118 -0.2752  0.1533 -0.4015
19501SOL    HW164595   5.593   6.648   6.110 -0.8546  0.4827 -0.4335
19501SOL    HW264596   5.687   6.724   6.201 -0.8257  0.0448 -0.0957
19502SOL     OW64597   6.126   2.901   8.457  0.0367  0.6692 -0.2472
19502SOL    HW164598   6.082   2.893   8.372  1.0447  1.3725 -0.8562
19502SOL    HW264599   6.210   2.857   8.445  0.2689  0.9501  0.3277
19503SOL     OW64600   3.257   8.033   2.566  0.4056  0.2784 -0.0933
19503SOL    HW164601   3.167   8.015   2.541  0.3885 -2.1655  1.4328
19503SOL    HW264602   3.301   8.056   2.484 -0.7422 -2.4355 -1.5826
19504SOL     OW64603   3.654   5.596   8.224  0.0214  0.5731  0.3124
19504SOL    HW164604   3.597   5.520   8.225 -0.2825  0.7845 -0.1392
19504SOL    HW264605   3.595   5.671   8.214  0.4481  0.6545 -2.4952
19505SOL     OW64606   6.280   3.706   3.917  0.1241 -0.2159  0.0839
19505SOL    HW164607   6.282   3.634   3.980 -0.2094  1.4014  2.0542
19505SOL    HW264608   6.344   3.769   3.950  0.5585  0.3321 -1.6885
19506SOL     OW64609   6.381   3.119   7.836 -0.0252  0.2102  0.1462
19506SOL    HW164610   6.437   3.042   7.831  1.4899  1.2681  0.0341
19506SOL    HW264611   6.439   3.192   7.815 -1.3705  1.4029  0.4141
19507SOL     OW64612   6.945   5.616   2.090  0.2213 -0.2999  0.1160
19507SOL    HW164613   7.029   5.640   2.129 -0.2783  0.1485  0.9555
19507SOL    HW264614   6.920   5.535   2.135  0.2289 -0.4556 -0.1624
19508SOL     OW64615   0.686   8.754   7.544  0.1854 -0.2082  0.6337
19508SOL    HW164616   0.597   8.723   7.527 -0.0941  0.1621  1.4115
19508SOL    HW264617   0.742   8.686   7.505 -0.4287 -0.8694  0.8701
19509SOL     OW64618   1.441   3.769   4.725  0.1693  0.1695 -0.0144
19509SOL    HW164619   1.407   3.855   4.700 -2.0569  0.1043  2.3782
19509SOL    HW264620   1.419   3.712   4.651  0.5832  1.3724 -1.1117
19510SOL     OW64621   5.240  10.303   9.824 -0.1196 -0.4565  0.4134
19510SOL    HW164622   5.293  10.306   9.904  0.5198 -0.3319 -0.0095
19510SOL    HW264623   5.286  10.360   9.762  0.6307 -2.2743 -0.7738
19511SOL     OW64624   5.847   8.356   6.094 -0.1171  0.3565  0.0388
19511SOL    HW164625   5.832   8.277   6.041 -0.4915 -0.1861  0.9248
19511SOL    HW264626   5.887   8.323   6.175  1.3310  1.2728 -0.2689
19512SOL     OW64627   4.797   9.563   1.242  0.7037 -0.1003 -0.5308
19512SOL    HW164628   4.889   9.541   1.255  0.6655  0.0105 -0.0734
19512SOL    HW264629   4.767   9.501   1.175  0.9118 -0.6334 -0.1388
19513SOL     OW64630   3.719   4.725   7.142  0.2485  0.1915  0.1110
19513SOL    HW164631   3.771   4.713   7.063 -0.7616  1.0819 -0.7099
19513SOL    HW264632   3.691   4.636   7.166 -1.3846  0.0911 -1.9058
19514SOL     OW64633   6.158   5.394   9.581 -0.0575  0.3326  0.3831
19514SOL    HW164634   6.145   5.348   9.498 -0.3951 -1.1729  1.2231
19514SOL    HW264635   6.081   5.451   9.589 -0.6327 -0.3894  0.1856
19515SOL     OW64636  10.063   3.976   7.161  0.1225  0.0445  0.4413
19515SOL    HW164637  10.036   3.988   7.070  0.5057 -0.8470  0.1959
19515SOL    HW264638  10.130   3.907   7.157  1.4382  1.2147  1.1841
19516SOL     OW64639   5.598   3.222   9.304 -0.2548  0.0433  0.1153
19516SOL    HW164640   5.509   3.206   9.274 -0.0186 -0.6787 -0.2454
19516SOL    HW264641   5.653   3.180   9.237  0.3593  0.6118  0.2484
19517SOL     OW64642   3.796   4.714   5.093 -0.8926 -0.3235  0.2531
19517SOL    HW164643   3.786   4.624   5.122  2.1128 -1.0921 -0.7903
19517SOL    HW264644   3.886   4.720   5.061 -1.0411  3.0014  0.0789
19518SOL     OW64645  10.338   8.429   9.294 -0.5742 -0.1272  0.1550
19518SOL    HW164646  10.362   8.346   9.335 -1.7510 -0.3929  0.3217
19518SOL    HW264647  10.281   8.472   9.358 -1.8075 -0.2023 -0.8560
19519SOL     OW64648   8.760   5.089  10.071 -0.3017 -0.0947  0.4858
19519SOL    HW164649   8.673   5.083  10.032  0.2686  0.4598 -0.9828
19519SOL    HW264650   8.779   5.001  10.103 -1.8221  0.0371  1.8596
19520SOL     OW64651   6.039   1.083  10.418  0.4957 -0.1001 -0.2568
19520SOL    HW164652   6.037   1.113  10.327  0.6779  1.2055  0.1615
19520SOL    HW264653   6.120   1.118  10.454 -0.1845  0.4745  0.7700
19521SOL     OW64654   6.964   8.237   2.859 -0.1197 -0.3623 -0.2290
19521SOL    HW164655   6.906   8.311   2.878 -0.3722 -0.4506 -0.6673
19521SOL    HW264656   7.051   8.276   2.853 -0.3745  0.0411 -1.3864
19522SOL     OW64657   3.506   9.221  10.674 -0.4647 -0.5451 -0.4580
19522SOL    HW164658   3.459   9.199  10.755  0.8980 -1.2036  0.1808
19522SOL    HW264659   3.555   9.142  10.653 -2.1917 -1.0592 -2.9911
19523SOL     OW64660   1.747   6.385  10.125 -0.1090 -0.2287 -0.2542
19523SOL    HW164661   1.791   6.461  10.087  0.3288 -0.5575 -0.4123
19523SOL    HW264662   1.654   6.397  10.103  0.1790 -0.6173 -1.7732
19524SOL     OW64663   1.191  10.291   3.902 -0.4038  0.2442 -0.3480
19524SOL    HW164664   1.102  10.328   3.898 -1.2753 -1.6018  0.7441
19524SOL    HW264665   1.179  10.198   3.886  1.3958 -0.0083 -0.4066
19525SOL     OW64666   1.857   7.881   1.371 -0.3701 -0.1196 -0.2477
19525SOL    HW164667   1.929   7.868   1.433 -0.0436  0.5603 -0.4649
19525SOL    HW264668   1.882   7.832   1.294 -0.2013  0.0045 -0.2721
19526SOL     OW64669   1.309   3.015   3.579  0.2790 -0.5119  0.0174
19526SOL    HW164670   1.281   2.975   3.662  0.4056 -2.2869 -0.7492
19526SOL    HW264671   1.353   3.096   3.606  0.3957 -1.0822  1.6976
19527SOL     OW64672   6.422   8.523   1.935 -0.4590 -0.4313  0.5137
19527SOL    HW164673   6.361   8.588   1.969  0.6919  0.1691  1.4689
19527SOL    HW264674   6.465   8.487   2.013 -0.0487 -1.3226 -0.1031
19528SOL     OW64675   7.500   3.308   9.506  0.2676 -1.1400 -0.0900
19528SOL    HW164676   7.413   3.292   9.470 -0.8569 -1.9188  2.7059
19528SOL    HW264677   7.559   3.256   9.450 -1.1593 -1.3961 -1.4260
19529SOL     OW64678   3.766   2.095   9.679 -0.4649  0.0479  0.3428
19529SOL    HW164679   3.681   2.068   9.714  0.3185 -0.7597  1.6932
19529SOL    HW264680   3.788   2.174   9.728 -0.9740  1.0023 -0.8949
19530SOL     OW64681   4.802   8.820   4.442 -0.6721 -0.1015  0.7896
19530SOL    HW164682   4.826   8.912   4.430  2.6641 -0.9170  0.1704
19530SOL    HW264683   4.723   8.822   4.496 -1.2971  3.1195 -0.0739
19531SOL     OW64684   1.438   4.286   6.003  0.0761 -0.3755  0.2836
19531SOL    HW164685   1.369   4.339   5.963  1.7600  0.6976 -1.3880
19531SOL    HW264686   1.445   4.208   5.947  1.1334  0.1999 -0.4213
19532SOL     OW64687   0.487   3.976   9.787 -1.1534  0.8214  0.9739
19532SOL    HW164688   0.400   3.939   9.773 -0.7550  0.8751 -2.4923
19532SOL    HW264689   0.547   3.908   9.756 -0.1988  2.3276 -0.6399
19533SOL     OW64690   2.061   9.632   9.579  0.3541  0.5296  0.4312
19533SOL    HW164691   2.100   9.719   9.585  1.2055  0.3545 -1.6245
19533SOL    HW264692   1.968   9.648   9.566  0.4475  1.1163  0.4553
19534SOL     OW64693   7.175   9.002   3.985  0.3005  0.3102  0.0954
19534SOL    HW164694   7.194   9.091   3.955  0.8592  0.3312  0.5127
19534SOL    HW264695   7.106   9.013   4.050 -0.6178  0.3035 -0.8444
19535SOL     OW64696   6.138   6.835   5.270 -0.2480 -0.3019  0.2688
19535SOL    HW164697   6.201   6.780   5.316 -1.7447 -2.6336 -0.3294
19535SOL    HW264698   6.053   6.797   5.290 -1.1990  0.5655 -1.8151
19536SOL     OW64699   7.475   4.919   4.333  0.7523  0.0483 -0.0021
19536SOL    HW164700   7.493   5.010   4.312  1.8899 -0.4488 -1.3283
19536SOL    HW264701   7.521   4.903   4.416 -1.6586  1.3460  1.7009
19537SOL     OW64702   8.688   3.155   4.573 -0.7578 -0.2922  0.1544
19537SOL    HW164703   8.656   3.089   4.512 -0.7282 -0.9123  0.7967
19537SOL    HW264704   8.770   3.186   4.534 -1.0704 -0.1998 -0.4462
19538SOL     OW64705   3.990   9.545   3.492 -0.4398  0.4339 -0.0442
19538SOL    HW164706   4.084   9.550   3.473  0.2199 -1.3797  2.2116
19538SOL    HW264707   3.981   9.468   3.547 -3.3836  0.2551 -0.6124
19539SOL     OW64708   6.615   6.940  10.622  0.1127 -0.3511 -0.2813
19539SOL    HW164709   6.522   6.943  10.642  0.5494  2.7206  1.9540
19539SOL    HW264710   6.638   7.030  10.597  2.5841 -0.8280 -0.0381
19540SOL     OW64711   9.415  10.368   1.259 -0.6404  0.1422  0.2006
19540SOL    HW164712   9.462  10.451   1.258 -0.1870 -0.0933 -1.3029
19540SOL    HW264713   9.468  10.311   1.314 -0.2961  0.4967  0.2425
19541SOL     OW64714  10.197   6.348   4.777  0.0654 -0.2929 -0.3334
19541SOL    HW164715  10.162   6.411   4.840 -0.0623 -0.6879 -0.0041
19541SOL    HW264716  10.286   6.331   4.806  0.5267  0.6632 -1.1345
19542SOL     OW64717  10.378   9.680  10.315 -0.6164 -0.0556 -0.1775
19542SOL    HW164718  10.317   9.733  10.264 -0.8920 -1.7179 -1.6530
19542SOL    HW264719  10.337   9.594  10.320  1.0024 -0.8549 -0.0767
19543SOL     OW64720   1.663   2.029   5.902  0.4351  0.5062  0.2114
19543SOL    HW164721   1.678   1.943   5.942  2.3834  0.2875 -0.8516
19543SOL    HW264722   1.749   2.072   5.906 -0.3108  2.0944 -0.0223
19544SOL     OW64723   6.230   7.836   6.572  0.0532  0.1585 -0.2880
19544SOL    HW164724   6.305   7.887   6.603  0.7005 -0.0921 -1.4080
19544SOL    HW264725   6.263   7.787   6.497 -1.1858 -0.1088 -0.6840
19545SOL     OW64726   1.478   2.240   0.474 -0.0450 -0.0368  0.2847
19545SOL    HW164727   1.391   2.279   0.463 -0.4024 -1.0581 -0.7118
19545SOL    HW264728   1.477   2.205   0.563 -0.5708  0.1610  0.3631
19546SOL     OW64729   6.494   0.630   1.505  0.1117  0.5148  0.3835
19546SOL    HW164730   6.469   0.722   1.510 -1.1447  0.4218 -2.6320
19546SOL    HW264731   6.572   0.629   1.450 -0.4569 -0.2991 -0.4306
19547SOL     OW64732   9.091   2.715   0.063  0.0484  0.0576 -0.2327
19547SOL    HW164733   9.040   2.639   0.089 -0.2138  0.5894  0.8453
19547SOL    HW264734   9.037   2.760  -0.002  0.4083 -0.8979 -1.2433
19548SOL     OW64735   0.713  10.419   7.259  0.4480  0.4270  0.1424
19548SOL    HW164736   0.747  10.458   7.179 -1.7009 -1.3888 -1.7976
19548SOL    HW264737   0.789  10.373   7.296  1.4766  1.2370 -0.8638
19549SOL     OW64738   2.291   2.714   6.830 -0.2560 -0.1454 -0.0999
19549SOL    HW164739   2.348   2.651   6.874  0.6784  0.5529 -0.2640
19549SOL    HW264740   2.333   2.729   6.745  0.1060  1.4063  0.3090
19550SOL     OW64741   0.749   7.911   1.193 -0.4945  0.1946 -0.5913
19550SOL    HW164742   0.695   7.990   1.197 -0.4087  0.2174  0.6555
19550SOL    HW264743   0.724   7.869   1.111 -2.7353 -0.0003  0.1161
19551SOL     OW64744   5.457   0.118   9.861  0.2473  0.4259 -0.0837
19551SOL    HW164745   5.494   0.153   9.942  0.6188  0.3349 -0.2115
19551SOL    HW264746   5.510   0.157   9.792  0.8325 -0.5693 -0.2204
19552SOL     OW64747   1.874   7.429  10.263  0.2368 -0.0295 -0.6694
19552SOL    HW164748   1.813   7.368  10.305  1.1808 -1.5732 -1.4299
19552SOL    HW264749   1.892   7.390  10.178 -2.3474  3.4734 -3.1099
19553SOL     OW64750   1.862   8.980   7.316  0.5621 -0.0622 -0.8907
19553SOL    HW164751   1.956   8.964   7.321  0.6706  0.5980 -0.7577
19553SOL    HW264752   1.842   9.030   7.395 -0.0419 -0.8624 -0.5184
19554SOL     OW64753   6.851   9.289   6.185  0.5535  0.5270  0.0878
19554SOL    HW164754   6.917   9.316   6.250  1.1401 -1.6882  0.5341
19554SOL    HW264755   6.774   9.342   6.205  2.4108  3.9379 -1.0829
19555SOL     OW64756   4.818   1.213   6.472  0.0584 -0.3007 -0.0278
19555SOL    HW164757   4.819   1.252   6.384  0.4372  0.4035  0.2833
19555SOL    HW264758   4.749   1.261   6.518  1.8602  1.4435  0.9852
19556SOL     OW64759   1.430   1.407   3.969 -0.2220 -0.3669  0.5564
19556SOL    HW164760   1.362   1.424   3.904 -0.4561  0.7193  1.0712
19556SOL    HW264761   1.382   1.397   4.051  0.1455 -0.8559  0.7172
19557SOL     OW64762  10.498  10.138   2.470  0.5268  0.0481 -0.3706
19557SOL    HW164763  10.518  10.045   2.478 -0.1324 -0.0186  0.7568
19557SOL    HW264764  10.410  10.141   2.431  0.3096  0.1683  0.1137
19558SOL     OW64765   8.880   3.227   1.338  0.3967  0.1387  0.2671
19558SOL    HW164766   8.973   3.206   1.348  0.0640 -1.2937  0.6984
19558SOL    HW264767   8.846   3.229   1.428  0.0261  0.7809  0.1216
19559SOL     OW64768   4.441   3.191   9.441 -0.3370  0.3325 -0.1082
19559SOL    HW164769   4.404   3.158   9.359  2.7927 -1.5571 -0.9434
19559SOL    HW264770   4.535   3.201   9.422  0.1002  2.1521  2.5825
19560SOL     OW64771   6.079   2.290   5.753 -0.3695 -0.5976 -0.2005
19560SOL    HW164772   6.112   2.213   5.799  0.2616 -0.6026 -0.6540
19560SOL    HW264773   6.142   2.305   5.683  0.6403  1.4999  1.0615
19561SOL     OW64774  10.376   1.236   0.874 -0.1821  0.0866 -0.3379
19561SOL    HW164775  10.390   1.187   0.955  1.2724 -0.9083 -1.1656
19561SOL    HW264776  10.283   1.224   0.855 -0.4297 -0.0873  0.9154
19562SOL     OW64777   2.359   6.476   7.337  0.4352 -0.4475  0.7986
19562SOL    HW164778   2.329   6.451   7.425  1.0126  1.6936  1.6817
19562SOL    HW264779   2.283   6.460   7.281 -0.1517 -1.3036  1.7955
19563SOL     OW64780   7.594   3.426   0.496  0.3294  0.3000 -0.2095
19563SOL    HW164781   7.683   3.425   0.531  0.0568 -0.6021  0.5138
19563SOL    HW264782   7.596   3.491   0.426  2.0393 -1.0894 -1.5257
19564SOL     OW64783   2.105   2.809   9.039  0.2558 -0.1115 -0.1172
19564SOL    HW164784   2.120   2.720   9.070  2.5108 -0.7815 -2.7803
19564SOL    HW264785   2.167   2.863   9.089  0.3883 -0.3651 -0.0064
19565SOL     OW64786   1.629  10.106   1.161  0.0686  0.1200 -0.0993
19565SOL    HW164787   1.575  10.126   1.085  0.4195 -1.4758 -0.8251
19565SOL    HW264788   1.568  10.107   1.235 -0.5012  0.5538 -0.5606
19566SOL     OW64789   8.564   4.434   6.408  0.2209 -0.0253  0.3387
19566SOL    HW164790   8.541   4.494   6.338 -0.4065 -0.1033  0.4723
19566SOL    HW264791   8.532   4.349   6.379  1.5755 -0.4113 -0.0859
19567SOL     OW64792   0.815   2.128   2.432  0.2107 -0.1478  0.2733
19567SOL    HW164793   0.777   2.080   2.505  0.1550  0.5058  0.6824
19567SOL    HW264794   0.856   2.061   2.378 -1.0564 -0.8095  0.1027
19568SOL     OW64795   7.387  10.502  10.864  0.0752 -0.6371 -0.2478
19568SOL    HW164796   7.374  10.411  10.837  0.4340 -0.7723  0.0297
19568SOL    HW264797   7.299  10.540  10.863 -0.2417 -1.2935  0.7106
19569SOL     OW64798   9.834   6.227   4.422 -0.0400  0.2649 -0.2513
19569SOL    HW164799   9.821   6.138   4.389 -0.7061 -0.1062  0.9595
19569SOL    HW264800   9.907   6.219   4.484  0.4875  0.7406 -0.8029
19570SOL     OW64801   7.099   8.566   9.799 -0.2156  0.5616 -0.1366
19570SOL    HW164802   7.184   8.603   9.825 -0.0164 -1.2381  2.1042
19570SOL    HW264803   7.035   8.621   9.844 -0.1814  1.0248 -0.6434
19571SOL     OW64804   4.968   1.159   6.726  0.0120  0.4008 -0.3017
19571SOL    HW164805   4.895   1.108   6.762  1.2206 -1.3183 -0.2112
19571SOL    HW264806   4.944   1.174   6.635 -1.6699  2.1923  0.3655
19572SOL     OW64807   7.263   9.819   8.351  0.6485  0.2238  0.4727
19572SOL    HW164808   7.220   9.739   8.381 -1.4114  1.0192 -0.1473
19572SOL    HW264809   7.275   9.871   8.430 -2.4452  1.2534  0.3985
19573SOL     OW64810   0.018   5.379   5.732 -0.3685  0.3496 -0.4436
19573SOL    HW164811   0.026   5.299   5.785  1.5366  2.1029  2.2156
19573SOL    HW264812  -0.046   5.432   5.779  0.5280  1.4971 -0.4731
19574SOL     OW64813   0.413   2.130   8.546 -0.7760  0.3554 -0.0320
19574SOL    HW164814   0.450   2.210   8.584  1.5143 -0.6945  0.1212
19574SOL    HW264815   0.342   2.160   8.490 -0.3474  2.4427  0.4731
19575SOL     OW64816   5.646   6.766   7.834  0.1610 -0.1914  0.7789
19575SOL    HW164817   5.636   6.681   7.792  0.4595 -0.1518  0.6286
19575SOL    HW264818   5.627   6.830   7.764 -0.9440 -0.1332  1.1065
19576SOL     OW64819   7.275  10.659   9.367  0.4328 -0.6890 -0.3694
19576SOL    HW164820   7.249  10.577   9.325 -0.1616  0.0342 -1.4495
19576SOL    HW264821   7.194  10.709   9.374  0.8916  0.0518 -0.2655
19577SOL     OW64822   8.617   7.978   7.905 -0.3412 -0.0768  0.1214
19577SOL    HW164823   8.640   8.017   7.821 -1.0671  0.8674  0.3400
19577SOL    HW264824   8.570   8.047   7.952 -0.4501 -0.7708  1.0791
19578SOL     OW64825   5.645   1.316   9.723 -0.4681  0.3037 -0.3930
19578SOL    HW164826   5.630   1.407   9.749 -1.6245 -0.1764  0.7219
19578SOL    HW264827   5.568   1.293   9.671 -0.2829 -0.1116 -0.4852
19579SOL     OW64828   2.876   5.515   9.799 -0.2203  0.3047 -0.0585
19579SOL    HW164829   2.899   5.582   9.735  1.2268 -1.2962 -1.3056
19579SOL    HW264830   2.952   5.509   9.857  0.4113 -1.3467 -0.9782
19580SOL     OW64831   5.455   3.852   7.374 -0.1040  0.1962  0.3029
19580SOL    HW164832   5.361   3.870   7.372 -0.0641  0.3302 -0.5305
19580SOL    HW264833   5.489   3.906   7.445 -0.7247 -0.2073  0.9224
19581SOL     OW64834   1.671   1.561  10.653 -0.6208  0.2168  0.2602
19581SOL    HW164835   1.634   1.515  10.729  1.0413 -1.3004  0.2022
19581SOL    HW264836   1.678   1.494  10.585 -0.1673  1.0834 -0.5649
19582SOL     OW64837   9.575   1.675   6.062  0.2658  0.1915 -0.8314
19582SOL    HW164838   9.534   1.748   6.014 -0.2542  0.4282 -0.0387
19582SOL    HW264839   9.541   1.682   6.151  0.4294 -0.8596 -0.6717
19583SOL     OW64840   7.310   4.032   1.185  0.0623 -0.0104  0.0548
19583SOL    HW164841   7.389   4.044   1.238 -0.2450  0.9059  0.3278
19583SOL    HW264842   7.339   4.047   1.095 -0.2956  3.2592  0.3592
19584SOL     OW64843   7.013   8.402   1.494  0.0654 -0.0713 -0.2668
19584SOL    HW164844   7.060   8.457   1.432  0.5597 -0.7160 -0.4832
19584SOL    HW264845   6.978   8.330   1.441 -1.9866  0.8698 -0.2685
19585SOL     OW64846   5.670   3.843   0.715  0.3448 -0.5237 -0.2128
19585SOL    HW164847   5.752   3.893   0.718  0.6124 -0.9903  0.3114
19585SOL    HW264848   5.695   3.757   0.681  0.0514 -0.6226 -0.1834
19586SOL     OW64849   0.797   9.625   6.639  0.5457  0.6159 -0.0170
19586SOL    HW164850   0.837   9.678   6.709  1.0306  1.6053 -1.0128
19586SOL    HW264851   0.871   9.578   6.600  0.7850  2.3089 -1.7466
19587SOL     OW64852   7.933   5.723   4.083 -0.1400  0.3361  0.1994
19587SOL    HW164853   7.922   5.780   4.160 -0.2703  1.1051 -0.3799
19587SOL    HW264854   7.981   5.776   4.020 -0.4537 -0.1173 -0.4342
19588SOL     OW64855   0.417   9.650   9.172  0.6691  0.4049 -0.0548
19588SOL    HW164856   0.449   9.632   9.260  0.0665 -0.4192  0.0147
19588SOL    HW264857   0.335   9.600   9.166  0.6512  0.5310 -1.0451
19589SOL     OW64858   7.800   2.034   1.899 -0.2118  0.2868 -0.1474
19589SOL    HW164859   7.834   2.115   1.863 -1.9710  0.5823 -1.2824
19589SOL    HW264860   7.784   2.053   1.992  0.6787  0.7785 -0.0908
19590SOL     OW64861  10.505   0.577   7.605  0.6688 -0.1708 -0.4550
19590SOL    HW164862  10.533   0.520   7.677  1.4130  1.6163  0.7546
19590SOL    HW264863  10.585   0.621   7.577 -0.2647  2.7748  1.0059
19591SOL     OW64864   1.210   1.453   3.801 -0.0766 -0.0006  0.0231
19591SOL    HW164865   1.143   1.403   3.848 -0.1099  1.7794  1.9927
19591SOL    HW264866   1.161   1.497   3.731 -0.0967 -2.3105 -1.5542
19592SOL     OW64867   7.695   6.696   2.609 -0.0517 -0.3537 -0.3189
19592SOL    HW164868   7.731   6.720   2.694 -0.0901  0.3366 -0.4910
19592SOL    HW264869   7.601   6.691   2.623 -0.1445  0.6029 -0.5027
19593SOL     OW64870   7.723   4.664   0.892  0.2142  0.0067  0.2560
19593SOL    HW164871   7.793   4.624   0.840 -2.2276 -2.0910 -1.7076
19593SOL    HW264872   7.661   4.696   0.826 -2.6188 -1.9591  1.7693
19594SOL     OW64873   3.817   8.720   1.345 -0.0526 -0.4617 -0.0336
19594SOL    HW164874   3.799   8.725   1.439  1.0609 -1.5427  0.2706
19594SOL    HW264875   3.783   8.634   1.319 -1.1716  0.2096 -0.8248
19595SOL     OW64876   0.205   9.067   6.720 -0.5992  0.0036  0.1207
19595SOL    HW164877   0.235   9.007   6.788  0.6607 -0.1841 -0.5754
19595SOL    HW264878   0.276   9.131   6.711 -0.4299 -0.3722 -1.4824
19596SOL     OW64879   5.734   6.668   9.490 -0.3191 -0.0552  0.5007
19596SOL    HW164880   5.765   6.625   9.411  1.3100 -0.5443  1.3664
19596SOL    HW264881   5.780   6.625   9.562  1.0450  2.7139  1.4699
19597SOL     OW64882   3.553   3.736   6.750  0.0443 -0.1214 -0.1741
19597SOL    HW164883   3.607   3.712   6.825  0.0555 -0.7785 -0.3837
19597SOL    HW264884   3.595   3.693   6.675 -0.5253 -0.2978 -0.3987
19598SOL     OW64885   3.978   8.018   2.255 -0.2842  0.5749 -0.2421
19598SOL    HW164886   3.932   8.080   2.198  0.9240 -0.7525 -2.8902
19598SOL    HW264887   4.070   8.028   2.232  0.0322 -1.5051 -0.1089
19599SOL     OW64888   7.657   6.738   3.015  0.4487  0.6821 -0.6880
19599SOL    HW164889   7.635   6.830   3.031  0.3901  0.2443  2.3149
19599SOL    HW264890   7.572   6.694   3.011  0.4835  0.6880 -1.9521
19600SOL     OW64891   1.368   1.926  10.808 -1.1224 -0.1181  0.9855
19600SOL    HW164892   1.403   2.006  10.847 -0.0447 -1.1316  2.1817
19600SOL    HW264893   1.443   1.885  10.765 -1.9370  0.1206 -0.7496
19601SOL     OW64894   9.480   0.523  10.005  0.4767 -0.6791  0.0217
19601SOL    HW164895   9.400   0.574  10.020  1.1151 -0.4869  3.7760
19601SOL    HW264896   9.549   0.589   9.994  0.5790 -0.8063 -0.0968
19602SOL     OW64897   7.285   5.304   8.703 -0.0530  0.2339 -0.2746
19602SOL    HW164898   7.371   5.262   8.695  0.1638  0.9153 -1.9633
19602SOL    HW264899   7.295   5.366   8.775  0.7581  0.0467 -0.2113
19603SOL     OW64900   8.592   7.267   1.667  0.1129 -0.3439  0.0276
19603SOL    HW164901   8.586   7.355   1.629  1.5707 -0.2772 -0.1022
19603SOL    HW264902   8.563   7.278   1.757  2.8808  0.9009  0.8768
19604SOL     OW64903   2.461   5.176  10.862  0.2091 -0.6419 -0.0103
19604SOL    HW164904   2.457   5.170  10.958  0.6778 -0.5343  0.0158
19604SOL    HW264905   2.504   5.259  10.845 -0.7002 -0.2305 -0.3303
19605SOL     OW64906   6.358   4.508   9.604 -0.0698 -0.2528  0.1438
19605SOL    HW164907   6.324   4.541   9.521  0.9475  0.8516  0.1459
19605SOL    HW264908   6.330   4.416   9.607  0.1642 -0.4075 -1.5719
19606SOL     OW64909   8.510  10.761   2.753 -0.0491 -0.4957  0.0009
19606SOL    HW164910   8.554  10.682   2.784  1.6057  0.8072  1.1669
19606SOL    HW264911   8.463  10.793   2.829 -0.8121 -0.4122 -0.4989
19607SOL     OW64912   3.645   4.550   4.833 -0.0448 -0.0426  0.1679
19607SOL    HW164913   3.607   4.464   4.850 -0.9737  0.2425 -0.3936
19607SOL    HW264914   3.630   4.599   4.914 -0.3021 -0.1299  0.1734
19608SOL     OW64915   4.093   9.260   1.446  0.6901  0.3284 -0.0286
19608SOL    HW164916   4.099   9.221   1.359 -1.5246 -0.0191 -0.0787
19608SOL    HW264917   4.120   9.190   1.506 -0.6747 -0.4608 -0.2898
19609SOL     OW64918   0.891   3.300   4.934  1.0780 -0.3270  0.2700
19609SOL    HW164919   0.872   3.222   4.985 -0.0546  0.3259  0.9013
19609SOL    HW264920   0.972   3.280   4.887  0.5434 -2.0594  0.0245
19610SOL     OW64921   0.467  10.490   9.159  0.2657  0.7792  0.0839
19610SOL    HW164922   0.563  10.489   9.162  0.2813 -2.0638  1.1479
19610SOL    HW264923   0.442  10.399   9.149 -2.3861  1.3409  0.7916
19611SOL     OW64924   3.644   4.180   3.928 -0.9954 -0.0813  0.5476
19611SOL    HW164925   3.723   4.141   3.967 -0.5398  0.8746  0.6071
19611SOL    HW264926   3.610   4.111   3.871 -1.4998 -1.4082  2.3577
19612SOL     OW64927   0.414   4.733   1.581 -0.3113 -0.4284  0.2436
19612SOL    HW164928   0.380   4.803   1.637  1.8918 -0.3179  1.5693
19612SOL    HW264929   0.509   4.735   1.596  0.0476 -2.2081 -1.4518
19613SOL     OW64930   3.143   8.134   3.177  0.2688 -0.3982  0.0076
19613SOL    HW164931   3.056   8.166   3.151 -0.0210 -1.1480  0.0392
19613SOL    HW264932   3.131   8.100   3.265  0.3199 -1.5708 -0.4207
19614SOL     OW64933   2.493   0.586   0.022  0.4340  0.4124  0.2174
19614SOL    HW164934   2.562   0.535   0.065  0.1251  1.9420  2.7312
19614SOL    HW264935   2.426   0.596   0.089 -1.2582  0.8532 -1.4581
19615SOL     OW64936   6.045   9.221  10.167 -0.1726  0.0289  0.0834
19615SOL    HW164937   6.077   9.168  10.240 -0.3509 -0.3713 -0.1245
19615SOL    HW264938   5.954   9.194  10.155 -0.8387  1.6545  1.1163
19616SOL     OW64939  10.823  10.299  10.488  0.3591  0.0767  0.1595
19616SOL    HW164940  10.899  10.346  10.455  1.5672 -1.8843 -0.0069
19616SOL    HW264941  10.808  10.229  10.425 -2.1707  0.8906 -0.2719
19617SOL     OW64942   2.550   6.554   9.572  0.2512 -0.1353 -0.3459
19617SOL    HW164943   2.455   6.557   9.571  0.2226 -0.9401 -0.5835
19617SOL    HW264944   2.572   6.495   9.645  0.6258  1.4452  0.8950
19618SOL     OW64945   0.464   2.969   5.171  0.6437  0.8229 -0.5550
19618SOL    HW164946   0.438   2.883   5.137 -2.2470  2.8691 -4.1896
19618SOL    HW264947   0.403   2.986   5.243  1.5630 -0.2471  0.5349
19619SOL     OW64948   7.091  10.337   7.848 -0.3693 -0.2068 -0.1798
19619SOL    HW164949   7.065  10.279   7.920 -0.0231  0.4758  0.5074
19619SOL    HW264950   7.143  10.281   7.791  0.1337 -0.5360  0.5799
19620SOL     OW64951   6.489  10.159   9.767  0.0335  0.2250  0.3235
19620SOL    HW164952   6.494  10.226   9.836 -1.6242  0.2892  0.4443
19620SOL    HW264953   6.448  10.084   9.810  0.8074 -0.4572 -0.1113
19621SOL     OW64954   5.110   8.580   3.221 -0.2713  0.2523  0.0020
19621SOL    HW164955   5.031   8.541   3.259 -1.1269  1.7891 -0.1165
19621SOL    HW264956   5.177   8.512   3.229 -0.6503  0.1003  3.3383
19622SOL     OW64957   1.843   0.797   6.675 -0.0667 -0.3773  0.3715
19622SOL    HW164958   1.807   0.853   6.744 -0.4713 -1.0252  0.7016
19622SOL    HW264959   1.868   0.857   6.605 -0.4991  0.2062  0.7133
19623SOL     OW64960   0.775   5.360   9.494 -0.6333 -0.3485  0.4180
19623SOL    HW164961   0.809   5.286   9.444 -1.6815  0.7409 -2.0851
19623SOL    HW264962   0.850   5.419   9.504 -0.5110 -0.3492 -0.4018
19624SOL     OW64963   6.428   2.746   7.174 -0.2997  0.2269 -0.1667
19624SOL    HW164964   6.362   2.800   7.130 -0.1030  2.5837  2.1345
19624SOL    HW264965   6.512   2.782   7.145  0.0066 -1.6193 -1.7436
19625SOL     OW64966   2.550  10.856   7.246 -0.3167  0.6686  0.0288
19625SOL    HW164967   2.535  10.775   7.295  0.7851 -0.3776 -1.2632
19625SOL    HW264968   2.467  10.870   7.199 -0.7095  0.6127  0.6886
19626SOL     OW64969   8.417   8.973   4.884  0.6012 -0.1884 -0.2626
19626SOL    HW164970   8.481   8.906   4.859  0.2191 -0.9584  0.7337
19626SOL    HW264971   8.468   9.039   4.930  0.7816 -0.5036 -0.0018
19627SOL     OW64972   5.329   8.830   9.419  0.2494  0.1691 -0.1137
19627SOL    HW164973   5.315   8.738   9.444  1.5068 -0.0242 -0.0498
19627SOL    HW264974   5.396   8.861   9.479  0.4235  0.8967 -0.6747
19628SOL     OW64975   8.634   4.888   7.643  0.0475 -0.1885  0.4167
19628SOL    HW164976   8.715   4.922   7.682  0.6029 -1.8287  0.7794
19628SOL    HW264977   8.582   4.858   7.718 -0.1062 -0.7737  0.0839
19629SOL     OW64978   7.882   9.334   0.769  0.1040  0.3834 -0.2211
19629SOL    HW164979   7.831   9.253   0.772 -0.0137  0.4391 -0.6472
19629SOL    HW264980   7.968   9.306   0.737 -0.4413  0.6641 -2.0262
19630SOL     OW64981   4.247  10.888   0.508  0.0328  0.1045  0.0793
19630SOL    HW164982   4.336  10.923   0.505 -0.0213  0.2430  0.0854
19630SOL    HW264983   4.257  10.795   0.490  0.2326  0.0328  0.5613
19631SOL     OW64984   2.611   2.492   1.813  0.2445  0.1162 -0.3188
19631SOL    HW164985   2.581   2.581   1.800  0.9046  0.3721 -0.1317
19631SOL    HW264986   2.554   2.439   1.757 -0.4585  0.5920 -0.0750
19632SOL     OW64987   9.532   4.676   7.111  0.1738  0.1019  0.3540
19632SOL    HW164988   9.622   4.682   7.143  0.6293 -0.2647 -0.8049
19632SOL    HW264989   9.510   4.583   7.121  0.3141 -0.0123 -0.3524
19633SOL     OW64990   3.350   3.607   3.528  0.0728  0.6606  0.6369
19633SOL    HW164991   3.282   3.651   3.478 -0.2910  2.6628  2.6983
19633SOL    HW264992   3.430   3.621   3.478 -0.4320  1.6917  0.0833
19634SOL     OW64993   0.890   8.506   1.250  0.4275 -0.4317  0.8455
19634SOL    HW164994   0.859   8.596   1.261  1.8195  0.5223 -2.0365
19634SOL    HW264995   0.980   8.508   1.282  1.5303  0.1311 -1.9912
19635SOL     OW64996   2.173   9.288   0.817 -0.3308 -0.1593  0.1210
19635SOL    HW164997   2.081   9.313   0.827  0.2361  2.0161  0.2598
19635SOL    HW264998   2.216   9.319   0.896  0.8008  0.2893 -0.6316
19636SOL     OW64999   8.026  10.389   5.595 -0.4614 -0.2401  0.0393
19636SOL    HW165000   8.007  10.483   5.590  0.6748 -0.0588 -2.0785
19636SOL    HW265001   8.121  10.384   5.586 -0.5461 -1.6148 -0.2412
19637SOL     OW65002   0.267   4.851   8.154 -0.1627 -0.8242  0.0097
19637SOL    HW165003   0.331   4.792   8.113 -0.2188 -1.0924  0.3042
19637SOL    HW265004   0.269   4.930   8.100  0.1828 -0.9555 -0.1711
19638SOL     OW65005   7.395   9.521   0.065  0.2047 -0.1295  0.0072
19638SOL    HW165006   7.468   9.464   0.038  0.9585  0.6712  0.3152
19638SOL    HW265007   7.429   9.570   0.140  0.1368  1.8485 -1.1873
19639SOL     OW65008   8.885  10.853   4.676  0.4116 -0.2740 -0.2625
19639SOL    HW165009   8.915  10.943   4.669  0.4537  0.0877  3.1689
19639SOL    HW265010   8.797  10.854   4.637 -0.1957  1.6429  1.0272
19640SOL     OW65011   6.533   7.444   0.679  0.5165  0.0330 -0.7621
19640SOL    HW165012   6.514   7.375   0.742 -0.5208  0.9705 -0.0198
19640SOL    HW265013   6.450   7.457   0.632  0.7335  0.6898 -0.9694
19641SOL     OW65014   9.139   2.292   5.611 -0.0726 -0.2902 -0.2690
19641SOL    HW165015   9.178   2.262   5.694 -0.2800 -0.1457 -0.1179
19641SOL    HW265016   9.159   2.222   5.549 -0.7219 -0.8478  0.1242
19642SOL     OW65017   1.599   7.415   3.764  0.0256 -0.4938  0.1622
19642SOL    HW165018   1.693   7.430   3.757  0.0882 -1.2512 -1.0313
19642SOL    HW265019   1.560   7.476   3.701 -0.2166 -0.6928  0.1164
19643SOL     OW65020   4.319   2.954  10.890 -0.2995 -0.0571 -0.1259
19643SOL    HW165021   4.381   2.971  10.820 -1.0041  2.1813 -0.2895
19643SOL    HW265022   4.234   2.984  10.855 -1.2183 -1.6522  0.6232
19644SOL     OW65023   9.979   0.258   5.180 -0.7040  0.6451  0.2966
19644SOL    HW165024   9.996   0.170   5.146 -0.5933  1.1984 -1.1625
19644SOL    HW265025   9.884   0.267   5.175 -0.9167 -0.0562  2.2562
19645SOL     OW65026   5.852   1.486   9.854  0.1010  0.2242 -0.1035
19645SOL    HW165027   5.840   1.497   9.760 -1.6483 -0.1371  0.0559
19645SOL    HW265028   5.868   1.393   9.865  0.4912  0.2958 -0.0539
19646SOL     OW65029   0.645   4.136   6.413 -0.3807  0.4021  0.5168
19646SOL    HW165030   0.730   4.162   6.448 -0.0486  0.1827 -0.1221
19646SOL    HW265031   0.641   4.041   6.426 -0.4698  0.3919  0.4122
19647SOL     OW65032   1.398   8.026   8.535 -0.2113 -0.1236 -0.2183
19647SOL    HW165033   1.419   8.028   8.628  0.5270  0.3933 -0.3945
19647SOL    HW265034   1.417   7.936   8.508  1.6697  0.2716 -0.3366
19648SOL     OW65035   1.732   8.811   8.262  0.0651  0.2630 -0.6027
19648SOL    HW165036   1.638   8.815   8.242 -0.4269 -2.8657  0.4816
19648SOL    HW265037   1.768   8.752   8.196  0.5892 -1.1412  0.8828
19649SOL     OW65038   2.098   5.047   5.397  0.2581 -0.1051  0.2608
19649SOL    HW165039   2.008   5.047   5.431  0.1441  2.6457  0.1581
19649SOL    HW265040   2.112   4.957   5.366 -2.2613 -0.7353  0.7399
19650SOL     OW65041   9.564   3.710   8.853 -0.2519 -0.5869 -0.3177
19650SOL    HW165042   9.547   3.687   8.944  2.4340  0.3219  0.5178
19650SOL    HW265043   9.599   3.629   8.814  1.2606 -0.2574  0.2902
19651SOL     OW65044   1.358   3.028   2.738  0.1022 -0.2195  0.6376
19651SOL    HW165045   1.411   2.970   2.685 -1.8596 -3.0521  1.5346
19651SOL    HW265046   1.413   3.050   2.813  0.9115 -0.8543  0.2313
19652SOL     OW65047   6.261  10.346   5.950 -0.2794 -0.3952 -0.1371
19652SOL    HW165048   6.276  10.260   5.988  1.7941  0.1226  0.3149
19652SOL    HW265049   6.192  10.385   6.004  0.8246 -0.6598  1.5027
19653SOL     OW65050   1.021   4.638   5.904 -0.2091 -0.5686 -0.2106
19653SOL    HW165051   1.002   4.730   5.918 -0.9207 -0.9073  1.2481
19653SOL    HW265052   0.944   4.604   5.858 -0.5469 -0.6947  0.4307
19654SOL     OW65053   2.838   5.058   9.291  0.4053  0.3498 -0.2108
19654SOL    HW165054   2.879   5.053   9.204 -0.1575 -0.6086 -0.4383
19654SOL    HW265055   2.852   5.148   9.319 -0.1805  0.9258 -1.6845
19655SOL     OW65056   8.490   6.317   0.318 -0.1709  0.0092  0.6077
19655SOL    HW165057   8.435   6.375   0.371 -0.0796 -0.0532  0.7721
19655SOL    HW265058   8.491   6.357   0.231  0.7683  0.8391  0.9778
19656SOL     OW65059   5.308   7.455   1.671  0.0372 -0.3770  0.6674
19656SOL    HW165060   5.293   7.412   1.587  0.3154  1.2820 -0.2799
19656SOL    HW265061   5.333   7.384   1.730 -2.8021 -1.9964  0.0993
19657SOL     OW65062   5.577   0.633  10.804  0.5203 -0.1646 -0.3423
19657SOL    HW165063   5.616   0.698  10.863  2.9971  0.0187 -2.0473
19657SOL    HW265064   5.546   0.564  10.863 -0.5418  1.6733  1.3942
19658SOL     OW65065   4.926   8.531   9.860 -0.2060 -0.2318  0.5403
19658SOL    HW165066   4.970   8.578   9.931  0.7536  0.8217 -0.6778
19658SOL    HW265067   4.998   8.499   9.805 -0.9172 -0.0666 -0.5197
19659SOL     OW65068   0.301   2.516   1.786  0.1082  1.1293  0.5217
19659SOL    HW165069   0.361   2.480   1.851  0.7370  1.4862  0.1396
19659SOL    HW265070   0.337   2.602   1.765 -0.2734  1.1510 -0.0581
19660SOL     OW65071   4.077   1.238   5.399  0.4472  0.5239 -0.0725
19660SOL    HW165072   3.999   1.245   5.344  0.8477  0.3200 -0.6773
19660SOL    HW265073   4.146   1.280   5.348  0.4794  1.8162  0.9847
19661SOL     OW65074   8.157   4.288   7.218 -0.7192 -0.3514  0.0375
19661SOL    HW165075   8.251   4.278   7.205 -0.8595 -0.1062 -1.3279
19661SOL    HW265076   8.143   4.382   7.220 -0.8387 -0.3851  1.1075
19662SOL     OW65077   6.757   4.642   0.894  0.3103  0.3142  0.1427
19662SOL    HW165078   6.819   4.619   0.963 -0.7941  0.4578  1.2023
19662SOL    HW265079   6.736   4.734   0.909  0.8294  0.6444 -1.0177
19663SOL     OW65080   3.956  10.499  10.611 -0.7792  0.7332  0.1288
19663SOL    HW165081   3.940  10.468  10.700 -1.8439  3.6523  1.0910
19663SOL    HW265082   4.051  10.512  10.607 -0.5889 -0.4568  0.4255
19664SOL     OW65083   8.602   3.384   5.386  0.2826 -0.6542  0.3754
19664SOL    HW165084   8.552   3.341   5.455 -1.0278 -1.3041 -0.9091
19664SOL    HW265085   8.544   3.453   5.353  0.7535 -0.5626 -0.2907
19665SOL     OW65086   3.114   4.506   6.776  0.6942 -0.6758  0.1441
19665SOL    HW165087   3.158   4.590   6.792  1.6474 -0.5125 -2.7773
19665SOL    HW265088   3.074   4.484   6.860 -1.4502  3.7331  0.5967
19666SOL     OW65089   4.841   8.011   6.685 -0.0649  0.0588  0.1229
19666SOL    HW165090   4.748   8.034   6.689 -0.4054 -1.3642  0.9853
19666SOL    HW265091   4.886   8.095   6.688 -1.3142  0.7665 -0.1438
19667SOL     OW65092   5.538   4.992   5.191 -0.0399  0.2701 -0.4191
19667SOL    HW165093   5.480   4.947   5.252 -1.8921  2.2603 -0.6143
19667SOL    HW265094   5.571   5.068   5.239  0.5434  0.4481 -1.0788
19668SOL     OW65095   3.149   7.502   5.271 -0.6496 -0.2343 -0.2256
19668SOL    HW165096   3.100   7.520   5.352  0.4399 -1.0359  0.6365
19668SOL    HW265097   3.240   7.522   5.294 -0.3220 -0.5150 -1.2563
19669SOL     OW65098   2.595   6.425   3.244  0.0441  0.5040 -0.3362
19669SOL    HW165099   2.561   6.513   3.229  0.1050  0.6632  0.4430
19669SOL    HW265100   2.566   6.402   3.332  0.3720 -0.0945 -0.3774
19670SOL     OW65101   9.301   2.671   0.584 -0.3707  0.1554 -0.2553
19670SOL    HW165102   9.305   2.721   0.666  0.0242 -0.3097  0.0163
19670SOL    HW265103   9.240   2.600   0.603  1.3558 -1.2114  0.3554
19671SOL     OW65104   0.444   6.682   8.616 -0.2571 -0.4707  0.5089
19671SOL    HW165105   0.503   6.658   8.688  0.2630  1.0298  0.6257
19671SOL    HW265106   0.490   6.652   8.538 -0.1275 -0.7998  0.7065
19672SOL     OW65107   0.959   3.198   3.886 -0.5735  0.0312  0.0596
19672SOL    HW165108   0.961   3.286   3.924 -0.5637  0.1231 -0.1514
19672SOL    HW265109   0.988   3.210   3.795 -1.0906 -0.1105 -0.1295
19673SOL     OW65110   1.288   2.412  10.031 -0.4540  1.0515 -0.6785
19673SOL    HW165111   1.209   2.378  10.075  0.5291  0.8976  1.0754
19673SOL    HW265112   1.288   2.370   9.946 -2.0155  0.6921 -0.5408
19674SOL     OW65113   0.236   9.156   1.128 -0.3052  0.2865  0.1088
19674SOL    HW165114   0.308   9.177   1.187 -0.8769 -0.1701  0.9796
19674SOL    HW265115   0.169   9.117   1.184 -1.1410  0.4878 -0.7266
19675SOL     OW65116   1.004   9.567   7.600  0.2927  0.0242  0.2516
19675SOL    HW165117   1.065   9.638   7.621 -0.9076  1.1612  0.0550
19675SOL    HW265118   0.993   9.520   7.682  0.3427  0.6910  0.6501
19676SOL     OW65119   8.738   7.183   8.040 -0.3371  0.0732  0.1327
19676SOL    HW165120   8.668   7.244   8.016 -0.5599  0.2142  1.1138
19676SOL    HW265121   8.783   7.165   7.957 -1.1185  0.4944 -0.3995
19677SOL     OW65122   5.455   7.680   4.260  0.2692  1.1176  0.2122
19677SOL    HW165123   5.490   7.711   4.176 -0.8356  1.0576 -0.2868
19677SOL    HW265124   5.516   7.714   4.325  1.7775  0.2234 -0.6829
19678SOL     OW65125  10.631   2.394   2.052 -0.2887  0.3478  0.2800
19678SOL    HW165126  10.666   2.373   2.139  1.1739  1.4490 -0.0180
19678SOL    HW265127  10.606   2.309   2.016 -2.0778 -0.0531  2.2022
19679SOL     OW65128   8.719   1.961   2.504 -0.1615 -0.9092  0.2598
19679SOL    HW165129   8.791   1.946   2.565  0.8414 -2.2124 -1.1935
19679SOL    HW265130   8.643   1.923   2.548 -0.0664  0.6373  1.8843
19680SOL     OW65131   1.139   7.015   1.931 -0.1808 -0.0652 -0.0562
19680SOL    HW165132   1.050   7.042   1.955  0.2376 -0.2828  1.9451
19680SOL    HW265133   1.156   7.060   1.849 -2.6893 -1.2555 -1.3490
19681SOL     OW65134   9.600   9.544   4.525 -0.0836 -0.4932 -0.1199
19681SOL    HW165135   9.685   9.582   4.508  0.0575 -0.4963  0.5416
19681SOL    HW265136   9.562   9.529   4.439  0.2616  0.2252 -0.3996
19682SOL     OW65137   3.148   0.795   0.921  0.1185 -0.0494  0.3555
19682SOL    HW165138   3.135   0.798   0.826 -0.6917  2.1326  0.4830
19682SOL    HW265139   3.062   0.774   0.957 -0.1742  1.5624  0.6708
19683SOL     OW65140   5.190   3.920  10.507  0.3235 -0.2517 -0.4748
19683SOL    HW165141   5.145   4.004  10.493  1.0063  0.2971  0.5275
19683SOL    HW265142   5.282   3.944  10.518  0.2803 -0.9273  1.7384
19684SOL     OW65143   5.366  10.620   1.125 -0.0342  0.0656  0.4740
19684SOL    HW165144   5.429  10.563   1.170 -0.2212  1.3299  2.4709
19684SOL    HW265145   5.281  10.581   1.144  0.0146 -0.6379 -0.7001
19685SOL     OW65146  10.508   5.442   9.565 -0.1380 -0.1988  0.1246
19685SOL    HW165147  10.502   5.375   9.497 -0.6170 -1.1799  1.0856
19685SOL    HW265148  10.485   5.395   9.646 -1.5188  1.3735  0.6905
19686SOL     OW65149   2.312   3.159   4.227  0.1866 -0.3292  0.2873
19686SOL    HW165150   2.362   3.086   4.189  2.4250  1.2460  0.0037
19686SOL    HW265151   2.334   3.234   4.172 -0.9033  0.8662  1.4246
19687SOL     OW65152   1.233   6.941   4.845  0.1524 -0.1978  0.1811
19687SOL    HW165153   1.256   6.867   4.788  1.7503  0.0898  0.4132
19687SOL    HW265154   1.206   7.010   4.785 -0.5771 -0.7069 -0.0820
19688SOL     OW65155   6.130   7.654   4.197 -0.5909 -0.0593  0.1536
19688SOL    HW165156   6.196   7.630   4.132 -0.0404  0.3513  0.5448
19688SOL    HW265157   6.050   7.612   4.167 -0.5617  0.8222 -1.2587
19689SOL     OW65158   3.595   8.587   1.648  0.0519 -0.0383  0.7899
19689SOL    HW165159   3.610   8.682   1.644  0.8656 -0.2031 -1.8388
19689SOL    HW265160   3.683   8.549   1.654  0.0122 -0.6761 -1.8117
19690SOL     OW65161   3.306   1.383   3.010 -0.6293  0.1440 -0.3791
19690SOL    HW165162   3.223   1.370   3.055 -0.3652  1.3162  0.4853
19690SOL    HW265163   3.346   1.296   3.006 -2.1403 -0.5374 -1.3221
19691SOL     OW65164   4.614   6.812   9.981 -0.3269 -0.0511  0.1947
19691SOL    HW165165   4.616   6.896   9.934 -1.6669  1.2241  2.2533
19691SOL    HW265166   4.661   6.752   9.924 -0.1616  1.8589 -1.8236
19692SOL     OW65167   5.539  10.362   3.005 -0.3255  0.1297 -0.0698
19692SOL    HW165168   5.625  10.382   2.969 -0.6022 -1.5647 -1.8601
19692SOL    HW265169   5.555  10.340   3.097  1.3347 -1.1153 -0.6141
19693SOL     OW65170   7.230  10.345   2.263  0.3037  0.6102 -0.7453
19693SOL    HW165171   7.310  10.295   2.276  0.1140  0.5971  0.5740
19693SOL    HW265172   7.172  10.315   2.334 -0.6103  1.1202 -1.2578
19694SOL     OW65173   9.108   1.627   6.761 -0.2524  0.5116 -0.1098
19694SOL    HW165174   9.074   1.542   6.788  0.0082  0.9893  1.9227
19694SOL    HW265175   9.065   1.690   6.819  0.9540  1.5680 -0.2971
19695SOL     OW65176   2.483   1.228   7.636 -0.2467 -0.5911  0.0075
19695SOL    HW165177   2.426   1.154   7.654 -0.4555 -0.5441 -0.4451
19695SOL    HW265178   2.525   1.247   7.720 -0.3655 -1.0719  0.1785
19696SOL     OW65179   7.761   2.765   6.686 -0.2853 -0.8909 -0.0735
19696SOL    HW165180   7.681   2.799   6.645  0.2149 -1.7269 -1.8594
19696SOL    HW265181   7.759   2.800   6.775 -2.1607 -0.1297 -0.3597
19697SOL     OW65182   4.939   6.103   1.859  0.0070 -0.2986  0.4163
19697SOL    HW165183   4.885   6.056   1.795  0.7803  0.8796 -1.1704
19697SOL    HW265184   4.876   6.133   1.925 -1.1721  0.2752 -0.9036
19698SOL     OW65185   1.700   3.448   7.841  0.4214  0.1302  0.1421
19698SOL    HW165186   1.614   3.435   7.800 -0.5270  1.3697  1.6017
19698SOL    HW265187   1.730   3.360   7.863  0.6658 -0.5250 -2.4872
19699SOL     OW65188   2.853   8.646   8.941  0.9246 -0.0533  0.3722
19699SOL    HW165189   2.886   8.575   8.887 -0.9620  0.4643 -1.6021
19699SOL    HW265190   2.920   8.714   8.933  0.5925  0.1221 -1.6606
19700SOL     OW65191  10.675   1.264   6.364  0.7734  0.8209  0.3815
19700SOL    HW165192  10.660   1.176   6.331  1.3948  1.9042 -3.2499
19700SOL    HW265193  10.598   1.283   6.418 -0.2704 -1.2800 -0.2488
19701SOL     OW65194   5.747   5.242  10.679  0.4603  0.5368  0.0294
19701SOL    HW165195   5.686   5.194  10.624  0.7643  0.9192 -0.6494
19701SOL    HW265196   5.692   5.289  10.741  0.1534 -0.7313  0.7705
19702SOL     OW65197   8.884   8.727   8.538  0.5124 -0.1061  0.4087
19702SOL    HW165198   8.796   8.763   8.549  0.4973 -0.0735  0.2012
19702SOL    HW265199   8.882   8.688   8.450  0.7964  0.1619  0.2801
19703SOL     OW65200   1.156   3.515   5.358  0.8659  0.1987  0.4414
19703SOL    HW165201   1.086   3.571   5.392  1.0151  0.1832  0.7755
19703SOL    HW265202   1.186   3.560   5.279  0.4512  0.1825  0.2690
19704SOL     OW65203   9.585   0.578   1.431  0.4939  0.2100  0.6368
19704SOL    HW165204   9.506   0.596   1.482  0.0006  1.9457 -0.6417
19704SOL    HW265205   9.651   0.556   1.497 -0.2543  1.8302  2.0014
19705SOL     OW65206  10.840   9.746   2.424 -0.3672 -0.4977 -0.0513
19705SOL    HW165207  10.802   9.830   2.451 -2.0136 -1.4411  0.6997
19705SOL    HW265208  10.873   9.707   2.505 -0.5900 -1.0496 -0.2222
19706SOL     OW65209   2.148   8.432  10.742 -0.1016  0.7694  0.2730
19706SOL    HW165210   2.150   8.454  10.649 -0.4309  3.2808  0.8120
19706SOL    HW265211   2.059   8.400  10.757 -0.2642  1.0413 -0.1086
19707SOL     OW65212   7.486   6.417   7.456  1.1390 -0.3316 -0.3315
19707SOL    HW165213   7.490   6.472   7.533  0.8317 -0.6411 -0.0934
19707SOL    HW265214   7.578   6.393   7.438  1.0945 -1.3947  0.7607
19708SOL     OW65215   6.236   6.553   7.331  0.2020  0.1461  0.1125
19708SOL    HW165216   6.158   6.536   7.383 -0.0125 -1.1560 -0.5893
19708SOL    HW265217   6.281   6.624   7.377 -1.8286  1.5461  0.0342
19709SOL     OW65218   2.920   4.242   3.743 -0.0132  0.0808  0.0469
19709SOL    HW165219   3.002   4.246   3.693  1.1750  0.6764  1.9548
19709SOL    HW265220   2.869   4.317   3.711 -0.1463 -0.6679 -1.6197
19710SOL     OW65221   7.964   3.467   0.880  0.1811  0.0166 -0.1845
19710SOL    HW165222   7.970   3.510   0.966  0.8516  1.8018 -1.0766
19710SOL    HW265223   8.046   3.417   0.873  0.0743 -0.2273  0.2496
19711SOL     OW65224   8.025   2.673   5.779 -0.0570 -0.1248 -0.3596
19711SOL    HW165225   7.971   2.615   5.833 -0.4074  0.5031 -0.0225
19711SOL    HW265226   7.975   2.683   5.698  0.9181 -1.8306 -1.2090
19712SOL     OW65227   5.699   3.752   6.120  0.4192 -0.4214  0.0786
19712SOL    HW165228   5.645   3.761   6.199 -0.1154  1.0841 -0.4245
19712SOL    HW265229   5.659   3.678   6.073 -1.0906  0.4994 -0.1569
19713SOL     OW65230   3.867   7.598   3.248  0.7920 -0.3782  0.4085
19713SOL    HW165231   3.904   7.607   3.160 -0.3140  0.6096  0.0145
19713SOL    HW265232   3.889   7.681   3.291  1.4749 -0.9261  1.1322
19714SOL     OW65233   5.446   0.859   6.013  0.3218 -0.1086 -0.2806
19714SOL    HW165234   5.493   0.939   6.038  1.6820  0.0813 -3.0257
19714SOL    HW265235   5.357   0.874   6.043  1.0358  1.4498  1.2666
19715SOL     OW65236   2.840   2.507   6.505  0.3286 -0.1923  0.1823
19715SOL    HW165237   2.849   2.411   6.510 -0.2612 -0.2697 -0.1420
19715SOL    HW265238   2.781   2.529   6.577  0.4720 -0.0707  0.2631
19716SOL     OW65239   2.779   0.438   9.043 -0.2965  0.6196 -0.2352
19716SOL    HW165240   2.713   0.438   8.974  0.6828  1.3767 -1.2128
19716SOL    HW265241   2.826   0.355   9.030 -0.1357  0.7450 -0.4645
19717SOL     OW65242   1.743   2.602   7.045  0.3239 -0.1791  0.6221
19717SOL    HW165243   1.740   2.515   7.084  0.8366 -0.6834 -0.4088
19717SOL    HW265244   1.832   2.610   7.011  0.4026  0.9111  1.0403
19718SOL     OW65245   4.034   2.581   2.528 -0.3231 -0.0181  0.1372
19718SOL    HW165246   3.948   2.600   2.565 -0.5274  0.1535 -0.4099
19718SOL    HW265247   4.053   2.492   2.557 -0.6161 -0.0009  0.3905
19719SOL     OW65248   0.583   2.498   6.991  0.2986 -0.1767 -0.0327
19719SOL    HW165249   0.572   2.565   6.924 -2.1861  0.9239  1.3445
19719SOL    HW265250   0.546   2.419   6.951 -0.6624  0.3383 -0.2103
19720SOL     OW65251   1.074   8.721   5.329  0.3403  0.4544 -0.4932
19720SOL    HW165252   1.068   8.788   5.261  2.2198 -0.8039 -2.0092
19720SOL    HW265253   1.147   8.749   5.384  1.0017 -0.2066 -1.0135
19721SOL     OW65254   2.569   7.329   4.047  0.3090  0.4358  0.0314
19721SOL    HW165255   2.627   7.349   3.973 -1.1520  3.2784 -0.4945
19721SOL    HW265256   2.627   7.328   4.123  1.5386 -0.4825 -0.8782
19722SOL     OW65257   4.703   2.242   5.544 -0.6644  0.1811 -0.0371
19722SOL    HW165258   4.648   2.174   5.582  0.6772  0.1102  1.9530
19722SOL    HW265259   4.793   2.211   5.556 -0.0897  1.3068 -1.1126
19723SOL     OW65260   3.302   1.555   7.257  0.3821  0.1447  0.3823
19723SOL    HW165261   3.222   1.566   7.309 -0.3329  1.5071 -0.9447
19723SOL    HW265262   3.361   1.507   7.315 -0.3733  1.5766  2.4627
19724SOL     OW65263   4.881   1.274   4.066  0.5174  0.2676 -0.0466
19724SOL    HW165264   4.786   1.281   4.052  0.8266  2.1165 -1.4521
19724SOL    HW265265   4.917   1.357   4.035  2.5849 -0.2574  0.7811
19725SOL     OW65266  10.147   4.068   6.769  0.1695  0.3325 -0.1123
19725SOL    HW165267  10.083   4.005   6.805 -0.7700  2.0589  1.3995
19725SOL    HW265268  10.226   4.053   6.821  0.2855 -0.2590 -0.4435
19726SOL     OW65269  10.908   8.693   5.234 -0.6412 -0.0246 -0.0826
19726SOL    HW165270  10.859   8.712   5.314 -2.3648 -0.9026 -0.8847
19726SOL    HW265271  10.884   8.763   5.173 -1.2193 -0.6631 -0.6051
19727SOL     OW65272   5.635   6.736   0.262 -0.1376 -0.1038  0.6329
19727SOL    HW165273   5.672   6.789   0.190 -0.3167 -0.0061  0.6125
19727SOL    HW265274   5.692   6.659   0.266 -1.4666 -1.2496 -1.1536
19728SOL     OW65275   9.612   0.636   7.273  0.3328 -0.1378  0.0998
19728SOL    HW165276   9.530   0.587   7.268 -0.0121  0.4846 -0.5317
19728SOL    HW265277   9.588   0.718   7.315  0.3490  0.5786 -1.2194
19729SOL     OW65278   2.244   8.067   1.497  0.2236  0.7295  0.3588
19729SOL    HW165279   2.175   8.131   1.514 -0.0230  0.2768  1.1500
19729SOL    HW265280   2.202   7.982   1.513  0.3648  0.3197 -1.2850
19730SOL     OW65281   4.364   5.436   6.219  0.4478 -0.2100  0.7589
19730SOL    HW165282   4.281   5.394   6.239  0.3861 -0.1973  0.5400
19730SOL    HW265283   4.344   5.530   6.220  0.1388 -0.2376 -0.6102
19731SOL     OW65284   3.049  10.268   7.133  0.5714  0.2192  0.5397
19731SOL    HW165285   3.106  10.230   7.067 -0.0955 -0.7042  0.4740
19731SOL    HW265286   2.960  10.242   7.106 -0.0500  2.7588 -0.1355
19732SOL     OW65287   4.187   4.641   3.225 -0.4301  0.2392  0.6683
19732SOL    HW165288   4.096   4.621   3.248 -0.6244  1.0084  0.5745
19732SOL    HW265289   4.225   4.555   3.206 -1.3963 -0.0146 -0.2482
19733SOL     OW65290   0.050   6.851   0.064  0.6247 -0.2124 -0.3028
19733SOL    HW165291   0.012   6.863   0.151  1.8596 -0.6929  0.3259
19733SOL    HW265292  -0.001   6.908   0.007  1.3433  2.0184  1.1633
19734SOL     OW65293   3.059   3.867   3.609 -0.2352  0.4535  0.1452
19734SOL    HW165294   3.135   3.813   3.589  1.2128  3.0642 -2.0361
19734SOL    HW265295   3.094   3.942   3.657 -1.6072  1.1119  0.1786
19735SOL     OW65296   9.364   7.286   4.922  0.5273  0.3643 -0.5130
19735SOL    HW165297   9.400   7.373   4.903  0.3540  0.9835  1.7489
19735SOL    HW265298   9.297   7.302   4.988  1.6932 -1.6460  1.2734
19736SOL     OW65299   2.685   1.807  10.895 -0.3941 -0.3406 -0.5879
19736SOL    HW165300   2.739   1.853  10.960 -1.4389 -0.7218  0.5989
19736SOL    HW265301   2.673   1.720  10.933 -1.2769 -0.4736 -1.1590
19737SOL     OW65302   2.063   9.013   4.022 -0.4004  0.3441  0.0840
19737SOL    HW165303   1.985   8.963   4.047 -0.1114  0.3551  1.0517
19737SOL    HW265304   2.054   9.097   4.068  0.7236 -0.0778  1.1353
19738SOL     OW65305  10.403   7.979   2.305  0.0548 -0.4848 -0.1520
19738SOL    HW165306  10.324   8.006   2.258 -1.3084 -1.6616  1.3247
19738SOL    HW265307  10.401   7.884   2.301  1.2264 -0.5343  0.2229
19739SOL     OW65308   7.158   3.836   1.481 -0.2213  0.1760  0.8509
19739SOL    HW165309   7.126   3.747   1.467  2.9689 -0.9927  0.1928
19739SOL    HW265310   7.081   3.884   1.510 -2.4979 -2.3107 -0.5987
19740SOL     OW65311   6.986   9.427  10.207  0.0277 -0.6561  0.1517
19740SOL    HW165312   6.987   9.458  10.298  0.3282 -0.0498 -0.0483
19740SOL    HW265313   7.040   9.490  10.160 -1.5001  0.0400 -0.7657
19741SOL     OW65314   7.713   7.752   7.466 -0.3227  0.9370  0.5471
19741SOL    HW165315   7.787   7.810   7.446 -1.0372  1.7643  0.2647
19741SOL    HW265316   7.635   7.804   7.448 -0.9993 -0.2740 -0.2048
19742SOL     OW65317   1.632   4.694   4.888  0.9224 -0.7835 -0.2155
19742SOL    HW165318   1.630   4.644   4.970 -2.1832  0.6567  0.7688
19742SOL    HW265319   1.547   4.677   4.848 -0.0279  2.9204 -0.1946
19743SOL     OW65320   1.317  10.527   4.450 -0.7306 -0.1403 -0.5468
19743SOL    HW165321   1.305  10.565   4.363 -0.9041 -1.1115 -0.9659
19743SOL    HW265322   1.349  10.438   4.433 -1.0132 -0.4297  0.3726
19744SOL     OW65323   5.520   1.987   6.702 -0.2923 -0.0930 -0.5460
19744SOL    HW165324   5.479   1.908   6.736 -1.5852  1.0612  0.7680
19744SOL    HW265325   5.582   2.013   6.770 -1.2573  1.0214 -0.0616
19745SOL     OW65326   3.562   2.154   5.056 -0.1196 -0.3804  0.1930
19745SOL    HW165327   3.631   2.205   5.014 -0.3024 -0.6656 -0.4786
19745SOL    HW265328   3.533   2.093   4.988  0.4598 -1.7383  1.1272
19746SOL     OW65329   9.556   0.125   8.663 -0.2047 -0.3060 -0.2987
19746SOL    HW165330   9.481   0.184   8.678  0.5138  0.9598 -1.4550
19746SOL    HW265331   9.528   0.069   8.591 -0.7075 -1.0635  0.4765
19747SOL     OW65332   7.834   2.432   5.355 -0.1091  0.8704  0.0667
19747SOL    HW165333   7.810   2.343   5.332  0.9345  0.6259 -0.1239
19747SOL    HW265334   7.824   2.436   5.450  0.3925  0.3831  0.1386
19748SOL     OW65335   0.278   9.388   0.650  0.2489  0.2367 -0.3905
19748SOL    HW165336   0.367   9.374   0.619  0.9136  0.2889  1.3796
19748SOL    HW265337   0.226   9.321   0.606  1.0990  0.3881 -1.6569
19749SOL     OW65338   0.997   0.417   4.581 -0.3685 -0.1382 -0.7687
19749SOL    HW165339   1.006   0.341   4.639  1.1253  1.9369  1.9155
19749SOL    HW265340   1.080   0.421   4.534 -0.1572  0.2336 -0.3680
19750SOL     OW65341   3.167  10.166   1.702  0.0432  0.4116 -0.1745
19750SOL    HW165342   3.200  10.143   1.789 -1.9751 -0.0961  0.5085
19750SOL    HW265343   3.208  10.251   1.683  1.8183 -0.2367  0.5050
19751SOL     OW65344   1.634   9.984   7.547  0.3708 -0.1038  0.1667
19751SOL    HW165345   1.596   9.917   7.604 -1.0212  0.4616 -0.0744
19751SOL    HW265346   1.561  10.041   7.525  0.8021 -0.4057 -2.3446
19752SOL     OW65347   7.202   8.104   9.084  0.0525 -0.9510  0.4960
19752SOL    HW165348   7.203   8.054   9.002  2.0637 -0.5927  0.2609
19752SOL    HW265349   7.253   8.051   9.145 -0.2410 -0.5356  1.1113
19753SOL     OW65350   2.661   4.092   5.733  0.1142 -0.0051 -0.3232
19753SOL    HW165351   2.726   4.094   5.803 -0.3189  0.2069  0.0746
19753SOL    HW265352   2.688   4.162   5.673 -0.5098  0.9914  0.5339
19754SOL     OW65353   4.507   8.535   1.919 -0.5511 -0.1132  0.0509
19754SOL    HW165354   4.476   8.580   1.998 -0.3022 -0.6089  0.4392
19754SOL    HW265355   4.562   8.600   1.875 -0.8465  0.2315  0.1834
19755SOL     OW65356   8.860   5.911   8.000  0.1468  0.2435  0.1406
19755SOL    HW165357   8.944   5.879   7.969  0.4984 -0.2967  1.5922
19755SOL    HW265358   8.871   6.006   8.007  0.0665  0.3808 -1.2859
19756SOL     OW65359   7.545   0.296   4.812  0.6947 -0.3633 -0.0438
19756SOL    HW165360   7.492   0.230   4.768  0.6239 -0.2026 -0.2001
19756SOL    HW265361   7.505   0.306   4.898 -0.1117  0.4502 -0.5009
19757SOL     OW65362   4.702   7.094   5.586  0.5620  0.6550  0.3817
19757SOL    HW165363   4.607   7.091   5.577  0.2984  1.4216  2.4419
19757SOL    HW265364   4.734   7.110   5.497 -1.0770 -1.5811 -0.7148
19758SOL     OW65365   1.293   9.339   1.413 -0.4643  0.1815  0.0926
19758SOL    HW165366   1.348   9.261   1.418  1.3426  1.3702  0.0552
19758SOL    HW265367   1.212   9.315   1.457  0.1074 -1.6369  0.2391
19759SOL     OW65368   1.487   0.321   9.341  0.3828 -0.3379 -0.3570
19759SOL    HW165369   1.497   0.291   9.251  2.2590  1.0044 -0.6605
19759SOL    HW265370   1.540   0.260   9.392 -0.5546 -1.0062 -0.1772
19760SOL     OW65371   9.221  10.315   3.496  0.1240  0.1413 -0.1040
19760SOL    HW165372   9.223  10.227   3.535 -0.1953 -0.0075 -0.4138
19760SOL    HW265373   9.238  10.374   3.569 -2.0483 -0.0300  0.5963
19761SOL     OW65374   6.083   4.607   5.233 -0.2406 -0.1608 -0.1300
19761SOL    HW165375   6.122   4.591   5.146  0.2939 -0.5041  0.1655
19761SOL    HW265376   6.058   4.520   5.263 -0.9568  0.0236 -0.1779
19762SOL     OW65377   8.151   5.995   3.513 -0.1286 -0.1389 -0.5749
19762SOL    HW165378   8.073   5.956   3.553 -1.0405 -0.1804 -2.3103
19762SOL    HW265379   8.186   5.926   3.457 -0.6230  0.8211 -2.1433
19763SOL     OW65380   3.822   2.880   1.657  0.8029 -0.4081 -0.2729
19763SOL    HW165381   3.857   2.799   1.621  0.2710 -0.8948  0.2728
19763SOL    HW265382   3.806   2.936   1.581  1.9727 -0.4804 -0.5884
19764SOL     OW65383   8.486   8.491   0.261 -0.3557  0.5524 -0.4378
19764SOL    HW165384   8.410   8.447   0.222 -1.3884  1.4198  0.5288
19764SOL    HW265385   8.496   8.571   0.210 -0.1530  0.4885 -0.4989
19765SOL     OW65386   0.611   1.113   3.035  0.1252  0.3335 -0.1858
19765SOL    HW165387   0.546   1.174   3.071  0.4294 -0.2643  1.4922
19765SOL    HW265388   0.607   1.037   3.093  2.4825  0.3857  0.1437
19766SOL     OW65389   2.376   2.032   6.272  0.0736 -0.1846 -0.0925
19766SOL    HW165390   2.315   2.101   6.298  0.6337 -0.2573  1.5938
19766SOL    HW265391   2.365   2.023   6.178 -1.4062  0.8578 -0.0511
19767SOL     OW65392   3.964   6.852   7.634  0.3511  0.0208 -0.6350
19767SOL    HW165393   4.011   6.908   7.696 -0.2354  0.3602 -0.4937
19767SOL    HW265394   3.873   6.882   7.638 -0.0454 -1.1879 -0.2881
19768SOL     OW65395   5.669   4.146   2.185 -0.1148  0.3963 -0.0474
19768SOL    HW165396   5.602   4.172   2.122  0.0442 -0.5060 -0.6211
19768SOL    HW265397   5.714   4.227   2.208 -1.1946  0.9652  0.1123
19769SOL     OW65398   1.250   0.051   2.227  0.3548 -0.3171  0.5545
19769SOL    HW165399   1.306   0.105   2.171  1.3576  0.6806  2.4083
19769SOL    HW265400   1.178   0.109   2.253  0.9562 -0.1132  1.8439
19770SOL     OW65401   9.133   5.822   7.004  0.0524  0.1409 -0.1495
19770SOL    HW165402   9.205   5.869   6.962 -1.4074 -0.2650 -3.4434
19770SOL    HW265403   9.158   5.730   6.998 -0.1809  0.0805 -0.2122
19771SOL     OW65404   5.544   2.936   5.004  0.3470  0.2305 -0.6748
19771SOL    HW165405   5.523   2.865   4.943 -0.2870  0.7224 -1.0372
19771SOL    HW265406   5.461   2.953   5.050  0.9288 -0.4738  0.6926
19772SOL     OW65407  10.595   8.623   6.518  0.3419 -1.1241  0.0986
19772SOL    HW165408  10.521   8.621   6.457  0.0917 -0.2042  0.3558
19772SOL    HW265409  10.554   8.625   6.605  0.6575 -0.5502  0.2424
19773SOL     OW65410   3.161   3.539   1.077 -0.0813  0.0012  0.5228
19773SOL    HW165411   3.110   3.460   1.095  1.7905 -1.3987 -0.0493
19773SOL    HW265412   3.226   3.542   1.147  0.4936  0.4757 -0.0239
19774SOL     OW65413   5.295   4.093   9.814 -0.5421 -0.4051  0.2603
19774SOL    HW165414   5.302   4.188   9.821 -0.3031 -0.4443  0.5742
19774SOL    HW265415   5.263   4.065   9.900 -0.4267 -0.6254  0.2324
19775SOL     OW65416   5.091   3.834   6.270 -0.5603  0.1729 -0.6069
19775SOL    HW165417   5.027   3.899   6.300  0.1574  0.7448 -0.2961
19775SOL    HW265418   5.038   3.767   6.226 -1.1472  1.9605 -2.7717
19776SOL     OW65419   4.533   4.271   4.494  0.1538 -0.3503 -0.6566
19776SOL    HW165420   4.474   4.338   4.459 -0.5793 -0.2072  0.7429
19776SOL    HW265421   4.494   4.188   4.467 -0.8331 -0.2630  0.3874
19777SOL     OW65422  10.539   9.217   2.976  0.1485  0.5664  0.1229
19777SOL    HW165423  10.450   9.206   2.942  0.5956 -2.6647 -0.3106
19777SOL    HW265424  10.533   9.193   3.068  0.1950  2.8002  0.7761
19778SOL     OW65425   1.909  10.004   2.670  0.3288  0.1251  0.0230
19778SOL    HW165426   1.850  10.009   2.746  1.5414  0.8633  0.9469
19778SOL    HW265427   1.926   9.910   2.660 -1.0033 -0.1041 -0.2759
19779SOL     OW65428   8.922   2.274   8.170  0.2307 -0.2245 -0.0674
19779SOL    HW165429   8.904   2.368   8.169 -1.9702 -0.5645 -1.8976
19779SOL    HW265430   8.966   2.258   8.253 -1.3475  2.0887  1.3166
19780SOL     OW65431   7.008   4.205   2.895 -0.0052 -0.2155  0.3576
19780SOL    HW165432   6.948   4.202   2.820  0.3942  0.1692  0.0224
19780SOL    HW265433   6.997   4.119   2.937  0.4113 -0.7858 -0.6458
19781SOL     OW65434   4.952   0.559   7.053 -0.3976  0.1953 -0.1261
19781SOL    HW165435   4.929   0.649   7.030 -1.2199 -0.0728 -0.3873
19781SOL    HW265436   4.868   0.512   7.055  0.0761 -0.7033 -0.6164
19782SOL     OW65437   2.903   6.135   9.292  0.6029 -0.5191 -0.2700
19782SOL    HW165438   2.964   6.064   9.271  0.7422 -0.3552 -0.4280
19782SOL    HW265439   2.883   6.123   9.385  0.8871 -0.5675 -0.2148
19783SOL     OW65440   0.452   4.248   7.126  0.4671  0.1826 -0.3655
19783SOL    HW165441   0.422   4.292   7.047  0.0179  0.3936 -0.0809
19783SOL    HW265442   0.374   4.239   7.180  0.7886  0.1276  0.1006
19784SOL     OW65443   8.343   2.279   4.299  0.2020 -0.1629  0.1815
19784SOL    HW165444   8.340   2.188   4.328  0.3050  0.1681  1.2749
19784SOL    HW265445   8.393   2.276   4.217 -0.4404 -1.1776 -0.1926
19785SOL     OW65446   7.579  10.313   9.819  0.0277  0.0283  0.3056
19785SOL    HW165447   7.604  10.222   9.829 -0.0074 -0.1475 -0.9600
19785SOL    HW265448   7.516  10.329   9.889 -0.5712 -1.1650  0.0705
19786SOL     OW65449   2.715   4.897   6.170  0.2369 -0.0209 -0.2710
19786SOL    HW165450   2.777   4.970   6.166  1.1627 -0.7553  0.0820
19786SOL    HW265451   2.633   4.933   6.137  1.1822  0.6336 -2.0503
19787SOL     OW65452   5.138   0.935   0.824  0.6170  0.2041 -0.1359
19787SOL    HW165453   5.124   0.998   0.754  0.2167  0.1611 -0.0948
19787SOL    HW265454   5.198   0.979   0.884 -0.1460  0.7841  0.2089
19788SOL     OW65455   3.349   8.579   1.360 -0.9281 -0.2735 -0.6211
19788SOL    HW165456   3.411   8.532   1.416 -1.7356 -0.3477  0.2469
19788SOL    HW265457   3.285   8.616   1.421 -0.3916  1.8596 -1.2860
19789SOL     OW65458   5.462   9.745   5.646  0.4329 -0.0707  0.0507
19789SOL    HW165459   5.399   9.810   5.615 -0.4019 -0.9060 -0.0830
19789SOL    HW265460   5.472   9.685   5.572  0.2349 -0.7690  0.5771
19790SOL     OW65461  10.765   6.044   6.284  0.2603 -0.6717  0.2360
19790SOL    HW165462  10.788   5.953   6.301  0.3764 -0.7359 -0.2721
19790SOL    HW265463  10.776   6.055   6.190  1.6251  0.2435  0.4708
19791SOL     OW65464  10.506   3.545  10.784  0.1540 -0.2972 -0.1879
19791SOL    HW165465  10.511   3.585  10.871  2.8758 -1.6564  0.3883
19791SOL    HW265466  10.505   3.620  10.724 -1.0660  0.6601  0.9458
19792SOL     OW65467   4.624   6.854   4.891  0.3582  0.1026  0.3367
19792SOL    HW165468   4.629   6.933   4.945 -0.6288  1.1577 -1.0628
19792SOL    HW265469   4.576   6.792   4.945  0.3044  0.7666  1.0767
19793SOL     OW65470   6.836   2.734   9.101 -0.7508  0.6816 -0.2564
19793SOL    HW165471   6.882   2.759   9.181  0.4748 -0.5947 -0.5150
19793SOL    HW265472   6.743   2.737   9.124 -0.4693  1.5125  0.8474
19794SOL     OW65473   2.099   6.610   0.564  0.1479  0.0111  0.6848
19794SOL    HW165474   2.120   6.668   0.637  0.5107  1.1210 -0.2694
19794SOL    HW265475   2.038   6.545   0.601 -0.1527  0.9089  1.8101
19795SOL     OW65476   9.686   2.372   0.133 -0.0376 -0.1546  0.1732
19795SOL    HW165477   9.741   2.308   0.088 -1.6474 -1.5212  0.0406
19795SOL    HW265478   9.674   2.336   0.221 -1.9288 -0.7093 -0.2662
19796SOL     OW65479   2.511   2.307   3.585 -0.0161  0.0797  0.4226
19796SOL    HW165480   2.432   2.358   3.566  0.3210 -0.0183 -1.4748
19796SOL    HW265481   2.583   2.359   3.550  0.5700 -0.6240  0.5444
19797SOL     OW65482   1.200   4.062   9.224  0.0108 -0.0533 -0.5785
19797SOL    HW165483   1.295   4.066   9.220 -0.0117  0.7122 -0.5599
19797SOL    HW265484   1.174   4.023   9.141  0.2544  1.6830 -1.5104
19798SOL     OW65485   1.808   0.344   7.614  0.2839  0.1550  0.0870
19798SOL    HW165486   1.743   0.364   7.681  0.8048 -1.1316  1.0208
19798SOL    HW265487   1.852   0.265   7.647  1.8863  0.6390 -0.8216
19799SOL     OW65488   5.247   7.302   9.910 -0.0601  0.3644 -0.7685
19799SOL    HW165489   5.302   7.378   9.931  0.8534 -0.3136 -0.6225
19799SOL    HW265490   5.216   7.272   9.995 -1.8436  1.5691 -0.9412
19800SOL     OW65491  10.740   2.477  10.309 -0.2351 -0.3247 -0.8181
19800SOL    HW165492  10.649   2.486  10.280  0.4299  1.4105 -2.6397
19800SOL    HW265493  10.782   2.424  10.241  0.3790 -0.0713 -0.6443
19801SOL     OW65494  10.307  10.735   5.794  0.2538  0.1449 -0.5442
19801SOL    HW165495  10.305  10.654   5.846 -0.0487  1.1189  1.0071
19801SOL    HW265496  10.233  10.726   5.733  0.0788 -0.6300 -0.2346
19802SOL     OW65497   6.695   0.124  10.777 -0.1063 -0.0947 -0.8588
19802SOL    HW165498   6.684   0.179  10.699 -0.7503  0.3079 -0.4969
19802SOL    HW265499   6.694   0.034  10.745 -0.8756  0.0536 -1.2671
19803SOL     OW65500   1.816   2.620   5.747 -0.0508 -0.6140  0.1549
19803SOL    HW165501   1.784   2.611   5.837 -0.0528  0.6337  0.2925
19803SOL    HW265502   1.823   2.715   5.733  0.8606 -0.8106 -0.8406
19804SOL     OW65503   0.415   7.215   8.564  0.0541 -0.4280 -0.0643
19804SOL    HW165504   0.324   7.224   8.537  0.2846  0.9164 -0.5043
19804SOL    HW265505   0.416   7.140   8.624 -1.3656 -0.3453  0.0907
19805SOL     OW65506   9.119   5.859  10.868  0.6484 -0.2930  0.1080
19805SOL    HW165507   9.165   5.808  10.935  0.8992 -0.4433 -0.1755
19805SOL    HW265508   9.187   5.886  10.807  0.3305 -0.7517 -0.4669
19806SOL     OW65509   3.898   4.108   7.469 -0.9626 -0.1335 -0.1366
19806SOL    HW165510   3.861   4.184   7.424 -1.2798  0.2467  0.7413
19806SOL    HW265511   3.901   4.039   7.402 -0.9063  0.5771 -0.8739
19807SOL     OW65512   7.783  10.205   4.549  0.0485 -0.1571 -0.2235
19807SOL    HW165513   7.774  10.298   4.526 -0.1452 -0.4165 -1.2655
19807SOL    HW265514   7.739  10.197   4.633  0.1030  0.7053 -0.0998
19808SOL     OW65515   5.040   0.340   2.828 -0.3642  0.1241  0.2397
19808SOL    HW165516   5.049   0.337   2.732  0.5390 -2.0563  0.3258
19808SOL    HW265517   4.952   0.306   2.844  0.1286 -1.2502  0.2004
19809SOL     OW65518  10.259   6.074   8.802  0.1495  0.2761 -0.3234
19809SOL    HW165519  10.243   6.157   8.757  1.6709  0.0272 -1.4174
19809SOL    HW265520  10.235   6.091   8.893 -1.7138  1.2096 -0.9402
19810SOL     OW65521   1.157  10.170   8.649  0.3947 -0.6233  0.3044
19810SOL    HW165522   1.120  10.195   8.734  1.8216 -0.8370  1.0215
19810SOL    HW265523   1.160  10.075   8.650 -0.8547 -0.7005 -0.5814
19811SOL     OW65524   6.038   9.401   7.065  0.1028 -0.2065  0.2036
19811SOL    HW165525   6.026   9.444   7.150 -0.1182 -0.7991  0.4784
19811SOL    HW265526   6.122   9.356   7.073  0.5074  0.4550 -0.2110
19812SOL     OW65527   3.139   2.078   6.155  0.6405  0.4188 -0.2703
19812SOL    HW165528   3.131   2.069   6.250 -1.9404  0.7640 -0.3612
19812SOL    HW265529   3.216   2.026   6.132  2.1285  1.4070  2.1157
19813SOL     OW65530   9.550  10.577   6.813  0.2290  0.1494 -0.4228
19813SOL    HW165531   9.574  10.490   6.779  2.4271  0.7224 -0.5339
19813SOL    HW265532   9.610  10.637   6.768 -1.8236  1.8680 -0.9920
19814SOL     OW65533   4.151   5.125   2.840  0.0323  0.0408 -0.6496
19814SOL    HW165534   4.125   5.130   2.747  0.1770  1.3545 -0.6340
19814SOL    HW265535   4.080   5.075   2.881  0.0442 -0.6988 -1.4801
19815SOL     OW65536   5.763   0.426   9.506  0.4700  0.0325  0.0435
19815SOL    HW165537   5.766   0.515   9.469  0.8689 -0.4329 -1.0634
19815SOL    HW265538   5.756   0.368   9.430  0.7028 -0.9170  0.7296
19816SOL     OW65539   3.748  10.693   3.738  0.1226  0.6911 -0.5727
19816SOL    HW165540   3.716  10.747   3.811 -0.2174 -2.5838  1.9089
19816SOL    HW265541   3.841  10.681   3.757 -0.2657 -1.4041  0.3069
19817SOL     OW65542   9.873   2.595   3.992 -0.9533 -0.1133 -0.1944
19817SOL    HW165543   9.844   2.575   3.903  0.4699  0.0337 -0.7213
19817SOL    HW265544   9.898   2.688   3.988 -0.9892 -0.0792  0.3829
19818SOL     OW65545   4.445   9.581  10.308  1.0416 -0.0898  0.3305
19818SOL    HW165546   4.421   9.651  10.247  1.8114  0.2766  0.4243
19818SOL    HW265547   4.376   9.581  10.374  0.4761 -0.1375 -0.2566
19819SOL     OW65548   6.727   7.807   5.123 -0.3624 -0.1061  0.3131
19819SOL    HW165549   6.749   7.733   5.180 -1.5581 -0.9820 -0.3246
19819SOL    HW265550   6.643   7.838   5.157 -0.5476  0.0614 -0.2910
19820SOL     OW65551   4.655   8.205   0.937  0.8166 -0.0518 -0.3411
19820SOL    HW165552   4.590   8.259   0.983 -0.1511 -2.6921  1.6564
19820SOL    HW265553   4.733   8.209   0.994 -0.1714 -2.8079  1.3921
19821SOL     OW65554   4.323   1.995   3.895  0.3484 -0.2116  0.2917
19821SOL    HW165555   4.292   2.072   3.849  1.6927  0.9628  1.2597
19821SOL    HW265556   4.410   1.978   3.859  1.1224  0.2915  1.8167
19822SOL     OW65557   7.971   3.262   1.161  0.1014  0.7010 -0.8016
19822SOL    HW165558   8.044   3.298   1.110 -1.9714  1.8939 -3.1415
19822SOL    HW265559   8.002   3.176   1.190  2.3119  1.0361 -1.9237
19823SOL     OW65560   0.875   2.484   3.237  0.3808 -0.3061 -0.1635
19823SOL    HW165561   0.894   2.526   3.321 -1.2085  1.4704 -0.6025
19823SOL    HW265562   0.958   2.487   3.189  0.6549  1.1585  0.3504
19824SOL     OW65563   4.428   5.668   8.167 -0.3461  0.4866  0.7498
19824SOL    HW165564   4.396   5.640   8.253 -0.5265 -3.1173 -0.3348
19824SOL    HW265565   4.350   5.669   8.112 -0.4252  3.7990  0.6926
19825SOL     OW65566   7.958   5.720   8.444 -0.2642 -0.4939  0.3442
19825SOL    HW165567   8.030   5.678   8.397  0.4806  0.2374  0.7882
19825SOL    HW265568   7.960   5.811   8.414 -2.0529 -0.7960 -0.8523
19826SOL     OW65569  10.788   9.885   4.528 -0.1013  0.3817 -0.4552
19826SOL    HW165570  10.729   9.831   4.581  0.4380  0.1620 -0.0590
19826SOL    HW265571  10.736   9.912   4.452 -0.5168 -0.3025 -0.4150
19827SOL     OW65572   8.950   3.773  10.323  0.3657  0.1105  0.3092
19827SOL    HW165573   8.949   3.869  10.317  1.1449  0.0733 -0.6249
19827SOL    HW265574   9.028   3.747  10.273 -0.5460 -1.0768 -0.5357
19828SOL     OW65575   3.375   6.312   2.976  0.8907  0.2410  0.0460
19828SOL    HW165576   3.309   6.376   2.949  1.1655  0.4196 -0.2067
19828SOL    HW265577   3.415   6.351   3.054  2.1690  1.1510 -1.0302
19829SOL     OW65578   9.503   2.815   3.589  0.3603 -0.1112 -0.1332
19829SOL    HW165579   9.422   2.808   3.538  0.0270  0.2038  0.3463
19829SOL    HW265580   9.532   2.725   3.601  0.5645 -0.1825 -1.0633
19830SOL     OW65581   5.973   0.926   1.716  0.2310  0.2257  0.0775
19830SOL    HW165582   5.998   1.018   1.723  0.6142  0.0392  1.6718
19830SOL    HW265583   6.050   0.883   1.679  0.8320  0.2591  1.2437
19831SOL     OW65584  10.386   9.522   2.301 -0.1611 -0.1001 -0.4951
19831SOL    HW165585  10.417   9.523   2.392  0.9188  0.2737 -0.8517
19831SOL    HW265586  10.465   9.505   2.250 -0.8053 -0.5440 -1.3545
19832SOL     OW65587   5.153   2.219   5.455  0.0591 -0.2693 -0.6025
19832SOL    HW165588   5.224   2.219   5.390 -0.2854  1.3495 -1.0197
19832SOL    HW265589   5.197   2.230   5.539  0.2784  1.8521 -0.9519
19833SOL     OW65590   8.303   5.520   8.940  0.0282 -0.3484  0.0837
19833SOL    HW165591   8.297   5.438   8.892 -3.0385 -0.5183  0.5734
19833SOL    HW265592   8.381   5.563   8.904  0.3036 -2.3570 -1.9352
19834SOL     OW65593   5.250   8.778   8.016 -0.1307 -0.0671  0.3922
19834SOL    HW165594   5.156   8.796   8.007 -0.1269  0.3382  1.0919
19834SOL    HW265595   5.292   8.864   8.012  0.1911 -0.2248  0.3444
19835SOL     OW65596   7.828   9.213   0.180 -0.2105  0.0207 -0.4490
19835SOL    HW165597   7.823   9.167   0.097  0.6514 -2.0806  0.5852
19835SOL    HW265598   7.846   9.304   0.156 -0.0697 -0.5079 -2.5406
19836SOL     OW65599   3.765   7.657   8.817  0.4833 -0.5834  0.1113
19836SOL    HW165600   3.789   7.565   8.803 -1.5894 -1.5458  2.2277
19836SOL    HW265601   3.717   7.657   8.900 -1.3829  2.0987 -0.8275
19837SOL     OW65602   9.668   9.135   1.389 -0.3523  0.3847 -0.0983
19837SOL    HW165603   9.640   9.171   1.474 -2.0927 -0.8054 -0.1108
19837SOL    HW265604   9.746   9.084   1.410  0.1355  1.3238  0.4979
19838SOL     OW65605   7.457   1.434   5.118 -0.4576 -0.2790  0.3814
19838SOL    HW165606   7.479   1.418   5.027 -3.3153  1.5755 -0.7903
19838SOL    HW265607   7.417   1.521   5.118  0.6046  0.3611  3.6581
19839SOL     OW65608   4.639   1.427   1.065 -0.2616 -0.4013 -0.3335
19839SOL    HW165609   4.587   1.491   1.015 -0.6378  0.4816  1.1249
19839SOL    HW265610   4.575   1.361   1.092 -0.1814 -0.5309 -0.4593
19840SOL     OW65611   5.082  10.301   3.893 -0.7723 -0.1951  0.3545
19840SOL    HW165612   5.164  10.267   3.857 -1.1986 -0.0381 -0.8150
19840SOL    HW265613   5.097  10.306   3.987  0.7389  0.3080  0.1158
19841SOL     OW65614   0.499   4.981   2.152 -0.0364  0.0889  0.1518
19841SOL    HW165615   0.489   4.912   2.217  0.9300  0.9127  1.2114
19841SOL    HW265616   0.513   4.935   2.070  1.2721 -1.0064  0.9433
19842SOL     OW65617   9.762  10.878   3.742  0.1418  0.0559  0.4299
19842SOL    HW165618   9.787  10.958   3.696  2.8715 -0.5988  0.6037
19842SOL    HW265619   9.767  10.901   3.835 -0.8787  0.1537  0.4687
19843SOL     OW65620  10.133   0.578   3.891  0.7015  0.0471 -0.4784
19843SOL    HW165621  10.079   0.655   3.873  1.4321  0.9115  0.8540
19843SOL    HW265622  10.173   0.557   3.807  0.4499  1.0818 -0.8756
19844SOL     OW65623  10.364   1.151   4.615 -0.9152 -0.4948  0.2798
19844SOL    HW165624  10.361   1.205   4.536 -0.0972  0.7777  1.0868
19844SOL    HW265625  10.325   1.068   4.588  0.1297 -0.4059 -1.6958
19845SOL     OW65626   2.092   7.393   3.948 -0.0624  0.4582  0.3017
19845SOL    HW165627   2.137   7.401   4.032  0.5074 -0.5578  0.0931
19845SOL    HW265628   2.159   7.409   3.882 -0.4351  0.8988  0.0137
19846SOL     OW65629   1.568   8.637   6.118  0.0666  0.3636  0.6319
19846SOL    HW165630   1.601   8.661   6.204  1.2701 -1.5595  0.7609
19846SOL    HW265631   1.631   8.675   6.057  1.2210 -1.1844  0.7868
19847SOL     OW65632   3.688   9.090   5.222  0.1388 -0.2067  0.0715
19847SOL    HW165633   3.643   9.171   5.199 -1.1637 -0.3492  1.9414
19847SOL    HW265634   3.625   9.039   5.272  1.4472 -1.7077  0.3107
19848SOL     OW65635   0.153   2.216   3.577 -0.2537  0.5922  0.2139
19848SOL    HW165636   0.219   2.205   3.509  0.4315  0.0716  0.9431
19848SOL    HW265637   0.071   2.190   3.534  0.3119 -0.7361 -0.1422
19849SOL     OW65638   8.063   0.420   2.313  0.1538  0.1816 -0.9857
19849SOL    HW165639   8.050   0.325   2.315 -0.6006  0.2823 -0.0619
19849SOL    HW265640   8.054   0.447   2.405  1.2002  1.0493 -1.1180
19850SOL     OW65641   5.720   5.304   3.196 -0.3943  0.3444  0.7936
19850SOL    HW165642   5.720   5.362   3.119  1.8218  0.7955  1.0713
19850SOL    HW265643   5.686   5.358   3.267 -0.7376  0.4914  0.5219
19851SOL     OW65644   3.171   3.873   2.210  0.3574  0.4410  0.0363
19851SOL    HW165645   3.151   3.808   2.143 -1.0933  0.0413  0.8120
19851SOL    HW265646   3.086   3.892   2.251  1.0451  1.4568  1.0558
19852SOL     OW65647   8.080   1.861   4.277  0.9374  0.2020 -0.1432
19852SOL    HW165648   8.026   1.822   4.208 -0.5572  1.5344  0.2164
19852SOL    HW265649   8.167   1.822   4.265  0.0243 -1.6581 -1.0336
19853SOL     OW65650   2.353  10.502   1.638  0.4884 -0.8475  0.0498
19853SOL    HW165651   2.283  10.517   1.701  1.3957 -0.9275  1.1195
19853SOL    HW265652   2.321  10.540   1.556 -0.4736 -0.1882  0.7120
19854SOL     OW65653   7.845   5.543   4.519 -0.1967  0.3959 -0.0407
19854SOL    HW165654   7.807   5.628   4.541  0.5985  1.4225 -2.3598
19854SOL    HW265655   7.830   5.533   4.425 -0.5274 -2.2026  0.2054
19855SOL     OW65656   8.908   5.910   4.263  0.5698 -0.1587 -0.0861
19855SOL    HW165657   8.828   5.956   4.286  1.0204  0.5791  0.0440
19855SOL    HW265658   8.885   5.858   4.186 -0.3898 -1.0159  0.7573
19856SOL     OW65659   9.251   2.822   5.958 -0.0465  0.6156  0.4488
19856SOL    HW165660   9.299   2.815   5.875 -2.0599  0.9626 -0.8096
19856SOL    HW265661   9.242   2.732   5.988 -1.5406  0.1954 -1.1032
19857SOL     OW65662   7.358   0.389   6.972 -0.2074 -0.0555  0.5017
19857SOL    HW165663   7.394   0.400   7.060  0.2493 -1.3596  0.5052
19857SOL    HW265664   7.408   0.451   6.918 -0.0984  0.3452  1.0562
19858SOL     OW65665   0.376   5.321   1.370 -0.0760  0.1936 -0.7399
19858SOL    HW165666   0.469   5.309   1.349  0.0322 -0.9344  0.2594
19858SOL    HW265667   0.375   5.396   1.430  0.5455 -1.3896  1.3585
19859SOL     OW65668   3.599   1.073   4.500  0.2608 -0.1309  0.0095
19859SOL    HW165669   3.595   1.152   4.446  2.0579  0.0272  0.0610
19859SOL    HW265670   3.543   1.010   4.454 -1.2814  1.1606  0.0236
19860SOL     OW65671   2.968   7.423   6.183 -0.3598  0.3110  0.0399
19860SOL    HW165672   3.004   7.510   6.201 -0.5325  0.4680 -0.3643
19860SOL    HW265673   2.882   7.440   6.146 -0.2990 -0.0248 -0.2600
19861SOL     OW65674   5.450   1.777   8.758 -0.1307  0.1144  0.2069
19861SOL    HW165675   5.517   1.820   8.704 -0.8029  0.3677 -0.4450
19861SOL    HW265676   5.497   1.706   8.802  0.4390 -0.1252 -0.7471
19862SOL     OW65677   8.073   1.774   2.405 -0.6925 -0.3289  0.1062
19862SOL    HW165678   8.067   1.859   2.448 -3.1578  0.1603 -1.0474
19862SOL    HW265679   8.091   1.794   2.313 -0.0556 -1.1387  0.0349
19863SOL     OW65680   0.503   8.712   1.466  0.0398  0.1109 -0.0117
19863SOL    HW165681   0.456   8.640   1.422  0.0532  0.3527 -0.4223
19863SOL    HW265682   0.491   8.787   1.409 -0.8262  0.7061  0.9066
19864SOL     OW65683   8.035   1.179   5.364  0.0126 -0.6741 -0.2636
19864SOL    HW165684   7.991   1.139   5.440  0.3672 -0.6871 -0.0641
19864SOL    HW265685   7.971   1.172   5.293 -0.1033 -1.1840 -0.1114
19865SOL     OW65686   0.756   8.864   3.210  0.2871  0.2046 -0.4307
19865SOL    HW165687   0.789   8.882   3.298 -0.5198 -0.0456 -0.0725
19865SOL    HW265688   0.822   8.807   3.171 -0.3776 -1.4703  0.7804
19866SOL     OW65689   3.450   8.924   9.670 -0.1371 -0.0750  0.1701
19866SOL    HW165690   3.461   8.999   9.611  0.8466  0.6252  1.1893
19866SOL    HW265691   3.535   8.915   9.713 -0.0281 -2.2179 -0.4043
19867SOL     OW65692   9.308  10.653   8.296  0.0348  0.8047  0.3602
19867SOL    HW165693   9.295  10.651   8.201  0.2768  0.0753  0.3365
19867SOL    HW265694   9.278  10.567   8.326  1.3723  0.4604  0.7546
19868SOL     OW65695   9.984   3.919   6.910 -0.2996 -0.4009 -0.0567
19868SOL    HW165696   9.952   3.832   6.932 -0.1736 -1.0224 -2.2010
19868SOL    HW265697   9.907   3.967   6.880 -0.0955 -0.2786 -0.3871
19869SOL     OW65698   0.399   1.925  10.362  0.2906  0.8134  0.2480
19869SOL    HW165699   0.428   2.016  10.354  1.2410  0.4619 -0.6239
19869SOL    HW265700   0.471   1.881  10.406 -0.0467  0.4245  0.4147
19870SOL     OW65701  10.174   1.034   9.107 -0.6339  0.0681 -0.1410
19870SOL    HW165702  10.127   0.979   9.044  0.0100  0.2073 -0.7570
19870SOL    HW265703  10.264   1.038   9.074  0.0128 -0.7871  1.3928
19871SOL     OW65704   5.206   7.776   0.623 -0.0395  0.3413 -0.1431
19871SOL    HW165705   5.203   7.871   0.616  1.4576  0.4206 -0.0439
19871SOL    HW265706   5.295   7.753   0.596 -0.9630 -1.2174 -2.0694
19872SOL     OW65707   3.512   7.603   2.792  0.3270  0.1491 -0.1552
19872SOL    HW165708   3.477   7.666   2.730 -0.9512  1.2245  1.5668
19872SOL    HW265709   3.495   7.642   2.878  3.2124 -0.6304  0.8861
19873SOL     OW65710  10.863  10.464   5.334  0.4907  0.0843  0.1864
19873SOL    HW165711  10.854  10.557   5.314  1.0368  0.6069  2.1483
19873SOL    HW265712  10.933  10.433   5.276 -0.0077  0.7743 -0.8012
19874SOL     OW65713   5.634  10.220   5.647  0.4324  0.6767 -0.1010
19874SOL    HW165714   5.636  10.124   5.642 -0.4687  0.5823  0.9341
19874SOL    HW265715   5.630  10.239   5.740  1.8576  1.7799 -0.2259
19875SOL     OW65716   4.784   9.834   5.612  0.2583  0.1070 -0.0668
19875SOL    HW165717   4.871   9.793   5.609  0.5940  0.6856  0.9493
19875SOL    HW265718   4.729   9.770   5.656  0.4211  0.1503  0.2025
19876SOL     OW65719   1.845   9.144  10.502 -0.2265  0.4982 -0.4480
19876SOL    HW165720   1.800   9.088  10.566 -0.6730  1.1415 -0.1829
19876SOL    HW265721   1.888   9.083  10.443 -2.9511 -0.2458 -1.8345
19877SOL     OW65722   3.223   4.657   1.138  0.2567  0.0821  0.7518
19877SOL    HW165723   3.258   4.695   1.057  0.4016 -1.6159 -0.0124
19877SOL    HW265724   3.138   4.621   1.114 -1.5549  2.9041  2.2832
19878SOL     OW65725   6.779   8.745   9.687  0.0682 -0.2977  0.1206
19878SOL    HW165726   6.760   8.815   9.625 -2.9809 -1.2542 -0.2181
19878SOL    HW265727   6.817   8.675   9.634  0.3376  0.0003 -0.0813
19879SOL     OW65728   6.315   4.286   6.768  0.0225  0.0142  0.2127
19879SOL    HW165729   6.254   4.299   6.695  1.7481  0.6170 -1.1977
19879SOL    HW265730   6.400   4.274   6.726  1.0122 -0.0975  2.1367
19880SOL     OW65731   6.181   1.003   6.764 -0.4344 -0.1910  0.3594
19880SOL    HW165732   6.219   0.954   6.692 -0.8173  0.7495 -0.5005
19880SOL    HW265733   6.179   1.094   6.734 -1.1264  0.1360  1.3235
19881SOL     OW65734   7.281   1.720   8.676  0.1454  0.0132 -0.8588
19881SOL    HW165735   7.238   1.799   8.709  1.4463  1.1163 -1.6771
19881SOL    HW265736   7.286   1.661   8.752 -0.5002  0.8773 -0.1297
19882SOL     OW65737   7.614   0.291   4.174 -0.5112 -0.4456  0.5736
19882SOL    HW165738   7.559   0.308   4.250 -0.3722  1.8326  0.2188
19882SOL    HW265739   7.598   0.199   4.153  0.1599 -1.4414  3.8753
19883SOL     OW65740   5.869   5.453   0.615  0.1436 -0.0116 -0.2902
19883SOL    HW165741   5.795   5.497   0.573 -0.8647 -2.1663 -0.9071
19883SOL    HW265742   5.936   5.448   0.547 -0.4417 -1.0143 -0.8202
19884SOL     OW65743   3.811   9.780   2.337 -0.2691  0.7004 -0.5123
19884SOL    HW165744   3.862   9.739   2.267  0.8921  2.6518 -0.8890
19884SOL    HW265745   3.730   9.730   2.341  0.7761 -1.1586 -1.3711
19885SOL     OW65746   9.871   0.744   0.181 -0.2146 -0.3401  0.4062
19885SOL    HW165747   9.943   0.724   0.242 -0.1129 -0.8353  0.1327
19885SOL    HW265748   9.793   0.747   0.237  0.1710  1.5346  0.9225
19886SOL     OW65749   4.143  10.461   2.940  1.0281  0.2507  0.4742
19886SOL    HW165750   4.104  10.487   2.857 -0.6454  1.3661  1.5458
19886SOL    HW265751   4.165  10.543   2.984  1.5537 -0.3070  1.2846
19887SOL     OW65752   1.493   8.988   5.146  0.2872 -0.0639 -0.9380
19887SOL    HW165753   1.475   9.080   5.127  0.4294  0.0806 -0.3802
19887SOL    HW265754   1.442   8.969   5.224  1.7737  0.0867  0.1074
19888SOL     OW65755   7.435   1.619   8.038  0.2406 -0.3196 -0.3580
19888SOL    HW165756   7.433   1.710   8.069 -0.6676 -0.0017 -1.2883
19888SOL    HW265757   7.350   1.583   8.061  0.6275 -0.9766  0.0797
19889SOL     OW65758   2.892   3.432   4.962  0.0553 -0.3360 -0.0719
19889SOL    HW165759   2.908   3.492   5.034  1.3394  0.1553 -0.7340
19889SOL    HW265760   2.971   3.378   4.957  0.0131 -0.3186 -1.1330
19890SOL     OW65761   4.389   4.558   1.083  0.5267 -0.0478  0.2794
19890SOL    HW165762   4.469   4.607   1.102  0.0347  0.3451  1.3877
19890SOL    HW265763   4.419   4.482   1.034  1.6484 -0.1879  1.1445
19891SOL     OW65764   9.303   6.532   4.702 -0.2868  0.2732  0.1443
19891SOL    HW165765   9.237   6.466   4.682 -0.4734  0.3310  0.5397
19891SOL    HW265766   9.273   6.611   4.657 -1.0927  0.6008  1.2127
19892SOL     OW65767   5.464   6.119   5.406  0.2963 -0.1635  0.1333
19892SOL    HW165768   5.556   6.128   5.380  0.0066 -0.2788 -0.9636
19892SOL    HW265769   5.421   6.197   5.371  0.0590  0.1509  1.0885
19893SOL     OW65770   5.021   9.963  10.661 -0.0248  0.3413  0.2581
19893SOL    HW165771   4.936   9.999  10.633 -0.6882 -1.1385  0.2894
19893SOL    HW265772   5.037  10.004  10.746 -0.8172  0.4628  0.3575
19894SOL     OW65773   8.079   2.365   9.483 -0.3788 -0.3924 -0.3155
19894SOL    HW165774   8.166   2.337   9.511 -0.2743 -0.5066 -0.7473
19894SOL    HW265775   8.044   2.412   9.559  0.0777 -0.2986 -0.1541
19895SOL     OW65776   8.146   8.330  10.393 -0.5617 -0.1709  0.4652
19895SOL    HW165777   8.123   8.408  10.443  0.5522 -0.0252  0.7853
19895SOL    HW265778   8.182   8.270  10.458  1.6412  0.3199 -0.2317
19896SOL     OW65779   5.049   1.090   6.236  0.0202 -0.4670 -0.8047
19896SOL    HW165780   4.982   1.157   6.225  0.5674  0.5632  1.7126
19896SOL    HW265781   5.000   1.011   6.259 -0.4827 -0.5278 -1.9731
19897SOL     OW65782   5.686   6.437   6.673 -0.6970  0.1603 -0.0776
19897SOL    HW165783   5.614   6.498   6.653 -0.7963  0.0731  0.0117
19897SOL    HW265784   5.643   6.362   6.713 -0.6535 -0.2811 -0.8455
19898SOL     OW65785   1.426   4.544   4.765 -0.5827  0.2474  0.3903
19898SOL    HW165786   1.331   4.532   4.764 -0.6091  0.4043  0.8915
19898SOL    HW265787   1.459   4.471   4.817 -0.4521  0.3531  0.4554
19899SOL     OW65788   4.712   0.025   3.644  0.5002  0.2232 -0.2278
19899SOL    HW165789   4.720   0.047   3.551  1.9709  0.2427 -0.1171
19899SOL    HW265790   4.619   0.035   3.663  0.1086 -0.1766 -1.7966
19900SOL     OW65791   2.359   9.388  10.737 -0.1873 -0.0258  0.4295
19900SOL    HW165792   2.299   9.460  10.754 -1.2544 -0.7533 -0.1205
19900SOL    HW265793   2.446   9.423  10.758 -0.5227  1.8209 -1.0239
19901SOL     OW65794   4.668   5.978   0.459  0.1886 -0.3672 -0.3134
19901SOL    HW165795   4.761   5.967   0.438  0.6899  1.3103  0.7937
19901SOL    HW265796   4.661   6.070   0.484 -1.8707 -0.3727 -0.7464
19902SOL     OW65797   2.164  10.357   8.891  0.1034  0.6731  0.0947
19902SOL    HW165798   2.102  10.351   8.818  1.2440  1.2290 -0.9656
19902SOL    HW265799   2.182  10.451   8.899  1.4965  0.4532 -0.2415
19903SOL     OW65800   4.316   4.601   5.894  0.1778  0.0067  0.0055
19903SOL    HW165801   4.239   4.569   5.846  0.5687  0.5176 -0.9838
19903SOL    HW265802   4.347   4.524   5.943 -1.3684 -0.0290  1.0052
19904SOL     OW65803   3.204   8.942   7.222  0.4104 -0.2531 -0.1611
19904SOL    HW165804   3.243   8.891   7.151 -0.6397  0.5617 -1.3519
19904SOL    HW265805   3.267   9.013   7.237  0.3221 -0.0565 -0.7198
19905SOL     OW65806   9.763   5.450   7.243 -0.6789 -0.3882 -0.1815
19905SOL    HW165807   9.796   5.362   7.261  0.0609 -0.2328 -0.7017
19905SOL    HW265808   9.805   5.474   7.161 -0.7871  0.4994  0.0175
19906SOL     OW65809   9.021   6.543   9.889  0.1257  0.3213  0.2029
19906SOL    HW165810   9.109   6.541   9.927 -0.3418 -1.7552  1.3722
19906SOL    HW265811   9.035   6.541   9.795  1.3395  0.7452  0.3605
19907SOL     OW65812   1.072   6.066   9.470  0.2356 -0.1748 -0.5011
19907SOL    HW165813   1.094   6.157   9.490 -0.3890 -0.1924  0.3183
19907SOL    HW265814   1.052   6.027   9.555  1.1742 -1.2752 -0.7560
19908SOL     OW65815   1.020   8.053   2.269  0.5982  0.1336 -0.0228
19908SOL    HW165816   1.075   8.051   2.347 -1.3800  2.2384  1.5736
19908SOL    HW265817   0.999   8.145   2.256 -0.4597 -0.3279 -2.0988
19909SOL     OW65818   8.698  10.043   6.411 -0.4672 -0.1293 -0.2960
19909SOL    HW165819   8.731   9.956   6.432 -1.0495 -0.2467  0.1541
19909SOL    HW265820   8.697  10.046   6.316 -1.1538 -0.8971 -0.3251
19910SOL     OW65821   1.732   9.523   7.756  0.1454 -0.5097  0.4307
19910SOL    HW165822   1.802   9.525   7.822 -1.8333 -0.7256  2.6804
19910SOL    HW265823   1.713   9.430   7.745  1.6327 -0.6182 -1.8979
19911SOL     OW65824   4.281   6.267   0.612  0.6098  0.7333  0.1530
19911SOL    HW165825   4.295   6.349   0.565  1.6368  1.0613  0.9723
19911SOL    HW265826   4.202   6.230   0.574  0.4176  1.8544 -0.5806
19912SOL     OW65827   0.126   2.527   9.614  0.4453  0.3378  0.3760
19912SOL    HW165828   0.189   2.506   9.545 -0.5058 -1.9906  0.1295
19912SOL    HW265829   0.143   2.619   9.635  1.0103  1.0397 -2.6865
19913SOL     OW65830   6.441   7.479   2.830 -0.1501  0.3933 -0.4478
19913SOL    HW165831   6.482   7.511   2.910 -1.6485  2.5654 -0.4858
19913SOL    HW265832   6.351   7.510   2.834 -0.6107 -0.4925 -2.4242
19914SOL     OW65833   0.454   6.792   9.027  0.6210 -0.5484  0.1375
19914SOL    HW165834   0.493   6.865   8.979  0.2163 -1.5687 -1.8495
19914SOL    HW265835   0.366   6.823   9.051  1.0930  0.2365  0.9000
19915SOL     OW65836   1.314   2.835   2.422 -0.1867 -0.2283 -0.4185
19915SOL    HW165837   1.325   2.911   2.365 -1.0792  0.9551  0.9059
19915SOL    HW265838   1.392   2.835   2.478 -0.2712 -0.1640 -0.2988
19916SOL     OW65839   1.817   3.702   4.239 -0.2895  0.3802  0.2306
19916SOL    HW165840   1.739   3.648   4.223 -0.1922  0.0631  0.7838
19916SOL    HW265841   1.854   3.718   4.152  0.8262 -2.1513  0.1366
19917SOL     OW65842   7.738   7.915   4.096 -0.0152  0.4157 -0.1083
19917SOL    HW165843   7.822   7.938   4.136 -0.5920  1.4571  0.5671
19917SOL    HW265844   7.736   7.967   4.015  0.5384 -0.6193 -0.8195
19918SOL     OW65845   0.189   4.541  10.671  0.4421  0.4495  0.5393
19918SOL    HW165846   0.174   4.609  10.737 -1.8229 -0.1772  0.7617
19918SOL    HW265847   0.128   4.563  10.600  0.1517 -0.9604  0.3305
19919SOL     OW65848   2.005   4.047   2.928  0.4285 -0.6509 -0.5823
19919SOL    HW165849   2.043   3.990   2.995 -0.5016 -1.1093 -0.4350
19919SOL    HW265850   2.039   4.134   2.949  1.2962 -1.0276 -0.3832
19920SOL     OW65851   8.611   6.421   5.953  0.6638 -0.1479  0.0780
19920SOL    HW165852   8.686   6.475   5.928  0.5687 -0.2059 -0.3297
19920SOL    HW265853   8.570   6.470   6.025  1.8296 -0.7408  1.1986
19921SOL     OW65854   1.359   0.350  10.477  0.5197  0.1092  0.2000
19921SOL    HW165855   1.350   0.426  10.533  0.3206 -0.2914  0.7157
19921SOL    HW265856   1.419   0.378  10.408 -1.5566  1.5958 -1.1245
19922SOL     OW65857   4.686   0.633   5.686 -0.5400  0.6045  0.0423
19922SOL    HW165858   4.662   0.564   5.749  0.2658  1.4144  1.2841
19922SOL    HW265859   4.613   0.694   5.688 -0.7643  0.3488 -0.2370
19923SOL     OW65860  10.736   9.501   4.675  0.4434 -0.6952  0.0135
19923SOL    HW165861  10.656   9.512   4.623  0.5035  0.6488  0.1639
19923SOL    HW265862  10.807   9.503   4.612  0.4307 -0.6121  0.0023
19924SOL     OW65863   8.953   0.328   5.851  0.3468  0.4043 -0.3402
19924SOL    HW165864   8.885   0.281   5.898 -0.0229  1.5148  0.2815
19924SOL    HW265865   8.930   0.421   5.861  0.8243  0.7277 -1.8438
19925SOL     OW65866   1.856   9.986   4.363 -0.1308 -0.0912  0.2306
19925SOL    HW165867   1.786  10.034   4.407  1.7894  2.0707  1.1270
19925SOL    HW265868   1.916   9.963   4.433  0.6455 -0.8559 -0.6695
19926SOL     OW65869   0.695   5.754  10.875 -0.1346  0.3752  0.3752
19926SOL    HW165870   0.784   5.739  10.844  0.1845 -0.3190  1.6040
19926SOL    HW265871   0.685   5.698  10.952 -1.8606 -0.0837 -0.1238
19927SOL     OW65872  10.290   3.506   2.447 -0.1042 -0.4727 -0.6519
19927SOL    HW165873  10.325   3.444   2.511  0.7793 -0.1660 -0.8314
19927SOL    HW265874  10.201   3.524   2.478  0.9959  1.3577  1.7301
19928SOL     OW65875   4.345   9.722   1.436 -0.2281  0.4195  0.1037
19928SOL    HW165876   4.279   9.700   1.370 -1.5286  1.3961  1.0051
19928SOL    HW265877   4.427   9.687   1.402 -1.1706 -0.6367 -1.1814
19929SOL     OW65878   6.038   6.500  10.812  0.4488 -0.3090 -0.1041
19929SOL    HW165879   6.067   6.417  10.773 -0.6230 -0.3975 -0.7805
19929SOL    HW265880   6.058   6.566  10.745 -1.4922 -0.4748 -0.9504
19930SOL     OW65881   9.876   3.252   6.758 -0.0866 -0.3158  0.2601
19930SOL    HW165882   9.894   3.166   6.795  1.4290  0.9162  2.6324
19930SOL    HW265883   9.955   3.303   6.775 -1.0272  1.6360 -0.8388
19931SOL     OW65884   9.097   2.205   7.932 -0.0736 -0.0823  0.7154
19931SOL    HW165885   9.031   2.177   7.868 -0.1145  1.0938  0.2015
19931SOL    HW265886   9.046   2.249   8.000 -0.0423 -1.4454  1.6475
19932SOL     OW65887   9.854   2.061   1.461 -0.6169 -0.3590 -0.3166
19932SOL    HW165888   9.774   2.113   1.457 -1.7529 -2.0242 -0.0809
19932SOL    HW265889   9.868   2.031   1.371  1.2003  1.9430 -0.8958
19933SOL     OW65890   9.340   0.926   5.827 -0.0175  0.2074 -0.3042
19933SOL    HW165891   9.352   1.000   5.767  1.5009  0.1477 -0.1227
19933SOL    HW265892   9.397   0.946   5.902 -1.5721  0.0826  0.9510
19934SOL     OW65893   7.702  10.833   0.315  0.1562 -0.2081  0.1815
19934SOL    HW165894   7.693  10.921   0.353  1.1059  0.3482 -0.8275
19934SOL    HW265895   7.768  10.790   0.369  2.0722  0.8482 -1.2017
19935SOL     OW65896   7.317   1.741   3.521 -0.0634 -0.0548  0.6768
19935SOL    HW165897   7.328   1.662   3.468  1.6817  0.3141  0.4437
19935SOL    HW265898   7.289   1.708   3.606  1.8595 -1.0835  0.9769
19936SOL     OW65899  10.812   6.484   7.286  0.6603  0.2847  0.2294
19936SOL    HW165900  10.858   6.492   7.202 -1.1059  2.2618 -0.6634
19936SOL    HW265901  10.792   6.391   7.294 -0.9827  0.2716 -2.6705
19937SOL     OW65902   4.496  10.698   7.621  0.3343  0.2789 -0.3575
19937SOL    HW165903   4.587  10.690   7.649  0.1239  1.3796  0.7373
19937SOL    HW265904   4.451  10.624   7.661  0.1130  1.6154  2.0538
19938SOL     OW65905   3.918   5.008   8.075 -0.2141  0.0962  0.3382
19938SOL    HW165906   3.824   4.995   8.058 -0.4544 -2.8565  2.9057
19938SOL    HW265907   3.921   5.049   8.162  0.8668  0.1759  0.2689
19939SOL     OW65908   7.985  10.797   1.848 -0.4475 -0.2161  0.1613
19939SOL    HW165909   7.898  10.809   1.810 -0.4074  0.2571  0.2235
19939SOL    HW265910   8.000  10.875   1.901  0.1669 -0.1276 -0.1335
19940SOL     OW65911   9.968   9.079   3.652 -0.3512 -0.0404 -0.3650
19940SOL    HW165912  10.029   9.134   3.701  0.3243 -0.7340 -0.3971
19940SOL    HW265913   9.983   8.991   3.687 -1.3161 -0.2262 -0.4031
19941SOL     OW65914   1.313   7.108   2.935 -0.1917 -0.2087  0.1069
19941SOL    HW165915   1.267   7.055   2.870 -0.5877  1.4184 -1.0098
19941SOL    HW265916   1.372   7.163   2.883  0.2236  0.4068  1.2132
19942SOL     OW65917   6.690   6.431   1.389  0.1442 -0.3796 -0.3451
19942SOL    HW165918   6.736   6.486   1.453  0.7970 -0.3621 -0.8189
19942SOL    HW265919   6.701   6.477   1.306  0.9709 -1.3875 -0.7988
19943SOL     OW65920   0.406   4.304   6.190  0.4670  0.1481  0.2258
19943SOL    HW165921   0.318   4.266   6.193  0.8927 -0.9622 -0.6480
19943SOL    HW265922   0.441   4.288   6.277  0.6751 -1.6221 -0.1517
19944SOL     OW65923   2.002   7.563   2.526 -0.4790  0.1000 -0.3000
19944SOL    HW165924   1.920   7.611   2.530 -1.6744 -1.7925 -0.7325
19944SOL    HW265925   2.068   7.624   2.559 -2.1770  1.4033  0.8139
19945SOL     OW65926   4.315   4.898   5.832  0.8100 -0.4716  0.1810
19945SOL    HW165927   4.263   4.822   5.807 -0.0463 -0.0651  0.6839
19945SOL    HW265928   4.291   4.965   5.768  0.3647 -0.1446  0.6827
19946SOL     OW65929   9.140   4.653   1.473 -0.1207  0.3716  0.4664
19946SOL    HW165930   9.067   4.614   1.521  0.9308 -0.7575  1.1884
19946SOL    HW265931   9.110   4.656   1.382 -0.7135 -0.9601  0.5952
19947SOL     OW65932   4.330   6.413   5.616 -0.2092  0.2777  0.1315
19947SOL    HW165933   4.350   6.345   5.681 -2.2374 -0.6136 -0.0738
19947SOL    HW265934   4.297   6.364   5.540  1.7766  1.3120 -1.5008
19948SOL     OW65935  10.667  10.431   3.094  0.6233  0.4223  0.1160
19948SOL    HW165936  10.615  10.454   3.171  0.6776  0.4197  0.1536
19948SOL    HW265937  10.645  10.497   3.029 -2.6715 -1.8291 -1.3677
19949SOL     OW65938   2.776   2.836   2.025  0.1410  0.6431  0.4004
19949SOL    HW165939   2.777   2.753   2.071  0.2301 -0.0849 -0.8671
19949SOL    HW265940   2.688   2.870   2.037  0.3616  0.7929  1.6515
19950SOL     OW65941   6.394   8.842   7.619 -0.0073  0.2620  0.0289
19950SOL    HW165942   6.324   8.905   7.628 -0.6554 -0.1867 -1.5055
19950SOL    HW265943   6.361   8.762   7.660  0.0320  0.3501  0.2329
19951SOL     OW65944   2.819   6.973  10.647  0.0940  0.0334  0.9731
19951SOL    HW165945   2.872   6.963  10.726  0.5172  0.7863  0.7964
19951SOL    HW265946   2.729   6.970  10.679  0.2031 -1.7133  1.2182
19952SOL     OW65947   0.426   9.478   5.939 -0.6470  0.0117  0.6123
19952SOL    HW165948   0.420   9.392   5.897 -2.3324 -0.2390  1.3189
19952SOL    HW265949   0.354   9.529   5.902 -0.0814  0.9121  0.7070
19953SOL     OW65950  10.749   0.692   7.911 -0.0868  0.1420  0.0124
19953SOL    HW165951  10.690   0.636   7.961  0.8680  0.7668  1.9044
19953SOL    HW265952  10.691   0.758   7.872 -0.7694  0.1497  0.9964
19954SOL     OW65953   2.586   7.838   2.950 -0.1188 -0.3894  0.4283
19954SOL    HW165954   2.544   7.871   3.030 -1.0951 -0.2974 -0.1094
19954SOL    HW265955   2.653   7.778   2.982 -1.9199 -2.0584  1.3194
19955SOL     OW65956   6.400   7.961   5.817 -0.0341 -0.2023  0.3526
19955SOL    HW165957   6.399   8.054   5.837 -0.7221 -0.2937  0.8010
19955SOL    HW265958   6.376   7.956   5.724 -1.6912  0.0048  0.7276
19956SOL     OW65959   3.166   8.741   5.075 -0.0837  0.3976  0.3633
19956SOL    HW165960   3.133   8.733   5.165  1.8350 -0.0462  1.0989
19956SOL    HW265961   3.246   8.794   5.084  0.5355 -0.2645 -0.9748
19957SOL     OW65962   6.022   9.597   1.693  0.6562 -0.4871 -0.2627
19957SOL    HW165963   6.046   9.517   1.739 -0.8324 -1.2569 -0.7473
19957SOL    HW265964   5.969   9.567   1.619  1.5848  0.8258 -1.5340
19958SOL     OW65965   7.756   0.013   5.573 -0.9200 -0.0124 -0.6231
19958SOL    HW165966   7.676   0.039   5.526 -0.9012  0.3870 -0.4439
19958SOL    HW265967   7.827   0.039   5.515 -0.9037  0.2466 -0.4885
19959SOL     OW65968  10.503   7.944   9.053  0.5347 -0.4256  0.3410
19959SOL    HW165969  10.597   7.928   9.055  1.1059  2.3723  0.0343
19959SOL    HW265970  10.477   7.947   9.146  0.6386 -1.5540  0.4193
19960SOL     OW65971   6.680   5.799   7.645 -0.2745  0.6304 -0.2156
19960SOL    HW165972   6.607   5.739   7.664 -0.5979  1.0398 -0.1503
19960SOL    HW265973   6.674   5.816   7.551 -1.4361  2.1432  0.0797
19961SOL     OW65974   1.748   6.051   5.382 -0.0603  0.3682  0.6960
19961SOL    HW165975   1.832   6.085   5.351 -0.2380  2.5670  2.3380
19961SOL    HW265976   1.739   5.966   5.340  0.4820  2.2387 -3.7445
19962SOL     OW65977   7.035   1.049   8.349 -0.0026  0.5469 -0.4707
19962SOL    HW165978   6.988   1.096   8.417 -0.3734 -0.8801  0.3059
19962SOL    HW265979   7.127   1.070   8.364  0.1106 -1.1450  1.6669
19963SOL     OW65980   3.632   1.069  10.494  0.3936 -0.0773  0.2638
19963SOL    HW165981   3.671   1.156  10.508  1.7582 -0.2899 -1.7951
19963SOL    HW265982   3.570   1.083  10.423  1.7164 -1.0146 -1.1336
19964SOL     OW65983   8.656   6.294   9.800  0.0830  0.3396 -0.4612
19964SOL    HW165984   8.675   6.387   9.797  1.5754  0.1032  0.7652
19964SOL    HW265985   8.672   6.268   9.891 -0.3722 -1.0987 -0.7525
19965SOL     OW65986   9.911   0.319   9.321  0.1065 -0.1070 -0.8455
19965SOL    HW165987   9.925   0.362   9.237  0.4634  0.8808 -0.2989
19965SOL    HW265988   9.855   0.379   9.370  3.1433  1.3452  1.1012
19966SOL     OW65989   2.338   8.308   8.497 -0.2896 -0.0973 -0.7099
19966SOL    HW165990   2.373   8.226   8.460  3.1099 -0.2658  2.2559
19966SOL    HW265991   2.311   8.284   8.586  0.6432  1.8728  0.1728
19967SOL     OW65992  10.416   3.559  10.142 -0.1020 -0.0263 -0.1792
19967SOL    HW165993  10.354   3.537  10.212  0.6067  0.1265  0.5098
19967SOL    HW265994  10.381   3.640  10.104 -2.3435 -1.8250 -2.2706
19968SOL     OW65995   6.795   7.326   1.707  0.2546  0.2400  0.1156
19968SOL    HW165996   6.779   7.406   1.757  1.0046  0.9062 -0.6530
19968SOL    HW265997   6.719   7.317   1.650 -0.1365  0.0370  0.6705
19969SOL     OW65998   3.192   1.987   9.429 -0.2552  0.2755  0.4013
19969SOL    HW165999   3.125   2.056   9.434  0.2085  0.6293  2.1531
19969SOL    HW266000   3.272   2.033   9.406 -0.0108  0.2766  1.2482
19970SOL     OW66001   2.272   5.540   8.025 -0.3369 -0.2584  0.6084
19970SOL    HW166002   2.324   5.586   7.959 -1.3142 -0.6857 -0.4924
19970SOL    HW266003   2.265   5.602   8.098  0.5186  0.3348  0.2049
19971SOL     OW66004  10.616   9.516   7.938  0.0343 -0.3779  0.2586
19971SOL    HW166005  10.548   9.455   7.911 -1.1824  1.9918 -2.6343
19971SOL    HW266006  10.687   9.502   7.875  0.7745 -0.4525  1.0930
19972SOL     OW66007   8.217   8.097   3.594 -0.0972 -0.1670 -0.3136
19972SOL    HW166008   8.255   8.010   3.588 -0.0641 -0.1199 -0.8336
19972SOL    HW266009   8.137   8.092   3.543 -0.3267 -0.0131  0.0265
19973SOL     OW66010   9.705  10.911   3.234 -0.5231  0.3740 -0.1135
19973SOL    HW166011   9.625  10.881   3.192  0.1136  0.0461 -1.1225
19973SOL    HW266012   9.776  10.877   3.179  0.4057 -1.2780  1.9638
19974SOL     OW66013   2.941   3.958   4.307 -0.2667  0.3870 -0.2365
19974SOL    HW166014   2.847   3.955   4.324 -0.3424 -1.2545 -0.7945
19974SOL    HW266015   2.982   3.938   4.391 -0.4254  0.4181 -0.1510
19975SOL     OW66016   0.297   9.994   4.893  0.4996  0.3527  0.4042
19975SOL    HW166017   0.217   9.943   4.909  0.7631 -0.6479 -1.2313
19975SOL    HW266018   0.344   9.945   4.826  2.1462  1.3209  0.7901
19976SOL     OW66019   5.181   1.773  10.877  0.6645 -0.0479  0.1015
19976SOL    HW166020   5.137   1.689  10.866  0.7758 -0.3768  1.8436
19976SOL    HW266021   5.161   1.821  10.796  0.2453 -1.5689 -0.7466
19977SOL     OW66022   4.224   7.006   4.733 -0.7650  0.1786 -0.2010
19977SOL    HW166023   4.289   6.937   4.720 -2.0100 -0.8310 -1.3814
19977SOL    HW266024   4.275   7.083   4.757  0.7878 -0.7949 -0.2566
19978SOL     OW66025   1.563   8.493  10.302 -0.1344 -0.0948 -0.8266
19978SOL    HW166026   1.489   8.481  10.361  2.2424 -0.2621  2.3086
19978SOL    HW266027   1.600   8.578  10.327  2.0652 -1.0326 -0.6901
19979SOL     OW66028   8.904   6.019   4.896  0.1495 -0.1223  0.6345
19979SOL    HW166029   8.880   6.107   4.923 -2.5366 -0.1134 -1.4006
19979SOL    HW266030   8.865   5.961   4.961 -1.4825  0.0940 -0.1162
19980SOL     OW66031   2.623   4.542   4.046  0.1796  0.2667  0.0424
19980SOL    HW166032   2.609   4.618   3.990  0.2915  0.2815  0.0343
19980SOL    HW266033   2.570   4.559   4.124 -0.5671 -0.1033 -0.3813
19981SOL     OW66034   3.832   7.130   0.416  1.2298 -0.0697  0.3640
19981SOL    HW166035   3.903   7.188   0.388  0.0062  0.8944 -0.8908
19981SOL    HW266036   3.756   7.159   0.366  0.0546 -1.4059  1.2820
19982SOL     OW66037   2.523   6.251   6.933 -0.0134 -0.1888 -0.2611
19982SOL    HW166038   2.452   6.302   6.893 -2.1312 -1.5675  1.5103
19982SOL    HW266039   2.554   6.195   6.862  0.3390  1.4157 -1.4397
19983SOL     OW66040  10.885   0.810  10.409 -0.0904  0.1570 -0.6980
19983SOL    HW166041  10.955   0.864  10.444 -0.0400 -0.0825 -0.4261
19983SOL    HW266042  10.921   0.772  10.329  0.5767 -1.0539  0.1563
19984SOL     OW66043  10.831   0.832   2.580 -0.1858  0.2197 -0.2161
19984SOL    HW166044  10.790   0.881   2.651 -2.1212 -0.5381 -0.7451
19984SOL    HW266045  10.812   0.884   2.501  2.8066  1.5926 -0.1710
19985SOL     OW66046   9.143   8.293   2.796  0.2188 -0.0133  0.6668
19985SOL    HW166047   9.212   8.325   2.738 -1.4596 -0.5641 -1.7592
19985SOL    HW266048   9.104   8.373   2.832  1.5685  0.3235  1.4790
19986SOL     OW66049   4.114   9.094   0.251 -0.0315  0.1342  0.0650
19986SOL    HW166050   4.068   9.079   0.333  0.4886  0.5295  0.4361
19986SOL    HW266051   4.181   9.026   0.248  0.3835  0.5230  0.3014
19987SOL     OW66052   2.170  10.253   5.688 -0.7584  0.3909 -0.2622
19987SOL    HW166053   2.178  10.218   5.599  0.3286 -1.1934  0.4120
19987SOL    HW266054   2.257  10.240   5.726 -0.8578  2.1630  0.6649
19988SOL     OW66055   8.714   2.197   2.198  0.5671 -0.6233 -0.5574
19988SOL    HW166056   8.660   2.200   2.119  0.5650  0.4769 -0.5282
19988SOL    HW266057   8.791   2.249   2.177  0.2774  0.2208  0.3606
19989SOL     OW66058   4.412   4.593  10.923  0.1725  0.1858 -0.3470
19989SOL    HW166059   4.333   4.567  10.875  1.6735 -1.1498 -2.2769
19989SOL    HW266060   4.392   4.576  11.015 -1.5892 -0.6654 -0.8471
19990SOL     OW66061   9.700   4.681   6.772 -0.2674  0.5919  0.7476
19990SOL    HW166062   9.712   4.587   6.786 -1.0849  0.3853  0.1821
19990SOL    HW266063   9.606   4.694   6.780 -0.1535  1.3727  0.8494
19991SOL     OW66064   6.380   5.715   1.134 -0.2666 -0.8228 -0.2066
19991SOL    HW166065   6.357   5.808   1.128  1.0705 -0.4823 -0.5476
19991SOL    HW266066   6.337   5.684   1.214 -1.4889 -0.1514 -0.5908
19992SOL     OW66067   7.688   1.070   8.374 -0.7003  0.4771 -0.1205
19992SOL    HW166068   7.634   1.149   8.370 -0.0575  0.8741 -1.9004
19992SOL    HW266069   7.766   1.092   8.324  0.4654 -0.6001  1.1328
19993SOL     OW66070   0.535   0.518   5.236 -0.1794 -0.4804  0.4948
19993SOL    HW166071   0.462   0.555   5.285  0.6300 -1.3665  2.4750
19993SOL    HW266072   0.608   0.578   5.251  0.0824 -0.7706  0.4047
19994SOL     OW66073   8.129   6.333   9.216 -0.0413  0.1390  0.8520
19994SOL    HW166074   8.092   6.342   9.304 -0.8138  2.0167  0.3835
19994SOL    HW266075   8.057   6.300   9.162 -0.3992  1.5873  0.4045
19995SOL     OW66076   1.212   9.637   2.008  0.0036 -0.0784  0.1726
19995SOL    HW166077   1.279   9.703   1.989 -0.1848  0.3939  1.1104
19995SOL    HW266078   1.255   9.576   2.068 -0.0915 -0.3461 -0.0276
19996SOL     OW66079   0.309   8.349   5.020 -0.1032  0.9693  0.0078
19996SOL    HW166080   0.294   8.314   4.932  0.2868 -0.5167  0.4945
19996SOL    HW266081   0.352   8.277   5.067  0.5643  2.0659  1.1397
19997SOL     OW66082   6.769   7.909   8.746 -0.2482  0.0693  0.5171
19997SOL    HW166083   6.735   7.838   8.691 -0.7218 -0.4538  1.4586
19997SOL    HW266084   6.711   7.982   8.728  0.3137  0.2694 -0.5496
19998SOL     OW66085   7.110   6.300   8.581  0.1661  0.1819  0.7870
19998SOL    HW166086   7.162   6.259   8.651 -0.2370  0.2589  1.1292
19998SOL    HW266087   7.059   6.368   8.625 -0.1038  0.2191  0.4189
19999SOL     OW66088   7.653   2.053  10.133  0.3331 -0.1434 -0.3017
19999SOL    HW166089   7.627   2.102  10.211  1.5581  1.6072 -0.9322
19999SOL    HW266090   7.587   2.073  10.068  1.2703  1.4442 -0.8194
20000SOL     OW66091   5.942   0.503   6.330  0.4313 -0.2064 -0.4890
20000SOL    HW166092   5.955   0.431   6.268  2.5374  1.9739 -2.8209
20000SOL    HW266093   5.851   0.531   6.317  0.0146 -1.5046 -0.5233
20001SOL     OW66094   3.925   4.780   9.598 -0.0357  0.1822 -0.0186
20001SOL    HW166095   3.896   4.706   9.545  1.2150  1.2957 -2.4068
20001SOL    HW266096   3.901   4.857   9.546 -0.4944  1.4651  1.9835
20002SOL     OW66097   8.316   0.914   7.026  0.1649  0.6015 -0.4877
20002SOL    HW166098   8.271   0.870   7.098  0.0403  0.4324 -0.6668
20002SOL    HW266099   8.266   0.994   7.012  2.6569  2.9748  2.5408
20003SOL     OW66100   0.134   4.296   5.788  0.0026 -0.0144 -0.0139
20003SOL    HW166101   0.109   4.283   5.697  2.3891 -1.6676 -0.5201
20003SOL    HW266102   0.150   4.208   5.822  1.4862  0.7101  1.2821
20004SOL     OW66103   5.209   7.002   8.570  0.6749 -0.1284 -0.4782
20004SOL    HW166104   5.260   6.921   8.564  1.5340  0.4709 -1.7975
20004SOL    HW266105   5.275   7.071   8.580  0.0600  0.5396 -0.9050
20005SOL     OW66106   6.910   7.697   2.588 -0.8189 -0.1522  0.2613
20005SOL    HW166107   6.931   7.786   2.617  0.2753 -0.3383  0.0971
20005SOL    HW266108   6.831   7.675   2.637 -1.3321  1.0453  0.0146
20006SOL     OW66109   9.617  10.931   1.614  0.1035  0.2269  0.3216
20006SOL    HW166110   9.674  10.866   1.572 -1.3636 -0.8807 -0.0439
20006SOL    HW266111   9.657  10.946   1.699  0.9089 -0.5529  0.0994
20007SOL     OW66112   5.973   0.156   0.926 -0.0461 -0.1739  0.7346
20007SOL    HW166113   5.973   0.067   0.962 -2.8443  0.3412  2.3185
20007SOL    HW266114   6.012   0.209   0.996 -1.3221  0.2303  1.1619
20008SOL     OW66115   1.392   0.452   5.320 -0.2813 -0.0881 -0.3695
20008SOL    HW166116   1.407   0.535   5.275 -0.6133 -0.1857 -0.6652
20008SOL    HW266117   1.478   0.427   5.354 -0.2891  0.6741  0.2375
20009SOL     OW66118   6.313   0.330   6.286 -0.1290  0.1048 -0.2055
20009SOL    HW166119   6.307   0.290   6.200 -0.1328  0.2755 -0.2849
20009SOL    HW266120   6.263   0.412   6.278  0.6624  0.5833 -0.3152
20010SOL     OW66121   8.214   9.417  10.172  0.0645 -0.4533  0.0601
20010SOL    HW166122   8.301   9.456  10.161 -0.9303  2.0044  0.3471
20010SOL    HW266123   8.160   9.460  10.106 -1.2213 -1.0242  0.7117
20011SOL     OW66124   1.311   7.505  10.210 -0.0302 -0.1199  0.4567
20011SOL    HW166125   1.273   7.449  10.142  0.3280 -0.0997  0.2372
20011SOL    HW266126   1.384   7.549  10.166 -0.3490  0.5675  0.6056
20012SOL     OW66127   8.891   0.792   4.551  0.0145  0.2175  0.0737
20012SOL    HW166128   8.902   0.871   4.605 -0.0410  0.1654  0.1600
20012SOL    HW266129   8.901   0.719   4.612  0.9107  0.1382 -0.1501
20013SOL     OW66130   6.353   5.415   0.611  0.6674 -0.2035 -0.1736
20013SOL    HW166131   6.294   5.375   0.547  1.1078  1.2603 -1.5882
20013SOL    HW266132   6.320   5.387   0.696 -1.6110 -0.0640 -0.9443
20014SOL     OW66133   9.383   9.487   2.278  0.5843 -0.0554 -0.1281
20014SOL    HW166134   9.459   9.530   2.316  0.1176  0.9659 -0.2931
20014SOL    HW266135   9.365   9.537   2.198 -1.2648  0.8464  0.7849
20015SOL     OW66136   3.417   5.135   7.626  0.5273 -0.7818  0.1539
20015SOL    HW166137   3.408   5.042   7.648 -0.2880 -0.8852 -0.5429
20015SOL    HW266138   3.343   5.177   7.671 -0.5909 -0.8614 -1.5067
20016SOL     OW66139   6.391   1.630   2.034 -0.3403  0.4371  0.5403
20016SOL    HW166140   6.327   1.646   2.103 -0.7433  0.2861  0.2003
20016SOL    HW266141   6.471   1.673   2.065 -0.8272  1.3173  0.5986
20017SOL     OW66142   2.971   7.804  10.085 -0.5255 -0.5495  0.1392
20017SOL    HW166143   3.027   7.875  10.116 -0.5181  0.3608 -1.8147
20017SOL    HW266144   2.963   7.819   9.991 -2.3026 -1.8999  0.0234
20018SOL     OW66145   1.039   9.859   2.008  0.2198 -0.1284  0.3891
20018SOL    HW166146   1.087   9.913   1.944 -0.4729  0.3884  0.2969
20018SOL    HW266147   1.102   9.791   2.033  1.2155  0.8529  0.6801
20019SOL     OW66148   1.956   5.957   9.287  0.2547 -0.0132  0.7346
20019SOL    HW166149   1.861   5.967   9.293  0.1282 -1.1884  0.9899
20019SOL    HW266150   1.969   5.863   9.272  1.4176 -0.0279  1.7088
20020SOL     OW66151   0.284   7.564   2.216  0.3644 -0.8145  0.1438
20020SOL    HW166152   0.197   7.600   2.236  0.3558 -0.7092 -0.0846
20020SOL    HW266153   0.301   7.590   2.126  0.5471 -1.0097  0.1202
20021SOL     OW66154   6.656   0.979   7.436  0.4768 -0.0407  0.2812
20021SOL    HW166155   6.690   0.947   7.352  0.9438  0.3738  0.3041
20021SOL    HW266156   6.583   1.036   7.412  0.1459 -0.4871  0.2003
20022SOL     OW66157   2.277   5.193   2.111  0.2082  0.3489 -0.0735
20022SOL    HW166158   2.311   5.130   2.174 -2.9599  0.1436  1.6287
20022SOL    HW266159   2.244   5.140   2.038 -0.6961  0.1804  0.4552
20023SOL     OW66160   3.676   7.839   9.886  0.2112  0.1951 -0.3048
20023SOL    HW166161   3.769   7.851   9.903 -0.0775 -0.0615  1.7393
20023SOL    HW266162   3.639   7.927   9.893  0.2627  0.2623 -0.8686
20024SOL     OW66163   7.817   5.158   8.805  0.2734 -0.2619 -0.1983
20024SOL    HW166164   7.760   5.229   8.776  0.6482  0.1123 -0.0299
20024SOL    HW266165   7.763   5.105   8.863 -0.0442 -0.1856 -0.4248
20025SOL     OW66166   5.761   2.714   7.754 -0.1063 -0.5814 -0.4144
20025SOL    HW166167   5.758   2.684   7.663  0.7608  0.0871 -0.6871
20025SOL    HW266168   5.849   2.692   7.783  0.5983  1.6705 -0.6555
20026SOL     OW66169   1.814   0.858   8.501  0.1968 -0.2250 -1.0293
20026SOL    HW166170   1.895   0.836   8.454  0.9688 -0.1607  0.2331
20026SOL    HW266171   1.844   0.893   8.585 -1.1523 -0.1657 -0.5557
20027SOL     OW66172   2.409   2.414   0.184  0.2991 -0.1988 -0.1882
20027SOL    HW166173   2.329   2.361   0.189  0.1618 -0.3030 -2.5594
20027SOL    HW266174   2.409   2.465   0.265 -2.3781  0.0903 -0.2841
20028SOL     OW66175   9.718   5.606   0.587 -0.6031 -0.0209  0.2124
20028SOL    HW166176   9.634   5.574   0.620 -0.1928 -0.3776  0.9335
20028SOL    HW266177   9.711   5.599   0.492 -1.9178  1.2793  0.1791
20029SOL     OW66178   8.315   0.682   7.185  1.0359  0.0191  0.1831
20029SOL    HW166179   8.368   0.619   7.135  0.5285 -1.2472  1.1923
20029SOL    HW266180   8.249   0.629   7.229 -0.2206  1.4156  0.0702
20030SOL     OW66181   4.131   5.494   1.611  0.0229 -0.8455 -0.0422
20030SOL    HW166182   4.196   5.536   1.668  0.8548 -0.4735 -1.2248
20030SOL    HW266183   4.065   5.459   1.671  0.6043 -0.0187  1.1122
20031SOL     OW66184   1.374   8.561  10.808  0.2692 -1.0384 -0.3131
20031SOL    HW166185   1.371   8.466  10.810  0.5251 -1.0483  1.2488
20031SOL    HW266186   1.445   8.582  10.747  1.5583 -1.9198  0.8293
20032SOL     OW66187  10.892   5.468  10.837 -0.0389 -0.0345 -0.2813
20032SOL    HW166188  10.949   5.393  10.819 -1.0345 -0.9182  0.0853
20032SOL    HW266189  10.818   5.430  10.885 -1.4142  0.8840 -1.5718
20033SOL     OW66190   3.064   1.039   3.180 -0.3376  0.5568 -0.2487
20033SOL    HW166191   3.077   0.998   3.265  3.2879  0.7423 -0.5578
20033SOL    HW266192   2.994   0.988   3.139 -1.0725 -0.5285  2.1786
20034SOL     OW66193   7.387  10.656   4.795  0.1715  0.3756 -0.5753
20034SOL    HW166194   7.295  10.634   4.806  0.2920  0.3819  0.5874
20034SOL    HW266195   7.397  10.674   4.702 -1.5844  2.9270 -0.3831
20035SOL     OW66196   3.391   5.796   0.202  0.4591 -0.3044  0.5842
20035SOL    HW166197   3.449   5.743   0.256  1.6867 -0.3946 -0.7492
20035SOL    HW266198   3.426   5.884   0.207 -0.3930  0.0061  1.2163
20036SOL     OW66199   5.360  10.474   1.486 -0.5213  0.8864 -0.1850
20036SOL    HW166200   5.285  10.481   1.545 -0.2344  3.0481  0.0245
20036SOL    HW266201   5.382  10.381   1.484 -1.3217  0.6026  2.1124
20037SOL     OW66202   4.635   7.888   8.334 -0.1386 -0.1748  0.3161
20037SOL    HW166203   4.581   7.875   8.412  1.3550  0.1515  1.4563
20037SOL    HW266204   4.598   7.964   8.291 -0.9763 -0.3543  0.7119
20038SOL     OW66205   5.786   7.555   5.473  0.5633  0.0667  0.7096
20038SOL    HW166206   5.721   7.487   5.485  0.5162 -0.1956 -0.8290
20038SOL    HW266207   5.839   7.525   5.399  1.1939  1.1958  0.6766
20039SOL     OW66208   1.114   9.810   6.224 -0.5802 -0.2153 -0.1522
20039SOL    HW166209   1.154   9.840   6.306  2.4616 -1.1456 -1.1363
20039SOL    HW266210   1.096   9.890   6.176  0.2371  0.2885  0.3408
20040SOL     OW66211   2.321   9.073   4.403  0.1397 -0.2466 -0.5962
20040SOL    HW166212   2.350   9.098   4.315 -0.3534  1.2188 -0.3751
20040SOL    HW266213   2.235   9.033   4.389 -0.4909  1.0869 -0.6995
20041SOL     OW66214   2.305   1.290   8.736 -0.5843  0.5186 -0.7654
20041SOL    HW166215   2.327   1.362   8.794  0.4538 -0.8075  0.5895
20041SOL    HW266216   2.366   1.220   8.761 -3.2937 -1.7907 -0.0673
20042SOL     OW66217  10.253   0.376  10.626 -0.3501  0.0803  0.1596
20042SOL    HW166218  10.267   0.464  10.592 -1.5209 -0.5312 -2.1539
20042SOL    HW266219  10.320   0.322  10.583 -0.3884 -0.3682  0.6436
20043SOL     OW66220   7.423   3.140   0.436  0.1927 -0.1898 -0.0158
20043SOL    HW166221   7.464   3.067   0.389 -0.6459  0.3877 -1.7186
20043SOL    HW266222   7.465   3.218   0.401  2.8370  0.1883  3.5147
20044SOL     OW66223   5.236   1.472   6.965 -0.3472 -0.0931  0.0354
20044SOL    HW166224   5.255   1.486   6.872  3.5148  0.7227  0.7807
20044SOL    HW266225   5.271   1.384   6.983 -0.6775 -0.0683  0.8252
20045SOL     OW66226   1.465   5.675   9.953 -0.3354  0.0102 -0.3377
20045SOL    HW166227   1.383   5.717   9.931  0.0741  0.6775 -0.6258
20045SOL    HW266228   1.464   5.669  10.049 -1.0098 -0.6175 -0.3743
20046SOL     OW66229  10.109   3.727   6.389  0.1442 -0.2859  0.5218
20046SOL    HW166230  10.045   3.789   6.424  0.8007  1.4121 -1.1524
20046SOL    HW266231  10.147   3.771   6.314  3.9991 -0.8543  1.9404
20047SOL     OW66232   8.192   3.777   7.392  0.7784  0.0293 -0.7616
20047SOL    HW166233   8.286   3.788   7.411  0.6635  0.0813 -0.2202
20047SOL    HW266234   8.148   3.822   7.464  0.3269 -1.1127 -0.3097
20048SOL     OW66235   8.120   1.750  10.192 -0.4852  0.1684  0.0233
20048SOL    HW166236   8.085   1.679  10.246  0.1411  0.5875  1.0193
20048SOL    HW266237   8.205   1.770  10.231 -0.7123  1.5590 -0.1394
20049SOL     OW66238   1.538   7.238   1.426 -0.0528 -0.0397 -0.5126
20049SOL    HW166239   1.458   7.196   1.459  0.5420 -0.0511  0.9719
20049SOL    HW266240   1.508   7.322   1.392 -0.7850 -0.3013 -0.5395
20050SOL     OW66241   6.512   7.632   3.634  0.0156 -0.7729 -0.3245
20050SOL    HW166242   6.435   7.677   3.667  0.3359  1.2444 -2.1388
20050SOL    HW266243   6.479   7.577   3.562 -0.1326 -2.3372  0.8790
20051SOL     OW66244   2.161   0.432   9.517 -0.0926  0.5195  0.3989
20051SOL    HW166245   2.175   0.380   9.596 -1.5353  0.8659  0.9179
20051SOL    HW266246   2.133   0.368   9.451  1.5357  0.1634 -0.0040
20052SOL     OW66247  10.575   3.973   0.387  0.2901 -0.0932  0.1130
20052SOL    HW166248  10.554   3.982   0.293  1.3168 -0.0585 -0.1198
20052SOL    HW266249  10.528   3.894   0.414  0.5086 -0.4706 -0.5870
20053SOL     OW66250   6.506   8.343   0.506  0.4374 -0.1787 -1.3459
20053SOL    HW166251   6.474   8.326   0.594  0.0317 -1.4080 -1.7193
20053SOL    HW266252   6.527   8.257   0.470 -0.4006  0.1940 -2.8142
20054SOL     OW66253   7.830   7.094   8.822  0.2124  0.0043  0.0226
20054SOL    HW166254   7.901   7.131   8.874  0.4909 -0.6419  0.1000
20054SOL    HW266255   7.759   7.081   8.885 -0.0688  0.8597 -0.0951
20055SOL     OW66256   0.686   1.744  10.096  0.0649 -0.4033 -0.2041
20055SOL    HW166257   0.740   1.668  10.119  0.4856  0.6701  2.7605
20055SOL    HW266258   0.738   1.793  10.032  0.6751 -1.5399 -0.6071
20056SOL     OW66259   6.816   1.660   5.229 -0.3976 -0.4041 -0.5724
20056SOL    HW166260   6.839   1.568   5.218  1.4945  0.0767 -0.9885
20056SOL    HW266261   6.781   1.686   5.144  0.4530 -0.3984 -0.9365
20057SOL     OW66262   3.123   5.758   0.166 -0.4472 -0.2486 -0.1049
20057SOL    HW166263   3.113   5.716   0.081 -0.0353  1.9649 -1.3169
20057SOL    HW266264   3.218   5.761   0.180 -0.5332 -1.5261  0.9733
20058SOL     OW66265   5.797   1.169   5.923 -0.0473  0.1275 -0.2239
20058SOL    HW166266   5.882   1.211   5.911  0.6365 -0.6771  1.4583
20058SOL    HW266267   5.810   1.079   5.893 -0.2247 -0.0559  0.2320
20059SOL     OW66268   0.661   2.262   2.853 -0.3548  0.0421 -0.3189
20059SOL    HW166269   0.607   2.224   2.784 -1.1494  0.0244  0.3022
20059SOL    HW266270   0.619   2.234   2.934 -0.6572  1.7825  0.1597
20060SOL     OW66271   8.029   1.307   9.516  0.1462 -0.3673 -0.4671
20060SOL    HW166272   8.111   1.346   9.544 -0.8507  2.6753 -1.4471
20060SOL    HW266273   7.988   1.373   9.460 -3.0622 -1.6659  0.1349
20061SOL     OW66274   2.539   4.471   7.439  0.5553  0.2864 -0.0547
20061SOL    HW166275   2.549   4.377   7.425 -1.5925 -0.1074  0.6538
20061SOL    HW266276   2.517   4.480   7.531 -2.7343  1.0760 -0.7779
20062SOL     OW66277   4.493   1.874   8.721 -0.2547  0.0268 -0.6155
20062SOL    HW166278   4.445   1.947   8.761 -0.2395 -0.0076 -0.5342
20062SOL    HW266279   4.531   1.827   8.796 -1.5094 -0.9383 -0.5487
20063SOL     OW66280   1.600   7.527   1.645 -0.6227  0.1190 -0.2284
20063SOL    HW166281   1.534   7.533   1.714  0.1960  0.0839  0.5823
20063SOL    HW266282   1.554   7.490   1.570 -2.0976  2.2617 -0.4470
20064SOL     OW66283   9.019   6.804   8.842 -0.3839  0.7478 -0.2180
20064SOL    HW166284   8.955   6.835   8.906  1.6722  1.2331  1.7221
20064SOL    HW266285   9.010   6.864   8.768 -2.1227  0.8033 -0.0033
20065SOL     OW66286   9.519   7.079   9.085 -0.1263 -0.3572  0.0072
20065SOL    HW166287   9.449   7.064   9.148 -1.1550  0.4466 -0.9028
20065SOL    HW266288   9.498   7.022   9.011  0.7094 -0.8009  0.0910
20066SOL     OW66289   9.935   3.541   2.795 -0.2975 -0.3171 -0.6014
20066SOL    HW166290   9.878   3.464   2.791 -0.3228 -0.2654 -1.4213
20066SOL    HW266291   9.967   3.543   2.885  0.3874 -1.7872 -0.7952
20067SOL     OW66292   1.297   3.358   2.098  0.1226 -0.8451 -0.2419
20067SOL    HW166293   1.354   3.285   2.074 -1.5256 -1.9146 -1.0854
20067SOL    HW266294   1.211   3.318   2.114 -0.0188  0.4486  2.9202
20068SOL     OW66295   9.098   8.845   8.958 -0.2059 -0.0088  0.0870
20068SOL    HW166296   9.065   8.768   8.911 -0.9640  0.2323  0.2058
20068SOL    HW266297   9.161   8.810   9.021 -0.6789 -0.5542  0.2632
20069SOL     OW66298  10.590   8.305   9.558  0.1467  0.5075  0.0605
20069SOL    HW166299  10.505   8.281   9.597  0.0024  1.9773  0.6932
20069SOL    HW266300  10.587   8.267   9.471 -1.0014  0.1829  0.2201
20070SOL     OW66301   7.864   3.522  10.516  0.5939  0.5061  0.4960
20070SOL    HW166302   7.855   3.530  10.611 -1.0853  1.0511  0.3145
20070SOL    HW266303   7.880   3.429  10.502 -1.7309 -0.0751  1.1881
20071SOL     OW66304   7.733   7.421  10.602 -0.6942  0.1206  0.4082
20071SOL    HW166305   7.816   7.399  10.560 -1.2943 -1.7880  0.1630
20071SOL    HW266306   7.753   7.422  10.695 -0.3459 -0.1291  0.3390
20072SOL     OW66307   2.305   9.079   8.949 -0.0187  0.2654  0.0245
20072SOL    HW166308   2.245   9.068   9.023  0.7929 -0.2325  0.6192
20072SOL    HW266309   2.254   9.053   8.872 -0.5087 -0.3399  0.5478
20073SOL     OW66310   4.499   0.449   3.093  0.2167 -0.2199 -0.1598
20073SOL    HW166311   4.509   0.453   3.188 -0.0236 -0.7770 -0.1079
20073SOL    HW266312   4.567   0.507   3.059 -1.1199  1.7949  0.4063
20074SOL     OW66313   7.924   0.109   7.680  0.1969 -0.1788  0.4906
20074SOL    HW166314   7.992   0.050   7.648  2.2089  1.7970  0.9111
20074SOL    HW266315   7.890   0.152   7.602 -0.3918 -0.9512  0.3095
20075SOL     OW66316   5.255   1.875   8.352  0.0743 -0.3555  0.4831
20075SOL    HW166317   5.172   1.839   8.386 -0.6793  0.0335 -0.8812
20075SOL    HW266318   5.279   1.942   8.416 -1.5045  0.6079  0.1442
20076SOL     OW66319  10.255   7.035   8.845 -0.5837  0.3092 -0.1920
20076SOL    HW166320  10.262   7.007   8.936 -0.1523  1.6380  0.2027
20076SOL    HW266321  10.326   6.988   8.800 -1.1966 -0.8380  0.0094
20077SOL     OW66322   7.484   7.013  10.355  0.1419 -0.1648  0.2031
20077SOL    HW166323   7.554   6.975  10.408  0.4230  0.4865  0.3081
20077SOL    HW266324   7.465   6.947  10.289  0.6731 -0.4572  0.3358
20078SOL     OW66325   3.938   5.085   4.189  0.0104  0.0180 -0.5198
20078SOL    HW166326   3.890   5.040   4.258  0.7046 -0.0342 -0.0698
20078SOL    HW266327   3.875   5.148   4.153 -1.3643 -2.0163 -1.9041
20079SOL     OW66328   7.358   6.625   5.144  0.2291 -0.2899 -0.1806
20079SOL    HW166329   7.398   6.596   5.225  0.1943  0.7002  0.2005
20079SOL    HW266330   7.357   6.720   5.150  1.2069 -0.1353 -1.8123
20080SOL     OW66331   4.901   9.351   1.023  0.7239 -0.6884 -0.2207
20080SOL    HW166332   4.957   9.361   0.946  0.6618  2.4361  0.0050
20080SOL    HW266333   4.812   9.365   0.991  0.7323  1.0926  0.4174
20081SOL     OW66334  10.795   5.427   2.915 -0.9428  0.0895  0.0758
20081SOL    HW166335  10.742   5.357   2.876 -0.5491 -0.6437  0.8097
20081SOL    HW266336  10.784   5.501   2.856 -0.4961 -0.9137 -1.3252
20082SOL     OW66337   1.291   1.652   5.370 -0.1400 -0.0175  0.0644
20082SOL    HW166338   1.205   1.695   5.372 -0.0361  0.2858 -1.0636
20082SOL    HW266339   1.328   1.669   5.457  0.0863  2.6246 -0.4489
20083SOL     OW66340   8.838   1.492   6.251 -0.0665  0.1175 -0.1088
20083SOL    HW166341   8.851   1.556   6.321  0.1707  0.4423 -0.4476
20083SOL    HW266342   8.751   1.455   6.269  0.6660 -1.0104  1.3258
20084SOL     OW66343   2.469   5.802   6.144 -0.5512  0.3820 -0.4836
20084SOL    HW166344   2.459   5.738   6.073  0.1251  0.7023 -0.8761
20084SOL    HW266345   2.385   5.849   6.146 -0.1325  1.2348 -1.9364
20085SOL     OW66346   7.301   9.823   0.602  0.0995  0.6892  0.9238
20085SOL    HW166347   7.344   9.753   0.650  2.3613  0.5763 -1.0727
20085SOL    HW266348   7.217   9.785   0.575  0.6914 -0.7811  1.0390
20086SOL     OW66349   1.549   2.168   4.808 -0.4477 -0.5021 -0.0341
20086SOL    HW166350   1.577   2.235   4.869 -1.6575 -1.2452  1.4022
20086SOL    HW266351   1.458   2.190   4.787 -0.3345 -0.7660 -0.8743
20087SOL     OW66352   1.280   4.052   1.006  0.0228 -0.0779 -0.2968
20087SOL    HW166353   1.318   4.034   1.092 -1.2670 -0.2329  0.2711
20087SOL    HW266354   1.228   4.131   1.019  0.8178  0.6319 -1.2716
20088SOL     OW66355  10.740   1.177   4.482 -0.4824 -0.0288  0.1156
20088SOL    HW166356  10.693   1.256   4.454 -1.6531 -0.6034  0.3669
20088SOL    HW266357  10.715   1.111   4.419  0.8590 -0.1052 -0.3545
20089SOL     OW66358  10.397   8.161   1.337  0.2403 -0.0095  0.3988
20089SOL    HW166359  10.316   8.124   1.301  0.0738 -0.8609  1.5546
20089SOL    HW266360  10.443   8.086   1.374  0.4779  0.7649  1.7430
20090SOL     OW66361   8.943   1.397  10.127 -0.2315 -0.2320 -0.3438
20090SOL    HW166362   8.893   1.329  10.172  0.0885 -0.0073  0.3591
20090SOL    HW266363   9.020   1.352  10.093  0.6428 -0.0168  1.2210
20091SOL     OW66364   7.445  10.658   1.602 -0.0198 -0.8538  0.8319
20091SOL    HW166365   7.380  10.655   1.533  0.7311  0.3890  0.0266
20091SOL    HW266366   7.395  10.679   1.681 -0.6937 -0.6576  0.3625
20092SOL     OW66367   5.078   5.059   9.865  0.5622  0.0460  0.6642
20092SOL    HW166368   5.092   5.027   9.954  0.3014  0.2580  0.7822
20092SOL    HW266369   5.022   4.993   9.824 -1.9110  1.4586  1.6218
20093SOL     OW66370  10.626   3.116   7.184  0.2478 -0.2267  0.2953
20093SOL    HW166371  10.564   3.057   7.227 -1.5153  2.4151  1.6633
20093SOL    HW266372  10.705   3.111   7.238 -0.6325  0.1836  1.6743
20094SOL     OW66373   9.024   2.017   0.978  0.1312 -0.5243 -0.3550
20094SOL    HW166374   9.036   1.930   1.017  0.4311  0.8720  2.9868
20094SOL    HW266375   9.112   2.057   0.982  0.1939 -0.3038 -2.6632
20095SOL     OW66376   1.772   1.422   0.200 -0.0861  0.2398  0.0376
20095SOL    HW166377   1.847   1.461   0.244 -1.6916  1.2804  2.0298
20095SOL    HW266378   1.712   1.495   0.185 -0.1531 -0.2873 -2.8987
20096SOL     OW66379   8.301   2.543  10.133  0.1941  0.0777 -0.0380
20096SOL    HW166380   8.358   2.487  10.080 -0.5861 -2.2157  1.4183
20096SOL    HW266381   8.361   2.598  10.184  0.9788  0.4612 -1.3331
20097SOL     OW66382   4.637   4.780   9.526 -0.0160  0.0888  1.2141
20097SOL    HW166383   4.637   4.684   9.528  1.4891 -0.0339 -1.0304
20097SOL    HW266384   4.707   4.805   9.586 -0.1305 -0.2387  1.4876
20098SOL     OW66385  10.200   5.989   8.234  0.4843  0.0259 -0.1022
20098SOL    HW166386  10.198   6.080   8.205  0.1207  0.3265  0.8025
20098SOL    HW266387  10.151   5.990   8.317 -2.1610 -1.4974 -1.5140
20099SOL     OW66388   4.820   6.942   5.258  0.5147 -0.1067 -0.2015
20099SOL    HW166389   4.913   6.924   5.265  0.4482 -0.3017  0.2288
20099SOL    HW266390   4.782   6.862   5.223  0.7442  0.6094 -2.2052
20100SOL     OW66391   7.234  10.786   8.144  0.2912 -0.1681  0.0558
20100SOL    HW166392   7.226  10.786   8.239  0.9961  1.0091  0.1473
20100SOL    HW266393   7.227  10.694   8.118 -2.3240 -0.3081  0.9918
20101SOL     OW66394   6.762   3.565   7.303  0.5219 -0.9123  0.3104
20101SOL    HW166395   6.704   3.606   7.239  0.0513 -0.8335  0.7791
20101SOL    HW266396   6.741   3.608   7.386 -1.5981 -3.5725  1.2956
20102SOL     OW66397   7.808   4.198  10.540  0.0880  0.2173 -0.0345
20102SOL    HW166398   7.855   4.266  10.589 -2.7996  1.3283  1.4280
20102SOL    HW266399   7.756   4.246  10.476  0.9875 -0.9906 -1.7563
20103SOL     OW66400  10.576   7.770   1.032 -0.2221  0.2702 -0.6774
20103SOL    HW166401  10.556   7.684   0.996  2.4726 -0.4084 -0.7710
20103SOL    HW266402  10.661   7.759   1.074 -0.1687  2.7089  0.0015
20104SOL     OW66403   9.572   7.721   1.170 -0.0259  0.6938 -0.5639
20104SOL    HW166404   9.584   7.815   1.185  0.4904  0.6731 -0.8289
20104SOL    HW266405   9.656   7.692   1.135  0.3889 -0.1921  1.0758
20105SOL     OW66406   9.305   0.094   6.821  0.2995  0.1709  0.3547
20105SOL    HW166407   9.373   0.032   6.849  0.3953  0.7688  1.4736
20105SOL    HW266408   9.223   0.046   6.832  0.2817  0.5903  2.2765
20106SOL     OW66409   0.279   1.973  10.618 -0.4284  0.2515  0.3595
20106SOL    HW166410   0.307   1.882  10.616 -2.7602 -0.4934 -0.9713
20106SOL    HW266411   0.323   2.014  10.543  0.3856  0.1822  0.7867
20107SOL     OW66412   1.534   6.866   0.466 -0.1346  0.6383 -0.3456
20107SOL    HW166413   1.597   6.886   0.397 -1.0036  0.6380 -1.1616
20107SOL    HW266414   1.587   6.833   0.539  0.7183 -0.1967 -1.3239
20108SOL     OW66415   0.539   5.073   0.254 -0.2949 -0.9399  0.2281
20108SOL    HW166416   0.577   4.991   0.284 -0.9415 -1.3109  0.0428
20108SOL    HW266417   0.490   5.106   0.330  1.2060  0.0624  0.8121
20109SOL     OW66418   0.216   4.840   7.708 -0.1836  0.3897  0.5305
20109SOL    HW166419   0.244   4.930   7.687 -1.8563  0.9583  0.6217
20109SOL    HW266420   0.229   4.792   7.626  2.2979  0.2605  0.9201
20110SOL     OW66421   6.545   9.980   0.132  0.0473 -0.2761 -0.4596
20110SOL    HW166422   6.513  10.004   0.219 -0.4102  0.7396 -0.8842
20110SOL    HW266423   6.639   9.992   0.136 -0.0775  0.7786 -0.3898
20111SOL     OW66424   9.706   4.585   9.660 -0.2020  0.0138  0.0960
20111SOL    HW166425   9.625   4.614   9.701 -0.6997 -4.8018  3.2980
20111SOL    HW266426   9.678   4.527   9.590  0.5454 -0.2582  0.0078
20112SOL     OW66427   5.645   5.681   3.354  0.2794  0.1525  0.2229
20112SOL    HW166428   5.685   5.722   3.430  1.1447  1.1113 -0.7135
20112SOL    HW266429   5.700   5.604   3.337  0.9457  0.7325 -0.2733
20113SOL     OW66430   9.474   2.254  10.817  0.1110 -0.4185  0.1575
20113SOL    HW166431   9.531   2.177  10.822  1.5883  0.7286  2.8405
20113SOL    HW266432   9.507   2.304  10.743  0.1966 -1.5450 -0.5825
20114SOL     OW66433   0.963   9.437   7.840  0.6021 -0.0297 -0.1093
20114SOL    HW166434   0.971   9.510   7.901  1.4742 -0.9345  0.9062
20114SOL    HW266435   0.869   9.418   7.836  0.4590  0.5692  0.3166
20115SOL     OW66436   5.514   4.213   1.961 -0.0474 -0.5353 -0.0929
20115SOL    HW166437   5.456   4.286   1.939  0.1037 -0.9822 -2.2272
20115SOL    HW266438   5.455   4.138   1.968  0.0367 -0.5905  0.0322
20116SOL     OW66439   3.593   3.127   3.143  0.3923 -0.1195  0.0554
20116SOL    HW166440   3.579   3.168   3.058  0.4821  3.2713  1.5365
20116SOL    HW266441   3.687   3.108   3.145  0.1495 -1.6433 -1.1031
20117SOL     OW66442   9.182   6.511   3.308  0.6078  0.2051  0.2422
20117SOL    HW166443   9.257   6.559   3.272  0.5026  0.7578  0.7336
20117SOL    HW266444   9.153   6.455   3.236  1.4989 -0.0270  0.0518
20118SOL     OW66445   8.246   6.443   5.225  0.0196  0.0727 -0.4197
20118SOL    HW166446   8.189   6.488   5.163 -0.6347 -1.4947 -1.0134
20118SOL    HW266447   8.315   6.405   5.170  0.7255  0.5873  0.1027
20119SOL     OW66448   6.666   4.602   1.504 -0.7993 -0.0440  0.3472
20119SOL    HW166449   6.636   4.621   1.415  1.4778  0.3618 -0.4032
20119SOL    HW266450   6.699   4.513   1.500 -0.7902 -0.0689  0.8359
20120SOL     OW66451   2.132   2.505   2.611 -0.0915  0.5732 -0.1456
20120SOL    HW166452   2.167   2.521   2.523  2.2899 -2.2464  0.1225
20120SOL    HW266453   2.208   2.518   2.669 -1.0647  0.2644  1.2423
20121SOL     OW66454   1.135   9.369   9.489 -0.0191  0.9036  0.4707
20121SOL    HW166455   1.077   9.440   9.463 -0.0912  1.3690  1.8133
20121SOL    HW266456   1.077   9.293   9.498 -0.2379  1.0974  0.7071
20122SOL     OW66457   7.677   7.227   9.677 -0.4065  0.3103 -0.2366
20122SOL    HW166458   7.740   7.297   9.658  0.9560 -1.4546 -2.9299
20122SOL    HW266459   7.670   7.179   9.595 -2.6889 -1.6376  0.9924
20123SOL     OW66460   5.260   0.835   4.689 -0.6711  0.8475  0.3173
20123SOL    HW166461   5.167   0.840   4.710 -0.6489  0.3937  0.5401
20123SOL    HW266462   5.275   0.907   4.628 -1.5167 -0.0808 -1.0271
20124SOL     OW66463   8.832   1.895   2.234  0.3492  0.3907 -0.5234
20124SOL    HW166464   8.782   1.918   2.312 -0.4676  0.9744 -1.2093
20124SOL    HW266465   8.889   1.970   2.219  0.6511  0.1934 -0.3864
20125SOL     OW66466   8.115   0.798   7.983  0.6191  0.2101 -0.3005
20125SOL    HW166467   8.166   0.725   8.017  1.1228  0.4253 -0.5773
20125SOL    HW266468   8.129   0.869   8.045  2.2934  0.8969 -1.3968
20126SOL     OW66469   0.570   7.791   4.731  0.0036 -0.1640 -0.1981
20126SOL    HW166470   0.641   7.854   4.742 -0.9479  0.8309  0.5315
20126SOL    HW266471   0.589   7.747   4.648  1.9676 -0.6133  0.4527
20127SOL     OW66472   2.222   6.186   4.987  0.8422 -0.3724  0.3278
20127SOL    HW166473   2.234   6.256   5.051 -1.3681  0.2437  0.1531
20127SOL    HW266474   2.209   6.107   5.040 -0.9870  0.1378  0.7164
20128SOL     OW66475   5.446   5.675   5.606 -0.4533  0.1968 -0.3107
20128SOL    HW166476   5.406   5.627   5.678 -0.6932 -2.6436 -2.1623
20128SOL    HW266477   5.375   5.689   5.544  0.7908 -3.2610 -2.8128
20129SOL     OW66478   3.311   2.007   8.941  0.1430 -0.0783  0.4760
20129SOL    HW166479   3.226   1.971   8.967 -0.2292  0.6606  0.3329
20129SOL    HW266480   3.290   2.064   8.866  0.6640  0.6294  0.8618
20130SOL     OW66481   9.263  10.350   8.565  0.0523  0.0638 -0.4514
20130SOL    HW166482   9.251  10.382   8.655 -0.4786  0.9936 -0.8386
20130SOL    HW266483   9.358  10.352   8.551  0.1182  0.1587 -0.0018
20131SOL     OW66484   6.989   1.598   8.823  0.9409 -0.1811  0.0312
20131SOL    HW166485   7.070   1.590   8.873  0.8606 -1.7028 -0.0489
20131SOL    HW266486   6.986   1.520   8.768 -0.2828  0.1586 -0.4276
20132SOL     OW66487   3.527   4.266  10.016 -0.5335  0.1791 -0.2491
20132SOL    HW166488   3.468   4.191  10.008 -1.7648  0.9153  1.3146
20132SOL    HW266489   3.498   4.326   9.948 -0.5307 -0.1399 -0.5353
20133SOL     OW66490   2.737   3.700   9.913  0.1008 -0.2831 -0.2747
20133SOL    HW166491   2.759   3.658   9.830  1.3257  1.5178 -0.9228
20133SOL    HW266492   2.800   3.664   9.975  1.0003  0.3875 -0.7715
20134SOL     OW66493   5.976   5.847   2.440  0.0126  0.5813 -0.0985
20134SOL    HW166494   5.979   5.922   2.499  1.1691  0.9250 -0.5757
20134SOL    HW266495   6.038   5.785   2.476 -0.3669  0.1682 -0.1437
20135SOL     OW66496   6.610   4.319   0.689 -0.0862  0.5790 -0.3906
20135SOL    HW166497   6.593   4.319   0.783  1.7968  2.7623  0.0308
20135SOL    HW266498   6.603   4.227   0.664 -1.7711  0.0787  1.6248
20136SOL     OW66499   4.066   7.783   5.723 -0.0751 -0.6732  0.1356
20136SOL    HW166500   3.982   7.817   5.695 -0.3894 -1.0778  0.5667
20136SOL    HW266501   4.129   7.851   5.699 -0.6368  0.0410  0.6514
20137SOL     OW66502   8.354   6.569   3.442 -1.0768 -0.4727  0.2059
20137SOL    HW166503   8.391   6.539   3.526  1.2319  1.2963 -0.0727
20137SOL    HW266504   8.318   6.655   3.462  1.9284  1.2157 -1.0393
20138SOL     OW66505   7.930   8.050   1.825  0.2714 -0.3207  0.7147
20138SOL    HW166506   7.871   7.980   1.853 -1.1005  0.4066 -0.2287
20138SOL    HW266507   7.977   8.014   1.750 -0.4425 -0.2600  0.2234
20139SOL     OW66508   8.058   0.158   5.255 -0.3531  0.2100  0.0809
20139SOL    HW166509   8.133   0.100   5.241  0.2811  0.9217  0.4819
20139SOL    HW266510   8.038   0.193   5.169  0.0263  0.3264  0.0395
20140SOL     OW66511   9.249   0.022   4.578  0.1299 -0.3718 -1.1603
20140SOL    HW166512   9.336  -0.006   4.549  0.3936 -0.2990 -0.4553
20140SOL    HW266513   9.245   0.115   4.555  1.2986  0.3360  1.1837
20141SOL     OW66514   5.699   2.410   1.621 -0.2431  0.2518  0.4064
20141SOL    HW166515   5.732   2.320   1.615  0.5310  0.5632 -0.3488
20141SOL    HW266516   5.616   2.403   1.668  1.5297 -0.4142  3.6977
20142SOL     OW66517   1.520   7.691   7.694  0.1727  0.3778 -0.4478
20142SOL    HW166518   1.533   7.599   7.671  1.3141  0.5018 -0.3894
20142SOL    HW266519   1.464   7.726   7.625 -0.2674 -0.3562 -0.4727
20143SOL     OW66520   6.825   8.128   5.760  0.1992 -0.3610  0.2279
20143SOL    HW166521   6.900   8.169   5.803 -0.2461 -1.7278  2.4429
20143SOL    HW266522   6.756   8.194   5.765  0.5521  0.0084  0.3428
20144SOL     OW66523   0.362   5.091   9.506  0.2920  0.0889 -0.5848
20144SOL    HW166524   0.367   5.129   9.593 -0.2390 -2.2005  0.4996
20144SOL    HW266525   0.302   5.017   9.515  1.6655 -1.3408 -2.4504
20145SOL     OW66526   5.432   5.001   2.175 -0.4677  0.3598 -0.7974
20145SOL    HW166527   5.517   5.016   2.216 -0.6401  1.3827 -0.7915
20145SOL    HW266528   5.385   5.084   2.186 -1.6473 -0.3476 -0.3760
20146SOL     OW66529   0.505   1.473   1.989 -0.7817  0.2534 -0.6653
20146SOL    HW166530   0.529   1.492   2.080  0.0557  0.8675 -0.9942
20146SOL    HW266531   0.417   1.509   1.979 -0.7837  0.3903 -0.1592
20147SOL     OW66532   4.613   0.540   8.998  0.3971  0.4694 -0.0025
20147SOL    HW166533   4.609   0.447   9.019 -0.2403  0.1100 -1.5539
20147SOL    HW266534   4.686   0.548   8.937  0.3793  0.9675  0.0388
20148SOL     OW66535  10.130   2.882   7.923 -0.7088 -0.1125 -0.4807
20148SOL    HW166536  10.134   2.888   7.828 -0.7012  0.1705 -0.4660
20148SOL    HW266537  10.126   2.974   7.952 -0.4618 -0.1886 -0.2007
20149SOL     OW66538   1.952   8.326   1.767  0.3865 -0.0700  0.8980
20149SOL    HW166539   1.941   8.273   1.688 -1.1428 -0.2350  1.1784
20149SOL    HW266540   1.983   8.265   1.834 -0.2130 -0.3791  0.9065
20150SOL     OW66541   4.800   0.211   2.936 -0.2531  0.5025  0.4506
20150SOL    HW166542   4.788   0.118   2.953  1.6025 -0.0722 -0.9797
20150SOL    HW266543   4.811   0.250   3.023 -0.0425 -0.7778  1.0206
20151SOL     OW66544   0.679   7.058   9.488 -0.3300 -0.4421 -0.4726
20151SOL    HW166545   0.662   7.076   9.396 -2.4098  2.2424  0.3029
20151SOL    HW266546   0.754   7.113   9.510 -0.5139 -0.2620 -0.3031
20152SOL     OW66547   7.099   5.605   6.756  0.5713 -0.0191  0.6399
20152SOL    HW166548   7.073   5.679   6.812 -0.5641  1.0828 -1.2365
20152SOL    HW266549   7.045   5.532   6.786 -1.3265  1.0159 -0.0983
20153SOL     OW66550   2.751   8.696   2.462 -0.0893  0.0096  0.3316
20153SOL    HW166551   2.728   8.726   2.375  1.6166  1.0500  0.1835
20153SOL    HW266552   2.690   8.740   2.520 -0.1608  0.6386 -0.2178
20154SOL     OW66553   6.002  10.615   7.090 -0.0634 -0.5301 -0.5151
20154SOL    HW166554   5.942  10.690   7.088 -1.9418 -1.9568 -0.2750
20154SOL    HW266555   5.968  10.555   7.024  0.9974 -1.4931 -0.2150
20155SOL     OW66556   9.437   8.154   1.609 -0.1905  0.1303  0.0414
20155SOL    HW166557   9.400   8.074   1.570  0.6954  0.3245 -1.2441
20155SOL    HW266558   9.397   8.225   1.559  1.4024  0.3649 -0.9728
20156SOL     OW66559   1.565  10.714   1.222 -0.3351 -0.0469  0.4327
20156SOL    HW166560   1.619  10.751   1.292 -0.4703 -0.6719  0.8736
20156SOL    HW266561   1.582  10.620   1.226  0.4341  0.0011 -1.0299
20157SOL     OW66562   0.845   7.457   0.662  0.3146  0.2994 -0.0694
20157SOL    HW166563   0.912   7.457   0.730 -0.2193 -1.7240  0.5283
20157SOL    HW266564   0.895   7.463   0.580  0.9849  2.3108  0.4269
20158SOL     OW66565   3.956   3.034   4.071  0.4407  0.4093 -0.3839
20158SOL    HW166566   4.033   3.085   4.096  1.5014 -1.4475  0.4102
20158SOL    HW266567   3.901   3.033   4.150  1.3591 -1.2030  0.3001
20159SOL     OW66568  10.641  10.571   3.983  0.4854  0.0813  0.3702
20159SOL    HW166569  10.644  10.657   3.941 -0.4038  0.4910  1.1067
20159SOL    HW266570  10.561  10.531   3.951  0.7946 -0.3961  0.1848
20160SOL     OW66571   0.570   7.114   8.336  0.3275  0.5438  0.6666
20160SOL    HW166572   0.482   7.140   8.363 -0.3209 -0.3875 -0.4750
20160SOL    HW266573   0.627   7.177   8.380 -0.8737  1.0168  1.6299
20161SOL     OW66574   2.271   7.511   3.308 -0.1372 -0.7989  0.5025
20161SOL    HW166575   2.265   7.596   3.264  1.6107 -1.1055 -0.3931
20161SOL    HW266576   2.297   7.533   3.398 -0.3145 -0.3568  0.4499
20162SOL     OW66577   4.712   2.415   0.770  0.4876  0.1079  0.0766
20162SOL    HW166578   4.691   2.340   0.714  1.8164  0.5484 -1.0524
20162SOL    HW266579   4.805   2.432   0.753  1.8365 -1.4498  4.3936
20163SOL     OW66580   3.027   7.868   9.689  0.7763  0.3633  0.0005
20163SOL    HW166581   3.051   7.953   9.652  0.2392  0.4966 -0.0474
20163SOL    HW266582   2.972   7.890   9.764  1.4877  0.0849  0.6190
20164SOL     OW66583   1.961   7.170   2.908 -0.3714 -0.1873 -0.2738
20164SOL    HW166584   2.033   7.117   2.873  1.3495  1.1246  1.0984
20164SOL    HW266585   1.946   7.136   2.996  0.1169  0.9470  0.2735
20165SOL     OW66586   8.829   8.079   8.929 -0.4396 -0.0905 -0.2209
20165SOL    HW166587   8.808   8.171   8.941  1.9436  0.9644 -2.8748
20165SOL    HW266588   8.783   8.054   8.849  0.5204 -0.5878 -0.6372
20166SOL     OW66589   3.873   4.583   7.769  0.1566  0.1856 -0.2145
20166SOL    HW166590   3.886   4.496   7.731  1.3594  0.3177 -0.1414
20166SOL    HW266591   3.876   4.643   7.694  1.0338  0.3058 -0.0996
20167SOL     OW66592   0.655   0.801   5.858 -0.1516 -0.1366  0.1410
20167SOL    HW166593   0.605   0.724   5.833  3.1465 -1.8419 -1.7608
20167SOL    HW266594   0.737   0.767   5.892  1.1391  2.5244 -0.0399
20168SOL     OW66595   6.826   2.063   0.422  0.4344  0.0582 -0.3135
20168SOL    HW166596   6.822   1.974   0.456  0.4850  0.3554  0.4956
20168SOL    HW266597   6.735   2.086   0.404  0.4967 -0.4891 -1.4613
20169SOL     OW66598   6.229   0.979   4.003  0.2930  0.0567 -0.0217
20169SOL    HW166599   6.274   0.982   4.088  2.8852 -2.1483 -1.1355
20169SOL    HW266600   6.257   1.059   3.958  0.3929  0.3449  0.5459
20170SOL     OW66601   2.565   9.010   7.528 -0.0154 -0.0138 -0.0770
20170SOL    HW166602   2.614   9.072   7.473 -2.1368  0.7854 -1.1467
20170SOL    HW266603   2.506   8.966   7.468 -3.4007  1.8340  1.6251
20171SOL     OW66604   4.506   2.905   0.342  0.0533 -0.0050 -0.2274
20171SOL    HW166605   4.418   2.883   0.373  0.2515  0.9777  1.0739
20171SOL    HW266606   4.550   2.820   0.334 -0.8919 -0.4819 -0.5911
20172SOL     OW66607   7.528   0.669   4.554 -0.3458 -0.5757 -0.2875
20172SOL    HW166608   7.615   0.632   4.537  0.4838  1.6668 -1.3250
20172SOL    HW266609   7.537   0.761   4.530 -1.5445  0.9923  4.3676
20173SOL     OW66610   3.826   7.608   1.014  0.0470  0.0628 -0.0784
20173SOL    HW166611   3.746   7.606   1.067 -0.6993 -1.3057 -1.1742
20173SOL    HW266612   3.821   7.529   0.960  1.8637  0.2606 -0.6029
20174SOL     OW66613   4.654   0.679   0.267  0.2230  0.1560  0.1164
20174SOL    HW166614   4.739   0.721   0.268 -0.8296  2.4370  0.7416
20174SOL    HW266615   4.591   0.751   0.257 -1.6168 -1.4784 -0.9237
20175SOL     OW66616   3.690   4.411   8.303  0.0725 -0.4372 -0.1608
20175SOL    HW166617   3.779   4.427   8.272  0.0681  0.7937  0.4101
20175SOL    HW266618   3.689   4.448   8.391 -1.2392  0.3326 -0.4798
20176SOL     OW66619   7.041  10.756   3.311  0.3673 -0.1716 -0.1047
20176SOL    HW166620   7.038  10.821   3.382 -1.0699 -0.3732  0.0413
20176SOL    HW266621   6.981  10.687   3.339  1.5573 -1.3940 -0.4576
20177SOL     OW66622   7.224   9.890   7.734 -0.2843  0.5052 -0.4421
20177SOL    HW166623   7.254   9.864   7.821 -0.0270  1.1947 -0.3243
20177SOL    HW266624   7.268   9.828   7.675 -1.8383 -1.1094  0.0204
20178SOL     OW66625   9.439   1.136   1.144 -0.0361 -0.9969 -0.0733
20178SOL    HW166626   9.390   1.054   1.132 -0.4556 -0.8565  0.6361
20178SOL    HW266627   9.416   1.189   1.068 -1.6399 -0.6189  0.6372
20179SOL     OW66628   1.870   5.725   4.310 -0.5990 -0.4685  0.3262
20179SOL    HW166629   1.817   5.803   4.331  0.9940  0.3830  1.3581
20179SOL    HW266630   1.946   5.760   4.263 -1.1198 -1.7246 -1.5587
20180SOL     OW66631   7.994   6.282   6.250 -0.4277  0.0169  0.5929
20180SOL    HW166632   8.055   6.294   6.323  0.5986 -1.5808  0.0482
20180SOL    HW266633   8.004   6.190   6.226  1.1353  0.9847 -3.1473
20181SOL     OW66634   4.374   1.532   3.332  0.5320  0.8905  0.2345
20181SOL    HW166635   4.303   1.496   3.385  0.8756 -0.8307 -0.3995
20181SOL    HW266636   4.432   1.457   3.315  1.9136  2.0070 -0.2029
20182SOL     OW66637   9.636   7.285   3.870 -0.2016  0.2936  0.0092
20182SOL    HW166638   9.561   7.230   3.893 -1.0432  2.3746  2.8617
20182SOL    HW266639   9.690   7.286   3.950  2.3897 -0.3095 -1.6195
20183SOL     OW66640   3.959   2.435   8.229 -0.2374  0.1659  0.6783
20183SOL    HW166641   3.922   2.438   8.317  0.6216  0.6867  1.0413
20183SOL    HW266642   3.996   2.522   8.215 -0.1005 -0.0021 -0.0785
20184SOL     OW66643   0.720   1.996   0.527  0.0426 -0.2120 -0.0561
20184SOL    HW166644   0.635   2.032   0.506  0.4680  1.2403  0.6020
20184SOL    HW266645   0.702   1.928   0.593 -0.6169 -0.0533 -0.0695
20185SOL     OW66646   8.395   7.816   3.353  0.1152 -0.5267 -0.4975
20185SOL    HW166647   8.473   7.776   3.315 -0.6881 -1.4096 -1.2829
20185SOL    HW266648   8.336   7.742   3.370 -2.5221  0.3101 -4.4793
20186SOL     OW66649   5.004   6.759   5.098  0.3323  0.0156  0.3932
20186SOL    HW166650   5.046   6.747   5.013 -0.4443  1.9308 -0.3158
20186SOL    HW266651   4.925   6.706   5.094 -0.2163  0.8771 -0.4869
20187SOL     OW66652   4.260   3.634   3.403  0.6229 -0.7565 -0.4257
20187SOL    HW166653   4.187   3.660   3.460  0.4837 -3.6132  0.9031
20187SOL    HW266654   4.321   3.708   3.406 -1.0640  0.6697  0.4686
20188SOL     OW66655   0.427   8.755   7.445 -0.5193  1.0177 -0.0832
20188SOL    HW166656   0.354   8.817   7.436  0.2527  2.0031  0.2587
20188SOL    HW266657   0.494   8.788   7.386 -1.1483 -1.1996 -2.1940
20189SOL     OW66658   3.052   1.913   5.825  0.0459  0.4136  0.0878
20189SOL    HW166659   3.032   1.820   5.820  0.5114  0.3298 -0.2679
20189SOL    HW266660   3.091   1.934   5.741  1.1478  0.6391  0.6440
20190SOL     OW66661   4.785   3.452   2.559  0.2411 -0.0231 -0.2817
20190SOL    HW166662   4.849   3.440   2.629 -1.7401  0.2262  1.6635
20190SOL    HW266663   4.781   3.367   2.515  0.3875 -0.6649  0.9179
20191SOL     OW66664   1.307  10.387   0.579  0.1592  0.6931  0.5952
20191SOL    HW166665   1.233  10.385   0.641 -0.2016  1.4557  0.2089
20191SOL    HW266666   1.384  10.368   0.633 -0.5203 -2.6084  0.5962
20192SOL     OW66667   2.776  10.908   2.104  0.7903 -0.3877  0.6689
20192SOL    HW166668   2.682  10.918   2.119  0.6633  2.3891 -1.2113
20192SOL    HW266669   2.783  10.872   2.016  1.4519  0.4895  0.3457
20193SOL     OW66670   5.356   4.055   4.212  0.0162  0.7891 -0.2359
20193SOL    HW166671   5.342   4.075   4.304 -0.0428  0.7960 -0.2466
20193SOL    HW266672   5.379   4.138   4.172  0.1271  0.7708 -0.2113
20194SOL     OW66673   9.685   8.701   6.577  0.4292 -0.3119  0.2046
20194SOL    HW166674   9.637   8.753   6.513  1.6530 -0.7755 -1.1358
20194SOL    HW266675   9.718   8.766   6.640 -0.2280  0.2245  0.0029
20195SOL     OW66676   2.893   9.845   9.481 -0.1765 -0.4546  0.4378
20195SOL    HW166677   2.813   9.797   9.461 -0.2166 -0.2718  0.1464
20195SOL    HW266678   2.908   9.899   9.403  0.9404 -1.4415 -0.0706
20196SOL     OW66679   5.332  10.551   5.582  0.2860  0.3140 -0.3175
20196SOL    HW166680   5.396  10.543   5.511 -1.0124 -0.6524 -1.4421
20196SOL    HW266681   5.304  10.461   5.599 -1.6037  0.7753 -0.6930
20197SOL     OW66682   2.734   1.534   1.326 -0.3726  0.3664 -0.6113
20197SOL    HW166683   2.825   1.561   1.321 -0.3888  0.2316 -2.3312
20197SOL    HW266684   2.684   1.613   1.306 -0.5553  0.1017 -1.2584
20198SOL     OW66685   8.099   4.248   9.127 -0.3604  0.2175  0.5933
20198SOL    HW166686   8.187   4.262   9.092 -0.4264 -0.3018  0.1974
20198SOL    HW266687   8.065   4.336   9.144 -0.4050  0.5097 -0.8661
20199SOL     OW66688   2.476   3.750   6.657 -0.1205 -0.5896  0.3555
20199SOL    HW166689   2.505   3.665   6.624  1.1355 -0.4669  1.0939
20199SOL    HW266690   2.429   3.730   6.738 -0.7627 -0.6563 -0.0259
20200SOL     OW66691   2.209   3.438   1.325  0.3107 -0.6470 -0.5042
20200SOL    HW166692   2.261   3.362   1.350 -1.0003 -1.0123  1.2805
20200SOL    HW266693   2.130   3.402   1.285  0.4114 -0.1564 -1.1654
20201SOL     OW66694   1.550   9.231  10.137  0.0930  0.2171 -0.6585
20201SOL    HW166695   1.559   9.273  10.223  1.2488 -1.0649 -0.1166
20201SOL    HW266696   1.543   9.305  10.076  2.4948  1.2911  0.2085
20202SOL     OW66697   2.445  10.035   8.933 -0.4005 -0.7157 -0.1992
20202SOL    HW166698   2.439  10.060   8.841  1.0102 -1.1985 -0.4491
20202SOL    HW266699   2.443  10.117   8.981  1.8515 -0.2092 -0.8618
20203SOL     OW66700   0.088   2.964   5.174 -0.0109  0.1302 -0.0385
20203SOL    HW166701   0.054   2.875   5.169 -0.1428  0.1919 -0.2353
20203SOL    HW266702   0.158   2.959   5.240  1.4809 -0.6141 -1.5916
20204SOL     OW66703   0.809   6.536   7.834  0.6057 -0.3256 -0.2293
20204SOL    HW166704   0.807   6.601   7.903 -1.3703 -2.0029  1.4526
20204SOL    HW266705   0.885   6.559   7.780  0.5866  2.6624  0.8659
20205SOL     OW66706   1.285   7.088   8.982  0.5497  0.4089  0.0072
20205SOL    HW166707   1.226   7.159   8.956 -0.8915 -0.6376  0.2696
20205SOL    HW266708   1.300   7.039   8.901 -0.5362 -0.4245  0.2786
20206SOL     OW66709  10.489   1.727   1.627 -0.0092  0.1496 -0.0458
20206SOL    HW166710  10.564   1.695   1.577  0.2113 -1.0942  1.0358
20206SOL    HW266711  10.421   1.662   1.613 -0.7662  1.0563 -0.6754
20207SOL     OW66712   1.952   7.050   3.969  0.0959 -0.0570 -1.0317
20207SOL    HW166713   2.035   7.060   4.016 -0.7308 -0.3268  0.5606
20207SOL    HW266714   1.944   6.955   3.955  0.2900  0.0137 -1.6391
20208SOL     OW66715   7.012   0.208  10.399 -0.4365 -0.4908  0.3110
20208SOL    HW166716   6.961   0.134  10.366 -0.9536 -0.4226  0.9363
20208SOL    HW266717   7.082   0.167  10.452 -0.9001 -0.5296  0.9029
20209SOL     OW66718   3.375   5.855   2.616 -0.2463 -0.0354  0.4183
20209SOL    HW166719   3.465   5.865   2.646  0.4590 -1.6721 -0.9405
20209SOL    HW266720   3.365   5.922   2.547  1.0568 -1.8036 -1.6283
20210SOL     OW66721   2.845   4.462   9.785 -0.0024  0.0803 -0.9277
20210SOL    HW166722   2.786   4.429   9.852  1.0131 -0.3722 -0.2435
20210SOL    HW266723   2.801   4.443   9.702 -0.3191 -1.2479 -0.4633
20211SOL     OW66724   2.818   0.819   0.590  0.1461 -0.0606  0.0362
20211SOL    HW166725   2.900   0.770   0.601 -0.7857 -1.9276 -1.0071
20211SOL    HW266726   2.813   0.837   0.496 -0.0078  1.2584  0.2693
20212SOL     OW66727   3.753   1.958   1.261  0.3873  0.1175 -0.1595
20212SOL    HW166728   3.807   2.035   1.276  0.5622  0.1416 -0.8422
20212SOL    HW266729   3.721   1.969   1.171  0.0254 -0.3650 -0.0919
20213SOL     OW66730  10.917   8.324   6.317  0.0708 -0.5511 -0.0569
20213SOL    HW166731  10.832   8.343   6.357  0.9564  1.3357  1.0510
20213SOL    HW266732  10.917   8.373   6.234  0.8825  1.3461  1.0025
20214SOL     OW66733   0.432  10.332   7.193 -0.2497 -0.1876 -0.9309
20214SOL    HW166734   0.522  10.353   7.219 -0.5060 -1.0905  0.8441
20214SOL    HW266735   0.385  10.415   7.196  0.1020 -0.0168  0.0191
20215SOL     OW66736   6.570   8.343   9.817  0.0117 -0.1005  0.0504
20215SOL    HW166737   6.491   8.290   9.827 -0.0914  0.0124 -0.1459
20215SOL    HW266738   6.538   8.433   9.824 -0.3157  0.0739 -2.6124
20216SOL     OW66739   3.672   4.306   8.866  0.3423 -0.6750  0.0805
20216SOL    HW166740   3.602   4.254   8.906 -0.3954  0.4791  0.3256
20216SOL    HW266741   3.634   4.337   8.783  0.4019  0.3013  0.4114
20217SOL     OW66742   4.385   8.676   2.109 -0.0701 -0.2526 -0.7169
20217SOL    HW166743   4.300   8.633   2.096  0.3379 -1.1139 -0.5927
20217SOL    HW266744   4.366   8.770   2.096 -1.2683 -0.3003  0.4674
20218SOL     OW66745   6.535   4.754   6.873  0.2867 -0.3289 -0.7574
20218SOL    HW166746   6.503   4.758   6.783 -0.9133  0.0249 -0.3348
20218SOL    HW266747   6.505   4.669   6.905 -1.0455  0.3651 -0.0821
20219SOL     OW66748   9.502   9.639   2.920  0.1184  0.5786 -0.0444
20219SOL    HW166749   9.476   9.730   2.939 -1.6605  0.1456 -0.1620
20219SOL    HW266750   9.572   9.620   2.982 -0.4726  1.5741  0.9699
20220SOL     OW66751   7.354   0.737  10.421  0.1274 -0.0890 -0.4078
20220SOL    HW166752   7.389   0.710  10.336 -0.9828 -1.0011 -0.6004
20220SOL    HW266753   7.344   0.655  10.470 -1.3332  0.1784 -0.2278
20221SOL     OW66754   5.193  10.476   2.657 -0.4084 -0.6271 -0.6585
20221SOL    HW166755   5.110  10.520   2.639  0.0044  0.6770  0.5417
20221SOL    HW266756   5.260  10.542   2.640  0.2561 -0.9621  0.5778
20222SOL     OW66757   1.685   4.947   9.816  0.1320  0.5741 -0.1984
20222SOL    HW166758   1.750   4.915   9.879  2.8630  1.2244 -2.4344
20222SOL    HW266759   1.625   4.999   9.868  0.4240 -1.3615  2.2670
20223SOL     OW66760   9.746  10.596   2.936 -0.0618  0.0394  0.5640
20223SOL    HW166761   9.717  10.562   2.851  1.6498 -0.9937  0.3245
20223SOL    HW266762   9.678  10.570   2.997 -1.6815  1.4099 -0.5625
20224SOL     OW66763   7.821   4.038   1.093 -0.0800 -0.3647  0.4200
20224SOL    HW166764   7.847   4.012   1.005 -0.6255  0.6668 -0.0709
20224SOL    HW266765   7.836   3.961   1.147  0.5976 -0.8997 -0.5094
20225SOL     OW66766   8.844   2.934   0.322 -0.2686 -0.1782  0.3370
20225SOL    HW166767   8.929   2.921   0.364 -1.2113 -0.4923  2.2737
20225SOL    HW266768   8.847   2.880   0.243  1.4447  0.1263  0.1683
20226SOL     OW66769   4.798   5.198   0.271  0.2066 -0.7328  0.2993
20226SOL    HW166770   4.708   5.170   0.258 -0.2467  0.3411  1.0493
20226SOL    HW266771   4.806   5.279   0.221  0.9687 -1.1938 -0.3442
20227SOL     OW66772   5.294   7.288   8.177 -0.0529  0.7480 -0.0988
20227SOL    HW166773   5.378   7.258   8.141 -0.0059  2.6081 -1.6781
20227SOL    HW266774   5.253   7.208   8.211  0.5600 -0.9274 -2.9834
20228SOL     OW66775   5.119   9.347   9.130  0.3156  0.2123 -0.1131
20228SOL    HW166776   5.028   9.368   9.152  0.2597  0.8753 -0.9395
20228SOL    HW266777   5.125   9.360   9.035  1.3961  0.6684 -0.0004
20229SOL     OW66778  10.613   8.004  10.007 -0.1623  0.1917  0.0701
20229SOL    HW166779  10.544   7.980   9.944 -0.6406  1.3884  0.1072
20229SOL    HW266780  10.642   8.090   9.978  0.8180  0.0077  0.4938
20230SOL     OW66781   5.394   0.321   2.801 -0.1533  0.1519  0.7294
20230SOL    HW166782   5.341   0.282   2.731 -0.8440  1.4291  0.5056
20230SOL    HW266783   5.370   0.273   2.880 -0.0698 -0.6755  0.2615
20231SOL     OW66784   6.668   3.842   7.512  1.0365 -0.6531 -0.3597
20231SOL    HW166785   6.679   3.837   7.607 -1.1157 -0.6317 -0.0456
20231SOL    HW266786   6.653   3.935   7.495 -2.2407 -1.0080 -0.1266
20232SOL     OW66787   5.504  10.558   7.177  0.1686  0.9950 -0.2941
20232SOL    HW166788   5.588  10.528   7.212  0.9074  2.1423 -1.0047
20232SOL    HW266789   5.452  10.579   7.255 -0.1312 -1.3554  0.1961
20233SOL     OW66790  10.560  10.839   6.524 -0.1960 -0.2472  0.1849
20233SOL    HW166791  10.574  10.748   6.498  0.6748  0.1890 -0.9590
20233SOL    HW266792  10.489  10.869   6.467 -0.5674 -0.2339  0.6475
20234SOL     OW66793   2.669   5.346   6.738  0.6291  0.1325 -0.0378
20234SOL    HW166794   2.679   5.434   6.703  1.6594 -0.5005 -1.4338
20234SOL    HW266795   2.729   5.344   6.813  1.5675  0.2479 -0.7658
20235SOL     OW66796   0.504   6.279   9.027  0.0971  0.4532  0.5898
20235SOL    HW166797   0.592   6.278   8.990  0.0270 -0.5798  0.4239
20235SOL    HW266798   0.447   6.303   8.953  0.2018  0.8199  0.6254
20236SOL     OW66799   0.801   5.748   9.849 -0.4149 -0.0231 -0.1424
20236SOL    HW166800   0.761   5.663   9.865 -2.3056  1.2795  3.0178
20236SOL    HW266801   0.823   5.781   9.936  0.8515  2.4665 -1.3008
20237SOL     OW66802   7.088   5.093   7.670 -0.1359 -0.3873  0.0286
20237SOL    HW166803   7.142   5.112   7.594  0.6925 -0.4097  0.5989
20237SOL    HW266804   7.135   5.133   7.744 -1.8623  1.3047  0.3039
20238SOL     OW66805   3.711  10.915   0.546 -0.1992  0.0840  0.0958
20238SOL    HW166806   3.713  10.819   0.547 -1.2353 -0.0982 -3.1321
20238SOL    HW266807   3.800  10.941   0.570  1.0567 -1.8786 -2.0009
20239SOL     OW66808   2.182   4.645   3.864  0.4064  0.5047  0.4782
20239SOL    HW166809   2.244   4.624   3.794  0.8076  2.9988 -0.0169
20239SOL    HW266810   2.182   4.741   3.868 -2.8475  0.6221  0.9465
20240SOL     OW66811   3.731   8.866   0.742  0.1932 -0.2070  0.1713
20240SOL    HW166812   3.644   8.852   0.779  0.4664 -0.2908  0.7832
20240SOL    HW266813   3.790   8.817   0.799  1.0188  2.2183  1.5628
20241SOL     OW66814   4.143   8.670   6.921 -0.1400 -0.7296 -0.1224
20241SOL    HW166815   4.079   8.601   6.936 -0.5060 -0.4747 -0.5005
20241SOL    HW266816   4.097   8.752   6.941  0.5511 -0.6312  1.1868
20242SOL     OW66817   2.414   8.627   2.732 -0.0214 -0.1455  0.2345
20242SOL    HW166818   2.370   8.582   2.660  0.9650  0.5741 -0.8645
20242SOL    HW266819   2.465   8.696   2.689  1.0322 -0.0473  1.5696
20243SOL     OW66820   9.422   7.112   3.876 -0.0074  0.3634 -0.0447
20243SOL    HW166821   9.375   7.148   3.801 -0.0539 -1.0206 -0.7135
20243SOL    HW266822   9.450   7.025   3.848  1.2018  0.3588  1.0618
20244SOL     OW66823   0.299   7.810   8.954 -0.4864 -0.4484 -0.0049
20244SOL    HW166824   0.358   7.806   9.029 -0.9764 -0.5851  0.3728
20244SOL    HW266825   0.327   7.889   8.907 -0.0626 -0.4610  0.2182
20245SOL     OW66826   6.467   6.124   9.588  0.1350 -0.2255  0.3239
20245SOL    HW166827   6.552   6.088   9.614  0.3678  0.5413  0.6682
20245SOL    HW266828   6.403   6.078   9.643  0.3685 -0.5489  0.3242
20246SOL     OW66829   6.654   9.312   9.508  0.0965  0.4037  0.4761
20246SOL    HW166830   6.637   9.234   9.456 -0.4887  0.5058  0.5078
20246SOL    HW266831   6.573   9.363   9.503  0.2078  0.6539  1.0739
20247SOL     OW66832  10.128   1.362   8.721  0.4539  0.0130  0.1332
20247SOL    HW166833  10.054   1.420   8.703 -1.5394 -2.3154  0.2378
20247SOL    HW266834  10.126   1.349   8.816  1.6662  0.6898  0.2771
20248SOL     OW66835   9.864   1.887   2.166 -0.4963  0.5553  0.1336
20248SOL    HW166836   9.851   1.900   2.072 -0.3807 -1.4738 -0.2158
20248SOL    HW266837   9.909   1.803   2.173  0.1059  0.9757  1.9865
20249SOL     OW66838   0.333   9.719   3.826 -0.0600 -0.1442  0.1341
20249SOL    HW166839   0.260   9.704   3.887  0.5439 -0.2320  0.8466
20249SOL    HW266840   0.391   9.644   3.841  1.1852  0.9620  1.0609
20250SOL     OW66841   7.996   0.466   4.598  0.1627 -0.2095 -0.0347
20250SOL    HW166842   7.962   0.517   4.672 -1.0578 -2.2588  0.8835
20250SOL    HW266843   8.069   0.417   4.634 -0.4375 -1.2213 -0.1661
20251SOL     OW66844   0.648   2.179  10.164 -0.3936  0.7112 -0.1019
20251SOL    HW166845   0.662   2.103  10.107  0.0919  1.5750 -1.1664
20251SOL    HW266846   0.726   2.181  10.220  0.5545  1.5357 -1.3982
20252SOL     OW66847   4.827   3.371   1.926 -0.0849  0.3674  0.6787
20252SOL    HW166848   4.811   3.391   2.018  2.1065  1.6563  0.8462
20252SOL    HW266849   4.780   3.439   1.877 -2.5419 -1.2006  0.6946
20253SOL     OW66850   1.027  10.170   1.801  0.7278  0.4291 -0.3248
20253SOL    HW166851   0.950  10.115   1.786 -0.2165  1.8393 -0.7387
20253SOL    HW266852   1.100  10.107   1.804 -0.7204 -1.3796  3.5285
20254SOL     OW66853   5.108   5.383   7.930 -0.0192 -1.0388  0.1344
20254SOL    HW166854   5.030   5.417   7.974  0.2346  2.0998 -1.5234
20254SOL    HW266855   5.074   5.329   7.859 -0.6458 -0.6342  0.1205
20255SOL     OW66856   3.373   2.045   8.302 -0.4718  0.0407  0.2172
20255SOL    HW166857   3.428   2.117   8.272  0.3354 -0.0484  1.3930
20255SOL    HW266858   3.428   1.997   8.365 -1.2599 -1.1465  0.0469
20256SOL     OW66859   5.186  10.351   8.206  0.2125  0.1200 -0.5225
20256SOL    HW166860   5.227  10.269   8.233  0.4633 -0.4722 -2.5284
20256SOL    HW266861   5.172  10.399   8.287  2.1600 -0.9378  0.5054
20257SOL     OW66862   7.907   9.855   7.046  0.0886  0.1640  0.5018
20257SOL    HW166863   7.830   9.888   7.092  0.4747  1.9253 -0.0422
20257SOL    HW266864   7.966   9.825   7.115 -1.3314 -1.9223  0.9053
20258SOL     OW66865   0.747   9.141   9.057 -0.3863  0.0072 -0.7129
20258SOL    HW166866   0.767   9.145   9.150 -2.6088 -0.4548 -0.1710
20258SOL    HW266867   0.664   9.187   9.048  0.4689  1.2787 -2.7107
20259SOL     OW66868   1.172   4.816   0.958 -0.2635 -0.6788 -0.5111
20259SOL    HW166869   1.205   4.906   0.959 -1.9963 -0.0177 -0.0021
20259SOL    HW266870   1.179   4.790   0.866 -0.0868  0.1103 -0.7336
20260SOL     OW66871   7.800   1.113   9.336 -0.4405 -0.8328 -0.1310
20260SOL    HW166872   7.751   1.120   9.254  1.0866  0.6226 -0.9669
20260SOL    HW266873   7.787   1.197   9.379  1.2963 -0.4159 -0.3762
20261SOL     OW66874   5.740   8.747   1.956  0.3716  0.3348  0.6560
20261SOL    HW166875   5.828   8.720   1.929 -0.4439 -1.1988 -0.6272
20261SOL    HW266876   5.752   8.781   2.045  2.4094  1.1547  0.1274
20262SOL     OW66877   3.570  10.399   9.918  0.0754  0.6482  0.2499
20262SOL    HW166878   3.537  10.339   9.851  0.6877 -0.4485  0.9070
20262SOL    HW266879   3.498  10.408   9.980 -0.6546  2.0101 -0.7316
20263SOL     OW66880   1.106   6.163   7.662 -0.1204 -0.0499  0.3724
20263SOL    HW166881   1.125   6.164   7.568 -1.1091 -1.2867  0.1257
20263SOL    HW266882   1.022   6.118   7.669 -0.1012  0.0874  1.8525
20264SOL     OW66883   8.044   0.655   3.570 -0.1239 -0.3230 -0.4779
20264SOL    HW166884   8.112   0.710   3.530  0.6440 -0.2895  0.8069
20264SOL    HW266885   7.964   0.706   3.562  0.2453  0.2062 -0.8712
20265SOL     OW66886   7.878   4.479   6.606 -0.0989 -0.2741 -0.0898
20265SOL    HW166887   7.910   4.452   6.692  0.8184 -1.7940 -0.8519
20265SOL    HW266888   7.853   4.571   6.616  0.7418 -0.2067  1.5806
20266SOL     OW66889  10.443   1.923   2.549  0.2174  0.6476 -0.4911
20266SOL    HW166890  10.351   1.947   2.538 -0.1784 -0.3789  0.4502
20266SOL    HW266891  10.446   1.829   2.531  1.2028  0.7901 -1.1558
20267SOL     OW66892   2.879   5.053   5.359 -0.0738 -0.4490 -0.1121
20267SOL    HW166893   2.854   5.094   5.276 -0.0693 -0.3347 -0.0583
20267SOL    HW266894   2.801   5.006   5.388 -0.3933  0.3114  0.2982
20268SOL     OW66895   4.331   8.318  10.553  0.3041 -0.0644  0.1577
20268SOL    HW166896   4.380   8.283  10.627  0.7763 -0.4473 -0.3198
20268SOL    HW266897   4.303   8.240  10.505  0.7098  0.1837 -0.5031
20269SOL     OW66898   2.602   4.221   6.042  0.4057  0.5164  0.1530
20269SOL    HW166899   2.555   4.265   6.113 -0.7953 -0.5332  0.0412
20269SOL    HW266900   2.693   4.217   6.072  0.3511  2.0412  0.6401
20270SOL     OW66901   2.434   2.917   0.955 -0.3295 -0.5356  0.3448
20270SOL    HW166902   2.460   2.873   1.036 -0.0021 -2.2663 -0.6355
20270SOL    HW266903   2.482   2.871   0.886 -2.3702 -0.7150 -1.0669
20271SOL     OW66904   1.462   7.998   3.021 -0.5632 -0.6481 -0.0387
20271SOL    HW166905   1.460   8.088   3.053 -0.6817 -0.2174 -1.2219
20271SOL    HW266906   1.374   7.982   2.988 -0.9246 -1.6561  1.3324
20272SOL     OW66907   8.449   6.325   5.067 -0.1386 -0.3229  0.3045
20272SOL    HW166908   8.515   6.374   5.018  2.1028 -2.3401  1.1171
20272SOL    HW266909   8.384   6.300   5.001 -0.0953  1.6214 -0.5387
20273SOL     OW66910   5.502   6.256   6.830 -0.5120  0.3789 -0.5616
20273SOL    HW166911   5.587   6.257   6.875 -0.0256 -0.6722 -1.3851
20273SOL    HW266912   5.443   6.213   6.891 -0.1446  0.0398 -0.4369
20274SOL     OW66913   3.636   7.403  10.598  0.3210  0.3133  0.0352
20274SOL    HW166914   3.604   7.365  10.516 -1.3709  2.8206 -0.5645
20274SOL    HW266915   3.663   7.328  10.650 -0.6318 -1.5114 -1.9475
20275SOL     OW66916   4.928   6.342   5.087 -0.4199  0.0794  0.7641
20275SOL    HW166917   4.869   6.412   5.114  0.1288  0.9391 -0.2462
20275SOL    HW266918   4.870   6.274   5.053 -0.8316  1.0526 -0.5320
20276SOL     OW66919   0.319  10.383   4.714 -0.5303  0.0936 -0.6802
20276SOL    HW166920   0.312  10.477   4.730  0.5162  0.0053  0.3936
20276SOL    HW266921   0.364  10.376   4.631 -0.5508  0.5385 -0.7305
20277SOL     OW66922   7.945   2.840   6.027  0.2788 -0.8234  0.0785
20277SOL    HW166923   7.985   2.779   5.965  1.2792 -0.0192 -0.0909
20277SOL    HW266924   7.851   2.835   6.007  0.5255 -0.9670 -1.1483
20278SOL     OW66925   9.691   7.087   5.516  0.1182 -0.2000  0.3923
20278SOL    HW166926   9.787   7.086   5.521  0.2243 -0.6494 -1.1450
20278SOL    HW266927   9.663   7.004   5.554  0.4320 -0.5751 -0.1705
20279SOL     OW66928   5.368  10.412  10.057  0.3548 -0.3769  0.2574
20279SOL    HW166929   5.377  10.502  10.026  0.2587 -0.2346  0.6362
20279SOL    HW266930   5.454  10.391  10.094 -0.3985  0.5441  2.7309
20280SOL     OW66931   4.547   4.361   5.990 -0.2860  0.3148 -0.6218
20280SOL    HW166932   4.617   4.369   5.925  0.0425  2.3717 -0.0957
20280SOL    HW266933   4.581   4.407   6.067 -1.5539 -0.1409  0.2490
20281SOL     OW66934   8.484   9.658   1.350 -0.1201 -0.0171  0.2320
20281SOL    HW166935   8.492   9.682   1.443 -0.1620 -0.6790  0.4114
20281SOL    HW266936   8.558   9.599   1.334 -0.2234 -0.0557 -0.1085
20282SOL     OW66937   3.140   3.465   6.541 -0.6236 -0.0563  0.6060
20282SOL    HW166938   3.223   3.495   6.579  1.9666 -0.3398 -4.0099
20282SOL    HW266939   3.087   3.545   6.534  1.8723  1.5832 -1.8317
20283SOL     OW66940   9.333   1.073   8.995  0.2407 -0.0139 -0.1602
20283SOL    HW166941   9.320   0.992   9.044 -1.7311  0.3033 -0.0599
20283SOL    HW266942   9.337   1.141   9.062  1.0970  0.0708 -0.2856
20284SOL     OW66943   8.268   0.022   0.969 -0.0830 -0.5970 -0.7492
20284SOL    HW166944   8.174   0.037   0.960 -0.1407 -0.5821 -0.1736
20284SOL    HW266945   8.309   0.103   0.938 -0.3144 -0.0508  0.3485
20285SOL     OW66946   6.733   1.656   8.961  0.0773  0.9276 -0.4498
20285SOL    HW166947   6.804   1.615   8.910  0.1552  1.0578 -0.4455
20285SOL    HW266948   6.655   1.606   8.936  0.5665 -1.0112  1.5460
20286SOL     OW66949   3.584   9.302   2.352  0.7340 -0.3196  0.1337
20286SOL    HW166950   3.653   9.304   2.419 -0.7350  1.5309  1.7047
20286SOL    HW266951   3.506   9.275   2.399 -0.5352  1.8742 -0.5645
20287SOL     OW66952   3.464   3.476   7.258 -0.0737 -0.2263  0.8677
20287SOL    HW166953   3.449   3.387   7.290 -0.5673 -0.1871  0.7533
20287SOL    HW266954   3.544   3.470   7.207 -0.2645 -0.6674  0.6152
20288SOL     OW66955   5.053   5.643   6.737  0.4097 -0.4300 -0.4042
20288SOL    HW166956   5.081   5.715   6.681  0.5056 -0.4879 -0.4316
20288SOL    HW266957   5.061   5.677   6.827 -0.5588 -0.0428 -0.4458
20289SOL     OW66958   7.127   0.390   8.593 -0.4241 -0.7018 -0.3382
20289SOL    HW166959   7.121   0.358   8.683  0.7665 -0.6826 -0.2426
20289SOL    HW266960   7.077   0.472   8.593 -1.3381 -1.2427  0.0311
20290SOL     OW66961   0.192   2.344   6.607  0.2867  0.1252  0.3700
20290SOL    HW166962   0.135   2.304   6.672 -0.3672  1.0500  0.3853
20290SOL    HW266963   0.263   2.281   6.595 -0.9099 -1.2146  0.0948
20291SOL     OW66964   6.429   1.154   9.859 -0.4134  0.3854  0.2831
20291SOL    HW166965   6.423   1.224   9.924  1.6558  1.6007 -0.7140
20291SOL    HW266966   6.463   1.197   9.781 -1.5228 -1.2935 -1.1971
20292SOL     OW66967   9.052  10.338   0.984  0.2105 -0.3661  0.4679
20292SOL    HW166968   9.138  10.302   1.004  0.6896  0.1370 -0.6211
20292SOL    HW266969   9.055  10.427   1.019  0.3253 -0.1699 -0.0350
20293SOL     OW66970   2.135   3.369   1.634  0.2541  0.3900 -0.2869
20293SOL    HW166971   2.097   3.282   1.623 -0.7230  0.6740  0.6423
20293SOL    HW266972   2.063   3.429   1.619  0.8144  1.0340 -0.4639
20294SOL     OW66973   0.615   0.850   3.486 -0.2091  0.6128  0.2139
20294SOL    HW166974   0.587   0.861   3.395 -0.6354 -0.6261  0.1794
20294SOL    HW266975   0.694   0.904   3.493 -0.7667  1.5844 -0.5798
20295SOL     OW66976   6.284   3.467   4.057 -0.1310  0.1395  0.4297
20295SOL    HW166977   6.368   3.420   4.057 -0.5354 -0.5924  0.3619
20295SOL    HW266978   6.228   3.415   4.115 -1.0244 -0.2740 -0.7626
20296SOL     OW66979   1.317   9.018   0.397 -0.3291 -0.7759 -0.5125
20296SOL    HW166980   1.346   9.020   0.488 -1.2511 -0.2412 -0.2118
20296SOL    HW266981   1.336   8.929   0.367  1.1623 -0.5821 -0.2171
20297SOL     OW66982   3.203   5.898  10.802 -0.0518 -0.1649 -0.1951
20297SOL    HW166983   3.281   5.953  10.808  0.3562 -0.5289 -1.7742
20297SOL    HW266984   3.141   5.950  10.751 -0.6182 -0.1531  0.4848
20298SOL     OW66985   0.245   7.127   7.421  0.1917 -0.6786  0.3167
20298SOL    HW166986   0.293   7.066   7.365  0.9719 -0.2359  0.4823
20298SOL    HW266987   0.153   7.108   7.405  0.3883 -0.2954 -1.4160
20299SOL     OW66988  10.250  10.134   0.367 -0.3953  0.1156  0.2137
20299SOL    HW166989  10.258  10.183   0.449  1.4336  0.0491  0.1092
20299SOL    HW266990  10.296  10.188   0.302  0.4206 -1.0435 -0.2008
20300SOL     OW66991   1.991  10.735   3.516  0.0983 -0.7105  0.6101
20300SOL    HW166992   1.918  10.734   3.454 -0.7814  1.2001  1.5338
20300SOL    HW266993   2.017  10.827   3.521  3.6809 -1.4775 -0.8593
20301SOL     OW66994   3.002  10.314   1.293 -0.3706 -0.4777 -0.0774
20301SOL    HW166995   2.916  10.353   1.307 -0.5318  0.3241 -2.7562
20301SOL    HW266996   2.984  10.221   1.278 -0.8787 -0.2173 -1.1960
20302SOL     OW66997   3.880   9.114   7.328  0.1383  0.3104  0.0098
20302SOL    HW166998   3.900   9.159   7.245  0.1524  0.1101 -0.0958
20302SOL    HW266999   3.924   9.030   7.320  1.0835  0.7247  0.6837
20303SOL     OW67000   6.409   1.286  10.715 -0.3024 -0.1636 -0.3845
20303SOL    HW167001   6.441   1.214  10.769 -0.5883 -0.9531 -1.2462
20303SOL    HW267002   6.467   1.359  10.736  0.3332 -0.7982  0.0997
20304SOL     OW67003   0.819   8.505  10.225  1.0040 -0.2506 -0.3023
20304SOL    HW167004   0.893   8.565  10.217  1.8077 -1.2718 -0.8073
20304SOL    HW267005   0.833   8.462  10.310  2.6093 -2.4472 -1.5622
20305SOL     OW67006   2.499   5.287   3.314  0.0657 -0.2461  0.1327
20305SOL    HW167007   2.552   5.366   3.320 -1.2096  0.5851  1.3600
20305SOL    HW267008   2.520   5.238   3.394 -1.3190  0.3443  0.8984
20306SOL     OW67009   2.726   8.070   7.686 -0.2153 -0.5527 -0.1709
20306SOL    HW167010   2.660   8.035   7.626 -1.3304  0.7103  0.2769
20306SOL    HW267011   2.746   8.157   7.652  1.0384 -0.8095 -0.1374
20307SOL     OW67012   1.057  10.651  10.525 -0.5586  0.5371 -0.3524
20307SOL    HW167013   1.012  10.638  10.609  0.5411 -1.5339 -0.0109
20307SOL    HW267014   1.111  10.729  10.538 -2.4812  1.9074 -0.1279
20308SOL     OW67015   0.446   1.135   2.784 -0.4605 -0.0751  0.5318
20308SOL    HW167016   0.442   1.212   2.728  2.3383 -1.6130 -2.0259
20308SOL    HW267017   0.520   1.151   2.843  0.3588 -0.8943 -0.2457
20309SOL     OW67018  10.639   3.577   5.444 -0.3273 -0.2345  0.2560
20309SOL    HW167019  10.706   3.549   5.507  1.0452  0.4275 -0.8589
20309SOL    HW267020  10.677   3.654   5.402 -1.7201  0.0306 -0.5613
20310SOL     OW67021   2.190  10.885   0.942  0.1508  0.0305  0.4253
20310SOL    HW167022   2.238  10.851   0.867  1.5975 -0.9362  1.7105
20310SOL    HW267023   2.143  10.961   0.909 -0.0255 -0.9349 -1.6509
20311SOL     OW67024   9.841   6.885   4.680  0.3712  0.7595  0.1994
20311SOL    HW167025   9.841   6.808   4.623 -0.3060 -0.2044  1.4566
20311SOL    HW267026   9.766   6.872   4.738  0.0664  2.5258  0.2535
20312SOL     OW67027   0.370   9.050  10.156 -0.3716  0.5094  0.3241
20312SOL    HW167028   0.278   9.057  10.183 -0.7506  0.0982 -0.8006
20312SOL    HW267029   0.384   8.956  10.144  0.4509  0.4927  1.2782
20313SOL     OW67030   9.593   8.862   2.478 -0.6441  0.2838 -0.1398
20313SOL    HW167031   9.591   8.824   2.566 -1.0028  0.5281 -0.0391
20313SOL    HW267032   9.659   8.811   2.432 -1.2196 -0.5619 -0.0538
20314SOL     OW67033   1.502   2.644   0.439  0.2509 -0.0191  0.0140
20314SOL    HW167034   1.479   2.647   0.532 -1.2484  1.3091 -0.3542
20314SOL    HW267035   1.417   2.640   0.394  0.9595 -0.7437 -1.3037
20315SOL     OW67036   6.545   2.215   7.847 -0.4010 -0.4889  0.2429
20315SOL    HW167037   6.560   2.177   7.761  1.0240 -1.3478  0.8322
20315SOL    HW267038   6.584   2.303   7.841 -0.0193 -0.6673  0.1083
20316SOL     OW67039   4.537   0.086   7.991  0.0974 -0.0465  0.1719
20316SOL    HW167040   4.517  -0.003   7.964 -1.8703  0.4684 -0.2381
20316SOL    HW267041   4.571   0.128   7.912 -1.5884  0.2786 -0.4256
20317SOL     OW67042   0.349   8.913   6.883  0.1207  0.0743  0.0280
20317SOL    HW167043   0.346   8.817   6.888  0.1681  0.0986  0.5417
20317SOL    HW267044   0.324   8.943   6.970  2.1614  0.4969  0.5175
20318SOL     OW67045   4.216   7.155   1.206 -0.1861  0.2142  0.5105
20318SOL    HW167046   4.142   7.145   1.147 -0.0722  2.6717 -0.1778
20318SOL    HW267047   4.200   7.093   1.277 -2.3545 -0.0275 -0.1402
20319SOL     OW67048   4.918   5.821   2.462 -0.7182  0.0637  0.1260
20319SOL    HW167049   4.926   5.782   2.549 -1.9013 -0.3573  0.0693
20319SOL    HW267050   4.850   5.769   2.418 -0.1841  0.2977 -1.0328
20320SOL     OW67051   4.100   8.268   3.691  0.3572  0.0263 -0.3567
20320SOL    HW167052   4.176   8.262   3.749  0.1643 -0.9441 -0.1748
20320SOL    HW267053   4.118   8.343   3.635  0.3657  1.2252  1.2068
20321SOL     OW67054   8.353   0.256  10.080  0.3087  0.0875 -0.0761
20321SOL    HW167055   8.356   0.203  10.160 -1.1693 -0.4603 -0.3608
20321SOL    HW267056   8.445   0.272  10.059  0.7686 -1.4096  0.6580
20322SOL     OW67057   8.913  10.347   3.509  0.3208  0.0708 -0.2065
20322SOL    HW167058   8.927  10.392   3.593  0.8479 -1.0853  0.3402
20322SOL    HW267059   9.001  10.322   3.480 -0.0070 -1.2335 -0.1324
20323SOL     OW67060   0.364   1.094  10.590  0.5107  0.0017  0.1505
20323SOL    HW167061   0.284   1.079  10.539 -0.4409 -0.9974  1.8354
20323SOL    HW267062   0.434   1.058  10.536 -0.5962 -2.0507  0.0019
20324SOL     OW67063  10.112   7.071   7.484 -0.5044  0.3590 -0.0912
20324SOL    HW167064  10.129   6.977   7.479 -0.5284  0.4009 -1.1382
20324SOL    HW267065  10.095   7.087   7.577 -1.9667 -0.9153 -0.0943
20325SOL     OW67066   3.216   1.588   5.812 -0.0686 -0.6765  0.2811
20325SOL    HW167067   3.182   1.510   5.856  0.1661 -0.4955  0.7882
20325SOL    HW267068   3.194   1.574   5.720 -1.9024 -0.3804  0.6283
20326SOL     OW67069   4.480   4.226   6.530  0.5100  0.1276  0.3612
20326SOL    HW167070   4.419   4.271   6.588  0.3625  0.1047  0.2235
20326SOL    HW267071   4.497   4.289   6.459 -0.8728 -0.5794 -0.6433
20327SOL     OW67072   2.454  10.213  10.788 -0.3897  0.1130  0.2391
20327SOL    HW167073   2.528  10.249  10.838  0.1849  0.0295 -0.5430
20327SOL    HW267074   2.456  10.119  10.806  0.9319 -0.2033 -1.3322
20328SOL     OW67075  10.714   4.336   8.753 -0.2722 -0.1968  0.1025
20328SOL    HW167076  10.695   4.244   8.741 -0.0036 -0.2496  0.0620
20328SOL    HW267077  10.784   4.338   8.819  1.2635 -0.1637 -1.4490
20329SOL     OW67078  10.160   2.052   2.514  0.4632 -0.0410 -0.2815
20329SOL    HW167079  10.094   1.986   2.493  1.5660 -1.9838  1.8834
20329SOL    HW267080  10.114   2.116   2.568 -0.6450  1.1271 -2.4744
20330SOL     OW67081   5.852   8.737   5.008 -0.5776 -0.1186  0.3045
20330SOL    HW167082   5.836   8.770   5.097 -0.1441 -1.0226  0.7245
20330SOL    HW267083   5.945   8.755   4.992 -0.9435  1.2179 -0.4796
20331SOL     OW67084   3.184   6.792   7.887  0.0935  0.3493 -0.0292
20331SOL    HW167085   3.115   6.728   7.867  0.0422  0.5880 -0.6170
20331SOL    HW267086   3.175   6.807   7.981  0.5177 -0.9899  0.2559
20332SOL     OW67087   9.231   0.151   5.228 -0.4289  0.3525 -0.3228
20332SOL    HW167088   9.254   0.065   5.192 -0.7013  0.2829 -0.3280
20332SOL    HW267089   9.141   0.166   5.200 -0.9021 -0.0281  0.9421
20333SOL     OW67090   6.365   6.459   6.870  0.1791  0.5951 -0.4950
20333SOL    HW167091   6.337   6.525   6.933  1.5803  0.7202  0.0327
20333SOL    HW267092   6.399   6.509   6.796  1.0762  0.4909 -0.1696
20334SOL     OW67093   1.049   9.627   8.008 -0.2266  0.3657  0.1540
20334SOL    HW167094   1.056   9.589   8.096  0.9057 -1.3125 -0.6205
20334SOL    HW267095   1.090   9.713   8.016  2.3532 -0.8261  0.6998
20335SOL     OW67096   9.603   3.461  10.681  0.5291 -0.2171  0.0971
20335SOL    HW167097   9.545   3.532  10.708 -2.1160 -1.9573 -0.6217
20335SOL    HW267098   9.644   3.492  10.600 -1.4921  0.1053 -0.8451
20336SOL     OW67099  10.214   0.792   2.014 -0.0627  0.3351 -0.4620
20336SOL    HW167100  10.120   0.783   1.997  0.2480  0.8693 -2.8972
20336SOL    HW267101  10.253   0.715   1.973  0.6463  0.6580 -0.4051
20337SOL     OW67102   8.579   8.976   0.420 -0.3899 -0.5689 -0.4245
20337SOL    HW167103   8.496   9.023   0.432  0.1302  0.3394 -0.3103
20337SOL    HW267104   8.565   8.924   0.341 -0.9784 -0.2256 -0.5569
20338SOL     OW67105   7.446   8.546  10.497  0.1073  0.3531  0.0143
20338SOL    HW167106   7.502   8.469  10.481  1.6432  1.6177 -1.0654
20338SOL    HW267107   7.495   8.598  10.560 -0.3230  1.0336 -0.2045
20339SOL     OW67108   0.160   9.572   9.957 -0.0105  0.1132 -0.6484
20339SOL    HW167109   0.175   9.488   9.999 -0.4834  0.4733  0.2649
20339SOL    HW267110   0.078   9.604   9.994  0.3595  1.1583 -0.6712
20340SOL     OW67111   6.064   8.181  10.087  0.1926 -0.0242 -0.4214
20340SOL    HW167112   6.065   8.086  10.102 -0.7948  0.2037  1.4771
20340SOL    HW267113   6.032   8.191   9.998  0.0458 -1.4898 -0.5594
20341SOL     OW67114   8.792   6.613   1.204 -0.2575  0.0281 -0.2585
20341SOL    HW167115   8.752   6.527   1.214 -2.5812  0.9101 -1.3533
20341SOL    HW267116   8.771   6.640   1.115 -1.4662  2.5710  0.6743
20342SOL     OW67117   2.226   3.213   8.846  0.0574 -0.4691  1.0111
20342SOL    HW167118   2.283   3.279   8.807 -0.1728 -0.0377  1.3960
20342SOL    HW267119   2.165   3.189   8.776  0.8210 -1.0801  0.5353
20343SOL     OW67120   5.055   2.083   8.903  0.3369  0.1772  0.0427
20343SOL    HW167121   5.059   2.007   8.960 -1.1731 -1.9375 -2.4147
20343SOL    HW267122   5.131   2.074   8.845 -0.1670  0.1927 -0.6322
20344SOL     OW67123  10.606   8.609   1.034 -0.6382  0.1389 -0.1510
20344SOL    HW167124  10.602   8.670   0.960 -1.7258  0.5608  0.2358
20344SOL    HW267125  10.514   8.597   1.061 -0.4069 -1.2729  0.1106
20345SOL     OW67126   7.489   5.733   6.741  0.1914  0.4456  0.3084
20345SOL    HW167127   7.461   5.645   6.716 -0.3736  0.9202 -0.7921
20345SOL    HW267128   7.508   5.777   6.658  0.8892  1.2306  0.8630
20346SOL     OW67129   9.973   8.208   9.047  0.3483  0.9980  0.0679
20346SOL    HW167130  10.002   8.273   9.111 -1.3272  0.0596  1.8745
20346SOL    HW267131   9.991   8.124   9.088  2.7058  0.1786 -2.3304
20347SOL     OW67132   9.609   9.621   5.230  0.2132  0.2699 -0.4450
20347SOL    HW167133   9.578   9.620   5.139  2.6592 -1.0285 -1.3679
20347SOL    HW267134   9.551   9.682   5.275 -0.7305  1.3935 -3.0070
20348SOL     OW67135   3.861   7.394   0.855  0.0241  0.0475 -0.0706
20348SOL    HW167136   3.874   7.375   0.763  0.6307  2.4475 -0.5400
20348SOL    HW267137   3.949   7.398   0.892  0.0135  2.5250 -0.1940
20349SOL     OW67138   1.804   5.959   9.005 -0.2404 -0.9920  0.2750
20349SOL    HW167139   1.792   6.037   8.950  0.9120 -2.3142 -2.0055
20349SOL    HW267140   1.737   5.898   8.975  0.3516 -1.7022  0.3698
20350SOL     OW67141   8.022   8.188   0.269  0.2370  0.0447  0.6210
20350SOL    HW167142   7.978   8.198   0.185  0.6210  0.7501  0.4980
20350SOL    HW267143   7.950   8.181   0.333 -0.0836 -1.9155  0.1151
20351SOL     OW67144   2.015   4.525   5.342 -0.4224  0.2610 -0.2655
20351SOL    HW167145   2.009   4.452   5.280 -1.8999  1.8171 -2.0655
20351SOL    HW267146   2.025   4.483   5.427 -2.1774 -2.0884 -1.1130
20352SOL     OW67147   5.121   2.733   4.853 -0.7279 -0.2829  0.0702
20352SOL    HW167148   5.145   2.725   4.761 -1.7590  1.6979 -0.4183
20352SOL    HW267149   5.202   2.761   4.896 -1.1187  2.8909 -0.9828
20353SOL     OW67150   9.972   9.963   3.955 -0.1021  0.2573 -0.0502
20353SOL    HW167151   9.896   9.988   4.007  0.1656 -0.1367  0.5425
20353SOL    HW267152   9.973  10.025   3.882  0.1061  1.4884  0.9643
20354SOL     OW67153   0.914   2.971   1.877 -0.8047 -0.3150 -0.6709
20354SOL    HW167154   0.937   2.960   1.969 -1.8056  1.1559 -0.2167
20354SOL    HW267155   0.819   2.978   1.877 -0.6805  2.2153 -1.4876
20355SOL     OW67156   3.599   8.326   4.726 -0.0861  0.1658  0.3792
20355SOL    HW167157   3.680   8.323   4.777  0.6167 -0.5147 -0.7453
20355SOL    HW267158   3.628   8.341   4.636 -1.1660 -0.6402 -0.1198
20356SOL     OW67159   7.485   6.328   5.121  0.1155 -0.0989 -0.4892
20356SOL    HW167160   7.474   6.343   5.215  0.5226 -0.3031 -0.4071
20356SOL    HW267161   7.567   6.372   5.099 -0.0507  0.0661 -0.7756
20357SOL     OW67162   6.365   2.529   7.602 -0.1287  0.2717  0.0370
20357SOL    HW167163   6.458   2.521   7.582 -0.3419 -2.2724 -0.1825
20357SOL    HW267164   6.323   2.543   7.517 -0.1642 -1.1529 -0.1936
20358SOL     OW67165   3.763   1.701   4.187  0.1808 -0.8018 -0.4372
20358SOL    HW167166   3.680   1.675   4.147  0.3329 -0.9086 -0.6844
20358SOL    HW267167   3.793   1.623   4.233 -0.7719 -0.2472  1.2456
20359SOL     OW67168   4.164  10.563   9.461 -0.3460  0.0827  0.1255
20359SOL    HW167169   4.172  10.657   9.473 -1.1111  0.1652  0.0324
20359SOL    HW267170   4.107  10.534   9.532 -1.9760  0.0422 -1.1420
20360SOL     OW67171   4.086   8.975   6.979  0.6916 -0.0669 -0.0233
20360SOL    HW167172   4.164   9.031   6.974 -0.5732  2.0068  1.3016
20360SOL    HW267173   4.016   9.029   6.942 -0.3660 -1.3392  0.0601
20361SOL     OW67174   9.874   6.518   6.687 -0.8580 -0.2062  0.1384
20361SOL    HW167175   9.897   6.575   6.614  0.5818  0.2653  0.9237
20361SOL    HW267176   9.781   6.535   6.701 -0.8736  0.6133 -0.7868
20362SOL     OW67177   9.691   7.694   4.889  0.1739  0.2406  0.4034
20362SOL    HW167178   9.757   7.753   4.927  0.0984  1.5610 -1.3738
20362SOL    HW267179   9.688   7.719   4.797 -2.3322 -0.2493  0.2957
20363SOL     OW67180   4.431  10.293   7.604  0.3776  0.4790  0.1420
20363SOL    HW167181   4.516  10.296   7.562  1.1508 -1.6164  1.4226
20363SOL    HW267182   4.433  10.366   7.666  0.6594  1.2908 -0.7917
20364SOL     OW67183  10.154   3.796   3.280 -0.2398  0.7032  0.5576
20364SOL    HW167184  10.172   3.823   3.190  0.3569 -0.0115  0.4566
20364SOL    HW267185  10.082   3.734   3.272 -0.6967  1.2157  0.6537
20365SOL     OW67186   1.118   2.302   3.503  0.2185 -0.7320  0.2152
20365SOL    HW167187   1.112   2.394   3.477 -1.6311 -0.3601  1.7891
20365SOL    HW267188   1.071   2.255   3.434 -3.2928  0.0916  1.8251
20366SOL     OW67189   2.707   4.402   9.999  0.2483  0.4114  0.0499
20366SOL    HW167190   2.749   4.345  10.064 -0.1644  0.0131 -0.0278
20366SOL    HW267191   2.615   4.405  10.026 -0.3720 -1.4273 -1.6712
20367SOL     OW67192   6.576  10.452   0.127 -0.1320  0.6963  0.0959
20367SOL    HW167193   6.534  10.523   0.177  0.3961  0.7193  0.5071
20367SOL    HW267194   6.505  10.389   0.112 -0.0379  0.1073  1.9259
20368SOL     OW67195   2.788   3.627   2.888 -0.1812 -0.4734  0.0303
20368SOL    HW167196   2.731   3.579   2.948  1.1458 -0.6956  1.1418
20368SOL    HW267197   2.803   3.711   2.931  2.0996 -1.2372  0.8564
20369SOL     OW67198   6.167   7.403   9.880 -0.1546  0.0013 -0.5893
20369SOL    HW167199   6.199   7.487   9.848 -2.3850  1.9368  1.7521
20369SOL    HW267200   6.224   7.382   9.954 -0.0608 -0.1326 -0.7005
20370SOL     OW67201   5.702   9.199  10.409  0.3065 -0.1624  0.0899
20370SOL    HW167202   5.737   9.166  10.326  0.4320  1.4505 -0.5303
20370SOL    HW267203   5.668   9.121  10.453  0.9959 -1.1750 -1.0990
20371SOL     OW67204   5.162   1.123   0.640  0.4776 -0.2462  0.2879
20371SOL    HW167205   5.174   1.090   0.551  1.1892 -0.4097  0.4407
20371SOL    HW267206   5.234   1.185   0.652  0.2368 -0.0403  0.6623
20372SOL     OW67207   8.540   6.750   1.327  0.6556  0.2426 -0.4668
20372SOL    HW167208   8.585   6.668   1.345  0.5270 -0.0292 -1.3241
20372SOL    HW267209   8.586   6.816   1.378 -0.7064 -0.7214  2.1785
20373SOL     OW67210   6.039   8.785  10.886 -0.0918 -0.4096  0.1884
20373SOL    HW167211   6.115   8.730  10.904  1.9916  1.7894 -1.1178
20373SOL    HW267212   5.993   8.741  10.815  0.5705 -1.2709  0.2812
20374SOL     OW67213   7.028   7.455   1.583 -0.1615  0.2444  0.3529
20374SOL    HW167214   6.977   7.535   1.567 -1.9989 -1.2530 -2.0250
20374SOL    HW267215   6.962   7.389   1.601  1.1683 -1.1767  0.1711
20375SOL     OW67216   9.493   6.687   7.387  0.3322  0.4077  0.0694
20375SOL    HW167217   9.531   6.640   7.312  0.2604  2.3039 -1.2284
20375SOL    HW267218   9.419   6.633   7.414  2.2146 -1.9262  0.8486
20376SOL     OW67219   6.094   7.863   8.266  0.0198 -0.0091 -0.8263
20376SOL    HW167220   6.142   7.835   8.189  1.6597 -0.1390  0.1981
20376SOL    HW267221   6.069   7.953   8.248  0.9393  0.1684 -1.2661
20377SOL     OW67222   5.728   8.346   2.236  0.0551 -0.4722 -0.7414
20377SOL    HW167223   5.815   8.379   2.258 -0.6077  0.6590  0.3050
20377SOL    HW267224   5.719   8.363   2.142  1.1236 -1.0537 -0.9734
20378SOL     OW67225   1.985  10.607   8.741 -0.2009 -0.3880  0.3016
20378SOL    HW167226   1.913  10.545   8.743 -0.7081  0.2014  0.5653
20378SOL    HW267227   1.963  10.668   8.671  0.1262 -0.3016  0.2712
20379SOL     OW67228   4.429   7.593   0.856  0.2102  0.2867  0.1862
20379SOL    HW167229   4.434   7.541   0.776  0.5466  1.5898 -0.6820
20379SOL    HW267230   4.511   7.575   0.902  0.2160 -0.1309  0.0117
20380SOL     OW67231   6.610   8.681   9.871  0.0952  0.9439 -0.3844
20380SOL    HW167232   6.684   8.695   9.811  1.1035  1.6580  0.9737
20380SOL    HW267233   6.536   8.662   9.813  0.7163  2.9295 -1.9591
20381SOL     OW67234   6.275   6.983   8.854 -0.8035 -0.5625  0.7885
20381SOL    HW167235   6.243   7.029   8.931 -2.1821  0.9207 -0.5937
20381SOL    HW267236   6.352   6.935   8.884 -1.3480 -0.0959  3.0749
20382SOL     OW67237   8.584   9.953   5.240 -0.0357 -0.0737  0.4284
20382SOL    HW167238   8.548  10.040   5.258 -0.5757  0.0985 -1.2899
20382SOL    HW267239   8.674   9.969   5.211  0.7866 -0.3366  2.6733
20383SOL     OW67240   3.748   0.094   3.445  0.0926 -0.0169  0.0704
20383SOL    HW167241   3.758   0.002   3.421  0.2131  0.3887 -1.5468
20383SOL    HW267242   3.694   0.131   3.375  2.4474  1.7861 -0.9083
20384SOL     OW67243   4.089  10.537   4.098  0.7160 -0.0334  0.3226
20384SOL    HW167244   4.140  10.611   4.131  0.2402  0.0579  0.8699
20384SOL    HW267245   4.006  10.542   4.145 -0.8644  1.3480 -2.3814
20385SOL     OW67246   2.160   2.273   5.221 -0.1335 -0.2221  0.1379
20385SOL    HW167247   2.246   2.231   5.223 -0.3078 -0.5988 -0.2010
20385SOL    HW267248   2.169   2.342   5.155 -0.2298 -0.5671 -0.2377
20386SOL     OW67249   3.684  10.337   0.113  0.0397  0.0330 -0.4784
20386SOL    HW167250   3.610  10.293   0.155 -0.2248 -0.6114 -1.5809
20386SOL    HW267251   3.658  10.429   0.107 -0.0163  0.0947  0.5252
20387SOL     OW67252   8.251   3.241   8.079 -0.0509  0.6320 -0.0525
20387SOL    HW167253   8.233   3.153   8.045  0.2075 -1.0515  3.6573
20387SOL    HW267254   8.176   3.293   8.051 -2.5492 -1.9690  1.2203
20388SOL     OW67255   1.239   5.552   8.754 -0.1864  0.0871 -0.4897
20388SOL    HW167256   1.327   5.585   8.733 -0.2147  0.4305 -0.0723
20388SOL    HW267257   1.251   5.457   8.763  0.3143  0.2208  0.3906
20389SOL     OW67258   8.332   6.874   3.954  0.1924  0.0947  0.5900
20389SOL    HW167259   8.359   6.783   3.967  1.6283  0.2736 -0.8255
20389SOL    HW267260   8.379   6.923   4.022 -0.3343 -0.1457  1.1480
20390SOL     OW67261   7.403   5.952   9.986  0.0807  0.4633 -0.2017
20390SOL    HW167262   7.351   5.906   9.920  1.9044  2.3195 -3.1229
20390SOL    HW267263   7.352   6.032  10.005 -0.2111  0.1582  0.3419
20391SOL     OW67264   7.930   1.145   2.366 -0.2970  0.4890 -0.0283
20391SOL    HW167265   7.894   1.078   2.424 -0.4272 -1.0987 -1.8179
20391SOL    HW267266   7.997   1.189   2.418 -0.9038 -0.3580  1.5338
20392SOL     OW67267   3.328   3.536  10.762  0.0870 -0.7464 -0.7309
20392SOL    HW167268   3.271   3.610  10.786  0.7510 -0.5851  0.4133
20392SOL    HW267269   3.269   3.461  10.757 -0.0795 -0.8977  1.9470
20393SOL     OW67270  10.568   0.977   4.701  0.0124  0.3567 -0.4222
20393SOL    HW167271  10.501   1.045   4.709 -0.9777 -0.7932  3.0202
20393SOL    HW267272  10.651   1.024   4.710 -0.4775  1.3932 -1.1036
20394SOL     OW67273   7.408   3.080   8.376  0.1595  0.1816 -0.0838
20394SOL    HW167274   7.337   3.077   8.312  0.2436  0.9266 -0.2261
20394SOL    HW267275   7.450   2.994   8.370  0.7406  0.5418 -1.7062
20395SOL     OW67276   6.233   0.194   4.506  0.1793  0.3546 -0.0057
20395SOL    HW167277   6.224   0.234   4.593 -1.3818  3.1349 -1.2862
20395SOL    HW267278   6.302   0.245   4.464  0.4967 -0.5513 -0.5967
20396SOL     OW67279   7.037   6.420   7.562 -0.2618 -0.1174 -0.5563
20396SOL    HW167280   6.992   6.348   7.606 -0.6885 -0.8957 -2.2179
20396SOL    HW267281   7.008   6.416   7.471  1.6855  0.5538 -1.2687
20397SOL     OW67282   5.867   2.733   6.859 -0.0902  0.5598 -0.0934
20397SOL    HW167283   5.899   2.707   6.946 -1.2536  0.1867  0.2462
20397SOL    HW267284   5.861   2.828   6.864  0.7459  0.6244 -0.1026
20398SOL     OW67285   7.563   9.112   1.643 -0.4701 -0.4342 -0.1949
20398SOL    HW167286   7.602   9.045   1.698  0.6795  0.2475 -0.1415
20398SOL    HW267287   7.614   9.110   1.562 -0.8077 -0.0367 -0.4232
20399SOL     OW67288   9.677   2.851   0.487 -0.6820  0.0346 -0.0631
20399SOL    HW167289   9.651   2.776   0.433 -0.4448  0.6304 -1.0260
20399SOL    HW267290   9.749   2.891   0.439 -2.6700  2.6053 -1.1312
20400SOL     OW67291   5.939   5.700   5.420  0.2404 -0.5086 -0.1424
20400SOL    HW167292   5.845   5.718   5.428  0.4467  1.0786 -0.8566
20400SOL    HW267293   5.954   5.625   5.478 -1.2993 -0.1994  0.7202
20401SOL     OW67294   1.556   1.810  10.658 -0.3002 -0.4669 -0.1388
20401SOL    HW167295   1.527   1.834  10.570 -0.0923 -0.5144 -0.2221
20401SOL    HW267296   1.588   1.720  10.649 -1.2233 -0.8360  0.2058
20402SOL     OW67297   1.176   5.871   0.023  1.0264 -0.0915  0.1928
20402SOL    HW167298   1.243   5.865  -0.045  0.4415  0.6259 -0.4567
20402SOL    HW267299   1.137   5.957   0.012  0.7694 -0.0417  1.3094
20403SOL     OW67300   8.299   8.463   3.162  0.1246 -0.1525  0.1637
20403SOL    HW167301   8.332   8.438   3.249  1.5777  0.3631 -0.2052
20403SOL    HW267302   8.246   8.540   3.177 -1.9308 -1.6325  0.9246
20404SOL     OW67303   1.841   0.571   9.501 -0.1810 -0.5647 -0.0912
20404SOL    HW167304   1.776   0.501   9.501 -0.6837 -0.1390  1.7297
20404SOL    HW267305   1.920   0.531   9.537 -0.3354 -0.3237  0.5239
20405SOL     OW67306   8.489   0.983   8.010 -0.5087  0.3825  0.0541
20405SOL    HW167307   8.452   0.952   8.093 -0.6253  0.1404 -0.0916
20405SOL    HW267308   8.486   0.907   7.952 -0.3270  0.5239 -0.1407
20406SOL     OW67309   0.527   5.709   0.561 -0.2578  0.3964 -0.3907
20406SOL    HW167310   0.502   5.711   0.654  2.2579  1.1196  0.3349
20406SOL    HW267311   0.447   5.734   0.515 -1.8284 -0.8131  1.4836
20407SOL     OW67312   6.224   5.963   7.235 -1.0137  0.5841  0.1159
20407SOL    HW167313   6.257   5.919   7.313  0.4772  1.7366  0.1828
20407SOL    HW267314   6.142   6.004   7.263  0.6642  3.0428  1.8601
20408SOL     OW67315   6.732   3.114   3.960  0.2840 -0.1097 -0.1224
20408SOL    HW167316   6.817   3.099   4.001 -0.5666  0.7516  2.1226
20408SOL    HW267317   6.681   3.036   3.983  0.0973 -0.0762 -0.4280
20409SOL     OW67318   4.367   2.268   5.289 -0.7946 -0.0467  0.1427
20409SOL    HW167319   4.291   2.245   5.236 -2.1147  1.2838  1.3874
20409SOL    HW267320   4.333   2.325   5.357  1.4688  1.2841  0.2551
20410SOL     OW67321  10.585   7.272   1.178  0.5689 -0.1553 -0.5157
20410SOL    HW167322  10.634   7.224   1.245  0.2781  0.1628 -0.0737
20410SOL    HW267323  10.581   7.362   1.210 -0.1750 -0.1463 -0.6171
20411SOL     OW67324   2.243   1.691   5.048  0.1473  0.0858  0.1836
20411SOL    HW167325   2.338   1.701   5.053 -0.0606  1.7625  1.9693
20411SOL    HW267326   2.221   1.627   5.116 -0.0602  0.1530  0.1813
20412SOL     OW67327   8.982   8.893   5.991  0.4946 -0.1667  0.3647
20412SOL    HW167328   9.036   8.905   5.912  1.3710  1.1808  1.1186
20412SOL    HW267329   8.933   8.975   5.999 -1.8469 -1.4159 -0.3742
20413SOL     OW67330   5.257   0.571   4.728  0.5730 -0.6276  0.0306
20413SOL    HW167331   5.282   0.662   4.713  0.0023 -0.7421 -1.8686
20413SOL    HW267332   5.179   0.576   4.784  1.9313 -0.0994  1.9967
20414SOL     OW67333   6.392   6.944   3.438  0.5065  0.6560  0.4920
20414SOL    HW167334   6.385   7.009   3.507  1.6640  0.7243  0.5762
20414SOL    HW267335   6.479   6.905   3.450  0.7664  0.7120 -0.9377
20415SOL     OW67336   4.032   9.835   8.878  0.5171 -0.5290  0.1465
20415SOL    HW167337   3.945   9.871   8.862 -0.1989 -2.0291  0.5107
20415SOL    HW267338   4.062   9.806   8.791  1.2648  1.1858 -0.2229
20416SOL     OW67339   1.248   9.681   3.111  0.4356 -0.4555  0.7526
20416SOL    HW167340   1.284   9.767   3.135  0.9999 -0.6667  0.6814
20416SOL    HW267341   1.278   9.623   3.180  0.0604 -0.6004  0.7946
20417SOL     OW67342   7.841   8.121   6.626  0.1000  0.2095  0.3596
20417SOL    HW167343   7.834   8.205   6.670 -0.0266  0.4041 -0.0281
20417SOL    HW267344   7.797   8.059   6.684 -1.1669  0.6784 -0.0817
20418SOL     OW67345  10.426   1.435  10.111 -0.0832 -0.1799 -0.7115
20418SOL    HW167346  10.490   1.506  10.114  1.4522 -1.4706 -1.5720
20418SOL    HW267347  10.478   1.356  10.097 -1.8839 -1.2630 -1.6930
20419SOL     OW67348   4.663   4.499   0.430  0.7590  0.1554  0.1336
20419SOL    HW167349   4.704   4.483   0.515 -0.1043 -0.6867  0.4205
20419SOL    HW267350   4.629   4.588   0.437 -0.0940 -0.2152  1.0374
20420SOL     OW67351   2.825   6.181   1.918 -0.4197 -0.0288  0.7057
20420SOL    HW167352   2.760   6.114   1.900 -1.6604  1.3295 -0.0749
20420SOL    HW267353   2.865   6.154   2.001 -1.2839 -1.3982  0.7027
20421SOL     OW67354   4.045   9.745   1.049 -0.4206  0.2057  0.4923
20421SOL    HW167355   4.070   9.830   1.085  1.0067  0.0189  0.0330
20421SOL    HW267356   4.005   9.765   0.965 -1.3130  0.4891  0.9775
20422SOL     OW67357   6.980   5.756   9.276  0.2748  0.8251 -0.3450
20422SOL    HW167358   7.002   5.707   9.197  1.7495  0.8735  0.0001
20422SOL    HW267359   6.906   5.812   9.250  0.7369  0.8446 -1.6927
20423SOL     OW67360   7.110   7.521  10.877  0.1553 -0.7281 -0.0294
20423SOL    HW167361   7.138   7.457  10.812  1.0933 -0.8830  0.5115
20423SOL    HW267362   7.184   7.529  10.937 -0.6804 -0.5734  1.0161
20424SOL     OW67363  10.225   6.691   3.985  0.0362  0.9793  0.1413
20424SOL    HW167364  10.162   6.714   4.053 -1.2673 -2.6736  0.3834
20424SOL    HW267365  10.237   6.597   3.994  3.4771  1.0683 -1.7259
20425SOL     OW67366  10.825   3.123   3.225  0.0874  0.1321 -0.5673
20425SOL    HW167367  10.781   3.209   3.225 -0.6727 -0.1135  2.6512
20425SOL    HW267368  10.912   3.141   3.259  0.0698 -0.2909 -0.2943
20426SOL     OW67369   3.020   3.679   6.277  0.2254 -0.1144  0.4937
20426SOL    HW167370   3.113   3.654   6.276  0.7908  1.7425  1.5291
20426SOL    HW267371   3.016   3.757   6.220 -0.5584  0.2005  0.9711
20427SOL     OW67372   5.948   6.307   5.569 -0.3786 -0.4847 -0.1593
20427SOL    HW167373   6.027   6.290   5.619 -1.4362 -0.7894  1.4980
20427SOL    HW267374   5.952   6.400   5.548 -0.0175 -0.2916  0.7316
20428SOL     OW67375   3.557   8.493   5.431  0.1642 -0.0539  0.8964
20428SOL    HW167376   3.570   8.434   5.358  0.9972 -0.5495  1.4367
20428SOL    HW267377   3.465   8.481   5.455 -0.5108  1.1203 -0.9106
20429SOL     OW67378   6.278   3.197   5.059  0.2560  0.2881  0.4535
20429SOL    HW167379   6.221   3.142   5.005  1.3110 -0.4972  0.1037
20429SOL    HW267380   6.354   3.214   5.003  1.2464 -0.3149  1.5842
20430SOL     OW67381   7.715   0.518   4.431 -0.1549  0.1712 -0.1305
20430SOL    HW167382   7.792   0.560   4.469 -0.0284  2.3411 -2.5286
20430SOL    HW267383   7.743   0.429   4.410  0.8000  0.0463  1.4861
20431SOL     OW67384   9.699   2.272   1.568  0.4431 -0.2843 -0.3889
20431SOL    HW167385   9.679   2.365   1.558  0.5754 -0.1881  0.2045
20431SOL    HW267386   9.795   2.268   1.572  0.4631 -0.5035 -0.9043
20432SOL     OW67387   5.853   5.701   7.735  0.1388 -0.4071 -0.0786
20432SOL    HW167388   5.765   5.680   7.704  1.2003 -0.9850 -3.0599
20432SOL    HW267389   5.873   5.632   7.798 -1.7156  0.0832  1.1223
20433SOL     OW67390  10.599   2.772   0.750 -0.0172  0.9262  0.7778
20433SOL    HW167391  10.511   2.785   0.784 -0.5641  0.7567 -0.5259
20433SOL    HW267392  10.617   2.679   0.766 -0.4232  0.7564  0.2688
20434SOL     OW67393  10.928   4.481   8.611 -0.5665  0.3537 -0.0765
20434SOL    HW167394  10.851   4.431   8.584 -0.6007  0.8299 -0.8715
20434SOL    HW267395  10.930   4.471   8.706 -1.5374  0.2371 -0.0572
20435SOL     OW67396   6.089   9.721   0.532 -0.1963  0.0229  0.2636
20435SOL    HW167397   6.093   9.723   0.628 -0.8231  0.5654  0.2855
20435SOL    HW267398   6.078   9.628   0.511  2.3403 -0.4250  0.5888
20436SOL     OW67399   8.956   5.143   5.111 -0.4746 -0.0688 -0.3266
20436SOL    HW167400   8.944   5.187   5.194  2.3338  0.8239 -0.2865
20436SOL    HW267401   8.882   5.083   5.104 -0.2788 -0.9253  3.2817
20437SOL     OW67402   0.625   1.105   4.330 -0.0955 -0.1014 -0.6846
20437SOL    HW167403   0.585   1.171   4.273  1.5991  1.4360 -0.1864
20437SOL    HW267404   0.711   1.141   4.350  0.1960 -1.6737  1.0416
20438SOL     OW67405   2.812   1.542   8.322 -0.3892  0.2208 -0.4540
20438SOL    HW167406   2.838   1.532   8.413 -0.1465 -1.0736 -0.6514
20438SOL    HW267407   2.890   1.517   8.272 -1.5170 -2.4360 -1.0383
20439SOL     OW67408   4.327   7.332   4.818 -0.7751  0.7664  0.7184
20439SOL    HW167409   4.369   7.418   4.809 -0.1810  0.3539 -0.7297
20439SOL    HW267410   4.399   7.270   4.812 -0.9494  0.1662  3.6030
20440SOL     OW67411   8.366   6.362   9.094 -0.5559 -0.0797  0.0424
20440SOL    HW167412   8.276   6.361   9.126 -0.2809  1.4008  0.9906
20440SOL    HW267413   8.416   6.401   9.165  0.7588 -0.4316 -0.6587
20441SOL     OW67414   2.573   7.478   8.759 -0.3150  0.5013 -0.6064
20441SOL    HW167415   2.625   7.398   8.768 -1.2978 -0.0823  0.2914
20441SOL    HW267416   2.513   7.475   8.834  1.0903  3.2104  0.7638
20442SOL     OW67417   0.764   6.706   3.439 -0.2531  0.5947 -0.6048
20442SOL    HW167418   0.752   6.761   3.516  1.2280 -1.5697  1.2928
20442SOL    HW267419   0.859   6.702   3.427 -0.2520 -1.9406 -0.3040
20443SOL     OW67420   9.067   9.635   3.827  0.4318 -0.1260 -0.1394
20443SOL    HW167421   9.041   9.701   3.892  1.1609  0.8160 -0.7635
20443SOL    HW267422   9.000   9.567   3.834 -0.8640  1.0967 -0.0756
20444SOL     OW67423   1.094   2.913   5.455  0.7267 -0.0990 -0.3732
20444SOL    HW167424   1.064   2.864   5.379 -1.8222 -1.2974  1.2543
20444SOL    HW267425   1.039   2.991   5.457  1.3992  0.3827 -0.2432
20445SOL     OW67426   4.031   5.985   5.666 -0.5857 -0.0828  0.1400
20445SOL    HW167427   4.010   6.069   5.706  0.0336 -1.0555  2.7277
20445SOL    HW267428   3.974   5.980   5.590 -1.3278  2.2497  0.4616
20446SOL     OW67429   7.524   2.390   7.584 -0.1676  0.2466  0.4966
20446SOL    HW167430   7.479   2.308   7.560  0.0666  0.4485 -0.7079
20446SOL    HW267431   7.460   2.458   7.564 -0.0548  0.4097  0.6960
20447SOL     OW67432   3.557   5.565   3.349 -0.1118  0.1980 -0.1455
20447SOL    HW167433   3.648   5.595   3.358  0.1758 -0.5647 -0.4248
20447SOL    HW267434   3.527   5.605   3.267  0.1159  0.1086 -0.2749
20448SOL     OW67435   8.399   9.395   9.909  0.0598  0.6826 -0.0528
20448SOL    HW167436   8.455   9.461   9.949  0.5626  1.3936 -1.8760
20448SOL    HW267437   8.321   9.443   9.881  0.1463  0.3883 -0.8133
20449SOL     OW67438   7.455   3.565   6.769 -0.2570  0.2580 -0.3027
20449SOL    HW167439   7.475   3.526   6.854  1.5065  2.9390  0.6590
20449SOL    HW267440   7.524   3.533   6.711 -1.4630 -1.5751 -0.8098
20450SOL     OW67441   0.623   6.633   8.798  0.3048  0.0631  0.2477
20450SOL    HW167442   0.699   6.585   8.765 -0.4806 -1.8874  1.1826
20450SOL    HW267443   0.661   6.713   8.837  1.6881 -0.0395 -0.8125
20451SOL     OW67444   5.280   1.661   6.282  0.4859 -0.5454 -0.0521
20451SOL    HW167445   5.360   1.704   6.253 -0.1397  0.2976 -0.5723
20451SOL    HW267446   5.226   1.655   6.203 -0.4986  0.0948  0.5555
20452SOL     OW67447   7.682   4.333   9.972  0.1698  0.1862  0.1279
20452SOL    HW167448   7.620   4.323   9.900 -0.2604  1.4237  0.2882
20452SOL    HW267449   7.741   4.258   9.964 -0.6376 -0.3814 -0.7354
20453SOL     OW67450   7.876   3.324   9.371  0.7749 -0.4600  0.0620
20453SOL    HW167451   7.800   3.266   9.383 -0.3041  1.0765  1.1334
20453SOL    HW267452   7.913   3.333   9.459  1.3478 -0.0985 -0.2142
20454SOL     OW67453   0.452   2.080   2.352  0.5026  0.2546 -0.0092
20454SOL    HW167454   0.467   2.108   2.261 -1.6938 -0.8131 -0.7732
20454SOL    HW267455   0.527   2.024   2.373  1.2474  0.8502 -1.0136
20455SOL     OW67456   3.119   7.281   6.833 -1.0995 -0.8946 -0.1071
20455SOL    HW167457   3.092   7.266   6.743 -1.4786  0.6228 -0.2663
20455SOL    HW267458   3.205   7.239   6.840 -1.4547 -1.7819 -0.9036
20456SOL     OW67459   5.824   5.264   5.885 -0.4300  0.1145  0.2470
20456SOL    HW167460   5.798   5.347   5.926 -1.2641  0.5257 -1.0635
20456SOL    HW267461   5.742   5.219   5.867  0.0313 -2.2064  3.1978
20457SOL     OW67462   5.103   2.455  10.095  0.0339  0.3377  0.7561
20457SOL    HW167463   5.129   2.408  10.174 -2.1558 -0.2611  1.1817
20457SOL    HW267464   5.150   2.538  10.100  3.4371 -1.4030  0.3589
20458SOL     OW67465   5.910   6.581   5.603  0.1188  0.4379  0.3433
20458SOL    HW167466   5.898   6.643   5.531  1.7491 -0.1542 -0.4696
20458SOL    HW267467   5.955   6.631   5.671 -2.7800  1.4626  1.7136
20459SOL     OW67468   1.090   9.819   2.777  0.7119 -0.3153 -0.8503
20459SOL    HW167469   1.026   9.749   2.765  1.0178 -0.9113  0.7491
20459SOL    HW267470   1.152   9.808   2.705  1.0796 -2.0788 -0.3135
20460SOL     OW67471   4.360   7.665   9.997 -0.4614 -0.7039 -0.1684
20460SOL    HW167472   4.275   7.683  10.036  0.4201  1.8208  0.8188
20460SOL    HW267473   4.357   7.711   9.912  0.2386  0.3173  0.3369
20461SOL     OW67474   1.622   8.656   5.229  0.0986  0.6030 -0.0560
20461SOL    HW167475   1.533   8.645   5.195 -0.2032  0.9144  0.6109
20461SOL    HW267476   1.609   8.694   5.316  0.8428 -0.4989  0.5462
20462SOL     OW67477   8.259   9.294   1.082 -0.1515 -0.1585  0.5903
20462SOL    HW167478   8.336   9.238   1.077 -0.0056 -0.0150  1.1729
20462SOL    HW267479   8.267   9.338   1.167  0.1116  1.2960 -0.1725
20463SOL     OW67480   9.451   9.181  10.592  0.0442  0.0451 -0.4590
20463SOL    HW167481   9.454   9.174  10.687 -0.1173 -0.0893 -0.4635
20463SOL    HW267482   9.516   9.118  10.561  0.4462  0.4352 -0.4250
20464SOL     OW67483   0.178   3.173   7.684  0.0347  0.0788 -0.4122
20464SOL    HW167484   0.177   3.268   7.672 -1.1432  0.3508  1.4678
20464SOL    HW267485   0.271   3.150   7.682  0.2605  0.7821 -3.7873
20465SOL     OW67486   1.718   4.911   7.973 -0.3364  0.2798 -0.1404
20465SOL    HW167487   1.753   5.000   7.965 -0.2892  0.2351 -0.4200
20465SOL    HW267488   1.788   4.862   8.016 -1.0439  0.7960  1.7157
20466SOL     OW67489   5.308   4.632   8.749  0.1725  0.6046  0.2353
20466SOL    HW167490   5.243   4.596   8.809  0.5360  2.3017  1.7274
20466SOL    HW267491   5.265   4.707   8.708  0.9478  1.3628  0.7692
20467SOL     OW67492   6.987  10.632   4.455 -0.0556 -0.4269  0.2720
20467SOL    HW167493   6.942  10.551   4.478  0.4701 -1.0260 -0.7345
20467SOL    HW267494   7.079  10.607   4.447 -0.1438 -0.2372 -2.1038
20468SOL     OW67495   8.791   7.974   8.141  0.0139  0.0900  0.0367
20468SOL    HW167496   8.781   7.901   8.079 -0.3229  0.6750 -0.6205
20468SOL    HW267497   8.765   8.051   8.090  0.2348  0.6495  0.7628
20469SOL     OW67498   1.912   8.933   3.736  0.5305 -0.0367 -0.2141
20469SOL    HW167499   1.951   8.884   3.663  1.1430 -0.5042  0.4108
20469SOL    HW267500   1.986   8.975   3.779  0.0084  1.4460 -0.7235
20470SOL     OW67501  10.886   8.499   8.906  0.0029  0.3180 -0.0244
20470SOL    HW167502  10.961   8.441   8.919 -0.5994 -0.3260  0.7644
20470SOL    HW267503  10.838   8.460   8.833 -0.1313  0.1057  0.1748
20471SOL     OW67504   3.393   6.746   5.063  0.0877  0.5597  0.7247
20471SOL    HW167505   3.431   6.663   5.035  0.6960  1.0178  0.1600
20471SOL    HW267506   3.463   6.811   5.050  0.3174  0.8632  3.0221
20472SOL     OW67507   9.022  10.536   6.868  0.6298 -0.6184 -0.1077
20472SOL    HW167508   9.102  10.586   6.883  0.6605 -0.2554 -1.3408
20472SOL    HW267509   8.969  10.550   6.947  0.9203  0.8297 -0.1414
20473SOL     OW67510   8.569   9.831   8.970 -0.2466  0.2758 -0.0581
20473SOL    HW167511   8.545   9.882   9.047  1.0660  0.6857  0.1131
20473SOL    HW267512   8.581   9.742   9.002 -0.6927  0.2395  0.0111
20474SOL     OW67513  10.761   7.318   6.242  0.2183  0.1732  0.3786
20474SOL    HW167514  10.687   7.368   6.276  0.0184 -0.0266  0.2389
20474SOL    HW267515  10.813   7.296   6.319  1.1509  1.9381  0.2981
20475SOL     OW67516   7.687   5.798   3.986  0.5325  0.6403 -0.0058
20475SOL    HW167517   7.709   5.823   3.896 -0.7628  2.9499  0.2268
20475SOL    HW267518   7.770   5.774   4.025  0.9500 -1.9117 -2.1941
20476SOL     OW67519   2.811  10.586   7.143 -0.5655 -0.4629  0.0423
20476SOL    HW167520   2.872  10.599   7.069 -0.4418 -1.0927  0.0254
20476SOL    HW267521   2.774  10.499   7.128 -0.7528 -0.4784  0.5767
20477SOL     OW67522   7.423   6.337   8.103  0.5127  0.3942  0.1445
20477SOL    HW167523   7.402   6.275   8.172  1.2282 -1.5695 -1.3039
20477SOL    HW267524   7.510   6.309   8.072  1.0294  2.3621 -0.3322
20478SOL     OW67525   9.224   1.488   8.232 -0.0159  0.2045 -0.2186
20478SOL    HW167526   9.254   1.531   8.152  0.9223 -0.9962 -0.5401
20478SOL    HW267527   9.291   1.507   8.297  0.0483 -0.1832 -0.1699
20479SOL     OW67528   6.439   7.612   7.986  0.4057 -0.3821  0.1490
20479SOL    HW167529   6.419   7.523   8.016 -2.6300  0.2912  0.4099
20479SOL    HW267530   6.470   7.657   8.065 -1.1016 -0.4002  0.7754
20480SOL     OW67531   7.287   0.518   5.701 -0.2044 -0.3781  0.7669
20480SOL    HW167532   7.261   0.426   5.703 -3.1614  0.2358 -1.9495
20480SOL    HW267533   7.290   0.540   5.608 -0.6890  2.5211  1.3453
20481SOL     OW67534   2.147   1.913   5.210 -0.3543 -0.3786 -0.5819
20481SOL    HW167535   2.194   1.883   5.133 -1.9336 -1.6784 -1.0766
20481SOL    HW267536   2.060   1.939   5.177 -0.2266  1.4266  0.3819
20482SOL     OW67537   7.806   9.784   6.099  0.4936 -0.1491  0.3024
20482SOL    HW167538   7.774   9.774   6.009  1.1488  0.6248 -0.0244
20482SOL    HW267539   7.787   9.700   6.140 -1.1315 -0.0238 -0.1310
20483SOL     OW67540   8.135   8.067  10.831  0.4171 -0.9372  0.3543
20483SOL    HW167541   8.157   8.129  10.901  0.6104 -0.3431 -0.2291
20483SOL    HW267542   8.041   8.051  10.843  0.4941 -1.0147  0.8851
20484SOL     OW67543   8.292   5.471   7.699 -0.6948  0.7412 -0.3860
20484SOL    HW167544   8.262   5.440   7.613 -2.0417  1.5212 -0.2356
20484SOL    HW267545   8.258   5.405   7.760 -0.9741  0.9281 -0.3362
20485SOL     OW67546   3.572   1.722   0.050 -0.3800 -0.7621 -0.5560
20485SOL    HW167547   3.510   1.756  -0.015 -1.9917 -2.4865  0.0059
20485SOL    HW267548   3.651   1.702  -0.000 -0.7530  0.1455 -1.5449
20486SOL     OW67549   5.727   3.627   9.051 -0.1982 -0.4881 -0.4502
20486SOL    HW167550   5.751   3.576   8.973  0.8891  2.6788 -2.4154
20486SOL    HW267551   5.787   3.597   9.119  0.5123 -1.6703 -1.5498
20487SOL     OW67552   2.913  10.719   3.429  0.1954 -0.2021  0.1844
20487SOL    HW167553   2.821  10.738   3.449  0.1978  0.0927 -0.0763
20487SOL    HW267554   2.948  10.802   3.396  0.9952  0.1455  1.8016
20488SOL     OW67555   5.303   5.457   0.393  0.0730  0.3011  0.2247
20488SOL    HW167556   5.303   5.445   0.298 -1.2727  1.6184  0.0144
20488SOL    HW267557   5.300   5.369   0.429 -1.0997 -0.1826 -0.9924
20489SOL     OW67558   3.374  10.866   8.049  0.0892  0.3529  0.3862
20489SOL    HW167559   3.458  10.888   8.089  0.7583 -0.0266 -0.7830
20489SOL    HW267560   3.327  10.817   8.116  0.0029  2.1851  1.7510
20490SOL     OW67561   2.838   3.692   3.685 -0.2562 -0.7815  0.1825
20490SOL    HW167562   2.792   3.729   3.610 -0.3006 -1.7738 -0.2821
20490SOL    HW267563   2.881   3.768   3.726 -0.7962 -0.1314 -0.4305
20491SOL     OW67564   5.367   3.132  10.894  0.4390  0.2420  0.1992
20491SOL    HW167565   5.419   3.054  10.874 -0.2996 -0.0062 -0.8874
20491SOL    HW267566   5.278   3.099  10.906  0.2982  0.8015  0.7430
20492SOL     OW67567   7.899  10.640   3.363  0.3244 -0.1098 -0.0670
20492SOL    HW167568   7.917  10.552   3.331 -0.5062  0.4076 -2.1386
20492SOL    HW267569   7.928  10.698   3.292  0.4139  1.2749  1.0464
20493SOL     OW67570   4.948   4.915   8.163  0.4071  0.9660 -0.0846
20493SOL    HW167571   5.007   4.931   8.089 -1.2255 -1.1421 -1.9889
20493SOL    HW267572   4.889   4.846   8.132 -0.8580  0.5315  2.9512
20494SOL     OW67573   8.997   9.531   1.267 -0.3143  0.2036  0.5678
20494SOL    HW167574   9.021   9.448   1.310 -1.1863  0.8154  2.3337
20494SOL    HW267575   8.952   9.580   1.335  0.1405  2.1312 -0.4729
20495SOL     OW67576   5.942   4.147   4.458  0.0541  0.1716  0.2102
20495SOL    HW167577   5.850   4.121   4.444 -0.2712  1.6979 -0.6979
20495SOL    HW267578   5.936   4.225   4.513  0.6594  1.4504 -1.4698
20496SOL     OW67579   2.358   5.393   1.478  0.5884 -0.2534  0.1875
20496SOL    HW167580   2.319   5.469   1.435 -0.3903 -0.6143  0.4038
20496SOL    HW267581   2.450   5.415   1.488  0.5134  0.4918 -0.6500
20497SOL     OW67582   6.919   9.356   9.353  0.5531 -0.1771 -0.2645
20497SOL    HW167583   6.919   9.429   9.415  1.1711  1.4785 -2.1211
20497SOL    HW267584   6.852   9.297   9.386  0.8303  0.6398  1.9434
20498SOL     OW67585   8.158   0.085   5.653 -0.3461 -0.4236  0.6092
20498SOL    HW167586   8.200   0.168   5.677 -0.6220 -0.3819  0.9632
20498SOL    HW267587   8.085   0.110   5.596 -0.1763 -0.4586  0.3747
20499SOL     OW67588   4.723   5.736   8.302 -0.1226  0.0534 -0.6986
20499SOL    HW167589   4.818   5.735   8.312  0.0958  0.3587 -2.5064
20499SOL    HW267590   4.698   5.644   8.297  0.1186 -0.0191 -0.5642
20500SOL     OW67591   4.318   2.572   2.822 -0.2113  0.2359 -0.6075
20500SOL    HW167592   4.298   2.483   2.792  1.5527 -0.9279  1.4004
20500SOL    HW267593   4.408   2.587   2.793  0.3480  0.3902  1.1185
20501SOL     OW67594   8.107   0.597   5.770  0.2306  0.0387  0.2713
20501SOL    HW167595   8.162   0.554   5.705  1.0280  1.7344 -0.2095
20501SOL    HW267596   8.153   0.584   5.853 -0.2861 -1.2627  0.3805
20502SOL     OW67597   7.959   1.838   7.747 -0.2680 -0.3385  0.5791
20502SOL    HW167598   7.990   1.761   7.794 -1.5398  0.0460  2.1265
20502SOL    HW267599   7.865   1.824   7.737  0.0567 -0.9689 -3.0171
20503SOL     OW67600   2.378   9.509   4.573  0.1669  0.1128  0.1601
20503SOL    HW167601   2.301   9.476   4.526  0.6302  0.8019 -1.1336
20503SOL    HW267602   2.426   9.430   4.597  0.3451 -0.2698 -1.3219
20504SOL     OW67603   1.925   8.444   7.347 -0.1008  0.4261  0.6839
20504SOL    HW167604   1.956   8.461   7.258 -0.6124 -0.1059  0.3981
20504SOL    HW267605   2.003   8.416   7.395 -0.0495 -0.4734  0.0901
20505SOL     OW67606   4.916   1.309   1.357 -0.6988  0.1119 -0.2069
20505SOL    HW167607   4.972   1.301   1.280 -1.3896 -2.1097 -0.5450
20505SOL    HW267608   4.976   1.333   1.428  0.2837  0.1130 -1.0166
20506SOL     OW67609   5.953   7.676   4.626 -0.1724 -0.2695  0.2052
20506SOL    HW167610   5.900   7.710   4.554 -1.2936 -0.7865  0.7544
20506SOL    HW267611   6.018   7.744   4.643 -2.2121  1.5576  1.1451
20507SOL     OW67612   8.636   8.990   9.805  0.6220 -0.0468 -0.5138
20507SOL    HW167613   8.666   8.950   9.887  0.1869 -0.4635 -0.5596
20507SOL    HW267614   8.542   8.972   9.802 -0.0546  2.7017  0.4885
20508SOL     OW67615  10.522   1.516   5.741 -0.1570 -0.3163 -0.2644
20508SOL    HW167616  10.600   1.463   5.726  1.3078  1.4802  0.5660
20508SOL    HW267617  10.527   1.584   5.674 -0.9712 -0.1250 -0.1380
20509SOL     OW67618   9.270  10.031   7.841  0.6280 -0.2755  0.0801
20509SOL    HW167619   9.365  10.016   7.847  0.6405 -0.1023  0.3268
20509SOL    HW267620   9.234   9.944   7.824  0.7506 -0.5083  0.9491
20510SOL     OW67621   4.265   0.324   3.169  0.1280  0.5229 -0.5193
20510SOL    HW167622   4.211   0.289   3.098 -0.4445 -0.0897  0.2046
20510SOL    HW267623   4.339   0.366   3.125 -0.2415  0.1905 -1.4727
20511SOL     OW67624  10.590   7.370   6.976  0.3039  0.3358  0.1021
20511SOL    HW167625  10.582   7.454   6.931  2.5619  0.1042 -0.8637
20511SOL    HW267626  10.625   7.392   7.062 -0.3053  0.4503  0.3312
20512SOL     OW67627   7.281   0.510   4.551 -0.0288  0.3812  0.0773
20512SOL    HW167628   7.291   0.432   4.606  1.8635 -0.6067 -1.5444
20512SOL    HW267629   7.361   0.560   4.566 -0.2700  0.9468 -0.4833
20513SOL     OW67630   2.258   3.794   8.667 -0.1149  0.2205  0.3666
20513SOL    HW167631   2.338   3.842   8.646  0.7587 -0.8821  1.0352
20513SOL    HW267632   2.276   3.704   8.639 -0.6320 -0.3044  1.6472
20514SOL     OW67633   6.841   4.153   4.503  0.2260 -0.0510  0.4295
20514SOL    HW167634   6.792   4.071   4.502 -0.8784  0.5204 -3.2123
20514SOL    HW267635   6.775   4.221   4.503  1.0667  0.7918 -0.2454
20515SOL     OW67636   4.633   8.857   0.934  0.0982 -0.4421 -0.4851
20515SOL    HW167637   4.571   8.845   0.863  0.8092 -1.9560 -0.9137
20515SOL    HW267638   4.651   8.768   0.966  0.4458  0.1234  1.0240
20516SOL     OW67639   3.355   6.003   8.840 -0.4858 -0.2792  0.0173
20516SOL    HW167640   3.343   6.087   8.796  0.4394  0.2830  0.8055
20516SOL    HW267641   3.274   5.955   8.823 -2.3223  1.8680  1.9897
20517SOL     OW67642   0.347   8.617   5.035 -0.0527  0.0865  0.0114
20517SOL    HW167643   0.349   8.648   4.944  2.3786 -1.1017 -0.4269
20517SOL    HW267644   0.308   8.530   5.029 -1.8509  0.8148  0.4687
20518SOL     OW67645   0.956   4.416   5.688 -0.1617  0.4098  0.3874
20518SOL    HW167646   0.899   4.345   5.659  0.4671  0.6635 -1.6577
20518SOL    HW267647   0.905   4.495   5.672 -0.7915  0.4974  2.4962
20519SOL     OW67648   9.411   1.555   9.906 -0.2979  0.0810 -0.3032
20519SOL    HW167649   9.335   1.544   9.963  0.9493  0.5564  1.5405
20519SOL    HW267650   9.392   1.632   9.853 -0.5381  1.0248  1.1214
20520SOL     OW67651   9.748   0.006   4.249  0.5273  0.6201 -0.5985
20520SOL    HW167652   9.766   0.090   4.290 -0.5040 -0.4016  2.1872
20520SOL    HW267653   9.653   0.005   4.238  0.3383 -0.7525  0.8728
20521SOL     OW67654   0.359   9.392   8.286  0.0241 -0.0038  0.0917
20521SOL    HW167655   0.312   9.322   8.241  0.3276 -0.0169 -0.2203
20521SOL    HW267656   0.397   9.444   8.214 -1.5137  1.4150  0.2620
20522SOL     OW67657   6.046   3.158  10.166  0.3856  0.2871 -0.2950
20522SOL    HW167658   6.092   3.235  10.132  2.9132 -1.0783 -0.2341
20522SOL    HW267659   6.046   3.170  10.261  2.7670 -0.7105 -0.0994
20523SOL     OW67660   9.588   3.034   2.257 -0.0461 -0.4432 -0.0554
20523SOL    HW167661   9.501   3.054   2.292  1.1665  1.9368  1.9529
20523SOL    HW267662   9.639   3.007   2.333  2.0637  2.5513 -0.1891
20524SOL     OW67663   4.033   8.573   8.345  0.4781  0.4851  0.2401
20524SOL    HW167664   3.994   8.517   8.411  0.6720  1.0298  0.8348
20524SOL    HW267665   4.043   8.658   8.388 -0.9705  1.3528 -1.0258
20525SOL     OW67666   3.334   7.752   1.423  0.7070 -0.1512  0.5963
20525SOL    HW167667   3.302   7.838   1.396  2.0505 -0.0619 -0.8465
20525SOL    HW267668   3.254   7.700   1.434 -0.1575  1.4327  2.1953
20526SOL     OW67669   5.300   4.723   7.514  0.0154 -0.0828  0.0680
20526SOL    HW167670   5.282   4.633   7.541  0.1008 -0.4643 -1.1064
20526SOL    HW267671   5.331   4.766   7.594 -2.5687 -0.3554  1.3584
20527SOL     OW67672   8.746   2.635   5.293  0.3477 -0.2660 -0.3865
20527SOL    HW167673   8.734   2.639   5.387  0.8412 -2.6503 -0.1332
20527SOL    HW267674   8.807   2.706   5.273  1.5984 -0.7747  1.3758
20528SOL     OW67675   0.548   2.073   2.089 -0.0078  0.0437  0.3861
20528SOL    HW167676   0.534   2.026   2.006 -0.1779  2.0806 -0.7966
20528SOL    HW267677   0.621   2.132   2.070  0.4887 -0.0384  1.9686
20529SOL     OW67678   3.073   4.938   8.252 -0.2327  0.0900  0.1079
20529SOL    HW167679   3.085   4.843   8.251 -0.8148  0.0169 -0.3231
20529SOL    HW267680   2.986   4.951   8.289  0.4519  0.5355  1.6157
20530SOL     OW67681   0.603   0.864   7.993  0.8041  0.6880 -0.5301
20530SOL    HW167682   0.587   0.918   7.916 -1.0877  0.0565 -0.6370
20530SOL    HW267683   0.659   0.793   7.961  1.4644  1.3630 -0.8975
20531SOL     OW67684  10.562   2.641   6.773 -0.0251  0.4034  0.4389
20531SOL    HW167685  10.578   2.598   6.689  1.0212  0.1642  0.7389
20531SOL    HW267686  10.637   2.699   6.784 -1.4722  2.4619 -0.0207
20532SOL     OW67687   2.489   7.491   7.280  0.4582  1.1990 -0.8324
20532SOL    HW167688   2.399   7.508   7.309  1.4251  1.7343  2.2759
20532SOL    HW267689   2.527   7.578   7.269  1.6871  1.1454  2.0615
20533SOL     OW67690   9.659   5.748   7.011  0.1586  0.2466 -0.4148
20533SOL    HW167691   9.736   5.692   7.019 -0.6999 -1.1705 -1.4879
20533SOL    HW267692   9.694   5.837   7.001  1.5509 -0.0670  1.3544
20534SOL     OW67693   6.304  10.796   5.266 -0.2190  0.3108  0.1337
20534SOL    HW167694   6.311  10.891   5.273  1.9350  0.2202 -0.1913
20534SOL    HW267695   6.284  10.766   5.354  2.1815  0.8829  0.9338
20535SOL     OW67696   9.395   2.300   6.188  0.1589  0.0356  0.3476
20535SOL    HW167697   9.302   2.277   6.190  0.6274 -2.5167 -1.6016
20535SOL    HW267698   9.424   2.289   6.279 -1.3099  0.3741  0.8915
20536SOL     OW67699   2.493   8.083  10.114  0.4466  0.0332 -0.0192
20536SOL    HW167700   2.413   8.113  10.070  0.3478 -1.3153 -0.8263
20536SOL    HW267701   2.476   8.098  10.207 -0.4778  0.3916 -0.2321
20537SOL     OW67702   6.142   4.564   5.683 -0.2435 -0.4087  0.4286
20537SOL    HW167703   6.116   4.484   5.638 -0.2012 -0.5271  0.6142
20537SOL    HW267704   6.109   4.635   5.628 -0.4127 -0.5552  0.3429
20538SOL     OW67705   6.870   2.766   2.618  0.0720  0.2130 -0.3033
20538SOL    HW167706   6.831   2.853   2.620  1.2257  0.8200 -1.8192
20538SOL    HW267707   6.882   2.747   2.524  0.4800 -1.2811  0.0148
20539SOL     OW67708   1.645   5.445   5.293 -0.5741 -0.0721 -0.2747
20539SOL    HW167709   1.592   5.512   5.336  0.2436  0.3752  0.0635
20539SOL    HW267710   1.728   5.446   5.341 -0.6904 -1.6362  0.0190
20540SOL     OW67711   0.456   9.214   0.009  0.2152 -0.4451 -0.0977
20540SOL    HW167712   0.501   9.292   0.041  0.3684 -0.7495  0.4486
20540SOL    HW267713   0.432   9.166   0.089 -0.9036 -0.3877 -0.3769
20541SOL     OW67714   7.027   7.981   1.021 -0.2854  0.0855  0.1542
20541SOL    HW167715   7.073   7.934   0.952  0.0021  0.4268  0.1154
20541SOL    HW267716   7.078   7.963   1.100 -1.4133 -1.5130  0.5748
20542SOL     OW67717   3.723   5.658   5.205  0.0257 -0.3792  0.1186
20542SOL    HW167718   3.633   5.649   5.237  0.2695 -1.4285  0.5619
20542SOL    HW267719   3.777   5.628   5.278  0.7384  0.2577 -0.1460
20543SOL     OW67720   0.554   8.872   8.988  0.0190 -1.0623 -0.3426
20543SOL    HW167721   0.495   8.910   9.052  0.1895 -1.9249  0.3304
20543SOL    HW267722   0.584   8.790   9.027  2.6033 -0.1202 -0.0998
20544SOL     OW67723   7.294   0.782   6.741  0.6617  0.0471  0.2726
20544SOL    HW167724   7.204   0.783   6.711  0.7095 -0.3211  0.1205
20544SOL    HW267725   7.334   0.860   6.702 -0.0173  1.1320  1.6580
20545SOL     OW67726  10.257   4.925   7.916  0.1420 -0.1497 -0.4469
20545SOL    HW167727  10.327   4.977   7.877  0.4749 -1.1472 -1.2043
20545SOL    HW267728  10.289   4.835   7.914 -0.9233 -0.5508 -0.2834
20546SOL     OW67729   6.325   0.885   4.570 -0.1632 -0.4180  0.0717
20546SOL    HW167730   6.398   0.861   4.512 -0.0025  0.9423 -0.3169
20546SOL    HW267731   6.347   0.971   4.603 -1.1856 -0.3604  0.6566
20547SOL     OW67732   5.683   3.021   7.168  0.4531 -0.2037  0.1633
20547SOL    HW167733   5.733   3.070   7.102  1.0052 -0.6864  0.2069
20547SOL    HW267734   5.749   2.964   7.209 -0.0101 -0.3577  0.6982
20548SOL     OW67735   5.767   8.047   6.166 -0.2277 -0.0674  0.7021
20548SOL    HW167736   5.814   8.107   6.223 -0.3451 -0.3237  1.0745
20548SOL    HW267737   5.692   8.019   6.218 -0.2232 -0.4675  0.4964
20549SOL     OW67738   7.766   2.773   5.861  0.7254 -0.2041  0.4512
20549SOL    HW167739   7.751   2.679   5.854  1.3565 -0.3490  0.9065
20549SOL    HW267740   7.685   2.813   5.829  0.3891 -0.8991  0.4097
20550SOL     OW67741   3.106  10.871   2.505  0.2116  0.2779 -0.3196
20550SOL    HW167742   3.065  10.897   2.422 -0.0609  1.8036  0.2530
20550SOL    HW267743   3.122  10.778   2.495  0.6487  0.5065 -2.2905
20551SOL     OW67744   6.757   1.706   6.319 -0.0223 -0.1487 -0.4485
20551SOL    HW167745   6.758   1.736   6.410  0.7282 -1.2960 -0.0509
20551SOL    HW267746   6.831   1.750   6.278  0.9973 -1.3003  0.0976
20552SOL     OW67747   4.085   8.548   5.821 -0.4533  0.0028 -0.0836
20552SOL    HW167748   4.027   8.496   5.876 -1.2000  1.2797  0.3915
20552SOL    HW267749   4.081   8.506   5.735 -0.6528 -0.9843  0.3951
20553SOL     OW67750   5.355   8.212   9.695  0.3046  0.4892 -0.3615
20553SOL    HW167751   5.443   8.250   9.700  0.4443  0.2471 -0.8954
20553SOL    HW267752   5.345   8.188   9.603 -1.2556  2.7205 -0.8653
20554SOL     OW67753   0.889   3.039   2.712  0.4245  0.0928 -0.1247
20554SOL    HW167754   0.891   3.041   2.808  1.5090 -2.1879 -0.0324
20554SOL    HW267755   0.975   3.004   2.687 -0.1724 -0.2179 -1.8893
20555SOL     OW67756   2.344   2.461  10.858  0.2767  0.4308  0.5390
20555SOL    HW167757   2.263   2.511  10.845  0.8241  1.0782 -0.5516
20555SOL    HW267758   2.365   2.474  10.950 -1.8713 -1.3607  1.3956
20556SOL     OW67759   0.501   9.009   7.821  0.4675  0.5734 -0.1238
20556SOL    HW167760   0.566   9.041   7.759  1.0000  1.7219  0.9724
20556SOL    HW267761   0.540   8.930   7.858  0.9343  0.8645  0.0166
20557SOL     OW67762   8.743   9.087  10.814 -0.4080  0.0656  0.0969
20557SOL    HW167763   8.799   9.150  10.859 -1.4885  2.0237 -1.1728
20557SOL    HW267764   8.689   9.049  10.883  0.3897  0.3579  0.9096
20558SOL     OW67765  10.659   8.551  10.719  0.5601 -0.3685  0.1757
20558SOL    HW167766  10.653   8.634  10.766  1.3863 -1.2881  1.9985
20558SOL    HW267767  10.725   8.501  10.767  0.6602 -1.7841 -1.3623
20559SOL     OW67768   5.409  10.882   0.537 -0.0496  0.7249 -0.0451
20559SOL    HW167769   5.314  10.872   0.551 -0.0549  1.8664  0.9095
20559SOL    HW267770   5.437  10.943   0.605  1.2648  0.9211 -0.7270
20560SOL     OW67771   8.782   3.428   1.187  0.2675  0.4795  0.3423
20560SOL    HW167772   8.753   3.480   1.263  0.3642 -0.6207  1.1609
20560SOL    HW267773   8.819   3.349   1.225  0.6581  0.0638 -0.8602
20561SOL     OW67774   5.904   1.356   2.945  0.4285 -0.0380 -0.1513
20561SOL    HW167775   5.843   1.316   3.008 -0.7979  0.8145 -0.7651
20561SOL    HW267776   5.877   1.321   2.860  1.4047 -0.3590 -0.3399
20562SOL     OW67777   7.991   3.973   1.728  0.1048 -0.1426 -0.1506
20562SOL    HW167778   8.055   4.017   1.672 -0.6717 -0.4772 -1.3381
20562SOL    HW267779   7.917   3.954   1.670  0.2935 -2.7824  0.3729
20563SOL     OW67780   2.562   8.865   3.585 -0.2815  0.4212 -0.4821
20563SOL    HW167781   2.641   8.912   3.559 -0.0214  1.6572  2.1785
20563SOL    HW267782   2.588   8.820   3.666 -1.8014 -0.6910 -0.5824
20564SOL     OW67783   9.769   8.956   8.816 -0.1106  0.6594  0.8009
20564SOL    HW167784   9.813   8.881   8.856 -0.4499 -0.4893 -0.8675
20564SOL    HW267785   9.677   8.946   8.841 -0.0504  0.9033  1.1274
20565SOL     OW67786   3.892   4.088   1.073 -0.0522 -0.5272  0.0103
20565SOL    HW167787   3.948   4.083   0.996  0.5892 -1.7014  0.5245
20565SOL    HW267788   3.935   4.151   1.130 -1.2485  1.4094 -1.1051
20566SOL     OW67789   3.660   0.653   9.712 -0.6110  0.4646  0.6181
20566SOL    HW167790   3.667   0.600   9.792  2.2469  0.5003  0.5047
20566SOL    HW267791   3.746   0.694   9.703 -0.3791 -0.4774 -3.1085
20567SOL     OW67792   3.840  10.450   6.632  0.2031 -0.3271  0.8187
20567SOL    HW167793   3.748  10.437   6.609  0.1493 -0.3863  1.0664
20567SOL    HW267794   3.875  10.502   6.560  0.3419 -1.5654 -0.0380
20568SOL     OW67795  10.801   3.443   7.300 -0.0329 -0.0262  0.4130
20568SOL    HW167796  10.837   3.491   7.374 -0.8456 -2.2974  2.4226
20568SOL    HW267797  10.847   3.359   7.302 -0.4187 -0.3201 -1.3920
20569SOL     OW67798  10.204   2.376  10.601  0.1099  0.0419 -0.3718
20569SOL    HW167799  10.194   2.455  10.655 -0.7706  0.3712 -0.9961
20569SOL    HW267800  10.131   2.320  10.627 -0.4777  0.3132 -1.3842
20570SOL     OW67801   0.948   5.254  10.359 -0.1433  0.5977 -0.2739
20570SOL    HW167802   0.903   5.335  10.334 -0.5568  0.3575 -0.3185
20570SOL    HW267803   0.896   5.220  10.432 -0.2004  0.1670 -0.5129
20571SOL     OW67804   5.418  10.467   6.422 -0.3713 -0.2569 -0.6059
20571SOL    HW167805   5.402  10.391   6.367 -0.0552  0.0468 -1.1311
20571SOL    HW267806   5.441  10.431   6.508  0.9465 -0.8034 -1.1533
20572SOL     OW67807   4.107   5.980   0.027 -0.0683  0.5910  0.2389
20572SOL    HW167808   4.102   6.074   0.044 -1.4463  0.6682 -0.4506
20572SOL    HW267809   4.140   5.973  -0.062 -0.1251  0.4234  0.2307
20573SOL     OW67810   1.293   8.047   0.836 -0.1079  0.0554 -0.2386
20573SOL    HW167811   1.282   8.129   0.884  1.2938  0.5594 -0.7303
20573SOL    HW267812   1.223   8.046   0.772 -0.5821  0.5049  0.2678
20574SOL     OW67813  10.194   1.492   0.069  0.8756  0.0541  0.2988
20574SOL    HW167814  10.269   1.467   0.123 -0.4876  0.8106  2.7283
20574SOL    HW267815  10.218   1.576   0.031  0.5303  1.4298  2.8861
20575SOL     OW67816   2.104   7.013   5.218  0.1164  0.0120 -0.2867
20575SOL    HW167817   2.124   6.919   5.216  0.8438  0.1739 -1.3718
20575SOL    HW267818   2.175   7.052   5.269  0.1663  0.0511 -0.3858
20576SOL     OW67819   9.852   2.708   2.609  0.4008 -0.4848  0.5017
20576SOL    HW167820   9.946   2.691   2.613  1.0737  2.3813 -0.4213
20576SOL    HW267821   9.815   2.629   2.570  2.2608 -2.0746  1.7763
20577SOL     OW67822   0.910   9.677   3.490 -0.2385  0.5891 -0.3185
20577SOL    HW167823   0.952   9.709   3.410  0.1343  0.8687 -0.0172
20577SOL    HW267824   0.920   9.582   3.487  0.4136  0.6499 -0.2596
20578SOL     OW67825   3.072   2.795   8.778 -0.0946  0.0722 -0.1691
20578SOL    HW167826   3.006   2.773   8.712 -0.1450 -2.1077  0.5139
20578SOL    HW267827   3.028   2.782   8.861  0.6153  0.5863  0.2971
20579SOL     OW67828   4.478   7.121   4.831 -0.1351  0.2284  0.1943
20579SOL    HW167829   4.501   7.134   4.923  1.3455  0.2493 -0.1478
20579SOL    HW267830   4.479   7.026   4.819 -0.9752  0.1966  0.3457
20580SOL     OW67831   7.962   3.271   0.116  0.1723  0.2473 -0.7801
20580SOL    HW167832   7.960   3.275   0.020 -0.6458 -0.8109 -0.8273
20580SOL    HW267833   7.927   3.184   0.137  1.0664  0.1613  0.4633
20581SOL     OW67834   9.335   4.117   2.466  0.1103  0.3894 -1.0162
20581SOL    HW167835   9.327   4.099   2.559 -1.3308  1.6666 -0.8566
20581SOL    HW267836   9.374   4.037   2.429  0.6329 -0.1565  0.6417
20582SOL     OW67837   4.724   4.746   7.689  0.9213  0.8137  0.1994
20582SOL    HW167838   4.688   4.777   7.772  0.4924 -1.4192  0.9190
20582SOL    HW267839   4.769   4.664   7.712  0.3232 -0.1506 -1.8381
20583SOL     OW67840   1.389   0.298   2.574 -0.1599  0.2226 -0.4285
20583SOL    HW167841   1.386   0.236   2.647 -1.1222 -1.1117 -1.5598
20583SOL    HW267842   1.454   0.262   2.514  0.6748  1.3466 -0.2478
20584SOL     OW67843   0.475  10.893   0.879 -0.0429  0.0084 -0.3640
20584SOL    HW167844   0.560  10.857   0.903  1.1637  2.0304 -1.3479
20584SOL    HW267845   0.459  10.864   0.790 -1.4110 -2.0389  0.4740
20585SOL     OW67846   4.115   4.499   5.751 -0.5714 -0.1310  0.4919
20585SOL    HW167847   4.087   4.414   5.718  0.3966 -0.4952  0.5747
20585SOL    HW267848   4.063   4.562   5.702  0.3671 -0.6728 -1.2933
20586SOL     OW67849   5.233   2.323   7.289 -0.1788  0.6587  0.2459
20586SOL    HW167850   5.164   2.265   7.321  0.8501 -1.5904 -1.2852
20586SOL    HW267851   5.273   2.274   7.217  1.6618  2.7608 -0.2677
20587SOL     OW67852   3.680   8.339   7.866  0.0313  0.1814  0.2873
20587SOL    HW167853   3.675   8.273   7.935 -1.5081  0.4212  0.4638
20587SOL    HW267854   3.763   8.323   7.822  0.7048 -0.4546  1.7195
20588SOL     OW67855   2.407   0.254   1.925  0.1035 -0.4252 -0.1117
20588SOL    HW167856   2.431   0.162   1.913  1.5918  0.1078 -1.7608
20588SOL    HW267857   2.490   0.300   1.935 -0.4775  0.9357 -1.1067
20589SOL     OW67858   1.274   5.915   7.402  0.4194 -0.0271  0.2192
20589SOL    HW167859   1.229   5.993   7.435 -1.9734 -1.6888  1.1342
20589SOL    HW267860   1.365   5.926   7.431 -0.2513  1.5476  1.8995
20590SOL     OW67861   9.549   3.959   2.659 -0.1304 -0.4698  0.4069
20590SOL    HW167862   9.598   3.974   2.739  1.7063 -1.9645 -0.3675
20590SOL    HW267863   9.497   3.880   2.676 -1.4430  0.4405  0.8176
20591SOL     OW67864   9.285  10.055   4.810 -0.6901 -0.4830 -1.0946
20591SOL    HW167865   9.317  10.093   4.729 -0.7361 -2.6812 -2.2110
20591SOL    HW267866   9.192  10.039   4.795 -1.5596  2.1776  0.6938
20592SOL     OW67867   1.381  10.843   5.269  0.7443  0.3539 -0.2822
20592SOL    HW167868   1.387  10.894   5.188 -0.3030 -0.8789 -1.1768
20592SOL    HW267869   1.462  10.791   5.271  0.5811  0.0802 -0.7576
20593SOL     OW67870   4.404   0.760   3.766  0.6070 -0.5813 -0.2818
20593SOL    HW167871   4.483   0.812   3.751  0.2010  0.2118  0.2875
20593SOL    HW267872   4.408   0.734   3.858  0.4272 -0.9252 -0.3654
20594SOL     OW67873   4.065   8.591   2.640  0.1587 -0.3038 -0.5896
20594SOL    HW167874   4.022   8.559   2.561 -0.8173  0.8237 -0.5438
20594SOL    HW267875   4.070   8.686   2.627 -2.6301  0.3259  1.8726
20595SOL     OW67876   4.670   2.541  10.342 -0.2403  0.7107 -0.1574
20595SOL    HW167877   4.593   2.550  10.397  0.5155  0.8599  0.8978
20595SOL    HW267878   4.672   2.448  10.318  0.3248  0.2878  1.4411
20596SOL     OW67879   1.127   6.001   5.796 -0.0553  0.1727 -0.5811
20596SOL    HW167880   1.141   5.983   5.702 -1.6509 -0.1294 -0.7964
20596SOL    HW267881   1.032   6.016   5.803  0.1226  0.6993  0.9100
20597SOL     OW67882   9.970   7.085   5.011 -0.0252 -0.0317 -0.4262
20597SOL    HW167883  10.049   7.130   4.984 -0.2228 -0.7512 -2.3956
20597SOL    HW267884   9.931   7.142   5.078  1.6480  0.7827 -0.1047
20598SOL     OW67885   5.632   6.094   5.880 -0.2601  0.8897 -0.7037
20598SOL    HW167886   5.613   6.187   5.866 -0.4702  0.8574 -0.6390
20598SOL    HW267887   5.719   6.082   5.842 -0.4859  0.9813 -1.2620
20599SOL     OW67888   8.182   6.017   1.464  0.2477 -0.5269  0.2923
20599SOL    HW167889   8.253   6.002   1.403  0.1117  1.1739 -0.3318
20599SOL    HW267890   8.214   6.086   1.523 -0.6558 -0.1370  0.3521
20600SOL     OW67891   7.323   0.158   3.878  0.0038  0.3659  0.3428
20600SOL    HW167892   7.416   0.136   3.875  0.1389  0.9372  0.1193
20600SOL    HW267893   7.290   0.130   3.793  0.0652  0.5399  0.2599
20601SOL     OW67894   3.006   8.387   0.035  0.4464  0.1487 -0.0051
20601SOL    HW167895   3.032   8.325  -0.033  1.5448  0.6201 -0.0379
20601SOL    HW267896   2.917   8.360   0.059  1.2370 -2.0679  0.6908
20602SOL     OW67897   0.035   0.483   1.867 -0.5833  0.1465  0.4962
20602SOL    HW167898   0.060   0.486   1.775  0.5602 -0.0561  0.7803
20602SOL    HW267899  -0.035   0.547   1.875 -0.0018  0.9075 -0.3195
20603SOL     OW67900   9.843   2.858   0.895  0.2220  0.1137  0.0751
20603SOL    HW167901   9.777   2.912   0.939 -0.8132 -1.2169  0.2314
20603SOL    HW267902   9.926   2.900   0.915 -0.6562  2.9127 -1.6051
20604SOL     OW67903   6.890   2.359   4.557  0.0694 -0.1977 -0.0899
20604SOL    HW167904   6.795   2.354   4.553 -0.0853  1.2108  0.8420
20604SOL    HW267905   6.913   2.333   4.646  0.3280  1.5075  0.3919
20605SOL     OW67906   4.676   5.680   0.466 -0.0344  0.7569  0.2475
20605SOL    HW167907   4.593   5.651   0.429  0.8141  0.5664 -1.6513
20605SOL    HW267908   4.660   5.771   0.494 -1.0562  0.4828  0.5811
20606SOL     OW67909   6.942   6.003   1.631 -0.1155 -0.3157  0.4055
20606SOL    HW167910   6.930   5.945   1.706  1.2778  0.3302  1.1529
20606SOL    HW267911   7.004   5.957   1.574  0.8593  0.3364  0.9184
20607SOL     OW67912   8.740   2.928   1.527 -0.1714  0.4106 -0.0761
20607SOL    HW167913   8.789   2.963   1.453  2.0164 -1.3578  0.4246
20607SOL    HW267914   8.691   2.854   1.492  2.3707 -1.6657  0.4579
20608SOL     OW67915   8.416   5.274   9.799  0.2591 -0.4328 -0.0173
20608SOL    HW167916   8.444   5.279   9.707  2.0854 -0.5993  0.4926
20608SOL    HW267917   8.384   5.362   9.819  0.8962 -0.0816 -0.5031
20609SOL     OW67918   9.595   7.387   2.589  0.0407  0.4791  0.0896
20609SOL    HW167919   9.636   7.311   2.548 -1.2303  0.0216 -0.3686
20609SOL    HW267920   9.508   7.357   2.615 -1.2742  2.2939 -1.9052
20610SOL     OW67921  10.130   9.296   3.483  0.0035  0.0618 -0.2344
20610SOL    HW167922  10.090   9.315   3.568 -0.3687  2.5442 -0.8861
20610SOL    HW267923  10.061   9.315   3.420  0.5870 -0.8047 -1.1619
20611SOL     OW67924   4.308   7.075   8.094 -0.8129 -0.6008  0.1932
20611SOL    HW167925   4.253   7.154   8.098  1.0911  0.8574 -0.6157
20611SOL    HW267926   4.334   7.060   8.185 -0.6916  0.0793  0.2768
20612SOL     OW67927   6.146   7.059   7.186 -0.4415  0.1789  0.0925
20612SOL    HW167928   6.149   7.043   7.280 -0.3189  0.5223  0.1498
20612SOL    HW267929   6.222   7.115   7.169  0.3548 -1.0020 -0.4337
20613SOL     OW67930   1.947   2.595   0.441  0.2514  0.4761  0.7436
20613SOL    HW167931   1.897   2.635   0.513  0.4774  1.3376  0.4332
20613SOL    HW267932   1.902   2.625   0.362 -0.7917 -1.5142  0.5199
20614SOL     OW67933   8.046   7.805   5.168 -0.3940 -0.1631  0.4156
20614SOL    HW167934   7.997   7.875   5.212 -1.1068 -0.3662 -0.0339
20614SOL    HW267935   7.991   7.782   5.093  0.1734 -0.7268  0.1724
20615SOL     OW67936   6.281   8.358   8.752  0.3812 -0.1020  0.1290
20615SOL    HW167937   6.297   8.310   8.833 -0.2676  2.2525  1.7425
20615SOL    HW267938   6.366   8.396   8.729  0.3864 -0.0897  0.1683
20616SOL     OW67939   1.716   0.418   1.075  0.1169  0.0233 -0.2322
20616SOL    HW167940   1.752   0.432   0.988  2.1930  0.1140  0.5843
20616SOL    HW267941   1.638   0.474   1.078  2.4301  3.6005 -0.5817
20617SOL     OW67942   6.363   4.989   9.722  0.5021 -0.1359 -0.1976
20617SOL    HW167943   6.411   4.926   9.668  0.0441  0.0681 -0.8614
20617SOL    HW267944   6.414   4.996   9.803  0.4160 -1.5451 -0.0045
20618SOL     OW67945   2.057  10.293   4.308 -0.0651  0.1969  0.4166
20618SOL    HW167946   1.981  10.292   4.366 -0.6196  1.3881 -0.2665
20618SOL    HW267947   2.040  10.363   4.246  1.0822 -0.2492 -0.4509
20619SOL     OW67948   7.940   0.636   8.219 -0.1762 -0.5145 -0.4637
20619SOL    HW167949   7.932   0.728   8.193 -1.5374 -0.8867 -1.5101
20619SOL    HW267950   7.853   0.613   8.251  0.7892 -0.7946  2.1728
20620SOL     OW67951   0.223  10.091   0.109 -0.6757  0.1940 -0.4776
20620SOL    HW167952   0.215  10.089   0.204  0.3758 -0.3627 -0.3836
20620SOL    HW267953   0.261  10.177   0.090 -0.3108  0.0696 -0.3312
20621SOL     OW67954  10.521   9.948   1.668  0.7001  0.0997 -0.6561
20621SOL    HW167955  10.515   9.924   1.761 -0.0730  1.4918 -0.3211
20621SOL    HW267956  10.467   9.883   1.623  0.6709 -0.2879 -0.0700
20622SOL     OW67957   2.585   9.510   0.191  0.8218 -0.1090 -0.5563
20622SOL    HW167958   2.618   9.522   0.280  0.5739  0.1339 -0.4948
20622SOL    HW267959   2.656   9.467   0.144  0.4971 -1.3814  0.0764
20623SOL     OW67960   9.410   7.915   0.703 -1.0034 -0.2624 -0.1681
20623SOL    HW167961   9.499   7.880   0.705 -1.0113 -0.2653  0.2123
20623SOL    HW267962   9.411   7.989   0.764 -1.7473 -1.4591  1.3657
20624SOL     OW67963   2.255   7.275   6.564 -0.5548  0.2778 -0.0741
20624SOL    HW167964   2.245   7.199   6.622  0.6287  0.2307  0.0947
20624SOL    HW267965   2.189   7.337   6.595  0.7993  0.7266  2.1322
20625SOL     OW67966   1.290   2.812   4.281  0.2179 -0.3226  0.3689
20625SOL    HW167967   1.297   2.718   4.299 -1.1501 -0.4307  0.3882
20625SOL    HW267968   1.311   2.853   4.365  1.0380 -0.5929  0.3043
20626SOL     OW67969  10.589   6.943   1.342 -0.3433 -0.0511  0.7467
20626SOL    HW167970  10.509   6.891   1.355 -0.4857  0.7835  4.5088
20626SOL    HW267971  10.567   7.030   1.377  1.5281  0.8971 -0.2758
20627SOL     OW67972   4.118   2.671   5.095  0.2393 -0.5366  0.0766
20627SOL    HW167973   4.031   2.634   5.112 -0.2325  0.2828 -0.4881
20627SOL    HW267974   4.148   2.702   5.181 -0.3687 -0.1238  0.1474
20628SOL     OW67975   9.321   7.042   5.006  0.8039 -0.2056  0.2683
20628SOL    HW167976   9.240   7.022   4.959  2.1584 -3.7423 -0.8972
20628SOL    HW267977   9.360   7.115   4.958 -0.1827 -0.5768 -1.1528
20629SOL     OW67978   9.151   3.460   7.488  0.5074  0.3194  0.5974
20629SOL    HW167979   9.087   3.526   7.515  1.0241  0.8170  0.6142
20629SOL    HW267980   9.235   3.495   7.517  0.8855  0.0667 -0.1689
20630SOL     OW67981  10.229   9.625   6.890 -0.4122  0.3373  0.0072
20630SOL    HW167982  10.194   9.658   6.807  1.1601  1.5177 -0.2234
20630SOL    HW267983  10.282   9.549   6.865 -0.1319  0.5488 -0.0405
20631SOL     OW67984   2.622   1.069   9.083 -0.1736  0.2284 -0.3377
20631SOL    HW167985   2.555   1.022   9.132  0.0946 -0.5584 -0.7207
20631SOL    HW267986   2.668   1.002   9.033  2.3015  0.3942  1.5180
20632SOL     OW67987   7.305   7.108   5.686 -0.3466 -0.0681  0.0955
20632SOL    HW167988   7.354   7.184   5.717 -0.5711  0.7213 -1.4465
20632SOL    HW267989   7.274   7.132   5.599 -2.1042 -1.1752  0.3669
20633SOL     OW67990   8.039   4.287   8.553 -0.1923  0.1233 -0.1447
20633SOL    HW167991   7.989   4.230   8.494 -0.0623 -0.2836  0.1317
20633SOL    HW267992   7.989   4.367   8.558  0.1407  0.4295 -1.3617
20634SOL     OW67993   7.950   0.794   5.018 -0.2033 -0.3590 -0.2556
20634SOL    HW167994   7.916   0.871   5.063 -0.8549  1.1580 -3.0854
20634SOL    HW267995   7.872   0.749   4.986  0.2534 -0.6711 -0.9593
20635SOL     OW67996   7.451   0.015   2.258 -0.0143 -0.1802 -0.0175
20635SOL    HW167997   7.466  -0.048   2.187  0.9110  0.1590 -0.1396
20635SOL    HW267998   7.420  -0.038   2.331  0.2002 -0.7098 -0.3038
20636SOL     OW67999   1.763   6.880   3.348 -0.6729 -0.1528 -0.7834
20636SOL    HW168000   1.837   6.829   3.315 -0.3698  0.3257 -0.8490
20636SOL    HW268001   1.803   6.957   3.389 -1.1361  0.1249 -0.8418
20637SOL     OW68002   8.075   0.068   9.135  0.4771  0.0506 -0.2036
20637SOL    HW168003   8.078  -0.008   9.194  1.1557 -0.3465 -0.7347
20637SOL    HW268004   8.064   0.143   9.194 -2.2355 -0.5581  0.2462
20638SOL     OW68005   2.239   9.352   2.857  0.3171 -0.4324 -0.1470
20638SOL    HW168006   2.281   9.331   2.940  0.4874  1.0899  0.1740
20638SOL    HW268007   2.199   9.438   2.871  0.3735 -0.1332 -1.6375
20639SOL     OW68008   4.941  10.346   5.204 -0.1299 -0.1519 -0.5188
20639SOL    HW168009   4.935  10.329   5.110 -2.3319  1.2320 -0.7010
20639SOL    HW268010   4.873  10.291   5.243  1.1118 -1.1198  0.3809
20640SOL     OW68011   8.354   4.840   6.050  0.4223 -0.0409 -0.0990
20640SOL    HW168012   8.324   4.752   6.072  0.7050 -0.2096 -0.3798
20640SOL    HW268013   8.317   4.858   5.964 -0.4989  0.5315  0.4031
20641SOL     OW68014   2.744   5.615   6.731 -0.3433 -0.6705  0.1751
20641SOL    HW168015   2.678   5.670   6.771 -1.1390 -0.7157 -1.0189
20641SOL    HW268016   2.819   5.618   6.791 -1.0342  0.2413  1.0055
20642SOL     OW68017   9.290   6.979   0.689 -0.3295 -0.3463  0.3230
20642SOL    HW168018   9.282   6.993   0.783  0.5764 -1.5575  0.5972
20642SOL    HW268019   9.279   6.885   0.677  2.5295 -0.6963 -0.3929
20643SOL     OW68020   8.571   6.713   5.503  0.2132  0.4643  0.1292
20643SOL    HW168021   8.489   6.665   5.494  0.9870 -0.6638 -1.3958
20643SOL    HW268022   8.547   6.793   5.550 -2.0123  0.7885 -1.3900
20644SOL     OW68023  10.684   0.503   4.710 -0.1378  0.0499 -0.1924
20644SOL    HW168024  10.724   0.478   4.793  1.1084 -2.5360 -1.4726
20644SOL    HW268025  10.627   0.430   4.687 -2.9450  2.0724 -0.2075
20645SOL     OW68026  10.778   5.461   8.091 -0.3141 -0.6051 -0.6535
20645SOL    HW168027  10.701   5.405   8.079 -0.0938 -1.6668  2.1937
20645SOL    HW268028  10.742   5.550   8.096 -0.7057 -0.3126 -4.7603
20646SOL     OW68029   9.555   6.704   8.274 -0.5352  0.2968  0.4153
20646SOL    HW168030   9.590   6.791   8.292 -1.0934  0.2435  1.9184
20646SOL    HW268031   9.615   6.667   8.209  2.5514  0.0384  3.1624
20647SOL     OW68032   3.589   3.544   4.759  0.0067  0.1482 -0.1754
20647SOL    HW168033   3.621   3.454   4.759 -0.7291 -0.1433  1.1311
20647SOL    HW268034   3.653   3.593   4.810 -1.3738 -0.3877  2.2290
20648SOL     OW68035   0.465   3.641   4.924  0.0453 -0.2384  0.2963
20648SOL    HW168036   0.547   3.593   4.931 -0.4481 -0.9514  1.3770
20648SOL    HW268037   0.421   3.627   5.008  1.5015  5.1393  2.4012
20649SOL     OW68038   8.174   9.493   5.813 -0.1114  0.4404  0.1175
20649SOL    HW168039   8.246   9.488   5.750 -0.3342 -0.8306 -0.0672
20649SOL    HW268040   8.203   9.439   5.886 -0.8413 -0.0412  0.0633
20650SOL     OW68041   6.366   9.503   8.144  0.6754 -0.7193  0.5004
20650SOL    HW168042   6.320   9.587   8.138  0.0952 -1.0639 -0.0032
20650SOL    HW268043   6.355   9.463   8.058  0.8744 -1.3477  0.7585
20651SOL     OW68044   4.377   6.343   5.128 -0.4614 -0.2954  0.1116
20651SOL    HW168045   4.429   6.390   5.063 -2.5310  1.2196 -0.5713
20651SOL    HW268046   4.318   6.288   5.077 -1.6456  0.3945  0.6842
20652SOL     OW68047   8.016   0.942   1.632 -0.1956  0.4768  0.0078
20652SOL    HW168048   7.942   0.892   1.599  1.7158 -2.8973  0.3656
20652SOL    HW268049   8.068   0.962   1.554 -1.0229  2.2258 -0.1549
20653SOL     OW68050   7.499   2.187   9.373 -0.0297  0.4783 -0.1881
20653SOL    HW168051   7.428   2.129   9.404 -0.2200  2.3493  3.3357
20653SOL    HW268052   7.462   2.275   9.379  2.1677  1.4110  0.5890
20654SOL     OW68053   3.841   2.061   5.356 -0.1782 -0.2101 -0.1871
20654SOL    HW168054   3.924   2.046   5.402  1.1105 -1.0364 -2.6028
20654SOL    HW268055   3.853   2.019   5.271 -2.5976  0.8292 -1.1272
20655SOL     OW68056  10.843   9.534   1.325 -0.1962 -0.6190 -0.2322
20655SOL    HW168057  10.845   9.613   1.271  0.3824  0.9212  1.9006
20655SOL    HW268058  10.932   9.527   1.361 -0.3334 -2.0624 -0.0921
20656SOL     OW68059   8.660   0.342   8.397  0.5094  0.5301 -0.4651
20656SOL    HW168060   8.646   0.253   8.364  1.9325 -0.0991  0.5104
20656SOL    HW268061   8.748   0.365   8.368  1.5842  0.1781  2.2195
20657SOL     OW68062   3.308   6.713   8.761 -0.0499 -0.5346 -0.3943
20657SOL    HW168063   3.262   6.644   8.809  0.8258 -1.4975 -0.8914
20657SOL    HW268064   3.382   6.735   8.817 -0.4014  0.1178 -0.1750
20658SOL     OW68065   8.258  10.082   0.259  0.2836  0.3173  0.2635
20658SOL    HW168066   8.193  10.012   0.263  0.1168  0.4737  0.2791
20658SOL    HW268067   8.340  10.037   0.236 -0.1494  0.3102 -1.4211
20659SOL     OW68068   4.707   3.148   4.780  0.0493  0.2131 -0.1817
20659SOL    HW168069   4.693   3.132   4.873 -0.1045  2.3861  0.2129
20659SOL    HW268070   4.802   3.141   4.768  0.4305  2.6433  0.7812
20660SOL     OW68071   4.199   3.315   3.111 -0.5257  0.0267  0.1723
20660SOL    HW168072   4.221   3.407   3.127 -1.9961  0.4379 -0.0622
20660SOL    HW268073   4.283   3.274   3.087  0.7117  0.6499  3.0501
20661SOL     OW68074   8.400   1.118   4.930  0.2667  0.7249  0.0235
20661SOL    HW168075   8.317   1.157   4.902  0.2627 -0.4794 -1.8402
20661SOL    HW268076   8.448   1.105   4.849  1.9667  0.6494  1.0075
20662SOL     OW68077   1.123   9.104   6.035  0.0836  0.2590 -0.2282
20662SOL    HW168078   1.151   9.176   6.090  0.7160 -0.1895  0.0467
20662SOL    HW268079   1.085   9.146   5.958 -0.5951  0.8845  0.4330
20663SOL     OW68080   2.916   2.484   0.404  0.3780  0.3753  0.2915
20663SOL    HW168081   2.866   2.537   0.466 -1.1330  0.2003 -0.7383
20663SOL    HW268082   2.982   2.439   0.458 -0.6592  0.5080  1.7018
20664SOL     OW68083   3.764   7.027   6.063  0.3669  0.0355 -0.0274
20664SOL    HW168084   3.781   6.936   6.042 -1.6312 -0.3172 -0.2853
20664SOL    HW268085   3.685   7.025   6.117  0.0776  1.6220 -0.3374
20665SOL     OW68086   3.121   4.384  10.638 -0.1941 -0.0292 -0.0680
20665SOL    HW168087   3.031   4.385  10.671  0.0347 -0.1421  0.5740
20665SOL    HW268088   3.159   4.465  10.671 -0.3515  0.5118 -1.1833
20666SOL     OW68089   5.968   1.129   7.260 -0.1356  0.2393  0.2129
20666SOL    HW168090   6.010   1.044   7.252  1.5712  0.8208  2.1046
20666SOL    HW268091   5.879   1.110   7.288 -0.8773 -0.9824 -2.6567
20667SOL     OW68092   3.572   7.422   6.621  0.1965 -0.3080  0.2926
20667SOL    HW168093   3.651   7.473   6.602  0.2818 -0.7773 -0.6783
20667SOL    HW268094   3.569   7.356   6.552 -0.9593 -0.4031  0.4142
20668SOL     OW68095   7.827   1.831   6.729  0.2882  0.0368 -0.6297
20668SOL    HW168096   7.826   1.926   6.716  0.6550  0.3663  1.3521
20668SOL    HW268097   7.740   1.811   6.763  0.5190 -0.1762 -0.1543
20669SOL     OW68098   8.411   5.655   8.331  0.4275 -0.1958 -0.0911
20669SOL    HW168099   8.488   5.605   8.359  0.2101  0.5866  2.0992
20669SOL    HW268100   8.338   5.616   8.379 -0.1697  0.5338 -0.3881
20670SOL     OW68101   4.456   7.025   1.700 -0.4971 -0.2176  0.1938
20670SOL    HW168102   4.471   7.107   1.653  0.5596 -0.6757 -0.3224
20670SOL    HW268103   4.470   6.957   1.634  0.2330 -0.8532  0.9802
20671SOL     OW68104   5.496   6.534   0.411 -0.2513  0.3027 -0.3534
20671SOL    HW168105   5.477   6.581   0.492  3.3448  1.1805  0.1808
20671SOL    HW268106   5.512   6.603   0.346  0.5044 -0.2775 -0.8105
20672SOL     OW68107   0.645  10.436   4.662 -0.0446 -0.3210  0.5446
20672SOL    HW168108   0.667  10.524   4.694 -1.5295 -0.0893  1.0057
20672SOL    HW268109   0.620  10.387   4.741 -1.0731 -0.5674  0.0887
20673SOL     OW68110   3.638   0.772   4.261  0.0366  0.1989  0.2921
20673SOL    HW168111   3.718   0.795   4.214 -0.7547  0.4807 -0.9678
20673SOL    HW268112   3.629   0.677   4.249  0.7222 -0.0113  1.3356
20674SOL     OW68113   1.559   1.666   6.808  0.2254  0.5773 -0.1547
20674SOL    HW168114   1.466   1.641   6.811  0.2176  0.6601  1.1483
20674SOL    HW268115   1.557   1.760   6.789  0.0552  0.4891 -0.5705
20675SOL     OW68116   5.778   2.715   0.920 -0.0305 -0.0815  0.0492
20675SOL    HW168117   5.839   2.651   0.957 -0.8449  0.2071  2.0517
20675SOL    HW268118   5.834   2.784   0.884  0.8349 -1.0169 -0.4176
20676SOL     OW68119   8.630   9.691   4.052  0.5097  0.1873  0.7826
20676SOL    HW168120   8.709   9.639   4.063  0.7070  0.3157  0.0269
20676SOL    HW268121   8.604   9.714   4.141  1.8233  0.8953  1.0071
20677SOL     OW68122   1.219   2.376   5.332  0.0495 -0.4667  0.6066
20677SOL    HW168123   1.313   2.393   5.327 -0.1937  0.8535  0.1930
20677SOL    HW268124   1.181   2.424   5.258 -1.0620  0.0130  1.4463
20678SOL     OW68125   7.359   2.397   4.194  0.1140 -0.1343 -0.3526
20678SOL    HW168126   7.366   2.387   4.289 -0.4049  2.3418  0.0091
20678SOL    HW268127   7.347   2.491   4.180 -1.0505 -0.5546 -2.7922
20679SOL     OW68128   1.246   2.579   4.403 -0.1192  0.5020  0.0106
20679SOL    HW168129   1.231   2.485   4.413  0.0880  0.3830 -0.7274
20679SOL    HW268130   1.158   2.617   4.407 -0.0162  0.7119  4.0205
20680SOL     OW68131   3.379   9.369  10.166  0.2537  0.2213  0.6957
20680SOL    HW168132   3.373   9.368  10.261 -0.6080  0.5734  0.6489
20680SOL    HW268133   3.379   9.276  10.141 -0.4441  0.1372  0.9900
20681SOL     OW68134   4.798   0.231   1.453  0.3831 -0.1556 -1.2513
20681SOL    HW168135   4.814   0.249   1.545  3.1565  0.3339 -1.7499
20681SOL    HW268136   4.843   0.301   1.406 -2.7224  0.8418 -3.0440
20682SOL     OW68137   0.088   0.619   2.700 -0.7141  0.5828  0.6540
20682SOL    HW168138   0.049   0.570   2.773 -0.6433  0.5502  0.6697
20682SOL    HW268139   0.054   0.707   2.710 -2.2395  0.1496 -0.3670
20683SOL     OW68140   5.502   0.883   0.232  0.2286  0.0639  0.0206
20683SOL    HW168141   5.569   0.891   0.164 -0.5034  0.2201 -0.6974
20683SOL    HW268142   5.419   0.890   0.185 -0.2941  0.2776  0.9476
20684SOL     OW68143   8.635   8.636   0.648  0.2030  0.2209  0.2913
20684SOL    HW168144   8.658   8.543   0.645 -0.2969  0.0842  0.6805
20684SOL    HW268145   8.708   8.677   0.695  0.9568  0.2027 -0.8186
20685SOL     OW68146   0.879  10.071   7.701 -1.0252 -0.5899 -0.2927
20685SOL    HW168147   0.844  10.021   7.628 -0.6948 -0.0036 -0.8572
20685SOL    HW268148   0.974  10.073   7.687 -0.9961 -0.1447 -0.0663
20686SOL     OW68149   9.981   5.158   9.512 -0.3888 -0.4178  0.3428
20686SOL    HW168150  10.019   5.072   9.497  0.3498 -0.2611  1.2315
20686SOL    HW268151  10.054   5.219   9.505 -0.7313  0.0395  0.6397
20687SOL     OW68152   5.280   4.831   8.018 -0.6872  0.4127 -0.1939
20687SOL    HW168153   5.314   4.909   8.062 -1.1689  0.3493  0.2977
20687SOL    HW268154   5.290   4.761   8.082 -2.4483  0.5375  0.2715
20688SOL     OW68155   4.881   5.605   0.328 -0.1913  0.1380  0.2686
20688SOL    HW168156   4.940   5.680   0.328 -0.8156  0.6778 -1.0241
20688SOL    HW268157   4.805   5.634   0.378  0.6961 -0.6539  2.1720
20689SOL     OW68158   3.792   2.298   3.860  0.7080 -0.2717  0.3825
20689SOL    HW168159   3.825   2.225   3.913 -0.5859 -0.7354  0.5871
20689SOL    HW268160   3.737   2.348   3.921 -2.6765 -2.0562 -0.9286
20690SOL     OW68161   8.459   5.222   0.113  0.2379 -0.8406 -0.0736
20690SOL    HW168162   8.506   5.290   0.162  1.1636 -1.6772  0.2191
20690SOL    HW268163   8.524   5.155   0.096 -0.1177 -0.6888 -2.2968
20691SOL     OW68164   6.216   1.249   1.537 -0.1426  0.2857 -0.5026
20691SOL    HW168165   6.217   1.331   1.488  1.2141  0.3512 -0.3955
20691SOL    HW268166   6.123   1.232   1.552 -0.5888  0.5040 -2.6665
20692SOL     OW68167   1.375  10.651   1.429  0.1690  0.1611 -0.3273
20692SOL    HW168168   1.282  10.636   1.412 -0.1197  0.1464  1.1085
20692SOL    HW268169   1.386  10.746   1.421 -0.2456  0.3061  0.6519
20693SOL     OW68170   6.543   1.163   4.883 -0.0070  0.4784 -0.1792
20693SOL    HW168171   6.480   1.233   4.896 -1.0241 -0.4600  0.1572
20693SOL    HW268172   6.626   1.199   4.912 -0.0966  2.1910 -1.8870
20694SOL     OW68173  10.919   8.942   0.673 -0.0120  0.1736  0.3645
20694SOL    HW168174  10.937   8.864   0.726 -1.1221 -0.4215 -0.0892
20694SOL    HW268175  10.966   9.012   0.717  0.1962 -0.5650  1.3629
20695SOL     OW68176   2.354   7.212   3.292  0.4597 -0.1981 -0.0234
20695SOL    HW168177   2.382   7.234   3.380  1.8868  2.2008 -0.9755
20695SOL    HW268178   2.299   7.285   3.265 -1.2301 -1.6222 -0.6391
20696SOL     OW68179   6.282   9.407   6.379  0.2781  0.0413  0.0550
20696SOL    HW168180   6.262   9.407   6.473  0.2486  1.9972  0.1062
20696SOL    HW268181   6.318   9.495   6.363 -0.4577  0.0291 -1.9091
20697SOL     OW68182   1.468   6.354   8.559  0.0410  0.1145  0.0180
20697SOL    HW168183   1.469   6.303   8.639  1.1031  0.7217  0.4143
20697SOL    HW268184   1.505   6.438   8.584  1.3596 -0.0354 -1.3249
20698SOL     OW68185   7.770   5.306   0.845 -0.2530  0.0816 -0.0907
20698SOL    HW168186   7.733   5.305   0.933  0.1603 -1.0922  0.0738
20698SOL    HW268187   7.779   5.400   0.825 -3.9903  0.5464 -0.4547
20699SOL     OW68188   2.003   7.538   0.349 -0.7590  0.1290 -0.5302
20699SOL    HW168189   2.038   7.599   0.285  0.5037 -1.6587 -1.6590
20699SOL    HW268190   2.080   7.494   0.385 -1.5310  0.1632  1.2998
20700SOL     OW68191   5.758   1.290   1.348 -0.2502  0.1815  0.4593
20700SOL    HW168192   5.803   1.346   1.286  1.5801  0.2797  1.7858
20700SOL    HW268193   5.780   1.201   1.321  0.7247  0.2292  1.0791
20701SOL     OW68194   5.251   8.434   8.754 -0.1754  0.3781 -0.0163
20701SOL    HW168195   5.258   8.516   8.706  1.4549  0.5848  0.5387
20701SOL    HW268196   5.294   8.451   8.838 -0.9223 -0.6824  0.6126
20702SOL     OW68197   4.332   9.991   1.151  0.0337 -0.0536 -0.2625
20702SOL    HW168198   4.335   9.928   1.223 -0.3068 -1.7035 -1.6176
20702SOL    HW268199   4.240   9.994   1.125 -0.4049  2.8442  1.2391
20703SOL     OW68200   6.908   7.218   4.080  0.2530  0.1648  0.4066
20703SOL    HW168201   6.946   7.131   4.067 -1.2614 -0.6437  1.0831
20703SOL    HW268202   6.821   7.200   4.114  0.2457  1.9773  1.4400
20704SOL     OW68203   8.867   0.701   6.088 -0.1760  0.3387  0.3441
20704SOL    HW168204   8.945   0.754   6.072  0.3676 -0.6643 -0.4458
20704SOL    HW268205   8.894   0.636   6.153 -0.7353  0.7859  1.0392
20705SOL     OW68206   2.547   9.846   3.713  0.2732  0.3513  0.6653
20705SOL    HW168207   2.555   9.753   3.736  0.8836  0.1774 -0.2234
20705SOL    HW268208   2.486   9.847   3.639 -0.2442  0.7292  1.0894
20706SOL     OW68209   5.237   0.139   0.776 -0.3347 -0.0782 -0.1180
20706SOL    HW168210   5.233   0.087   0.856  3.0211  2.0574  1.6849
20706SOL    HW268211   5.174   0.209   0.790 -1.0158 -0.6695 -0.1721
20707SOL     OW68212   4.397   2.453   3.484  0.3925 -0.0923  0.1566
20707SOL    HW168213   4.326   2.417   3.430  0.7536  1.2413 -1.2799
20707SOL    HW268214   4.433   2.378   3.531 -1.7462 -0.8463  0.6794
20708SOL     OW68215   0.611  10.135   8.888  0.8010  0.5145  0.2048
20708SOL    HW168216   0.679  10.068   8.884 -0.8091 -1.3248  1.7784
20708SOL    HW268217   0.543  10.097   8.943 -1.1171  2.6398 -0.5492
20709SOL     OW68218   8.782   1.339   8.643  0.1009 -0.2763  0.2282
20709SOL    HW168219   8.864   1.314   8.600  0.5615 -1.0954  1.5231
20709SOL    HW268220   8.782   1.435   8.639  0.4998 -0.3144 -0.9059
20710SOL     OW68221   1.725   1.171   6.320  0.0083 -0.0820 -0.6625
20710SOL    HW168222   1.761   1.121   6.393 -0.2381 -1.7282 -1.6184
20710SOL    HW268223   1.679   1.244   6.361  3.9199  1.9446  0.6894
20711SOL     OW68224   7.022   4.958   9.637  0.6647  0.1492  0.0218
20711SOL    HW168225   6.991   5.038   9.593 -0.9932  1.0893  2.6478
20711SOL    HW268226   7.105   4.984   9.677 -0.4106  1.0169  1.8227
20712SOL     OW68227   9.721   2.765   4.536  0.6421  0.4217 -0.0106
20712SOL    HW168228   9.715   2.851   4.579 -1.8901  0.1173  0.3856
20712SOL    HW268229   9.700   2.782   4.445 -1.7625  0.0675  0.3975
20713SOL     OW68230   0.957   8.255   8.669  0.2067  0.0101  0.3829
20713SOL    HW168231   1.040   8.234   8.628  0.3185  0.4811  0.3613
20713SOL    HW268232   0.926   8.172   8.706  0.0765 -0.4346 -0.6815
20714SOL     OW68233   9.983   7.858   9.963  0.0269 -0.0350  0.1333
20714SOL    HW168234   9.935   7.932   9.925 -1.8776 -0.4734  1.5297
20714SOL    HW268235  10.074   7.887   9.962 -0.7736  3.1665  2.2266
20715SOL     OW68236   0.801   6.610   5.786  0.3528 -0.4983 -0.4703
20715SOL    HW168237   0.828   6.645   5.871  0.9340 -0.7701 -0.5395
20715SOL    HW268238   0.727   6.552   5.807  0.9200 -1.0908 -0.0572
20716SOL     OW68239   7.183   1.168  10.414  0.0329  0.1566 -0.5918
20716SOL    HW168240   7.225   1.206  10.491  1.8257 -2.5846 -0.0570
20716SOL    HW268241   7.255   1.129  10.364 -1.5411 -2.5108 -0.9863
20717SOL     OW68242   1.121   9.225   0.363  0.3664  0.1627 -0.5480
20717SOL    HW168243   1.166   9.141   0.350 -0.7802 -0.3968 -1.0934
20717SOL    HW268244   1.066   9.211   0.440  0.8916  0.7442 -0.0579
20718SOL     OW68245   4.512   7.821   9.620 -0.2981  0.1203  0.0083
20718SOL    HW168246   4.502   7.907   9.578 -0.7175 -0.6813 -1.6013
20718SOL    HW268247   4.424   7.799   9.651 -0.6031 -0.5281 -1.2526
20719SOL     OW68248  10.776   2.654   5.782 -0.1279 -0.6362  0.4256
20719SOL    HW168249  10.714   2.721   5.754  1.1054 -0.2180 -1.4996
20719SOL    HW268250  10.820   2.693   5.858  0.3824  0.6718 -0.4969
20720SOL     OW68251  10.254   6.451   5.338 -0.1204 -0.0924 -0.3434
20720SOL    HW168252  10.326   6.426   5.280  1.6069  2.1540  0.6715
20720SOL    HW268253  10.226   6.537   5.307 -1.6953 -0.4593 -0.0475
20721SOL     OW68254  10.667   6.350   1.527  0.4879 -0.3413 -0.6364
20721SOL    HW168255  10.600   6.289   1.559 -0.5227  0.7908 -0.5415
20721SOL    HW268256  10.653   6.351   1.432  0.5768 -0.3346 -0.6490
20722SOL     OW68257   5.489   5.671   9.835  0.1690 -0.5292 -0.1092
20722SOL    HW168258   5.494   5.715   9.920 -1.5603 -1.4573  0.5332
20722SOL    HW268259   5.426   5.723   9.785  0.5644 -0.4496 -0.5248
20723SOL     OW68260   5.421   4.103   4.830  0.2608 -0.2345 -0.0703
20723SOL    HW168261   5.394   4.067   4.746 -0.5188 -0.8562  0.4235
20723SOL    HW268262   5.504   4.147   4.813 -0.6367  1.0047 -1.4923
20724SOL     OW68263  10.846   4.309   9.526  0.2090  0.0106 -0.4524
20724SOL    HW168264  10.935   4.336   9.502  0.8646 -0.2696  1.5240
20724SOL    HW268265  10.794   4.389   9.523  0.9648  0.5391  0.2068
20725SOL     OW68266  10.826   2.656  10.496 -0.7335  0.0065 -0.2742
20725SOL    HW168267  10.782   2.602  10.431 -0.3543  0.4304 -0.8966
20725SOL    HW268268  10.901   2.604  10.524  0.2955  0.6505 -1.7267
20726SOL     OW68269   3.689   5.850   4.032 -0.1392  0.7841 -0.3704
20726SOL    HW168270   3.696   5.794   4.110 -1.9591 -0.4937 -1.0447
20726SOL    HW268271   3.760   5.821   3.975 -2.0092 -2.2517 -1.4454
20727SOL     OW68272   6.800   9.388   7.018 -0.2264  0.2789  0.3524
20727SOL    HW168273   6.800   9.444   6.940 -2.1815 -0.6117 -0.3441
20727SOL    HW268274   6.823   9.301   6.986 -1.1130 -0.1121  0.7282
20728SOL     OW68275   3.167   1.219   1.585  0.1646 -0.4890 -0.3851
20728SOL    HW168276   3.106   1.268   1.641 -0.3099 -0.3285 -1.0338
20728SOL    HW268277   3.214   1.162   1.646  1.3691  1.3709  0.5347
20729SOL     OW68278   8.112   5.560   9.637  0.0040  0.4703 -0.2211
20729SOL    HW168279   8.052   5.633   9.655  0.5243  0.4175  2.0603
20729SOL    HW268280   8.056   5.482   9.637 -0.1664  0.5884  0.2570
20730SOL     OW68281   3.776   2.905   3.251 -0.1298 -0.4949 -0.4541
20730SOL    HW168282   3.823   2.923   3.332 -0.2454  0.3366 -0.5627
20730SOL    HW268283   3.844   2.880   3.188 -0.0618 -1.3356 -0.0506
20731SOL     OW68284   1.021   3.340   5.681  0.5126 -0.6064  0.0204
20731SOL    HW168285   1.006   3.432   5.700  2.2010  0.1168 -1.8692
20731SOL    HW268286   0.942   3.311   5.637 -0.2444 -0.2317  1.0982
20732SOL     OW68287   3.696   6.163   9.983 -0.0017  0.4537  0.1825
20732SOL    HW168288   3.667   6.089   9.929  0.6863 -1.3674  2.1567
20732SOL    HW268289   3.791   6.164   9.972 -0.0950  1.8929 -0.7732
20733SOL     OW68290   8.975   1.009   6.328 -0.7182 -0.2749 -0.2620
20733SOL    HW168291   8.957   1.083   6.386  0.4092 -1.4609  1.6956
20733SOL    HW268292   9.046   1.040   6.272  0.1639 -0.0363  0.9494
20734SOL     OW68293   6.450   2.268   0.634 -0.4093 -0.1839  0.1550
20734SOL    HW168294   6.446   2.358   0.665  1.8648 -0.0151  0.1181
20734SOL    HW268295   6.455   2.215   0.713 -1.0606 -0.2405  0.1631
20735SOL     OW68296   3.815   8.917   8.216 -0.1035 -0.1958  0.3781
20735SOL    HW168297   3.804   8.845   8.278 -2.6660 -0.9055 -0.7266
20735SOL    HW268298   3.799   8.877   8.130 -2.7405  1.7672 -0.2079
20736SOL     OW68299   0.200   4.250   6.495  0.7857  0.3370  0.5878
20736SOL    HW168300   0.185   4.341   6.469  1.7622  0.1669 -0.6715
20736SOL    HW268301   0.290   4.249   6.528  0.8505 -0.2079  0.4044
20737SOL     OW68302   2.855   2.744   5.911  0.2165  0.0021  0.2784
20737SOL    HW168303   2.782   2.794   5.874  0.7036  1.4033  1.1401
20737SOL    HW268304   2.858   2.770   6.003  1.0577 -0.9575  0.5442
20738SOL     OW68305   9.031   5.008   8.142  0.0337 -0.0778 -0.4137
20738SOL    HW168306   8.950   5.059   8.135 -1.2455 -2.0344 -0.5278
20738SOL    HW268307   9.078   5.027   8.060 -0.4995  0.7318 -0.5474
20739SOL     OW68308   4.778   7.844   4.073  0.6904 -0.0516 -0.0116
20739SOL    HW168309   4.752   7.782   4.004  0.1365 -0.5565  0.6441
20739SOL    HW268310   4.696   7.882   4.103  0.9439  0.2621  0.2788
20740SOL     OW68311  10.905   8.395   4.170 -0.3871  0.0493  0.0778
20740SOL    HW168312  10.892   8.439   4.086  1.8762 -1.8686 -1.4254
20740SOL    HW268313  10.970   8.449   4.216  0.1590 -0.1189 -0.4754
20741SOL     OW68314   1.519   7.236   9.237  0.2566  0.5769 -0.0517
20741SOL    HW168315   1.474   7.248   9.321 -0.6561 -1.6406 -0.1583
20741SOL    HW268316   1.605   7.277   9.250 -0.3885  1.5454  1.4541
20742SOL     OW68317   3.507   0.790   1.069  0.2646  0.5848  0.5186
20742SOL    HW168318   3.562   0.776   1.147  0.2963 -2.9077  0.0340
20742SOL    HW268319   3.569   0.811   1.000  0.6786 -0.0588  0.6808
20743SOL     OW68320   7.392   7.009   9.920  0.2084  0.2237  0.0237
20743SOL    HW168321   7.453   7.082   9.932  0.8708 -0.3831  0.5428
20743SOL    HW268322   7.435   6.936   9.966 -0.3897 -0.5067 -0.5593
20744SOL     OW68323  10.468   9.299   8.476  0.5569  0.0029  0.3102
20744SOL    HW168324  10.499   9.373   8.424 -0.9851  0.5910  0.1596
20744SOL    HW268325  10.492   9.321   8.566  0.3637  0.5580  0.2309
20745SOL     OW68326   1.987   8.665  10.178  0.2599 -0.3093 -0.2503
20745SOL    HW168327   1.946   8.637  10.259 -0.8606  0.9830 -0.3340
20745SOL    HW268328   2.080   8.670  10.198 -0.0472  0.4227  1.0963
20746SOL     OW68329   7.718   6.370   3.959 -0.4308  0.1072  0.5805
20746SOL    HW168330   7.730   6.462   3.983 -0.0910  0.1177  0.3864
20746SOL    HW268331   7.721   6.323   4.043  0.6681  0.1540  0.5915
20747SOL     OW68332   6.422   9.656   0.435 -1.1668  0.1458 -0.2671
20747SOL    HW168333   6.401   9.643   0.528 -0.2623 -1.3759 -0.2458
20747SOL    HW268334   6.337   9.662   0.392 -1.6025  1.0839  0.6581
20748SOL     OW68335   1.461  10.426   2.482 -0.4645  0.3061  0.0747
20748SOL    HW168336   1.394  10.382   2.535 -0.1519  0.9471  1.0036
20748SOL    HW268337   1.463  10.516   2.514  1.2226  0.1739  0.4283
20749SOL     OW68338   2.957   1.236   6.668  0.1282  0.0675 -0.2627
20749SOL    HW168339   2.889   1.289   6.628  0.9465  0.5302 -1.0638
20749SOL    HW268340   2.979   1.170   6.603  0.6426  0.1001 -0.1338
20750SOL     OW68341   0.414  10.310   1.342 -0.2390 -0.5784  0.5390
20750SOL    HW168342   0.437  10.401   1.361 -1.7181  0.2078 -1.1509
20750SOL    HW268343   0.453  10.260   1.414  1.7303  1.2201  0.8251
20751SOL     OW68344   9.239  10.299   1.586  0.3382  0.7510 -0.1767
20751SOL    HW168345   9.198  10.344   1.660  1.3757  2.8558 -0.8154
20751SOL    HW268346   9.321  10.346   1.571  1.3806 -1.2377 -1.0684
20752SOL     OW68347   0.900   5.016   5.609  0.3971 -0.4136 -0.1580
20752SOL    HW168348   0.808   5.039   5.621  0.1896 -1.1478 -0.3008
20752SOL    HW268349   0.899   4.937   5.555  1.1018 -0.5674  0.0365
20753SOL     OW68350   7.281   5.287   0.283 -0.0974 -0.5620  0.4145
20753SOL    HW168351   7.195   5.299   0.244  0.4830 -0.4580 -0.8582
20753SOL    HW268352   7.287   5.356   0.350  0.3860  1.7870 -1.9118
20754SOL     OW68353   5.132   8.698   0.099 -0.0459  0.6158  0.1534
20754SOL    HW168354   5.175   8.783   0.093  3.0746 -0.8136  0.4837
20754SOL    HW268355   5.126   8.680   0.192 -3.4727  1.6319  0.2716
20755SOL     OW68356   9.915  10.659   9.620  0.1104  0.0428 -0.7682
20755SOL    HW168357  10.004  10.625   9.616 -0.0876 -0.5567 -0.1810
20755SOL    HW268358   9.926  10.750   9.646  0.4874 -0.4351  0.8381
20756SOL     OW68359   5.142   4.815   1.392  0.2608  0.5286 -0.7824
20756SOL    HW168360   5.131   4.837   1.484  0.1718 -0.4371 -0.5490
20756SOL    HW268361   5.110   4.724   1.385  0.3848  0.5460 -1.7323
20757SOL     OW68362   8.867   7.308   5.436 -0.4764  0.0904 -0.9178
20757SOL    HW168363   8.842   7.298   5.528  1.7636 -1.4860 -0.3819
20757SOL    HW268364   8.870   7.403   5.422 -2.0474  0.3591  0.2292
20758SOL     OW68365   7.778   1.276  10.904  0.3530 -0.4942  0.3352
20758SOL    HW168366   7.782   1.371  10.907  1.7540 -0.5024 -0.1844
20758SOL    HW268367   7.869   1.248  10.917  0.5012 -1.6218 -2.4627
20759SOL     OW68368   4.406   9.984   2.866 -0.0908 -0.2332 -0.4020
20759SOL    HW168369   4.348  10.060   2.867  1.0014  0.6406  1.4632
20759SOL    HW268370   4.356   9.916   2.911  0.0468  0.3211  0.6271
20760SOL     OW68371   1.386   8.757   2.594 -0.2217  0.7787 -0.2166
20760SOL    HW168372   1.451   8.734   2.526 -0.1749  1.8748 -0.5624
20760SOL    HW268373   1.438   8.764   2.674 -0.7935 -4.9575  1.1248
20761SOL     OW68374   7.214   3.837   8.097 -0.0004 -0.5746 -0.6245
20761SOL    HW168375   7.244   3.861   8.185  1.2631 -1.0005 -0.9151
20761SOL    HW268376   7.170   3.753   8.109  1.5267 -1.4057 -0.5977
20762SOL     OW68377   7.670   9.854   4.714 -0.2966  0.2646 -0.5457
20762SOL    HW168378   7.730   9.929   4.712 -0.5324  0.4998  0.3681
20762SOL    HW268379   7.583   9.893   4.702 -0.2732 -0.0906 -2.0021
20763SOL     OW68380   6.735   0.221  10.084 -0.3397 -0.3591 -0.5235
20763SOL    HW168381   6.802   0.288  10.096  0.3301 -0.9900 -0.7038
20763SOL    HW268382   6.691   0.215  10.169 -1.3141  1.2667 -0.8844
20764SOL     OW68383   3.301   1.128   5.091 -0.3263 -0.3580 -0.4603
20764SOL    HW168384   3.397   1.129   5.100 -0.1974  0.9922 -1.6966
20764SOL    HW268385   3.269   1.165   5.173  0.1319 -1.8408  0.4279
20765SOL     OW68386   5.950   6.044   5.883 -0.0348  0.0482 -0.0073
20765SOL    HW168387   6.016   6.014   5.945 -1.3581 -0.3483  1.2459
20765SOL    HW268388   5.927   5.966   5.832  0.6229  0.2433 -0.6198
20766SOL     OW68389   2.521   0.433   8.021 -0.0204  0.3064  0.6696
20766SOL    HW168390   2.517   0.486   8.101  0.8477 -0.8031  1.4820
20766SOL    HW268391   2.590   0.369   8.039  1.4973  1.1389 -1.6444
20767SOL     OW68392   5.226   1.606   6.711  0.0606 -0.4058 -0.1996
20767SOL    HW168393   5.146   1.574   6.751 -1.4591  1.6831 -1.3581
20767SOL    HW268394   5.243   1.545   6.639  0.6244 -1.9269  1.1685
20768SOL     OW68395   3.090   4.358   7.498  0.7267 -0.5406 -0.1674
20768SOL    HW168396   3.037   4.302   7.441 -0.2925  0.1644  0.0516
20768SOL    HW268397   3.072   4.326   7.587 -0.0733  0.2789 -0.0181
20769SOL     OW68398   6.413  10.278   1.852 -0.2650 -0.3661  0.7257
20769SOL    HW168399   6.380  10.365   1.873 -2.1810 -1.0640  0.7858
20769SOL    HW268400   6.480  10.262   1.918 -0.0185  0.9699  0.8336
20770SOL     OW68401   0.668   2.672   8.593 -0.1934 -0.0528 -0.0088
20770SOL    HW168402   0.602   2.625   8.542 -0.6290  0.4799  0.0449
20770SOL    HW268403   0.752   2.640   8.560 -0.4401  1.0616 -1.8544
20771SOL     OW68404   3.329   7.173   6.992 -0.3955 -0.1720  0.4788
20771SOL    HW168405   3.381   7.250   6.970  0.0675 -0.4325  0.6209
20771SOL    HW268406   3.390   7.117   7.041 -0.4261 -1.0451 -0.4337
20772SOL     OW68407   3.483   6.300   9.374  0.0592  0.1415  0.3409
20772SOL    HW168408   3.438   6.221   9.346  1.5466 -0.5531 -0.1870
20772SOL    HW268409   3.538   6.324   9.300  1.5550  0.1923  1.4220
20773SOL     OW68410   4.409   7.325   2.595 -0.0608 -0.3010  0.2162
20773SOL    HW168411   4.320   7.360   2.597 -0.1411 -0.5423  1.6882
20773SOL    HW268412   4.406   7.258   2.526 -0.9563 -0.1532  0.0924
20774SOL     OW68413   7.460   2.960   8.092  0.2868  0.3014 -0.6959
20774SOL    HW168414   7.380   2.924   8.131  0.0925  0.7648 -0.6638
20774SOL    HW268415   7.525   2.957   8.162  0.5575 -0.9167 -0.9798
20775SOL     OW68416   2.983   0.042   9.865 -0.2459  0.5428 -0.2628
20775SOL    HW168417   3.026   0.022   9.782 -0.2195  0.5283 -0.2455
20775SOL    HW268418   2.942   0.127   9.850  0.3728  0.8855 -0.0580
20776SOL     OW68419   7.577   5.851   0.989 -0.3884  0.3933 -0.6839
20776SOL    HW168420   7.557   5.944   0.987  0.2902  0.5592 -0.0782
20776SOL    HW268421   7.667   5.846   1.021 -1.2291 -0.5695  1.7821
20777SOL     OW68422  10.423   3.226   3.954  0.0746  0.1685 -0.1348
20777SOL    HW168423  10.446   3.231   4.047 -0.8415 -0.5746  0.1470
20777SOL    HW268424  10.371   3.305   3.938 -1.0863 -0.4714  0.3843
20778SOL     OW68425   4.224   6.869   0.090  0.3561 -0.0044 -0.0326
20778SOL    HW168426   4.206   6.792   0.144  0.2654  0.5882  0.8034
20778SOL    HW268427   4.307   6.850   0.048  0.8910 -0.1142  1.0252
20779SOL     OW68428   1.833   1.055   1.044 -0.2222 -0.1369  0.0823
20779SOL    HW168429   1.840   1.057   1.139 -1.0601 -0.6940  0.1712
20779SOL    HW268430   1.744   1.022   1.027 -0.1105  0.0163 -0.8897
20780SOL     OW68431   7.301  10.406  10.279  0.0945 -0.6937  0.0379
20780SOL    HW168432   7.207  10.388  10.279  0.2038 -1.2950 -0.0883
20780SOL    HW268433   7.323  10.414  10.372 -0.5761  2.2661  0.0227
20781SOL     OW68434   2.613   5.012  10.185 -0.2917  0.3248 -0.0311
20781SOL    HW168435   2.557   4.984  10.258  0.0297  0.6232  0.3345
20781SOL    HW268436   2.702   4.997  10.217 -0.1396  0.8833 -0.1889
20782SOL     OW68437   5.240   4.020   7.568  0.0867 -0.5763 -0.1022
20782SOL    HW168438   5.320   4.056   7.607 -0.5776  0.3090  0.4945
20782SOL    HW268439   5.186   3.995   7.643 -0.4308 -0.6335 -0.4858
20783SOL     OW68440   7.240   1.221   7.680  0.0200  0.3446 -1.2620
20783SOL    HW168441   7.184   1.155   7.722 -0.1589  2.5321  2.3518
20783SOL    HW268442   7.327   1.182   7.681 -0.3855 -0.5978 -0.9236
20784SOL     OW68443   6.829   3.026   8.048 -0.0144  0.4497  0.1917
20784SOL    HW168444   6.899   3.091   8.039 -1.1536  1.5591 -0.9596
20784SOL    HW268445   6.793   3.043   8.135 -0.6908  1.7844 -0.3306
20785SOL     OW68446   0.263   7.329   4.141  0.9126  0.2904 -0.6644
20785SOL    HW168447   0.286   7.356   4.052  1.5146 -0.3381 -0.7031
20785SOL    HW268448   0.171   7.301   4.135  0.6077  1.2761 -0.8491
20786SOL     OW68449   3.624   3.450   5.424 -0.8138 -0.5357 -0.6234
20786SOL    HW168450   3.543   3.498   5.443 -1.6273 -1.9496 -0.3594
20786SOL    HW268451   3.692   3.517   5.421 -1.8939  0.6105 -0.1954
20787SOL     OW68452   1.236   4.814   7.459 -0.0707  0.0459 -1.4837
20787SOL    HW168453   1.258   4.895   7.506 -0.8211 -0.4162 -0.2904
20787SOL    HW268454   1.320   4.769   7.450 -0.0801 -0.6236  0.9589
20788SOL     OW68455   9.316  10.048   2.559 -0.0045  0.1912  0.0056
20788SOL    HW168456   9.310  10.143   2.573 -1.7065 -0.1843  2.2019
20788SOL    HW268457   9.226  10.020   2.546  0.3887 -1.2614  0.2753
20789SOL     OW68458   3.468   2.806   3.783 -0.0038  0.1059  0.3909
20789SOL    HW168459   3.542   2.746   3.780 -0.7768 -0.9289  1.2557
20789SOL    HW268460   3.459   2.838   3.693  0.9028 -0.4674  0.0876
20790SOL     OW68461   5.828   9.287   3.240 -0.1706 -0.5203  0.4128
20790SOL    HW168462   5.835   9.194   3.219 -1.2502 -0.6721  0.6550
20790SOL    HW268463   5.849   9.332   3.158 -1.6433 -1.0427 -0.3071
20791SOL     OW68464   7.147   9.676   3.688 -0.4041  0.0831  0.1096
20791SOL    HW168465   7.229   9.679   3.639 -1.3838  2.5694 -1.5957
20791SOL    HW268466   7.165   9.728   3.767 -0.1812  0.1883 -0.0086
20792SOL     OW68467   6.922   2.020   3.648 -0.2410 -0.0687 -0.2724
20792SOL    HW168468   6.993   2.011   3.713  1.4113 -0.0394 -1.9861
20792SOL    HW268469   6.878   2.101   3.673  1.0294  0.5053  0.2070
20793SOL     OW68470   4.955   3.168  10.752 -0.4247 -0.2530  0.3728
20793SOL    HW168471   4.997   3.120  10.680 -1.1349  0.5393 -0.6121
20793SOL    HW268472   5.003   3.250  10.757 -1.3655  0.3501 -0.2675
20794SOL     OW68473   9.632   1.340   9.962  0.4531  0.1570 -0.5929
20794SOL    HW168474   9.556   1.394   9.940  0.9110  1.0154 -0.1061
20794SOL    HW268475   9.693   1.353   9.889  0.7179  0.5983 -0.2943
20795SOL     OW68476   7.779   6.817   2.099 -0.4204  0.4153 -0.4852
20795SOL    HW168477   7.761   6.858   2.015  1.1655 -0.8401 -1.4776
20795SOL    HW268478   7.698   6.830   2.150 -1.6902  0.5193 -2.4427
20796SOL     OW68479   1.763   1.887   9.201 -0.2623  0.7817 -0.0358
20796SOL    HW168480   1.737   1.826   9.132 -1.5528  1.9516 -0.6313
20796SOL    HW268481   1.719   1.856   9.280  0.9095 -0.3386  0.2035
20797SOL     OW68482   8.304   8.062   8.444  0.3685  0.1791  0.0335
20797SOL    HW168483   8.369   7.995   8.421 -1.0771 -1.2256 -0.1421
20797SOL    HW268484   8.259   8.079   8.361 -0.2539  0.2556  0.3868
20798SOL     OW68485   8.203  10.606   9.681  0.0953 -0.0466 -0.3823
20798SOL    HW168486   8.258  10.595   9.603  0.0876 -1.1662 -0.2387
20798SOL    HW268487   8.261  10.587   9.754 -0.0667  0.3806 -0.1390
20799SOL     OW68488   6.261  10.402   9.104 -0.0001  0.2079  0.1945
20799SOL    HW168489   6.213  10.339   9.050  0.9652 -0.4815  0.1294
20799SOL    HW268490   6.212  10.484   9.093  1.1666  0.6092 -3.1897
20800SOL     OW68491  10.899   4.667   6.778 -0.1189  0.2238 -0.0567
20800SOL    HW168492  10.851   4.625   6.849 -0.8980 -0.4794 -0.9693
20800SOL    HW268493  10.902   4.760   6.803 -1.2913  0.1652  0.4030
20801SOL     OW68494   1.032   0.805   5.357  0.1852 -0.0590  0.6840
20801SOL    HW168495   1.119   0.837   5.382  1.2407 -1.8748 -0.4432
20801SOL    HW268496   1.030   0.715   5.389 -0.0823 -1.0278 -1.8748
20802SOL     OW68497   0.687   1.819   7.133 -0.3109  0.3798 -0.2945
20802SOL    HW168498   0.653   1.776   7.055 -1.2889 -0.7501  0.6982
20802SOL    HW268499   0.609   1.839   7.185  0.3804 -0.9400  1.3837
20803SOL     OW68500   6.713   7.353   3.017 -0.1380  0.2838 -0.7406
20803SOL    HW168501   6.793   7.301   3.013 -0.3416 -0.1048  0.0506
20803SOL    HW268502   6.642   7.289   3.027 -0.3802  0.6971  0.3212
20804SOL     OW68503   0.366   0.919   6.522 -0.3318 -0.8025  0.2501
20804SOL    HW168504   0.370   0.932   6.427 -2.0938 -1.3158  0.0732
20804SOL    HW268505   0.294   0.976   6.550  1.2718  0.6901  1.5704
20805SOL     OW68506   0.523   0.195   9.758  0.2615 -0.0567 -0.0819
20805SOL    HW168507   0.463   0.220   9.687  1.7066  0.4844 -1.1599
20805SOL    HW268508   0.522   0.099   9.758  0.3809 -0.0682 -0.9746
20806SOL     OW68509  10.059   2.411   7.854  0.5453 -0.0275  0.1897
20806SOL    HW168510   9.974   2.438   7.888  0.3303 -2.1627  1.4982
20806SOL    HW268511  10.084   2.482   7.794 -1.5732  1.2272  0.6806
20807SOL     OW68512   2.012   5.062   9.968  0.5900  0.1244  0.3857
20807SOL    HW168513   1.966   5.142   9.945 -0.4272 -0.2470  1.0453
20807SOL    HW268514   2.077   5.090  10.033 -0.2294  0.3287  1.1435
20808SOL     OW68515   5.483   0.702  10.019 -0.0380 -0.2898 -0.2450
20808SOL    HW168516   5.469   0.658  10.102  2.6500 -1.3401 -0.2646
20808SOL    HW268517   5.506   0.632   9.958  0.5224  0.7413 -1.2535
20809SOL     OW68518   8.619   2.403   5.195  0.3361 -0.0976 -0.4100
20809SOL    HW168519   8.524   2.416   5.204  0.2848 -1.7605  2.9223
20809SOL    HW268520   8.656   2.490   5.212 -0.5575 -0.0532  1.6215
20810SOL     OW68521   1.233   2.405   1.749 -0.6006  0.1789  0.2301
20810SOL    HW168522   1.266   2.344   1.683  0.4717  1.8125 -0.8047
20810SOL    HW268523   1.197   2.478   1.699  0.0552  1.3739  1.4223
20811SOL     OW68524   5.732   5.657   4.587 -0.1418 -0.1003  0.3145
20811SOL    HW168525   5.652   5.627   4.630 -0.6397  1.2624  0.3889
20811SOL    HW268526   5.801   5.604   4.626 -0.9665 -1.1305  0.4302
20812SOL     OW68527   7.333   6.143   2.327  0.0670 -0.5347  0.2031
20812SOL    HW168528   7.353   6.215   2.266  1.3154 -0.0736  1.1162
20812SOL    HW268529   7.245   6.115   2.303 -0.5302  1.4358 -0.0528
20813SOL     OW68530   3.116   4.871   0.289  0.2636 -0.2516  0.0267
20813SOL    HW168531   3.093   4.948   0.340 -0.5562  0.6214 -1.5881
20813SOL    HW268532   3.032   4.830   0.268  0.6187 -0.8953 -0.1753
20814SOL     OW68533   9.101   9.254   9.128 -0.3031 -0.0925  0.2784
20814SOL    HW168534   9.040   9.324   9.153 -0.6359 -1.1479  2.7113
20814SOL    HW268535   9.046   9.175   9.125  0.9332 -1.2144  3.3058
20815SOL     OW68536   2.505   3.502   5.989 -0.7005  0.8409  0.2455
20815SOL    HW168537   2.567   3.563   5.951 -0.5183 -1.2539 -3.2698
20815SOL    HW268538   2.557   3.426   6.014 -1.4353  0.4036  0.4929
20816SOL     OW68539   5.831   6.720  10.776 -0.1217  0.0050 -1.0019
20816SOL    HW168540   5.776   6.747  10.702 -0.2848  2.7838  0.0111
20816SOL    HW268541   5.920   6.727  10.744 -0.2385 -1.1459 -1.6194
20817SOL     OW68542   7.863  10.093   1.221 -0.0915 -0.3338  0.0066
20817SOL    HW168543   7.771  10.117   1.230 -0.5000 -1.1226 -1.6643
20817SOL    HW268544   7.901  10.163   1.168  0.2067 -0.1982  0.3905
20818SOL     OW68545   0.658   3.483   4.346 -0.0834  0.2122  0.1513
20818SOL    HW168546   0.593   3.494   4.416 -0.5950 -1.0631 -0.0869
20818SOL    HW268547   0.605   3.461   4.268  0.4601  1.7593 -0.6965
20819SOL     OW68548   2.186   6.724  10.045 -0.1104  0.4564 -0.7886
20819SOL    HW168549   2.182   6.661   9.972  0.2054  1.0266 -1.3076
20819SOL    HW268550   2.140   6.680  10.117  0.1663 -0.4043 -1.1161
20820SOL     OW68551  10.614   8.718   5.653  0.1490 -0.4920  0.2022
20820SOL    HW168552  10.541   8.683   5.705 -0.5188  1.6757  0.8326
20820SOL    HW268553  10.633   8.803   5.693 -0.7278  1.5757 -3.3073
20821SOL     OW68554   4.131   7.278   9.072  0.3421 -0.3123  0.5892
20821SOL    HW168555   4.190   7.203   9.068  1.2301  0.3442  0.9141
20821SOL    HW268556   4.078   7.263   9.150  1.4645  0.0537  1.4520
20822SOL     OW68557   4.098   6.935   4.373 -0.0272 -0.9278 -0.3289
20822SOL    HW168558   4.143   7.017   4.395 -1.5949  0.1825 -1.0655
20822SOL    HW268559   4.169   6.873   4.356  1.2296  0.6614 -1.1696
20823SOL     OW68560   9.830   5.138   6.539 -0.1401  0.0898 -0.8065
20823SOL    HW168561   9.832   5.072   6.608  0.7440 -0.9327 -1.7667
20823SOL    HW268562   9.771   5.206   6.572  1.7544  0.6219  1.8409
20824SOL     OW68563   3.947   1.272   2.091 -0.0253 -0.1749  0.2076
20824SOL    HW168564   3.862   1.238   2.120  0.5776 -1.0100  1.0403
20824SOL    HW268565   3.954   1.241   2.000 -0.5094 -0.2921  0.2055
20825SOL     OW68566   9.059   5.203  10.617  0.1524  0.2858 -0.0702
20825SOL    HW168567   9.000   5.273  10.586 -0.9181 -0.8141 -0.6005
20825SOL    HW268568   9.001   5.143  10.664  0.5566 -1.5323 -1.7545
20826SOL     OW68569   7.283   0.263   4.126 -0.0990 -0.5108 -0.2487
20826SOL    HW168570   7.297   0.358   4.118  0.3415 -0.7051 -2.7038
20826SOL    HW268571   7.299   0.230   4.037 -1.6843 -2.7006  0.2186
20827SOL     OW68572   4.355   7.646   8.878 -0.2436  0.0400 -0.4079
20827SOL    HW168573   4.346   7.616   8.787 -0.2924  0.8591 -0.6801
20827SOL    HW268574   4.448   7.634   8.897 -0.4100 -1.0334 -0.2393
20828SOL     OW68575   1.686   1.731   2.465  0.0608 -0.3193 -1.0259
20828SOL    HW168576   1.608   1.772   2.502  0.9109  0.7745 -0.4174
20828SOL    HW268577   1.695   1.773   2.379  1.5615  1.6711  0.0361
20829SOL     OW68578   5.998   1.790   2.732 -0.3558  0.2672  0.3038
20829SOL    HW168579   6.005   1.714   2.675 -1.0178  1.1651 -1.0089
20829SOL    HW268580   6.031   1.759   2.817  1.7996 -0.7748 -0.8203
20830SOL     OW68581   7.590   7.475   2.841 -0.2713 -0.6402 -0.5986
20830SOL    HW168582   7.551   7.538   2.781  0.1750  0.2271  0.0033
20830SOL    HW268583   7.684   7.483   2.827 -0.1616 -0.4573  0.1804
20831SOL     OW68584   7.653   8.577   2.724 -0.4962 -0.4811  0.3289
20831SOL    HW168585   7.748   8.577   2.722 -0.4032  2.6360 -0.4667
20831SOL    HW268586   7.630   8.587   2.817  0.1476  2.3164  0.2689
20832SOL     OW68587   6.505  10.531  10.532  0.3864 -0.2594 -0.1081
20832SOL    HW168588   6.445  10.493  10.596  1.2634 -0.3917  0.6657
20832SOL    HW268589   6.495  10.625  10.543  0.6958 -0.2803  0.3959
20833SOL     OW68590   6.322   7.293   4.393  0.2090 -0.1850 -0.8445
20833SOL    HW168591   6.303   7.235   4.467 -2.4507  0.8877 -0.5867
20833SOL    HW268592   6.250   7.278   4.332  0.8882  0.9521 -1.9551
20834SOL     OW68593   8.168   6.266   9.915 -0.5538  0.2574 -0.4595
20834SOL    HW168594   8.196   6.261   9.823 -2.1147  0.0365 -0.9438
20834SOL    HW268595   8.250   6.258   9.965  0.2486 -0.3056 -1.8072
20835SOL     OW68596  10.461   1.975  10.606  0.1113  0.1145 -0.2699
20835SOL    HW168597  10.367   1.963  10.615 -0.2014  1.3730 -1.5421
20835SOL    HW268598  10.471   2.062  10.568  1.7969  0.0706  0.0007
20836SOL     OW68599   8.019   1.860   7.358 -0.4872  0.2045  0.4120
20836SOL    HW168600   8.044   1.926   7.293  0.5347 -0.4945  0.0614
20836SOL    HW268601   8.069   1.882   7.436 -1.2457  0.6825  0.7693
20837SOL     OW68602   7.434   5.100   5.691 -0.1968 -0.5061 -0.3485
20837SOL    HW168603   7.477   5.018   5.665 -0.5335 -0.6686 -0.3924
20837SOL    HW268604   7.493   5.139   5.756 -1.1368 -1.8959  1.4131
20838SOL     OW68605   8.677   0.229   5.007  0.0906  0.1088  0.4518
20838SOL    HW168606   8.760   0.188   4.984  0.2196  0.4661  0.2661
20838SOL    HW268607   8.687   0.320   4.979 -1.0656 -0.2670 -1.2865
20839SOL     OW68608   4.979   4.998   7.647 -0.2980  0.8230 -0.1896
20839SOL    HW168609   4.994   4.928   7.583  1.5051  0.5525  0.4670
20839SOL    HW268610   4.992   4.955   7.732  2.9260  2.3266  0.1904
20840SOL     OW68611  10.025   9.503   2.619  0.0772  0.1505  0.0559
20840SOL    HW168612   9.963   9.570   2.591  0.9138  0.7183 -0.4798
20840SOL    HW268613  10.050   9.458   2.538  1.7749  1.1652 -0.0264
20841SOL     OW68614  10.555   2.308   6.971 -0.2547  0.0918 -0.2815
20841SOL    HW168615  10.606   2.379   6.933  0.3852  0.1989  0.7529
20841SOL    HW268616  10.583   2.230   6.922 -0.5357  0.4405 -1.0238
20842SOL     OW68617  10.428   2.594   6.188  0.2798  0.7173 -1.0390
20842SOL    HW168618  10.502   2.535   6.174 -0.6866 -1.3245  1.6546
20842SOL    HW268619  10.453   2.647   6.264 -0.8081  0.3898 -0.4479
20843SOL     OW68620   3.629   3.988   2.306  0.3087  0.0357 -0.1138
20843SOL    HW168621   3.537   3.995   2.282  0.1775  0.3098  0.4435
20843SOL    HW268622   3.676   4.024   2.232  0.0101 -0.8438 -0.7456
20844SOL     OW68623   3.243   5.813   3.531 -0.5458  0.5798  0.2775
20844SOL    HW168624   3.276   5.724   3.539 -0.4271  0.6031  0.0699
20844SOL    HW268625   3.277   5.843   3.446 -0.6192  0.8067  0.3283
20845SOL     OW68626   4.352   7.309   5.680  0.2168 -0.2875 -0.5496
20845SOL    HW168627   4.336   7.361   5.758 -1.0128  0.4765 -1.2852
20845SOL    HW268628   4.282   7.244   5.680 -0.1610  0.1110 -1.3340
20846SOL     OW68629   9.354   9.119   3.895  0.3270 -0.4796 -0.2076
20846SOL    HW168630   9.367   9.160   3.809 -2.1224  0.7453 -0.0958
20846SOL    HW268631   9.310   9.187   3.946  0.4597 -1.6873  1.5727
20847SOL     OW68632  10.721   7.492   7.176 -0.0205  0.0869 -0.5444
20847SOL    HW168633  10.726   7.569   7.119 -0.4560  0.6514  0.1562
20847SOL    HW268634  10.706   7.529   7.264 -1.0591 -0.8289 -0.3179
20848SOL     OW68635   3.995   9.234   7.103 -0.0828 -0.8559  0.6672
20848SOL    HW168636   3.971   9.257   7.013  0.6824 -1.4699  0.2859
20848SOL    HW268637   4.087   9.206   7.096 -0.3643 -2.0291  1.4364
20849SOL     OW68638   2.092   0.753   7.837  0.0055  0.3807 -0.3071
20849SOL    HW168639   2.080   0.726   7.928 -1.2468 -1.9951 -1.1032
20849SOL    HW268640   2.134   0.678   7.795 -0.6767  0.8902 -1.9784
20850SOL     OW68641   4.898  10.297   7.360 -0.5289  0.5853 -0.6572
20850SOL    HW168642   4.885  10.215   7.312  0.3214  0.1283 -0.1340
20850SOL    HW268643   4.990  10.319   7.344 -0.0086  0.0413  1.3035
20851SOL     OW68644   8.413   0.245   2.162 -0.5938  0.7290  0.2970
20851SOL    HW168645   8.505   0.218   2.171 -0.3829  0.9691 -0.9293
20851SOL    HW268646   8.365   0.186   2.220  0.2216 -0.0903  0.1647
20852SOL     OW68647   9.418   4.646   0.481 -0.1612  0.0176  0.6641
20852SOL    HW168648   9.444   4.558   0.453 -1.5678 -0.4927  0.8941
20852SOL    HW268649   9.328   4.656   0.450  0.2286  1.6922 -0.0527
20853SOL     OW68650   0.362   8.764  10.130  0.0388  0.3576  0.4232
20853SOL    HW168651   0.404   8.745  10.214  1.0225 -0.6007 -0.2633
20853SOL    HW268652   0.297   8.695  10.120  0.2560  0.1825  0.1895
20854SOL     OW68653   7.235   9.386  10.800  0.0799 -0.3406  0.1519
20854SOL    HW168654   7.242   9.476  10.831 -1.6909  0.8717 -2.5516
20854SOL    HW268655   7.141   9.366  10.807 -0.3072 -0.2623 -3.2987
20855SOL     OW68656   6.524   2.295   4.997 -0.5915  0.0829 -0.1749
20855SOL    HW168657   6.561   2.253   4.920 -0.0856 -0.4569  0.3478
20855SOL    HW268658   6.596   2.347   5.033  0.0974 -1.8549  1.4812
20856SOL     OW68659   8.307   5.750   7.436 -0.5498 -0.1205  0.4841
20856SOL    HW168660   8.395   5.717   7.420 -0.5173  0.0019  0.4072
20856SOL    HW268661   8.318   5.845   7.441 -0.9689  0.1040 -1.6920
20857SOL     OW68662   7.967   9.331   7.558  0.2261 -0.2920  0.1415
20857SOL    HW168663   8.045   9.317   7.504  1.4065 -0.4657  1.7885
20857SOL    HW268664   7.970   9.260   7.622 -1.7653 -0.7759 -0.2373
20858SOL     OW68665   6.638   1.407  10.131 -0.0106  0.1412 -0.4942
20858SOL    HW168666   6.652   1.392  10.225  0.5215 -0.3082 -0.6442
20858SOL    HW268667   6.561   1.355  10.110 -2.3071  2.9002  0.4136
20859SOL     OW68668   9.895   3.607   3.262 -0.3901  0.1232  0.1140
20859SOL    HW168669   9.905   3.535   3.325 -0.7358 -0.8160 -0.8543
20859SOL    HW268670   9.935   3.573   3.182 -0.1755  1.1968 -0.2367
20860SOL     OW68671  10.589  10.530   7.111  0.1511  0.0446 -0.0183
20860SOL    HW168672  10.584  10.437   7.132  1.8393  0.0863  0.7106
20860SOL    HW268673  10.536  10.573   7.177 -0.3296 -0.3667 -0.1340
20861SOL     OW68674   9.092   0.475   3.448  0.4115  0.0189 -0.1211
20861SOL    HW168675   9.177   0.436   3.430  0.0960 -0.8257  0.1580
20861SOL    HW268676   9.040   0.404   3.486 -0.8042  0.1931 -1.3694
20862SOL     OW68677   7.739   7.563   8.043  0.5265 -0.4405 -0.8222
20862SOL    HW168678   7.725   7.576   7.949  0.0527 -2.8121 -1.1420
20862SOL    HW268679   7.832   7.541   8.050  0.5066 -0.5142 -0.7846
20863SOL     OW68680   8.672   1.951   9.743 -0.0062 -0.3067  0.3059
20863SOL    HW168681   8.592   1.920   9.786 -1.6670  1.0867 -1.5947
20863SOL    HW268682   8.643   1.979   9.656  2.1563  2.2311  0.2830
20864SOL     OW68683   5.861   3.259   1.132  0.0136 -0.7287  0.0889
20864SOL    HW168684   5.921   3.301   1.193 -0.4933  0.5279 -0.2390
20864SOL    HW268685   5.787   3.320   1.126  0.4161 -0.3661 -2.4146
20865SOL     OW68686   3.685   1.180   8.141 -0.0745 -0.4329 -0.4938
20865SOL    HW168687   3.770   1.145   8.114  0.9823  0.0527  1.9597
20865SOL    HW268688   3.638   1.103   8.175  0.8753 -0.1781  1.5714
20866SOL     OW68689   6.170   7.427   5.304  0.2563 -0.1011  0.4185
20866SOL    HW168690   6.120   7.355   5.265 -0.2567  0.4853 -0.0224
20866SOL    HW268691   6.203   7.392   5.386  2.0397 -1.6710 -0.8687
20867SOL     OW68692   1.380   0.400   1.242 -0.5695  0.4274  0.1754
20867SOL    HW168693   1.434   0.461   1.191  3.5832 -2.7527  0.2029
20867SOL    HW268694   1.395   0.425   1.333 -0.8271  0.8066  0.1145
20868SOL     OW68695   1.136   4.565   9.348 -0.3333 -0.4367 -0.1494
20868SOL    HW168696   1.100   4.478   9.330 -1.7071  0.1048 -0.1458
20868SOL    HW268697   1.106   4.585   9.437  0.2917 -0.1099 -0.0122
20869SOL     OW68698   9.359   3.567   7.603 -0.4118 -0.0001  0.2028
20869SOL    HW168699   9.425   3.581   7.535 -2.3559  0.8292 -1.6294
20869SOL    HW268700   9.349   3.652   7.646 -0.3934 -0.0882  0.3844
20870SOL     OW68701   7.624   2.188   3.494  0.3231  0.3130  0.2919
20870SOL    HW168702   7.610   2.129   3.420 -0.6962 -0.3775  1.0179
20870SOL    HW268703   7.710   2.228   3.476  0.4747 -0.4599 -0.8279
20871SOL     OW68704   0.541   9.224   0.343  0.3013  0.0988  0.2211
20871SOL    HW168705   0.500   9.153   0.293  1.9585 -1.5986  1.1064
20871SOL    HW268706   0.574   9.285   0.277  0.0270 -0.6597 -0.6350
20872SOL     OW68707   1.341   7.206   0.292  0.0431  0.0008  0.3228
20872SOL    HW168708   1.432   7.197   0.263  0.0535  1.1441 -0.0585
20872SOL    HW268709   1.310   7.285   0.248 -0.7201  0.3628  1.4691
20873SOL     OW68710   1.404   4.406   4.342  0.5840  0.8181  0.1795
20873SOL    HW168711   1.343   4.332   4.338  1.8625 -0.2932  0.4097
20873SOL    HW268712   1.428   4.422   4.250  0.3381  0.9277  0.1333
20874SOL     OW68713   0.455   3.921   0.134 -0.2619  0.5531  0.0112
20874SOL    HW168714   0.455   4.005   0.180  1.3878  0.7801 -0.3069
20874SOL    HW268715   0.545   3.912   0.102 -0.4797 -1.2182 -0.2019
20875SOL     OW68716   6.525   9.897   1.979 -0.1508 -1.0692  0.6949
20875SOL    HW168717   6.508   9.898   2.073 -0.0868 -0.0880  0.7083
20875SOL    HW268718   6.619   9.882   1.971 -0.1992 -1.4151  0.7807
20876SOL     OW68719   1.579   2.579   2.534  0.1534  0.2623  0.0609
20876SOL    HW168720   1.518   2.539   2.595 -0.3177  0.6841 -0.1305
20876SOL    HW268721   1.637   2.507   2.508 -1.1059 -0.4837 -0.8131
20877SOL     OW68722   0.927   4.296   8.424  0.3358 -0.1932  0.2599
20877SOL    HW168723   0.879   4.347   8.359 -0.6655  1.0386  1.8850
20877SOL    HW268724   0.952   4.215   8.378  0.5070  1.0159 -1.8943
20878SOL     OW68725   7.897   9.865   9.807  0.1131  0.6993  0.2102
20878SOL    HW168726   7.870   9.846   9.897 -2.7320 -0.8796 -0.8519
20878SOL    HW268727   7.881   9.959   9.797 -1.5978  0.5070  0.7935
20879SOL     OW68728   4.037   9.030   2.507  0.3553 -0.1651  0.3456
20879SOL    HW168729   4.090   9.103   2.475  0.4989  0.3539  1.7139
20879SOL    HW268730   4.071   9.013   2.595 -0.9773 -0.5905  0.7941
20880SOL     OW68731   8.262   6.809   7.682 -0.5316  0.4442  0.8584
20880SOL    HW168732   8.318   6.881   7.710  2.0823 -1.7984  1.8043
20880SOL    HW268733   8.295   6.784   7.596 -3.1446  1.9191 -0.7195
20881SOL     OW68734   8.076   9.587  10.037 -0.6312  0.0625  0.3898
20881SOL    HW168735   8.091   9.641   9.960  1.7801  1.8396  1.9762
20881SOL    HW268736   8.002   9.629  10.082 -0.6754  0.2525  0.1379
20882SOL     OW68737   6.038   2.581   9.810  1.0988 -0.8931  0.1924
20882SOL    HW168738   5.943   2.594   9.815  1.1001 -0.1850 -1.0124
20882SOL    HW268739   6.060   2.530   9.888 -0.3424 -1.4996  0.2442
20883SOL     OW68740   8.721   6.748   3.874  0.4340  0.0747  0.0846
20883SOL    HW168741   8.673   6.826   3.850  2.3926  1.5152  0.5757
20883SOL    HW268742   8.740   6.705   3.790 -0.4297  0.2536 -0.2078
20884SOL     OW68743   3.724   2.582  10.692 -0.4269  0.5752  0.2557
20884SOL    HW168744   3.712   2.519  10.764 -0.1523 -1.4563 -1.3831
20884SOL    HW268745   3.819   2.594  10.686 -0.5170  3.3087  2.2166
20885SOL     OW68746   6.785   5.389   9.566  0.5798  0.3736 -0.4438
20885SOL    HW168747   6.835   5.446   9.508 -0.8863  2.2704  0.0510
20885SOL    HW268748   6.808   5.419   9.654 -0.3961  0.3824 -0.1824
20886SOL     OW68749  10.834   2.926   8.708 -0.0288  0.5036 -0.1467
20886SOL    HW168750  10.895   2.879   8.765  0.4589  1.5755  0.2444
20886SOL    HW268751  10.872   2.918   8.620 -0.8110 -1.2007 -0.3635
20887SOL     OW68752   5.907   8.998   1.797  0.0891 -0.1286 -0.2130
20887SOL    HW168753   5.943   9.064   1.857 -0.6431 -0.8509  1.0476
20887SOL    HW268754   5.940   8.915   1.830 -0.7018 -0.5832 -0.5403
20888SOL     OW68755   0.065   4.204   8.841  0.4092  0.3627 -0.0756
20888SOL    HW168756  -0.008   4.149   8.869 -0.1206  1.7443  1.4058
20888SOL    HW268757   0.062   4.201   8.745 -0.3465 -1.1732 -0.0365
20889SOL     OW68758  10.805   2.833   4.189  0.0899  0.3716 -0.1129
20889SOL    HW168759  10.726   2.792   4.155 -0.3471  2.0090 -1.1993
20889SOL    HW268760  10.778   2.871   4.273  0.3926 -1.1617  0.6998
20890SOL     OW68761  10.832   8.375   0.448  0.1148  0.1745 -0.4382
20890SOL    HW168762  10.832   8.332   0.533 -0.1171 -1.2555 -1.1335
20890SOL    HW268763  10.913   8.426   0.447  0.7237 -0.7460  0.1792
20891SOL     OW68764   6.368   6.710   0.131  0.4591 -0.3877  0.0359
20891SOL    HW168765   6.349   6.723   0.038 -0.3809 -1.1267  0.0970
20891SOL    HW268766   6.368   6.799   0.168  0.8790 -0.0821 -0.6686
20892SOL     OW68767   1.120   4.063   2.871  0.0394  0.4215  0.2733
20892SOL    HW168768   1.145   3.981   2.830 -3.0186 -0.4596 -0.0648
20892SOL    HW268769   1.136   4.130   2.803 -1.5729 -0.5422 -1.1439
20893SOL     OW68770   6.074   3.023   7.146  0.2994 -0.3925 -0.4697
20893SOL    HW168771   6.084   3.108   7.189  3.4309 -1.6918  1.8142
20893SOL    HW268772   6.023   2.970   7.208  2.3591 -1.4346  0.4410
20894SOL     OW68773  10.360   3.686   4.370  0.2922 -0.6172 -0.4975
20894SOL    HW168774  10.351   3.596   4.403 -1.6488 -0.1234  0.4689
20894SOL    HW268775  10.428   3.680   4.303  1.8437 -2.3596  1.1050
20895SOL     OW68776   6.138   3.871  10.758 -0.4309  0.6670 -0.3065
20895SOL    HW168777   6.073   3.840  10.822 -0.5230  1.7069  0.1286
20895SOL    HW268778   6.097   3.857  10.673 -0.6242 -0.0295 -0.1021
20896SOL     OW68779   1.359   4.000   6.163  0.1575 -0.3657  0.3345
20896SOL    HW168780   1.380   4.000   6.070  1.9677 -2.4567  0.6631
20896SOL    HW268781   1.304   3.922   6.175 -3.0303  1.7060  0.5541
20897SOL     OW68782   2.721   1.073   3.660 -0.5958  0.2193  0.5851
20897SOL    HW168783   2.737   1.163   3.686  1.6500  0.4425 -1.2806
20897SOL    HW268784   2.782   1.021   3.712 -0.5481 -0.0058  0.3102
20898SOL     OW68785   9.010   7.023   5.623  0.3593 -0.1849 -0.3244
20898SOL    HW168786   8.926   7.061   5.647  0.6470  0.0519  0.3484
20898SOL    HW268787   8.991   6.965   5.549 -0.6179 -1.1865  0.6805
20899SOL     OW68788   5.493   4.629   1.169  0.1087  1.0741  0.4334
20899SOL    HW168789   5.534   4.644   1.254  0.2729  1.4028  0.2992
20899SOL    HW268790   5.412   4.582   1.189  0.8476 -0.1578  0.6492
20900SOL     OW68791   9.356   0.362   8.956  0.5268  0.5023  0.7053
20900SOL    HW168792   9.425   0.421   8.988 -0.4394  2.4129 -0.5067
20900SOL    HW268793   9.342   0.301   9.028  2.5932  0.8372  1.4737
20901SOL     OW68794   6.821   0.245   3.864 -0.0873 -0.0877  0.0681
20901SOL    HW168795   6.912   0.222   3.883 -0.0133  0.2746  0.1636
20901SOL    HW268796   6.814   0.337   3.890 -0.6632 -0.3046  0.7129
20902SOL     OW68797   5.377   4.360   8.315  1.4495  0.2189 -0.0379
20902SOL    HW168798   5.298   4.364   8.368 -0.6717  2.3359 -3.0622
20902SOL    HW268799   5.446   4.335   8.377 -1.4180 -1.2884  2.8309
20903SOL     OW68800  10.727   0.863  10.868 -0.0301 -1.0831  0.5416
20903SOL    HW168801  10.754   0.952  10.889  1.5403 -1.0359 -1.3825
20903SOL    HW268802  10.677   0.834  10.945  0.4487  1.0027  1.7141
20904SOL     OW68803   6.415   3.485   5.225 -0.1590  0.5829 -0.0595
20904SOL    HW168804   6.371   3.523   5.149  1.3190  0.3914 -1.0511
20904SOL    HW268805   6.507   3.483   5.201  0.1342 -1.1568  1.0278
20905SOL     OW68806   3.315   1.787  10.376  0.3568 -0.0112  0.9308
20905SOL    HW168807   3.341   1.758  10.289 -1.2355 -0.0412  0.4443
20905SOL    HW268808   3.398   1.811  10.419  1.3036 -1.3031 -0.0890
20906SOL     OW68809   7.316   8.798   7.435 -0.3407  0.2801  0.8425
20906SOL    HW168810   7.293   8.714   7.397 -0.3599  1.0306 -0.9028
20906SOL    HW268811   7.321   8.782   7.529 -0.9463 -1.5102  0.5937
20907SOL     OW68812   7.558  10.052   1.302  0.0014  0.3301  0.3624
20907SOL    HW168813   7.528   9.965   1.329  1.8257 -0.1118  1.1135
20907SOL    HW268814   7.572  10.099   1.384  0.7958  0.7075  0.0163
20908SOL     OW68815   2.451   2.365   9.914 -0.0054  0.2799  0.2377
20908SOL    HW168816   2.525   2.424   9.927  0.0788  0.6446 -1.6426
20908SOL    HW268817   2.466   2.294   9.977  1.9562  0.3366 -0.1004
20909SOL     OW68818   1.474   0.650   1.401 -0.2185 -0.1314 -0.4726
20909SOL    HW168819   1.554   0.598   1.395 -0.3107 -0.2391 -0.8157
20909SOL    HW268820   1.489   0.723   1.342 -1.1066 -1.1494 -2.0464
20910SOL     OW68821   0.346   9.102   5.754  0.0377 -0.0337 -1.1907
20910SOL    HW168822   0.307   9.170   5.809  0.4895 -1.1373  0.5416
20910SOL    HW268823   0.439   9.125   5.751  0.1917 -0.5633 -0.5961
20911SOL     OW68824   6.591   2.065   6.694  0.2273  0.0338 -0.4573
20911SOL    HW168825   6.560   2.139   6.748 -1.3685 -0.3829 -0.7511
20911SOL    HW268826   6.668   2.099   6.650 -0.1817  1.3762 -0.2060
20912SOL     OW68827   5.889   8.735   1.551 -0.0165 -0.4760  0.7103
20912SOL    HW168828   5.932   8.791   1.486 -0.4000 -0.5577  0.3792
20912SOL    HW268829   5.956   8.721   1.618  0.9045 -1.5879 -0.3854
20913SOL     OW68830   4.231   9.357   0.335 -0.0974  0.1108 -0.2013
20913SOL    HW168831   4.324   9.342   0.320 -0.1824  0.2917 -0.9277
20913SOL    HW268832   4.187   9.284   0.292 -0.3039  0.1590 -0.0739
20914SOL     OW68833   9.356   5.550   4.922  0.0427  0.5171 -0.2503
20914SOL    HW168834   9.370   5.566   5.015 -0.8288  0.2014 -0.0542
20914SOL    HW268835   9.263   5.567   4.909 -0.4521 -2.0837 -0.4991
20915SOL     OW68836  10.714   7.086   9.569  0.3293 -0.6431  0.5511
20915SOL    HW168837  10.790   7.139   9.547  0.5836  0.1424  2.9388
20915SOL    HW268838  10.669   7.137   9.636  0.2863 -3.1248  2.5764
20916SOL     OW68839   2.509  10.589   5.723  0.7435 -0.2418 -0.1991
20916SOL    HW168840   2.562  10.661   5.688  0.0036 -0.2758 -1.4501
20916SOL    HW268841   2.529  10.587   5.816  1.1911  1.2375 -0.2465
20917SOL     OW68842   2.119   6.892   9.708  0.5515  0.5727 -0.0980
20917SOL    HW168843   2.052   6.947   9.667  0.5791  0.7380  0.0739
20917SOL    HW268844   2.136   6.935   9.792 -0.4565 -0.4790  0.6832
20918SOL     OW68845   8.719   4.176   0.462 -0.4073 -0.1059 -0.3699
20918SOL    HW168846   8.755   4.178   0.550  0.3505 -1.8174 -0.5877
20918SOL    HW268847   8.649   4.241   0.462 -1.8647 -1.5255  2.1538
20919SOL     OW68848   0.854   8.079   0.060 -0.4950 -0.4080  0.2043
20919SOL    HW168849   0.805   8.066  -0.021  0.7420  2.1582 -1.0755
20919SOL    HW268850   0.941   8.105   0.031  0.3072 -0.4432  2.4007
20920SOL     OW68851   2.935   9.309   6.947 -0.4834  0.0812  0.7104
20920SOL    HW168852   2.957   9.401   6.965  0.9196  0.0573 -0.7179
20920SOL    HW268853   2.950   9.299   6.853 -0.6224 -1.6262  0.8457
20921SOL     OW68854   5.128   7.564  10.491  0.3209  0.2957  0.2272
20921SOL    HW168855   5.158   7.535  10.405  0.7679  1.5281 -0.0641
20921SOL    HW268856   5.060   7.629  10.472 -0.0926  0.0489  0.8215
20922SOL     OW68857   2.952   1.417   5.061 -0.0210 -0.6362 -0.0383
20922SOL    HW168858   3.030   1.434   5.007  1.8630 -0.4222  2.5455
20922SOL    HW268859   2.939   1.322   5.055  0.3166 -0.6494 -0.6478
20923SOL     OW68860   3.741   9.444   0.237  0.3775  0.2000 -0.2537
20923SOL    HW168861   3.782   9.517   0.190 -0.7783  1.4364  0.5699
20923SOL    HW268862   3.803   9.424   0.308  0.3314  0.9318 -0.0011
20924SOL     OW68863   7.659   1.225   1.262  0.1160  0.0245 -0.4033
20924SOL    HW168864   7.587   1.287   1.274 -0.2102 -0.5976  1.0428
20924SOL    HW268865   7.684   1.235   1.170 -1.5569  0.5332 -0.8377
20925SOL     OW68866   1.675  10.242   5.705 -0.2273 -0.3045  0.3110
20925SOL    HW168867   1.749  10.191   5.674 -0.4207  0.1182 -0.8881
20925SOL    HW268868   1.600  10.209   5.655  0.0010  2.5739 -2.1943
20926SOL     OW68869   5.654   3.659   1.535  0.0741  0.1522  0.1958
20926SOL    HW168870   5.708   3.610   1.472 -1.8730 -2.6469  0.5254
20926SOL    HW268871   5.703   3.656   1.617  0.5203 -0.2203 -0.0802
20927SOL     OW68872   2.799   1.497  10.342 -0.2437 -0.0907 -0.4396
20927SOL    HW168873   2.887   1.467  10.319 -0.5356 -0.6099 -0.9269
20927SOL    HW268874   2.751   1.416  10.360 -0.5920  0.1962 -0.0718
20928SOL     OW68875   5.992   9.430   1.445 -0.1137 -0.0951  0.1750
20928SOL    HW168876   6.049   9.355   1.460 -1.3337 -0.9341  0.7273
20928SOL    HW268877   6.021   9.466   1.361  1.0688 -0.6197  0.3388
20929SOL     OW68878  10.588   5.527  10.672 -0.0880  0.1885 -0.5889
20929SOL    HW168879  10.621   5.553  10.586 -0.2931  1.0013 -0.4307
20929SOL    HW268880  10.665   5.495  10.719  0.3289  1.2451 -0.5270
20930SOL     OW68881   3.775   1.721  10.020  0.4889 -0.2739 -0.2518
20930SOL    HW168882   3.775   1.682   9.933  2.5744 -1.0659  0.0418
20930SOL    HW268883   3.755   1.813  10.005  0.3780 -0.4827 -1.5008
20931SOL     OW68884   4.953  10.044   9.212  0.1193  0.6053  0.2611
20931SOL    HW168885   5.043  10.017   9.193 -0.6752 -1.9793 -0.2405
20931SOL    HW268886   4.958  10.084   9.299  1.4495 -1.5431  1.2614
20932SOL     OW68887   5.927   5.473  10.589  0.2329 -0.2557  0.4321
20932SOL    HW168888   6.022   5.479  10.594  0.2703 -0.7850  0.4665
20932SOL    HW268889   5.907   5.384  10.620 -0.1508 -0.6754 -0.9572
20933SOL     OW68890  10.147   3.352   9.378  0.1394  0.0356 -0.5464
20933SOL    HW168891  10.155   3.268   9.334 -1.1218  0.1970 -1.1279
20933SOL    HW268892  10.159   3.417   9.309  0.7754  0.3376 -0.1608
20934SOL     OW68893   3.667   7.986   0.932 -0.1939 -0.1492  0.0390
20934SOL    HW168894   3.746   7.979   0.986  0.3071  1.3047 -0.4346
20934SOL    HW268895   3.667   7.907   0.878 -0.0823 -1.0672  1.3395
20935SOL     OW68896   8.210   8.647   1.171  0.3394 -0.0905 -0.3489
20935SOL    HW168897   8.239   8.558   1.153  1.3176 -0.4010  2.2104
20935SOL    HW268898   8.176   8.643   1.261  0.1377  2.0471 -0.2784
20936SOL     OW68899   1.625   9.512   0.518  0.3192 -0.5229 -0.1885
20936SOL    HW168900   1.581   9.439   0.562 -0.9683  0.4197  0.1516
20936SOL    HW268901   1.718   9.490   0.522 -0.0208 -1.9794  0.1970
20937SOL     OW68902   9.922   8.949   5.767 -0.7120  0.1698 -0.0165
20937SOL    HW168903   9.845   8.904   5.733 -0.0506 -0.6868 -0.4439
20937SOL    HW268904   9.916   8.941   5.862  0.7009 -3.2683 -0.0488
20938SOL     OW68905  10.702   6.155   7.613 -0.1690  0.0788 -0.3426
20938SOL    HW168906  10.726   6.246   7.632 -1.2600  0.7332 -1.8246
20938SOL    HW268907  10.779   6.118   7.570  0.8620 -0.2228  1.6534
20939SOL     OW68908   5.799   8.303   1.963  0.3342 -0.0825  0.8207
20939SOL    HW168909   5.798   8.369   1.895  0.0564 -0.2366  0.6752
20939SOL    HW268910   5.881   8.255   1.948 -0.3008 -0.9007 -0.1648
20940SOL     OW68911   2.578   5.211   6.269 -0.2213  0.1944 -0.2126
20940SOL    HW168912   2.529   5.222   6.188 -1.1757 -0.7494  0.2031
20940SOL    HW268913   2.644   5.280   6.268  0.0064 -0.0125 -1.9468
20941SOL     OW68914   8.801   4.007   6.694  0.1729  0.5769 -0.6165
20941SOL    HW168915   8.756   3.986   6.776 -1.1778  2.3068 -0.8540
20941SOL    HW268916   8.890   4.031   6.721  0.2883 -0.6145  0.1266
20942SOL     OW68917   0.014  10.915   3.347  0.4648 -0.3322 -0.7916
20942SOL    HW168918  -0.060  10.961   3.385  1.0006 -0.7104  0.8020
20942SOL    HW268919  -0.025  10.853   3.286 -0.4781 -0.0086 -0.5359
20943SOL     OW68920   7.013   3.735   2.029  0.0152  0.5504  0.5071
20943SOL    HW168921   7.003   3.669   2.098 -0.6437 -0.0873 -0.1770
20943SOL    HW268922   6.971   3.813   2.064 -0.7304  0.0911  0.6431
20944SOL     OW68923   8.258   8.555   1.812 -0.1247  0.3374 -0.4176
20944SOL    HW168924   8.339   8.504   1.820  0.1385  0.9471  1.0843
20944SOL    HW268925   8.284   8.635   1.767 -0.0836  0.1573 -0.7202
20945SOL     OW68926   8.090   5.106   8.778  0.1575  0.2460 -0.2467
20945SOL    HW168927   8.096   5.026   8.725 -0.2841 -0.2794  0.4734
20945SOL    HW268928   7.997   5.127   8.780  0.1470  0.1710  0.4269
20946SOL     OW68929   7.015   9.570   3.921 -0.5943  0.6650  0.2413
20946SOL    HW168930   6.932   9.582   3.874  0.6355 -0.2632 -2.3896
20946SOL    HW268931   7.066   9.648   3.899 -0.0876  0.3396  0.2584
20947SOL     OW68932   6.395   2.092   6.454  0.6774  0.2769 -0.3545
20947SOL    HW168933   6.455   2.060   6.521 -1.0138  1.0447  1.6854
20947SOL    HW268934   6.309   2.058   6.481 -0.4327  2.5697 -0.7273
20948SOL     OW68935   0.533   3.539   9.360 -0.3006 -0.3596  0.0968
20948SOL    HW168936   0.594   3.502   9.424 -0.1037  0.0084  0.1235
20948SOL    HW268937   0.533   3.476   9.288  1.0658  0.2305 -0.4571
20949SOL     OW68938  10.377  10.815   1.652  0.2202  0.3901  0.4356
20949SOL    HW168939  10.291  10.847   1.626 -0.2182 -1.7233 -0.9987
20949SOL    HW268940  10.425  10.805   1.570  1.1709 -0.1997  1.0428
20950SOL     OW68941  10.799   4.076   0.520  0.3319 -0.0246  0.1323
20950SOL    HW168942  10.724   4.034   0.478 -0.2541 -0.1063  1.1993
20950SOL    HW268943  10.769   4.092   0.610  1.2509  0.8479  0.2980
20951SOL     OW68944   1.711   4.408   9.267  0.0007 -0.6681  0.3316
20951SOL    HW168945   1.749   4.485   9.224 -0.5663 -0.9534 -0.7140
20951SOL    HW268946   1.738   4.416   9.358 -1.6162  1.8158  0.6840
20952SOL     OW68947   8.128   8.131   7.656 -0.5543  0.4808 -0.2185
20952SOL    HW168948   8.085   8.130   7.741  0.2717  1.1942  0.2187
20952SOL    HW268949   8.135   8.224   7.634 -2.1908  0.2793 -1.8183
20953SOL     OW68950   3.172   0.335   9.801 -0.1555 -0.4636 -0.4437
20953SOL    HW168951   3.192   0.389   9.725  1.0707 -0.6535 -0.2793
20953SOL    HW268952   3.226   0.256   9.789  0.6511 -0.1559  1.0006
20954SOL     OW68953   7.454   2.697   5.233 -0.0966 -0.1929 -0.9444
20954SOL    HW168954   7.454   2.695   5.329 -0.2022 -2.2926 -0.9433
20954SOL    HW268955   7.368   2.662   5.208  0.0852 -0.0409 -1.8078
20955SOL     OW68956   3.557   9.897   2.076 -0.0301 -0.2280 -0.4607
20955SOL    HW168957   3.613   9.952   2.131 -1.3737 -0.8552  1.6552
20955SOL    HW268958   3.612   9.823   2.051  0.6083  0.0585  0.0813
20956SOL     OW68959   3.874  10.522   9.529 -0.6925  0.2628  0.4678
20956SOL    HW168960   3.894  10.431   9.549  0.3430  0.2892 -0.3341
20956SOL    HW268961   3.885  10.528   9.434 -1.3964  1.0768  0.4265
20957SOL     OW68962   0.179   0.146   0.787  0.8240 -0.8617 -0.1823
20957SOL    HW168963   0.113   0.143   0.857  0.0388 -1.1863 -0.9175
20957SOL    HW268964   0.214   0.057   0.784  1.1428 -0.7432  0.0692
20958SOL     OW68965   3.406   3.850   0.802 -0.3380 -0.3701 -0.6081
20958SOL    HW168966   3.331   3.792   0.814 -1.6088  1.1598 -0.8736
20958SOL    HW268967   3.412   3.860   0.707  0.1402 -0.3905 -0.5811
20959SOL     OW68968   5.251   0.732   0.472 -0.2097 -0.1367  0.2512
20959SOL    HW168969   5.328   0.696   0.428  0.4184  0.8979  0.4824
20959SOL    HW268970   5.274   0.734   0.565  0.3314  2.0878  0.1349
20960SOL     OW68971   9.794   9.770   8.401 -0.2472 -0.4269 -0.3363
20960SOL    HW168972   9.872   9.752   8.350  0.4541 -1.7319  1.1051
20960SOL    HW268973   9.792   9.866   8.410  0.5507 -0.3077 -1.3216
20961SOL     OW68974   1.635   2.452   4.458  0.3944  0.3866 -0.4032
20961SOL    HW168975   1.716   2.465   4.508  0.0424 -1.1252  0.6044
20961SOL    HW268976   1.636   2.360   4.433 -1.7042 -0.0499  0.8937
20962SOL     OW68977   5.936   9.521   6.597 -0.5051 -0.3942 -0.0579
20962SOL    HW168978   5.957   9.466   6.521  1.3417 -0.5364  0.4981
20962SOL    HW268979   5.845   9.546   6.584 -0.4600 -1.0307 -1.9292
20963SOL     OW68980   0.122   4.309   3.730  0.8651  0.1004 -0.3811
20963SOL    HW168981   0.121   4.217   3.704  0.8273  0.1128 -0.4238
20963SOL    HW268982   0.203   4.319   3.780  0.4241 -0.1718  0.4068
20964SOL     OW68983   8.139   6.346   3.083  0.0768 -0.5122 -0.0012
20964SOL    HW168984   8.163   6.345   3.176  0.2372 -0.4124 -0.0413
20964SOL    HW268985   8.088   6.426   3.072 -0.2740 -0.7233  0.0836
20965SOL     OW68986   2.189   0.216   3.950  0.1949  0.5394 -0.0941
20965SOL    HW168987   2.157   0.215   3.860 -0.6378  0.5500  0.1967
20965SOL    HW268988   2.271   0.167   3.946 -1.5269 -2.5984 -0.2649
20966SOL     OW68989   5.027   7.284   7.619  0.3621 -0.0625  0.0375
20966SOL    HW168990   5.033   7.253   7.709 -1.9545 -0.0138  0.2719
20966SOL    HW268991   5.067   7.215   7.566 -0.1016 -1.0624  0.9544
20967SOL     OW68992   0.279   9.066   2.884  0.1728  0.2657 -0.0216
20967SOL    HW168993   0.232   9.069   2.967  0.3380  0.6739  0.0581
20967SOL    HW268994   0.210   9.071   2.817  0.0313 -0.1864  0.0843
20968SOL     OW68995   7.733  10.805   9.466 -0.2509  0.6562  0.1253
20968SOL    HW168996   7.688  10.855   9.534  0.2690  0.8089  0.3681
20968SOL    HW268997   7.761  10.725   9.509  0.5547  0.9879  0.2544
20969SOL     OW68998   2.765   9.197   7.141  0.1109 -0.1874  0.1512
20969SOL    HW168999   2.766   9.102   7.138  2.1767 -0.1924 -0.0675
20969SOL    HW269000   2.833   9.224   7.079 -0.4982  1.4352  0.1423
20970SOL     OW69001   4.287   1.402   1.504 -0.1740 -0.0948  0.2169
20970SOL    HW169002   4.243   1.470   1.555 -2.2417 -0.5561 -0.8410
20970SOL    HW269003   4.271   1.426   1.413  0.9711 -0.8306 -0.2015
20971SOL     OW69004   3.810   1.105   6.103 -0.2752 -0.4393 -0.4092
20971SOL    HW169005   3.778   1.152   6.026 -1.2818 -0.7853 -0.2229
20971SOL    HW269006   3.817   1.172   6.171 -3.5900 -0.7745  0.4291
20972SOL     OW69007   7.164   6.189   2.950  0.4621  0.0457  0.1406
20972SOL    HW169008   7.086   6.232   2.916  0.8069 -0.3628 -1.2501
20972SOL    HW269009   7.232   6.255   2.946  1.0683 -0.6146 -2.2927
20973SOL     OW69010   3.946   5.042   9.048  0.3905  0.0090 -0.0659
20973SOL    HW169011   3.875   5.075   8.992  1.7843  1.3399 -1.1272
20973SOL    HW269012   3.988   5.121   9.082  0.0844 -0.7572  2.2890
20974SOL     OW69013   1.614   2.805   0.836  0.1760 -0.3390 -0.4308
20974SOL    HW169014   1.694   2.852   0.861  0.3091 -0.8230  0.0642
20974SOL    HW269015   1.543   2.856   0.876  0.3431 -0.7469  0.3982
20975SOL     OW69016   4.669   3.247   7.170  0.3128 -0.1449  0.2672
20975SOL    HW169017   4.703   3.310   7.234 -2.4725  0.2163  1.5474
20975SOL    HW269018   4.651   3.168   7.222 -0.3560 -0.4565 -0.4240
20976SOL     OW69019   8.933   2.418   2.956  0.6034  0.0271  0.2995
20976SOL    HW169020   9.006   2.477   2.969  1.1082 -0.7146  0.9281
20976SOL    HW269021   8.956   2.368   2.878 -0.0844  1.0212 -0.5658
20977SOL     OW69022   3.622   7.219   0.264 -0.5742 -0.4219  0.2751
20977SOL    HW169023   3.580   7.227   0.178 -2.5666 -0.2993  1.1986
20977SOL    HW269024   3.568   7.273   0.322 -0.1421 -1.6446  1.8805
20978SOL     OW69025   9.933   0.388   9.040  0.0809 -0.6290  0.3052
20978SOL    HW169026   9.885   0.429   8.967  1.9956 -0.2327 -0.8075
20978SOL    HW269027   9.937   0.295   9.017  1.1730 -0.4155 -0.4076
20979SOL     OW69028   0.052   2.233   3.178 -0.0520 -0.2904 -0.2198
20979SOL    HW169029  -0.026   2.180   3.193 -1.6226  1.7980 -0.5916
20979SOL    HW269030   0.100   2.228   3.261 -0.7260 -1.3469  0.1306
20980SOL     OW69031   3.396   2.869   2.907  0.0575 -0.6841 -0.2765
20980SOL    HW169032   3.380   2.777   2.887 -1.4572 -0.4284 -0.3324
20980SOL    HW269033   3.310   2.904   2.931  1.0890 -0.0842  3.1359
20981SOL     OW69034   6.733   3.849   7.778  0.3718 -0.0046 -0.1095
20981SOL    HW169035   6.781   3.930   7.791  1.2824 -0.8912  2.7038
20981SOL    HW269036   6.647   3.865   7.817 -0.0626  0.1345 -1.1014
20982SOL     OW69037   3.584   0.703   0.729 -0.0339 -0.4153  0.1495
20982SOL    HW169038   3.518   0.757   0.686  1.5996  1.4110 -0.2064
20982SOL    HW269039   3.641   0.672   0.658  0.5146 -0.4859  0.6091
20983SOL     OW69040   8.727  10.868   0.519 -0.2139 -0.2361 -0.0757
20983SOL    HW169041   8.647  10.899   0.476 -1.0293  1.4048  2.4100
20983SOL    HW269042   8.703  10.782   0.554 -1.0728  0.3974  0.9610
20984SOL     OW69043   9.831   8.388   8.916 -0.2787 -0.1014 -0.4702
20984SOL    HW169044   9.833   8.375   8.821 -0.3676  1.6204 -0.7361
20984SOL    HW269045   9.882   8.315   8.951  3.1854  1.2922 -2.0950
20985SOL     OW69046   3.385   8.578   0.116 -0.0163  0.1134  0.3249
20985SOL    HW169047   3.451   8.529   0.164 -2.3429 -0.5560  3.1429
20985SOL    HW269048   3.388   8.666   0.153  1.6795  1.2183 -2.1671
20986SOL     OW69049   8.447   4.289   9.682  0.1835 -0.8660 -0.6598
20986SOL    HW169050   8.357   4.258   9.671  0.1940 -2.0963  2.1480
20986SOL    HW269051   8.450   4.322   9.772  2.4098 -0.3249 -0.8887
20987SOL     OW69052   5.017   0.645   6.131 -0.3091 -0.3763 -0.2713
20987SOL    HW169053   5.007   0.561   6.085 -0.7867 -0.6032  0.2307
20987SOL    HW269054   5.004   0.622   6.223 -0.8740  0.3216 -0.1708
20988SOL     OW69055  10.406  10.673   7.314 -0.2628 -0.1458 -0.1767
20988SOL    HW169056  10.400  10.722   7.231 -0.1843  0.3047  0.0826
20988SOL    HW269057  10.387  10.739   7.381 -0.5792 -0.5697  0.1493
20989SOL     OW69058   2.587   5.844   8.285 -0.0146  0.5306  0.4063
20989SOL    HW169059   2.650   5.875   8.219  0.2430  0.3990  0.5893
20989SOL    HW269060   2.641   5.801   8.351 -0.3553 -0.1635  0.2352
20990SOL     OW69061   4.325   2.519   8.351  0.2228 -0.0121  0.1196
20990SOL    HW169062   4.322   2.479   8.265  0.5296  0.1150  0.0488
20990SOL    HW269063   4.313   2.613   8.335 -0.8927 -0.1096  0.3187
20991SOL     OW69064   8.022   5.433   8.707 -0.3773  0.5948 -0.7518
20991SOL    HW169065   8.030   5.338   8.700  0.0101  0.6417 -0.9839
20991SOL    HW269066   7.957   5.457   8.640  0.5122  0.6296 -1.6244
20992SOL     OW69067   7.021   1.837   2.129  0.1889 -0.5903 -0.9033
20992SOL    HW169068   6.968   1.817   2.052 -1.9332  0.4466  0.1852
20992SOL    HW269069   7.014   1.758   2.183 -0.6229 -0.3191 -0.5934
20993SOL     OW69070   5.555   5.185   1.421 -0.2058 -0.0938  0.0330
20993SOL    HW169071   5.498   5.108   1.419 -1.0176  0.5074 -2.0250
20993SOL    HW269072   5.638   5.152   1.456 -1.0949 -1.4706  0.9476
20994SOL     OW69073   3.857   5.658   4.965 -0.0463 -0.3802  0.0634
20994SOL    HW169074   3.848   5.572   4.923  0.7633 -0.6409  0.4131
20994SOL    HW269075   3.802   5.651   5.043 -1.8925  0.2433 -1.0863
20995SOL     OW69076   0.322   1.282  10.056  0.4626 -0.0644  0.1479
20995SOL    HW169077   0.312   1.362  10.108  1.2210 -0.3692  0.7754
20995SOL    HW269078   0.289   1.212  10.113 -0.3352 -0.1987 -0.4503
20996SOL     OW69079   9.088   1.209   7.410 -0.1048 -0.0786  0.5146
20996SOL    HW169080   9.112   1.125   7.449 -1.7678 -0.4943  0.6949
20996SOL    HW269081   9.003   1.194   7.369  0.3565  1.0760 -0.9532
20997SOL     OW69082   4.497   1.246   0.733  0.0211 -0.3943 -0.2899
20997SOL    HW169083   4.527   1.231   0.823 -1.4011 -3.3998 -0.1864
20997SOL    HW269084   4.438   1.321   0.740  0.0174 -0.4977  1.2732
20998SOL     OW69085   1.527   3.113   8.630  0.0102 -0.1048 -0.2434
20998SOL    HW169086   1.511   3.187   8.572 -0.3181  1.5061  1.7676
20998SOL    HW269087   1.440   3.090   8.663  0.2393 -0.6737 -0.0335
20999SOL     OW69088   0.262   8.928   8.658  0.3101  0.3302 -0.1382
20999SOL    HW169089   0.251   8.855   8.719  2.9628 -2.6773 -2.8718
20999SOL    HW269090   0.349   8.963   8.679 -1.0094  3.0498  1.2737
21000SOL     OW69091   4.438   1.140   4.676 -0.1365 -1.1322  0.3381
21000SOL    HW169092   4.517   1.163   4.724 -0.7933 -2.1701  2.0144
21000SOL    HW269093   4.393   1.077   4.733 -3.1664  0.8799  0.4126
21001SOL     OW69094   2.828   3.022   1.745 -0.0295  0.1540  0.6666
21001SOL    HW169095   2.911   3.006   1.791 -0.2815 -0.1323  1.0203
21001SOL    HW269096   2.855   3.039   1.654  0.3359 -1.1997  0.4969
21002SOL     OW69097  10.544   8.845  10.201  0.1888  0.0930  0.4171
21002SOL    HW169098  10.519   8.794  10.278  0.2076 -0.0114  0.3527
21002SOL    HW269099  10.515   8.934  10.222 -1.1213 -0.1986 -0.0580
21003SOL     OW69100   6.910   4.443  10.693 -0.0759  0.3515 -0.0825
21003SOL    HW169101   6.935   4.351  10.682 -0.4848  0.0305  1.4622
21003SOL    HW269102   6.853   4.461  10.618  0.2237 -0.5685 -0.5494
21004SOL     OW69103   3.468   6.177   2.748 -0.1909  0.6991 -0.1124
21004SOL    HW169104   3.562   6.192   2.740  0.1403 -1.2931 -0.4889
21004SOL    HW269105   3.447   6.204   2.837  0.7494  1.1201 -0.0051
21005SOL     OW69106   0.097   3.662   0.156 -0.4586 -0.8725 -0.1250
21005SOL    HW169107   0.192   3.648   0.158 -0.4168 -0.5846  1.3793
21005SOL    HW269108   0.073   3.656   0.064  1.3424  1.1158 -0.7905
21006SOL     OW69109   3.684   9.801   9.326  0.5100  0.3960 -0.5765
21006SOL    HW169110   3.711   9.710   9.312  0.4760  0.1951  0.6086
21006SOL    HW269111   3.763   9.852   9.306  0.7315  0.0626 -0.5639
21007SOL     OW69112   7.286   8.542   7.874  0.1840  0.1374 -0.3440
21007SOL    HW169113   7.212   8.498   7.915  0.3142  0.2531  0.0143
21007SOL    HW269114   7.336   8.579   7.947 -0.6632  2.0665 -0.6756
21008SOL     OW69115   7.867   9.439   4.207 -0.2935 -0.8358 -0.1029
21008SOL    HW169116   7.822   9.497   4.145 -1.4460 -1.2461  0.3255
21008SOL    HW269117   7.866   9.353   4.164  2.0468 -0.4711 -1.0644
21009SOL     OW69118   2.392   7.011   3.921  0.2414  0.4445 -0.1363
21009SOL    HW169119   2.455   7.048   3.858  0.2734 -0.6878 -0.8048
21009SOL    HW269120   2.435   6.932   3.954 -0.0616  0.6697  0.8278
21010SOL     OW69121   0.030   2.481   5.424  0.0764 -0.8422  0.0205
21010SOL    HW169122  -0.010   2.400   5.456 -0.5316 -0.5500  0.0247
21010SOL    HW269123  -0.045   2.539   5.408  0.4964 -0.3444 -0.1467
21011SOL     OW69124   2.182   8.430   1.067  0.3655  0.1096 -0.5795
21011SOL    HW169125   2.168   8.368   0.995 -2.5237  0.7284 -0.7105
21011SOL    HW269126   2.105   8.420   1.123  0.3759  2.6755  0.0616
21012SOL     OW69127   8.156   9.371   3.524 -0.0333  0.6182 -0.3999
21012SOL    HW169128   8.147   9.466   3.525  0.0600  0.6281  0.9336
21012SOL    HW269129   8.249   9.356   3.511  0.4720  0.7952  2.4752
21013SOL     OW69130   5.124   1.222   7.716 -0.4036 -0.0295  0.2705
21013SOL    HW169131   5.201   1.176   7.751 -0.3026 -0.1112 -0.0580
21013SOL    HW269132   5.160   1.297   7.669 -0.5621  0.2873  0.6537
21014SOL     OW69133   6.294   5.537   0.885  0.1693  0.4206  0.4955
21014SOL    HW169134   6.310   5.596   0.959  0.3206  0.9748  0.0229
21014SOL    HW269135   6.198   5.534   0.879  0.1613  0.8099  0.3744
21015SOL     OW69136   3.287   6.906   6.861  0.3327  0.1083 -0.0559
21015SOL    HW169137   3.353   6.976   6.857  0.3873  0.0875  0.4019
21015SOL    HW269138   3.214   6.946   6.908  1.1353 -0.7401  2.0258
21016SOL     OW69139   4.639   1.532  10.394  0.6009 -0.4313 -0.1520
21016SOL    HW169140   4.583   1.518  10.317  1.9641 -0.4609 -1.1737
21016SOL    HW269141   4.633   1.627  10.410 -0.9845 -0.6532  0.7637
21017SOL     OW69142   6.882   9.157   1.264  0.0794 -0.3272 -0.3961
21017SOL    HW169143   6.926   9.228   1.216 -0.3449  0.5384  0.4766
21017SOL    HW269144   6.889   9.182   1.356 -1.4116 -0.6539 -0.1767
21018SOL     OW69145   3.191   8.171   5.122 -0.1485  0.2127  0.0769
21018SOL    HW169146   3.211   8.183   5.029  1.3810 -0.6404  0.2539
21018SOL    HW269147   3.161   8.080   5.128  1.5884 -0.3817  0.6298
21019SOL     OW69148   7.910   0.384   1.051 -0.1769  0.1339  0.4259
21019SOL    HW169149   7.873   0.470   1.033 -0.3338  0.4344  2.0118
21019SOL    HW269150   7.856   0.350   1.122  0.1516 -1.1018  0.0976
21020SOL     OW69151   8.352   9.807   5.230  0.1040  0.2847 -0.1882
21020SOL    HW169152   8.365   9.725   5.278 -1.5724  0.5285  0.7398
21020SOL    HW269153   8.437   9.851   5.237  0.0921  0.0949  2.1951
21021SOL     OW69154   7.120   7.203  10.858 -0.2701 -0.4670  0.2247
21021SOL    HW169155   7.143   7.205  10.951  0.6950 -2.4010  0.0717
21021SOL    HW269156   7.204   7.194  10.813 -0.9245 -4.4323 -0.5393
21022SOL     OW69157   4.255   9.576   3.381  0.0676  0.2160  0.6592
21022SOL    HW169158   4.236   9.567   3.287  1.8829  0.8850  0.1950
21022SOL    HW269159   4.328   9.638   3.385 -0.5267  0.8662  2.5868
21023SOL     OW69160   3.010   7.004   6.454 -0.1048 -0.4032 -0.6133
21023SOL    HW169161   3.074   6.934   6.442 -0.4334 -0.7147 -0.5433
21023SOL    HW269162   2.981   7.026   6.365  0.4699  0.0869 -0.6843
21024SOL     OW69163   6.967   9.158  10.620  0.1813  0.0553 -0.4430
21024SOL    HW169164   6.939   9.242  10.655  1.7427  0.7553 -0.7704
21024SOL    HW269165   6.936   9.094  10.684  1.9580  1.1956  1.6970
21025SOL     OW69166   3.129   7.517   4.575  0.2965 -0.4206  0.0733
21025SOL    HW169167   3.117   7.610   4.595  1.0549 -0.7143  2.0999
21025SOL    HW269168   3.070   7.472   4.635  0.9466 -1.3076  0.0625
21026SOL     OW69169   2.917   8.089   0.253  0.1629  0.1607  0.2771
21026SOL    HW169170   2.948   8.179   0.265  1.0074 -0.0419 -0.3037
21026SOL    HW269171   2.838   8.098   0.199 -1.4676  0.7586  2.5966
21027SOL     OW69172   8.440   4.941   1.968  0.2642  0.3732 -0.3875
21027SOL    HW169173   8.455   4.965   2.059  0.9794 -1.3138 -0.0138
21027SOL    HW269174   8.491   4.860   1.956  1.9417  1.6530 -2.8584
21028SOL     OW69175   8.115   4.751   2.595  0.2061 -0.0731  0.9734
21028SOL    HW169176   8.082   4.832   2.632  1.3097  0.5754  0.5763
21028SOL    HW269177   8.112   4.688   2.668  0.3606  0.6142  1.5866
21029SOL     OW69178   7.280  10.551   6.638  0.1009 -0.0531  0.4610
21029SOL    HW169179   7.283  10.611   6.564 -1.1591  1.6981  1.7701
21029SOL    HW269180   7.188  10.525   6.645  0.3461 -0.8292  0.9319
21030SOL     OW69181   1.262   4.216   4.223 -0.1116  0.1808  0.5817
21030SOL    HW169182   1.180   4.194   4.178  0.2680 -1.6783  0.7421
21030SOL    HW269183   1.314   4.136   4.219  1.7930  1.3593  0.3498
21031SOL     OW69184   6.586   9.192   4.556  1.2605 -0.1457 -0.7268
21031SOL    HW169185   6.509   9.186   4.499  0.2351  1.4199  0.4362
21031SOL    HW269186   6.569   9.127   4.624 -0.4352  1.9737  1.0350
21032SOL     OW69187  10.890   1.552   9.755  0.3261 -0.5815  0.3462
21032SOL    HW169188  10.914   1.548   9.848  1.1585  0.3828  0.1904
21032SOL    HW269189  10.800   1.583   9.755  0.1314 -1.1239  0.8420
21033SOL     OW69190   9.591   6.439   6.322  0.3392 -0.2728  0.3151
21033SOL    HW169191   9.513   6.489   6.346  0.7398 -0.1828  1.5050
21033SOL    HW269192   9.617   6.475   6.237 -0.1982  0.5631  0.4878
21034SOL     OW69193   8.888   3.844   0.357 -0.1633  0.9286 -0.4014
21034SOL    HW169194   8.896   3.749   0.366  0.9741  0.8319 -2.0281
21034SOL    HW269195   8.827   3.869   0.426 -0.4535 -0.9737  0.0982
21035SOL     OW69196   4.811   8.197   3.822  0.3510 -0.2350 -0.2930
21035SOL    HW169197   4.839   8.242   3.902 -1.5009  1.5276 -0.5710
21035SOL    HW269198   4.828   8.260   3.752  0.0288 -0.9630 -1.0370
21036SOL     OW69199   1.310  10.724   5.516 -0.4608 -0.9637 -0.3434
21036SOL    HW169200   1.341  10.801   5.563 -2.4436 -0.2794 -0.0481
21036SOL    HW269201   1.299  10.754   5.425 -1.7261 -0.7008 -0.1265
21037SOL     OW69202   1.067   0.190   2.737  0.0449 -0.1324  0.4624
21037SOL    HW169203   1.027   0.224   2.817 -1.2560  0.3202 -0.3373
21037SOL    HW269204   1.024   0.106   2.722 -1.2958  0.7367 -0.8527
21038SOL     OW69205   9.745   1.989  10.188 -0.1400 -0.3705  0.1777
21038SOL    HW169206   9.667   1.935  10.179  0.1839 -0.6256 -1.3924
21038SOL    HW269207   9.760   1.994  10.283 -0.3491 -2.7774  0.3953
21039SOL     OW69208   4.206   4.684   0.912  0.3705  0.1411 -0.0970
21039SOL    HW169209   4.280   4.661   0.968  1.0066  2.6400  0.2438
21039SOL    HW269210   4.213   4.779   0.903 -2.9305  0.5045  0.1314
21040SOL     OW69211   9.095   8.701   1.614 -0.3358  0.3542  0.0677
21040SOL    HW169212   9.097   8.743   1.700 -1.2111  0.2424  0.1523
21040SOL    HW269213   9.070   8.771   1.553  0.5275  0.4937 -0.1486
21041SOL     OW69214   3.612   6.521   5.199 -0.5909  0.2269 -0.1076
21041SOL    HW169215   3.517   6.507   5.200 -0.6611  0.7070  0.1805
21041SOL    HW269216   3.622   6.615   5.208 -0.0769  0.1364  0.2553
21042SOL     OW69217   4.464   3.719   6.579 -0.2248  0.1634  0.0816
21042SOL    HW169218   4.480   3.812   6.564 -1.0258  0.0699 -1.6011
21042SOL    HW269219   4.481   3.706   6.672  0.7665  1.8010  0.1620
21043SOL     OW69220   2.606   2.792   8.288  0.6626  0.5166  0.0799
21043SOL    HW169221   2.577   2.756   8.205  1.3925 -1.8422  0.7758
21043SOL    HW269222   2.667   2.727   8.323  0.6293  1.5814  2.3034
21044SOL     OW69223   9.143   0.557   1.801 -0.1119 -0.0653  0.7975
21044SOL    HW169224   9.118   0.595   1.886  1.2124  1.4707  0.5663
21044SOL    HW269225   9.210   0.492   1.823  0.9541  1.0311  0.8969
21045SOL     OW69226   2.651   9.307   6.399  0.1671 -0.1751 -0.3092
21045SOL    HW169227   2.558   9.328   6.410 -0.1337 -0.7455 -1.6510
21045SOL    HW269228   2.677   9.272   6.484 -0.5949  0.8740  0.3822
21046SOL     OW69229   9.507   0.807  10.336 -0.6932 -0.0470  0.3085
21046SOL    HW169230   9.568   0.758  10.392 -0.8568 -0.1161  0.4284
21046SOL    HW269231   9.560   0.840  10.265 -0.7153 -1.0357 -0.1765
21047SOL     OW69232   7.765   4.885  10.386  0.2252  0.5525  0.8111
21047SOL    HW169233   7.694   4.850  10.333  1.9741  0.7445 -1.8128
21047SOL    HW269234   7.720   4.939  10.452 -2.2145 -2.3621  1.7647
21048SOL     OW69235   8.006   0.553   5.154 -0.0017  0.2846  0.0860
21048SOL    HW169236   7.998   0.638   5.111  0.0434 -0.0250 -0.5545
21048SOL    HW269237   8.054   0.570   5.235 -0.5190  0.9603  0.2527
21049SOL     OW69238   8.699   2.973   0.545 -0.0285  0.1414  1.0224
21049SOL    HW169239   8.762   2.973   0.472 -0.6845 -0.8314  0.4513
21049SOL    HW269240   8.625   3.024   0.512 -0.5408 -0.7262  0.8059
21050SOL     OW69241   8.333   8.922  10.829  0.1840 -0.2753 -0.1930
21050SOL    HW169242   8.426   8.905  10.812  0.3015  0.4674 -0.3137
21050SOL    HW269243   8.327   9.017  10.839 -0.7641 -0.1805 -1.4222
21051SOL     OW69244   2.801   8.322   7.611 -0.4117 -0.0221 -0.2171
21051SOL    HW169245   2.851   8.395   7.648  0.7388 -0.6925 -0.4085
21051SOL    HW269246   2.718   8.361   7.585 -0.4918  0.8658  1.2797
21052SOL     OW69247   1.924   2.661   6.380  0.0103  0.1291 -0.5120
21052SOL    HW169248   2.004   2.609   6.394 -0.1890  0.0671  0.4752
21052SOL    HW269249   1.853   2.604   6.408 -0.4609 -0.1033 -2.1320
21053SOL     OW69250  10.486   9.052   9.350 -0.0785  0.0063 -0.0683
21053SOL    HW169251  10.574   9.077   9.379 -0.1667  2.5824 -1.7090
21053SOL    HW269252  10.440   9.029   9.431  1.2786  1.4581  1.1956
21054SOL     OW69253   6.126   4.080   4.268 -0.0053 -0.3131  0.0251
21054SOL    HW169254   6.096   4.123   4.349 -0.3302 -0.4716 -0.0084
21054SOL    HW269255   6.104   3.988   4.280  0.3739 -0.4169 -0.0509
21055SOL     OW69256  10.117   7.789   4.644 -0.2403 -0.7195  0.4960
21055SOL    HW169257  10.172   7.721   4.606 -1.9104 -2.0377  0.3687
21055SOL    HW269258  10.071   7.746   4.716 -0.2832  0.6550  1.3376
21056SOL     OW69259   0.765   1.811   9.184 -0.0080  0.1232  0.5550
21056SOL    HW169260   0.688   1.755   9.176  0.6369 -0.5916 -1.6290
21056SOL    HW269261   0.824   1.778   9.116  0.4666  3.3473 -0.7588
21057SOL     OW69262   2.009   0.719  10.572  0.1405  0.4299  0.0772
21057SOL    HW169263   1.948   0.645  10.567  0.9469 -0.2842  0.5409
21057SOL    HW269264   2.002   0.750  10.662 -0.5990  1.2908 -0.2616
21058SOL     OW69265   6.171   4.573   8.092  0.2488  0.0914  0.1518
21058SOL    HW169266   6.140   4.584   8.002 -0.9679  0.5997  0.6063
21058SOL    HW269267   6.142   4.654   8.136  0.2546 -0.4385  1.1430
21059SOL     OW69268   2.742   0.809   7.462 -0.1028 -0.7415 -0.1601
21059SOL    HW169269   2.716   0.868   7.391  1.0176  3.0255  2.3097
21059SOL    HW269270   2.665   0.802   7.518  0.5519  0.8033  1.0074
21060SOL     OW69271   2.834   1.032   7.686 -0.1230 -0.0102 -0.7728
21060SOL    HW169272   2.798   1.080   7.612 -1.5488  1.2944  0.6795
21060SOL    HW269273   2.769   1.043   7.756 -0.4634 -3.9173 -0.2429
21061SOL     OW69274   9.198   9.282  10.051  0.6275  0.0590 -0.0146
21061SOL    HW169275   9.111   9.318  10.034 -0.1516 -0.7879  1.8305
21061SOL    HW269276   9.249   9.357  10.083  0.9180  0.7728 -2.0209
21062SOL     OW69277   7.118   1.792  10.732 -0.2173  0.4931  0.1530
21062SOL    HW169278   7.078   1.858  10.788  0.0693  1.0454 -0.2850
21062SOL    HW269279   7.045   1.736  10.706 -0.4970  0.7575  0.3566
21063SOL     OW69280   0.941   8.525   4.724  0.2117 -0.2667 -0.6193
21063SOL    HW169281   1.021   8.530   4.777  0.7319  0.9898 -1.4929
21063SOL    HW269282   0.879   8.476   4.780  0.3103  2.0533  1.7292
21064SOL     OW69283   5.747   5.337   6.894  0.4360 -0.5014  0.0719
21064SOL    HW169284   5.797   5.330   6.975  1.4382  2.0210 -0.2435
21064SOL    HW269285   5.703   5.421   6.899 -1.5954 -1.4216 -0.9238
21065SOL     OW69286   7.159   2.206   9.590 -0.6094 -0.0965  0.9369
21065SOL    HW169287   7.073   2.163   9.595 -1.2299  1.1255  1.2034
21065SOL    HW269288   7.222   2.134   9.592 -1.6341 -1.0612  0.1845
21066SOL     OW69289   1.690   4.908   2.769 -0.4770  0.1821  0.1500
21066SOL    HW169290   1.655   4.963   2.840 -1.8319 -0.2131 -0.1770
21066SOL    HW269291   1.749   4.966   2.721  2.4116 -0.1944  2.9618
21067SOL     OW69292   3.786   8.056   4.969 -0.1346 -0.4255 -0.0247
21067SOL    HW169293   3.835   8.107   4.904 -0.0366 -0.1519  0.2617
21067SOL    HW269294   3.851   7.997   5.007 -0.1196 -0.3563  0.0574
21068SOL     OW69295   3.513   3.014   4.939  0.3151  0.0199 -0.0755
21068SOL    HW169296   3.526   3.070   5.015  0.8319 -0.5744  0.2879
21068SOL    HW269297   3.418   3.011   4.927  0.3057  2.5211 -1.2979
21069SOL     OW69298   8.684   0.290   2.297  0.2828 -0.5802 -0.8770
21069SOL    HW169299   8.704   0.224   2.364 -0.5312  0.7679  0.7536
21069SOL    HW269300   8.754   0.355   2.305 -0.2162 -0.0443 -0.8267
21070SOL     OW69301   2.526   1.153   8.466  0.3366  0.0013  0.5003
21070SOL    HW169302   2.432   1.141   8.456  0.1514  1.7647 -0.2768
21070SOL    HW269303   2.556   1.179   8.379  1.6320 -1.0330  0.6158
21071SOL     OW69304   1.259   2.144   7.793 -0.0304 -0.4883 -0.1236
21071SOL    HW169305   1.176   2.192   7.793  0.9311  1.2844 -0.3479
21071SOL    HW269306   1.317   2.198   7.846  1.6612 -0.3786 -1.9737
21072SOL     OW69307  10.302   9.850   0.587 -0.7375  0.2058 -0.2477
21072SOL    HW169308  10.357   9.878   0.661 -1.5229 -0.3125  0.5425
21072SOL    HW269309  10.213   9.850   0.621 -1.0521 -0.6124 -1.0165
21073SOL     OW69310   8.263   5.415   6.458  0.0306  0.5825  0.3686
21073SOL    HW169311   8.285   5.455   6.374  1.2212  0.1015  0.4352
21073SOL    HW269312   8.347   5.392   6.497 -0.5663 -0.7695  0.9344
21074SOL     OW69313   2.196   3.195   2.946 -0.1956  0.1415  0.1604
21074SOL    HW169314   2.141   3.212   2.870 -0.6081 -0.8091  0.2316
21074SOL    HW269315   2.186   3.101   2.963  3.2284 -0.6080 -1.1900
21075SOL     OW69316   4.208   4.755   2.968  0.5626 -0.6702 -0.5166
21075SOL    HW169317   4.121   4.794   2.972  0.9387  0.1877 -0.4571
21075SOL    HW269318   4.213   4.698   3.045 -0.4882 -1.9320 -1.3332
21076SOL     OW69319   2.828   5.868   1.170  0.2111 -0.5471  0.1994
21076SOL    HW169320   2.801   5.800   1.232 -3.7845  2.3104  2.1139
21076SOL    HW269321   2.878   5.930   1.223 -0.2687  0.2367 -0.2329
21077SOL     OW69322   3.663   5.700   3.623 -0.0887  0.1014  0.3493
21077SOL    HW169323   3.600   5.767   3.596 -1.0062 -0.9231 -0.1762
21077SOL    HW269324   3.726   5.696   3.551 -0.0305  0.3953  0.3830
21078SOL     OW69325   1.529   3.528   9.197 -0.0352 -0.1650 -0.6308
21078SOL    HW169326   1.492   3.613   9.173 -0.7223  0.8863  3.4272
21078SOL    HW269327   1.460   3.465   9.176 -0.6543  0.6507 -1.0887
21079SOL     OW69328   7.634   2.082   5.870 -0.3887  0.5799  0.1934
21079SOL    HW169329   7.618   2.006   5.815 -0.2869  0.8586 -0.2214
21079SOL    HW269330   7.548   2.122   5.882 -0.2216  1.2965 -0.9009
21080SOL     OW69331   0.567   9.904   9.651  0.5093  0.4143  0.2607
21080SOL    HW169332   0.623   9.851   9.594  0.4721 -0.4298  1.0012
21080SOL    HW269333   0.478   9.871   9.635  0.7943 -2.5214  3.4895
21081SOL     OW69334  10.151   3.629   4.058  0.1151 -0.0654  0.8941
21081SOL    HW169335  10.113   3.707   4.018  1.6692  0.2175 -0.1149
21081SOL    HW269336  10.208   3.663   4.127  0.7409 -0.3008  0.4993
21082SOL     OW69337   9.572   2.629   0.662 -0.7228  0.0820  0.0474
21082SOL    HW169338   9.517   2.652   0.736  0.2036 -1.0566  1.1382
21082SOL    HW269339   9.612   2.712   0.635  1.4624  0.1145  2.9700
21083SOL     OW69340  10.323   8.504   2.548  0.4472 -0.2449  0.0597
21083SOL    HW169341  10.380   8.519   2.472 -2.0775 -1.3175 -2.2257
21083SOL    HW269342  10.304   8.410   2.545 -1.8347  0.1487  0.3423
21084SOL     OW69343   9.240   8.979   0.632  0.1050  0.1991 -0.5937
21084SOL    HW169344   9.191   9.056   0.605 -1.4149 -0.6409 -0.3977
21084SOL    HW269345   9.211   8.962   0.722  0.1634 -0.7720 -0.7424
21085SOL     OW69346   5.789   6.108   6.249 -0.4370 -0.1613  0.1364
21085SOL    HW169347   5.800   6.079   6.339  1.1843  0.2313  0.0983
21085SOL    HW269348   5.790   6.027   6.198  1.1448 -0.2649  0.2817
21086SOL     OW69349   7.714   1.199   4.534  0.4453  0.6259  0.4165
21086SOL    HW169350   7.758   1.278   4.565 -1.2444  1.3593  1.1013
21086SOL    HW269351   7.652   1.231   4.468 -0.6039 -0.0303  1.0490
21087SOL     OW69352   7.595   0.494   7.787 -0.3668  0.0469 -0.1430
21087SOL    HW169353   7.518   0.540   7.819 -0.9181  0.3963 -1.8670
21087SOL    HW269354   7.611   0.426   7.852 -0.6783  1.4479  1.4702
21088SOL     OW69355   2.109   5.612   9.126  0.0038  0.4659  0.0526
21088SOL    HW169356   2.189   5.572   9.092 -0.5766 -0.8853  0.2223
21088SOL    HW269357   2.057   5.538   9.158 -1.4298  1.2934 -0.3008
21089SOL     OW69358   6.113   9.299   9.181 -0.0779 -0.7293  0.8114
21089SOL    HW169359   6.033   9.308   9.130  0.5568  0.9773  0.0756
21089SOL    HW269360   6.098   9.353   9.259  0.3287 -0.4478  0.6967
21090SOL     OW69361   1.777  10.330   4.435  0.6931 -0.1144 -0.4144
21090SOL    HW169362   1.738  10.338   4.348 -0.1248  1.2428  0.0411
21090SOL    HW269363   1.803  10.419   4.458  0.3443 -0.3426  0.9737
21091SOL     OW69364   2.748   4.662   3.326  0.6133 -0.5829  0.0576
21091SOL    HW169365   2.799   4.599   3.275  0.5884  0.4471 -1.3048
21091SOL    HW269366   2.692   4.705   3.262 -0.4515 -0.2112  1.1975
21092SOL     OW69367   4.563   3.074   7.876 -0.2979  0.5338 -0.4725
21092SOL    HW169368   4.501   3.050   7.807 -1.2827  1.0578  0.2107
21092SOL    HW269369   4.521   3.147   7.922  0.9499  1.0818 -0.1633
21093SOL     OW69370   5.334   0.494   0.371 -0.1488 -0.2234 -0.0941
21093SOL    HW169371   5.390   0.429   0.414 -0.3756 -0.1559  0.3069
21093SOL    HW269372   5.245   0.466   0.391 -0.2598  1.4077  1.9492
21094SOL     OW69373   9.475   0.037   4.153  0.3631 -0.1733  0.1470
21094SOL    HW169374   9.441   0.124   4.173 -1.4593 -1.0455  1.1597
21094SOL    HW269375   9.432  -0.020   4.217  1.6131 -1.8031 -0.3966
21095SOL     OW69376   9.563   8.836   0.633  0.5813  0.1388 -0.1887
21095SOL    HW169377   9.505   8.787   0.692  0.4982  2.1207  1.4885
21095SOL    HW269378   9.535   8.809   0.546 -0.3871 -1.7110  0.6154
21096SOL     OW69379   7.387   1.487   2.044 -0.1227  0.0029  0.2037
21096SOL    HW169380   7.447   1.532   1.984  0.0824 -0.4525  0.0663
21096SOL    HW269381   7.355   1.412   1.994 -1.8327  0.9487 -0.2209
21097SOL     OW69382   1.992   1.191   0.876  0.1512 -0.3660  0.6322
21097SOL    HW169383   1.922   1.155   0.930  0.0698  0.8270  1.3653
21097SOL    HW269384   1.956   1.273   0.842  1.2921  0.4675  1.3399
21098SOL     OW69385   0.481   8.549   0.987  0.1913  0.6807  0.4146
21098SOL    HW169386   0.418   8.620   0.974 -0.3122  0.2711  0.5850
21098SOL    HW269387   0.554   8.590   1.033 -0.4431  0.9165  1.2457
21099SOL     OW69388   9.801   4.777   7.656 -0.1832 -0.1934 -0.1741
21099SOL    HW169389   9.854   4.808   7.583 -0.8699  0.5921 -0.3433
21099SOL    HW269390   9.855   4.793   7.733 -0.5617  1.5487 -0.2413
21100SOL     OW69391   5.365   6.602   1.458  0.0832 -0.5952  0.2710
21100SOL    HW169392   5.362   6.541   1.532  0.4618  0.1649  0.9390
21100SOL    HW269393   5.361   6.689   1.499  2.2245 -0.0953 -0.4350
21101SOL     OW69394   0.795   0.238   3.744 -0.7794  0.2821 -0.2360
21101SOL    HW169395   0.800   0.319   3.692 -1.9326 -0.2101 -1.1546
21101SOL    HW269396   0.859   0.180   3.703  0.4038  0.8610  0.7255
21102SOL     OW69397   3.149   2.413  10.790  0.4047 -0.8856  0.1908
21102SOL    HW169398   3.213   2.407  10.719 -0.8735 -1.3503 -0.9881
21102SOL    HW269399   3.198   2.446  10.865  2.3073 -2.4937 -0.2715
21103SOL     OW69400   9.262   6.894   7.684 -0.7584 -0.1927 -0.4674
21103SOL    HW169401   9.239   6.931   7.769 -2.6540  1.6732 -1.6574
21103SOL    HW269402   9.250   6.967   7.622  2.3563 -0.9407 -2.1553
21104SOL     OW69403   6.039  10.262   8.081 -0.3067 -0.2648  0.0477
21104SOL    HW169404   6.068  10.221   8.163 -0.0858 -1.5206 -0.6357
21104SOL    HW269405   6.011  10.188   8.026  1.0311  0.4010 -1.6036
21105SOL     OW69406   4.432   5.797   5.490 -0.7931  0.4510 -0.2319
21105SOL    HW169407   4.369   5.851   5.537 -1.5994  0.1123 -0.8969
21105SOL    HW269408   4.517   5.838   5.507 -1.2373  1.1390  0.3559
21106SOL     OW69409   3.481   4.150   9.013 -0.4064 -0.2094  0.1403
21106SOL    HW169410   3.389   4.159   9.035 -0.5445  0.7568 -0.7531
21106SOL    HW269411   3.509   4.070   9.058 -1.6493 -0.4773  0.4702
21107SOL     OW69412   5.611  10.544   8.099  0.5725  0.0051 -0.3038
21107SOL    HW169413   5.624  10.628   8.056 -0.9511  0.8364  0.7488
21107SOL    HW269414   5.523  10.517   8.072  1.0034 -1.2004 -0.5370
21108SOL     OW69415   6.771   6.935   9.616 -0.5595  0.5786 -0.2678
21108SOL    HW169416   6.715   7.004   9.581 -1.6132  1.1388  2.3459
21108SOL    HW269417   6.836   6.980   9.669  0.5210 -0.2814 -0.8133
21109SOL     OW69418   7.242   3.949   0.001  0.1058 -0.3112  0.2927
21109SOL    HW169419   7.175   3.954   0.069 -0.4544  0.4144 -0.2864
21109SOL    HW269420   7.247   4.038  -0.033  1.5276 -0.3022  0.4639
21110SOL     OW69421   8.002   6.990  10.591  0.1281 -0.7986  0.3028
21110SOL    HW169422   8.002   6.924  10.521  1.9763  1.0756 -1.5795
21110SOL    HW269423   8.086   6.979  10.634 -1.2881 -2.4578  2.9186
21111SOL     OW69424   8.995   3.065   0.659  0.0928 -0.3710  0.8551
21111SOL    HW169425   8.918   3.018   0.690  0.4540 -0.9840  0.8273
21111SOL    HW269426   8.972   3.093   0.570 -0.2993 -0.0748  1.0449
21112SOL     OW69427   2.097  10.670   2.237 -0.0378  0.0892  0.0602
21112SOL    HW169428   2.079  10.653   2.144 -0.3298 -3.6866  0.6335
21112SOL    HW269429   2.192  10.678   2.242 -0.1230  2.2223 -0.7210
21113SOL     OW69430   1.912   5.345   9.994 -0.0555  1.3459  0.3863
21113SOL    HW169431   1.865   5.358  10.077 -0.2670  2.3376  0.1162
21113SOL    HW269432   1.975   5.417   9.990  0.9736  0.4745  0.3658
21114SOL     OW69433   0.173   0.813   3.848  0.0208  0.0099 -0.1062
21114SOL    HW169434   0.262   0.790   3.873 -0.3828 -0.9265  0.5535
21114SOL    HW269435   0.165   0.905   3.870  0.4894 -0.1739  0.8844
21115SOL     OW69436   6.487   2.587  10.848  0.3220 -0.9115 -0.5403
21115SOL    HW169437   6.476   2.544  10.764 -0.0503 -2.4330  0.2630
21115SOL    HW269438   6.484   2.517  10.913 -2.4140  0.4561  1.0118
21116SOL     OW69439   6.964   1.621   6.614 -0.2948  0.0886 -0.2164
21116SOL    HW169440   6.946   1.648   6.704  1.2482 -0.6775  0.3479
21116SOL    HW269441   7.020   1.689   6.579 -2.1821  1.2356 -1.1934
21117SOL     OW69442   2.651   1.096   6.716  0.2995 -0.1109 -0.4893
21117SOL    HW169443   2.688   1.179   6.686 -0.2944 -0.3069 -1.8629
21117SOL    HW269444   2.643   1.044   6.636 -3.9520  0.3121 -0.5437
21118SOL     OW69445   9.534   9.100   2.997 -0.1128 -0.5222 -0.2423
21118SOL    HW169446   9.540   9.189   2.961 -3.1732 -0.4119 -0.7492
21118SOL    HW269447   9.598   9.098   3.067  0.4152  1.9171 -0.5754
21119SOL     OW69448   5.467   5.572   0.586 -0.4040 -0.1661  0.4649
21119SOL    HW169449   5.425   5.544   0.505 -0.2843  0.6956  0.0940
21119SOL    HW269450   5.407   5.543   0.655 -1.4557  0.7343 -0.0314
21120SOL     OW69451   2.372   6.167   7.781 -0.5543 -0.4281  0.4332
21120SOL    HW169452   2.334   6.244   7.739 -1.7314 -0.2752  1.7063
21120SOL    HW269453   2.391   6.196   7.870  1.7204 -0.7911  0.1217
21121SOL     OW69454   3.626   1.376   9.833  0.4199  0.2169  0.1194
21121SOL    HW169455   3.546   1.337   9.799  0.4425  1.2071 -1.1343
21121SOL    HW269456   3.677   1.302   9.866 -0.3980 -0.5702 -0.3451
21122SOL     OW69457   9.033   1.098   3.111  0.4252 -0.2001  0.0633
21122SOL    HW169458   9.083   1.032   3.063  0.2457 -0.3407  0.0699
21122SOL    HW269459   9.054   1.181   3.068  0.6622 -0.2588  0.0643
21123SOL     OW69460  10.687   9.546  10.302  0.2261 -0.0926 -0.3085
21123SOL    HW169461  10.664   9.633  10.334  1.6294 -0.2511  1.2763
21123SOL    HW269462  10.709   9.496  10.381  0.3749 -1.6006 -1.2568
21124SOL     OW69463   5.647   2.762   5.964 -0.4538  0.0852 -0.3154
21124SOL    HW169464   5.668   2.681   5.918 -1.3750 -1.8544  2.4623
21124SOL    HW269465   5.579   2.738   6.026  0.8415  2.4247  2.2322
21125SOL     OW69466   0.518   8.526  10.829 -0.3892  0.3953  0.1184
21125SOL    HW169467   0.428   8.512  10.801 -0.8830  0.3851  1.6057
21125SOL    HW269468   0.571   8.475  10.768 -1.4536 -0.3484 -0.2046
21126SOL     OW69469   5.929   0.155   5.834 -0.2419  0.0735  0.1331
21126SOL    HW169470   5.871   0.103   5.779  0.6007 -0.7312 -0.0214
21126SOL    HW269471   5.955   0.095   5.905  0.5058  0.3655  0.1163
21127SOL     OW69472   7.340   9.519   5.038 -0.1083 -0.0648  0.0693
21127SOL    HW169473   7.385   9.550   4.960 -1.1052 -1.8348 -1.2970
21127SOL    HW269474   7.397   9.450   5.073 -0.7008 -0.8426 -0.4486
21128SOL     OW69475   3.451   5.661   0.593  0.5858 -0.4362  0.1218
21128SOL    HW169476   3.440   5.740   0.540  1.1780  0.1019  0.7789
21128SOL    HW269477   3.393   5.675   0.669  1.7074  0.0144  0.9306
21129SOL     OW69478   5.817   6.475  10.509 -0.3615  0.3265 -0.1330
21129SOL    HW169479   5.799   6.456  10.417  1.0620  0.4441 -0.4723
21129SOL    HW269480   5.813   6.571  10.515 -0.3560  0.3248 -0.1018
21130SOL     OW69481  10.601   8.016   6.273  0.3039  0.2967 -0.9794
21130SOL    HW169482  10.670   7.999   6.337 -0.3923 -1.1588 -0.5805
21130SOL    HW269483  10.583   8.109   6.282  1.9436  0.6326 -0.8261
21131SOL     OW69484   1.304   1.179   6.911 -0.1845  0.1170 -0.1204
21131SOL    HW169485   1.208   1.173   6.908 -0.2695 -2.1347  2.5917
21131SOL    HW269486   1.322   1.260   6.958 -0.9198 -0.6787  1.6183
21132SOL     OW69487   0.780   2.696   6.277  0.2984  0.3469  0.1815
21132SOL    HW169488   0.753   2.772   6.225  0.9321  1.3690  1.3064
21132SOL    HW269489   0.863   2.669   6.239  0.8958  1.2630  0.8019
21133SOL     OW69490   2.013   1.125   9.328  0.0216 -0.1336 -0.3422
21133SOL    HW169491   1.974   1.199   9.374  0.3308 -0.9474  1.2711
21133SOL    HW269492   2.020   1.155   9.237 -0.4049  1.5873  0.1592
21134SOL     OW69493   2.981   0.382   6.041 -0.4659 -0.1943 -0.0664
21134SOL    HW169494   3.051   0.339   5.991 -0.1912  0.5826 -0.3657
21134SOL    HW269495   2.900   0.345   6.005 -0.2952  0.6741 -1.4437
21135SOL     OW69496   4.938   1.137   1.927  0.3907 -0.0476  0.1472
21135SOL    HW169497   4.895   1.067   1.977  0.6489 -1.1920 -1.1699
21135SOL    HW269498   4.883   1.148   1.849  0.7062  0.7847  0.0293
21136SOL     OW69499   5.862   1.995   6.639 -0.1732 -0.0112 -0.1607
21136SOL    HW169500   5.952   1.964   6.639  0.2479  1.1709 -0.8982
21136SOL    HW269501   5.846   2.023   6.729  0.3200  0.1423 -0.1203
21137SOL     OW69502   1.637   8.320   4.360 -0.7653 -0.4279 -0.1235
21137SOL    HW169503   1.619   8.389   4.424 -0.8921  0.8919 -1.4993
21137SOL    HW269504   1.732   8.316   4.355 -0.7528  0.3934 -0.7667
21138SOL     OW69505   6.803   9.369   4.543 -0.3488 -0.0016  0.2807
21138SOL    HW169506   6.741   9.302   4.516  0.6020 -0.8202  0.0413
21138SOL    HW269507   6.797   9.436   4.475  0.0925 -0.7891 -0.5670
21139SOL     OW69508   8.968   5.601  10.426  0.3076  0.9463 -0.6442
21139SOL    HW169509   9.031   5.634  10.490  1.5368  0.7503 -1.7293
21139SOL    HW269510   8.918   5.678  10.401 -0.5784  0.9304  0.9390
21140SOL     OW69511   5.238   7.256   5.731  0.0259  0.0232 -0.0243
21140SOL    HW169512   5.173   7.186   5.730  0.4934 -0.4135 -0.0595
21140SOL    HW269513   5.258   7.269   5.823  1.2506 -1.1267 -0.1025
21141SOL     OW69514   1.268   9.309   5.376 -0.2138  0.4644 -0.3566
21141SOL    HW169515   1.186   9.284   5.419 -1.1495  1.3127 -1.5662
21141SOL    HW269516   1.327   9.332   5.447 -0.1003 -2.6897  0.7149
21142SOL     OW69517   7.085   0.334   5.966 -0.4560 -0.1989  0.1479
21142SOL    HW169518   7.123   0.253   5.999 -1.2916 -1.2522 -1.3850
21142SOL    HW269519   7.095   0.396   6.039  0.7242 -1.4824  1.1388
21143SOL     OW69520   4.272  10.748   1.150 -0.2831  0.3181  0.1583
21143SOL    HW169521   4.365  10.745   1.171 -0.4293  0.0199  0.7834
21143SOL    HW269522   4.269  10.780   1.059  0.3991  0.7856  0.2899
21144SOL     OW69523   6.074   0.661   4.944  0.0894 -0.4798 -0.5672
21144SOL    HW169524   6.064   0.739   4.890  1.8191 -0.7116 -1.2866
21144SOL    HW269525   6.032   0.591   4.892  0.8211 -0.5036 -1.1404
21145SOL     OW69526   5.945   5.900   4.460  0.4137  0.4366 -0.7932
21145SOL    HW169527   5.940   5.989   4.425 -1.3392  0.3100 -0.9576
21145SOL    HW269528   5.998   5.908   4.539  0.8811  1.4844 -1.1896
21146SOL     OW69529   7.493   4.632   5.709  0.2221  0.4748  0.5895
21146SOL    HW169530   7.400   4.610   5.710 -0.2969  2.3619 -0.7686
21146SOL    HW269531   7.528   4.591   5.788 -1.6359 -0.7446  0.8377
21147SOL     OW69532   4.360   1.744   8.379  0.7703  0.3190 -0.1799
21147SOL    HW169533   4.330   1.659   8.346  1.2138 -0.2168  0.7439
21147SOL    HW269534   4.454   1.743   8.365  0.8087  0.5513  0.0615
21148SOL     OW69535   1.712   6.640   7.170 -0.4341 -0.0928  0.5333
21148SOL    HW169536   1.721   6.705   7.239 -1.8035  0.0739  0.5890
21148SOL    HW269537   1.681   6.561   7.215  0.0050 -0.4091  0.2917
21149SOL     OW69538  10.379   1.779   7.729  0.3778  0.0422 -0.5987
21149SOL    HW169539  10.366   1.872   7.707  0.2722 -0.1169 -1.2275
21149SOL    HW269540  10.465   1.776   7.770 -0.5910  0.7850  1.6614
21150SOL     OW69541   5.799  10.868   1.535  0.4104  0.8330 -0.1114
21150SOL    HW169542   5.837  10.828   1.457  0.8943  1.2271 -0.0846
21150SOL    HW269543   5.844  10.952   1.543 -1.4743  1.9881 -0.9125
21151SOL     OW69544   2.436   4.574   8.493  0.1225  0.4875 -0.2808
21151SOL    HW169545   2.449   4.480   8.481  1.3309  0.4602  0.9185
21151SOL    HW269546   2.488   4.595   8.571  0.0586  2.1899 -0.6575
21152SOL     OW69547   2.986   5.841   6.643 -0.5172  0.1793  0.1175
21152SOL    HW169548   2.908   5.823   6.591  0.3277 -1.4604 -0.7033
21152SOL    HW269549   2.982   5.777   6.714  0.4081 -0.4440 -0.3630
21153SOL     OW69550   3.667   8.235   1.797  0.4221 -0.0993 -0.2769
21153SOL    HW169551   3.758   8.225   1.767  0.5763 -2.0547  0.7269
21153SOL    HW269552   3.623   8.156   1.766 -1.5089  1.6628 -2.4530
21154SOL     OW69553   8.058   0.046   4.290 -0.2504 -0.0653 -0.0710
21154SOL    HW169554   8.087   0.119   4.345 -0.3162 -1.3458  1.7829
21154SOL    HW269555   8.138   0.014   4.248  0.3539 -0.8400  1.5711
21155SOL     OW69556   0.677   8.411   1.869 -0.0987 -0.4034  0.5126
21155SOL    HW169557   0.772   8.423   1.875 -0.2791  1.1248  0.8200
21155SOL    HW269558   0.657   8.423   1.776 -0.2033  1.4070  0.7313
21156SOL     OW69559   0.710   2.150   4.106 -0.3132 -0.6602  0.1073
21156SOL    HW169560   0.638   2.182   4.051 -1.0580 -2.9278 -0.3427
21156SOL    HW269561   0.788   2.164   4.053 -0.6393  0.0454 -0.2070
21157SOL     OW69562   0.428   4.552   7.798  0.6841  0.0269 -0.4906
21157SOL    HW169563   0.424   4.479   7.737  1.2333 -1.4453  1.1611
21157SOL    HW269564   0.336   4.569   7.821  0.6364 -1.4113  0.5115
21158SOL     OW69565   8.284   8.493   5.067  0.2112  0.0900  0.5400
21158SOL    HW169566   8.215   8.536   5.017 -1.3217 -1.4327  1.2812
21158SOL    HW269567   8.359   8.492   5.008 -1.5167 -1.6089 -1.7743
21159SOL     OW69568   8.358   4.423   8.166  0.5577 -0.5942  0.1514
21159SOL    HW169569   8.339   4.414   8.259 -0.3752 -1.5188 -0.1057
21159SOL    HW269570   8.447   4.391   8.156  0.3674 -1.2941  0.6084
21160SOL     OW69571   4.012   3.442   5.104 -0.4488 -0.1677  0.0979
21160SOL    HW169572   4.093   3.404   5.138 -0.6619 -1.0976 -0.3933
21160SOL    HW269573   4.010   3.531   5.140  0.1447 -0.5629  1.1598
21161SOL     OW69574   8.628   2.111   9.090  0.6669  0.0696 -0.2146
21161SOL    HW169575   8.574   2.039   9.057  1.1832  0.3501 -1.7585
21161SOL    HW269576   8.680   2.139   9.014  2.1082  0.5940  0.9226
21162SOL     OW69577   6.771   5.951   3.407 -0.1581 -0.6279 -0.2906
21162SOL    HW169578   6.785   6.036   3.448 -0.1933 -0.0402 -1.4491
21162SOL    HW269579   6.694   5.915   3.451 -0.4095  0.1338 -0.0999
21163SOL     OW69580  10.702   7.878   3.890  0.4393  0.0314 -0.3464
21163SOL    HW169581  10.638   7.909   3.955 -1.4614 -0.3906 -1.9104
21163SOL    HW269582  10.748   7.807   3.935 -0.5745 -0.0227  0.6691
21164SOL     OW69583   9.420   6.234   5.552  0.0566  0.5834 -0.2859
21164SOL    HW169584   9.436   6.292   5.477  0.3647  0.2048 -0.5175
21164SOL    HW269585   9.354   6.280   5.604 -0.7784  0.4717 -1.2162
21165SOL     OW69586   3.746   9.532   2.974 -0.4590 -0.1114 -0.1070
21165SOL    HW169587   3.725   9.447   2.934  1.4701 -0.8093  0.2572
21165SOL    HW269588   3.734   9.517   3.068  1.8115 -0.6619  0.1585
21166SOL     OW69589   0.683   6.622   9.095  0.6281  0.0498 -0.1471
21166SOL    HW169590   0.645   6.677   9.164  1.9429  1.0719 -0.2160
21166SOL    HW269591   0.620   6.626   9.023  0.3575  0.8514  0.1308
21167SOL     OW69592   3.387   8.884   4.259  0.4676 -0.2737 -0.4741
21167SOL    HW169593   3.462   8.879   4.199  0.5562 -1.9797 -0.2565
21167SOL    HW269594   3.425   8.877   4.346  0.0934 -0.7622 -0.3449
21168SOL     OW69595   5.218   7.596   2.966  0.3788  0.0206 -0.0134
21168SOL    HW169596   5.184   7.669   3.017  0.4613 -1.4802  2.3623
21168SOL    HW269597   5.176   7.519   3.004  2.1716 -1.3973 -0.7472
21169SOL     OW69598   8.323  10.286   8.379 -0.2850 -0.3224 -0.4952
21169SOL    HW169599   8.333  10.242   8.464  2.3273  0.1709 -0.4795
21169SOL    HW269600   8.354  10.375   8.395  1.3707 -0.5396 -2.2088
21170SOL     OW69601   5.207   6.505   3.406 -0.2266  0.3946  0.5188
21170SOL    HW169602   5.135   6.566   3.391  0.6397  1.0291 -1.3577
21170SOL    HW269603   5.264   6.515   3.329  0.5973 -1.8626  0.7578
21171SOL     OW69604   1.306   7.432   4.699  0.4134 -0.2908 -0.2254
21171SOL    HW169605   1.365   7.469   4.632  2.0386 -0.5265  1.0043
21171SOL    HW269606   1.289   7.505   4.758 -0.2394 -0.3232 -0.3737
21172SOL     OW69607   1.336   9.057  10.187  0.3710  0.3027 -0.6268
21172SOL    HW169608   1.345   9.022  10.275  2.2831  0.6223 -0.6493
21172SOL    HW269609   1.408   9.119  10.178  0.0796  0.4663 -2.3406
21173SOL     OW69610   1.943   3.551   4.967  0.5739 -0.1708 -0.3906
21173SOL    HW169611   1.946   3.632   5.018  2.7141 -1.4545  1.7650
21173SOL    HW269612   2.032   3.539   4.935  0.1266 -1.3119 -1.2854
21174SOL     OW69613   3.838   0.705   7.404 -0.1555 -0.3069 -0.2666
21174SOL    HW169614   3.895   0.774   7.437  0.4081 -1.7740  2.0826
21174SOL    HW269615   3.789   0.675   7.481 -1.2120 -1.7459 -1.4324
21175SOL     OW69616   3.877   5.394   4.874 -0.0370 -0.0160 -0.6327
21175SOL    HW169617   3.964   5.393   4.913 -1.2636 -2.0320  2.4275
21175SOL    HW269618   3.864   5.305   4.840 -0.2349  0.8140 -2.9439
21176SOL     OW69619   3.574   5.899   8.551  0.0207 -0.5352 -0.3662
21176SOL    HW169620   3.486   5.925   8.522  0.2048  1.1439  0.4841
21176SOL    HW269621   3.573   5.803   8.546 -2.5997 -0.7253  1.6569
21177SOL     OW69622   9.412   8.295   7.343  0.3013 -0.0178  0.5878
21177SOL    HW169623   9.367   8.379   7.341  2.6084  1.3133  0.5059
21177SOL    HW269624   9.393   8.255   7.259 -1.2601  0.1696  0.8355
21178SOL     OW69625   7.471   0.067   5.034 -0.2290  0.2342  0.1816
21178SOL    HW169626   7.427   0.051   4.951  0.9846 -1.9441 -0.1251
21178SOL    HW269627   7.403   0.100   5.092 -1.5961 -0.3140 -1.0604
21179SOL     OW69628   4.722   1.530   6.866 -0.3681 -0.8244 -0.0979
21179SOL    HW169629   4.696   1.448   6.908 -0.0602 -1.4199 -1.0388
21179SOL    HW269630   4.645   1.557   6.817 -1.0172  0.3210  1.4809
21180SOL     OW69631   5.773   4.912   6.620  0.5995 -0.3111 -0.4486
21180SOL    HW169632   5.705   4.956   6.672  1.9504 -0.6435  1.7338
21180SOL    HW269633   5.842   4.977   6.610  1.0415 -0.7707 -0.4158
21181SOL     OW69634   6.844   7.458   4.482 -0.1204 -0.2770 -0.1467
21181SOL    HW169635   6.874   7.537   4.526 -1.2280  0.1452 -0.1091
21181SOL    HW269636   6.770   7.428   4.535  0.1928 -1.2631 -0.2451
21182SOL     OW69637   8.315   1.271   2.885  0.0315  0.3140  0.2823
21182SOL    HW169638   8.326   1.362   2.857  2.4439  0.6699  2.0795
21182SOL    HW269639   8.234   1.272   2.937 -0.3544  1.2376 -0.3070
21183SOL     OW69640   3.148   5.175   0.711 -0.3170  0.7223 -0.4017
21183SOL    HW169641   3.128   5.268   0.709 -0.2771  0.7548  0.3503
21183SOL    HW269642   3.071   5.135   0.752  0.5175  0.6817  1.1954
21184SOL     OW69643   3.886   8.421   7.336 -0.3486 -0.1708 -0.5620
21184SOL    HW169644   3.866   8.358   7.268 -2.5257 -2.6384  2.1044
21184SOL    HW269645   3.945   8.374   7.396 -0.2661  1.1125  0.4133
21185SOL     OW69646   9.916  10.315   8.478  0.0930 -0.0326 -0.0753
21185SOL    HW169647   9.991  10.362   8.516 -1.0325  0.5438  1.5044
21185SOL    HW269648   9.871  10.276   8.552 -0.1240 -2.0255 -1.1817
21186SOL     OW69649   8.327   2.295   9.621 -0.2282 -0.5442  0.2036
21186SOL    HW169650   8.346   2.229   9.555  1.5508 -0.2686  0.3750
21186SOL    HW269651   8.343   2.250   9.705 -1.7580 -0.6832  0.4518
21187SOL     OW69652   1.743   2.855   8.014 -0.0099 -0.1494  0.1923
21187SOL    HW169653   1.731   2.828   8.105  0.3058 -1.8505 -0.2355
21187SOL    HW269654   1.830   2.895   8.012  0.7094 -1.6382  0.3458
21188SOL     OW69655   5.791   4.351   3.077  0.3498 -0.6033  0.0079
21188SOL    HW169656   5.748   4.278   3.122 -0.0134 -0.2638  0.2198
21188SOL    HW269657   5.770   4.338   2.985 -0.9225  0.0162  0.1930
21189SOL     OW69658   6.178   9.800   1.586 -0.8017  0.3106  0.2883
21189SOL    HW169659   6.269   9.806   1.615 -0.6164 -0.8903  0.0273
21189SOL    HW269660   6.144   9.720   1.628 -1.1897 -0.2348 -0.9981
21190SOL     OW69661   7.338   0.930   2.668 -0.1003 -0.1967 -0.6184
21190SOL    HW169662   7.370   1.002   2.612 -0.1684  0.0088 -0.3936
21190SOL    HW269663   7.263   0.967   2.714 -0.1468 -0.4193 -0.5161
21191SOL     OW69664   1.673   1.149   3.312 -0.0405 -0.1895  0.0857
21191SOL    HW169665   1.726   1.130   3.389 -0.4055 -0.8386  0.1822
21191SOL    HW269666   1.733   1.194   3.251  0.3480 -0.0259  0.5833
21192SOL     OW69667   1.268   2.710  10.013 -0.2588  0.1205  0.1661
21192SOL    HW169668   1.209   2.661  10.071  1.0423 -0.6939  0.8338
21192SOL    HW269669   1.221   2.791   9.995 -1.5649 -0.4822  0.7203
21193SOL     OW69670   7.185  10.577   8.575  0.0178  0.1851 -0.2827
21193SOL    HW169671   7.220  10.495   8.542  0.0101  0.6685 -1.5392
21193SOL    HW269672   7.261  10.635   8.581  0.2562 -0.2737  1.8616
21194SOL     OW69673   0.202   6.535  10.280  0.3772 -0.4267 -0.0478
21194SOL    HW169674   0.217   6.610  10.222  4.4530  0.0128  1.2300
21194SOL    HW269675   0.239   6.461  10.232  0.2002 -0.8049  0.4024
21195SOL     OW69676  10.396   7.102   7.803 -0.2830  0.2521 -0.6193
21195SOL    HW169677  10.314   7.055   7.816 -0.2024  0.5211  1.0488
21195SOL    HW269678  10.453   7.039   7.758 -0.6317 -0.7930  0.3463
21196SOL     OW69679   1.510   8.073   2.086  0.8546  0.1912  0.2197
21196SOL    HW169680   1.481   8.011   2.020  0.6866  1.4766 -0.9673
21196SOL    HW269681   1.536   8.019   2.161 -0.5760 -1.2105 -0.2456
21197SOL     OW69682   8.296   2.345   0.816 -0.0034 -0.3734  0.0291
21197SOL    HW169683   8.291   2.432   0.857 -1.1086 -1.3842  2.2453
21197SOL    HW269684   8.225   2.346   0.752 -0.7420  0.0406  0.8141
21198SOL     OW69685   1.057   0.186   8.884 -0.2832 -0.2923  0.5920
21198SOL    HW169686   1.105   0.218   8.808  1.5696 -3.4435  0.2506
21198SOL    HW269687   0.983   0.137   8.847 -0.2246 -0.5862  0.8577
21199SOL     OW69688   0.074   7.732   4.922  0.2732  0.2402 -0.4837
21199SOL    HW169689   0.167   7.734   4.897  0.8022 -0.2913  1.2838
21199SOL    HW269690   0.042   7.819   4.901  1.2405  0.5276 -0.8562
21200SOL     OW69691   5.521   7.382   2.162 -0.1334  0.1620 -0.2166
21200SOL    HW169692   5.578   7.458   2.174 -0.2978  0.1902  0.4012
21200SOL    HW269693   5.580   7.306   2.167  0.2424  0.2839 -2.1701
21201SOL     OW69694   6.706   0.254   1.830  0.0297 -0.0076  0.1981
21201SOL    HW169695   6.705   0.171   1.781 -0.3374 -0.3141  0.7110
21201SOL    HW269696   6.728   0.228   1.920 -0.5430  0.3870  0.4598
21202SOL     OW69697   6.707   2.274   8.705 -0.1724 -0.2615 -0.1908
21202SOL    HW169698   6.612   2.275   8.709 -0.1665  2.0555  1.2502
21202SOL    HW269699   6.734   2.219   8.779 -0.3882 -0.6421 -0.3964
21203SOL     OW69700   7.401  10.270   1.605 -0.0607  0.0477  0.4694
21203SOL    HW169701   7.397  10.318   1.688  0.2150 -1.2526  1.2590
21203SOL    HW269702   7.486  10.294   1.567 -0.1481  0.5751  0.6056
21204SOL     OW69703   1.798   6.689   6.117  0.0057 -0.7240  0.9052
21204SOL    HW169704   1.784   6.689   6.022 -1.7280  1.5475  1.0645
21204SOL    HW269705   1.806   6.597   6.140 -0.0676 -1.3696 -1.3765
21205SOL     OW69706   1.505   8.534   4.532  0.2147  0.0129  0.3871
21205SOL    HW169707   1.474   8.532   4.623 -2.3884 -1.2620 -0.4280
21205SOL    HW269708   1.572   8.603   4.531 -1.8041  2.2237  2.6432
21206SOL     OW69709   6.260   4.840   8.284  0.3757  0.4792 -0.3373
21206SOL    HW169710   6.339   4.893   8.276  0.6032  0.1019 -0.6825
21206SOL    HW269711   6.290   4.757   8.322 -0.1613  0.9997  1.3072
21207SOL     OW69712   2.012   1.930   4.193 -0.0890  0.2426  0.3376
21207SOL    HW169713   2.024   1.840   4.163 -1.6658  0.0968  0.0664
21207SOL    HW269714   2.096   1.973   4.174  0.5146 -1.0360  0.0294
21208SOL     OW69715   1.047   1.377   9.000 -0.0990 -0.1587 -0.0043
21208SOL    HW169716   1.118   1.414   9.053 -0.0660 -0.1212 -0.0747
21208SOL    HW269717   1.079   1.290   8.975  0.6256  0.5013 -1.4335
21209SOL     OW69718   0.141   6.675   1.877  0.2443 -0.7432 -0.4140
21209SOL    HW169719   0.077   6.711   1.814 -0.2680  0.0388  0.5225
21209SOL    HW269720   0.092   6.609   1.925  0.3057 -0.5438 -0.0762
21210SOL     OW69721   0.480   2.777   5.924  0.1021 -0.1306  0.0726
21210SOL    HW169722   0.461   2.836   5.997  0.0849  1.9781 -1.5234
21210SOL    HW269723   0.571   2.798   5.900  0.2695 -1.1378 -0.2180
21211SOL     OW69724   1.649   0.286   5.247  0.4084 -0.0323  0.2322
21211SOL    HW169725   1.732   0.296   5.200 -0.2354  1.3169 -0.6672
21211SOL    HW269726   1.600   0.221   5.196  1.1929 -1.4775  1.2329
21212SOL     OW69727   2.100   5.840   4.194 -0.2946 -0.1114  0.1633
21212SOL    HW169728   2.070   5.872   4.109 -2.7918  0.1910  1.0910
21212SOL    HW269729   2.132   5.919   4.239 -0.4997 -0.0008  0.1147
21213SOL     OW69730   4.575  10.743   9.913 -0.4204 -0.5377  0.8044
21213SOL    HW169731   4.627  10.720   9.990  0.1526 -3.0191 -0.2287
21213SOL    HW269732   4.640  10.771   9.848 -0.8395  0.9105  0.9907
21214SOL     OW69733   8.164   0.190   1.619  0.1355  0.3482 -0.0096
21214SOL    HW169734   8.082   0.186   1.570 -1.0875  1.4515  1.8483
21214SOL    HW269735   8.199   0.278   1.600  1.2351 -0.3027 -1.2247
21215SOL     OW69736  10.294   8.772   5.519 -0.1845  0.6502 -0.4050
21215SOL    HW169737  10.208   8.734   5.536 -0.4984  1.8039  0.6537
21215SOL    HW269738  10.350   8.696   5.502 -1.0826 -0.2078  0.3380
21216SOL     OW69739   2.897   2.984   9.919  0.3894  0.3706 -0.1172
21216SOL    HW169740   2.835   2.981   9.991 -0.0224  0.1173 -0.4772
21216SOL    HW269741   2.983   2.982   9.961  0.1534 -0.4104  0.3493
21217SOL     OW69742   4.476   4.721   5.208  0.0743 -0.0525  0.8965
21217SOL    HW169743   4.391   4.677   5.199  1.3410 -2.3924 -0.5815
21217SOL    HW269744   4.455   4.803   5.254 -3.2297  0.3399 -0.9749
21218SOL     OW69745   6.687   9.993   8.822  0.8455  0.0538 -0.2338
21218SOL    HW169746   6.689   9.936   8.899  2.2695  0.7281  0.2654
21218SOL    HW269747   6.693  10.081   8.857  1.5849  0.3701 -1.1038
21219SOL     OW69748   5.869  10.434   6.236  0.2767  0.1920 -0.6161
21219SOL    HW169749   5.799  10.491   6.266  1.1483  0.4427  1.0788
21219SOL    HW269750   5.836  10.345   6.251  0.2283  0.3076 -0.0025
21220SOL     OW69751   6.239   0.568   3.322 -0.3633 -0.3399  0.2930
21220SOL    HW169752   6.171   0.631   3.299  0.5888  0.2516 -1.0405
21220SOL    HW269753   6.205   0.483   3.294 -0.7909 -0.1335  0.1851
21221SOL     OW69754   6.686   3.334   6.365 -0.2641 -0.0266 -0.2852
21221SOL    HW169755   6.654   3.295   6.447 -1.0638  1.3390  0.0872
21221SOL    HW269756   6.732   3.413   6.393  2.3567 -1.1993 -0.9209
21222SOL     OW69757   6.865   1.284   9.980  0.0650 -0.0002 -0.0792
21222SOL    HW169758   6.780   1.309  10.016  0.0683  0.1970 -0.2072
21222SOL    HW269759   6.923   1.283  10.056  0.4867  2.1918 -0.3080
21223SOL     OW69760   0.709   7.554   1.645 -0.0575  0.1030 -0.5056
21223SOL    HW169761   0.721   7.464   1.675  1.0297  0.0650 -0.9952
21223SOL    HW269762   0.654   7.594   1.712 -1.6903 -1.2761 -0.9625
21224SOL     OW69763  10.220   1.832   9.016  0.0297  0.0594 -0.5267
21224SOL    HW169764  10.214   1.890   9.091 -2.8757  1.1072 -1.4685
21224SOL    HW269765  10.313   1.810   9.011  0.5791  1.3169  2.2999
21225SOL     OW69766   4.879   2.721   1.875 -0.2460 -0.1694  0.2925
21225SOL    HW169767   4.786   2.721   1.853 -0.0537  1.3754 -0.6406
21225SOL    HW269768   4.904   2.629   1.870 -1.1500 -0.3721 -2.0961
21226SOL     OW69769   9.872   0.894   2.269  0.0465 -0.3068 -0.0143
21226SOL    HW169770   9.874   0.878   2.363 -0.0725  0.2537  0.0874
21226SOL    HW269771   9.963   0.915   2.246  0.3028 -1.6246 -0.2414
21227SOL     OW69772   5.949   8.865   3.416  0.5463 -0.9009  0.2121
21227SOL    HW169773   5.997   8.782   3.419 -0.7553 -1.8414 -2.2905
21227SOL    HW269774   5.857   8.840   3.421  0.1562  0.5535  0.8360
21228SOL     OW69775   5.698   2.589  10.718 -0.3843  0.6361 -0.9513
21228SOL    HW169776   5.649   2.641  10.655 -1.8677 -0.9127 -1.1578
21228SOL    HW269777   5.632   2.557  10.780  0.1326 -2.2675 -1.7456
21229SOL     OW69778   9.961   3.240   2.242 -0.2696 -0.3937  0.1720
21229SOL    HW169779  10.050   3.237   2.275 -0.3004 -1.5632  0.1694
21229SOL    HW269780   9.937   3.333   2.248  0.6371 -0.1941  0.9675
21230SOL     OW69781   6.860   4.884   0.312 -0.2063 -0.2026 -0.1713
21230SOL    HW169782   6.815   4.945   0.253 -1.6546 -0.8394  0.2367
21230SOL    HW269783   6.798   4.869   0.383 -0.2359 -2.7527 -0.6444
21231SOL     OW69784   1.355   8.224  10.287 -0.3891  0.0814  0.1212
21231SOL    HW169785   1.309   8.168  10.225  0.3114 -1.3847  0.9015
21231SOL    HW269786   1.304   8.306  10.286 -2.6700 -1.2390  0.4767
21232SOL     OW69787   0.049   7.534   1.303  0.0713  0.5604 -0.2661
21232SOL    HW169788  -0.001   7.501   1.228  0.1397  1.0417 -0.5345
21232SOL    HW269789   0.125   7.476   1.309  0.6499  1.1673 -1.2766
21233SOL     OW69790   1.144   0.715   3.499  0.0038 -0.3677 -0.1218
21233SOL    HW169791   1.162   0.698   3.591 -0.6342 -1.2476 -0.1447
21233SOL    HW269792   1.177   0.804   3.484 -1.6953  0.5909  1.4621
21234SOL     OW69793   3.215   6.774   2.347  0.7652  0.1200  0.2845
21234SOL    HW169794   3.180   6.736   2.428  1.8801 -0.1595  0.6531
21234SOL    HW269795   3.203   6.868   2.356  0.1129  0.0315  0.3930
21235SOL     OW69796   3.652   8.698   2.052  0.0803  0.1939  0.5609
21235SOL    HW169797   3.693   8.748   1.982  0.8315  0.5656  1.2459
21235SOL    HW269798   3.647   8.609   2.019  0.3878  0.3755  0.0165
21236SOL     OW69799   1.070   4.424   5.057  0.6366  0.4260  0.1579
21236SOL    HW169800   1.119   4.449   5.135  1.8812  2.3353 -1.1545
21236SOL    HW269801   1.110   4.342   5.027  0.4258 -0.0861  1.2386
21237SOL     OW69802   6.697   3.005   2.520  0.1128 -0.4937  0.2927
21237SOL    HW169803   6.648   3.071   2.471 -0.2367 -1.0539 -0.1336
21237SOL    HW269804   6.631   2.959   2.571  0.2776 -0.8577  0.1818
21238SOL     OW69805  10.696   6.672   7.419  0.2526 -0.3162 -0.3484
21238SOL    HW169806  10.733   6.589   7.389 -1.7284 -1.4012 -0.0007
21238SOL    HW269807  10.643   6.702   7.346 -1.7221 -1.1406  0.6533
21239SOL     OW69808   2.741   7.057   7.266 -1.0138 -0.1155 -0.4575
21239SOL    HW169809   2.760   7.142   7.225 -0.0708  0.7905  1.7304
21239SOL    HW269810   2.810   6.999   7.234 -0.2401  0.5964 -0.1217
21240SOL     OW69811   1.987   0.177  10.689 -0.1307 -0.1214  0.0318
21240SOL    HW169812   2.043   0.254  10.681 -2.5648  1.7502 -0.1684
21240SOL    HW269813   1.902   0.206  10.658 -1.7606 -2.2072  2.1764
21241SOL     OW69814   8.991  10.273   2.212 -0.4157 -0.4795  0.2154
21241SOL    HW169815   9.057  10.281   2.143  1.3221  0.7843  1.8977
21241SOL    HW269816   8.940  10.354   2.205  0.9778  0.5808  1.4922
21242SOL     OW69817   0.058  10.515   4.884  0.2552 -0.3992  0.4469
21242SOL    HW169818   0.076  10.574   4.810  0.3209 -0.3412  0.5095
21242SOL    HW269819   0.091  10.430   4.854  1.5119 -0.1068  0.9245
21243SOL     OW69820   5.560   5.234   7.174  0.3058  0.2549  0.0269
21243SOL    HW169821   5.647   5.198   7.158 -0.0903 -0.5835 -0.2737
21243SOL    HW269822   5.573   5.299   7.243  1.0802 -0.2417  0.3583
21244SOL     OW69823   4.625   4.312   0.233 -0.4486  0.2621 -0.6380
21244SOL    HW169824   4.650   4.244   0.295  0.5327 -0.1052 -1.3966
21244SOL    HW269825   4.629   4.394   0.284  0.0128 -0.0636 -0.1386
21245SOL     OW69826   7.297   5.685   5.911 -0.1218  0.7085 -0.0658
21245SOL    HW169827   7.235   5.704   5.982  0.5325 -1.8260  1.3137
21245SOL    HW269828   7.382   5.684   5.954  0.3797 -0.1063 -1.0410
21246SOL     OW69829   6.046   1.607   7.816 -0.5819 -0.4446  0.6042
21246SOL    HW169830   5.967   1.578   7.771 -0.9428  0.9982  0.2586
21246SOL    HW269831   6.039   1.702   7.819 -0.0611 -0.4149  2.8030
21247SOL     OW69832   6.258   4.765   6.691 -0.8580  0.1953  0.4933
21247SOL    HW169833   6.335   4.760   6.635  0.4865  0.6476  2.2164
21247SOL    HW269834   6.221   4.677   6.689  2.5814 -1.5589  3.4162
21248SOL     OW69835   0.194   6.433   0.538  0.2479 -0.1239  0.4358
21248SOL    HW169836   0.110   6.418   0.581 -0.4045 -1.4546 -1.2065
21248SOL    HW269837   0.172   6.468   0.452  1.3132 -1.2372 -0.3297
21249SOL     OW69838   2.497   8.395   7.891 -0.0337 -0.2659  0.4295
21249SOL    HW169839   2.584   8.357   7.899  0.5082  1.1539  1.9871
21249SOL    HW269840   2.449   8.335   7.833  1.9786 -1.0314 -0.5299
21250SOL     OW69841   9.908   1.593   2.268 -0.3451 -0.5938  0.0256
21250SOL    HW169842   9.825   1.576   2.313 -0.7453  0.0634 -0.4353
21250SOL    HW269843   9.968   1.622   2.336  0.2177 -3.1731  0.7682
21251SOL     OW69844   3.408   8.334   9.943  0.8069  0.2362 -0.6075
21251SOL    HW169845   3.362   8.317  10.025 -1.4807 -0.1197 -1.8918
21251SOL    HW269846   3.438   8.248   9.914  0.8905  0.2495 -0.5592
21252SOL     OW69847  10.632   1.061   8.725  0.2036  0.0834 -0.6051
21252SOL    HW169848  10.645   1.114   8.804 -0.4407  1.0859 -1.1608
21252SOL    HW269849  10.631   0.971   8.758 -0.1876  0.4873  0.5652
21253SOL     OW69850   2.157   8.883   7.611 -0.2737 -0.1637  0.1355
21253SOL    HW169851   2.185   8.827   7.539 -0.0324  0.1524 -0.0216
21253SOL    HW269852   2.070   8.853   7.634 -0.6124  0.1468 -0.7150
21254SOL     OW69853   9.351   5.681   8.350 -0.2958 -0.0023 -0.0065
21254SOL    HW169854   9.381   5.632   8.425  1.4028 -0.1941 -0.7789
21254SOL    HW269855   9.256   5.664   8.346 -0.0566 -1.6800  0.8303
21255SOL     OW69856   4.241  10.386  10.641  0.1776 -0.0333  0.4782
21255SOL    HW169857   4.236  10.290  10.649 -1.2380  0.0387  0.6732
21255SOL    HW269858   4.333  10.403  10.618  0.4041 -1.4501  0.2213
21256SOL     OW69859   0.452   6.825   1.131 -0.3049  0.4790 -0.2695
21256SOL    HW169860   0.377   6.882   1.113 -0.7023 -0.5792 -2.1611
21256SOL    HW269861   0.420   6.736   1.114  0.6979 -0.2297  1.2928
21257SOL     OW69862   3.526   2.302   0.238  0.1787 -0.1596 -0.3687
21257SOL    HW169863   3.509   2.261   0.153  0.7890  0.6767 -0.9113
21257SOL    HW269864   3.621   2.298   0.249  0.0655 -0.6740  0.4950
21258SOL     OW69865   9.665   7.879   0.558  0.8636 -0.4905  0.1179
21258SOL    HW169866   9.638   7.939   0.488 -0.3389 -2.8445 -1.5598
21258SOL    HW269867   9.758   7.897   0.569  0.9408  0.4429 -1.6159
21259SOL     OW69868   3.947   1.631   9.626 -0.9451 -0.0615 -0.2576
21259SOL    HW169869   4.009   1.692   9.585 -1.3773  0.8069  0.3609
21259SOL    HW269870   3.978   1.544   9.599  0.1331  0.3881 -0.5173
21260SOL     OW69871   9.775   8.621   9.029 -0.4273 -0.6271  0.5833
21260SOL    HW169872   9.864   8.657   9.035 -0.9330  0.9002 -0.4883
21260SOL    HW269873   9.788   8.531   8.998  0.7688 -0.7232  1.2911
21261SOL     OW69874   6.940   3.890   6.721 -0.1005 -0.0686 -0.7348
21261SOL    HW169875   6.852   3.854   6.714 -0.5159  0.1801  1.9937
21261SOL    HW269876   6.927   3.985   6.729  0.5719  0.1610 -2.1671
21262SOL     OW69877   9.144   6.294   9.328 -0.3890  0.1050  0.2448
21262SOL    HW169878   9.185   6.214   9.360  2.8495  1.6518  0.3870
21262SOL    HW269879   9.185   6.310   9.243 -0.7664  1.6986  0.3227
21263SOL     OW69880   3.323   9.888   5.558 -0.9559 -0.6902 -0.3628
21263SOL    HW169881   3.327   9.975   5.519 -0.3782 -1.1813 -1.4340
21263SOL    HW269882   3.246   9.891   5.615 -0.9531  0.5084 -0.3968
21264SOL     OW69883   6.383   4.801   1.087 -0.5463  0.2233 -0.4452
21264SOL    HW169884   6.364   4.746   1.011 -2.1672  0.5881 -0.3389
21264SOL    HW269885   6.336   4.882   1.071 -0.1624  0.6604  0.5265
21265SOL     OW69886   2.721   0.256  10.099  0.3788  0.5058 -0.4061
21265SOL    HW169887   2.799   0.280  10.048  0.8094 -1.0480 -0.5133
21265SOL    HW269888   2.752   0.189  10.159 -0.9677 -0.3922 -0.6842
21266SOL     OW69889   3.359   0.873   1.388  0.4410  0.1648  0.1387
21266SOL    HW169890   3.324   0.900   1.303 -1.2782 -0.5602  0.5610
21266SOL    HW269891   3.452   0.861   1.373  0.0000 -1.1369 -1.9827
21267SOL     OW69892   5.666   7.004   2.766  0.0883  0.0589 -0.2118
21267SOL    HW169893   5.587   6.973   2.723 -0.6587  1.7625 -0.1416
21267SOL    HW269894   5.724   6.927   2.768 -1.3305 -1.0732 -0.7531
21268SOL     OW69895   7.615   3.280   8.082 -0.0949  0.0518  0.1858
21268SOL    HW169896   7.558   3.210   8.111  0.6931 -0.5082  0.4231
21268SOL    HW269897   7.649   3.319   8.163 -0.5823  0.7600  0.0603
21269SOL     OW69898  10.183   9.631   4.449  0.2859 -0.3531 -0.8754
21269SOL    HW169899  10.273   9.663   4.449  0.0294  0.3797 -0.0998
21269SOL    HW269900  10.186   9.550   4.501  0.2760  0.3305  0.2122
21270SOL     OW69901   9.591   2.370  10.598  0.1262  0.3058 -0.2326
21270SOL    HW169902   9.508   2.408  10.571  0.3675  0.6691 -0.4780
21270SOL    HW269903   9.650   2.387  10.525 -0.0174 -1.4748 -0.8242
21271SOL     OW69904  10.562   1.608   3.339 -0.3562 -0.0784 -0.1095
21271SOL    HW169905  10.499   1.670   3.376  0.3654  0.0132  0.9920
21271SOL    HW269906  10.646   1.651   3.347  0.0600 -0.8823 -0.0516
21272SOL     OW69907   7.990   2.804   0.764 -0.1899  0.1605 -0.4246
21272SOL    HW169908   8.020   2.847   0.844  0.5847 -0.7112 -0.2346
21272SOL    HW269909   7.899   2.835   0.754 -0.5521 -0.2471  1.1779
21273SOL     OW69910   1.974   4.352  10.679 -0.1607 -0.2218  0.4595
21273SOL    HW169911   1.925   4.361  10.598  1.0544 -0.1655 -0.2874
21273SOL    HW269912   2.005   4.261  10.679  2.3261  0.5449 -0.6373
21274SOL     OW69913   2.544   3.142  10.764 -0.1561 -0.5276 -0.3084
21274SOL    HW169914   2.509   3.202  10.698 -2.1228 -0.8671  0.3588
21274SOL    HW269915   2.553   3.059  10.717 -0.6813 -0.5385 -0.4046
21275SOL     OW69916   0.458   1.229   3.235 -0.4812  1.1479  0.3018
21275SOL    HW169917   0.520   1.205   3.304 -1.2505 -1.9826  0.0140
21275SOL    HW269918   0.388   1.276   3.281 -0.5370 -0.0716  1.5293
21276SOL     OW69919   9.646   1.663  10.366 -0.3187 -0.5628 -0.2218
21276SOL    HW169920   9.601   1.633  10.446 -0.0018 -1.6168 -0.4154
21276SOL    HW269921   9.732   1.691  10.397 -0.3704 -0.5117 -0.1232
21277SOL     OW69922   6.582   3.081   9.155  0.4968  0.3335  0.1138
21277SOL    HW169923   6.647   3.079   9.225  0.8078 -0.1045 -0.1816
21277SOL    HW269924   6.552   2.991   9.146  0.4452  0.3871 -0.2996
21278SOL     OW69925   4.496   5.186   7.255 -0.6814 -0.4073 -0.2621
21278SOL    HW169926   4.587   5.182   7.285  0.1345 -0.5332 -2.5662
21278SOL    HW269927   4.495   5.134   7.174 -2.3688  1.1574 -1.3217
21279SOL     OW69928   6.998   2.314   8.881  0.0650  0.1014 -0.2892
21279SOL    HW169929   6.978   2.407   8.887 -1.6572 -0.3218  1.7149
21279SOL    HW269930   6.916   2.270   8.903  0.2048 -1.9726 -3.2815
21280SOL     OW69931   7.404   9.028   9.904 -0.3206 -0.4660 -0.2702
21280SOL    HW169932   7.378   9.059   9.990 -0.2965  1.4026 -0.8969
21280SOL    HW269933   7.361   9.087   9.842 -0.4533 -1.8402 -1.5700
21281SOL     OW69934   6.075   1.245   5.369 -0.1477 -0.3418  0.6093
21281SOL    HW169935   5.982   1.223   5.380 -0.4040  0.6519  0.4744
21281SOL    HW269936   6.115   1.223   5.454 -0.7870  0.6042  1.1667
21282SOL     OW69937   0.251   6.297  10.129  0.1108  0.1021  0.0586
21282SOL    HW169938   0.184   6.230  10.112  1.3303 -1.3986  0.9460
21282SOL    HW269939   0.326   6.270  10.076  0.4991  1.0092  0.1315
21283SOL     OW69940   9.209   9.304   4.016 -0.1581 -0.1745  0.5222
21283SOL    HW169941   9.125   9.346   4.035  0.3444  0.5339  1.2653
21283SOL    HW269942   9.274   9.362   4.056  0.6218 -1.2372  0.8418
21284SOL     OW69943   0.596  10.375   2.969 -0.0820  0.2802  0.0852
21284SOL    HW169944   0.673  10.376   2.912  1.2643 -0.2395  1.7826
21284SOL    HW269945   0.632  10.360   3.057 -1.7499  3.4908  1.5129
21285SOL     OW69946   1.102   4.286   8.628  0.7492  0.4369 -0.2292
21285SOL    HW169947   1.156   4.365   8.620  1.7464 -0.2793 -0.9850
21285SOL    HW269948   1.035   4.296   8.560 -0.0522  1.3007  0.6631
21286SOL     OW69949   9.631   4.375   9.497  0.5312 -0.5589 -0.3312
21286SOL    HW169950   9.611   4.312   9.428 -1.5117  0.0654 -0.3648
21286SOL    HW269951   9.592   4.339   9.576  1.5770 -0.5444  0.2191
21287SOL     OW69952   0.764  10.190   1.586  0.5553 -0.8209 -0.4265
21287SOL    HW169953   0.758  10.149   1.672 -0.2799  0.9673  0.4273
21287SOL    HW269954   0.675  10.186   1.551  0.8470 -1.3486 -1.1377
21288SOL     OW69955   0.200   1.226   0.134 -0.1866 -0.1601 -0.1849
21288SOL    HW169956   0.225   1.318   0.144 -0.2158 -0.1388 -0.2995
21288SOL    HW269957   0.227   1.204   0.045 -0.3970 -0.1910 -0.2435
21289SOL     OW69958   0.300   1.695   5.194 -0.2114  0.2397 -0.0423
21289SOL    HW169959   0.309   1.736   5.108 -2.2097 -0.6511 -0.7344
21289SOL    HW269960   0.382   1.648   5.207  0.5521  1.2609 -0.9665
21290SOL     OW69961   8.292   0.106   6.921  0.1249  0.1282 -0.3367
21290SOL    HW169962   8.322   0.179   6.976 -1.9605  0.7634  0.0551
21290SOL    HW269963   8.321   0.130   6.833  3.4360 -0.8582  0.3331
21291SOL     OW69964   8.989   6.768   9.211  0.7271  0.0662 -0.0013
21291SOL    HW169965   8.985   6.858   9.181 -2.8786 -0.5833 -2.0401
21291SOL    HW269966   9.060   6.729   9.159  1.9471  1.4962  0.5060
21292SOL     OW69967  10.660   2.428  10.010  0.0522 -0.0713  0.0547
21292SOL    HW169968  10.588   2.406   9.951  0.1058 -0.7493  0.2352
21292SOL    HW269969  10.720   2.353  10.002  0.7217  0.4739 -0.0747
21293SOL     OW69970   1.718   9.678   3.427 -0.1712  0.0561 -0.6157
21293SOL    HW169971   1.754   9.641   3.346 -0.9466 -0.8576 -0.5432
21293SOL    HW269972   1.738   9.772   3.420  0.6850 -0.1621 -1.3775
21294SOL     OW69973   6.891   3.998  10.255 -0.2510  0.0121  0.0064
21294SOL    HW169974   6.916   3.913  10.291 -0.3084 -0.8828 -1.9193
21294SOL    HW269975   6.974   4.042  10.238 -0.0988 -0.7068 -1.2719
21295SOL     OW69976   5.190   1.462   0.212  0.5144  0.2638 -0.2775
21295SOL    HW169977   5.113   1.496   0.257 -0.8955 -1.5828 -1.1274
21295SOL    HW269978   5.226   1.398   0.273 -0.8501 -1.5536 -1.2656
21296SOL     OW69979   7.472   3.404   5.115 -0.3008 -0.1971  0.1666
21296SOL    HW169980   7.453   3.466   5.185 -3.4027  2.4782 -2.6723
21296SOL    HW269981   7.540   3.447   5.063  0.3504 -1.0890  0.2508
21297SOL     OW69982   5.750   5.527   5.883 -0.3250  0.2973 -0.2451
21297SOL    HW169983   5.657   5.527   5.905 -0.6723  0.5175 -1.5879
21297SOL    HW269984   5.768   5.618   5.858  1.1445  1.1628  3.2998
21298SOL     OW69985   4.078   3.356   5.925 -0.5338  0.2708 -0.2488
21298SOL    HW169986   4.009   3.375   5.989 -1.2317 -1.1658 -0.5505
21298SOL    HW269987   4.146   3.311   5.976 -0.0063  1.2533 -0.0530
21299SOL     OW69988   6.974   0.712   3.453 -0.1725 -0.2364 -0.1625
21299SOL    HW169989   6.967   0.714   3.357 -1.2001  0.0421 -0.0996
21299SOL    HW269990   6.988   0.620   3.474  0.8220 -0.1940 -0.6190
21300SOL     OW69991   6.114   6.158   6.526 -0.1910 -0.0495 -0.9760
21300SOL    HW169992   6.114   6.239   6.475 -0.9776  2.1272  2.1701
21300SOL    HW269993   6.188   6.166   6.585  0.1840 -2.0481 -1.0927
21301SOL     OW69994   8.029   1.528   8.589 -0.0139  0.1442  0.5597
21301SOL    HW169995   7.989   1.443   8.604  0.5125 -0.2668 -0.2778
21301SOL    HW269996   8.123   1.513   8.603  0.1063  0.5279  0.1891
21302SOL     OW69997   9.381  10.808   0.178  0.0249  0.0068  0.6059
21302SOL    HW169998   9.398  10.789   0.086 -0.2530 -0.1281  0.5812
21302SOL    HW269999   9.431  10.888   0.195 -0.8305  0.6893  0.0311
21303SOL     OW70000   7.597   5.031   9.708  0.1553  0.5307 -0.1539
21303SOL    HW170001   7.564   5.062   9.792 -0.5319 -0.5540 -0.0042
21303SOL    HW270002   7.690   5.014   9.722  0.5556  2.4821 -0.2461
21304SOL     OW70003   2.454   2.793   7.189 -0.5669 -0.6435 -0.2005
21304SOL    HW170004   2.447   2.718   7.130 -0.8685 -0.1722 -0.7794
21304SOL    HW270005   2.513   2.854   7.145  0.5867 -0.9980  0.7873
21305SOL     OW70006   5.359   3.960   1.939 -0.7584 -0.2997  0.3020
21305SOL    HW170007   5.324   3.890   1.995 -1.1244  0.1262  0.6178
21305SOL    HW270008   5.291   4.027   1.940 -0.0224  0.4561  0.7398
21306SOL     OW70009   3.724   5.292   9.130 -0.1151 -0.0271 -0.1875
21306SOL    HW170010   3.804   5.310   9.179  0.0027  1.4778 -0.8538
21306SOL    HW270011   3.655   5.292   9.196  0.0894  1.5979  0.0645
21307SOL     OW70012   8.241   3.798   6.639  0.0596  0.0823  0.0720
21307SOL    HW170013   8.332   3.823   6.655 -0.3431  1.9771 -0.3289
21307SOL    HW270014   8.206   3.778   6.726  0.6471  0.0751  0.3137
21308SOL     OW70015   4.334   5.048   2.479 -0.0684  0.3027 -0.3220
21308SOL    HW170016   4.241   5.049   2.499  0.0273  0.6704  0.1345
21308SOL    HW270017   4.372   4.989   2.544  0.1703  1.0679  0.2467
21309SOL     OW70018   6.647   7.142   4.702 -0.0170  0.3144 -0.2124
21309SOL    HW170019   6.616   7.129   4.792 -1.9566  0.6600 -0.7979
21309SOL    HW270020   6.738   7.112   4.704  0.2443  1.0846  2.0515
21310SOL     OW70021   0.755   2.901   6.113  0.0424 -0.4994 -0.2674
21310SOL    HW170022   0.782   2.917   6.023  1.4341  0.1177  0.2437
21310SOL    HW270023   0.667   2.938   6.119  0.3043  0.2918 -1.1280
21311SOL     OW70024   5.698  10.626   8.916  0.1135  0.1883  0.4201
21311SOL    HW170025   5.725  10.537   8.936  1.7337  0.4076 -0.6080
21311SOL    HW270026   5.735  10.679   8.986 -0.3229  0.1464  0.6904
21312SOL     OW70027   0.804   4.415   6.497  0.3466 -0.4541  0.2331
21312SOL    HW170028   0.803   4.367   6.414  1.7024  1.1983 -0.7872
21312SOL    HW270029   0.842   4.354   6.559  1.5175 -0.9439 -0.9057
21313SOL     OW70030   5.406   7.032   1.780 -0.3544  0.7635 -0.0009
21313SOL    HW170031   5.372   7.000   1.864  1.2817 -0.6275  0.1740
21313SOL    HW270032   5.409   7.127   1.791  0.1471  0.5924  1.6625
21314SOL     OW70033   8.294   5.372   0.655  0.0568  0.8370 -0.0218
21314SOL    HW170034   8.225   5.412   0.708  0.2929  0.3356  0.6810
21314SOL    HW270035   8.262   5.283   0.637  1.1189  0.0821  1.5476
21315SOL     OW70036   1.673   9.860   6.391 -0.4435  0.2321  0.2883
21315SOL    HW170037   1.665   9.916   6.468  0.4537 -2.5355  2.5844
21315SOL    HW270038   1.583   9.840   6.366 -0.7596  1.9718 -0.0756
21316SOL     OW70039  10.653   2.503   8.179 -0.8379 -0.4222 -0.4133
21316SOL    HW170040  10.595   2.427   8.182  0.5737 -1.5098  0.2155
21316SOL    HW270041  10.690   2.501   8.091 -0.7797 -0.4786 -0.3882
21317SOL     OW70042   9.223   0.352   2.491 -0.6179 -0.5876  0.4971
21317SOL    HW170043   9.176   0.369   2.572 -1.6802 -1.7610  0.1446
21317SOL    HW270044   9.271   0.271   2.506  1.6842  0.7634  0.9802
21318SOL     OW70045   0.126   4.621   5.704  0.4989  0.4241  0.6906
21318SOL    HW170046   0.194   4.639   5.769 -0.7786  1.8879  1.7088
21318SOL    HW270047   0.087   4.539   5.733 -2.3621  2.6624  4.0418
21319SOL     OW70048   3.032   3.197   7.342  0.4050 -0.0083  0.2152
21319SOL    HW170049   2.975   3.254   7.394  0.1382  0.1993 -0.2992
21319SOL    HW270050   3.000   3.207   7.252  0.5636 -0.7248  0.0758
21320SOL     OW70051   5.055   7.132   6.830 -0.3770  0.6224  0.0819
21320SOL    HW170052   5.019   7.172   6.751 -2.0074 -0.8911  0.0133
21320SOL    HW270053   4.984   7.139   6.895 -0.0124 -0.4819  0.6191
21321SOL     OW70054   5.183   7.699   0.237 -0.5474 -0.0301 -0.3436
21321SOL    HW170055   5.225   7.657   0.312 -0.3509 -0.1007 -0.4944
21321SOL    HW270056   5.089   7.684   0.252 -0.4647 -0.8044 -0.5576
21322SOL     OW70057   5.877   7.944   8.001 -0.0136 -0.2291 -0.4740
21322SOL    HW170058   5.837   8.021   8.041 -0.1807 -0.0705 -0.9400
21322SOL    HW270059   5.937   7.979   7.935  0.9316 -0.4603  0.2378
21323SOL     OW70060  10.432  10.817   8.892 -0.0210 -0.0901  0.0405
21323SOL    HW170061  10.474  10.731   8.893  0.7803  0.2423  2.4423
21323SOL    HW270062  10.368  10.813   8.963 -0.6720  0.9783 -0.4697
21324SOL     OW70063   4.362   4.517   0.308  0.0519  0.4608 -0.4695
21324SOL    HW170064   4.446   4.558   0.327  0.6097 -0.5137 -0.7467
21324SOL    HW270065   4.326   4.493   0.393 -0.2789  1.4880 -0.3057
21325SOL     OW70066   6.360   5.689   0.448  0.4584 -0.0420  0.0889
21325SOL    HW170067   6.392   5.671   0.537  2.4550 -2.2160 -0.9461
21325SOL    HW270068   6.270   5.659   0.448  0.4394 -0.0398  1.3790
21326SOL     OW70069   1.724   8.697   4.544  0.2025 -0.0799 -0.7227
21326SOL    HW170070   1.811   8.662   4.524  0.5569 -0.1771  0.8308
21326SOL    HW270071   1.740   8.764   4.611 -0.9813 -0.7550  0.2839
21327SOL     OW70072   4.018   6.805  10.335  0.1066 -0.3632 -0.2471
21327SOL    HW170073   4.016   6.894  10.300  1.4691 -0.8840 -1.7633
21327SOL    HW270074   3.943   6.761  10.294 -0.5195  0.0312  0.4417
21328SOL     OW70075   6.553   4.751   5.373 -0.0609  0.5291  0.1413
21328SOL    HW170076   6.613   4.814   5.333 -1.4007  1.4621 -0.5098
21328SOL    HW270077   6.477   4.804   5.398 -1.3766 -0.8661 -0.6999
21329SOL     OW70078   6.717   4.141   3.814  0.5506  0.2999  0.1287
21329SOL    HW170079   6.700   4.206   3.883 -1.5823  0.7570 -0.7327
21329SOL    HW270080   6.732   4.059   3.862 -0.6165  0.6614  1.1790
21330SOL     OW70081   6.869  10.319   8.768 -0.1777  0.7013  0.2727
21330SOL    HW170082   6.831  10.268   8.696  0.5050  1.7980 -0.9078
21330SOL    HW270083   6.828  10.284   8.847 -0.7623 -0.7097 -0.6245
21331SOL     OW70084   5.008   8.639   1.991  0.0796 -0.3454  0.3376
21331SOL    HW170085   5.087   8.671   2.033 -0.7856  1.2697  0.8247
21331SOL    HW270086   4.947   8.625   2.064 -0.6273  0.1014 -0.1573
21332SOL     OW70087   3.557   4.862   9.525 -0.7713 -0.2395 -1.0519
21332SOL    HW170088   3.567   4.868   9.620 -2.9508  1.2884 -0.8547
21332SOL    HW270089   3.559   4.768   9.507 -0.1363 -0.5517  0.4633
21333SOL     OW70090   9.996   6.996   6.818  0.1040 -0.4785  0.2637
21333SOL    HW170091  10.065   6.956   6.872  0.8282  0.7948  0.3162
21333SOL    HW270092  10.018   6.970   6.728 -0.0649 -1.0981  0.3963
21334SOL     OW70093   9.127   9.806   7.839 -0.2401 -0.5810  0.2729
21334SOL    HW170094   9.169   9.753   7.772 -1.8642 -1.2625 -0.2699
21334SOL    HW270095   9.131   9.753   7.919  0.4049 -0.3980  0.3651
21335SOL     OW70096   6.856   6.809   4.861 -0.0864  0.2176 -0.2097
21335SOL    HW170097   6.834   6.748   4.932 -0.1224 -1.5880 -1.6700
21335SOL    HW270098   6.793   6.787   4.792  2.3640 -0.8648 -2.2518
21336SOL     OW70099   4.968   2.455   0.748  0.3792 -0.0221  0.1146
21336SOL    HW170100   5.014   2.527   0.791  1.6185 -0.3419 -0.6376
21336SOL    HW270101   5.019   2.438   0.669 -1.1038 -0.3264 -0.8037
21337SOL     OW70102   1.481   4.951   4.814  0.1141 -0.6959 -0.2848
21337SOL    HW170103   1.526   5.029   4.846  1.9233 -1.1676 -1.5161
21337SOL    HW270104   1.535   4.878   4.844 -0.4506 -1.3581 -0.8341
21338SOL     OW70105   4.691   7.534   1.376  0.4910  0.3066  0.3610
21338SOL    HW170106   4.662   7.443   1.383 -0.6758  0.5696 -0.6085
21338SOL    HW270107   4.680   7.570   1.464  1.2792 -0.5559  0.8362
21339SOL     OW70108   7.784   6.815   9.293  0.5013  0.3719  0.6903
21339SOL    HW170109   7.719   6.859   9.237  0.8909  0.2772  0.1621
21339SOL    HW270110   7.732   6.759   9.349  0.0315  1.1231  1.0256
21340SOL     OW70111   8.299   7.248   0.880  0.0409  0.1106 -0.0886
21340SOL    HW170112   8.371   7.299   0.918 -0.8496  1.0156  0.4387
21340SOL    HW270113   8.310   7.257   0.786  0.9584 -0.2639 -0.0278
21341SOL     OW70114   1.222   3.806   2.820  0.4572  0.5003 -0.6813
21341SOL    HW170115   1.171   3.770   2.892  0.2420  0.2838 -0.9397
21341SOL    HW270116   1.298   3.748   2.814 -0.9908 -1.3171 -2.5529
21342SOL     OW70117   7.086  10.220   3.249 -0.2024 -0.1679 -0.0457
21342SOL    HW170118   7.089  10.312   3.224  1.1195 -0.4854 -1.0960
21342SOL    HW270119   7.177  10.192   3.253 -0.6020 -2.0117 -1.9477
21343SOL     OW70120   9.697   5.242   5.673 -0.0265 -0.0343 -0.8440
21343SOL    HW170121   9.749   5.170   5.710  1.0833  0.8512 -0.6438
21343SOL    HW270122   9.631   5.259   5.739 -0.0342 -0.5848 -0.6984
21344SOL     OW70123   4.561   1.474   5.239 -0.0011 -0.1510  0.4300
21344SOL    HW170124   4.526   1.560   5.212 -0.0032 -0.1039  0.5844
21344SOL    HW270125   4.642   1.465   5.189 -0.5509 -0.5426 -0.4137
21345SOL     OW70126   0.433   2.318   4.136  0.3107 -0.3212  0.1500
21345SOL    HW170127   0.441   2.276   4.051  1.1611 -0.4635  0.2909
21345SOL    HW270128   0.485   2.398   4.129  1.0982 -0.7598  0.7959
21346SOL     OW70129   7.754   3.374   6.880 -0.1266 -0.1648 -0.2751
21346SOL    HW170130   7.715   3.387   6.794 -0.4276 -1.7913 -0.4149
21346SOL    HW270131   7.690   3.411   6.941 -0.4592 -0.0467 -0.6905
21347SOL     OW70132   8.261   2.487   5.753  0.1615 -0.3593 -0.4528
21347SOL    HW170133   8.190   2.469   5.814  0.9181  0.3210  0.6563
21347SOL    HW270134   8.252   2.579   5.731  0.2443 -0.4597 -0.9382
21348SOL     OW70135   3.938   4.335   5.396 -0.2083 -0.0622 -1.1233
21348SOL    HW170136   4.008   4.294   5.447  0.0125  0.3508 -1.0928
21348SOL    HW270137   3.975   4.418   5.366 -1.0863  0.7614 -0.0496
21349SOL     OW70138   7.282   8.728   3.957 -0.0984  0.4182  0.4650
21349SOL    HW170139   7.238   8.813   3.952 -0.5790  0.3251  2.2600
21349SOL    HW270140   7.372   8.750   3.983 -0.3762  0.3735  1.5104
21350SOL     OW70141   1.009   1.606   4.124  0.0769  0.4471 -0.0112
21350SOL    HW170142   0.988   1.628   4.214 -0.6305  0.2519 -0.1172
21350SOL    HW270143   0.942   1.542   4.099  0.1251  0.6704 -0.7410
21351SOL     OW70144   4.745   3.374   9.980 -0.0524 -0.4429 -0.3104
21351SOL    HW170145   4.719   3.327  10.060  1.8793  1.2098  1.4117
21351SOL    HW270146   4.706   3.461   9.990  2.7812  0.8402  0.5029
21352SOL     OW70147   9.867   8.512   6.488 -0.0996 -0.3700 -0.2449
21352SOL    HW170148   9.814   8.585   6.521 -0.6406 -0.6870 -0.4172
21352SOL    HW270149   9.813   8.435   6.501 -0.5840 -0.4472 -2.4090
21353SOL     OW70150   4.198   2.458   0.972  0.2070 -0.0423 -0.4781
21353SOL    HW170151   4.274   2.515   0.978 -0.4223  0.7075  0.8910
21353SOL    HW270152   4.179   2.453   0.878  1.4078  0.4511 -0.7649
21354SOL     OW70153   6.632   7.321  10.845  0.4227 -0.1293 -0.0564
21354SOL    HW170154   6.674   7.385  10.904 -1.0394  0.7142  0.1337
21354SOL    HW270155   6.700   7.257  10.827  2.5819  2.4120 -1.7104
21355SOL     OW70156   1.631   0.139   9.733 -0.3104 -0.2302 -0.3585
21355SOL    HW170157   1.686   0.146   9.811  0.6075  0.4069 -1.0494
21355SOL    HW270158   1.541   0.141   9.768  0.0357  1.8507  0.5723
21356SOL     OW70159   1.810  10.727   2.168  0.3331  0.0072  0.0498
21356SOL    HW170160   1.883  10.713   2.228  1.2574  1.0479 -0.7745
21356SOL    HW270161   1.813  10.821   2.148 -0.7140 -0.0836 -0.6557
21357SOL     OW70162   3.055   4.153   2.565  0.4460  0.2711  0.2600
21357SOL    HW170163   3.080   4.120   2.479 -0.9357  1.1560 -0.5379
21357SOL    HW270164   2.969   4.194   2.550  1.5401  3.2068  1.3555
21358SOL     OW70165   7.473   1.454   4.579 -0.2491 -0.2742 -0.4558
21358SOL    HW170166   7.555   1.487   4.542 -0.3226  0.8405  0.3157
21358SOL    HW270167   7.414   1.529   4.575 -1.4864 -1.2760 -1.6915
21359SOL     OW70168   7.736   6.241   5.770  0.5625 -0.0619  0.2123
21359SOL    HW170169   7.657   6.202   5.734  1.9580 -1.1661 -1.8321
21359SOL    HW270170   7.710   6.272   5.857 -2.0966 -0.3243 -0.4150
21360SOL     OW70171   6.352   7.540   5.869 -0.0711 -0.4489  0.0253
21360SOL    HW170172   6.302   7.599   5.925  0.8198  1.2139 -0.8656
21360SOL    HW270173   6.430   7.520   5.920  0.0467 -0.1393 -0.0341
21361SOL     OW70174   2.899   0.050   5.668 -0.3974 -0.0710  0.0493
21361SOL    HW170175   2.991   0.044   5.691 -0.1137  0.1395 -0.9916
21361SOL    HW270176   2.892   0.131   5.618 -0.8698 -0.8047 -1.1108
21362SOL     OW70177  10.786   3.421   0.488 -0.5858  0.2315  0.4245
21362SOL    HW170178  10.698   3.434   0.453 -1.3891  2.1147  2.8674
21362SOL    HW270179  10.778   3.343   0.544 -1.1860  1.2843  1.8736
21363SOL     OW70180  10.606   0.488   5.316  0.1557 -0.2462 -0.0914
21363SOL    HW170181  10.586   0.403   5.354  1.5537 -0.1851  0.8642
21363SOL    HW270182  10.562   0.488   5.231  0.0856 -1.8782 -0.0785
21364SOL     OW70183   0.447   7.193   7.180  0.3178 -0.0050  0.3340
21364SOL    HW170184   0.390   7.178   7.105 -0.0561  0.6192  0.4844
21364SOL    HW270185   0.414   7.274   7.219  0.1875 -0.5944  1.4818
21365SOL     OW70186   2.280   2.852   2.767 -0.3123 -0.0444  0.4158
21365SOL    HW170187   2.204   2.884   2.718 -0.7965  0.7404  1.6216
21365SOL    HW270188   2.264   2.881   2.857  0.1137 -2.1645  1.2435
21366SOL     OW70189   8.934   2.302   5.286 -0.0853 -0.1990  0.0078
21366SOL    HW170190   8.980   2.344   5.213 -1.4472  0.4123 -0.5270
21366SOL    HW270191   8.925   2.370   5.352  2.9546 -1.2529  1.7237
21367SOL     OW70192   1.460   9.082   6.025  0.5452  0.1326  0.0210
21367SOL    HW170193   1.422   9.039   6.102 -0.2097  1.1812  0.2518
21367SOL    HW270194   1.389   9.088   5.962  1.3507 -1.4301 -1.1163
21368SOL     OW70195   2.737   9.021   8.238 -0.3291  0.0785  0.0900
21368SOL    HW170196   2.669   9.009   8.172  0.8285 -2.6221 -0.7656
21368SOL    HW270197   2.695   9.070   8.308 -2.8220 -0.6022 -0.8494
21369SOL     OW70198   2.396   1.889   0.435  0.1186  0.0027  0.1251
21369SOL    HW170199   2.325   1.933   0.388 -0.5807  0.8947  1.9481
21369SOL    HW270200   2.359   1.806   0.463  0.6345 -0.6715 -1.0731
21370SOL     OW70201   3.187   9.363   6.516 -0.2968 -0.5416 -0.1862
21370SOL    HW170202   3.138   9.281   6.518  0.9487 -1.2993 -0.4158
21370SOL    HW270203   3.191   9.386   6.423 -0.2654 -0.4492 -0.1621
21371SOL     OW70204   7.796   9.537   5.106  0.0942  0.0358  0.1447
21371SOL    HW170205   7.717   9.588   5.086 -0.3518 -1.3405 -1.8723
21371SOL    HW270206   7.771   9.483   5.181 -0.5790  0.2784  0.1079
21372SOL     OW70207   2.197   2.996   7.804  0.2369 -0.0500  0.3556
21372SOL    HW170208   2.183   2.973   7.712 -1.2976  0.2088  0.5016
21372SOL    HW270209   2.128   3.060   7.823  0.7635  0.1595  1.5892
21373SOL     OW70210   8.127   0.458   8.112 -0.2245 -0.4851  0.0052
21373SOL    HW170211   8.044   0.486   8.152  0.1864 -0.0088  0.5496
21373SOL    HW270212   8.108   0.372   8.074 -0.5776 -1.1047  1.4972
21374SOL     OW70213   1.522   0.411   9.965 -0.0681 -0.2971 -0.3482
21374SOL    HW170214   1.461   0.358   9.914  0.4814 -1.4850  0.2077
21374SOL    HW270215   1.528   0.367  10.049  1.2685  0.0005 -0.2662
21375SOL     OW70216   0.121   6.222   0.076 -0.0080 -1.0376 -0.0873
21375SOL    HW170217   0.193   6.242   0.017 -0.1350  0.3991  0.1939
21375SOL    HW270218   0.149   6.144   0.124  1.9862  0.2368  0.9727
21376SOL     OW70219   1.392   7.576   9.264  0.4664 -0.2542 -0.3806
21376SOL    HW170220   1.428   7.651   9.217  1.3720 -0.7092 -0.4247
21376SOL    HW270221   1.412   7.593   9.356  0.2563 -0.2138 -0.3424
21377SOL     OW70222   1.359   1.811   6.475 -0.2766  0.0778  0.2543
21377SOL    HW170223   1.284   1.830   6.419  0.4231 -0.1557 -0.7998
21377SOL    HW270224   1.351   1.872   6.548 -1.5478 -0.0262  0.2254
21378SOL     OW70225   2.073  10.928   8.155  0.0513  0.4798  0.5342
21378SOL    HW170226   2.085  10.860   8.222  2.6635  0.4738  0.1648
21378SOL    HW270227   2.023  10.996   8.199 -3.1870 -1.8190  0.7598
21379SOL     OW70228   6.562   3.418   6.061  0.2026  0.0489 -0.2926
21379SOL    HW170229   6.505   3.494   6.045  0.9065  0.8096  0.6903
21379SOL    HW270230   6.560   3.407   6.156 -1.1845 -2.2161 -0.5232
21380SOL     OW70231   9.834  10.905   1.183 -0.0257 -0.2543  0.1930
21380SOL    HW170232   9.775  10.975   1.154 -0.5742 -0.5781  0.5059
21380SOL    HW270233   9.887  10.885   1.106 -0.4031 -0.0290 -0.1301
21381SOL     OW70234   2.546   2.440   4.657  0.0011  0.2854  0.6688
21381SOL    HW170235   2.530   2.375   4.589 -0.7001  2.4176 -1.3463
21381SOL    HW270236   2.539   2.392   4.739  0.9865 -2.4337 -0.7293
21382SOL     OW70237   0.431   2.020   6.334 -0.2651 -0.3495 -0.4622
21382SOL    HW170238   0.428   2.043   6.241  2.2170  1.1934 -0.2528
21382SOL    HW270239   0.512   1.969   6.343 -1.7456 -2.6762  0.4799
21383SOL     OW70240   7.672  10.687   5.670  0.9775  0.2123 -0.0554
21383SOL    HW170241   7.688  10.710   5.762  0.8046  0.0722  0.0131
21383SOL    HW270242   7.690  10.767   5.621  0.8179  0.3653  0.1306
21384SOL     OW70243   0.310   6.945   7.684  0.2832  0.5465  0.3913
21384SOL    HW170244   0.219   6.975   7.684  0.1945  0.5586 -2.2808
21384SOL    HW270245   0.304   6.851   7.702 -0.1950  0.6559  0.8271
21385SOL     OW70246   8.118   2.286   4.477 -0.2003  0.0564  0.0875
21385SOL    HW170247   8.033   2.318   4.447 -0.9924 -2.1773 -0.2146
21385SOL    HW270248   8.172   2.283   4.398  0.1309  1.2179  0.2366
21386SOL     OW70249   3.287   8.188   6.745 -0.8572 -0.2612 -0.7037
21386SOL    HW170250   3.297   8.155   6.656  2.7921 -0.7813 -0.2483
21386SOL    HW270251   3.307   8.112   6.801  0.1964  0.8333  0.4644
21387SOL     OW70252   4.396   8.939  10.804  0.0725 -0.6233 -0.5591
21387SOL    HW170253   4.416   8.861  10.855  0.6178  0.3370  0.7522
21387SOL    HW270254   4.315   8.972  10.842  2.0005  1.7811  1.8983
21388SOL     OW70255   8.932   1.807   3.287 -0.5623  0.4133  0.2638
21388SOL    HW170256   8.929   1.845   3.375  1.9107 -0.0932  0.6190
21388SOL    HW270257   8.865   1.739   3.288  1.4791 -1.7655  2.8789
21389SOL     OW70258   9.399  10.059   8.836  0.4295  0.0135  0.0893
21389SOL    HW170259   9.336  10.089   8.771  1.3606 -2.7791 -2.3249
21389SOL    HW270260   9.358   9.981   8.875  0.0862  1.3591  2.6665
21390SOL     OW70261   1.669   1.854  10.206  0.2013  0.4646  0.0810
21390SOL    HW170262   1.750   1.809  10.233 -0.1902 -0.6762 -0.5784
21390SOL    HW270263   1.614   1.852  10.284  1.0700  1.9130  0.7646
21391SOL     OW70264   8.044   7.073   7.879  0.2425 -0.0125 -0.1820
21391SOL    HW170265   8.078   7.131   7.811 -1.8334  0.1645 -1.1715
21391SOL    HW270266   7.973   7.025   7.836  0.4122 -1.6565  1.2381
21392SOL     OW70267   2.480   1.492   1.687  0.9042 -0.3200  0.0523
21392SOL    HW170268   2.452   1.513   1.776  2.1933 -0.7241  0.5853
21392SOL    HW270269   2.442   1.406   1.669 -1.5051  0.8187 -0.8232
21393SOL     OW70270   3.537   3.303   8.752 -0.0386 -0.0997 -0.3341
21393SOL    HW170271   3.601   3.373   8.764  0.7216 -0.7534 -0.4585
21393SOL    HW270272   3.534   3.290   8.657  1.8331 -1.9991 -0.2100
21394SOL     OW70273   7.299  10.335   8.474  0.0314 -0.4179 -0.3552
21394SOL    HW170274   7.390  10.346   8.445  0.4592 -0.7609  0.8186
21394SOL    HW270275   7.248  10.345   8.394  0.9734  1.3528 -0.7946
21395SOL     OW70276   1.078   0.715   2.587  0.0051  0.1457 -0.1542
21395SOL    HW170277   1.046   0.740   2.501 -0.0323 -1.7670 -0.7365
21395SOL    HW270278   1.153   0.658   2.570 -0.6307 -1.1134  1.0216
21396SOL     OW70279   5.044   4.182   4.860 -0.1801 -0.1315  1.0398
21396SOL    HW170280   5.016   4.155   4.947  0.2614 -2.5408  0.5032
21396SOL    HW270281   5.103   4.256   4.875 -1.4602  0.6028  2.6331
21397SOL     OW70282   0.886  10.588   1.866  0.0222  0.3951 -0.0749
21397SOL    HW170283   0.824  10.540   1.812  1.1762 -1.3828  0.0888
21397SOL    HW270284   0.923  10.522   1.925  0.3494  1.8521  1.4448
21398SOL     OW70285   3.224   8.672   0.635 -0.7380  0.4206  0.2886
21398SOL    HW170286   3.222   8.754   0.686 -0.6673  1.2825 -1.0438
21398SOL    HW270287   3.317   8.660   0.614 -0.6782 -0.3117  0.9437
21399SOL     OW70288  10.576   7.595   5.641 -0.4050 -0.6410 -0.4224
21399SOL    HW170289  10.515   7.572   5.571 -0.4328 -0.6375 -0.3997
21399SOL    HW270290  10.620   7.513   5.663 -1.0667 -0.8318  0.2043
21400SOL     OW70291   9.707   9.883   3.544 -0.6350 -0.0290  0.4922
21400SOL    HW170292   9.695   9.928   3.460 -1.2173  0.1552  0.6682
21400SOL    HW270293   9.797   9.851   3.542 -0.3218  0.8468  0.2165
21401SOL     OW70294   2.061   5.294  10.722  0.5566  0.4136  0.0394
21401SOL    HW170295   2.009   5.265  10.648  1.1822  0.5468 -0.4570
21401SOL    HW270296   2.142   5.245  10.716  1.1984  1.4659 -0.2104
21402SOL     OW70297   1.466   3.335   7.711  0.3924 -0.5208 -0.1786
21402SOL    HW170298   1.454   3.306   7.621  0.1880  0.0699 -0.3440
21402SOL    HW270299   1.413   3.274   7.763 -0.0023 -0.4634 -0.5145
21403SOL     OW70300   7.762   0.254   9.404 -0.5977  0.4375  0.4956
21403SOL    HW170301   7.766   0.345   9.434  0.1564  0.0660  1.6176
21403SOL    HW270302   7.781   0.202   9.483  0.8649 -0.6311 -0.4997
21404SOL     OW70303   0.049   3.783  10.405 -0.8481  0.2097  0.6116
21404SOL    HW170304   0.001   3.707  10.439 -0.9295 -0.3886 -0.7702
21404SOL    HW270305   0.141   3.756  10.406 -0.4596  1.2907  3.0836
21405SOL     OW70306   5.535   1.399   4.264  0.2742  0.1287 -0.7199
21405SOL    HW170307   5.477   1.344   4.212 -0.3944  0.9501 -0.8719
21405SOL    HW270308   5.541   1.354   4.348 -1.7439  0.7098 -0.1979
21406SOL     OW70309  10.246   2.509   4.973 -0.3118 -0.3526 -0.1756
21406SOL    HW170310  10.158   2.543   4.986  0.4982  1.9698 -0.2582
21406SOL    HW270311  10.260   2.451   5.048 -1.3913  0.3881  0.6285
21407SOL     OW70312   2.988   1.985   6.808 -0.1734 -0.4411 -0.2993
21407SOL    HW170313   3.012   1.919   6.743 -0.5200 -1.3114  0.4377
21407SOL    HW270314   2.893   1.994   6.800 -0.0857  0.2574 -0.6511
21408SOL     OW70315   3.845   4.113   2.448  0.1149  0.2427 -0.0025
21408SOL    HW170316   3.894   4.090   2.369 -0.3590  2.2039 -0.9421
21408SOL    HW270317   3.755   4.090   2.427  0.2178 -0.8154  0.6595
21409SOL     OW70318   1.363   7.911   5.422 -0.6546  0.4596  0.8733
21409SOL    HW170319   1.458   7.904   5.418 -0.6907 -0.6687  1.4321
21409SOL    HW270320   1.337   7.948   5.338  0.2303  0.2212  0.4908
21410SOL     OW70321   8.929   8.968   5.088  0.0763  0.0677  0.2470
21410SOL    HW170322   8.851   8.934   5.132  1.5044 -0.7481  2.3178
21410SOL    HW270323   8.969   9.027   5.153  1.5283 -0.0420 -0.5093
21411SOL     OW70324   7.928   4.422  10.638  0.0698  0.3768 -0.6278
21411SOL    HW170325   7.957   4.443  10.727 -1.8686  2.1025 -0.3291
21411SOL    HW270326   7.981   4.479  10.582 -0.4814  1.1864 -0.3445
21412SOL     OW70327   3.690   4.155   5.217 -0.6983 -0.5155 -0.2445
21412SOL    HW170328   3.652   4.081   5.263 -1.4090  1.0842  1.9263
21412SOL    HW270329   3.758   4.117   5.160 -0.8197 -2.7561  1.0269
21413SOL     OW70330   6.622   3.890   1.369  0.2024 -0.4568 -0.3619
21413SOL    HW170331   6.595   3.905   1.279  0.9821 -0.8116 -0.6647
21413SOL    HW270332   6.541   3.900   1.420 -0.2518 -0.2831 -1.0940
21414SOL     OW70333   6.701   1.130   5.422  0.0073  0.7216  0.1788
21414SOL    HW170334   6.608   1.129   5.398 -0.2182  2.3813  0.8540
21414SOL    HW270335   6.740   1.063   5.367 -1.9687 -1.7799  1.6119
21415SOL     OW70336  10.096   0.351   4.581  0.2544  0.3153 -0.1151
21415SOL    HW170337  10.164   0.291   4.612 -1.6934 -1.7738  0.3719
21415SOL    HW270338  10.059   0.307   4.504 -2.4303 -0.1195  1.3082
21416SOL     OW70339   4.259   3.573   7.042 -0.2230 -0.3182 -0.2068
21416SOL    HW170340   4.344   3.540   7.072  0.2932 -0.6860 -1.9742
21416SOL    HW270341   4.223   3.619   7.118  2.7277  2.2233 -0.1499
21417SOL     OW70342  10.487   6.432   8.687 -0.2590  0.4699 -0.0712
21417SOL    HW170343  10.492   6.516   8.731 -0.4235  0.0518  0.7657
21417SOL    HW270344  10.484   6.453   8.594 -3.4566  1.5727  0.1430
21418SOL     OW70345   7.000   7.503   2.216  0.2923  0.1058  0.1484
21418SOL    HW170346   6.970   7.414   2.199  1.6968 -0.1168 -1.4062
21418SOL    HW270347   7.070   7.493   2.280  0.9274  0.0006 -0.5526
21419SOL     OW70348   8.353   5.824   9.343  0.2989 -0.1959 -0.0307
21419SOL    HW170349   8.425   5.868   9.298  0.5625 -1.8362 -1.3184
21419SOL    HW270350   8.393   5.748   9.384 -0.3772 -0.0208  0.9884
21420SOL     OW70351   4.203   0.133   4.322  0.0822  0.9476 -0.2079
21420SOL    HW170352   4.123   0.082   4.330  1.3754 -1.4573 -1.6011
21420SOL    HW270353   4.248   0.119   4.406  0.0062  0.5502 -0.2305
21421SOL     OW70354   7.373   8.066   2.658 -0.0886 -0.3072  0.3609
21421SOL    HW170355   7.317   8.119   2.714  0.7461  0.8389  0.1491
21421SOL    HW270356   7.312   8.008   2.611 -1.4469  2.4646 -1.5932
21422SOL     OW70357   0.553   3.207  10.528  0.0143  0.1583  0.5448
21422SOL    HW170358   0.506   3.165  10.600 -1.0922  1.1758  0.4491
21422SOL    HW270359   0.548   3.143  10.456 -1.5553  0.3666  0.4262
21423SOL     OW70360   6.794   9.412   6.543 -0.1106 -0.0693 -0.6013
21423SOL    HW170361   6.862   9.393   6.479 -1.4191 -1.9222 -1.5613
21423SOL    HW270362   6.716   9.429   6.490 -0.3848  2.2465  0.4507
21424SOL     OW70363   9.535   0.723   0.079 -0.1019  0.1697  0.3547
21424SOL    HW170364   9.543   0.628   0.094  0.0531 -0.0785 -1.1485
21424SOL    HW270365   9.530   0.760   0.167  1.0186 -1.1250  1.0135
21425SOL     OW70366   3.211   1.494   8.742 -0.5719  0.2326  0.0518
21425SOL    HW170367   3.244   1.574   8.782  0.6727 -0.2177 -0.0261
21425SOL    HW270368   3.171   1.522   8.660 -2.0256  1.0122  0.9769
21426SOL     OW70369   5.938   7.305   0.580 -0.3587  0.4246 -0.5660
21426SOL    HW170370   5.921   7.278   0.671 -0.3402  1.4938 -0.2297
21426SOL    HW270371   6.029   7.280   0.565  1.1082  4.0798  1.2241
21427SOL     OW70372   0.824   2.406   7.130 -0.0416  1.2254 -0.3021
21427SOL    HW170373   0.736   2.416   7.092 -0.0445 -1.9582 -1.5214
21427SOL    HW270374   0.880   2.458   7.073 -0.6654  0.0423 -2.1046
21428SOL     OW70375   1.752   4.646   5.287 -0.4884 -0.2387 -0.3362
21428SOL    HW170376   1.831   4.593   5.279 -1.1057 -1.2284 -0.0648
21428SOL    HW270377   1.728   4.641   5.379 -0.7918  0.1616 -0.3895
21429SOL     OW70378   6.448   1.162   2.399 -0.4744  0.0924  0.5246
21429SOL    HW170379   6.430   1.069   2.411 -0.4378  0.1357  0.9181
21429SOL    HW270380   6.542   1.171   2.416  0.5374 -0.5093 -3.6597
21430SOL     OW70381   6.110   0.000   7.938 -0.3187  0.3141 -0.0813
21430SOL    HW170382   6.124   0.095   7.934  0.1014  0.2603  0.1245
21430SOL    HW270383   6.029  -0.014   7.888 -2.6293  1.2668  3.0486
21431SOL     OW70384   7.627   6.393   1.114 -0.0465  0.4822 -0.3132
21431SOL    HW170385   7.675   6.447   1.052 -0.0889  1.3523  0.3824
21431SOL    HW270386   7.583   6.456   1.171  1.1889 -0.2118  1.5369
21432SOL     OW70387   0.565   7.355   3.528  0.1975  0.1511  0.1947
21432SOL    HW170388   0.504   7.327   3.597  0.7445 -1.1286  0.1895
21432SOL    HW270389   0.634   7.289   3.529  2.1603  2.0796  0.8952
21433SOL     OW70390   5.838  10.041   8.693  0.0195  0.0336 -0.1859
21433SOL    HW170391   5.845   9.948   8.672 -1.6348 -0.6585  1.9277
21433SOL    HW270392   5.874  10.086   8.616  1.4821 -2.3237 -1.0027
21434SOL     OW70393  10.885   7.942   7.527  0.1246  0.1157 -0.5524
21434SOL    HW170394  10.965   7.900   7.558  0.2811 -0.0013 -1.0996
21434SOL    HW270395  10.838   7.967   7.607 -0.4440 -1.9917 -0.1404
21435SOL     OW70396   3.303   5.359   9.032 -0.6166 -0.3714  0.0796
21435SOL    HW170397   3.325   5.421   8.963 -0.6122 -0.1864  0.2477
21435SOL    HW270398   3.300   5.274   8.987  2.7033 -0.7987  0.4223
21436SOL     OW70399   5.030   3.527   7.576  0.1135  0.5582  0.4047
21436SOL    HW170400   5.001   3.551   7.664  1.3055 -1.0241  1.2776
21436SOL    HW270401   5.058   3.436   7.584 -1.2310 -0.1484 -1.9994
21437SOL     OW70402   6.566   2.764   2.170 -0.0918  0.0676  0.1216
21437SOL    HW170403   6.564   2.681   2.218  0.7292 -0.9668 -1.5551
21437SOL    HW270404   6.651   2.764   2.126 -1.0195  0.7047 -1.7562
21438SOL     OW70405   8.054   5.147   8.221 -0.5080 -0.3347  0.7839
21438SOL    HW170406   8.135   5.097   8.209  0.7852  0.8985  3.4658
21438SOL    HW270407   8.064   5.223   8.165  0.5635  0.1578  1.6014
21439SOL     OW70408   5.251   0.203   8.308 -0.1299  0.0551  0.0276
21439SOL    HW170409   5.185   0.136   8.325 -0.2076 -0.4771 -2.0957
21439SOL    HW270410   5.318   0.159   8.256  1.1634  0.9851  0.8227
21440SOL     OW70411   7.156   3.507   6.104 -0.1905 -0.0177  0.0669
21440SOL    HW170412   7.149   3.599   6.129  1.5629  0.4340 -0.9208
21440SOL    HW270413   7.250   3.494   6.089 -0.6187 -1.4496 -1.6829
21441SOL     OW70414  10.212   0.782   0.158 -0.5381  0.2834  0.0624
21441SOL    HW170415  10.191   0.866   0.201  0.3240  0.1772  0.7279
21441SOL    HW270416  10.173   0.716   0.215 -1.2799  0.2263 -0.5023
21442SOL     OW70417   4.355   3.811   1.250  0.2330  0.6727 -0.4090
21442SOL    HW170418   4.450   3.825   1.254  0.3839 -0.5129  2.2582
21442SOL    HW270419   4.321   3.891   1.210  2.1798  2.3076  0.9537
21443SOL     OW70420   9.664   3.173   2.611 -0.4797 -0.1320  0.0925
21443SOL    HW170421   9.756   3.168   2.587 -0.8037  0.8511 -1.4947
21443SOL    HW270422   9.626   3.236   2.550 -2.7602 -2.5016 -1.1797
21444SOL     OW70423  10.093   9.408   3.713 -0.6636 -0.5333 -0.6129
21444SOL    HW170424  10.097   9.436   3.805 -1.3784 -1.3634 -0.3174
21444SOL    HW270425  10.184   9.396   3.688 -0.4560 -0.1896 -0.0423
21445SOL     OW70426   5.399   0.985   6.544  0.0693  0.1523  0.3221
21445SOL    HW170427   5.335   0.945   6.603 -0.2806 -1.5183 -1.1090
21445SOL    HW270428   5.454   0.912   6.516 -0.0668  0.8009 -1.7519
21446SOL     OW70429   9.227   2.574   2.726 -0.1989 -0.0325 -0.7797
21446SOL    HW170430   9.299   2.513   2.746 -0.4705  0.1548  0.9174
21446SOL    HW270431   9.270   2.659   2.717 -0.3739  0.6251  3.0392
21447SOL     OW70432   1.438   3.270   4.510  0.2344  0.0153  0.3543
21447SOL    HW170433   1.437   3.320   4.428  0.6911  0.7692  0.7961
21447SOL    HW270434   1.531   3.254   4.527  0.2049  0.6116  1.1564
21448SOL     OW70435   1.969   1.682   4.099 -0.8676  0.2021  0.1092
21448SOL    HW170436   1.973   1.664   4.005  1.7410 -1.4551  0.4428
21448SOL    HW270437   1.908   1.617   4.134 -2.5484  1.3952 -0.4882
21449SOL     OW70438   1.695   7.396   8.611 -0.4587  0.5431  0.1094
21449SOL    HW170439   1.751   7.387   8.533  1.5297  0.2784  1.4846
21449SOL    HW270440   1.703   7.489   8.634  1.8021  0.0038  1.8942
21450SOL     OW70441   7.577   3.139   1.582  0.2324  0.0778 -0.6774
21450SOL    HW170442   7.542   3.078   1.518 -0.2605 -0.8086  0.4211
21450SOL    HW270443   7.592   3.087   1.660  0.9434  1.1168 -0.0889
21451SOL     OW70444   0.432   8.513   6.833 -0.1623 -0.7531 -0.4123
21451SOL    HW170445   0.443   8.538   6.924  0.8915 -1.1118 -0.4265
21451SOL    HW270446   0.449   8.419   6.831  3.2722 -0.2756 -1.4290
21452SOL     OW70447   8.175   5.576   8.036 -0.0587 -0.3489  0.0335
21452SOL    HW170448   8.268   5.556   8.027  0.0566 -0.0148  0.4337
21452SOL    HW270449   8.169   5.670   8.017 -0.2028 -0.2112  0.7238
21453SOL     OW70450   6.492   0.666   5.211  0.3231 -0.3571  0.2319
21453SOL    HW170451   6.424   0.615   5.168  0.1445 -2.4245  2.7495
21453SOL    HW270452   6.541   0.705   5.139 -1.3127 -1.7142 -1.7480
21454SOL     OW70453   0.268   6.031   0.199 -0.1009 -0.1549  0.0247
21454SOL    HW170454   0.249   5.950   0.247 -0.4663 -0.3384 -0.4209
21454SOL    HW270455   0.306   6.089   0.264  2.0096 -1.3542 -0.0616
21455SOL     OW70456   9.399   0.191   4.942 -0.1247  0.2595 -0.0375
21455SOL    HW170457   9.424   0.237   5.022  1.0190 -0.7949  0.2365
21455SOL    HW270458   9.434   0.102   4.953 -1.1075 -0.2951 -1.1299
21456SOL     OW70459   5.493  10.271   7.326 -0.5329 -0.4281 -0.5716
21456SOL    HW170460   5.541  10.278   7.408 -1.3103  1.3203 -0.2224
21456SOL    HW270461   5.551  10.308   7.260 -0.2932 -0.9558 -0.6683
21457SOL     OW70462   0.660   5.339   2.792  0.6528  0.3366 -0.5678
21457SOL    HW170463   0.739   5.357   2.741  0.4069  0.8393 -0.7770
21457SOL    HW270464   0.588   5.366   2.735  0.2406 -1.5111 -0.9855
21458SOL     OW70465   0.914   8.016   9.958  0.1873 -0.3133  0.2390
21458SOL    HW170466   0.894   8.109   9.948  3.0008  0.3700  0.1694
21458SOL    HW270467   0.839   7.971   9.918 -1.1153  1.9008  0.0357
21459SOL     OW70468   7.446   0.651   9.897 -0.7131 -0.5990  0.2127
21459SOL    HW170469   7.422   0.564   9.864  1.5853 -1.2090 -0.0563
21459SOL    HW270470   7.542   0.652   9.894 -0.5201  0.8271  3.1376
21460SOL     OW70471  10.750   9.347   1.134  0.4197 -0.1674  0.1208
21460SOL    HW170472  10.782   9.396   1.210 -0.1539  0.4252 -0.0049
21460SOL    HW270473  10.721   9.263   1.171  1.4557 -0.4529  0.3312
21461SOL     OW70474   5.418  10.533   0.583  0.0044  0.1216 -0.3564
21461SOL    HW170475   5.349  10.526   0.517  0.6153 -0.5109 -0.9402
21461SOL    HW270476   5.372  10.558   0.663 -0.7583  0.8843 -1.0063
21462SOL     OW70477   1.318   4.648   4.438 -0.2899 -0.2258  0.0680
21462SOL    HW170478   1.231   4.628   4.474  0.3581 -0.7914  1.4009
21462SOL    HW270479   1.347   4.566   4.398  0.0933 -0.3744  0.6401
21463SOL     OW70480   3.157   4.259   9.715  0.1950 -0.6251  0.4616
21463SOL    HW170481   3.220   4.314   9.761 -0.2791 -0.5558  1.0410
21463SOL    HW270482   3.134   4.309   9.636 -0.0850 -0.0794  0.8850
21464SOL     OW70483   7.990   6.377   0.934  0.4628 -0.2330  0.0630
21464SOL    HW170484   7.986   6.325   1.014  2.7036 -1.4274 -0.5425
21464SOL    HW270485   7.941   6.326   0.869  0.8173 -0.5177  0.0209
21465SOL     OW70486   3.177  10.117   8.438  0.1299  0.0848 -0.1391
21465SOL    HW170487   3.201  10.057   8.367 -1.1596 -1.1652  0.4127
21465SOL    HW270488   3.222  10.082   8.514  2.0542  1.8151 -0.4102
21466SOL     OW70489   0.723   4.890   0.342  0.2205 -0.3719  0.4529
21466SOL    HW170490   0.693   4.812   0.389  1.7725 -0.4343  1.3970
21466SOL    HW270491   0.808   4.911   0.381 -0.3157  2.0257  0.4705
21467SOL     OW70492   8.206   6.441   0.515  0.1116  0.1029  0.4543
21467SOL    HW170493   8.215   6.406   0.604 -0.4377 -0.8688  0.1340
21467SOL    HW270494   8.207   6.536   0.527  0.1437 -0.0164  1.4863
21468SOL     OW70495   4.460   6.753   0.248  0.3688  0.3643  0.1841
21468SOL    HW170496   4.385   6.765   0.306 -0.1368  0.2355 -0.4372
21468SOL    HW270497   4.534   6.736   0.307 -0.2150 -0.1584  0.7715
21469SOL     OW70498   3.233   3.191   3.542  1.0271  0.2876  0.0341
21469SOL    HW170499   3.139   3.208   3.551  1.1178  0.8154  0.0334
21469SOL    HW270500   3.238   3.109   3.493  0.5610 -0.1068  0.6296
21470SOL     OW70501   0.237   0.847  10.391  0.1811  0.6644  0.3617
21470SOL    HW170502   0.294   0.781  10.352 -2.1738 -0.1761 -1.8690
21470SOL    HW270503   0.214   0.811  10.477  0.1061 -0.7049 -0.2174
21471SOL     OW70504   7.680   0.446   1.368 -0.2064  0.1274  0.2321
21471SOL    HW170505   7.621   0.519   1.381 -1.0407 -0.1272 -1.7253
21471SOL    HW270506   7.651   0.406   1.286  1.7258 -0.9455  0.0061
21472SOL     OW70507   1.977   6.745   2.700 -0.3966 -0.1258 -1.0439
21472SOL    HW170508   2.006   6.663   2.740 -1.1835 -0.2026 -0.6192
21472SOL    HW270509   1.906   6.776   2.757 -0.1169  0.8455 -1.2014
21473SOL     OW70510   5.281   5.789   9.027 -0.1210  0.2383  0.7135
21473SOL    HW170511   5.262   5.790   9.121 -1.6742 -1.1821  0.4580
21473SOL    HW270512   5.203   5.750   8.987  0.4227  1.0203 -1.1991
21474SOL     OW70513   6.070   0.400   1.725  0.0592 -0.3877 -0.1599
21474SOL    HW170514   6.080   0.479   1.778  2.1233  0.4074 -1.6061
21474SOL    HW270515   6.018   0.429   1.650  0.0354 -0.6380 -0.2391
21475SOL     OW70516   4.369   2.901   5.153 -0.2990  0.2935 -0.4719
21475SOL    HW170517   4.440   2.837   5.155  0.0085  0.6301  0.8982
21475SOL    HW270518   4.344   2.911   5.245 -2.8079 -0.5235 -1.0044
21476SOL     OW70519   0.906   3.450   4.600  0.0006  1.0382 -0.0814
21476SOL    HW170520   0.926   3.472   4.691 -1.4716  1.1094  0.2459
21476SOL    HW270521   0.854   3.370   4.605  1.8308 -0.2888 -1.0228
21477SOL     OW70522   2.993   3.443   4.415 -0.0441  0.2787 -0.4807
21477SOL    HW170523   3.005   3.397   4.332 -0.1352 -0.1030 -0.2815
21477SOL    HW270524   2.951   3.526   4.390  0.9829  0.6750 -0.9444
21478SOL     OW70525   1.844   5.128   1.217  0.3023 -0.4170  0.4810
21478SOL    HW170526   1.824   5.039   1.248 -1.2482  0.2256  1.4911
21478SOL    HW270527   1.762   5.158   1.179  0.6400  0.7750  0.6687
21479SOL     OW70528   8.539   8.615   5.952  0.1618 -0.3712  0.0023
21479SOL    HW170529   8.629   8.642   5.934  0.3951 -2.1399 -1.9529
21479SOL    HW270530   8.493   8.630   5.869 -0.7586 -1.6039  0.2590
21480SOL     OW70531   9.750   3.360   5.120  0.3254  0.2882 -0.3240
21480SOL    HW170532   9.684   3.412   5.074  0.2502 -1.0109 -1.7132
21480SOL    HW270533   9.703   3.284   5.153  1.1168 -0.7127 -1.4273
21481SOL     OW70534  10.415   5.239   9.765 -0.1174 -0.2450  0.9863
21481SOL    HW170535  10.488   5.218   9.822  1.3443 -0.1079 -0.7573
21481SOL    HW270536  10.419   5.175   9.695  0.7816  2.0245 -1.2091
21482SOL     OW70537   5.424   7.304   1.260  0.0670 -0.3227  0.0858
21482SOL    HW170538   5.503   7.268   1.301 -0.7526  0.2512  2.2679
21482SOL    HW270539   5.398   7.236   1.197  1.5680 -1.0892  0.2323
21483SOL     OW70540   9.981   7.300   1.094  0.6721 -0.2489  0.0799
21483SOL    HW170541   9.975   7.258   1.008  1.6438 -3.3692  1.4057
21483SOL    HW270542   9.891   7.322   1.116  0.2868 -0.3564 -1.2716
21484SOL     OW70543  10.119   2.782   4.274 -0.5588 -0.0517 -0.2294
21484SOL    HW170544  10.174   2.806   4.348  1.3124 -0.0190 -1.5719
21484SOL    HW270545  10.127   2.855   4.213 -0.8940 -0.7183 -1.0975
21485SOL     OW70546   0.453   8.886  10.551  0.0715  0.0594 -0.1443
21485SOL    HW170547   0.467   8.867  10.644 -1.7123 -0.1296  0.1108
21485SOL    HW270548   0.480   8.977  10.541  0.0532  0.1488  0.6005
21486SOL     OW70549   9.663   8.553   9.492  0.3800 -0.2308 -0.6750
21486SOL    HW170550   9.656   8.534   9.398  0.9998  0.4389 -0.8670
21486SOL    HW270551   9.734   8.617   9.498  0.0743  0.0358  0.2146
21487SOL     OW70552   0.821   9.862  10.762 -0.2441 -0.0544  0.2269
21487SOL    HW170553   0.904   9.816  10.771 -0.2537 -0.0530  0.3196
21487SOL    HW270554   0.835   9.946  10.806 -0.7981 -0.6778  1.6630
21488SOL     OW70555   6.577   5.219   6.381  0.0426 -0.1169  0.7333
21488SOL    HW170556   6.584   5.167   6.301  0.4514  0.3210  0.4773
21488SOL    HW270557   6.504   5.279   6.364  1.4019  1.3558 -0.1337
21489SOL     OW70558   4.764   9.230   2.881  0.0311  0.2071  0.3280
21489SOL    HW170559   4.768   9.307   2.825  0.3718 -0.2014 -0.2108
21489SOL    HW270560   4.794   9.158   2.826  0.7338 -0.1368  1.1372
21490SOL     OW70561   1.904   1.584   4.804  0.4108 -1.1731  0.3321
21490SOL    HW170562   1.954   1.508   4.772  0.9877 -1.5137  1.9880
21490SOL    HW270563   1.813   1.554   4.803  0.6725 -2.0518  1.3477
21491SOL     OW70564   4.410  10.312   6.017 -0.2655 -0.1351  0.9169
21491SOL    HW170565   4.367  10.254   6.080 -0.2976 -1.2432 -0.0867
21491SOL    HW270566   4.482  10.352   6.067 -1.6056  0.7262  2.2383
21492SOL     OW70567   6.615   6.582   9.374  0.8303 -0.2246 -0.0537
21492SOL    HW170568   6.620   6.491   9.403  0.5394 -0.5293 -0.9315
21492SOL    HW270569   6.694   6.595   9.323  0.5001 -0.2259 -0.5751
21493SOL     OW70570   5.766   5.862   6.139  0.2818  0.2846  0.3244
21493SOL    HW170571   5.841   5.833   6.088  0.6698  0.4882  0.7765
21493SOL    HW270572   5.694   5.867   6.076  0.7626  0.5535 -0.2012
21494SOL     OW70573  10.888   5.867   7.780  0.2755  0.0048 -0.0784
21494SOL    HW170574  10.861   5.853   7.689 -0.1708  0.7693 -0.0757
21494SOL    HW270575  10.899   5.779   7.816  1.4858 -0.3223 -1.1587
21495SOL     OW70576   4.901   3.364   8.107  0.6204 -0.5462 -0.4189
21495SOL    HW170577   4.977   3.306   8.116  0.3115 -1.0973 -1.2479
21495SOL    HW270578   4.901   3.416   8.187  1.7076 -0.7361 -0.2791
21496SOL     OW70579   3.569   4.112   0.576  0.3023  1.5019  0.0655
21496SOL    HW170580   3.553   4.121   0.670  1.2987  1.2121  0.2756
21496SOL    HW270581   3.629   4.038   0.569  0.9053  2.0483 -0.7313
21497SOL     OW70582   6.969   7.050   0.998  0.1329 -0.3149  0.2950
21497SOL    HW170583   6.944   7.050   0.906 -0.2649  0.5041  0.3855
21497SOL    HW270584   7.043   6.991   1.004 -1.8931 -3.0619  0.0364
21498SOL     OW70585   1.671   7.104   7.297  0.2482 -0.2862  0.2286
21498SOL    HW170586   1.601   7.085   7.235  2.3731 -1.4454 -2.0199
21498SOL    HW270587   1.715   7.181   7.261  0.9173 -0.3763  0.8274
21499SOL     OW70588   1.693   3.555   5.895  0.4494  0.1499 -0.2223
21499SOL    HW170589   1.685   3.625   5.960 -0.0550  0.5022 -0.6669
21499SOL    HW270590   1.787   3.536   5.893  0.6033  0.8705 -0.1652
21500SOL     OW70591   9.892   3.696   0.524 -0.1495  0.0847 -0.1626
21500SOL    HW170592   9.893   3.632   0.453  1.8749  0.0494 -0.1684
21500SOL    HW270593   9.857   3.648   0.599  0.2787 -0.7016 -0.4531
21501SOL     OW70594   3.803   1.870   4.409 -0.3180 -0.2692  0.7017
21501SOL    HW170595   3.778   1.813   4.336 -2.3535  0.7786  0.5052
21501SOL    HW270596   3.800   1.814   4.486 -0.5738 -0.8371  0.2862
21502SOL     OW70597   1.734   7.789   4.605  0.0468 -0.5037  0.9012
21502SOL    HW170598   1.702   7.734   4.677 -1.7632 -0.7220  0.0020
21502SOL    HW270599   1.742   7.876   4.644 -0.3045 -0.7349  1.5235
21503SOL     OW70600   2.422   2.989   5.049 -0.7192 -0.2627 -0.5807
21503SOL    HW170601   2.370   3.040   4.987 -1.4271  2.9360  2.3168
21503SOL    HW270602   2.508   3.032   5.049 -0.6675 -0.3429  0.4682
21504SOL     OW70603   2.095   1.608   8.610 -0.5994  0.7100  0.4759
21504SOL    HW170604   2.012   1.569   8.584 -0.6576  1.2827 -0.2231
21504SOL    HW270605   2.157   1.581   8.542 -0.5442  1.4625  0.2182
21505SOL     OW70606  10.806   2.212  10.517  0.6870  0.4856 -0.0506
21505SOL    HW170607  10.853   2.249  10.443  0.7962  0.2015 -0.1230
21505SOL    HW270608  10.719   2.252  10.512 -0.1405 -1.3618 -1.7942
21506SOL     OW70609   7.176  10.755   5.120 -0.3603 -0.5697  0.1086
21506SOL    HW170610   7.170  10.843   5.157  1.0297 -0.0520 -0.8064
21506SOL    HW270611   7.161  10.768   5.026  1.5120 -1.0145 -0.2947
21507SOL     OW70612   2.117   7.919   9.865 -0.1246 -0.4582 -0.2441
21507SOL    HW170613   2.149   7.977   9.796 -1.3528  1.1594  0.4801
21507SOL    HW270614   2.033   7.887   9.832 -0.0418 -0.8250 -0.1007
21508SOL     OW70615   6.162   8.465   0.221  0.2341 -0.1715 -0.0763
21508SOL    HW170616   6.155   8.446   0.314 -0.4747  1.4768  0.2324
21508SOL    HW270617   6.219   8.542   0.216 -2.5008  2.0019 -0.6435
21509SOL     OW70618   3.598   8.142   8.522  0.0533  0.2324  0.1882
21509SOL    HW170619   3.653   8.126   8.598 -1.0810  0.2928  1.0402
21509SOL    HW270620   3.526   8.080   8.531  0.0933 -0.0314 -1.0551
21510SOL     OW70621   0.729  10.443   1.692  0.6734 -0.2704  0.0992
21510SOL    HW170622   0.633  10.449   1.693  0.6493 -0.6776  0.2857
21510SOL    HW270623   0.747  10.356   1.657  0.9825 -0.0623 -0.2570
21511SOL     OW70624   5.167   6.410   4.116 -0.0756 -0.5891 -0.0956
21511SOL    HW170625   5.191   6.503   4.111  1.5542 -0.9672 -0.0369
21511SOL    HW270626   5.076   6.407   4.086 -0.0120  0.9644 -0.5476
21512SOL     OW70627   6.906   3.817   1.738 -0.2066 -0.0136 -0.3971
21512SOL    HW170628   6.896   3.722   1.725  0.1991 -0.3986  1.8047
21512SOL    HW270629   6.820   3.846   1.768 -0.6427  0.5572 -2.0715
21513SOL     OW70630   1.509   7.756   1.994 -0.5485 -0.4120 -0.4535
21513SOL    HW170631   1.427   7.711   2.014 -0.8540 -0.1432 -1.0903
21513SOL    HW270632   1.491   7.806   1.915 -0.1562  0.6644  0.1148
21514SOL     OW70633   7.783   7.682   8.673 -0.0273  0.3001 -0.0944
21514SOL    HW170634   7.838   7.756   8.650 -0.5587  0.5532 -0.5713
21514SOL    HW270635   7.733   7.663   8.594 -0.0306 -0.4497  0.0748
21515SOL     OW70636   2.856   5.790   1.575 -0.0553  0.0884 -0.3827
21515SOL    HW170637   2.774   5.799   1.526 -0.4814  1.1972  0.4703
21515SOL    HW270638   2.870   5.696   1.583 -0.9856 -0.1088 -0.9636
21516SOL     OW70639  10.438   9.933   6.687  0.0443 -0.7078  0.3196
21516SOL    HW170640  10.366   9.991   6.662  1.5962  1.1910  0.0251
21516SOL    HW270641  10.416   9.906   6.776 -0.6566  0.4710  0.5294
21517SOL     OW70642   7.994   1.711   4.924 -0.2707 -0.5416  0.3986
21517SOL    HW170643   7.905   1.675   4.917  0.0388 -1.6152  1.6152
21517SOL    HW270644   8.008   1.722   5.018  1.1824 -1.1905  0.2896
21518SOL     OW70645  10.053   8.520   0.678 -0.5178  0.2770  0.4935
21518SOL    HW170646   9.966   8.517   0.637 -1.0673 -0.5067  1.6788
21518SOL    HW270647  10.075   8.429   0.695  0.8427  0.4117 -0.3459
21519SOL     OW70648  10.596  10.819   2.013  0.3743 -0.1682  0.1226
21519SOL    HW170649  10.603  10.727   1.988 -0.0306  0.1099 -1.1130
21519SOL    HW270650  10.508  10.827   2.050  0.7295 -0.4437  1.0569
21520SOL     OW70651   8.565   3.062   5.755  0.0574 -0.1713 -0.3870
21520SOL    HW170652   8.521   2.987   5.797 -1.0877 -0.4343 -1.9500
21520SOL    HW270653   8.640   3.080   5.811 -0.8846 -1.0685  1.2556
21521SOL     OW70654   6.314   5.402   7.279 -0.4748  0.1523  0.2843
21521SOL    HW170655   6.355   5.439   7.200 -0.3338 -1.3424 -0.3818
21521SOL    HW270656   6.231   5.448   7.287 -0.4131  0.4418 -0.6551
21522SOL     OW70657   9.734   3.736   6.235  0.4442 -0.2032 -0.1745
21522SOL    HW170658   9.712   3.806   6.173 -1.9864  0.2203  1.0494
21522SOL    HW270659   9.783   3.780   6.304  1.3544 -0.2879 -0.7447
21523SOL     OW70660   3.048   8.882   7.995  0.2601  0.1226  0.0747
21523SOL    HW170661   2.969   8.932   7.977 -0.2889 -0.6333  0.3034
21523SOL    HW270662   3.073   8.845   7.911  0.6285  0.7250 -0.0813
21524SOL     OW70663  10.085   2.072   9.470 -0.1513 -0.1826 -0.4087
21524SOL    HW170664  10.125   1.986   9.485 -0.0873 -0.3643 -1.4802
21524SOL    HW270665  10.087   2.082   9.374 -3.4892 -0.6074 -0.6131
21525SOL     OW70666   4.971  10.108   1.637 -0.2215  0.1514  0.6098
21525SOL    HW170667   5.063  10.114   1.665  0.0976 -1.1046 -0.1159
21525SOL    HW270668   4.948  10.016   1.650 -0.3810 -0.2899 -2.1857
21526SOL     OW70669   3.077   5.344  10.413 -0.0071 -0.6657  0.7200
21526SOL    HW170670   2.986   5.349  10.443 -0.1554  0.3704  0.1217
21526SOL    HW270671   3.102   5.434  10.396  1.4042 -0.8592  1.6052
21527SOL     OW70672   5.507   2.735  10.574  0.3755 -0.3212  0.0348
21527SOL    HW170673   5.450   2.674  10.528 -0.9567  0.0412  1.1147
21527SOL    HW270674   5.514   2.810  10.515  0.5706 -0.7930 -0.5474
21528SOL     OW70675   5.549   1.981  10.618  0.0583  0.2098  0.2964
21528SOL    HW170676   5.488   2.051  10.596  1.6292  1.7971  0.7580
21528SOL    HW270677   5.523   1.953  10.706 -0.3701  0.4675  0.2519
21529SOL     OW70678   1.508   0.031   0.781 -0.5388 -0.7935  0.1143
21529SOL    HW170679   1.431  -0.002   0.827 -0.0532 -0.2558  1.3696
21529SOL    HW270680   1.558  -0.048   0.758 -1.7801 -1.2028 -1.3833
21530SOL     OW70681  10.839   2.998   2.089 -0.2372 -0.5420 -0.3556
21530SOL    HW170682  10.871   3.053   2.017  1.9708  0.9321  1.6161
21530SOL    HW270683  10.783   3.056   2.141  0.8346 -0.5856  0.8824
21531SOL     OW70684   0.081   6.904   4.843  0.0876  0.4445 -0.3036
21531SOL    HW170685   0.108   6.983   4.795  1.0564 -0.4787 -1.3537
21531SOL    HW270686   0.148   6.893   4.910  0.8346 -0.3072 -1.1411
21532SOL     OW70687   5.682   7.409   8.746  0.1667 -1.3220  0.1918
21532SOL    HW170688   5.593   7.396   8.713  0.8753 -2.3933 -1.4645
21532SOL    HW270689   5.702   7.328   8.792  0.5662 -1.4539 -0.2013
21533SOL     OW70690   9.965   6.689   6.493  0.6766 -0.1352 -0.1195
21533SOL    HW170691   9.941   6.752   6.425  0.6968 -0.1848 -0.1734
21533SOL    HW270692  10.061   6.689   6.492  0.6748 -0.3488 -0.2899
21534SOL     OW70693   8.877   5.724   5.739 -0.2156  0.2611  0.2367
21534SOL    HW170694   8.813   5.794   5.726  1.2113  1.6024  0.1506
21534SOL    HW270695   8.955   5.754   5.693  1.1586 -0.3721  2.0373
21535SOL     OW70696   6.024   6.249  10.202  0.0523 -0.0626 -0.2942
21535SOL    HW170697   5.958   6.291  10.147  0.6074  0.0005 -0.9196
21535SOL    HW270698   5.995   6.158  10.209 -1.3301  0.4467  1.3317
21536SOL     OW70699   2.163   3.036   1.152 -0.1200 -0.5123  0.5756
21536SOL    HW170700   2.106   3.112   1.140  1.3154  0.8235  1.9011
21536SOL    HW270701   2.134   2.997   1.234  0.5097 -0.1558  0.9692
21537SOL     OW70702  10.160   2.875   1.465 -0.1570 -0.3895  0.2486
21537SOL    HW170703  10.117   2.809   1.411  1.7474 -0.1969 -1.5886
21537SOL    HW270704  10.248   2.842   1.479  0.7557  1.5949 -0.4712
21538SOL     OW70705   6.348   3.288  10.395  0.0272  0.0307 -0.2742
21538SOL    HW170706   6.418   3.229  10.365 -0.4298  0.5684 -2.5721
21538SOL    HW270707   6.277   3.229  10.420  0.8169 -0.4736  0.9004
21539SOL     OW70708   1.726   1.998   9.545 -0.5213 -0.1108 -0.3023
21539SOL    HW170709   1.788   2.037   9.483 -0.9592  1.5778  0.2833
21539SOL    HW270710   1.673   1.939   9.491 -0.1931  0.5089 -1.3372
21540SOL     OW70711   6.979   3.662   9.258 -0.1372  0.2207 -0.7919
21540SOL    HW170712   7.026   3.685   9.178  0.0087 -0.8772 -1.0366
21540SOL    HW270713   6.901   3.718   9.256  0.2172  0.7155 -1.3316
21541SOL     OW70714   3.612   4.882   9.798 -0.1682 -0.2219  0.1330
21541SOL    HW170715   3.595   4.965   9.842  0.6939  0.5292 -0.9101
21541SOL    HW270716   3.696   4.853   9.833  1.8103  1.6137 -2.6404
21542SOL     OW70717   0.867   9.657  10.145  0.0864 -0.3484 -0.1873
21542SOL    HW170718   0.908   9.742  10.164 -1.4378  0.1344  1.1448
21542SOL    HW270719   0.882   9.605  10.224 -0.2785 -0.7860 -0.4051
21543SOL     OW70720   3.570   6.089   5.477  0.3236 -0.6497  0.1560
21543SOL    HW170721   3.549   6.016   5.419 -0.4218  0.6775 -1.3306
21543SOL    HW270722   3.486   6.130   5.495  0.6587 -0.4821  1.4761
21544SOL     OW70723   1.675   7.894   9.574 -0.2174  0.7187 -0.1795
21544SOL    HW170724   1.665   7.887   9.669 -1.0398  3.0012 -0.0151
21544SOL    HW270725   1.732   7.970   9.562  1.6454 -0.8016 -1.5333
21545SOL     OW70726   5.664   8.212   2.728 -0.1626  0.2409  0.2928
21545SOL    HW170727   5.733   8.201   2.662 -0.0944 -0.4858  0.4811
21545SOL    HW270728   5.586   8.175   2.687  0.2329 -1.6911  1.2094
21546SOL     OW70729   7.210   6.712   9.128 -0.6003  0.4474 -0.3366
21546SOL    HW170730   7.174   6.700   9.216 -0.0158  2.7252  0.2732
21546SOL    HW270731   7.296   6.753   9.143 -0.7717  1.4941 -1.9781
21547SOL     OW70732   0.921   6.717   2.587 -0.2392  0.2313  0.0514
21547SOL    HW170733   0.879   6.698   2.671  0.6495  0.5147  0.5759
21547SOL    HW270734   1.007   6.751   2.611  0.7452 -1.3847 -0.9975
21548SOL     OW70735   1.636   4.084   2.257 -0.2924  0.7770 -0.2313
21548SOL    HW170736   1.636   4.107   2.350 -0.2646  0.8588 -0.2512
21548SOL    HW270737   1.554   4.121   2.224  0.0977  1.5035 -0.4225
21549SOL     OW70738   8.519   1.599  10.579  0.3085 -0.6818 -0.1820
21549SOL    HW170739   8.527   1.637  10.667  0.8100 -1.7934  0.2839
21549SOL    HW270740   8.460   1.525  10.591  1.1947 -1.4760 -0.5477
21550SOL     OW70741  10.716   6.801   1.161  0.3202  0.2392 -0.4422
21550SOL    HW170742  10.711   6.866   1.230 -0.0309  0.4222 -0.6387
21550SOL    HW270743  10.667   6.726   1.194  1.0559 -0.0854 -0.0516
21551SOL     OW70744  10.577   7.850   5.528 -0.0949 -0.2614 -0.2277
21551SOL    HW170745  10.485   7.874   5.536  0.4212  1.1052  3.1446
21551SOL    HW270746  10.584   7.765   5.573  0.1933 -0.6736 -1.0354
21552SOL     OW70747   0.325   2.384   3.143  0.0725 -0.1504 -0.7405
21552SOL    HW170748   0.351   2.416   3.057 -0.2126  0.9374 -0.4414
21552SOL    HW270749   0.365   2.445   3.205  1.9632 -2.0453  0.0383
21553SOL     OW70750   7.286   0.436   8.190 -0.2144 -0.2706  0.4358
21553SOL    HW170751   7.204   0.444   8.140 -0.4586  0.7767  0.9957
21553SOL    HW270752   7.266   0.473   8.276  0.6580 -0.6409  0.8085
21554SOL     OW70753   3.960   3.834  10.215 -0.2749 -0.3836 -0.1497
21554SOL    HW170754   3.964   3.754  10.162 -1.3754  0.5676 -1.7662
21554SOL    HW270755   4.051   3.852  10.238  0.4725 -0.1837 -2.8427
21555SOL     OW70756  10.315   0.333   1.363 -0.0735 -0.0793 -0.2459
21555SOL    HW170757  10.370   0.333   1.285 -1.8884  1.6660 -1.6246
21555SOL    HW270758  10.376   0.346   1.435  1.3715  1.6717 -1.6723
21556SOL     OW70759   4.806  10.448   0.592 -0.4463 -0.1133  0.3929
21556SOL    HW170760   4.735  10.513   0.585 -2.2359 -1.9569  0.6075
21556SOL    HW270761   4.775  10.374   0.541 -0.0309 -2.1001  2.8431
21557SOL     OW70762   3.233   2.303   8.067 -0.3056 -0.5677  0.1049
21557SOL    HW170763   3.162   2.241   8.049 -0.1039 -0.6931 -0.2696
21557SOL    HW270764   3.307   2.269   8.017  0.1396 -0.6714  0.8372
21558SOL     OW70765   3.930   1.522   0.861  0.2281 -0.2967 -0.2947
21558SOL    HW170766   3.945   1.616   0.860 -0.9519 -0.0883 -0.3999
21558SOL    HW270767   3.934   1.495   0.770  1.4680 -0.5265 -0.1925
21559SOL     OW70768   2.037   4.284   4.114 -0.5436 -0.1471 -0.2177
21559SOL    HW170769   2.101   4.304   4.045  1.1055 -0.2007  1.2143
21559SOL    HW270770   2.090   4.275   4.194 -2.5563  1.7948  1.4614
21560SOL     OW70771   8.569   6.814   6.843 -0.1002 -0.4885  0.4171
21560SOL    HW170772   8.653   6.792   6.802 -0.8199 -0.8094 -0.9470
21560SOL    HW270773   8.590   6.883   6.905  1.1170 -0.2621 -0.2070
21561SOL     OW70774  10.099  10.753   0.761  0.0276 -0.2089  0.5386
21561SOL    HW170775  10.170  10.789   0.708 -0.6312  1.1153  0.5064
21561SOL    HW270776  10.062  10.682   0.708  1.6900 -1.3401  0.8259
21562SOL     OW70777   7.127   6.429   6.442 -0.7582  0.0168  0.1169
21562SOL    HW170778   7.068   6.450   6.514 -0.9714  0.4540 -0.1827
21562SOL    HW270779   7.209   6.403   6.485 -0.8912  0.2522  0.5179
21563SOL     OW70780   1.125  10.769   2.486 -0.3902 -0.0489 -0.6847
21563SOL    HW170781   1.177  10.818   2.423  0.8303 -1.0584 -0.4909
21563SOL    HW270782   1.100  10.689   2.441  0.3736 -0.7150  0.0412
21564SOL     OW70783  10.641   6.388   9.629  0.0365 -0.0316  0.3494
21564SOL    HW170784  10.667   6.475   9.659  0.6934 -0.2971  0.5780
21564SOL    HW270785  10.547   6.395   9.612  0.1092  0.7513  0.2441
21565SOL     OW70786   7.844   5.480   0.305 -0.0408  0.5460 -0.0794
21565SOL    HW170787   7.768   5.538   0.311 -0.3827  0.1867 -0.9048
21565SOL    HW270788   7.847   5.435   0.390 -0.6762  0.6526 -0.0018
21566SOL     OW70789   3.952   0.042   3.181 -0.0757  0.1403 -0.3386
21566SOL    HW170790   3.942  -0.004   3.098  0.9780 -0.7197 -0.0031
21566SOL    HW270791   3.867   0.031   3.224  0.0708 -1.3124 -0.3708
21567SOL     OW70792   0.515   7.766   8.697  0.2642 -0.1342 -0.0946
21567SOL    HW170793   0.490   7.730   8.612 -1.5015  0.0060  0.3272
21567SOL    HW270794   0.484   7.857   8.694  1.8181  0.4310  0.0417
21568SOL     OW70795   1.804   3.411   4.032 -0.4671 -0.1494 -0.1637
21568SOL    HW170796   1.891   3.382   4.004 -1.2472 -1.2959 -1.5377
21568SOL    HW270797   1.773   3.467   3.961 -1.2463 -0.6062 -0.2016
21569SOL     OW70798   0.730   3.299  10.133 -0.1748 -0.7402  0.2149
21569SOL    HW170799   0.720   3.394  10.145  0.2783 -0.5473 -0.8243
21569SOL    HW270800   0.640   3.265  10.135 -0.5703  0.0470 -1.9017
21570SOL     OW70801   2.954   1.131   1.311  0.0114  0.7033 -0.2301
21570SOL    HW170802   2.927   1.073   1.240 -1.8949  1.8542 -0.5149
21570SOL    HW270803   2.891   1.203   1.308  0.9145  1.6268  1.5685
21571SOL     OW70804   1.096   5.390   8.491 -0.0212 -0.6024 -0.2883
21571SOL    HW170805   1.127   5.454   8.426  1.1801 -0.6716  0.1854
21571SOL    HW270806   1.042   5.442   8.551 -0.5120 -0.3884 -0.9090
21572SOL     OW70807   0.415   2.758   5.455  0.2763 -0.3745 -0.1128
21572SOL    HW170808   0.451   2.748   5.544 -1.2240  0.2568  0.5916
21572SOL    HW270809   0.371   2.675   5.437 -3.2643  0.9263  1.5992
21573SOL     OW70810   0.132   9.471   5.244 -0.3790 -0.2043 -0.4569
21573SOL    HW170811   0.047   9.479   5.200  0.5258 -2.0105 -2.7162
21573SOL    HW270812   0.177   9.402   5.197  2.2546  0.4655  0.8955
21574SOL     OW70813   8.796   2.893   7.466  0.1081 -0.7254  0.6471
21574SOL    HW170814   8.722   2.853   7.513 -0.0369 -0.6951  0.4460
21574SOL    HW270815   8.769   2.891   7.374  0.1356 -0.2349  0.6283
21575SOL     OW70816   8.625   8.659   6.810 -0.3462 -0.4879 -0.3138
21575SOL    HW170817   8.582   8.734   6.851  0.0388 -0.4284 -0.0097
21575SOL    HW270818   8.610   8.671   6.716 -1.0794 -0.5247 -0.2061
21576SOL     OW70819   7.995   7.866   7.076 -0.5054 -0.5443 -0.7996
21576SOL    HW170820   7.917   7.831   7.119 -0.2894  0.5160  0.5039
21576SOL    HW270821   8.059   7.875   7.146 -0.3185  1.7312 -1.2029
21577SOL     OW70822   5.917   5.710   0.182  0.4477  0.0925 -0.5566
21577SOL    HW170823   5.971   5.688   0.105  1.3864  0.8043 -0.1208
21577SOL    HW270824   5.852   5.771   0.149  1.9498  1.8288 -0.4875
21578SOL     OW70825   5.929   2.631   7.117  0.6309 -0.1880 -0.3112
21578SOL    HW170826   5.846   2.603   7.156 -0.2364  2.8728  0.3152
21578SOL    HW270827   5.968   2.551   7.082 -1.4071 -2.1214  1.5556
21579SOL     OW70828   3.798   4.188   9.986  0.4215  0.1931  0.6572
21579SOL    HW170829   3.771   4.098  10.008 -1.9980  0.5224 -0.7348
21579SOL    HW270830   3.717   4.238   9.985  1.4352  1.8987 -0.9496
21580SOL     OW70831   9.770   2.248   2.436 -0.4309  0.7535 -0.1401
21580SOL    HW170832   9.725   2.165   2.425  1.9567 -0.5119 -1.0949
21580SOL    HW270833   9.772   2.287   2.348 -0.2005  1.0813  0.0054
21581SOL     OW70834   4.219   4.296   4.419 -0.0200 -0.4022  0.4202
21581SOL    HW170835   4.129   4.273   4.394 -0.0911  1.1670 -0.9028
21581SOL    HW270836   4.208   4.360   4.489  0.0516  0.1337 -0.0560
21582SOL     OW70837   2.887   7.323  10.420  0.2700  0.0696  0.2123
21582SOL    HW170838   2.958   7.289  10.475  1.6654  2.2556 -0.1027
21582SOL    HW270839   2.825   7.362  10.482 -0.2962 -1.1467  0.4391
21583SOL     OW70840   3.423   3.857   7.463 -0.6380 -0.1025  0.1667
21583SOL    HW170841   3.467   3.887   7.542  0.6021 -0.2216 -0.4554
21583SOL    HW270842   3.447   3.922   7.396 -1.2328 -0.2901 -0.2351
21584SOL     OW70843   5.822  10.795   9.117 -0.0909 -0.1325  0.0791
21584SOL    HW170844   5.910  10.768   9.091 -0.1499 -1.1009  0.7955
21584SOL    HW270845   5.822  10.890   9.109  1.1616 -0.0801  0.4506
21585SOL     OW70846   0.768   6.464   0.302 -0.1393  0.8833 -0.3266
21585SOL    HW170847   0.800   6.521   0.231  0.1364  0.5962 -0.4330
21585SOL    HW270848   0.692   6.419   0.264  2.3137 -2.3379 -1.8914
21586SOL     OW70849   8.877   0.232  10.862 -0.0352  0.7908  0.1868
21586SOL    HW170850   8.924   0.277  10.933  0.1192 -0.7335  1.0845
21586SOL    HW270851   8.940   0.229  10.790  0.8488 -0.1600  0.9705
21587SOL     OW70852   3.112   0.505   2.032  0.3783 -0.2185  0.2469
21587SOL    HW170853   3.204   0.530   2.024 -0.0149  0.6511 -2.2497
21587SOL    HW270854   3.076   0.567   2.096  1.1097  0.7675 -0.2607
21588SOL     OW70855   3.119   3.196   6.234  0.8963  0.4198  0.7044
21588SOL    HW170856   3.128   3.106   6.205  0.6739  0.1915  1.3271
21588SOL    HW270857   3.114   3.247   6.153 -1.3494 -0.3511  0.2866
21589SOL     OW70858   0.708   8.370   4.935 -0.3231  0.1480  0.7136
21589SOL    HW170859   0.685   8.373   5.028 -0.5848  0.1072  0.6513
21589SOL    HW270860   0.644   8.429   4.893 -0.2100  0.1603  0.5604
21590SOL     OW70861   1.502   2.746   7.089  0.6747  0.0496 -0.2220
21590SOL    HW170862   1.505   2.711   7.178  1.4755  1.9590  0.5702
21590SOL    HW270863   1.573   2.701   7.042 -1.1745 -2.6479 -0.6497
21591SOL     OW70864   8.962  10.043   5.233 -0.1552 -0.3891  0.0157
21591SOL    HW170865   9.001  10.129   5.247  0.3374 -0.6931  0.5398
21591SOL    HW270866   8.912  10.053   5.151  1.9829 -0.3258 -1.3526
21592SOL     OW70867   3.983   5.049   5.160 -0.3003  0.7620 -0.5799
21592SOL    HW170868   4.048   5.005   5.105 -3.0914 -1.1825 -2.6021
21592SOL    HW270869   3.963   5.130   5.114 -0.4826  0.5758 -0.8283
21593SOL     OW70870   9.087   0.994   1.834 -0.0834  0.2403  0.1249
21593SOL    HW170871   9.060   0.908   1.801  0.3163 -1.1866  3.1388
21593SOL    HW270872   9.029   1.056   1.789 -1.6425 -1.7618 -0.8201
21594SOL     OW70873   7.609   8.092   5.443  0.3186  0.3444  0.0531
21594SOL    HW170874   7.661   8.073   5.365  0.1944  0.0456  0.0457
21594SOL    HW270875   7.592   8.186   5.437  1.1456  0.5215  0.2252
21595SOL     OW70876   7.274   1.946   2.097  0.2739  0.1397  0.2554
21595SOL    HW170877   7.322   1.922   2.177 -0.3673  0.8637  0.8723
21595SOL    HW270878   7.187   1.906   2.108  0.0965  0.4615  0.0358
21596SOL     OW70879   5.510   4.904   2.491  0.7866  0.1551 -0.1396
21596SOL    HW170880   5.447   4.968   2.523 -0.7522 -0.3650 -1.9774
21596SOL    HW270881   5.512   4.836   2.558  1.5847  1.5156  1.2864
21597SOL     OW70882   8.118   0.964   1.866 -0.7666 -0.7220 -0.2756
21597SOL    HW170883   8.078   0.957   1.779 -0.2734  1.0302 -0.6744
21597SOL    HW270884   8.152   0.876   1.883 -2.3754 -1.5420 -1.0985
21598SOL     OW70885   8.839   6.224   5.298 -0.0173  0.0122 -0.1713
21598SOL    HW170886   8.767   6.285   5.310 -0.1266 -0.3686  1.2271
21598SOL    HW270887   8.797   6.140   5.280  0.1258  0.1162 -1.0876
21599SOL     OW70888  10.573   0.462   8.728 -0.5039 -0.0110  0.0488
21599SOL    HW170889  10.484   0.492   8.713 -0.5839 -0.0985  0.3349
21599SOL    HW270890  10.622   0.490   8.651 -0.8876 -0.3938 -0.3430
21600SOL     OW70891  10.312   0.486   2.023  0.3310  0.5866 -0.5039
21600SOL    HW170892  10.327   0.493   1.929  0.9808 -0.6208 -0.5080
21600SOL    HW270893  10.224   0.448   2.030  1.0200 -1.1456 -0.6977
21601SOL     OW70894   5.038   1.159   7.204 -0.2530  0.4841  1.1087
21601SOL    HW170895   5.039   1.254   7.193 -0.4609  0.4180  0.4983
21601SOL    HW270896   5.067   1.125   7.119  2.0520  0.0527  1.9807
21602SOL     OW70897   4.765   7.619   2.797  0.3010  0.1739  0.4612
21602SOL    HW170898   4.784   7.712   2.785 -0.1195  0.0727 -1.3308
21602SOL    HW270899   4.712   7.595   2.721  0.7848 -1.6372  0.6370
21603SOL     OW70900   3.590   0.433  10.735  0.1134 -0.3552 -0.0438
21603SOL    HW170901   3.676   0.390  10.737  0.4217  0.1922 -0.7583
21603SOL    HW270902   3.600   0.502  10.669 -0.2463  1.0375  1.2767
21604SOL     OW70903   6.578   5.492   0.922 -1.0546  0.4428 -0.6952
21604SOL    HW170904   6.489   5.488   0.888 -1.4037 -1.0597  0.3484
21604SOL    HW270905   6.588   5.582   0.953 -1.2708  1.4093 -3.1936
21605SOL     OW70906   8.689   8.656   0.378 -0.2330 -0.2612 -0.1178
21605SOL    HW170907   8.606   8.643   0.332 -0.8704  2.4657  0.0759
21605SOL    HW270908   8.668   8.637   0.470 -0.8005  0.7292 -0.0162
21606SOL     OW70909   3.236   1.055   4.855 -0.2995 -0.2676  0.5321
21606SOL    HW170910   3.315   1.089   4.812 -1.5256  3.0230  0.5890
21606SOL    HW270911   3.247   1.079   4.947 -0.6370 -1.3027  0.8502
21607SOL     OW70912   6.238   5.890   9.648  0.1731  0.4924  0.3526
21607SOL    HW170913   6.246   5.831   9.573  0.8424 -0.2592  1.0076
21607SOL    HW270914   6.173   5.955   9.620  1.0046  0.7015 -1.1895
21608SOL     OW70915   5.382   6.228   3.862  0.2118  0.1933 -0.1344
21608SOL    HW170916   5.356   6.145   3.902 -0.2567  0.8918  1.0536
21608SOL    HW270917   5.320   6.241   3.791 -0.0236 -0.2300 -0.0090
21609SOL     OW70918   8.241   3.299   5.326  0.2905 -0.2788 -0.4352
21609SOL    HW170919   8.331   3.271   5.308  1.0552  1.3795  0.5329
21609SOL    HW270920   8.242   3.393   5.312 -0.8586  0.0311  1.2040
21610SOL     OW70921   7.316   3.949   6.452 -0.1281  0.1371  0.1815
21610SOL    HW170922   7.354   3.870   6.490  0.4579 -0.5407 -1.7040
21610SOL    HW270923   7.227   3.923   6.427  0.1065  0.0002 -0.5531
21611SOL     OW70924   4.590   7.551   2.557  0.3529  0.3035  0.4517
21611SOL    HW170925   4.545   7.481   2.604  2.5903 -0.7822  1.1456
21611SOL    HW270926   4.666   7.507   2.517  0.9637  2.0613 -0.3929
21612SOL     OW70927   7.599   6.526   7.091  0.4736  0.7586 -0.6451
21612SOL    HW170928   7.551   6.570   7.020  0.8014  1.6793 -0.3080
21612SOL    HW270929   7.690   6.527   7.062  0.2914 -1.3957 -1.4984
21613SOL     OW70930  10.307   9.480   9.664  0.4735  0.2123 -0.3858
21613SOL    HW170931  10.292   9.518   9.751 -0.0616 -0.2791 -0.2569
21613SOL    HW270932  10.254   9.534   9.605 -0.3873 -0.3899 -0.1851
21614SOL     OW70933   1.799   9.439   4.171  0.1223 -0.6021 -0.5565
21614SOL    HW170934   1.822   9.372   4.235  0.1476 -0.1029 -0.0354
21614SOL    HW270935   1.708   9.422   4.149  0.3245 -1.2193 -0.9416
21615SOL     OW70936   5.402   4.772   0.042 -0.1026 -0.6989 -0.1094
21615SOL    HW170937   5.495   4.770   0.066  0.1241 -1.4113 -1.0002
21615SOL    HW270938   5.393   4.850  -0.012 -0.0313 -0.6319 -0.0270
21616SOL     OW70939   9.096   6.090   4.142 -0.5792 -0.5486 -0.4553
21616SOL    HW170940   9.039   6.029   4.189 -0.1448  0.2265  1.1729
21616SOL    HW270941   9.071   6.081   4.050 -0.7669 -2.8879 -0.2394
21617SOL     OW70942   2.159   0.241   1.410 -0.0967 -0.3722  0.6310
21617SOL    HW170943   2.249   0.238   1.441  0.3604 -0.3841 -0.6620
21617SOL    HW270944   2.148   0.329   1.375 -0.0379 -0.8986 -0.7682
21618SOL     OW70945   7.445  10.352   4.766 -0.0910  0.2741  0.1457
21618SOL    HW170946   7.351  10.351   4.748 -0.2492 -1.7726  0.8953
21618SOL    HW270947   7.455  10.410   4.841 -0.7851  0.2402  0.2623
21619SOL     OW70948   9.586   9.787  10.368 -0.0229  0.2397 -0.1762
21619SOL    HW170949   9.544   9.718  10.420 -2.4686  1.2774 -0.6109
21619SOL    HW270950   9.622   9.741  10.292 -1.0674 -0.6780 -0.1478
21620SOL     OW70951   0.106   0.712   8.405  0.0147 -0.4433  0.5299
21620SOL    HW170952   0.133   0.700   8.314 -0.4319 -1.7871  0.5546
21620SOL    HW270953   0.012   0.698   8.403 -0.3894  1.8582  0.8362
21621SOL     OW70954   2.811   9.329   5.023  0.6881  0.0327 -0.0342
21621SOL    HW170955   2.812   9.375   4.939 -1.1046  0.7269  0.2889
21621SOL    HW270956   2.808   9.237   4.999 -2.5801  0.2385 -0.8658
21622SOL     OW70957  10.832   6.665   3.035  0.3624  0.4835 -0.7071
21622SOL    HW170958  10.857   6.755   3.059 -1.2547  0.7599  0.0459
21622SOL    HW270959  10.743   6.673   3.000  0.7388 -0.6533 -2.0082
21623SOL     OW70960   6.315   9.769   8.015 -0.0444  0.2973 -0.0257
21623SOL    HW170961   6.368   9.718   7.953  0.7338  1.1861 -0.1091
21623SOL    HW270962   6.254   9.817   7.960  0.1929  0.5632 -0.0597
21624SOL     OW70963   8.102   0.669   3.997  0.0519 -0.3343  0.3387
21624SOL    HW170964   8.124   0.729   4.068 -0.2545 -1.1527  1.1379
21624SOL    HW270965   8.006   0.664   3.998 -0.0505  0.6160 -0.9624
21625SOL     OW70966   2.272   5.994   0.891 -0.2143 -0.4512  0.3507
21625SOL    HW170967   2.350   6.008   0.946 -0.3890 -1.1563  0.7955
21625SOL    HW270968   2.209   5.952   0.950 -1.1292  0.5844  0.1394
21626SOL     OW70969   6.443   9.761   3.733 -0.5381  0.3098 -0.0611
21626SOL    HW170970   6.435   9.836   3.792  0.4672  0.9545 -0.7068
21626SOL    HW270971   6.531   9.728   3.749  0.6128  1.8336 -2.6659
21627SOL     OW70972   3.773   2.701   8.669  0.0650 -0.0416  0.0451
21627SOL    HW170973   3.732   2.778   8.629 -0.2208  0.0047  0.4182
21627SOL    HW270974   3.865   2.725   8.680  0.1867 -0.1165 -0.7326
21628SOL     OW70975   0.717   8.593   6.940  0.4705  0.9213 -0.4639
21628SOL    HW170976   0.640   8.639   6.973 -0.9938 -2.5857  1.5361
21628SOL    HW270977   0.695   8.570   6.850 -1.2620 -0.6490  0.2905
21629SOL     OW70978   5.047   8.897   9.305 -0.5354 -0.1540 -0.6151
21629SOL    HW170979   5.131   8.913   9.347 -0.6015 -1.3573  0.0125
21629SOL    HW270980   5.069   8.877   9.214 -0.3736  2.2383 -1.1722
21630SOL     OW70981   1.724   9.307   3.535 -0.3003 -0.5429  0.2917
21630SOL    HW170982   1.712   9.344   3.448  0.7625 -1.4178 -0.2366
21630SOL    HW270983   1.742   9.214   3.520 -0.2731 -0.7427  1.4552
21631SOL     OW70984   9.712   2.975   4.067  0.4324 -0.1297  0.1641
21631SOL    HW170985   9.721   3.069   4.060  0.4860 -0.1016  0.5703
21631SOL    HW270986   9.734   2.941   3.980 -2.4078  0.4266 -0.8761
21632SOL     OW70987   5.089   6.131   2.574 -0.3455  0.5475 -0.0854
21632SOL    HW170988   5.048   6.203   2.622  0.2379  0.7136  0.1599
21632SOL    HW270989   5.018   6.096   2.520 -1.1067  0.1018  1.1765
21633SOL     OW70990   8.639   1.173   9.912 -0.6552 -0.0664 -0.3713
21633SOL    HW170991   8.630   1.165   9.817  0.5253  0.1396 -0.5153
21633SOL    HW270992   8.559   1.218   9.939 -2.2481 -2.4079 -0.9045
21634SOL     OW70993   4.112   3.384   2.860 -0.2713 -0.0277 -0.1487
21634SOL    HW170994   4.112   3.348   2.949  0.0356 -1.3313 -0.6474
21634SOL    HW270995   4.202   3.371   2.830  0.2508  2.4715  0.1117
21635SOL     OW70996   4.875   5.425   4.355  0.6805 -0.0417  0.0749
21635SOL    HW170997   4.875   5.329   4.353  0.1257 -0.0373 -0.3576
21635SOL    HW270998   4.828   5.447   4.436 -0.5740 -0.1396 -0.5987
21636SOL     OW70999   2.666   4.679  10.252 -0.3477  0.0101 -0.2514
21636SOL    HW171000   2.617   4.597  10.260 -1.5578  0.7864  0.7744
21636SOL    HW271001   2.756   4.656  10.274 -0.2324 -1.4163 -1.9666
21637SOL     OW71002   0.240   2.168   2.537  0.4222  0.1686 -0.0062
21637SOL    HW171003   0.313   2.115   2.506  0.6102  0.4928 -0.1175
21637SOL    HW271004   0.163   2.115   2.520  0.4187  0.7180 -1.8953
21638SOL     OW71005   0.779  10.650   9.251  0.1329  0.0220  0.5148
21638SOL    HW171006   0.737  10.671   9.168 -0.6581  0.9973  1.1283
21638SOL    HW271007   0.712  10.603   9.301  1.0733 -1.8299  0.0921
21639SOL     OW71008   9.981   7.764   1.286 -0.3498 -0.6580 -0.1082
21639SOL    HW171009   9.900   7.725   1.318  0.1556 -2.3184 -0.7424
21639SOL    HW271010  10.029   7.691   1.247  0.4401  0.6758 -1.8087
21640SOL     OW71011   4.627   6.087   2.442 -0.3020 -0.1365 -0.2730
21640SOL    HW171012   4.585   6.088   2.356 -0.7381 -0.6219 -0.0731
21640SOL    HW271013   4.713   6.126   2.427 -1.2288  1.9678 -0.4799
21641SOL     OW71014   5.561   7.026   7.666 -0.2887 -0.3467 -0.0405
21641SOL    HW171015   5.579   7.089   7.736 -0.3948 -0.8710  0.4674
21641SOL    HW271016   5.525   7.079   7.595 -0.1741  0.1959  0.2969
21642SOL     OW71017   9.478   5.550   6.849  0.1031 -0.2171 -0.3856
21642SOL    HW171018   9.385   5.540   6.873  0.1493 -1.7157 -0.7131
21642SOL    HW271019   9.476   5.583   6.760 -0.1221 -0.2799 -0.4071
21643SOL     OW71020   7.180   4.516   8.055 -0.0798  0.2860  0.5438
21643SOL    HW171021   7.268   4.494   8.025 -0.2410  0.5538 -0.1276
21643SOL    HW271022   7.122   4.458   8.005 -0.3711  0.9627  0.0835
21644SOL     OW71023   7.335   6.037   4.434  0.1112 -0.0724  0.3898
21644SOL    HW171024   7.402   5.969   4.426  0.3485  0.3481 -1.3898
21644SOL    HW271025   7.293   6.040   4.348  1.5288  3.5004 -0.3201
21645SOL     OW71026   3.434   1.195   6.247  0.0519 -0.5793 -0.5485
21645SOL    HW171027   3.428   1.206   6.342  0.9267 -0.5978 -0.4847
21645SOL    HW271028   3.419   1.283   6.212  0.6822 -0.3870 -0.3435
21646SOL     OW71029   4.047   2.154   3.250  0.0567 -0.3787 -0.9540
21646SOL    HW171030   4.020   2.145   3.159 -1.0380  0.1592 -0.6929
21646SOL    HW271031   4.080   2.067   3.274  2.6501  0.0554 -2.5423
21647SOL     OW71032   3.958   5.439   8.009 -0.3326  0.0270 -0.2848
21647SOL    HW171033   3.895   5.511   8.002 -0.2377 -0.0335 -2.3622
21647SOL    HW271034   3.905   5.360   8.004 -0.2444 -0.0339 -0.2564
21648SOL     OW71035   0.603   0.963   2.168 -0.0479  0.2403  0.0119
21648SOL    HW171036   0.554   0.989   2.089  0.4436 -1.1632 -0.7885
21648SOL    HW271037   0.675   1.026   2.173  1.1390 -0.8801 -1.8938
21649SOL     OW71038   7.706   8.099  10.569 -0.3100  0.1534  0.3614
21649SOL    HW171039   7.798   8.123  10.570 -0.3994  0.8559 -2.0047
21649SOL    HW271040   7.706   8.005  10.548 -0.1406  0.3368 -0.4749
21650SOL     OW71041   2.440   0.585   8.245 -0.8353  0.1466 -0.0149
21650SOL    HW171042   2.457   0.548   8.331  0.7995  1.2986  0.1989
21650SOL    HW271043   2.355   0.549   8.220 -0.8060 -1.1259  1.5562
21651SOL     OW71044   9.144   6.448   9.608 -0.4870 -0.3549  1.0204
21651SOL    HW171045   9.133   6.507   9.533 -0.6956 -1.4649  0.1557
21651SOL    HW271046   9.238   6.453   9.629 -0.3002 -0.5076  0.2669
21652SOL     OW71047   7.457   6.648   1.612  0.4468  0.0939 -0.4302
21652SOL    HW171048   7.410   6.615   1.689  0.2776  0.7433 -0.2427
21652SOL    HW271049   7.420   6.736   1.598  0.9682  0.2523 -0.8318
21653SOL     OW71050   1.920   9.987   2.351  0.1326  0.1048  0.3074
21653SOL    HW171051   1.939   9.993   2.445  0.6019 -2.7397  0.4929
21653SOL    HW271052   1.847  10.048   2.337 -1.0667 -0.6007  2.8604
21654SOL     OW71053  10.029   2.934   4.699  0.0755 -0.3911  0.0779
21654SOL    HW171054  10.045   2.942   4.793  1.2007 -0.8291 -0.0534
21654SOL    HW271055  10.001   3.021   4.672 -0.4496 -0.3077  0.8476
21655SOL     OW71056   7.799   5.980   5.194  0.1980 -0.2459 -0.2286
21655SOL    HW171057   7.789   6.044   5.265 -2.8618 -0.4315 -0.3315
21655SOL    HW271058   7.779   5.896   5.235 -0.8314 -0.4473 -1.0828
21656SOL     OW71059   3.699   2.527   8.944 -0.2229 -0.1235  0.3675
21656SOL    HW171060   3.766   2.500   8.881 -0.9584 -0.5124 -0.2667
21656SOL    HW271061   3.735   2.503   9.029  1.6218  2.1034  0.3217
21657SOL     OW71062   2.861   0.978   2.994  0.0168  0.0160 -0.4622
21657SOL    HW171063   2.876   0.887   3.019  0.4644  0.8256  2.5245
21657SOL    HW271064   2.767   0.982   2.975  0.0698 -1.1365 -1.0620
21658SOL     OW71065   2.644   8.080   6.532 -0.0415  0.1428  0.1919
21658SOL    HW171066   2.581   8.036   6.475 -0.5696  0.9263  0.1651
21658SOL    HW271067   2.703   8.126   6.472 -0.4761  0.8017  0.2578
21659SOL     OW71068   7.518   9.213   3.508 -0.0905  0.0217  0.1235
21659SOL    HW171069   7.552   9.276   3.572  0.6765 -0.5380  0.2721
21659SOL    HW271070   7.555   9.129   3.534 -0.9402 -0.4706 -0.1971
21660SOL     OW71071   5.523   4.428   6.843 -0.0959 -0.4544  0.0347
21660SOL    HW171072   5.464   4.448   6.915 -0.5713  0.8644 -0.6928
21660SOL    HW271073   5.610   4.449   6.877 -0.5772  3.8754 -0.8761
21661SOL     OW71074  10.292   3.205   5.749 -0.6108  0.6585  0.3860
21661SOL    HW171075  10.264   3.291   5.780  2.2736  1.9792 -0.4191
21661SOL    HW271076  10.314   3.157   5.829 -1.6176  0.8477  0.7985
21662SOL     OW71077   2.992   8.882   8.979  0.3763  0.2540 -0.3913
21662SOL    HW171078   3.076   8.869   8.936  0.7264 -1.1411  0.6472
21662SOL    HW271079   3.006   8.856   9.070 -0.1008  3.9281  0.9087
21663SOL     OW71080  10.241   5.966  10.157 -0.0494  0.3825  0.2949
21663SOL    HW171081  10.182   5.958  10.082  0.0836  1.9047 -0.0096
21663SOL    HW271082  10.190   5.936  10.232 -0.8031  0.5616 -0.1422
21664SOL     OW71083  10.375   3.651   0.115  0.1752  0.0968  0.3806
21664SOL    HW171084  10.440   3.721   0.120 -0.1768  0.5088 -0.6251
21664SOL    HW271085  10.309   3.684   0.055 -0.7981 -0.4635  1.1119
21665SOL     OW71086   2.657   8.427   6.085 -0.4353 -0.6014  0.2175
21665SOL    HW171087   2.588   8.438   6.150  1.2758 -1.4779  2.3113
21665SOL    HW271088   2.683   8.517   6.063 -1.5503 -0.2843  0.1227
21666SOL     OW71089   1.017   2.169   9.683  0.5463  0.3821 -0.1432
21666SOL    HW171090   0.946   2.152   9.622 -0.3757 -0.0163  0.9957
21666SOL    HW271091   1.050   2.256   9.659 -0.2299  0.5107 -0.7709
21667SOL     OW71092   3.723   3.674   6.954  0.0627  0.3557  0.4606
21667SOL    HW171093   3.707   3.579   6.960 -1.2962  0.6053  1.2655
21667SOL    HW271094   3.673   3.711   7.026 -0.4541  1.8040 -0.5925
21668SOL     OW71095  10.826   5.482   8.734 -0.3501 -0.6150  0.2327
21668SOL    HW171096  10.877   5.408   8.704 -0.0039 -0.0854 -0.5132
21668SOL    HW271097  10.737   5.465   8.702 -0.0550 -0.2142 -0.8627
21669SOL     OW71098   9.891   8.671   9.640 -0.3634 -0.3809  0.5955
21669SOL    HW171099   9.824   8.664   9.708 -0.2611 -1.0116  0.6382
21669SOL    HW271100   9.936   8.586   9.642  1.7502  0.6561  1.9287
21670SOL     OW71101   7.308  10.075   6.116 -0.2170  0.1757  0.1190
21670SOL    HW171102   7.403  10.072   6.128 -0.0321  0.6684 -1.0914
21670SOL    HW271103   7.292  10.018   6.042 -0.0141  4.7739 -4.0052
21671SOL     OW71104   6.211  10.705   3.730  0.1620 -0.6345 -0.4070
21671SOL    HW171105   6.126  10.734   3.698 -1.2578 -2.2331  1.6247
21671SOL    HW271106   6.260  10.786   3.745 -1.3542  0.3772 -0.7229
21672SOL     OW71107   1.751   4.956   0.551 -0.0212  0.1194  0.5732
21672SOL    HW171108   1.841   4.986   0.535  0.3993 -1.3635 -0.0220
21672SOL    HW271109   1.741   4.959   0.646 -0.0441  2.1644  0.5482
21673SOL     OW71110   9.484   1.367   8.426  0.9769  0.3524 -0.5017
21673SOL    HW171111   9.428   1.319   8.365  1.5854  0.4766 -1.1584
21673SOL    HW271112   9.563   1.314   8.433  0.8060  0.1870  0.4148
21674SOL     OW71113   1.256  10.214   9.435 -0.7247  0.8118 -0.4082
21674SOL    HW171114   1.262  10.132   9.387  0.5233 -0.8283  2.2915
21674SOL    HW271115   1.231  10.188   9.524 -1.8774  3.5362  0.1801
21675SOL     OW71116   3.794   5.694   8.014 -0.4639 -0.3228  0.3054
21675SOL    HW171117   3.706   5.720   7.984  0.0915  2.1001  0.5462
21675SOL    HW271118   3.781   5.668   8.105 -0.8355  0.9135  0.6290
21676SOL     OW71119   5.620   1.488   7.554 -0.2434 -0.0255 -0.1920
21676SOL    HW171120   5.572   1.451   7.480 -0.5212  0.5560 -0.3050
21676SOL    HW271121   5.615   1.583   7.542 -0.0516  0.0691  0.4210
21677SOL     OW71122   7.990  10.003   7.934 -0.1880 -0.3672 -0.4310
21677SOL    HW171123   8.069  10.050   7.961  0.5873 -2.7542  1.8305
21677SOL    HW271124   8.014   9.960   7.852  1.0636 -1.4297  0.4580
21678SOL     OW71125   3.963   7.808   8.733 -0.0112  0.2538 -0.2361
21678SOL    HW171126   4.017   7.756   8.673 -1.0244  1.6278 -2.4700
21678SOL    HW271127   3.885   7.755   8.746 -0.0994  0.2448 -0.7522
21679SOL     OW71128   3.018   2.221   7.426  0.3652 -0.0684  0.1540
21679SOL    HW171129   2.995   2.251   7.338 -0.6365 -1.6300 -0.1596
21679SOL    HW271130   3.107   2.254   7.440  1.3928 -1.4457 -2.3075
21680SOL     OW71131   3.994  10.223   8.675  0.2723 -0.0413  0.4255
21680SOL    HW171132   4.046  10.144   8.666 -0.0633 -0.2657  0.4562
21680SOL    HW271133   4.028  10.266   8.753 -0.0060 -0.5050  0.8050
21681SOL     OW71134   1.396   3.759   7.085 -0.0518  0.3259 -0.1982
21681SOL    HW171135   1.332   3.825   7.113  0.2007  0.9485 -1.0374
21681SOL    HW271136   1.481   3.804   7.093  0.2895 -0.4653  0.8350
21682SOL     OW71137   6.905   2.377   6.401  0.0025  0.0629  0.3345
21682SOL    HW171138   6.938   2.385   6.491 -0.1242  0.7908  0.3208
21682SOL    HW271139   6.811   2.392   6.409 -0.0519 -0.1654  0.1178
21683SOL     OW71140   2.213   7.962   8.907 -0.1955  0.4019  0.0451
21683SOL    HW171141   2.268   7.974   8.984  1.1435 -0.8254 -0.6680
21683SOL    HW271142   2.126   7.945   8.943 -0.0526  1.8599  1.2126
21684SOL     OW71143   2.963   3.991   1.126  0.2404  0.3669  0.2718
21684SOL    HW171144   2.925   3.956   1.046  1.2907  0.9421 -0.5024
21684SOL    HW271145   3.009   4.070   1.098 -0.0317  1.0188  1.5784
21685SOL     OW71146  10.314   5.774   8.404 -1.1279 -0.1250 -0.0750
21685SOL    HW171147  10.264   5.697   8.379  0.3923 -0.5217 -2.1238
21685SOL    HW271148  10.307   5.833   8.328  1.1739 -0.0676 -0.2972
21686SOL     OW71149   5.478   5.836   4.673 -0.7459 -1.0201  0.3724
21686SOL    HW171150   5.550   5.855   4.613 -1.1181  0.5370  0.3708
21686SOL    HW271151   5.421   5.914   4.668 -1.5060 -1.4524  1.6895
21687SOL     OW71152   6.221   8.009   9.613 -0.5054  0.2963 -0.0069
21687SOL    HW171153   6.273   8.020   9.533  0.0550 -0.1520  0.2921
21687SOL    HW271154   6.285   8.016   9.684 -1.0465  1.0498  0.4301
21688SOL     OW71155   5.459   9.325   9.009  0.2690  0.0616  0.2081
21688SOL    HW171156   5.489   9.404   9.054  3.1060 -1.0926  0.4833
21688SOL    HW271157   5.500   9.253   9.055 -1.0714 -1.5205 -0.9539
21689SOL     OW71158   6.362   4.835   2.346  0.4022  0.0637  0.2226
21689SOL    HW171159   6.321   4.788   2.273  0.0038 -2.0057  1.6781
21689SOL    HW271160   6.442   4.873   2.309  0.6200 -1.5835 -1.1181
21690SOL     OW71161   9.744   7.745   8.575  0.5016  0.0622 -0.4351
21690SOL    HW171162   9.674   7.756   8.639  0.3469  1.3757 -0.7917
21690SOL    HW271163   9.700   7.718   8.495  0.4142  0.6798 -0.6012
21691SOL     OW71164   4.441   7.069   6.178 -0.3288  0.9029  0.0807
21691SOL    HW171165   4.404   7.080   6.090  0.7109 -0.5500 -0.5698
21691SOL    HW271166   4.512   7.006   6.167  0.1117  1.0224  1.9015
21692SOL     OW71167   7.078   3.478  10.113  0.0766 -0.2677  0.2603
21692SOL    HW171168   7.093   3.545  10.180  0.5785  0.7012 -0.8023
21692SOL    HW271169   6.983   3.467  10.111 -0.0839  1.0585 -0.1711
21693SOL     OW71170   2.810   4.902   4.128  0.8512 -0.8035  0.6888
21693SOL    HW171171   2.852   4.835   4.180 -0.7995 -1.5368  1.1597
21693SOL    HW271172   2.873   4.974   4.124  1.9281 -1.6718  1.7012
21694SOL     OW71173   8.078   1.318   1.169 -0.3147  0.2518 -0.4498
21694SOL    HW171174   8.049   1.409   1.159 -3.4086 -0.6073 -0.4877
21694SOL    HW271175   8.127   1.299   1.089 -0.2062  1.6735 -0.7486
21695SOL     OW71176   5.570   9.620   1.547 -0.1743  0.1718 -0.3011
21695SOL    HW171177   5.507   9.691   1.535 -0.0873  0.2192 -0.4884
21695SOL    HW271178   5.654   9.660   1.525 -0.3865 -0.6247 -2.9066
21696SOL     OW71179   0.514   2.437   7.438 -0.0942  0.0268  0.4146
21696SOL    HW171180   0.553   2.381   7.370 -1.8118 -2.9287  1.6590
21696SOL    HW271181   0.452   2.492   7.391  1.6091  0.9861 -0.8516
21697SOL     OW71182   9.330   7.726   1.051 -0.0935 -0.1716 -0.2472
21697SOL    HW171183   9.415   7.718   1.094 -1.0452 -1.8648  1.4569
21697SOL    HW271184   9.347   7.702   0.960  0.8853 -3.0136  0.5680
21698SOL     OW71185   0.583  10.408   8.021  0.1153  0.1520  0.4193
21698SOL    HW171186   0.649  10.370   7.962  0.2391 -0.1858  0.7683
21698SOL    HW271187   0.583  10.349   8.097 -0.6729  0.0833  0.3679
21699SOL     OW71188   7.526   6.223   4.515 -0.7863 -0.2916 -0.1811
21699SOL    HW171189   7.497   6.314   4.519 -0.7448 -0.2654 -0.4420
21699SOL    HW271190   7.446   6.172   4.515 -0.7924 -0.3089  1.1858
21700SOL     OW71191   4.821   9.641   4.147 -0.4549  0.0988  0.2957
21700SOL    HW171192   4.771   9.703   4.095 -1.4335 -0.0028  1.1015
21700SOL    HW271193   4.816   9.674   4.236  0.2231 -0.3646  0.5128
21701SOL     OW71194   4.405   3.167   4.778  0.3539  0.1632 -0.0202
21701SOL    HW171195   4.330   3.115   4.748 -0.8741  2.7072 -1.7648
21701SOL    HW271196   4.479   3.107   4.774 -1.0858 -1.6316 -1.2167
21702SOL     OW71197  10.556   8.156   1.649 -0.0643 -0.3975 -0.0382
21702SOL    HW171198  10.478   8.203   1.620  0.1610 -0.4144 -0.7008
21702SOL    HW271199  10.622   8.224   1.662  0.3504 -0.5290 -1.2836
21703SOL     OW71200   5.893   6.174   4.870 -0.0949  0.0281 -0.1934
21703SOL    HW171201   5.896   6.099   4.811 -2.4829 -1.0883  0.9408
21703SOL    HW271202   5.810   6.216   4.851  0.8732  2.0134 -0.2832
21704SOL     OW71203   3.025   2.942   8.233 -0.1265  0.1275  0.0990
21704SOL    HW171204   3.028   3.028   8.191  1.6667  1.3225  2.4467
21704SOL    HW271205   3.113   2.930   8.270 -1.1363 -1.4231  2.2332
21705SOL     OW71206   3.973   4.354   7.639  0.4145 -0.0215 -0.2575
21705SOL    HW171207   3.919   4.275   7.627  0.7962 -0.3915  0.4515
21705SOL    HW271208   4.050   4.338   7.585  0.8137 -0.4409  0.4329
21706SOL     OW71209  10.327   9.643   3.290  0.2377  0.6159  0.0255
21706SOL    HW171210  10.355   9.613   3.377  0.6797  0.6021 -0.1165
21706SOL    HW271211  10.312   9.737   3.301 -0.4182  0.4888  0.2894
21707SOL     OW71212   5.935   6.270   2.484  0.1383  0.7473 -0.5007
21707SOL    HW171213   5.875   6.205   2.520 -0.0038  1.2033  0.1153
21707SOL    HW271214   5.933   6.255   2.390  1.0025 -0.8885 -0.2893
21708SOL     OW71215   6.051   1.742   3.780 -0.1568  0.6110  0.1039
21708SOL    HW171216   6.019   1.652   3.788  0.8958 -0.1774 -3.1517
21708SOL    HW271217   6.144   1.736   3.802  0.0323  0.7697 -0.6136
21709SOL     OW71218   0.261  10.236   1.126  0.3995  0.2384 -0.1698
21709SOL    HW171219   0.333  10.240   1.189  1.0112  0.3350 -0.8540
21709SOL    HW271220   0.305  10.224   1.041 -0.4413 -1.1551 -0.4506
21710SOL     OW71221   1.388  10.249  10.721  0.1539  0.3586 -0.1321
21710SOL    HW171222   1.333  10.195  10.778 -0.9701 -1.5518 -2.7876
21710SOL    HW271223   1.471  10.202  10.716 -0.2503 -0.3029 -1.1147
21711SOL     OW71224   3.233   0.136   0.471 -0.0339  0.2161  0.1204
21711SOL    HW171225   3.318   0.123   0.428 -0.1277 -0.6766  0.1941
21711SOL    HW271226   3.231   0.071   0.541  0.2325  1.8171  1.6907
21712SOL     OW71227   3.808   5.205   5.324  0.0191 -0.2983  0.5528
21712SOL    HW171228   3.789   5.268   5.254  1.7438  1.4886  1.5809
21712SOL    HW271229   3.837   5.126   5.278 -0.1020  0.4004 -0.7698
21713SOL     OW71230   5.426   5.504   1.973 -0.4430 -0.5911 -0.1829
21713SOL    HW171231   5.427   5.512   1.878  0.6988 -1.2732 -0.2487
21713SOL    HW271232   5.388   5.586   2.004  0.1663  0.0903 -1.1906
21714SOL     OW71233   8.336   0.328   0.916 -0.1083 -0.0806  0.3547
21714SOL    HW171234   8.358   0.346   1.008 -0.3148 -0.5284  0.4924
21714SOL    HW271235   8.251   0.369   0.902  0.2274  0.5595  0.1764
21715SOL     OW71236   3.834   6.078   4.079  0.1499  0.3670  0.4267
21715SOL    HW171237   3.770   6.006   4.081  0.5380 -0.0241  3.2459
21715SOL    HW271238   3.785   6.153   4.045 -1.4597 -0.2676  1.2263
21716SOL     OW71239   3.985   2.763   2.340  0.7178 -0.3005  0.4601
21716SOL    HW171240   4.073   2.756   2.302  1.2131 -0.6889  1.6430
21716SOL    HW271241   3.986   2.703   2.414  1.0994  3.1315  3.5199
21717SOL     OW71242   0.022   5.701   3.095  0.5291 -0.2263  0.3917
21717SOL    HW171243   0.078   5.673   3.022 -0.0662  0.2629 -0.2657
21717SOL    HW271244   0.001   5.620   3.141  2.7860 -0.3142  1.4235
21718SOL     OW71245   3.724   2.754   7.018  0.2803 -0.1115  0.4444
21718SOL    HW171246   3.775   2.700   6.958 -1.1916 -0.5194 -0.4982
21718SOL    HW271247   3.789   2.799   7.072  1.6334 -0.2551 -1.0085
21719SOL     OW71248   8.934   0.306   6.149  0.3078 -0.0304 -0.6060
21719SOL    HW171249   9.019   0.296   6.107  0.2299  1.6361 -1.2084
21719SOL    HW271250   8.947   0.374   6.215 -0.5864  0.3147 -0.7688
21720SOL     OW71251   7.159   9.546   2.963  0.2598 -0.9541 -0.7365
21720SOL    HW171252   7.174   9.639   2.977  2.8881 -1.5388  0.9613
21720SOL    HW271253   7.093   9.521   3.028  1.5570 -0.7586  0.6973
21721SOL     OW71254   6.413   0.921   5.396 -0.3889 -0.2791  0.1190
21721SOL    HW171255   6.400   1.014   5.382 -1.5154 -0.3926  0.2491
21721SOL    HW271256   6.442   0.913   5.487 -0.8967 -0.0868  0.3024
21722SOL     OW71257   7.603   2.418   8.285 -0.0711 -0.0477 -0.5540
21722SOL    HW171258   7.685   2.447   8.244 -0.6230  1.1116 -0.8714
21722SOL    HW271259   7.551   2.383   8.213 -0.7283  1.2714 -0.7475
21723SOL     OW71260   8.610  10.032   1.639 -0.4073  0.0745 -0.0751
21723SOL    HW171261   8.677  10.058   1.702 -0.3558 -0.9259  0.3012
21723SOL    HW271262   8.623  10.091   1.565  0.8922 -0.0873 -0.0060
21724SOL     OW71263   9.956   7.642   8.064 -0.5339  0.0878 -0.2257
21724SOL    HW171264  10.026   7.587   8.029 -0.4400 -0.0108  0.1155
21724SOL    HW271265   9.941   7.608   8.152  0.7150  1.6934  0.6588
21725SOL     OW71266   3.331   6.864   6.118  0.1693 -1.1536  0.2113
21725SOL    HW171267   3.363   6.879   6.207 -0.2006  0.6246  0.0723
21725SOL    HW271268   3.243   6.828   6.131 -0.1058 -0.3747  0.5810
21726SOL     OW71269   5.653   3.202   9.948 -0.5967  0.1577 -0.0868
21726SOL    HW171270   5.627   3.293   9.932  1.1922  0.9324  1.0402
21726SOL    HW271271   5.607   3.151   9.880 -0.9355  1.9977 -1.3128
21727SOL     OW71272  10.611   2.009   3.524 -0.4405  0.0689 -0.5294
21727SOL    HW171273  10.556   2.062   3.580  1.5702  0.8845  0.8054
21727SOL    HW271274  10.590   2.036   3.435 -0.3149  2.2848  0.0668
21728SOL     OW71275   2.960   5.162   7.779  0.1332 -0.3766  0.6099
21728SOL    HW171276   2.895   5.099   7.748 -0.3449  0.2798  0.2655
21728SOL    HW271277   2.983   5.131   7.866 -0.2005 -0.9464  0.5038
21729SOL     OW71278   1.604   0.095   2.797 -0.1257  0.1276 -0.0212
21729SOL    HW171279   1.554   0.015   2.808 -0.3880  0.2234 -0.4763
21729SOL    HW271280   1.558   0.160   2.852 -0.3362  0.1442 -0.2156
21730SOL     OW71281   6.707   7.737   0.118  0.8875  0.6569  0.1710
21730SOL    HW171282   6.785   7.785   0.146  1.1437  0.2035  0.2473
21730SOL    HW271283   6.741   7.670   0.059  0.5926  0.2443  0.4709
21731SOL     OW71284  10.660   6.599   9.040  0.5809 -0.5592 -0.6196
21731SOL    HW171285  10.656   6.505   9.051  1.2515 -0.4795  0.3954
21731SOL    HW271286  10.675   6.634   9.128 -4.1944  0.8301 -0.1056
21732SOL     OW71287   5.111  10.410   8.793 -0.3481 -0.5996  0.3497
21732SOL    HW171288   5.187  10.399   8.737  0.0394  1.3668  0.3931
21732SOL    HW271289   5.037  10.416   8.732 -0.1014  0.1822  0.1164
21733SOL     OW71290   6.231   3.533  10.417  0.7576  0.3629  0.1600
21733SOL    HW171291   6.227   3.547  10.512  2.1856 -0.1474  0.3180
21733SOL    HW271292   6.263   3.443  10.408 -2.0231 -0.6191 -0.8282
21734SOL     OW71293   0.167   9.356   4.925  0.2277  0.1114 -0.0355
21734SOL    HW171294   0.254   9.320   4.945  0.1544 -1.0105 -1.4919
21734SOL    HW271295   0.123   9.285   4.877 -1.3007  0.8579  0.2072
21735SOL     OW71296   5.831   5.781   8.902 -0.4120  0.4398  0.2374
21735SOL    HW171297   5.743   5.758   8.930  0.2750 -0.4646  1.7837
21735SOL    HW271298   5.856   5.855   8.956 -0.6387  1.4800 -1.0391
21736SOL     OW71299   4.052   3.963   5.471 -0.0860 -0.0331 -0.2527
21736SOL    HW171300   4.141   3.928   5.472  1.0815  2.6873 -0.2462
21736SOL    HW271301   4.052   4.027   5.400 -1.6945  0.8927  0.5292
21737SOL     OW71302   4.697   8.121   9.874  0.0004 -0.6767  0.2771
21737SOL    HW171303   4.623   8.085   9.923  0.2591 -0.3047  0.9482
21737SOL    HW271304   4.658   8.189   9.818 -0.0264  0.2658  1.4148
21738SOL     OW71305   2.771   3.994   3.843 -0.1557 -1.0809  0.5004
21738SOL    HW171306   2.738   4.081   3.868  1.4900 -0.7291  1.6192
21738SOL    HW271307   2.833   4.012   3.772  2.3956 -0.9228  2.6402
21739SOL     OW71308   1.807   1.300   3.139  0.3367 -0.1910 -0.4387
21739SOL    HW171309   1.793   1.351   3.059  3.7435  1.1650 -0.3405
21739SOL    HW271310   1.898   1.270   3.133  0.1337 -1.6110  2.1090
21740SOL     OW71311  10.655   0.601   2.692 -0.1159 -0.2083  0.3210
21740SOL    HW171312  10.696   0.590   2.778 -0.8807  0.2828  0.7521
21740SOL    HW271313  10.711   0.665   2.647  0.5627 -0.8272  0.2544
21741SOL     OW71314   1.639   6.664   1.871  0.4520  0.1393  0.5797
21741SOL    HW171315   1.544   6.653   1.879  0.5435 -0.9159  0.4240
21741SOL    HW271316   1.653   6.691   1.780  0.2699  0.8208  0.7486
21742SOL     OW71317   5.932   4.202   0.378 -0.1674 -0.1036  0.3130
21742SOL    HW171318   6.010   4.173   0.427  0.6710  1.5931  0.0899
21742SOL    HW271319   5.955   4.189   0.286  0.0725  0.8129  0.2259
21743SOL     OW71320   4.799   7.246   4.901 -0.2338  0.2133  0.1436
21743SOL    HW171321   4.745   7.267   4.825 -0.9489 -1.6155  0.0904
21743SOL    HW271322   4.880   7.294   4.888 -1.7324  2.9336  0.1279
21744SOL     OW71323   1.121   8.072   7.775  0.4539  1.1135  0.3376
21744SOL    HW171324   1.101   8.046   7.865 -1.4384 -1.4655 -0.6911
21744SOL    HW271325   1.109   7.992   7.724  0.3608  2.7297 -2.3625
21745SOL     OW71326   3.791   0.451   5.294 -0.0922 -0.2404 -0.4080
21745SOL    HW171327   3.790   0.471   5.200  0.4307 -2.8996 -1.0428
21745SOL    HW271328   3.851   0.377   5.303  0.6463  0.5569  2.1971
21746SOL     OW71329   8.704   7.800   5.649 -0.0992 -0.0424  0.1922
21746SOL    HW171330   8.739   7.774   5.564 -0.2093 -0.9231  0.4039
21746SOL    HW271331   8.655   7.880   5.631 -0.2379 -0.2938 -0.5989
21747SOL     OW71332   8.426   5.211   2.615 -0.4656  0.6263  0.0386
21747SOL    HW171333   8.493   5.213   2.684 -0.2144  1.9576 -0.2172
21747SOL    HW271334   8.364   5.144   2.643  0.7320 -0.3216  0.5116
21748SOL     OW71335   1.886   2.031   2.397 -0.5220  0.1703  0.3291
21748SOL    HW171336   1.936   1.974   2.338 -0.9366  0.4945 -0.3534
21748SOL    HW271337   1.952   2.085   2.440 -0.2292  0.1470 -0.0811
21749SOL     OW71338   6.404   6.373   0.581 -0.3743  0.6476  0.1695
21749SOL    HW171339   6.326   6.427   0.594 -1.2955 -0.7172  0.5778
21749SOL    HW271340   6.370   6.291   0.545  1.1412  0.8512 -1.8805
21750SOL     OW71341   0.750   3.238   2.599  0.1985 -0.0242 -0.6630
21750SOL    HW171342   0.803   3.170   2.641 -0.7569  0.1543  0.9567
21750SOL    HW271343   0.663   3.229   2.640 -0.2018  1.5599 -1.0718
21751SOL     OW71344   6.785   2.061   2.725 -0.6873 -0.0461  0.1818
21751SOL    HW171345   6.849   2.133   2.723 -2.1277  1.2587 -0.6743
21751SOL    HW271346   6.833   1.986   2.691  0.3896  0.9001 -0.4698
21752SOL     OW71347   6.179   8.162   1.075  0.4851  0.4367 -0.4186
21752SOL    HW171348   6.164   8.084   1.021 -0.2749 -0.2054  0.6822
21752SOL    HW271349   6.203   8.127   1.161 -0.3443  1.3968  0.2189
21753SOL     OW71350   9.196   0.192   3.335  0.2799 -0.0800  0.4016
21753SOL    HW171351   9.108   0.225   3.314  0.5376 -0.2033 -0.9812
21753SOL    HW271352   9.181   0.126   3.403 -1.0239 -1.7669 -1.3787
21754SOL     OW71353   1.605   9.796   1.102  0.4011  0.3105  0.1004
21754SOL    HW171354   1.546   9.762   1.169  0.9759 -0.2275  0.3506
21754SOL    HW271355   1.691   9.794   1.144  0.4554  2.0973  0.1116
21755SOL     OW71356   6.873   7.107   9.159  0.1862  0.3676  0.6755
21755SOL    HW171357   6.954   7.091   9.111 -0.2680 -3.3119  0.8072
21755SOL    HW271358   6.901   7.125   9.249  0.8926 -0.5796  0.6597
21756SOL     OW71359   2.582   8.291   5.750 -0.1202 -0.0998  0.3051
21756SOL    HW171360   2.493   8.288   5.714  0.2188  0.5139 -0.6227
21756SOL    HW271361   2.597   8.383   5.770  0.1053 -0.2814  1.0063
21757SOL     OW71362   1.552   5.865   0.287 -0.0808  0.2066 -0.5821
21757SOL    HW171363   1.620   5.895   0.227  0.5129 -0.3291 -0.1888
21757SOL    HW271364   1.511   5.945   0.320  1.6500  0.6478  0.6547
21758SOL     OW71365   5.561   0.659   3.647 -0.3311 -0.3644  0.2741
21758SOL    HW171366   5.508   0.665   3.568  1.3085  0.8784 -0.7844
21758SOL    HW271367   5.587   0.749   3.666  0.8313 -0.8622  1.1604
21759SOL     OW71368   5.702   8.569   4.224 -0.3947 -0.4229 -0.2646
21759SOL    HW171369   5.779   8.542   4.275  0.5891  0.4565 -1.2431
21759SOL    HW271370   5.630   8.517   4.261  0.1755  0.4489  2.3015
21760SOL     OW71371   2.694   4.612   9.351 -0.3169  0.0982  0.0331
21760SOL    HW171372   2.746   4.548   9.302  0.4770  1.3636 -0.8287
21760SOL    HW271373   2.742   4.624   9.433  0.4810  0.8334 -0.5189
21761SOL     OW71374   9.417   0.457   8.023 -0.4962  0.1395  0.0689
21761SOL    HW171375   9.405   0.547   7.994  0.4170  0.5726  0.9540
21761SOL    HW271376   9.454   0.412   7.947 -2.1169  0.1715 -0.7880
21762SOL     OW71377   2.267   1.603   8.329  0.2345  0.2465 -0.0456
21762SOL    HW171378   2.340   1.605   8.391 -0.9659  4.4163  1.6107
21762SOL    HW271379   2.253   1.695   8.307 -4.6231 -0.2591 -0.0311
21763SOL     OW71380   8.254   6.951   5.333 -0.1028 -0.3953 -0.6017
21763SOL    HW171381   8.242   6.863   5.370 -0.1678  0.8603  2.7276
21763SOL    HW271382   8.348   6.959   5.322  0.0049 -0.5210  0.1599
21764SOL     OW71383   4.048   6.116   1.687 -0.0797 -0.2271  0.2316
21764SOL    HW171384   4.089   6.197   1.658 -0.2286 -1.1800 -3.0766
21764SOL    HW271385   3.954   6.133   1.683 -0.1091 -0.0590  1.3094
21765SOL     OW71386   8.956  10.572   9.674  0.2224 -0.1071  0.6499
21765SOL    HW171387   8.879  10.592   9.621  1.3909 -1.2028 -1.6163
21765SOL    HW271388   8.988  10.658   9.702  0.0497  0.6457 -1.2451
21766SOL     OW71389   8.929  10.842   2.396  0.0854 -0.2385  0.2289
21766SOL    HW171390   8.972  10.829   2.480 -1.9558 -1.0408  1.2153
21766SOL    HW271391   8.874  10.918   2.409  0.7997  0.4973 -0.8672
21767SOL     OW71392   0.677   5.442   8.156 -0.7794  0.5706  0.2525
21767SOL    HW171393   0.697   5.421   8.247 -3.5153  0.1070  0.8294
21767SOL    HW271394   0.625   5.368   8.124  1.7538 -0.2537 -2.3922
21768SOL     OW71395   0.073   6.714   9.393 -0.0982 -0.5224 -0.2273
21768SOL    HW171396   0.039   6.782   9.450 -1.5036  0.9357 -2.6329
21768SOL    HW271397   0.073   6.635   9.447 -0.4227  0.9311  2.0223
21769SOL     OW71398   1.571  10.471   8.058 -0.4682  0.0789  0.5709
21769SOL    HW171399   1.639  10.480   8.124  1.5796  1.7946 -1.6284
21769SOL    HW271400   1.523  10.554   8.062  0.3966  0.6726 -0.7941
21770SOL     OW71401   6.079   1.555   9.178 -0.0110 -0.3575 -0.2883
21770SOL    HW171402   6.011   1.492   9.203  1.2516 -1.4354  0.5290
21770SOL    HW271403   6.075   1.623   9.245 -0.8880  0.0930 -0.7700
21771SOL     OW71404  10.823   0.997   8.308  0.0786 -0.3156  0.7760
21771SOL    HW171405  10.833   0.936   8.234  0.0618 -1.8678  1.9979
21771SOL    HW271406  10.913   1.019   8.332  0.0785  0.6035  0.0037
21772SOL     OW71407   2.006   9.353   5.510  0.2390 -0.6843 -0.0315
21772SOL    HW171408   2.009   9.347   5.414  0.9780  0.5402 -0.1059
21772SOL    HW271409   1.913   9.362   5.530  0.1591  0.2244 -0.7290
21773SOL     OW71410   7.826   8.616   6.317 -0.0631 -0.1361  0.7115
21773SOL    HW171411   7.877   8.548   6.361 -0.5604  0.4510  2.2389
21773SOL    HW271412   7.738   8.578   6.310 -0.3963  0.4153  1.7672
21774SOL     OW71413   6.959   9.942   9.005 -0.0273  0.2881  0.0267
21774SOL    HW171414   6.901   9.867   8.987  1.1139 -0.5728 -0.1920
21774SOL    HW271415   6.953   9.953   9.100  1.6977 -1.7536  0.4535
21775SOL     OW71416   6.006   5.346   7.631  0.3830  0.3387  0.0058
21775SOL    HW171417   6.053   5.393   7.700 -1.2580  0.6276  0.9873
21775SOL    HW271418   6.028   5.254   7.647 -0.9772  0.2612  1.8014
21776SOL     OW71419   1.308   2.779   9.746  0.1705  0.0088 -0.0768
21776SOL    HW171420   1.216   2.758   9.726  0.3880  1.4923 -2.9732
21776SOL    HW271421   1.323   2.737   9.831 -3.4527  0.5032  0.9913
21777SOL     OW71422   0.960   4.414   3.586 -0.4326 -0.4362 -0.0067
21777SOL    HW171423   0.942   4.382   3.498 -0.0364 -1.8623  0.3955
21777SOL    HW271424   1.048   4.380   3.606 -0.0218  0.8691  0.4974
21778SOL     OW71425   6.760   3.588   1.461 -0.5279  0.3217  0.5895
21778SOL    HW171426   6.838   3.604   1.407 -0.3861 -1.4804  0.1907
21778SOL    HW271427   6.687   3.617   1.407 -0.2427  0.7146  0.4006
21779SOL     OW71428   1.576   9.138   0.826  0.1774 -0.2712 -0.1396
21779SOL    HW171429   1.530   9.157   0.908  2.7332  3.2232  0.7117
21779SOL    HW271430   1.666   9.121   0.853  0.7778 -0.4882 -2.1386
21780SOL     OW71431   4.284   2.451   6.678  0.1347  0.2892 -0.0797
21780SOL    HW171432   4.302   2.442   6.771  1.6805  2.1721 -0.1129
21780SOL    HW271433   4.366   2.426   6.635 -0.5634 -0.5724 -0.9512
21781SOL     OW71434   1.160   2.173   5.496 -0.6475  0.2119 -0.0828
21781SOL    HW171435   1.169   2.246   5.434 -1.4643  1.5745  1.3195
21781SOL    HW271436   1.234   2.116   5.476 -0.7220  0.7371 -2.0959
21782SOL     OW71437   1.575   5.714   5.445 -0.3725  0.4338  0.2355
21782SOL    HW171438   1.481   5.734   5.449  0.1923  3.7579  0.5072
21782SOL    HW271439   1.596   5.685   5.534 -0.9276  1.1665  0.6292
21783SOL     OW71440   8.451   8.660   6.197  0.3624 -1.0359  0.4329
21783SOL    HW171441   8.478   8.627   6.111  0.6366 -1.9042  0.8536
21783SOL    HW271442   8.527   8.646   6.253  0.5931  0.5451  0.5782
21784SOL     OW71443   1.285   9.316   7.687  0.3300  0.3623  0.0837
21784SOL    HW171444   1.340   9.237   7.685 -0.8202 -0.4719 -1.4800
21784SOL    HW271445   1.282   9.341   7.779  1.3355 -0.9763  0.5217
21785SOL     OW71446   5.828   2.027   3.137  0.1304  0.2214 -0.5699
21785SOL    HW171447   5.791   1.939   3.144 -1.6425  1.0828  1.8302
21785SOL    HW271448   5.883   2.036   3.215  0.4885  1.1706 -0.9232
21786SOL     OW71449   0.894  10.306   1.349  0.2681  0.3947  0.4210
21786SOL    HW171450   0.849  10.264   1.422 -0.1222 -1.4806 -0.8120
21786SOL    HW271451   0.984  10.319   1.379 -0.4034  1.7623  1.9862
21787SOL     OW71452   8.884   4.438   1.466 -0.4082  0.7398  0.1451
21787SOL    HW171453   8.944   4.403   1.533 -1.0207  0.1749  0.4175
21787SOL    HW271454   8.848   4.517   1.506 -0.2366  0.7928  0.1961
21788SOL     OW71455   2.620   9.899   6.040 -0.5415 -0.2674  0.0305
21788SOL    HW171456   2.529   9.908   6.068 -0.5087 -2.0166  0.8061
21788SOL    HW271457   2.665   9.861   6.116  1.0279  1.2277 -0.0687
21789SOL     OW71458   3.996   8.592   4.272 -0.6706  0.5371  0.6228
21789SOL    HW171459   4.022   8.580   4.363 -1.1238 -0.4758  0.6352
21789SOL    HW271460   4.035   8.518   4.226 -2.5238 -0.4060  0.4539
21790SOL     OW71461   1.775   2.865   3.245 -0.4107  0.0018  0.6981
21790SOL    HW171462   1.685   2.836   3.257 -0.9254  2.1125  2.6370
21790SOL    HW271463   1.768   2.959   3.227  1.3814  0.2808  1.2035
21791SOL     OW71464  10.862   8.869   8.550 -0.0468 -0.2291  1.0199
21791SOL    HW171465  10.918   8.888   8.475  0.0474  0.4141  1.2439
21791SOL    HW271466  10.783   8.921   8.535 -0.4436 -0.8766  0.8722
21792SOL     OW71467   8.858  10.815   3.357 -0.0010  0.9642 -0.1807
21792SOL    HW171468   8.902  10.820   3.442 -1.7701 -0.6054  0.9217
21792SOL    HW271469   8.766  10.832   3.377 -0.4755  0.3763 -1.7450
21793SOL     OW71470   2.455   5.556   4.551 -0.3349  0.0011 -0.5979
21793SOL    HW171471   2.507   5.499   4.494 -0.4156  1.0463 -1.7563
21793SOL    HW271472   2.455   5.511   4.635 -0.4486 -1.7440 -1.4778
21794SOL     OW71473   9.073   0.259  10.218  0.1007  0.1545  0.1226
21794SOL    HW171474   9.121   0.189  10.174 -0.6055 -1.5050  1.8507
21794SOL    HW271475   9.128   0.281  10.293 -0.3340  0.4745  0.3490
21795SOL     OW71476   4.229   1.376   2.419  0.6646  0.4068  0.2042
21795SOL    HW171477   4.249   1.383   2.513  1.9656  1.3093 -0.1156
21795SOL    HW271478   4.133   1.374   2.415  0.5625  1.6797  1.4768
21796SOL     OW71479   4.435   7.054   0.498  0.7694 -0.2017 -0.2296
21796SOL    HW171480   4.371   6.988   0.471 -1.3947  0.9228  1.7729
21796SOL    HW271481   4.490   7.009   0.562 -1.0085 -0.0379  1.5022
21797SOL     OW71482   8.845   5.368  10.527 -0.3441  0.0581  0.4304
21797SOL    HW171483   8.894   5.438  10.484  0.5910 -0.3171  0.8748
21797SOL    HW271484   8.814   5.312  10.456 -0.5343  0.5566  0.1198
21798SOL     OW71485   3.306   8.366   3.213 -0.1969 -0.1066 -0.0558
21798SOL    HW171486   3.282   8.274   3.212 -0.7885  0.0474 -0.5874
21798SOL    HW271487   3.280   8.397   3.300  3.7724 -1.3685  1.8078
21799SOL     OW71488   4.143   7.416   2.686  0.3395 -1.1894  0.2735
21799SOL    HW171489   4.163   7.510   2.691  1.5051 -1.4051 -0.0717
21799SOL    HW271490   4.067   7.411   2.628  0.5737 -0.4949 -0.1077
21800SOL     OW71491   0.013   8.567   4.462 -0.3065  0.3088  0.4080
21800SOL    HW171492   0.085   8.558   4.400 -0.3681  0.0171  0.3774
21800SOL    HW271493  -0.009   8.660   4.461 -0.7008  0.2098 -0.4525
21801SOL     OW71494   5.423   1.167   0.089 -0.0198 -0.4865  0.8269
21801SOL    HW171495   5.361   1.189   0.020  1.9961 -1.0976 -1.2936
21801SOL    HW271496   5.405   1.075   0.109 -1.2554 -0.0417  1.8791
21802SOL     OW71497   7.384   3.695   7.231  0.2069  0.5528  0.2478
21802SOL    HW171498   7.299   3.725   7.262  0.9788  2.5856  0.5286
21802SOL    HW271499   7.390   3.726   7.141 -0.2158 -1.5168 -0.5452
21803SOL     OW71500   8.745   9.784   6.456 -0.3331  0.2513  0.3373
21803SOL    HW171501   8.651   9.774   6.440 -0.3269 -2.6244  1.4703
21803SOL    HW271502   8.779   9.694   6.458  2.4397  1.1887  0.1195
21804SOL     OW71503   0.586   1.695   5.861  0.1048 -0.0523  0.1306
21804SOL    HW171504   0.555   1.606   5.841 -1.4114  0.7275 -1.1700
21804SOL    HW271505   0.632   1.722   5.782 -0.2956  0.6939  0.1520
21805SOL     OW71506   6.968   6.530   0.412  0.1347 -0.2463 -0.0939
21805SOL    HW171507   6.924   6.604   0.455 -0.9215  0.0043 -1.4950
21805SOL    HW271508   7.061   6.547   0.423 -0.0096 -0.9680  3.2868
21806SOL     OW71509   6.014   9.252   0.723 -0.1665 -0.1702 -0.2672
21806SOL    HW171510   6.066   9.174   0.704  0.8284  0.4939 -0.3751
21806SOL    HW271511   5.969   9.272   0.641 -0.6871 -0.8052 -0.1478
21807SOL     OW71512   8.797   8.672  10.240 -0.0278  0.0776  0.0801
21807SOL    HW171513   8.860   8.682  10.312  0.8423  0.3493 -0.6903
21807SOL    HW271514   8.711   8.676  10.282  0.4560  0.5159  1.0670
21808SOL     OW71515   8.717   7.084   3.899  0.1601 -0.4669 -0.1126
21808SOL    HW171516   8.656   7.134   3.952  1.1306  0.2752  0.3435
21808SOL    HW271517   8.672   7.070   3.816 -0.5124  0.3057  0.1104
21809SOL     OW71518   0.548   0.421   2.971 -0.1793  0.1818  0.0038
21809SOL    HW171519   0.492   0.491   2.936  2.3523  1.4074 -1.8929
21809SOL    HW271520   0.599   0.391   2.896 -0.1191 -2.7670  1.0930
21810SOL     OW71521   9.134   3.270   7.268  0.0923 -0.0953 -0.3511
21810SOL    HW171522   9.220   3.229   7.269  0.1944 -0.1037  2.9660
21810SOL    HW271523   9.136   3.331   7.342 -2.8674 -0.3974  0.0950
21811SOL     OW71524   3.296   0.269   2.153  0.1281 -0.0696  0.3964
21811SOL    HW171525   3.325   0.284   2.063  1.3838  3.4335  1.2180
21811SOL    HW271526   3.220   0.325   2.164 -1.8276 -2.6276  0.8140
21812SOL     OW71527   3.606   3.620   3.371 -0.1114 -0.4690  0.5270
21812SOL    HW171528   3.677   3.555   3.365 -0.0438 -0.4755  1.2325
21812SOL    HW271529   3.588   3.645   3.281  0.2661 -1.0400  0.2888
21813SOL     OW71530   7.421   7.299   8.365 -0.3068 -0.3253 -0.6596
21813SOL    HW171531   7.361   7.225   8.379  1.4063 -1.9391 -1.4452
21813SOL    HW271532   7.497   7.260   8.321  0.9944  1.7877 -0.3983
21814SOL     OW71533   8.750   9.870   5.957 -0.1510 -0.1214  0.4674
21814SOL    HW171534   8.788   9.937   5.900 -1.7605 -0.4378 -1.0722
21814SOL    HW271535   8.823   9.814   5.981  0.5150 -0.2905 -1.7468
21815SOL     OW71536   3.060   0.499   7.642  0.6769 -0.0353  0.0530
21815SOL    HW171537   2.976   0.461   7.615  0.1428  1.8992 -1.1865
21815SOL    HW271538   3.120   0.476   7.572  1.0530 -0.8283  0.6108
21816SOL     OW71539   1.737  10.912   4.795  0.4533  0.0834  0.3108
21816SOL    HW171540   1.810  10.891   4.853 -0.2391  0.7528  1.4565
21816SOL    HW271541   1.677  10.838   4.804  0.2646  0.2697  0.5739
21817SOL     OW71542   4.004   2.275   2.547  0.5414  0.1656 -0.2824
21817SOL    HW171543   3.973   2.280   2.457 -1.8592 -1.7334  0.3185
21817SOL    HW271544   3.930   2.239   2.596  2.4363 -0.7973  2.1013
21818SOL     OW71545   2.509   3.812  10.021  0.3681  0.3463 -0.5804
21818SOL    HW171546   2.437   3.767   9.976 -0.8809  1.7874 -0.1118
21818SOL    HW271547   2.588   3.782   9.975 -0.3222 -2.4784 -0.1091
21819SOL     OW71548   3.345   9.551   9.322 -0.0392 -0.2052  0.3616
21819SOL    HW171549   3.276   9.617   9.318 -1.0448 -0.9469  3.0057
21819SOL    HW271550   3.354   9.532   9.415  3.6305 -0.3361  0.1253
21820SOL     OW71551   5.430   8.221  10.689 -0.1304  0.0136 -0.1153
21820SOL    HW171552   5.449   8.312  10.709 -0.6264 -0.1078  1.0135
21820SOL    HW271553   5.456   8.210  10.598 -1.1461  1.5945 -0.6354
21821SOL     OW71554   0.446   5.308   7.001 -0.3107 -0.1808  0.0709
21821SOL    HW171555   0.455   5.387   6.948 -0.3177 -0.2208  0.0093
21821SOL    HW271556   0.446   5.339   7.092 -0.2551 -0.1159  0.0487
21822SOL     OW71557   3.570   1.406   4.951  0.2585  0.2598  0.6738
21822SOL    HW171558   3.533   1.464   5.018  0.9751 -0.8252  2.0811
21822SOL    HW271559   3.564   1.319   4.990  3.4584 -0.0859  0.6621
21823SOL     OW71560   7.345   8.649   7.116  0.3632  0.2985  0.0701
21823SOL    HW171561   7.283   8.685   7.053 -0.3691 -1.2652 -0.1324
21823SOL    HW271562   7.430   8.683   7.088 -0.1774  1.1073 -0.6421
21824SOL     OW71563   1.711   5.945   7.292  0.1944 -0.0951  0.1768
21824SOL    HW171564   1.634   5.911   7.246 -1.3072  0.7796  1.9684
21824SOL    HW271565   1.773   5.963   7.221 -1.3911 -0.3613 -1.3750
21825SOL     OW71566   6.318   6.513   6.478  0.8185  0.2926  0.8030
21825SOL    HW171567   6.389   6.465   6.436  1.3161  0.6919  1.1719
21825SOL    HW271568   6.238   6.475   6.442  1.2246  0.3297 -0.1555
21826SOL     OW71569   9.755   5.046   7.274 -0.5034 -0.6233 -0.2754
21826SOL    HW171570   9.664   5.061   7.300 -0.1687 -0.3420  0.7904
21826SOL    HW271571   9.784   5.131   7.242 -0.4627 -0.5769 -0.1174
21827SOL     OW71572   9.260   1.259   2.435 -0.9443 -0.3686 -0.3772
21827SOL    HW171573   9.165   1.248   2.445 -1.4075  1.5070 -1.9314
21827SOL    HW271574   9.280   1.219   2.350 -0.6468  0.5161 -0.7428
21828SOL     OW71575  10.569   7.770  10.131 -0.2269 -0.5121  0.4928
21828SOL    HW171576  10.544   7.853  10.090 -1.3394  0.1069  2.3081
21828SOL    HW271577  10.607   7.796  10.216 -1.1965 -1.8592  1.3696
21829SOL     OW71578   4.357   0.877  10.544 -0.9083 -0.6941  0.5105
21829SOL    HW171579   4.394   0.823  10.614  1.0449 -0.0119  0.0846
21829SOL    HW271580   4.386   0.834  10.464 -0.0787  0.4502  0.1645
21830SOL     OW71581   2.673   8.655   5.490 -0.7582 -0.1836 -0.3085
21830SOL    HW171582   2.721   8.577   5.460  0.9910 -0.1761  2.1522
21830SOL    HW271583   2.597   8.620   5.536  0.1323 -0.5157  0.9714
21831SOL     OW71584  10.813   1.006   9.535  0.0299 -0.0974 -0.0568
21831SOL    HW171585  10.841   0.936   9.594 -1.7485  0.0739  1.0886
21831SOL    HW271586  10.815   0.966   9.448  0.9095 -0.9469  0.3293
21832SOL     OW71587   5.912   5.769   0.604  0.6172 -0.3953 -0.1942
21832SOL    HW171588   5.925   5.730   0.691  0.8115  0.9294  0.3994
21832SOL    HW271589   5.959   5.711   0.544 -0.0026 -1.6546  0.4946
21833SOL     OW71590   1.321  10.393   3.265  0.2004  0.2467  0.0202
21833SOL    HW171591   1.273  10.310   3.268  0.4729  0.0867 -0.0303
21833SOL    HW271592   1.389  10.379   3.200  2.1185 -0.4944  2.0845
21834SOL     OW71593   6.117   0.999   1.054 -0.3366 -0.5286 -0.1710
21834SOL    HW171594   6.172   0.925   1.080 -0.0884 -0.3297 -0.1397
21834SOL    HW271595   6.098   1.045   1.135  0.3292  0.0158 -0.3197
21835SOL     OW71596   6.230   9.156   0.061 -0.1037  0.0953 -0.4782
21835SOL    HW171597   6.158   9.098   0.083 -0.1516  0.9113  1.9030
21835SOL    HW271598   6.237   9.214   0.137  2.2142  0.8794 -1.2077
21836SOL     OW71599   8.572   7.178   9.560 -0.3743  0.6396  0.3233
21836SOL    HW171600   8.550   7.122   9.635  0.2034 -1.5057 -1.0016
21836SOL    HW271601   8.488   7.211   9.530 -1.2127 -2.1384 -0.7298
21837SOL     OW71602   4.505   5.175   2.088  0.2579 -0.6917  0.7085
21837SOL    HW171603   4.475   5.090   2.121  0.8079 -1.4349 -0.6134
21837SOL    HW271604   4.558   5.153   2.011  0.4562  0.8576  0.3756
21838SOL     OW71605   3.882   3.699   3.793 -0.1446 -0.0674  0.1259
21838SOL    HW171606   3.923   3.638   3.731  0.8458 -1.1647  1.7765
21838SOL    HW271607   3.951   3.763   3.812 -0.1721 -0.1955  0.6771
21839SOL     OW71608   6.252   4.333  10.154  0.1046  0.2069  0.5421
21839SOL    HW171609   6.179   4.381  10.194 -2.2618 -1.7483 -1.1041
21839SOL    HW271610   6.248   4.356  10.062  0.1328 -1.5638  0.0560
21840SOL     OW71611   3.737   9.845   5.518 -0.3705 -0.4939  0.0929
21840SOL    HW171612   3.725   9.940   5.518 -1.5382 -0.6150 -1.2955
21840SOL    HW271613   3.826   9.833   5.553 -1.1636  0.9081  2.9556
21841SOL     OW71614   5.955   2.957   5.702 -0.2354  0.0885 -0.2662
21841SOL    HW171615   5.864   2.986   5.700 -0.7673 -1.3734  0.7381
21841SOL    HW271616   5.954   2.879   5.757  1.6100 -0.0583 -0.3698
21842SOL     OW71617   9.974   9.107   2.069  0.0962 -0.3374  0.3714
21842SOL    HW171618   9.951   9.048   2.140 -1.7337 -0.0409  0.0888
21842SOL    HW271619   9.947   9.061   1.989  1.0855 -0.2058 -0.0492
21843SOL     OW71620   5.185   4.862   2.378  0.1855  0.1859  0.2589
21843SOL    HW171621   5.255   4.889   2.319 -0.5028 -0.7539 -1.0412
21843SOL    HW271622   5.105   4.894   2.337 -0.2594  0.0179  0.9781
21844SOL     OW71623   2.401   6.798   5.952 -0.0720  0.1949  0.2532
21844SOL    HW171624   2.423   6.839   6.035  0.0212 -1.4848  1.1024
21844SOL    HW271625   2.470   6.827   5.892  0.9708 -0.0872  1.2735
21845SOL     OW71626   5.241   9.283   9.819 -0.2135  0.5925 -0.1984
21845SOL    HW171627   5.161   9.256   9.775 -0.4339 -0.5995  0.8793
21845SOL    HW271628   5.213   9.308   9.907  0.2519  2.7297 -0.5822
21846SOL     OW71629   9.946   5.088   7.712  0.5013 -0.2315 -0.4641
21846SOL    HW171630   9.927   5.025   7.642  0.6088 -0.4582 -0.2884
21846SOL    HW271631   9.943   5.036   7.792  0.5465 -0.0023 -0.3157
21847SOL     OW71632   8.647   4.029   8.453 -0.1138  0.4089  0.4200
21847SOL    HW171633   8.658   4.020   8.358 -1.0297  2.9326  0.0104
21847SOL    HW271634   8.678   4.117   8.473 -0.4176  0.1082  2.3930
21848SOL     OW71635   5.753   9.006   0.456  0.2534 -0.1256  0.1015
21848SOL    HW171636   5.798   8.962   0.528  0.7087  0.1346 -0.0215
21848SOL    HW271637   5.662   8.978   0.464  0.2938 -0.0713  0.7998
21849SOL     OW71638   2.735   2.615   7.035  0.5210  0.2075 -0.4052
21849SOL    HW171639   2.782   2.681   7.087  1.3600 -0.6878  0.0041
21849SOL    HW271640   2.751   2.532   7.081  2.5961 -0.8905 -2.8682
21850SOL     OW71641   3.547   3.076   5.435 -0.1571  0.1458 -0.1080
21850SOL    HW171642   3.539   2.984   5.410 -1.5686  0.1596  0.1961
21850SOL    HW271643   3.618   3.078   5.499 -2.0615 -1.2811  2.2555
21851SOL     OW71644   8.798   2.991   8.671  0.2467  0.2499  0.7225
21851SOL    HW171645   8.789   2.903   8.634 -0.3032  0.1757  1.0137
21851SOL    HW271646   8.775   3.050   8.600 -3.9803  0.0564  1.7006
21852SOL     OW71647   1.234   2.555   4.898  0.0182  0.0504  0.0751
21852SOL    HW171648   1.192   2.478   4.936 -0.3591  0.4170  0.4205
21852SOL    HW271649   1.178   2.578   4.824 -0.4485  0.5786  0.5755
21853SOL     OW71650   7.211   5.194   7.882 -0.0432  0.0089 -0.1634
21853SOL    HW171651   7.202   5.198   7.977 -3.0934 -2.6079 -0.1952
21853SOL    HW271652   7.292   5.146   7.868 -0.0376 -0.4038  1.1298
21854SOL     OW71653   3.006   8.472   7.790  0.1684 -0.3668 -0.1682
21854SOL    HW171654   3.094   8.492   7.823  0.1339 -1.2102  0.4773
21854SOL    HW271655   2.981   8.549   7.739  0.1355  1.0954  1.9402
21855SOL     OW71656   9.737   0.519   3.409  0.0361  0.1810  0.4881
21855SOL    HW171657   9.810   0.471   3.372  0.7049  1.0873  0.6002
21855SOL    HW271658   9.668   0.514   3.343 -0.8711 -3.0578  1.4985
21856SOL     OW71659   4.527   7.874   6.636  0.9004  0.0271 -0.4169
21856SOL    HW171660   4.488   7.896   6.551  0.2459  0.6481  0.0304
21856SOL    HW271661   4.512   7.780   6.645  0.7044  0.0123 -0.8549
21857SOL     OW71662   1.058   4.649  10.153 -0.3504  0.1914  0.4163
21857SOL    HW171663   1.134   4.671  10.099  0.3804 -3.5540 -0.3197
21857SOL    HW271664   1.091   4.584  10.215 -2.7875 -1.0065  0.5553
21858SOL     OW71665   6.332   0.537   1.172  0.3719  0.5831 -0.4957
21858SOL    HW171666   6.327   0.478   1.098 -0.7051 -0.0353  0.0480
21858SOL    HW271667   6.426   0.545   1.190  0.5295 -1.5688 -0.1154
21859SOL     OW71668   6.089   4.379   0.845  0.1913  0.1153  0.3016
21859SOL    HW171669   6.156   4.445   0.864  0.5300 -0.2932  0.5424
21859SOL    HW271670   6.133   4.317   0.787  0.1828 -0.4327  0.8731
21860SOL     OW71671   4.900   3.821   0.345 -0.1880  0.1703 -0.0000
21860SOL    HW171672   4.812   3.795   0.317  0.5065 -1.6422 -0.6657
21860SOL    HW271673   4.897   3.817   0.440 -0.7422 -0.1558 -0.0260
21861SOL     OW71674   2.573   1.833   2.608 -0.1161  0.2056  0.0482
21861SOL    HW171675   2.589   1.908   2.550 -2.4237  2.0073  1.5588
21861SOL    HW271676   2.644   1.836   2.672  0.3790  0.4545 -0.5065
21862SOL     OW71677   8.923   7.879   9.838 -0.2573 -0.0320 -0.1015
21862SOL    HW171678   8.878   7.959   9.867  0.2946  0.5324 -0.7672
21862SOL    HW271679   9.011   7.887   9.873  0.3027  0.4709 -1.5367
21863SOL     OW71680   2.985   7.177   6.235 -0.5840 -0.6606  0.6877
21863SOL    HW171681   3.042   7.158   6.160  0.5322 -1.2816  1.6437
21863SOL    HW271682   2.990   7.272   6.246  0.3634 -0.7069  0.7908
21864SOL     OW71683   4.491   6.261   5.788  0.7490 -0.2460 -0.4736
21864SOL    HW171684   4.510   6.174   5.754  1.7221  0.0378 -0.6992
21864SOL    HW271685   4.576   6.292   5.821  0.0292 -0.1800  1.4566
21865SOL     OW71686   4.672   9.973   1.437 -0.1173  0.8685 -0.7355
21865SOL    HW171687   4.657   9.881   1.415 -1.0284  0.2809  2.0192
21865SOL    HW271688   4.585  10.012   1.439 -0.0975  0.9331  1.3048
21866SOL     OW71689   9.489   3.719  10.261 -0.6085 -0.4068 -0.0330
21866SOL    HW171690   9.414   3.770  10.230 -0.8031 -0.9240 -0.4396
21866SOL    HW271691   9.474   3.631  10.226  0.5827 -0.3394 -0.7838
21867SOL     OW71692   7.532   5.309   6.339 -0.2394  0.4007  0.1612
21867SOL    HW171693   7.478   5.308   6.418 -1.5182 -2.3650 -0.6046
21867SOL    HW271694   7.615   5.270   6.366 -1.1331 -1.7914 -0.0325
21868SOL     OW71695   5.429   8.784   4.746 -0.2356  0.1801 -0.4475
21868SOL    HW171696   5.420   8.772   4.651  0.0001 -0.1102 -0.4361
21868SOL    HW271697   5.521   8.807   4.758 -0.2650  0.2120 -0.2891
21869SOL     OW71698  10.481   7.962   7.581  0.2524 -0.5167 -0.2609
21869SOL    HW171699  10.477   7.937   7.674 -3.4840  0.6841  0.0793
21869SOL    HW271700  10.552   8.026   7.576 -0.6516  0.8183  2.2289
21870SOL     OW71701   2.927   9.394   2.807 -0.6678  0.3557 -0.2874
21870SOL    HW171702   2.940   9.471   2.862 -1.9872  0.6471 -0.3538
21870SOL    HW271703   2.832   9.390   2.793 -0.5215 -0.7118 -1.1025
21871SOL     OW71704   6.818  10.003   1.101 -0.4782  0.2296 -0.3134
21871SOL    HW171705   6.841  10.052   1.022 -0.4696  0.4765 -0.1568
21871SOL    HW271706   6.752  10.057   1.144 -1.5637 -0.5744 -0.8885
21872SOL     OW71707   8.833   9.768   5.475 -0.6776  0.1267  0.4654
21872SOL    HW171708   8.807   9.679   5.498 -0.9439  0.0066 -0.2725
21872SOL    HW271709   8.758   9.822   5.500 -1.2661 -0.0941 -0.7294
21873SOL     OW71710   5.083   8.910   4.821 -0.4551  0.0194 -0.1334
21873SOL    HW171711   5.150   8.845   4.845  0.7013  0.6306 -1.5545
21873SOL    HW271712   5.031   8.866   4.754  0.9134  0.8404 -1.7823
21874SOL     OW71713   6.151   8.338   2.874 -0.0824 -0.0913  0.5176
21874SOL    HW171714   6.233   8.296   2.847 -0.1532  0.6282 -0.9099
21874SOL    HW271715   6.153   8.336   2.970  1.6229 -0.0291  0.5083
21875SOL     OW71716   7.150   2.962   1.593 -0.1421  0.2399 -0.0276
21875SOL    HW171717   7.193   3.040   1.560 -0.6631  0.7092  0.3868
21875SOL    HW271718   7.057   2.975   1.574 -0.4091  0.3652  1.2949
21876SOL     OW71719  10.569   4.963  10.532 -0.1686  0.5184 -0.1584
21876SOL    HW171720  10.643   4.954  10.593 -1.1242 -1.0488  0.8224
21876SOL    HW271721  10.587   4.900  10.463 -0.5186  0.2312  0.0121
21877SOL     OW71722   2.013   6.848   9.240  0.4490  0.2035  0.3703
21877SOL    HW171723   1.944   6.880   9.183  0.9689 -1.3457 -1.2311
21877SOL    HW271724   1.974   6.848   9.328 -0.8247  1.3799 -0.1583
21878SOL     OW71725   4.021   1.263   6.468 -0.4300 -0.2456  0.2076
21878SOL    HW171726   4.053   1.280   6.379  0.9623 -0.9332  0.5559
21878SOL    HW271727   3.969   1.183   6.460  1.7078 -1.7195  0.4005
21879SOL     OW71728   4.662   9.488  10.170 -0.6387  0.0877 -0.5161
21879SOL    HW171729   4.732   9.442  10.216 -1.4762  0.3278  1.0541
21879SOL    HW271730   4.592   9.495  10.234 -3.3042 -2.6806 -2.8033
21880SOL     OW71731   5.612   2.764   9.227  0.1662  0.0874 -0.3065
21880SOL    HW171732   5.650   2.676   9.225  0.7518  0.2828  0.8129
21880SOL    HW271733   5.557   2.765   9.305  1.4516  1.1784  0.6511
21881SOL     OW71734   4.502   0.632   8.288 -0.2099 -0.0942 -0.2460
21881SOL    HW171735   4.556   0.711   8.287 -1.2138  0.6131  0.2710
21881SOL    HW271736   4.543   0.575   8.353 -1.0072  1.1317  1.4023
21882SOL     OW71737   5.190   9.870   6.255  0.6036  0.1783 -0.6344
21882SOL    HW171738   5.119   9.814   6.285  0.2824  1.5171  1.3481
21882SOL    HW271739   5.161   9.959   6.277  3.2497  0.7126  1.2442
21883SOL     OW71740   3.954   9.904   4.962 -0.2330 -0.3859  0.3150
21883SOL    HW171741   3.892   9.969   4.996 -2.0356 -1.5068 -0.6779
21883SOL    HW271742   3.938   9.903   4.868  1.8427 -0.2156 -0.0863
21884SOL     OW71743   0.295   7.057   4.411 -0.3271  0.3954 -0.2056
21884SOL    HW171744   0.237   7.117   4.457  0.7282  1.7475 -0.5607
21884SOL    HW271745   0.334   7.003   4.480  1.1979  2.3493  0.5909
21885SOL     OW71746   6.959   8.061   0.442 -0.4883 -0.5627  0.5250
21885SOL    HW171747   7.007   8.138   0.412 -0.3050 -0.4046  1.1902
21885SOL    HW271748   6.969   8.063   0.538  0.2569 -1.8797  0.5009
21886SOL     OW71749   4.061   0.615   8.150 -0.3872  0.3701  0.0432
21886SOL    HW171750   4.142   0.625   8.100 -0.3330 -0.8749 -0.1479
21886SOL    HW271751   3.998   0.582   8.086 -0.6902  0.0821  0.4874
21887SOL     OW71752   1.981   0.557   3.750 -0.2481  0.3156  0.3409
21887SOL    HW171753   1.915   0.613   3.789  0.1913  0.8799  0.2789
21887SOL    HW271754   1.932   0.483   3.714 -0.7908  0.4856  0.7284
21888SOL     OW71755   4.982   3.166   4.693 -0.2851  0.3302 -0.2134
21888SOL    HW171756   5.028   3.250   4.694 -0.4842  0.4405  0.9101
21888SOL    HW271757   5.016   3.119   4.770  0.7291 -1.1315 -1.4757
21889SOL     OW71758   3.314   0.398   8.228 -0.3126  0.0549  0.2353
21889SOL    HW171759   3.330   0.489   8.204 -1.0369 -0.0041 -0.5236
21889SOL    HW271760   3.294   0.354   8.145  0.7853 -0.9744  0.4773
21890SOL     OW71761   9.099   7.207   7.175 -0.0106  0.0135  0.0742
21890SOL    HW171762   9.178   7.239   7.218  0.8717  0.1718 -1.5831
21890SOL    HW271763   9.129   7.177   7.089 -2.0296  1.8269 -1.3687
21891SOL     OW71764   8.183   2.872   9.878  0.1993 -0.4281  0.2849
21891SOL    HW171765   8.091   2.899   9.874  0.5981  1.0594  0.6190
21891SOL    HW271766   8.180   2.777   9.883 -1.3166 -0.4142  0.0337
21892SOL     OW71767   2.723   2.442   3.485  0.3435 -0.8780  0.1656
21892SOL    HW171768   2.752   2.377   3.421  0.2314 -1.7659  0.9920
21892SOL    HW271769   2.792   2.443   3.552  0.1462 -0.4475  0.3706
21893SOL     OW71770   9.352   6.971   9.969  0.2229 -0.0189  0.5149
21893SOL    HW171771   9.273   6.967   9.915  1.0105  0.3163 -0.6824
21893SOL    HW271772   9.420   6.929   9.916  0.8333 -0.4487  1.5923
21894SOL     OW71773   1.488   4.778   9.744 -0.7142  0.8504  0.3418
21894SOL    HW171774   1.560   4.831   9.781 -0.8659 -0.4254  2.6508
21894SOL    HW271775   1.505   4.778   9.650  1.7140  1.4914  0.6913
21895SOL     OW71776   8.809   6.379   6.451  0.2601  0.2255 -0.3145
21895SOL    HW171777   8.769   6.422   6.375  0.0986  0.1491 -0.2739
21895SOL    HW271778   8.903   6.379   6.432  0.3397  1.2865  0.0334
21896SOL     OW71779   7.287   3.462   0.200  0.1950 -0.2881 -0.1109
21896SOL    HW171780   7.365   3.491   0.152  0.3831 -1.3902 -0.5112
21896SOL    HW271781   7.284   3.367   0.186 -1.1185 -0.2942  0.0496
21897SOL     OW71782   4.946   4.977   6.667 -0.4875 -0.3951 -0.7824
21897SOL    HW171783   4.906   5.063   6.658 -0.7899 -0.6332 -1.8317
21897SOL    HW271784   4.884   4.928   6.721 -0.0284  0.2156  0.3158
21898SOL     OW71785   7.378   9.766   3.374 -0.5993 -0.0662 -0.4714
21898SOL    HW171786   7.376   9.851   3.419  1.7353 -0.2952  0.2379
21898SOL    HW271787   7.415   9.785   3.288  0.0998 -0.3491 -0.2455
21899SOL     OW71788   6.141   7.013   9.981  0.5290  0.1050  0.0101
21899SOL    HW171789   6.196   6.993  10.057 -0.4435 -0.5236  0.5755
21899SOL    HW271790   6.083   7.083  10.010  0.3998  0.1187 -0.2743
21900SOL     OW71791   2.817   8.037   2.113 -0.9133  0.2878  0.5977
21900SOL    HW171792   2.729   8.053   2.079 -1.4854 -0.2616  1.7461
21900SOL    HW271793   2.875   8.087   2.056 -1.6910 -1.3770 -1.7721
21901SOL     OW71794   1.558   6.648   9.798 -0.7980  0.1912 -0.2027
21901SOL    HW171795   1.614   6.703   9.854 -2.4331  0.5620  1.1637
21901SOL    HW271796   1.608   6.638   9.717  0.8319  1.2520  0.5990
21902SOL     OW71797   5.753   1.900   6.227 -0.3244 -0.1131  0.3420
21902SOL    HW171798   5.722   1.956   6.298 -1.0442  0.8232 -0.6797
21902SOL    HW271799   5.835   1.863   6.260  0.1128  1.4530  1.0988
21903SOL     OW71800   2.552   7.951   8.116  0.1613 -0.5544 -0.0827
21903SOL    HW171801   2.646   7.943   8.102  0.0342 -0.6888 -0.9386
21903SOL    HW271802   2.534   7.895   8.192  0.7599 -0.5657  0.0520
21904SOL     OW71803   5.553   2.594   7.892 -0.0121  0.4743  0.4137
21904SOL    HW171804   5.526   2.675   7.936  1.1369  0.1520  1.7476
21904SOL    HW271805   5.617   2.623   7.827  0.5160  0.6172  0.9967
21905SOL     OW71806   4.585   1.144   3.258 -0.0478 -0.3196  0.3939
21905SOL    HW171807   4.673   1.155   3.221  0.1373 -0.1436  0.8778
21905SOL    HW271808   4.568   1.050   3.252 -0.8223 -0.0911 -1.9306
21906SOL     OW71809   2.831   7.914   9.870  0.0318  0.0133  0.1830
21906SOL    HW171810   2.752   7.860   9.870 -0.1737  0.2782 -1.3262
21906SOL    HW271811   2.799   8.004   9.876  0.0684  0.2406 -2.1913
21907SOL     OW71812   7.739  10.915   1.817 -0.0001 -0.0704  0.0668
21907SOL    HW171813   7.679  10.960   1.876 -0.5527 -0.7550  0.0391
21907SOL    HW271814   7.687  10.902   1.737  1.5362  3.2964 -1.6833
21908SOL     OW71815   1.930   5.544   1.787 -0.0936  1.2670  0.0252
21908SOL    HW171816   1.943   5.558   1.881 -0.3481 -1.1810  0.5078
21908SOL    HW271817   2.001   5.485   1.762 -0.1980  1.6671 -1.2702
21909SOL     OW71818   4.051   7.276   3.561  0.0601  0.1131  0.1911
21909SOL    HW171819   4.027   7.355   3.610  0.0488 -0.3215  0.9006
21909SOL    HW271820   4.015   7.204   3.612 -2.6692 -0.2562 -2.0392
21910SOL     OW71821   5.565   8.072   2.079  0.0663 -0.1995  0.0650
21910SOL    HW171822   5.522   8.069   2.165  1.3384  0.0356  0.7299
21910SOL    HW271823   5.549   8.161   2.048 -1.2495 -0.5775 -0.4208
21911SOL     OW71824   1.952   2.162   5.340  0.4164 -0.1349 -0.0563
21911SOL    HW171825   2.009   2.231   5.307  0.4078 -0.0967  0.0086
21911SOL    HW271826   1.998   2.081   5.318  2.2347 -0.1055  2.9527
21912SOL     OW71827   6.146   5.368   9.288 -0.5467  0.0057 -0.4868
21912SOL    HW171828   6.159   5.307   9.216 -2.3887 -0.5093 -0.4498
21912SOL    HW271829   6.062   5.410   9.269 -1.2951 -0.4384  1.5234
21913SOL     OW71830   2.622   4.436  10.699  0.4527  0.2978 -0.2982
21913SOL    HW171831   2.684   4.407  10.766  1.5610  1.3242 -0.8473
21913SOL    HW271832   2.676   4.474  10.630 -0.7548  0.6410 -1.0964
21914SOL     OW71833  10.396   3.750   2.357 -1.0981 -0.2109  0.2481
21914SOL    HW171834  10.485   3.758   2.393 -0.9485 -0.3627 -0.0861
21914SOL    HW271835  10.366   3.664   2.386 -0.6375 -0.7194 -0.7258
21915SOL     OW71836   6.399   1.201   5.751  0.0297 -0.5068  0.7289
21915SOL    HW171837   6.468   1.134   5.747 -1.6055 -2.2373 -0.3474
21915SOL    HW271838   6.357   1.186   5.836 -0.3161 -0.8552  0.5015
21916SOL     OW71839   8.863   2.499   4.225  0.2044  0.2560  0.7121
21916SOL    HW171840   8.921   2.569   4.253  0.5477 -0.4486  1.8345
21916SOL    HW271841   8.801   2.490   4.297  0.2251 -0.6615  0.6215
21917SOL     OW71842   9.964   8.205   5.481 -0.5783 -0.4322 -0.1371
21917SOL    HW171843   9.993   8.270   5.416  0.4028  0.3374  1.0360
21917SOL    HW271844   9.986   8.121   5.441  0.0127  0.0237 -0.8061
21918SOL     OW71845   3.214   8.441   0.420  0.5710 -0.0143 -0.3420
21918SOL    HW171846   3.309   8.450   0.422  0.5513  0.3550 -0.7817
21918SOL    HW271847   3.196   8.358   0.464  1.2392 -1.1153 -2.0740
21919SOL     OW71848   6.473   6.434   7.273 -0.2236 -0.5574 -0.2103
21919SOL    HW171849   6.510   6.504   7.220 -1.4151  0.6388  0.4613
21919SOL    HW271850   6.387   6.468   7.301 -0.9932 -2.4369 -0.1596
21920SOL     OW71851   3.293   5.966   0.853 -0.0128  0.2123  0.3069
21920SOL    HW171852   3.332   5.880   0.838 -1.1369 -0.4911  1.2381
21920SOL    HW271853   3.342   6.003   0.927  0.7491  0.5765 -0.3631
21921SOL     OW71854   6.258   1.342   0.945 -0.2125  0.1133 -0.5403
21921SOL    HW171855   6.252   1.408   1.014 -0.1863  0.2006 -0.6214
21921SOL    HW271856   6.304   1.386   0.873 -0.2313  0.0200 -0.6097
21922SOL     OW71857   0.080   9.119   4.159 -0.5245  0.9683 -0.0757
21922SOL    HW171858   0.102   9.193   4.103 -0.2977  0.7221 -0.3138
21922SOL    HW271859   0.084   9.043   4.102  0.2260  0.6490  0.3940
21923SOL     OW71860   4.414   7.663  10.534 -0.1409 -0.6083 -0.0401
21923SOL    HW171861   4.384   7.734  10.478  1.0246  0.0318  0.1114
21923SOL    HW271862   4.393   7.584  10.485 -2.7903 -0.2891  0.4260
21924SOL     OW71863  10.536   9.716   1.307 -0.0969  0.0680  0.4939
21924SOL    HW171864  10.566   9.778   1.241  0.3209 -1.3818 -0.7188
21924SOL    HW271865  10.442   9.731   1.313  0.3313  2.7795  2.3578
21925SOL     OW71866   9.449   2.670   6.164 -0.4169  0.4984  0.5867
21925SOL    HW171867   9.484   2.753   6.132  0.3142 -0.1997 -0.5077
21925SOL    HW271868   9.367   2.658   6.118  0.1853 -0.0639 -0.3664
21926SOL     OW71869   2.044   8.165   0.029 -0.0371 -0.5122  0.4979
21926SOL    HW171870   2.115   8.123   0.077 -0.4978 -0.7035  1.0324
21926SOL    HW271871   2.019   8.101  -0.038  0.7884 -0.1346 -0.1844
21927SOL     OW71872   5.946   8.028   2.854 -0.1673 -0.2770 -0.3067
21927SOL    HW171873   5.879   8.075   2.902 -0.0519 -0.2254 -0.1980
21927SOL    HW271874   5.937   7.937   2.883  0.3893 -0.1244  0.3699
21928SOL     OW71875   6.908   8.050   4.721 -0.2515 -0.7195 -0.1053
21928SOL    HW171876   6.862   8.132   4.704  2.7664  1.3407  0.8592
21928SOL    HW271877   6.864   8.013   4.797 -2.4903 -0.7731 -1.3353
21929SOL     OW71878  10.434   2.403   9.238  0.2311  0.1710 -0.4179
21929SOL    HW171879  10.347   2.436   9.218 -0.2108 -1.8656 -2.1913
21929SOL    HW271880  10.421   2.343   9.311  0.2600  0.3549 -0.2614
21930SOL     OW71881  10.900   7.590   5.137 -0.0426 -0.0792 -0.2264
21930SOL    HW171882  10.944   7.631   5.212  1.0901 -2.9042  0.8121
21930SOL    HW271883  10.956   7.611   5.062  0.9223 -0.3030  0.4058
21931SOL     OW71884  10.864   0.852   8.074  0.0683  0.0653 -0.8996
21931SOL    HW171885  10.832   0.789   8.010  0.9902 -1.3670 -0.0213
21931SOL    HW271886  10.946   0.884   8.038  0.5148 -0.6335 -0.5316
21932SOL     OW71887   1.478   5.497   4.990  0.6701  0.2157  0.2531
21932SOL    HW171888   1.408   5.447   5.032  0.3995  0.2495 -0.1487
21932SOL    HW271889   1.556   5.444   5.000  1.0718  1.1487  2.6512
21933SOL     OW71890   1.631   5.599   8.904 -0.3492 -0.3438 -0.0841
21933SOL    HW171891   1.669   5.583   8.817 -0.7028 -0.0198 -0.3020
21933SOL    HW271892   1.613   5.693   8.905 -4.4939 -0.9132 -1.4013
21934SOL     OW71893   4.356   0.863   0.487  0.2526 -0.2709 -0.1687
21934SOL    HW171894   4.371   0.957   0.482 -2.5160  0.2228 -1.0074
21934SOL    HW271895   4.374   0.831   0.399 -0.0498 -0.2871 -0.2265
21935SOL     OW71896   4.253   4.170   8.615  0.1953  0.0414 -0.3406
21935SOL    HW171897   4.246   4.265   8.626 -0.0683 -0.0535  0.3648
21935SOL    HW271898   4.321   4.158   8.549  0.3918  0.7162 -0.2650
21936SOL     OW71899   9.777   3.699   6.629  0.0017 -0.0453  0.1035
21936SOL    HW171900   9.843   3.701   6.698  2.4219 -0.2563 -2.0449
21936SOL    HW271901   9.782   3.610   6.594 -0.1690  0.4428 -1.2135
21937SOL     OW71902   4.494   0.401   4.979  0.1348 -0.4614 -0.0934
21937SOL    HW171903   4.575   0.400   5.029 -0.4561 -1.1323  0.8811
21937SOL    HW271904   4.432   0.448   5.035 -0.6353 -1.5439 -0.0078
21938SOL     OW71905   6.520   8.234   7.112 -0.2734  0.3494  0.8696
21938SOL    HW171906   6.471   8.253   7.192  0.8183 -0.0818  1.6577
21938SOL    HW271907   6.498   8.306   7.053 -1.1068  0.6653  1.5451
21939SOL     OW71908   3.743   9.657   3.626  0.0572  0.4137 -0.5056
21939SOL    HW171909   3.820   9.706   3.598 -0.8601  0.9944 -2.1628
21939SOL    HW271910   3.752   9.571   3.585  0.0350  0.3251 -0.3288
21940SOL     OW71911   1.244   6.143   6.004 -0.3076 -0.3823 -0.0788
21940SOL    HW171912   1.184   6.111   5.936  0.3643  0.8917 -1.3160
21940SOL    HW271913   1.223   6.235   6.014  1.8835  0.2982 -1.0914
21941SOL     OW71914  10.647   2.648   0.392  0.0362 -0.0023  0.2296
21941SOL    HW171915  10.690   2.723   0.433 -1.6753  0.9800  0.3004
21941SOL    HW271916  10.684   2.644   0.304 -1.2061  2.1856 -0.4809
21942SOL     OW71917   1.760   5.498  10.817 -0.1176  0.8681  0.5568
21942SOL    HW171918   1.768   5.403  10.824  0.7152  0.9097  0.2723
21942SOL    HW271919   1.675   5.512  10.776  0.6103  0.1615 -1.2794
21943SOL     OW71920   6.804   3.455  10.078  0.0765  0.6728 -0.0572
21943SOL    HW171921   6.738   3.495  10.022  0.5067  0.8938 -0.4133
21943SOL    HW271922   6.755   3.394  10.133 -0.3808  0.6133 -0.5241
21944SOL     OW71923   6.771   6.570   2.751  0.1490  0.0104 -0.1266
21944SOL    HW171924   6.678   6.586   2.768  0.0507 -0.7628  0.1351
21944SOL    HW271925   6.815   6.650   2.779 -0.1966 -0.5071  2.0881
21945SOL     OW71926   7.543   9.006   2.824  0.7276  0.1897  0.5150
21945SOL    HW171927   7.493   9.030   2.903  1.7327  2.2989  0.5876
21945SOL    HW271928   7.634   9.003   2.853  0.9850 -0.3509 -0.3056
21946SOL     OW71929   0.225  10.025   7.232 -0.2551  0.0247 -0.1580
21946SOL    HW171930   0.308  10.032   7.185  0.4262 -0.7482  0.8858
21946SOL    HW271931   0.230  10.092   7.300 -0.4496 -0.0840 -0.0345
21947SOL     OW71932   3.864   8.704   9.190  1.0404 -0.1852 -0.0607
21947SOL    HW171933   3.947   8.735   9.225  0.2785 -0.1510  1.8228
21947SOL    HW271934   3.833   8.639   9.254 -0.7720  0.4282 -0.2396
21948SOL     OW71935   6.258   1.223   6.630  0.1796  0.3598 -0.5686
21948SOL    HW171936   6.222   1.190   6.547  0.4170  0.2958 -0.6472
21948SOL    HW271937   6.353   1.219   6.618  0.2419 -0.9006  0.1945
21949SOL     OW71938   9.120   4.643   1.184 -0.2164 -0.8403  1.0329
21949SOL    HW171939   9.134   4.579   1.114  0.5603  0.2319  0.1708
21949SOL    HW271940   9.048   4.697   1.153  1.6394  1.1369 -0.1273
21950SOL     OW71941   2.391   5.731   0.397 -0.1126 -0.0396  0.7846
21950SOL    HW171942   2.366   5.646   0.362  0.5515 -0.3704  1.1033
21950SOL    HW271943   2.332   5.745   0.472  0.9441 -1.0325  1.8317
21951SOL     OW71944   2.023   9.061   5.407  0.1709  0.0102  0.1506
21951SOL    HW171945   2.113   9.057   5.439  1.3626  0.4234 -2.8446
21951SOL    HW271946   2.020   9.140   5.353 -0.9908 -1.6588 -2.3969
21952SOL     OW71947   0.799   9.457   4.985  0.2316 -0.1658  0.0071
21952SOL    HW171948   0.869   9.521   4.998 -0.7475  0.7749  0.8950
21952SOL    HW271949   0.840   9.386   4.936  1.1580  1.5009 -1.7917
21953SOL     OW71950  10.249   3.852   5.561  0.2819  0.0268 -0.1076
21953SOL    HW171951  10.165   3.812   5.539  0.1232  0.3550 -0.1089
21953SOL    HW271952  10.232   3.900   5.642  1.7468 -4.1750  3.0224
21954SOL     OW71953   0.241   8.464   6.466 -0.6424 -0.0163  0.1290
21954SOL    HW171954   0.270   8.380   6.502 -0.9858 -0.1187  0.1770
21954SOL    HW271955   0.157   8.444   6.424 -0.1524  0.0546 -0.9210
21955SOL     OW71956   9.777   2.500   3.760 -0.2558 -0.1395  0.2684
21955SOL    HW171957   9.835   2.437   3.717  0.1131  0.0194  0.5354
21955SOL    HW271958   9.690   2.460   3.753 -0.1442 -0.2916 -0.2884
21956SOL     OW71959   4.578   6.297   5.322 -0.1340 -0.3253 -0.3779
21956SOL    HW171960   4.488   6.312   5.294  0.6244  2.0738 -1.8146
21956SOL    HW271961   4.626   6.374   5.291  2.1631 -0.8468  1.5926
21957SOL     OW71962   5.959   9.710   4.893  0.0816  0.3113 -0.3152
21957SOL    HW171963   5.937   9.687   4.802 -1.1039 -1.6905  0.3934
21957SOL    HW271964   6.010   9.790   4.886  0.9569 -0.3664 -2.8272
21958SOL     OW71965   1.903   6.460   1.268 -0.0199 -0.0789  0.1217
21958SOL    HW171966   1.937   6.445   1.356  0.6674 -0.0884 -0.1403
21958SOL    HW271967   1.941   6.389   1.215  1.7687  1.4318 -0.7525
21959SOL     OW71968   1.422   3.032   9.689  0.1187 -0.4466  0.0505
21959SOL    HW171969   1.359   3.101   9.710  0.0955 -0.3004 -0.4846
21959SOL    HW271970   1.372   2.950   9.695 -0.5051 -0.2346 -1.7651
21960SOL     OW71971   3.057   6.022   1.242 -0.2602  0.0850  0.0521
21960SOL    HW171972   3.075   6.113   1.220  0.8590 -0.4670 -1.5356
21960SOL    HW271973   3.127   5.996   1.302 -0.3948  0.1794  0.2503
21961SOL     OW71974   7.157   0.622   3.847 -0.0321 -0.3264 -0.7511
21961SOL    HW171975   7.084   0.652   3.902  0.5669 -1.3360  0.6704
21961SOL    HW271976   7.136   0.530   3.828  0.3401 -0.3101 -1.2513
21962SOL     OW71977   2.380  10.160   7.119  0.3067 -0.3440 -0.2213
21962SOL    HW171978   2.443  10.088   7.122  1.4050  0.6019  1.6847
21962SOL    HW271979   2.418  10.222   7.057  0.4591 -0.4580 -0.2442
21963SOL     OW71980   8.856   6.788   7.598 -0.0429 -0.4642 -0.1534
21963SOL    HW171981   8.843   6.845   7.674  0.0312 -1.1166  0.3661
21963SOL    HW271982   8.837   6.843   7.522 -0.7431  0.0204  0.3643
21964SOL     OW71983  10.604   7.633  10.677 -0.0840 -0.1262  0.0773
21964SOL    HW171984  10.553   7.667  10.751  0.0573  0.3595 -0.0499
21964SOL    HW271985  10.572   7.543  10.666  0.1765 -0.3378  0.9815
21965SOL     OW71986   9.629   8.709   7.100  0.0706 -0.2716  0.5576
21965SOL    HW171987   9.698   8.678   7.158  0.9407 -0.0472 -0.3446
21965SOL    HW271988   9.594   8.630   7.060  1.2512 -0.2502 -0.5790
21966SOL     OW71989   9.634  10.215   6.285  0.1424  0.1937 -0.3822
21966SOL    HW171990   9.654  10.148   6.219  0.2568  0.1738 -0.3283
21966SOL    HW271991   9.553  10.184   6.326  2.1169 -2.0212  2.3108
21967SOL     OW71992   9.836   2.139  10.922 -0.3906 -0.2329  1.1456
21967SOL    HW171993   9.906   2.170  10.980 -0.5321 -0.8171  1.6394
21967SOL    HW271994   9.814   2.052  10.955  0.5257 -1.2055 -0.6886
21968SOL     OW71995  10.862   0.087   9.016  0.4184  0.3772  0.7895
21968SOL    HW171996  10.769   0.095   8.995  0.2257 -0.0325  1.4739
21968SOL    HW271997  10.898   0.174   8.997 -0.1370  0.5895  0.6935
21969SOL     OW71998   0.338  10.774   2.288  0.5888  1.0369  0.0567
21969SOL    HW171999   0.265  10.741   2.235 -0.8474  2.1809  1.2130
21969SOL    HW272000   0.417  10.744   2.243 -0.5625  1.2966 -2.2845
21970SOL     OW72001   3.613   5.790   4.860  0.4924  0.3097 -0.4889
21970SOL    HW172002   3.676   5.814   4.928  0.2555 -0.0823 -0.1225
21970SOL    HW272003   3.667   5.756   4.788  0.6648 -0.8866  0.1833
21971SOL     OW72004   5.085   3.133   2.767 -0.6563  0.2600  0.2080
21971SOL    HW172005   5.125   3.220   2.763 -1.1641  0.5477  1.1335
21971SOL    HW272006   5.039   3.131   2.851 -0.5325 -0.9617  0.2682
21972SOL     OW72007   6.365   5.067   0.211 -0.5971  0.0449  0.1831
21972SOL    HW172008   6.334   5.001   0.274 -1.0214 -0.1034 -0.1762
21972SOL    HW272009   6.438   5.024   0.165  0.7199  0.6798  1.5876
21973SOL     OW72010   5.225   7.894   9.956  0.4003 -0.5741  0.0407
21973SOL    HW172011   5.166   7.964   9.930  0.0932 -0.8693 -0.0572
21973SOL    HW272012   5.311   7.936   9.961  0.1231 -0.0619  0.5711
21974SOL     OW72013   3.071   9.205  10.198  0.0656  0.2985 -0.0769
21974SOL    HW172014   3.129   9.129  10.193 -0.5073 -0.3160  1.7167
21974SOL    HW272015   2.995   9.174  10.248  0.1777  2.2377  1.4427
21975SOL     OW72016   4.240   5.105   6.753  0.2107  0.0663  0.2787
21975SOL    HW172017   4.170   5.043   6.774 -0.7774  0.7680 -0.8127
21975SOL    HW272018   4.287   5.117   6.835 -2.2650  1.1939  1.6525
21976SOL     OW72019   0.097   2.601   6.192 -0.1290  0.4030  0.1614
21976SOL    HW172020   0.070   2.518   6.153  0.7055 -0.0478  0.5184
21976SOL    HW272021   0.192   2.597   6.193 -0.1039  1.0135  0.9332
21977SOL     OW72022   5.936   6.211  10.530 -0.1992  0.5231 -0.4142
21977SOL    HW172023   6.024   6.244  10.513  0.5620 -1.3264 -0.2811
21977SOL    HW272024   5.924   6.141  10.467 -1.1310 -0.0137  0.3393
21978SOL     OW72025   4.930   9.651   3.066 -0.1327  0.1941  0.0916
21978SOL    HW172026   4.955   9.684   3.152  1.1777 -1.0791  0.2323
21978SOL    HW272027   4.921   9.557   3.078 -1.3018  0.1545 -0.8639
21979SOL     OW72028   4.940   0.552   6.399 -0.2760 -0.3687 -0.2851
21979SOL    HW172029   4.911   0.577   6.487  1.8240 -2.1770  1.0222
21979SOL    HW272030   4.898   0.467   6.383 -0.1964 -0.3177 -0.7822
21980SOL     OW72031   4.688   6.868   6.511  0.0192  0.5966 -0.1476
21980SOL    HW172032   4.600   6.846   6.542  0.2152  0.6153  0.4345
21980SOL    HW272033   4.746   6.837   6.580  0.4430  0.9864 -0.3265
21981SOL     OW72034   5.816   1.924   7.590  0.0340  0.0695 -0.0395
21981SOL    HW172035   5.804   2.011   7.553 -2.0430 -0.1625 -0.0256
21981SOL    HW272036   5.910   1.919   7.611  0.6102  1.4754 -2.0099
21982SOL     OW72037   9.955   1.796   3.967  0.6218  0.1436 -0.4943
21982SOL    HW172038   9.993   1.748   3.893  0.4463 -0.2722 -0.3175
21982SOL    HW272039  10.015   1.869   3.982  0.3594  0.5686 -1.4147
21983SOL     OW72040   1.392   1.473   8.416 -0.4659 -0.0982  0.0224
21983SOL    HW172041   1.390   1.409   8.488 -0.7493  0.6579  0.6976
21983SOL    HW272042   1.384   1.419   8.337  0.0793 -0.9643  0.5325
21984SOL     OW72043   5.999   7.758   1.652  0.2682  0.5099  0.5117
21984SOL    HW172044   6.081   7.709   1.644  0.8268  1.1472  1.9447
21984SOL    HW272045   5.968   7.767   1.562  1.0164 -0.9858  0.0653
21985SOL     OW72046  10.502   1.198   6.641  0.7112 -0.3055  0.1333
21985SOL    HW172047  10.525   1.279   6.685  0.2268 -0.1625  0.1267
21985SOL    HW272048  10.574   1.139   6.660  0.7026 -0.1142  0.7728
21986SOL     OW72049   9.420   8.223   3.082  0.4938  0.4042  1.3706
21986SOL    HW172050   9.357   8.183   3.143  0.6075 -0.6712  0.8091
21986SOL    HW272051   9.380   8.306   3.057 -1.2234 -0.6908  0.2586
21987SOL     OW72052   3.730   2.037   5.674 -0.2787  0.5527 -0.9616
21987SOL    HW172053   3.772   1.951   5.679  1.0063  1.1928 -0.0821
21987SOL    HW272054   3.757   2.072   5.589  0.8619  0.8745 -0.4918
21988SOL     OW72055   9.205   2.324   0.171  0.0605  0.0250  0.4741
21988SOL    HW172056   9.249   2.404   0.144  0.5691  0.0511  1.3450
21988SOL    HW272057   9.275   2.266   0.199 -0.4056 -0.1320  1.3697
21989SOL     OW72058   8.846   2.405   3.224  0.3027 -0.4637  0.0579
21989SOL    HW172059   8.891   2.401   3.140  0.7261 -0.8005  0.2920
21989SOL    HW272060   8.857   2.317   3.261 -1.0305 -0.7257 -0.1156
21990SOL     OW72061   5.871   3.913   9.994 -0.2360  0.0888 -0.1155
21990SOL    HW172062   5.922   3.976  10.045 -0.7186  1.0684 -0.8163
21990SOL    HW272063   5.780   3.935  10.016 -0.3899 -1.2784  0.7017
21991SOL     OW72064   0.974   0.325   5.436 -0.4506 -0.3546  0.2967
21991SOL    HW172065   0.885   0.298   5.457 -1.0727  2.0562  1.1389
21991SOL    HW272066   0.972   0.342   5.342 -0.8429 -0.4308  0.2897
21992SOL     OW72067   3.234   4.612  10.863 -0.2728  0.1364  0.0393
21992SOL    HW172068   3.163   4.676  10.867 -0.4421 -0.0972  1.2257
21992SOL    HW272069   3.190   4.528  10.876  0.0981 -0.0998 -0.2241
21993SOL     OW72070   1.254   4.801   2.504 -0.3202 -0.6224 -0.3311
21993SOL    HW172071   1.338   4.765   2.532 -0.9698 -3.0709 -1.2923
21993SOL    HW272072   1.194   4.780   2.576 -0.6411 -1.1932 -0.7631
21994SOL     OW72073   0.687   5.495   9.821  0.3479  0.1701 -0.0286
21994SOL    HW172074   0.627   5.440   9.872 -1.0616  2.3275  0.8195
21994SOL    HW272075   0.760   5.438   9.800 -1.2230 -2.1283  0.3594
21995SOL     OW72076   8.343   1.514   4.026 -0.2890  0.2052  0.2224
21995SOL    HW172077   8.278   1.512   3.956  0.6927  0.8339 -0.7364
21995SOL    HW272078   8.398   1.590   4.006 -1.0310  1.4793  2.6535
21996SOL     OW72079   4.218   0.098   1.646 -0.1691 -0.4221 -0.0488
21996SOL    HW172080   4.187   0.064   1.562 -0.1483 -0.1895 -0.1526
21996SOL    HW272081   4.155   0.064   1.710 -0.5196 -0.1316 -0.2296
21997SOL     OW72082   1.145   3.431   8.997 -0.1283 -0.5389  0.5295
21997SOL    HW172083   1.223   3.401   9.045  0.6546  0.2610 -0.2101
21997SOL    HW272084   1.093   3.477   9.063  0.9087  0.4967  0.6534
21998SOL     OW72085   7.008   1.676   7.053  0.0409  0.2370  0.3067
21998SOL    HW172086   7.053   1.755   7.082  0.8699  0.1592 -0.6787
21998SOL    HW272087   7.070   1.605   7.070  0.7291  0.2324 -1.8831
21999SOL     OW72088   1.901   6.038   7.084  0.0937  0.2733  0.0324
21999SOL    HW172089   1.877   6.071   6.998 -0.1889  0.1108  0.0468
21999SOL    HW272090   1.979   5.985   7.069  0.3852  0.7172 -0.0333
22000SOL     OW72091   7.298   9.255  10.243 -1.0128  0.4721  0.4927
22000SOL    HW172092   7.248   9.212  10.313 -0.5113 -0.5605  0.2347
22000SOL    HW272093   7.382   9.276  10.284 -1.7616  2.6499  1.0721
22001SOL     OW72094  10.013   0.677   5.903  0.4419 -0.4865  0.2274
22001SOL    HW172095  10.002   0.613   5.832 -0.5234 -0.9429  0.7734
22001SOL    HW272096  10.058   0.750   5.861  0.6916 -1.1101 -0.6445
22002SOL     OW72097   4.939   6.778  10.884  0.4681 -0.6175 -0.3206
22002SOL    HW172098   4.908   6.696  10.846  0.6029 -0.2401 -1.2731
22002SOL    HW272099   4.897   6.846  10.831 -0.1148 -0.0459  0.8193
22003SOL     OW72100   9.440   6.033   1.820  0.1644 -0.5203 -0.2264
22003SOL    HW172101   9.381   6.063   1.889 -0.3125 -1.1607 -0.3484
22003SOL    HW272102   9.528   6.049   1.854 -0.0718  0.0872  0.1154
22004SOL     OW72103   8.244   6.185   7.225  0.2670 -0.0578 -0.1311
22004SOL    HW172104   8.153   6.199   7.251  0.2015 -0.6813 -0.0094
22004SOL    HW272105   8.275   6.272   7.198  0.0247  0.4232  1.0668
22005SOL     OW72106   1.682   6.572   8.115 -0.3284  0.6715 -0.3739
22005SOL    HW172107   1.669   6.521   8.195  0.7846  2.0415  0.7240
22005SOL    HW272108   1.593   6.597   8.088 -0.6321  1.9717  1.6577
22006SOL     OW72109   4.945   0.120   9.566  0.0139 -0.0901 -0.6313
22006SOL    HW172110   4.897   0.190   9.611  0.4036 -0.4857  0.4224
22006SOL    HW272111   4.996   0.078   9.635  0.5097 -0.8142 -1.4274
22007SOL     OW72112   3.328   3.259   6.866 -0.0593 -0.4566  0.4583
22007SOL    HW172113   3.388   3.205   6.918  1.0073  0.4825  0.2308
22007SOL    HW272114   3.299   3.327   6.927  1.1702  0.6313 -0.1391
22008SOL     OW72115   7.860   6.088   0.898 -0.3946 -0.0322 -0.0858
22008SOL    HW172116   7.839   6.069   0.989 -0.0661  0.9104  0.2046
22008SOL    HW272117   7.935   6.033   0.878 -1.3318 -1.2974 -0.2439
22009SOL     OW72118   5.911   3.218   7.382  0.0904 -0.2676 -0.0435
22009SOL    HW172119   5.819   3.237   7.365  0.3591 -0.1083 -1.4746
22009SOL    HW272120   5.946   3.298   7.421 -0.7242 -0.9023  2.1408
22010SOL     OW72121   4.797   1.627   8.201  0.6994 -0.5178 -0.0131
22010SOL    HW172122   4.734   1.630   8.129  0.1918  2.2130  0.4507
22010SOL    HW272123   4.862   1.694   8.179  2.1496 -1.6186  0.7068
22011SOL     OW72124   8.521   0.077   1.156  0.4917 -0.2503 -0.3151
22011SOL    HW172125   8.454   0.099   1.220  1.2541  2.6938 -0.3646
22011SOL    HW272126   8.484   0.004   1.106 -0.9281 -1.3448  2.1759
22012SOL     OW72127  10.914   0.447  10.451  0.3750  0.6882  0.6428
22012SOL    HW172128  10.820   0.452  10.432  0.6053 -0.5063 -1.0950
22012SOL    HW272129  10.925   0.360  10.490  1.1516 -0.5799 -2.1888
22013SOL     OW72130   8.917   7.894   5.168 -0.3204 -0.2577 -0.1946
22013SOL    HW172131   8.889   7.819   5.116  0.2480 -1.0461  0.5968
22013SOL    HW272132   8.920   7.967   5.106 -0.7849 -0.9044 -1.0017
22014SOL     OW72133   3.212   9.920   8.241 -0.2369  0.6442  0.2629
22014SOL    HW172134   3.251   9.936   8.155 -0.9844  0.3163 -0.1545
22014SOL    HW272135   3.120   9.901   8.221 -0.2541 -0.1584  1.0701
22015SOL     OW72136  10.168   9.071   8.321 -0.0475  0.1888  0.1619
22015SOL    HW172137  10.075   9.095   8.314  0.1364  0.6630 -0.8142
22015SOL    HW272138  10.210   9.118   8.249  1.0536  0.4379  0.9502
22016SOL     OW72139   2.956   9.713  10.114 -0.0464  0.1337 -0.5944
22016SOL    HW172140   2.945   9.720  10.208 -0.1762 -0.4319 -0.5629
22016SOL    HW272141   2.868   9.694  10.080 -0.1648  1.2062 -0.9240
22017SOL     OW72142   0.105   1.957   5.712  0.0327  0.6323  0.2030
22017SOL    HW172143   0.183   1.902   5.720 -0.5421 -0.3796 -0.7240
22017SOL    HW272144   0.032   1.895   5.720 -0.6529  1.3802 -0.1499
22018SOL     OW72145   7.888   0.877   6.969  0.5798 -0.2537  0.6474
22018SOL    HW172146   7.894   0.952   7.029  3.0191 -1.3786  1.9385
22018SOL    HW272147   7.914   0.913   6.884 -0.5347  0.8292  0.7289
22019SOL     OW72148   8.697   2.632   2.450  0.3973 -0.3136 -0.0345
22019SOL    HW172149   8.661   2.555   2.492  1.7570 -0.5340  0.8011
22019SOL    HW272150   8.787   2.637   2.483 -0.0009  2.3125  0.8889
22020SOL     OW72151   4.512   5.879   6.622 -0.3494  0.5110  0.1440
22020SOL    HW172152   4.606   5.864   6.629 -0.4915  0.0212  1.4337
22020SOL    HW272153   4.502   5.941   6.551  0.7966 -0.8134 -1.2350
22021SOL     OW72154   9.983  10.922  10.555  0.0451  0.3301 -0.8483
22021SOL    HW172155  10.007  10.887  10.470 -1.2944 -0.1468 -1.0608
22021SOL    HW272156  10.065  10.927  10.603  0.5590 -1.3993 -1.4464
22022SOL     OW72157   6.259   6.510   2.198  0.4424  0.3556 -0.5495
22022SOL    HW172158   6.268   6.428   2.247 -0.5846  0.6314  0.1253
22022SOL    HW272159   6.283   6.487   2.108  2.2544 -0.1942  0.0249
22023SOL     OW72160   4.348   3.175  10.649  0.0017 -0.6302 -0.6247
22023SOL    HW172161   4.376   3.241  10.586 -0.5700  2.3260  1.9539
22023SOL    HW272162   4.430   3.136  10.682  0.6230  1.1362  0.0531
22024SOL     OW72163   9.042   0.421   4.720  0.1005 -0.4104  0.0437
22024SOL    HW172164   9.136   0.420   4.699 -0.1135 -0.0823 -0.9784
22024SOL    HW272165   9.036   0.372   4.802  1.2311  0.0530  0.4287
22025SOL     OW72166   1.565   0.085   7.966  0.4300 -0.2310  0.4810
22025SOL    HW172167   1.658   0.081   7.944  0.4886  1.7141  0.1644
22025SOL    HW272168   1.556   0.167   8.014 -1.1956 -0.1624  0.1165
22026SOL     OW72169   3.110   4.267   1.166  0.1721  0.3731 -0.0801
22026SOL    HW172170   3.204   4.262   1.152  0.2803  0.0388  0.7034
22026SOL    HW272171   3.075   4.300   1.083  0.7453 -1.5367 -1.1460
22027SOL     OW72172   1.769   6.588   2.304 -0.3095  0.8607  0.4484
22027SOL    HW172173   1.771   6.499   2.267 -0.2314  1.4594 -1.0608
22027SOL    HW272174   1.789   6.645   2.229 -1.5229  2.2334  1.1400
22028SOL     OW72175   6.375   5.164   1.700  0.1379  0.5512  0.7743
22028SOL    HW172176   6.307   5.230   1.688  0.0926  0.6152  1.3659
22028SOL    HW272177   6.401   5.140   1.611 -1.2745 -0.1314  0.5119
22029SOL     OW72178   1.430   1.318   7.432 -0.2015  0.0686 -0.8357
22029SOL    HW172179   1.343   1.309   7.469 -0.1214  0.5354 -0.5354
22029SOL    HW272180   1.433   1.406   7.395  0.4692  0.4209  0.0258
22030SOL     OW72181   5.609   4.511   0.660  0.0583 -0.3120 -0.3500
22030SOL    HW172182   5.678   4.555   0.710 -0.1418  0.5386 -0.7955
22030SOL    HW272183   5.654   4.441   0.614  1.1009  1.5798 -2.3954
22031SOL     OW72184   4.170   4.639   2.146  0.9037  0.8543 -0.2027
22031SOL    HW172185   4.216   4.555   2.145 -0.8337 -0.1807  0.8578
22031SOL    HW272186   4.204   4.684   2.224 -1.1789 -0.7732  1.7859
22032SOL     OW72187   1.255   4.039   3.099 -0.1010  0.5742 -0.3797
22032SOL    HW172188   1.339   4.022   3.057 -0.1575 -0.7413 -0.0340
22032SOL    HW272189   1.195   4.057   3.027  0.0645 -0.4613 -0.8017
22033SOL     OW72190   5.001   8.223   4.355  0.6560  0.0925 -0.2505
22033SOL    HW172191   4.945   8.196   4.282 -0.7795  1.8266  0.1325
22033SOL    HW272192   4.941   8.266   4.416  1.8506 -1.1052  1.8826
22034SOL     OW72193   2.627   7.764   0.879  0.0432 -0.1446  0.0767
22034SOL    HW172194   2.653   7.750   0.970  0.3359 -0.5622 -0.0702
22034SOL    HW272195   2.543   7.811   0.885 -0.5837 -1.2959  0.5698
22035SOL     OW72196   3.184   0.494   7.057  0.2455  0.2288 -0.0710
22035SOL    HW172197   3.260   0.435   7.059  0.5201  0.5519 -0.6578
22035SOL    HW272198   3.217   0.577   7.089  0.1628  0.3915 -0.4008
22036SOL     OW72199   8.838   6.489   8.038 -0.0203  0.0890  0.5217
22036SOL    HW172200   8.919   6.538   8.027  0.3669 -0.3366  1.3798
22036SOL    HW272201   8.804   6.478   7.950  2.0141 -1.6604 -0.1416
22037SOL     OW72202   5.939   8.688   7.757 -0.0789 -0.6290  0.8547
22037SOL    HW172203   5.857   8.736   7.742  0.8066  1.1589  1.3851
22037SOL    HW272204   5.990   8.702   7.677 -0.0850 -1.2766  0.7384
22038SOL     OW72205   5.821   1.365   2.282  0.5097  0.4176 -0.7140
22038SOL    HW172206   5.791   1.277   2.258  1.1449 -0.2398  0.8091
22038SOL    HW272207   5.908   1.352   2.318  0.4432  1.6194 -0.0679
22039SOL     OW72208   7.428   9.863   1.481  0.4499 -0.5493  0.3245
22039SOL    HW172209   7.352   9.891   1.431  1.2466  0.0101 -0.6135
22039SOL    HW272210   7.412   9.770   1.499 -0.6110 -0.3479  0.4567
22040SOL     OW72211   0.207   4.498   8.451  0.0078 -0.6667 -0.3951
22040SOL    HW172212   0.121   4.486   8.491 -0.8301 -0.8009 -2.1403
22040SOL    HW272213   0.245   4.572   8.498 -0.6369 -1.2336  1.0619
22041SOL     OW72214   2.646   7.895   9.111  0.1331 -0.3932  0.0477
22041SOL    HW172215   2.654   7.820   9.053 -0.9428  0.2300 -0.9340
22041SOL    HW272216   2.552   7.910   9.120  0.2876  2.0460 -1.4359
22042SOL     OW72217   6.871   2.304  10.819 -0.5891 -0.0840  0.4854
22042SOL    HW172218   6.937   2.373  10.820 -0.3915 -0.2653  1.4215
22042SOL    HW272219   6.872   2.268  10.908 -3.0653  0.9829  1.0255
22043SOL     OW72220   6.561   8.620   4.647 -0.3812  0.0629  0.3795
22043SOL    HW172221   6.654   8.600   4.645 -0.9248 -2.8253 -0.6925
22043SOL    HW272222   6.525   8.562   4.714 -1.8046 -1.4271 -1.5393
22044SOL     OW72223   5.178   7.203   7.394 -0.5130  0.0207 -0.0490
22044SOL    HW172224   5.209   7.290   7.368 -0.7748 -0.1050 -0.8222
22044SOL    HW272225   5.134   7.169   7.316 -0.6932 -0.6780  0.3459
22045SOL     OW72226   3.815   3.751   8.661  0.7034 -0.4013  0.2841
22045SOL    HW172227   3.737   3.749   8.606 -0.0978  0.5358  1.3223
22045SOL    HW272228   3.888   3.766   8.601  0.2184 -2.1318 -0.8019
22046SOL     OW72229   6.981   0.422   4.122  0.1356  0.7524  0.0380
22046SOL    HW172230   7.050   0.455   4.180  0.4510 -0.7576  0.5720
22046SOL    HW272231   7.028   0.371   4.056 -0.3077  1.6318 -0.9929
22047SOL     OW72232   1.532   7.532   7.141 -0.5599  0.3122 -0.2794
22047SOL    HW172233   1.466   7.479   7.187 -0.2766 -0.0235 -0.2612
22047SOL    HW272234   1.517   7.515   7.049  0.0882 -0.4721 -0.2463
22048SOL     OW72235   7.403   3.052   4.740 -0.0401 -0.0629 -0.4524
22048SOL    HW172236   7.381   3.087   4.826  1.2373 -0.6686  0.1484
22048SOL    HW272237   7.458   3.120   4.700  0.7144 -0.4669 -0.1216
22049SOL     OW72238   0.322   8.327   1.619  0.4395  0.6311 -0.0489
22049SOL    HW172239   0.361   8.261   1.562 -1.4219  0.0536 -0.7059
22049SOL    HW272240   0.362   8.409   1.591  0.2964  0.2202 -1.5431
22050SOL     OW72241   9.281   2.756   4.670 -0.0315 -0.3142 -0.0044
22050SOL    HW172242   9.309   2.672   4.633  1.3393 -1.1087  2.5822
22050SOL    HW272243   9.356   2.814   4.655 -0.4531  0.0911 -0.5989
22051SOL     OW72244   2.901  10.084   4.758  0.1858  0.9328  0.6275
22051SOL    HW172245   2.841  10.011   4.741 -0.6013  1.6898  0.0648
22051SOL    HW272246   2.978  10.043   4.798 -0.0395 -0.2663 -0.1095
22052SOL     OW72247   7.438   0.061   7.366 -0.1548  0.0457 -0.3138
22052SOL    HW172248   7.365   0.000   7.356 -1.7695  2.1323 -2.1534
22052SOL    HW272249   7.408   0.123   7.433  0.5711  0.0881 -0.0148
22053SOL     OW72250   4.009   8.176   8.606  0.4356  0.0777 -0.2204
22053SOL    HW172251   4.045   8.114   8.543 -1.4545 -0.4864 -0.8080
22053SOL    HW272252   3.965   8.121   8.671 -0.3274  0.7567 -0.1509
22054SOL     OW72253   9.064   7.553   4.971 -0.0020  0.1692 -0.3371
22054SOL    HW172254   9.116   7.489   5.020 -0.0542  0.2754 -0.1446
22054SOL    HW272255   9.119   7.631   4.967  0.5419 -0.2378 -1.5428
22055SOL     OW72256   8.165   9.279   2.164 -0.7602  0.0833 -0.7090
22055SOL    HW172257   8.159   9.230   2.246 -1.2261  0.4259 -0.5347
22055SOL    HW272258   8.110   9.230   2.102 -0.4005 -0.1808 -0.8254
22056SOL     OW72259   6.272   8.210  10.324  0.4811  0.2394 -0.5142
22056SOL    HW172260   6.213   8.170  10.260 -0.2674  1.9815 -0.9942
22056SOL    HW272261   6.340   8.252  10.271  0.6339  0.5377 -0.0913
22057SOL     OW72262   4.639   3.554  10.164 -0.6439  0.1981  0.1942
22057SOL    HW172263   4.544   3.566  10.160 -0.7901 -1.1483 -1.5989
22057SOL    HW272264   4.651   3.465  10.195 -0.0661 -0.4296 -1.6875
22058SOL     OW72265   8.349   5.287   9.500  0.2102  0.0824 -0.2054
22058SOL    HW172266   8.355   5.200   9.460  1.0012 -0.2800  0.6677
22058SOL    HW272267   8.291   5.336   9.442  0.0908 -0.8996 -0.9405
22059SOL     OW72268   0.219   0.049   3.130 -0.4882  0.5789 -0.8295
22059SOL    HW172269   0.135   0.055   3.176 -0.6115 -3.4713 -0.2156
22059SOL    HW272270   0.272   0.120   3.167 -2.2875  0.6558  1.8483
22060SOL     OW72271   3.964   4.545   6.279  0.3646 -0.0382  0.1352
22060SOL    HW172272   3.972   4.640   6.276 -0.6247  0.1099  1.2971
22060SOL    HW272273   4.054   4.513   6.276  0.6694  0.8722 -1.3268
22061SOL     OW72274   2.468   8.146  10.391 -0.3106  0.0289  0.4291
22061SOL    HW172275   2.527   8.136  10.465 -1.3150  0.5580  1.3246
22061SOL    HW272276   2.384   8.171  10.430 -0.8314  0.4263 -0.8895
22062SOL     OW72277   6.786   0.942   7.209 -0.8256 -0.2774 -0.7189
22062SOL    HW172278   6.789   1.024   7.160  1.2056 -1.0422 -1.9763
22062SOL    HW272279   6.831   0.878   7.154  2.3802 -1.0309  2.3802
22063SOL     OW72280   6.283   4.000   5.431  0.1784  0.4147 -0.4064
22063SOL    HW172281   6.197   4.009   5.471  0.9207 -1.3688  1.8298
22063SOL    HW272282   6.294   4.080   5.380 -3.3131  0.0837 -1.9428
22064SOL     OW72283  10.679   8.117   8.146  0.6559  0.3763 -0.1833
22064SOL    HW172284  10.634   8.036   8.170  0.3464  0.8603  0.9837
22064SOL    HW272285  10.769   8.090   8.125  0.1854 -0.4349 -1.2396
22065SOL     OW72286   7.114   2.746   8.511 -0.4291  0.0846  0.7828
22065SOL    HW172287   7.158   2.689   8.574  0.5678 -1.3517 -1.1423
22065SOL    HW272288   7.183   2.800   8.474 -0.7935  0.0058 -0.0274
22066SOL     OW72289   3.627   5.973   9.826  0.5025 -0.3709 -0.0858
22066SOL    HW172290   3.574   6.036   9.778 -0.2848  0.4389  1.7301
22066SOL    HW272291   3.599   5.887   9.793  0.3465  0.1489 -1.3656
22067SOL     OW72292   9.141   1.035   4.548  0.2355  0.1656 -0.1022
22067SOL    HW172293   9.120   1.117   4.503  0.0270 -0.0137 -0.3343
22067SOL    HW272294   9.236   1.040   4.564  0.4919 -0.1562 -1.3716
22068SOL     OW72295   7.215   9.534   4.313 -0.4266  0.7223  0.0833
22068SOL    HW172296   7.217   9.627   4.338 -0.2423  0.6822  0.2185
22068SOL    HW272297   7.141   9.527   4.252 -2.7971  0.2282  2.8417
22069SOL     OW72298   5.455   8.216   6.425  0.2758 -0.0844  0.4086
22069SOL    HW172299   5.506   8.283   6.380  0.7326 -0.1783  0.7753
22069SOL    HW272300   5.422   8.260   6.504  0.8584 -0.3731  0.8246
22070SOL     OW72301   6.666   9.955   5.425 -0.8777  0.3621  0.1633
22070SOL    HW172302   6.729  10.017   5.389 -1.5949  1.1015  0.1565
22070SOL    HW272303   6.581   9.996   5.412 -1.5217 -1.2559 -1.1660
22071SOL     OW72304   7.071  10.413   3.687 -0.3471 -0.2174  0.1349
22071SOL    HW172305   7.025  10.349   3.741 -0.0526 -0.8125 -0.3143
22071SOL    HW272306   7.160  10.380   3.681  0.0698  0.7499  0.7163
22072SOL     OW72307   8.712   1.712   7.750  0.3880  0.3583  0.2904
22072SOL    HW172308   8.792   1.725   7.700  1.1186 -1.6616  0.8600
22072SOL    HW272309   8.642   1.712   7.685  1.1222 -0.4514 -0.5148
22073SOL     OW72310   5.200  10.362  10.404 -0.3357 -0.3585 -0.0005
22073SOL    HW172311   5.151  10.287  10.372 -0.3055 -1.2014  1.7697
22073SOL    HW272312   5.292  10.334  10.401  0.0338  0.8717 -2.4270
22074SOL     OW72313   5.032   2.727   9.287 -0.4140  0.3700  0.7256
22074SOL    HW172314   5.077   2.646   9.311 -3.2919 -1.7683 -0.5709
22074SOL    HW272315   4.987   2.754   9.367 -2.1451 -1.2951  0.3907
22075SOL     OW72316   3.169   3.817   5.409  0.4361 -0.3880 -0.4453
22075SOL    HW172317   3.200   3.905   5.388 -1.2438  0.2356 -0.3913
22075SOL    HW272318   3.229   3.759   5.362  1.8449  0.7471 -0.1169
22076SOL     OW72319   4.558   2.871   7.120  1.1313 -0.2547  0.3476
22076SOL    HW172320   4.619   2.799   7.136  0.7983 -0.2370  1.8127
22076SOL    HW272321   4.474   2.839   7.152  0.5118  0.0145 -0.9359
22077SOL     OW72322   4.083   5.291  10.364  0.0663  0.6119  0.2183
22077SOL    HW172323   4.051   5.381  10.372  0.8134  0.8700  0.3616
22077SOL    HW272324   4.134   5.277  10.444 -0.1068  0.0346  0.2308
22078SOL     OW72325   6.271   7.283   7.625 -0.3070  0.1079 -0.0723
22078SOL    HW172326   6.293   7.355   7.565 -1.6577  2.9892  2.6216
22078SOL    HW272327   6.352   7.265   7.672  0.3748 -1.1470 -1.6345
22079SOL     OW72328   3.633   6.291   9.598  0.3532 -0.7396  0.6561
22079SOL    HW172329   3.582   6.288   9.517  2.0081 -0.3481 -0.4568
22079SOL    HW272330   3.584   6.236   9.659 -1.5027 -0.1958 -0.2408
22080SOL     OW72331   6.134   3.212   2.399 -0.2960  0.3609  0.0794
22080SOL    HW172332   6.198   3.205   2.470 -1.9504  0.3355  1.6344
22080SOL    HW272333   6.061   3.262   2.437 -0.7576  1.3627 -1.9702
22081SOL     OW72334   8.862   3.884   2.871 -0.5796  0.3229  0.6282
22081SOL    HW172335   8.935   3.825   2.891  0.7336  1.2301 -1.2036
22081SOL    HW272336   8.900   3.950   2.812 -3.2633 -0.2255 -1.9219
22082SOL     OW72337   7.583   9.376   5.840  0.2259  0.3446 -0.2677
22082SOL    HW172338   7.494   9.374   5.874 -0.1538  1.2451 -1.1870
22082SOL    HW272339   7.636   9.335   5.909 -1.1224 -1.8498 -0.4534
22083SOL     OW72340   5.572   7.948   0.380  0.2087 -0.0552  0.2493
22083SOL    HW172341   5.604   7.867   0.341  0.0420  1.0545 -2.3995
22083SOL    HW272342   5.477   7.946   0.367  0.1943  0.5342  0.2302
22084SOL     OW72343   7.349   2.355   3.582  0.3344  0.0817 -0.1126
22084SOL    HW172344   7.432   2.326   3.545  1.2281  0.4010  1.5417
22084SOL    HW272345   7.282   2.320   3.523  1.6347 -0.1485 -1.4925
22085SOL     OW72346   1.742   0.484   0.029 -0.1583 -0.4419 -0.0217
22085SOL    HW172347   1.830   0.457   0.003 -0.5418 -0.2818 -1.6183
22085SOL    HW272348   1.756   0.554   0.093  0.9195  0.4285 -1.1507
22086SOL     OW72349   1.077   8.607   0.632  0.1070 -0.2300 -0.6050
22086SOL    HW172350   1.012   8.543   0.605  0.6760 -0.8059 -0.6069
22086SOL    HW272351   1.078   8.601   0.728 -0.1356  0.0818 -0.5770
22087SOL     OW72352   1.349   6.560   8.013 -0.4849  0.6019 -0.4709
22087SOL    HW172353   1.374   6.549   8.105 -2.1381  0.0859 -0.0576
22087SOL    HW272354   1.353   6.654   7.998 -0.8943  0.7540  0.3384
22088SOL     OW72355   0.150   9.429   9.025 -0.1868 -0.0101 -0.0492
22088SOL    HW172356   0.188   9.452   8.940 -1.3667  0.5856 -0.4404
22088SOL    HW272357   0.159   9.334   9.030  2.0774  0.1633  0.2643
22089SOL     OW72358  10.061   3.191   1.945 -0.6702 -0.1731  0.5958
22089SOL    HW172359  10.047   3.174   2.038 -1.4968  0.3649  0.5768
22089SOL    HW272360  10.079   3.285   1.941  0.4530 -0.3757  0.3181
22090SOL     OW72361   4.692   3.167   8.249  0.1188 -0.0830 -0.1091
22090SOL    HW172362   4.763   3.221   8.214  1.2200  0.5816  2.8585
22090SOL    HW272363   4.736   3.099   8.301 -1.3334  0.1535  1.5295
22091SOL     OW72364  10.845   2.002   1.819 -0.2793 -0.1043  0.4193
22091SOL    HW172365  10.896   1.929   1.853  1.1421 -0.5838 -2.3828
22091SOL    HW272366  10.904   2.077   1.821  0.1948 -0.3509 -1.6116
22092SOL     OW72367   3.454   3.803   1.852  0.7325 -0.0066 -0.0090
22092SOL    HW172368   3.510   3.862   1.802  0.1225  0.6436  0.0632
22092SOL    HW272369   3.508   3.776   1.926  1.1859  0.0693 -0.3088
22093SOL     OW72370   4.989   1.249   0.283  0.1189 -0.3838  0.0037
22093SOL    HW172371   5.077   1.273   0.312 -0.1131  0.7065 -0.1613
22093SOL    HW272372   4.962   1.181   0.344  0.2097  0.8313  1.4543
22094SOL     OW72373   9.389   4.888   5.864 -0.5059 -0.3471  0.4519
22094SOL    HW172374   9.326   4.825   5.830 -0.5721 -0.8172  1.4311
22094SOL    HW272375   9.438   4.840   5.930 -0.0489  0.4156  0.6784
22095SOL     OW72376   6.306   7.999  10.537 -0.3926 -0.0852 -0.1209
22095SOL    HW172377   6.222   8.027  10.574 -0.5198  0.3771 -0.7486
22095SOL    HW272378   6.318   8.055  10.460  2.1360  2.3391  1.8108
22096SOL     OW72379   7.008   9.912   5.515 -0.5378  0.0380  0.0172
22096SOL    HW172380   6.995   9.898   5.609 -3.7751  1.3940 -0.1008
22096SOL    HW272381   6.977   9.830   5.475 -0.6245  0.0343  0.0892
22097SOL     OW72382   4.192   3.249   4.517 -0.4653 -0.1585  0.5559
22097SOL    HW172383   4.216   3.167   4.561 -0.2854 -1.1246 -1.2621
22097SOL    HW272384   4.274   3.280   4.479 -0.5144  0.9450  1.3133
22098SOL     OW72385   8.132   2.605   9.930  0.7051 -0.3970 -0.6911
22098SOL    HW172386   8.103   2.520   9.895  0.9565 -1.6362  1.8816
22098SOL    HW272387   8.191   2.582  10.002  0.8493  1.9959  0.0204
22099SOL     OW72388   6.650   0.395   6.981  0.5057 -0.5941  0.8671
22099SOL    HW172389   6.580   0.382   6.917  0.9197 -0.2594  0.3242
22099SOL    HW272390   6.611   0.452   7.048  0.6858  0.8698 -0.2151
22100SOL     OW72391   9.513   3.238  10.543  0.6498 -0.3509  0.0844
22100SOL    HW172392   9.426   3.207  10.519 -0.2113  0.1034  2.3412
22100SOL    HW272393   9.500   3.328  10.572  1.9108 -0.1989  0.2461
22101SOL     OW72394   3.701   3.038   5.726  0.7124  0.2746  0.8872
22101SOL    HW172395   3.674   3.014   5.815 -0.7519  0.6845  0.5698
22101SOL    HW272396   3.738   3.126   5.736 -0.7634  0.9312  0.9073
22102SOL     OW72397   5.960   6.771   5.799  0.0331 -0.3578  0.4246
22102SOL    HW172398   5.955   6.821   5.718  0.5791 -0.7969  0.1124
22102SOL    HW272399   5.879   6.794   5.846 -1.0417 -1.2338 -0.9037
22103SOL     OW72400   9.629  10.192   1.261 -0.4117  0.3972 -0.5893
22103SOL    HW172401   9.701  10.173   1.202 -0.4557  0.4125 -0.6491
22103SOL    HW272402   9.666  10.184   1.349 -0.5369 -0.3884 -0.6007
22104SOL     OW72403  10.246   1.688  10.786 -0.4796  0.4115  0.0290
22104SOL    HW172404  10.162   1.661  10.749  0.5370  0.1939 -2.2887
22104SOL    HW272405  10.310   1.667  10.718  1.4949  0.3886  1.7986
22105SOL     OW72406  10.839   1.611  10.045  0.2357 -0.0217  0.0175
22105SOL    HW172407  10.931   1.634  10.053 -0.4100  2.2160  2.7807
22105SOL    HW272408  10.821   1.555  10.120 -1.1291  1.6569  1.0224
22106SOL     OW72409   0.586   2.971   9.196 -0.4433 -0.0737 -0.6282
22106SOL    HW172410   0.548   3.026   9.265  2.7822  0.4223  0.9434
22106SOL    HW272411   0.595   3.030   9.121  1.3228  1.1357  0.4616
22107SOL     OW72412   2.584   2.315  10.511  0.3229  0.1974  0.0994
22107SOL    HW172413   2.607   2.254  10.442  1.9766  0.1320  0.6632
22107SOL    HW272414   2.622   2.399  10.483 -0.7410  0.6509 -0.0218
22108SOL     OW72415   0.149   9.403   5.505  0.8373 -0.5374  0.1519
22108SOL    HW172416   0.146   9.446   5.420 -0.6371  1.2176  1.0326
22108SOL    HW272417   0.178   9.314   5.485 -0.0455 -0.3625 -2.2506
22109SOL     OW72418   3.769   3.543   0.083  0.0276  0.3383 -0.2631
22109SOL    HW172419   3.838   3.540   0.150 -0.7994  2.0433  0.7238
22109SOL    HW272420   3.814   3.574   0.005  1.0852 -2.0296 -0.6777
22110SOL     OW72421   3.768   0.338   3.886 -0.2553  0.0762  0.0881
22110SOL    HW172422   3.808   0.285   3.817  0.2080  1.5592 -0.8398
22110SOL    HW272423   3.746   0.421   3.843 -0.2213  0.9389  1.6430
22111SOL     OW72424   3.095   4.634   7.557 -0.0886  0.1400  0.1220
22111SOL    HW172425   3.119   4.550   7.517 -1.4322  0.3272 -1.1888
22111SOL    HW272426   3.116   4.699   7.490  1.6914  0.9910  1.4326
22112SOL     OW72427   2.103   0.772   7.225  0.2227  0.1838  0.3570
22112SOL    HW172428   2.046   0.791   7.300  0.5859 -2.2811  1.3588
22112SOL    HW272429   2.042   0.749   7.155 -0.0780  0.3153  0.5719
22113SOL     OW72430   7.216   8.778   2.201  0.3252 -0.3201  0.1448
22113SOL    HW172431   7.213   8.739   2.113  0.4812 -1.1002  0.4787
22113SOL    HW272432   7.125   8.776   2.231  0.1248  0.7569 -0.3321
22114SOL     OW72433   4.456   8.022   9.997 -0.3385 -0.2261  0.2017
22114SOL    HW172434   4.454   7.948  10.057 -2.1156  0.5318  1.1482
22114SOL    HW272435   4.365   8.032   9.968 -0.7061  3.0420  2.0043
22115SOL     OW72436   5.466   9.804   3.835 -0.3635  0.3400  0.3568
22115SOL    HW172437   5.434   9.718   3.805 -0.7548  1.4793 -2.9045
22115SOL    HW272438   5.560   9.791   3.847 -0.6010 -0.8263  1.2204
22116SOL     OW72439   9.693   1.459   4.456  0.0862 -0.4415  0.1401
22116SOL    HW172440   9.715   1.406   4.379  2.3457  0.0042  0.4096
22116SOL    HW272441   9.636   1.528   4.422  0.9584 -0.3150 -1.1685
22117SOL     OW72442   0.279   5.406   9.586 -0.2542 -0.0687  0.6738
22117SOL    HW172443   0.336   5.363   9.649  1.2168  0.2967 -0.3546
22117SOL    HW272444   0.331   5.411   9.506 -1.5675  0.7039 -0.1766
22118SOL     OW72445   9.066   9.113   0.148  0.0357 -0.0095 -1.0076
22118SOL    HW172446   9.024   9.039   0.192  1.6679 -2.6482 -3.5521
22118SOL    HW272447   8.994   9.171   0.125 -1.2423 -0.3678  1.6708
22119SOL     OW72448   9.003   3.899   7.454 -0.0274 -0.1865 -0.5107
22119SOL    HW172449   9.096   3.888   7.472  0.4599  2.5067 -0.9799
22119SOL    HW272450   8.965   3.813   7.471  2.7342 -1.7853 -1.7423
22120SOL     OW72451   4.303   2.226   6.195 -0.3594 -0.0416  0.9235
22120SOL    HW172452   4.393   2.260   6.201 -0.4473  0.2962  0.4059
22120SOL    HW272453   4.249   2.297   6.228 -0.5090  0.1354  0.3043
22121SOL     OW72454  10.641   2.157   1.918 -0.8065  0.1934 -0.2963
22121SOL    HW172455  10.701   2.101   1.868  0.0376  0.6150  0.2180
22121SOL    HW272456  10.637   2.116   2.005 -1.5496 -0.0290 -0.4317
22122SOL     OW72457   3.329   3.080   2.688  0.2610  0.1223  0.6275
22122SOL    HW172458   3.385   3.009   2.721  0.2551  0.2751  0.9770
22122SOL    HW272459   3.314   3.135   2.765  0.9159  0.9412  0.1854
22123SOL     OW72460   3.484   6.199   7.253 -0.0235  0.2294  0.7212
22123SOL    HW172461   3.554   6.177   7.314 -1.8985 -0.5675  2.7504
22123SOL    HW272462   3.521   6.184   7.166  2.3215  0.0036  1.6974
22124SOL     OW72463   1.778   5.564   4.021 -0.7975  0.7645  0.6199
22124SOL    HW172464   1.757   5.653   4.051 -0.4148  1.7833 -1.8294
22124SOL    HW272465   1.783   5.572   3.926  1.2399 -1.4721  0.4420
22125SOL     OW72466   7.780   6.382   6.660  0.1770  0.5331  0.4093
22125SOL    HW172467   7.790   6.474   6.634  0.5834  0.3899  0.0542
22125SOL    HW272468   7.696   6.380   6.706 -0.1299  0.9667 -0.1121
22126SOL     OW72469   0.041   9.663   2.207  0.2493  0.3943 -0.1985
22126SOL    HW172470  -0.009   9.695   2.282  0.0979  0.9425 -0.5318
22126SOL    HW272471   0.072   9.742   2.164  2.4382  0.0878  0.6796
22127SOL     OW72472   6.915  10.821   4.240 -0.2219 -0.1156  0.1500
22127SOL    HW172473   6.867  10.759   4.185 -1.4892 -0.7064  1.8479
22127SOL    HW272474   6.914  10.782   4.327 -1.5925  2.5512  1.4492
22128SOL     OW72475   7.536   5.359   8.474 -0.0355  0.2368  0.4975
22128SOL    HW172476   7.594   5.329   8.404 -1.4405 -0.1803 -0.5280
22128SOL    HW272477   7.596   5.386   8.545  1.3622 -1.1718 -0.0905
22129SOL     OW72478   9.478   8.352   0.766  0.0183  0.3758  0.3357
22129SOL    HW172479   9.445   8.272   0.807  0.1849  0.3538  0.4275
22129SOL    HW272480   9.561   8.326   0.725  0.1278  0.5244  0.4584
22130SOL     OW72481   4.829   6.640   7.924 -0.5142  0.0502 -0.2953
22130SOL    HW172482   4.764   6.604   7.863 -1.6035  1.9566 -0.3561
22130SOL    HW272483   4.805   6.604   8.009 -0.5455 -0.6537 -0.5958
22131SOL     OW72484   8.784  10.633   6.582 -0.0738 -0.0196 -0.0123
22131SOL    HW172485   8.855  10.575   6.611 -1.5639 -1.4800  0.8472
22131SOL    HW272486   8.740  10.584   6.513 -1.8350 -0.3219  1.2491
22132SOL     OW72487   5.552   8.429   1.527  0.1336 -0.6038  0.2917
22132SOL    HW172488   5.623   8.378   1.488 -0.1834 -0.5141 -0.4223
22132SOL    HW272489   5.473   8.378   1.509 -0.0061 -0.6433  0.9698
22133SOL     OW72490   6.779   7.787  10.069  0.5341  0.4618  0.1497
22133SOL    HW172491   6.801   7.863  10.123  1.2338 -1.4380  2.7888
22133SOL    HW272492   6.862   7.762  10.028  0.5414  0.5283  0.1242
22134SOL     OW72493   7.725   5.104   3.619 -0.9208  0.0940  0.2535
22134SOL    HW172494   7.711   5.164   3.547 -2.1067  1.3477  1.4684
22134SOL    HW272495   7.810   5.129   3.656  0.8132 -2.0071 -1.9631
22135SOL     OW72496  10.039   9.626   7.499  0.5583 -0.2851 -0.7080
22135SOL    HW172497   9.972   9.690   7.476  1.0980  0.7925  0.6249
22135SOL    HW272498   9.991   9.552   7.535  0.0627  0.3638 -0.0235
22136SOL     OW72499   8.104   7.987   2.054  0.0473  0.4916 -0.1693
22136SOL    HW172500   8.163   8.061   2.038 -1.0773  1.2898 -0.8104
22136SOL    HW272501   8.039   7.994   1.984 -2.5456  1.4632  2.1551
22137SOL     OW72502   6.659  10.524   1.245 -0.6260 -0.3428 -0.3911
22137SOL    HW172503   6.603  10.601   1.253 -0.3406 -0.1710  0.0299
22137SOL    HW272504   6.621  10.460   1.304  0.0403  0.0386  0.4780
22138SOL     OW72505  10.896   9.640   2.663  0.0984 -0.3128 -0.0977
22138SOL    HW172506  10.824   9.670   2.719 -0.3696 -0.5017 -0.5889
22138SOL    HW272507  10.971   9.632   2.723 -0.6100 -1.3623  0.6901
22139SOL     OW72508   1.461   8.343   2.817 -0.0741 -0.0781 -0.4857
22139SOL    HW172509   1.382   8.323   2.867 -0.9779 -0.0995 -1.8801
22139SOL    HW272510   1.437   8.417   2.762  0.6153 -0.5921 -1.5127
22140SOL     OW72511   9.472  10.518   6.539 -0.2736  0.1148 -0.3929
22140SOL    HW172512   9.384  10.509   6.576 -0.2858  2.2885  0.2831
22140SOL    HW272513   9.464  10.590   6.476  0.6648 -0.8392 -1.6591
22141SOL     OW72514   1.241   3.803   7.507  0.3279  0.2386  0.7195
22141SOL    HW172515   1.195   3.720   7.500  0.5212  0.2655 -2.3818
22141SOL    HW272516   1.333   3.779   7.518  0.3717 -0.0143 -0.0808
22142SOL     OW72517   2.727   7.716   1.450  0.0204  0.0937 -0.1516
22142SOL    HW172518   2.812   7.719   1.407  0.2279 -0.1401  0.2352
22142SOL    HW272519   2.737   7.651   1.519  0.0185  1.2149  0.9447
22143SOL     OW72520   5.508   2.656   1.996  0.4183 -0.1882 -0.5806
22143SOL    HW172521   5.590   2.640   2.043  0.7427  0.9786 -0.7113
22143SOL    HW272522   5.480   2.570   1.966  1.6664 -0.5867 -0.6458
22144SOL     OW72523   5.278   5.081   1.004  0.1675  0.2631 -0.6861
22144SOL    HW172524   5.287   5.063   1.097 -0.3926  2.1544 -0.2324
22144SOL    HW272525   5.189   5.054   0.982  0.2982 -0.1764 -0.6914
22145SOL     OW72526   8.633   2.383  10.225  0.0364  0.2639  0.2148
22145SOL    HW172527   8.561   2.400  10.165 -0.6645 -0.2862  0.8700
22145SOL    HW272528   8.712   2.392  10.172 -0.3694  2.9365 -0.0700
22146SOL     OW72529   7.928   4.468   0.926  0.0964  0.2057 -0.4830
22146SOL    HW172530   8.017   4.441   0.950 -0.1591 -1.1904 -1.0081
22146SOL    HW272531   7.877   4.387   0.930 -1.3463  1.1337  0.6323
22147SOL     OW72532   9.924   0.626   8.525 -0.4262 -0.0136  0.9381
22147SOL    HW172533   9.856   0.674   8.478 -0.4034 -0.1581  0.7564
22147SOL    HW272534   9.904   0.640   8.617 -1.9080 -1.6958  0.9387
22148SOL     OW72535   2.007   5.333   3.645 -0.3783  0.5045  0.4918
22148SOL    HW172536   1.975   5.402   3.702  0.7220  1.7122 -0.3047
22148SOL    HW272537   2.059   5.378   3.579  0.8787 -1.1265  0.3042
22149SOL     OW72538   5.471   1.958   7.439 -0.1820 -0.1555 -0.2276
22149SOL    HW172539   5.461   2.046   7.475 -0.4955 -0.8571  1.4853
22149SOL    HW272540   5.546   1.966   7.379  0.5297  1.0315  0.7466
22150SOL     OW72541   1.146   9.100   8.766 -0.0917 -0.4865  0.6554
22150SOL    HW172542   1.052   9.101   8.751  0.0589  0.7643 -0.4034
22150SOL    HW272543   1.167   9.190   8.793  1.3191  0.5040 -3.1234
22151SOL     OW72544   3.304   5.014   5.425  0.1655 -0.0188 -0.4718
22151SOL    HW172545   3.232   4.954   5.408  0.4231  0.1870 -2.5696
22151SOL    HW272546   3.319   5.007   5.519  0.5923 -3.7207 -0.6548
22152SOL     OW72547   5.956   4.204   5.981 -0.3598  0.8300  0.1095
22152SOL    HW172548   6.045   4.171   5.973 -0.3711  0.4241  1.3288
22152SOL    HW272549   5.966   4.294   6.013 -0.3704  1.4136 -1.4458
22153SOL     OW72550   2.694   2.920   7.105 -0.0425  0.2618  0.6831
22153SOL    HW172551   2.781   2.956   7.125 -0.2584  1.7861 -0.8496
22153SOL    HW272552   2.671   2.959   7.020 -2.0491 -0.4366  0.8527
22154SOL     OW72553   5.418   2.741   0.128 -1.0467 -0.0007 -0.3738
22154SOL    HW172554   5.414   2.649   0.102 -0.6198 -1.1483  3.1067
22154SOL    HW272555   5.327   2.764   0.147 -0.8309 -0.8643  2.0077
22155SOL     OW72556   1.942   3.229   8.936  0.3758 -0.0749 -0.4949
22155SOL    HW172557   1.908   3.140   8.928 -1.0124  0.3750  0.0796
22155SOL    HW272558   2.035   3.217   8.959  0.0939 -1.3834  0.0731
22156SOL     OW72559  10.892   8.180   9.880  0.1611  0.0427 -0.0650
22156SOL    HW172560  10.810   8.131   9.891 -0.7153  1.6357  0.8506
22156SOL    HW272561  10.959   8.121   9.913 -0.8771 -0.5355  1.1231
22157SOL     OW72562   5.618  10.394   0.242  0.0681 -0.3723  0.0155
22157SOL    HW172563   5.640  10.385   0.149 -0.7236  0.9666 -0.3287
22157SOL    HW272564   5.686  10.451   0.277  1.3480 -2.2375  0.6812
22158SOL     OW72565   4.030   3.677   9.422 -0.2299  0.3183  0.1120
22158SOL    HW172566   3.987   3.741   9.479  2.1741  1.4889  0.7822
22158SOL    HW272567   4.088   3.628   9.481  0.1881 -0.4130 -0.8798
22159SOL     OW72568   7.739   9.027   7.083  0.1083 -0.5031 -0.4388
22159SOL    HW172569   7.773   9.116   7.075  1.0670 -0.8308 -0.1635
22159SOL    HW272570   7.811   8.971   7.051 -0.6602 -1.1554 -1.0876
22160SOL     OW72571   9.815   1.763   4.960  0.2432  0.2145 -0.3313
22160SOL    HW172572   9.737   1.817   4.976  1.2524  1.6561 -0.0889
22160SOL    HW272573   9.780   1.683   4.921 -1.4836  0.2549  0.9805
22161SOL     OW72574   9.776   8.835   1.325 -0.2989 -0.4393  0.5603
22161SOL    HW172575   9.740   8.753   1.357 -0.2410 -0.1369  1.4066
22161SOL    HW272576   9.744   8.841   1.234 -1.1109 -0.9160  0.8034
22162SOL     OW72577   2.067   0.225   8.706 -0.3863 -0.1545 -0.7642
22162SOL    HW172578   2.010   0.231   8.782 -1.6251 -1.1493 -1.5721
22162SOL    HW272579   2.154   0.243   8.740 -1.1830  1.7000  0.4631
22163SOL     OW72580   2.984   8.531  10.628  0.2562  0.1092 -0.8978
22163SOL    HW172581   3.009   8.447  10.667  0.4598 -0.0699 -1.4003
22163SOL    HW272582   2.893   8.520  10.601 -0.2953  0.6535  0.6440
22164SOL     OW72583   9.336   1.870   5.083  0.3222  0.0435 -0.3354
22164SOL    HW172584   9.307   1.779   5.091 -1.3864  0.6955  1.6351
22164SOL    HW272585   9.280   1.907   5.014  0.6467 -0.2516 -0.7592
22165SOL     OW72586   8.053   9.177  10.115 -0.1271  0.0556 -0.6719
22165SOL    HW172587   8.109   9.254  10.101 -1.4589  0.7442 -2.5464
22165SOL    HW272588   8.084   9.113  10.050 -1.0553  0.1996 -1.2699
22166SOL     OW72589   1.612   7.108   6.314  0.4150 -0.1404  0.5952
22166SOL    HW172590   1.666   7.057   6.253 -0.4428 -0.1405 -0.1954
22166SOL    HW272591   1.674   7.149   6.373  1.2620 -0.3111 -0.1598
22167SOL     OW72592   0.272   2.560   0.684  0.2233 -0.2348 -0.2918
22167SOL    HW172593   0.234   2.647   0.675 -0.3140 -0.4251  0.0896
22167SOL    HW272594   0.208   2.501   0.646  0.7234 -0.4398 -0.8234
22168SOL     OW72595   6.196   0.936   2.005  0.2803 -0.0957 -0.0057
22168SOL    HW172596   6.203   0.996   1.930  1.1868 -1.3523 -0.9709
22168SOL    HW272597   6.280   0.890   2.007  0.7664  0.7074  2.5343
22169SOL     OW72598   1.016   9.209   0.621  0.6864 -0.5443 -0.0942
22169SOL    HW172599   0.936   9.208   0.674  0.7137  0.8213  0.0036
22169SOL    HW272600   1.085   9.179   0.680  0.2976 -1.5477 -0.1250
22170SOL     OW72601   3.794   2.504   9.200 -0.3789 -0.4281 -0.4633
22170SOL    HW172602   3.845   2.571   9.244 -0.7540 -0.7841  0.5511
22170SOL    HW272603   3.850   2.426   9.201 -0.5009 -0.5170 -0.3286
22171SOL     OW72604   8.493   8.336   5.592  0.1691  0.0062  0.7351
22171SOL    HW172605   8.510   8.426   5.621  0.8430 -0.3432  1.4747
22171SOL    HW272606   8.484   8.343   5.497 -0.2901  0.9307  0.8328
22172SOL     OW72607   7.200   2.757   2.413 -0.2214  0.0075  0.3537
22172SOL    HW172608   7.111   2.727   2.393 -0.3246 -0.0237  0.8326
22172SOL    HW272609   7.231   2.798   2.332 -0.7685  0.2479  0.2628
22173SOL     OW72610   0.841   9.510   8.180  0.1093 -0.2653  0.6521
22173SOL    HW172611   0.781   9.455   8.230 -1.2244  0.7194  0.1811
22173SOL    HW272612   0.834   9.596   8.220  1.8485 -0.3047  1.1068
22174SOL     OW72613   5.923   3.080   7.652 -0.2335  0.4225 -0.5377
22174SOL    HW172614   5.976   3.157   7.673  1.6839 -1.1326  0.6967
22174SOL    HW272615   5.959   3.048   7.569  0.8388 -0.6425  0.3080
22175SOL     OW72616   1.936   8.722   1.578 -0.1370  0.3433 -0.0966
22175SOL    HW172617   1.889   8.651   1.534  0.5018 -0.2264  0.1219
22175SOL    HW272618   2.009   8.679   1.621  0.4804  1.1975 -0.2706
22176SOL     OW72619  10.350   0.333   6.916 -0.3964  0.1344  0.2243
22176SOL    HW172620  10.420   0.292   6.966 -0.4055 -1.1493 -0.7578
22176SOL    HW272621  10.371   0.426   6.916  0.3428 -0.0156  1.4140
22177SOL     OW72622  10.461   8.528   7.113  0.5439  0.5396  0.1304
22177SOL    HW172623  10.485   8.516   7.204 -0.4382 -0.1908  0.3197
22177SOL    HW272624  10.367   8.510   7.111  0.9279 -1.7702 -1.3824
22178SOL     OW72625   0.671   7.839   8.935 -0.7758  0.3742 -0.4453
22178SOL    HW172626   0.608   7.902   8.900 -1.2983  0.4661  0.5998
22178SOL    HW272627   0.631   7.753   8.919 -0.9070  0.4057 -0.2963
22179SOL     OW72628   0.208   1.275   5.597 -0.3855 -0.0065  0.3234
22179SOL    HW172629   0.256   1.272   5.680  0.1902 -0.2958 -0.0074
22179SOL    HW272630   0.122   1.239   5.617  0.2907 -1.6631  0.4555
22180SOL     OW72631   0.914   7.086   7.435  0.1073 -0.0687 -0.0223
22180SOL    HW172632   0.847   7.061   7.371 -0.4982  2.1519 -0.3331
22180SOL    HW272633   0.949   7.169   7.402  2.4499 -0.7486  0.5833
22181SOL     OW72634   5.596   9.379   5.297 -0.1608  0.6532  0.0269
22181SOL    HW172635   5.592   9.322   5.374  4.4151  0.5502  0.4457
22181SOL    HW272636   5.651   9.332   5.235 -3.1668  1.0413 -3.2115
22182SOL     OW72637   8.838   6.168   7.081  0.2916 -0.2851 -0.3032
22182SOL    HW172638   8.748   6.178   7.047  0.9344  0.5578 -1.9010
22182SOL    HW272639   8.861   6.256   7.111  0.3918 -0.6279  0.6322
22183SOL     OW72640   2.998   8.154   2.871  0.9740 -0.0347 -0.1353
22183SOL    HW172641   2.934   8.173   2.940 -0.2064 -1.4808 -0.7842
22183SOL    HW272642   2.994   8.059   2.860  1.9620  0.0493 -1.4293
22184SOL     OW72643   4.336   0.645   0.929  0.2720  0.1412  0.0053
22184SOL    HW172644   4.319   0.583   1.000 -0.5127  0.6937  0.3139
22184SOL    HW272645   4.396   0.599   0.871 -1.0122 -1.2730 -0.2598
22185SOL     OW72646   8.585   7.233   0.530 -0.0526  0.1517 -0.3747
22185SOL    HW172647   8.490   7.227   0.517 -0.2984 -0.6211  1.4441
22185SOL    HW272648   8.614   7.142   0.535  0.5068  0.3752  0.7505
22186SOL     OW72649  10.667   3.129   2.249  0.4516  0.5540 -0.1850
22186SOL    HW172650  10.682   3.223   2.258  1.8766  0.5339 -1.9684
22186SOL    HW272651  10.578   3.122   2.213 -0.3283  1.0881  1.5085
22187SOL     OW72652   6.601   9.175   8.783 -0.1114 -0.4149 -0.1989
22187SOL    HW172653   6.590   9.155   8.690  0.0457  0.8812 -0.5164
22187SOL    HW272654   6.625   9.091   8.823 -0.9690 -1.1491 -1.1870
22188SOL     OW72655   3.899   1.744   4.673 -0.0961  0.1907 -0.0512
22188SOL    HW172656   3.959   1.693   4.728  2.6349  0.4219 -2.5530
22188SOL    HW272657   3.827   1.684   4.655  0.9908 -1.3312  0.4163
22189SOL     OW72658   8.315   7.688  10.300  0.6594  0.2264  0.2036
22189SOL    HW172659   8.279   7.736  10.225 -2.2980 -1.7972  0.1529
22189SOL    HW272660   8.335   7.755  10.365 -3.4420  1.6647  0.2327
22190SOL     OW72661   0.073   0.623  10.196  0.0464 -0.6536  0.4514
22190SOL    HW172662   0.086   0.604  10.289 -0.1279  1.8629  1.0549
22190SOL    HW272663   0.110   0.547  10.151 -1.1573 -2.6358  2.5580
22191SOL     OW72664   6.837   3.420   8.477  0.1985  0.3663 -0.3963
22191SOL    HW172665   6.756   3.422   8.427  0.9944  0.6190 -1.7305
22191SOL    HW272666   6.900   3.379   8.418  0.6943 -1.2702  1.1738
22192SOL     OW72667   8.071   7.899   9.415  0.2835  0.3351  0.5609
22192SOL    HW172668   8.115   7.913   9.330  1.5105  0.9898  1.2738
22192SOL    HW272669   8.035   7.984   9.437 -0.8767 -0.0644  0.2629
22193SOL     OW72670   6.435   0.294   5.216  0.7865  0.8518 -0.5301
22193SOL    HW172671   6.477   0.220   5.261  1.5487  0.7895 -1.3034
22193SOL    HW272672   6.495   0.368   5.231  0.0259  1.3242  0.2442
22194SOL     OW72673   8.595   1.442   5.195 -0.1685 -0.2621 -0.3573
22194SOL    HW172674   8.652   1.456   5.270 -0.9351 -0.2133  0.2251
22194SOL    HW272675   8.543   1.522   5.189 -2.4135 -1.4931  1.1061
22195SOL     OW72676   2.210   4.440   0.772  0.1751 -0.0296  0.2141
22195SOL    HW172677   2.257   4.395   0.842  1.4397  1.6757  0.5333
22195SOL    HW272678   2.278   4.484   0.721 -0.7331 -0.9885 -1.9681
22196SOL     OW72679   8.296   6.610   8.447  0.6315 -0.5225  0.6399
22196SOL    HW172680   8.310   6.703   8.466  0.4037 -0.1912 -0.7082
22196SOL    HW272681   8.337   6.597   8.361 -0.1277 -1.4548  0.4081
22197SOL     OW72682   7.857   6.614   3.201  0.3061 -0.0228 -0.8297
22197SOL    HW172683   7.856   6.527   3.240 -0.9046  0.5355  0.5137
22197SOL    HW272684   7.764   6.634   3.183  0.5236  1.0823 -0.8392
22198SOL     OW72685   5.041  10.506   8.010  0.1454  0.7805  0.1917
22198SOL    HW172686   5.085  10.442   8.065  0.0194  0.1149 -0.4746
22198SOL    HW272687   4.970  10.540   8.065 -0.8476 -0.8768  0.0189
22199SOL     OW72688   1.050   9.888   9.249 -0.3549  0.2693 -0.4533
22199SOL    HW172689   1.135   9.844   9.251 -0.4762 -0.0610 -1.9255
22199SOL    HW272690   1.037   9.917   9.339  0.4997 -1.2438  0.1979
22200SOL     OW72691   2.096   9.602   6.748 -0.1798 -0.9294  0.5139
22200SOL    HW172692   2.020   9.615   6.804 -0.7249  0.9011 -0.5382
22200SOL    HW272693   2.099   9.682   6.694  0.9495 -2.1133 -1.2736
22201SOL     OW72694   4.430  10.031   8.500 -0.3657  0.3168 -0.6166
22201SOL    HW172695   4.397   9.962   8.443  0.1746  0.3582 -0.9912
22201SOL    HW272696   4.524  10.033   8.484 -0.0545 -0.2748  0.9368
22202SOL     OW72697   8.304   9.778  10.212  0.1674  0.9940  0.2792
22202SOL    HW172698   8.304   9.871  10.231 -2.8770  1.3565 -0.9169
22202SOL    HW272699   8.265   9.737  10.289 -2.1278  1.2324 -0.6846
22203SOL     OW72700   6.144   8.291   8.344  0.5121  0.3744  0.2918
22203SOL    HW172701   6.137   8.263   8.435  1.0307 -1.2230 -0.1272
22203SOL    HW272702   6.054   8.289   8.310  0.4302  0.1339  0.5282
22204SOL     OW72703   1.487   4.060   9.196 -0.4170 -0.2375  0.1775
22204SOL    HW172704   1.550   4.051   9.125 -1.7600  1.3992 -1.2989
22204SOL    HW272705   1.541   4.064   9.275  1.2414 -0.0397 -0.9172
22205SOL     OW72706   3.001   0.612  10.727 -0.3527  0.0178 -0.1791
22205SOL    HW172707   3.068   0.655  10.780  1.3833 -2.3768 -0.2743
22205SOL    HW272708   2.934   0.585  10.790  0.3840 -0.4151  0.4416
22206SOL     OW72709  10.259   6.054   0.378  0.0072  0.1608  0.1274
22206SOL    HW172710  10.339   6.093   0.343  0.5851 -2.0239 -1.1606
22206SOL    HW272711  10.220   6.008   0.304 -1.6561 -0.1069  1.1042
22207SOL     OW72712   5.866   0.615   0.156 -0.1183 -0.7276  0.7266
22207SOL    HW172713   5.878   0.633   0.249 -1.5865 -1.1308  1.0329
22207SOL    HW272714   5.803   0.543   0.154 -1.6970  0.6081 -0.5784
22208SOL     OW72715   7.717   7.913   0.750 -0.1448 -0.0938  0.4835
22208SOL    HW172716   7.730   7.855   0.675 -1.3531  0.0459  0.1447
22208SOL    HW272717   7.802   7.914   0.795  0.5352 -0.3484 -0.7530
22209SOL     OW72718   0.323   3.043   3.887 -0.4203 -0.5319  0.3033
22209SOL    HW172719   0.237   3.029   3.927 -0.6152  0.1537  0.1465
22209SOL    HW272720   0.322   2.989   3.808 -1.4893  0.9348 -0.7689
22210SOL     OW72721   7.872   3.717   9.196  0.5386  0.2110  0.0277
22210SOL    HW172722   7.875   3.648   9.130  0.2566  2.1220 -2.0757
22210SOL    HW272723   7.963   3.728   9.223  0.6644 -0.5415 -0.0600
22211SOL     OW72724   4.363   6.414   7.793  0.5007  0.3529 -0.0420
22211SOL    HW172725   4.394   6.390   7.880 -2.4748  0.2732  1.1070
22211SOL    HW272726   4.270   6.429   7.804  0.1497  1.0981 -3.1016
22212SOL     OW72727   4.474   0.072   5.140 -0.1962 -0.1684 -0.4725
22212SOL    HW172728   4.458   0.040   5.229  0.5077 -1.1264 -0.6701
22212SOL    HW272729   4.411   0.143   5.129  0.1667  0.4414  1.0277
22213SOL     OW72730   5.560   4.866  10.659  0.0371 -0.3216 -0.0223
22213SOL    HW172731   5.621   4.800  10.693 -0.2856  0.8350  3.1987
22213SOL    HW272732   5.607   4.908  10.588  2.7531 -0.0220  1.8049
22214SOL     OW72733   5.045   0.224   6.234  0.2750  0.1230  0.2096
22214SOL    HW172734   5.008   0.151   6.283  0.4118 -1.1885 -1.5400
22214SOL    HW272735   5.140   0.214   6.245  0.3978 -1.2005 -1.6086
22215SOL     OW72736   2.418   4.111   8.722 -0.2785  0.3959 -0.5157
22215SOL    HW172737   2.451   4.033   8.676  1.0193 -0.6409  1.9659
22215SOL    HW272738   2.478   4.181   8.696  0.4376 -0.1758 -0.4545
22216SOL     OW72739   1.653   0.857   9.920 -0.3619  0.0703  0.2012
22216SOL    HW172740   1.613   0.932   9.875 -0.8881  1.2285  2.4029
22216SOL    HW272741   1.593   0.839   9.993  1.0947 -0.7857  1.2511
22217SOL     OW72742   1.540   5.206   5.343 -0.0704  0.1738  0.6170
22217SOL    HW172743   1.616   5.158   5.310 -0.3745 -3.3423  4.1547
22217SOL    HW272744   1.567   5.297   5.344  2.9530 -0.5810 -0.9842
22218SOL     OW72745   6.683   7.561   0.423 -0.3167 -0.5464  0.1611
22218SOL    HW172746   6.649   7.512   0.497  1.3533 -0.1409  1.2689
22218SOL    HW272747   6.675   7.653   0.449  1.1337 -0.4245  0.2955
22219SOL     OW72748   2.887   3.006  10.213  0.8104  0.1446  0.0621
22219SOL    HW172749   2.947   3.059  10.266  1.3554  1.6502 -1.9075
22219SOL    HW272750   2.818   2.979  10.273  1.3458  1.8258  1.5120
22220SOL     OW72751   3.485   2.583   6.139 -0.2066 -0.2660  0.1762
22220SOL    HW172752   3.561   2.623   6.097 -0.0238 -1.5227 -0.7334
22220SOL    HW272753   3.521   2.510   6.189 -0.4472  1.0100  2.3659
22221SOL     OW72754   6.095  10.329   8.355 -0.1438 -0.1876 -0.2384
22221SOL    HW172755   6.179  10.365   8.382 -0.3074  0.5376 -0.6431
22221SOL    HW272756   6.040  10.407   8.341 -0.8682 -0.6471 -0.0143
22222SOL     OW72757   5.303   4.729  10.617 -0.4282  0.2141  0.5479
22222SOL    HW172758   5.318   4.651  10.670 -0.0717 -0.6556 -0.7712
22222SOL    HW272759   5.388   4.774  10.617 -0.8261  0.9991  1.8911
22223SOL     OW72760   8.172  10.223   7.993 -0.2090 -0.3306 -0.1393
22223SOL    HW172761   8.200  10.275   7.917 -0.1378 -1.5735 -1.0095
22223SOL    HW272762   8.254  10.204   8.040 -0.0871 -0.5522 -0.4310
22224SOL     OW72763   7.997   3.268   7.040 -0.6270 -0.1883 -0.0135
22224SOL    HW172764   7.901   3.272   7.043 -0.6292  1.0504 -0.9930
22224SOL    HW272765   8.023   3.356   7.013  0.9809  0.7151  3.8778
22225SOL     OW72766   8.281   7.982   5.091 -0.5352  0.4731 -0.5080
22225SOL    HW172767   8.211   7.938   5.139 -1.1073  1.8534 -0.0411
22225SOL    HW272768   8.350   7.995   5.155 -0.8906  1.3972 -0.2941
22226SOL     OW72769   5.797   3.071   1.450  0.3453 -0.0661  0.3407
22226SOL    HW172770   5.830   3.155   1.417 -2.6110  0.9544 -0.3608
22226SOL    HW272771   5.853   3.051   1.524  2.3233  1.5730 -0.6195
22227SOL     OW72772   8.159   1.245   2.487  0.4671  0.0350 -0.1221
22227SOL    HW172773   8.227   1.313   2.492 -0.3339  0.8513  0.0360
22227SOL    HW272774   8.134   1.229   2.577 -0.7303  1.0028 -0.2443
22228SOL     OW72775   1.439   8.076   2.740  0.1604  0.2787  0.4816
22228SOL    HW172776   1.417   8.169   2.743 -1.9657 -0.1503 -0.1815
22228SOL    HW272777   1.460   8.060   2.648  0.0150  0.0050  0.4947
22229SOL     OW72778   6.077   5.328   5.724 -0.0033 -0.1949 -0.0889
22229SOL    HW172779   6.002   5.285   5.766 -0.7310 -1.2854 -2.3400
22229SOL    HW272780   6.154   5.288   5.766 -0.6391  0.1462  1.4830
22230SOL     OW72781   8.418   9.714   7.826  0.4046 -0.5899 -0.0613
22230SOL    HW172782   8.431   9.774   7.899  2.2959 -0.6215 -0.3231
22230SOL    HW272783   8.460   9.757   7.752 -1.5724 -0.5033 -1.2163
22231SOL     OW72784   3.399   0.341   7.060 -0.1652 -0.5714  0.7080
22231SOL    HW172785   3.355   0.274   7.007 -1.2690  0.2816  0.5096
22231SOL    HW272786   3.492   0.327   7.044 -0.4430 -1.0073 -0.6246
22232SOL     OW72787   2.713   8.125   8.976  0.1418 -0.7381  0.2862
22232SOL    HW172788   2.666   8.070   9.039 -1.2391  0.2363  0.1600
22232SOL    HW272789   2.771   8.178   9.030 -0.2079 -0.7016  0.6334
22233SOL     OW72790   5.274   1.694   1.721 -0.3949  0.0124 -0.0351
22233SOL    HW172791   5.187   1.695   1.761 -1.3400 -1.4871 -1.8786
22233SOL    HW272792   5.302   1.602   1.727  1.0775  0.4723  0.5095
22234SOL     OW72793  10.638   7.832   2.585 -0.2768 -0.3465  0.2406
22234SOL    HW172794  10.684   7.835   2.502 -2.6356  1.2354 -1.1130
22234SOL    HW272795  10.546   7.820   2.562 -1.2574  1.9603  2.4750
22235SOL     OW72796   6.201   9.529   3.188  0.5619  0.2791  0.0886
22235SOL    HW172797   6.171   9.445   3.223 -0.2803  0.6515  0.2575
22235SOL    HW272798   6.144   9.546   3.113 -0.4281  1.5506  1.1017
22236SOL     OW72799   2.692   1.049   9.441 -0.7123  0.1445 -0.0071
22236SOL    HW172800   2.719   1.140   9.456 -0.4004 -0.2439  2.1191
22236SOL    HW272801   2.766   1.009   9.395  0.8486  0.0685  2.3816
22237SOL     OW72802   6.726   5.706   1.472  0.4066  0.3171  0.4826
22237SOL    HW172803   6.746   5.652   1.549  1.4441 -1.6196 -1.0309
22237SOL    HW272804   6.652   5.662   1.431  0.6746  0.5654 -0.2864
22238SOL     OW72805   4.287   8.994   1.360 -0.0604  0.1520  0.0589
22238SOL    HW172806   4.225   8.922   1.352 -1.8389  1.5002  1.0144
22238SOL    HW272807   4.300   9.004   1.455  0.4311  0.8828 -0.0789
22239SOL     OW72808   0.006   1.590   2.927 -0.3600 -0.2538  0.2599
22239SOL    HW172809  -0.047   1.536   2.868 -0.8669 -0.5957  1.0029
22239SOL    HW272810   0.094   1.552   2.921 -0.1416  0.4380 -1.1274
22240SOL     OW72811   8.098  10.273   2.681  0.3371 -0.2831 -0.1850
22240SOL    HW172812   8.032  10.306   2.620 -0.5835 -0.5895  0.6137
22240SOL    HW272813   8.176  10.259   2.627  0.0916  1.1171 -0.9451
22241SOL     OW72814   5.534   8.469   8.110  0.0136  0.0310  0.7461
22241SOL    HW172815   5.446   8.432   8.099 -0.3674  0.7964  1.1695
22241SOL    HW272816   5.540   8.489   8.203 -0.6154  3.0121  0.2368
22242SOL     OW72817   6.777   3.651   8.243  0.5284 -0.4381 -0.6780
22242SOL    HW172818   6.707   3.626   8.184  0.2919 -1.1596 -0.1029
22242SOL    HW272819   6.734   3.703   8.311  0.8080  0.4380 -1.1562
22243SOL     OW72820   3.367   2.114   7.848 -0.0559 -1.1059  0.4650
22243SOL    HW172821   3.393   2.029   7.812  0.9796 -0.4455 -0.4166
22243SOL    HW272822   3.382   2.176   7.776  0.6907  0.0554  1.5867
22244SOL     OW72823   5.438   6.723   3.648  0.2957  0.3269 -0.5559
22244SOL    HW172824   5.532   6.718   3.666  0.1483  0.8183  0.4542
22244SOL    HW272825   5.408   6.632   3.650  0.4334  0.2795  1.0910
22245SOL     OW72826   8.439   6.260   6.283 -0.2090  0.6019  0.4834
22245SOL    HW172827   8.527   6.294   6.264  0.1299 -0.4863  0.0122
22245SOL    HW272828   8.443   6.237   6.376  0.4602 -0.6923  0.1538
22246SOL     OW72829   0.532   7.744   3.170 -0.4352 -0.3892 -0.2026
22246SOL    HW172830   0.504   7.678   3.233 -2.1119  0.5640  0.1176
22246SOL    HW272831   0.451   7.786   3.142  0.6187  2.0487  0.1715
22247SOL     OW72832  10.887   1.699   6.607 -0.1867  0.6552  0.6064
22247SOL    HW172833  10.931   1.630   6.657  1.0229  1.1995  0.3223
22247SOL    HW272834  10.914   1.780   6.649  0.4123  1.0886 -0.5949
22248SOL     OW72835   7.241   0.792   3.099  0.1362 -0.1332 -0.0745
22248SOL    HW172836   7.158   0.748   3.079  1.0299 -1.7324 -0.3925
22248SOL    HW272837   7.216   0.883   3.119 -1.8020 -0.8650  1.0340
22249SOL     OW72838   9.771  10.653   4.275 -0.0987 -0.0370 -0.1680
22249SOL    HW172839   9.767  10.749   4.273 -0.4654 -0.0431  0.1201
22249SOL    HW272840   9.764  10.631   4.368  0.6901 -0.3202 -0.1638
22250SOL     OW72841   0.159   7.816   6.824 -0.4641 -0.2438  0.3662
22250SOL    HW172842   0.180   7.778   6.909 -0.8263 -0.8303  0.1946
22250SOL    HW272843   0.167   7.744   6.762 -0.2332  0.1721 -0.0986
22251SOL     OW72844   6.075   0.260   0.175  0.0050 -0.0486  0.4439
22251SOL    HW172845   6.019   0.203   0.227 -0.6459 -0.7933 -1.0044
22251SOL    HW272846   6.015   0.307   0.116  0.7199  0.6298  0.2320
22252SOL     OW72847   7.331   0.224   1.365 -0.4376 -0.5377 -0.0330
22252SOL    HW172848   7.370   0.253   1.447 -2.1498 -1.1952  1.0648
22252SOL    HW272849   7.237   0.231   1.379 -0.8236 -2.4057 -1.2535
22253SOL     OW72850   1.454   8.786   2.871  0.0099 -0.0940  0.4789
22253SOL    HW172851   1.409   8.827   2.945  0.1919  1.0745 -0.0373
22253SOL    HW272852   1.546   8.783   2.899 -0.0363 -0.3287  0.6013
22254SOL     OW72853   1.159   0.815  10.464  0.1354 -0.1294 -0.0530
22254SOL    HW172854   1.085   0.755  10.468  0.1911 -0.1512  0.9311
22254SOL    HW272855   1.236   0.758  10.462  0.1814 -0.1066  0.7043
22255SOL     OW72856   9.541   0.393  10.848 -0.1785  0.0037 -0.0140
22255SOL    HW172857   9.543   0.420  10.940  1.5605  1.2786 -0.3640
22255SOL    HW272858   9.613   0.331  10.840 -0.0424  0.2249 -0.5806
22256SOL     OW72859  10.746   6.382   4.482 -0.1522  0.6092 -0.3797
22256SOL    HW172860  10.824   6.386   4.539  0.6370  0.0926 -1.3813
22256SOL    HW272861  10.672   6.382   4.542  0.6631  0.0091  0.6592
22257SOL     OW72862   2.722   9.694   3.404  0.3390 -0.2417  0.8406
22257SOL    HW172863   2.766   9.649   3.332  0.7572  1.9536 -0.3493
22257SOL    HW272864   2.767   9.778   3.412 -1.3166  0.5952  1.9922
22258SOL     OW72865   5.486   9.213   1.400  0.5466 -0.1066 -0.6514
22258SOL    HW172866   5.480   9.228   1.305 -0.9142 -1.0473 -0.7286
22258SOL    HW272867   5.579   9.195   1.415  0.9162  0.6980 -1.7863
22259SOL     OW72868   6.148   0.181   0.711  0.1519 -0.7415  0.2076
22259SOL    HW172869   6.112   0.258   0.667  0.8773 -0.4750  0.0710
22259SOL    HW272870   6.087   0.162   0.782 -0.5881 -0.6703 -0.4007
22260SOL     OW72871   3.597   1.716   5.980 -0.0866 -0.2128  0.2901
22260SOL    HW172872   3.593   1.687   6.071  4.2382 -2.8351 -0.1236
22260SOL    HW272873   3.683   1.757   5.971  0.1302 -1.1093 -2.8624
22261SOL     OW72874   1.790   9.616  10.124 -0.1116 -0.3840 -0.0445
22261SOL    HW172875   1.838   9.544  10.084  0.0925  0.4302 -1.3211
22261SOL    HW272876   1.699   9.600  10.102 -0.0649 -0.2612 -0.3360
22262SOL     OW72877   9.042   2.116   1.387  0.1036 -0.5513 -0.3896
22262SOL    HW172878   9.008   2.047   1.443 -0.4975  0.8609  1.0640
22262SOL    HW272879   8.974   2.183   1.387  1.6524  1.0831  0.2152
22263SOL     OW72880   3.518   5.270   3.649 -0.0347  0.6483  0.7315
22263SOL    HW172881   3.541   5.357   3.681  0.3272  0.7865  0.1154
22263SOL    HW272882   3.583   5.252   3.581 -0.4865  0.1587  0.4264
22264SOL     OW72883   0.546   2.810   2.657  0.6107  0.2624 -0.2507
22264SOL    HW172884   0.528   2.716   2.658  2.0808 -0.0698  1.5269
22264SOL    HW272885   0.611   2.823   2.726  0.6553  2.5628 -0.6220
22265SOL     OW72886  10.698  10.012   6.672 -0.2797  0.6503  0.2942
22265SOL    HW172887  10.697  10.007   6.767 -0.9802  0.7277  0.2965
22265SOL    HW272888  10.612   9.978   6.645  0.2218 -0.1552 -0.3501
22266SOL     OW72889  10.391   7.728   9.720  0.1764  0.1331  0.5134
22266SOL    HW172890  10.365   7.819   9.733  1.0414  0.7163 -1.4023
22266SOL    HW272891  10.485   7.728   9.737  0.4489 -0.0515 -0.8572
22267SOL     OW72892   9.091   4.036   9.392  0.0576  0.5638 -0.0645
22267SOL    HW172893   9.181   4.066   9.378 -0.2522  1.4736 -0.2117
22267SOL    HW272894   9.040   4.117   9.401 -0.7667  0.0651 -0.1087
22268SOL     OW72895   9.680   0.252   0.409  0.6248 -0.2012  0.0466
22268SOL    HW172896   9.640   0.292   0.486  1.3690 -0.8161  0.7831
22268SOL    HW272897   9.773   0.276   0.416  0.6796 -0.1858 -0.7095
22269SOL     OW72898   6.998   9.274   7.614  0.0244  0.0395  0.5236
22269SOL    HW172899   6.905   9.254   7.604 -0.2577  0.7736  1.5184
22269SOL    HW272900   7.034   9.201   7.664  0.1885 -0.6844 -0.6164
22270SOL     OW72901   3.940   2.089   9.337  0.1131  0.0694 -0.4052
22270SOL    HW172902   3.938   2.164   9.277  0.2179 -0.9015 -1.6681
22270SOL    HW272903   3.868   2.033   9.306 -0.7864  0.2211  1.3107
22271SOL     OW72904   1.457   4.547   2.952 -0.4097 -0.0390 -0.1311
22271SOL    HW172905   1.375   4.510   2.919 -0.5633  0.7444 -0.6494
22271SOL    HW272906   1.441   4.641   2.956  0.4849  0.1309 -0.2981
22272SOL     OW72907   8.849   9.675   1.470 -0.2050  0.4552 -0.1887
22272SOL    HW172908   8.885   9.721   1.547 -0.5765  1.9018 -0.8510
22272SOL    HW272909   8.803   9.743   1.421 -1.8277 -0.8884 -0.5974
22273SOL     OW72910   2.286   5.862   8.261  0.5749  0.0781 -0.1987
22273SOL    HW172911   2.281   5.803   8.337 -0.0828 -0.2339 -0.4773
22273SOL    HW272912   2.378   5.887   8.257  0.7828 -0.5868  0.1871
22274SOL     OW72913   5.586   9.812   3.190 -0.4115  0.0241 -0.1901
22274SOL    HW172914   5.500   9.852   3.180 -0.4388  0.4114  1.2560
22274SOL    HW272915   5.647   9.885   3.182 -0.1528 -0.3588 -1.9079
22275SOL     OW72916   5.663   4.058   3.072 -0.1921 -0.2638  0.2777
22275SOL    HW172917   5.709   4.059   3.156 -0.3689 -0.0599  0.3737
22275SOL    HW272918   5.598   3.988   3.082 -0.3035 -0.1503  0.3627
22276SOL     OW72919   8.637   2.002  10.669 -0.2461 -0.4970 -0.0566
22276SOL    HW172920   8.657   2.095  10.671 -2.3847  0.1740 -2.8398
22276SOL    HW272921   8.651   1.972  10.759  0.7820  2.4131  0.8537
22277SOL     OW72922   6.661   3.639   9.527  0.1421 -0.3856 -0.1974
22277SOL    HW172923   6.566   3.649   9.538 -0.1364 -0.7196 -2.0170
22277SOL    HW272924   6.672   3.553   9.488  1.1013  0.1092 -1.0623
22278SOL     OW72925   8.733   7.007   7.443 -0.5184  0.4777  0.3966
22278SOL    HW172926   8.690   7.011   7.358 -0.3979  0.6436  0.3431
22278SOL    HW272927   8.781   7.090   7.450  0.7498 -0.1944 -0.0406
22279SOL     OW72928   9.642   6.365  10.019 -0.3607 -0.3812  0.0519
22279SOL    HW172929   9.635   6.270  10.015 -2.1751 -0.2517 -0.9892
22279SOL    HW272930   9.585   6.391  10.091 -1.0167 -0.0354 -0.5646
22280SOL     OW72931   1.376   3.375   2.795  0.3852 -0.3720 -0.0902
22280SOL    HW172932   1.349   3.417   2.713  1.0306  1.3023  0.4966
22280SOL    HW272933   1.465   3.344   2.778  0.9905  1.0711  0.3132
22281SOL     OW72934   0.343  10.681   9.341  0.1328  0.1905  0.1982
22281SOL    HW172935   0.385  10.629   9.271  0.2608  0.1124  0.3321
22281SOL    HW272936   0.313  10.616   9.404 -0.0406  0.2574  0.1857
22282SOL     OW72937   1.817   4.009   6.702  0.0007  0.2517 -0.2574
22282SOL    HW172938   1.877   4.073   6.665  1.8911 -0.2651  1.6911
22282SOL    HW272939   1.860   3.925   6.689 -0.1421 -0.1116  1.3707
22283SOL     OW72940   5.724   2.467   5.042 -0.5779 -0.0836  0.3939
22283SOL    HW172941   5.777   2.472   4.962 -1.9792 -2.9956 -0.8465
22283SOL    HW272942   5.788   2.458   5.112  0.6795  2.1138 -0.3298
22284SOL     OW72943   5.017   9.647   8.563 -0.4216  0.3146  0.2497
22284SOL    HW172944   5.046   9.643   8.472 -0.5149 -0.2392  0.2438
22284SOL    HW272945   5.022   9.557   8.595 -0.8376  0.4283  0.6518
22285SOL     OW72946   8.677   0.843   9.031  0.2574 -0.3950 -0.2031
22285SOL    HW172947   8.685   0.874   8.941 -0.2210 -1.2816 -0.5570
22285SOL    HW272948   8.767   0.823   9.057  0.7500  2.1788  0.3936
22286SOL     OW72949   8.062   4.734   6.615 -0.3886 -0.4359 -0.6349
22286SOL    HW172950   7.979   4.779   6.600 -1.0949 -1.0091  1.2885
22286SOL    HW272951   8.109   4.791   6.676 -0.3331 -1.1743  0.0266
22287SOL     OW72952   1.780   3.164  10.853 -0.4195 -0.2006 -0.1236
22287SOL    HW172953   1.756   3.241  10.904 -1.0543 -0.6783  0.3075
22287SOL    HW272954   1.869   3.144  10.879  0.1271  0.9867 -0.9887
22288SOL     OW72955   4.277   0.473   7.133  0.2208 -0.2835  0.9242
22288SOL    HW172956   4.352   0.513   7.088  0.3663 -1.3708  0.1667
22288SOL    HW272957   4.221   0.547   7.156  1.4603  0.5431  1.3986
22289SOL     OW72958   5.536   7.955   6.713  0.0581  0.1853  0.1743
22289SOL    HW172959   5.445   7.931   6.730  0.6150 -1.3894  1.1563
22289SOL    HW272960   5.537   8.050   6.718 -1.7547  0.3297 -1.1212
22290SOL     OW72961   7.665  10.188   4.775 -0.0905 -1.0790  0.6866
22290SOL    HW172962   7.685  10.205   4.867 -0.4540  2.3573  0.2547
22290SOL    HW272963   7.586  10.239   4.758  2.0340  1.5835 -2.3747
22291SOL     OW72964   2.226   4.476   3.367 -0.3447  0.1046 -0.1813
22291SOL    HW172965   2.218   4.571   3.376 -1.6709 -0.0570  0.5904
22291SOL    HW272966   2.150   4.450   3.315 -0.1577 -0.5659 -0.1251
22292SOL     OW72967   8.401   3.642   7.912  0.2519 -0.6924 -0.0485
22292SOL    HW172968   8.329   3.644   7.975  1.9640 -0.7881  2.0298
22292SOL    HW272969   8.421   3.549   7.902  2.2477 -0.5864  2.1229
22293SOL     OW72970   4.914   1.594   5.315  0.6633 -0.2369 -0.4439
22293SOL    HW172971   4.875   1.560   5.235  1.7020 -3.7304  0.3697
22293SOL    HW272972   4.948   1.680   5.291 -0.3199 -0.5570 -3.3249
22294SOL     OW72973   2.852   9.819   2.418  0.2029  0.5017 -0.1276
22294SOL    HW172974   2.899   9.889   2.462 -0.9862  1.1414  0.1643
22294SOL    HW272975   2.772   9.808   2.469 -0.7066  0.5219 -1.4889
22295SOL     OW72976  10.442   9.781   6.450  0.3727 -0.1370  0.4251
22295SOL    HW172977  10.430   9.852   6.514  1.3927  0.2618  0.1969
22295SOL    HW272978  10.502   9.817   6.386  0.7780 -1.1598  0.2093
22296SOL     OW72979  10.719   1.920   2.581  0.4256  0.6422  0.5794
22296SOL    HW172980  10.730   1.881   2.668 -2.3609  0.5486  0.9762
22296SOL    HW272981  10.625   1.921   2.567  0.8040 -2.2396 -3.8408
22297SOL     OW72982  10.689  10.558   6.864 -0.0006 -0.6072  0.1095
22297SOL    HW172983  10.629  10.491   6.832 -1.4559  0.6056  0.1693
22297SOL    HW272984  10.674  10.562   6.959 -1.4112  1.1135 -0.1297
22298SOL     OW72985   1.551   0.176   0.546  0.6154 -0.0441  0.1176
22298SOL    HW172986   1.603   0.118   0.490 -0.4041  0.9187 -1.9266
22298SOL    HW272987   1.530   0.123   0.622  1.4140 -1.6771 -0.7376
22299SOL     OW72988   8.174  10.011   4.024 -0.1150 -0.7428  0.1972
22299SOL    HW172989   8.170  10.079   3.957 -0.2793 -1.8142 -0.9055
22299SOL    HW272990   8.232   9.945   3.989 -1.7620 -2.2622  0.1978
22300SOL     OW72991   8.311   9.277   5.923  0.5579  0.0932  0.2465
22300SOL    HW172992   8.275   9.232   5.847 -0.0590 -0.0260  0.5985
22300SOL    HW272993   8.400   9.244   5.931  1.0130  0.9417 -1.0850
22301SOL     OW72994   3.237   3.660   3.097 -0.2607  0.0890  0.6094
22301SOL    HW172995   3.267   3.570   3.086 -1.0572 -0.2736  1.2324
22301SOL    HW272996   3.143   3.657   3.077 -0.3856  0.6882  1.0535
22302SOL     OW72997   9.622   8.451   1.683 -0.5623  0.1704 -0.3090
22302SOL    HW172998   9.658   8.362   1.691 -1.3170 -0.1455 -0.4034
22302SOL    HW272999   9.602   8.477   1.773 -0.0725  0.3653 -0.2514
22303SOL     OW73000   0.900   2.570   5.164 -0.0838 -1.3007  0.2250
22303SOL    HW173001   0.813   2.606   5.179 -0.2140 -1.7186  0.4984
22303SOL    HW273002   0.885   2.490   5.113  0.1144 -1.5199  0.5084
22304SOL     OW73003   5.597   2.464   4.057 -0.1328  0.2408 -0.3023
22304SOL    HW173004   5.640   2.478   4.141 -0.4858 -1.4176  0.1792
22304SOL    HW273005   5.641   2.388   4.019 -0.7033  0.3026 -1.1220
22305SOL     OW73006   4.337   6.652   8.839 -0.1013  0.1118 -0.0347
22305SOL    HW173007   4.430   6.641   8.820 -0.5722 -0.7794 -2.1452
22305SOL    HW273008   4.323   6.746   8.842  1.0441  0.2675  1.4643
22306SOL     OW73009   7.942   7.059   3.381  0.4001  0.6275  0.6380
22306SOL    HW173010   7.866   7.026   3.333 -0.5541 -0.6937  2.9094
22306SOL    HW273011   7.906   7.126   3.439  1.5165  2.1326 -0.3357
22307SOL     OW73012   2.752   5.836   9.427 -0.1609 -0.3580  0.5030
22307SOL    HW173013   2.693   5.905   9.456  0.9061  0.9985 -0.3821
22307SOL    HW273014   2.717   5.809   9.342  0.3478  0.3072  0.0693
22308SOL     OW73015   2.832   3.570   0.119  0.3395 -0.6803  0.2601
22308SOL    HW173016   2.842   3.571   0.214  1.2688 -2.6373  0.2280
22308SOL    HW273017   2.747   3.530   0.103  0.4914 -1.0015  0.2569
22309SOL     OW73018   6.081   7.868   0.325 -0.3427 -0.2809 -0.5954
22309SOL    HW173019   6.171   7.888   0.299 -0.8389 -2.0715 -4.4069
22309SOL    HW273020   6.088   7.786   0.375  0.3171  1.3528  2.1983
22310SOL     OW73021   3.099   1.445   2.244  0.3441 -0.2034 -1.0679
22310SOL    HW173022   3.052   1.366   2.272 -1.6809  0.9726 -0.9396
22310SOL    HW273023   3.170   1.455   2.308 -1.6912  0.1541  1.2848
22311SOL     OW73024  10.091   9.739  10.716  0.0055  0.0453 -0.0027
22311SOL    HW173025  10.071   9.691  10.636  0.1413  0.9896 -0.6233
22311SOL    HW273026  10.179   9.711  10.740 -0.5078 -1.1937  0.5529
22312SOL     OW73027   6.643   6.312  10.055 -0.6347 -0.4188 -0.2494
22312SOL    HW173028   6.557   6.289  10.022 -0.4262  0.1763 -1.2561
22312SOL    HW273029   6.702   6.300   9.980  0.0794 -0.3427  0.2825
22313SOL     OW73030   1.908   9.554   2.892 -0.1415 -0.0246  0.3265
22313SOL    HW173031   1.936   9.468   2.860  2.6847  1.1773 -0.6879
22313SOL    HW273032   1.876   9.536   2.981  0.0692 -2.1657  0.0341
22314SOL     OW73033   2.153   5.744   6.491 -0.1442  0.3702 -0.0530
22314SOL    HW173034   2.141   5.649   6.492 -0.4631  0.3953  1.9288
22314SOL    HW273035   2.099   5.773   6.417 -1.4202 -0.8457  0.3454
22315SOL     OW73036   6.510   0.952  10.028  0.0728 -0.0358  0.2798
22315SOL    HW173037   6.468   1.012   9.966  2.7256 -0.9046 -2.6126
22315SOL    HW273038   6.443   0.885  10.046 -1.2717  1.0732 -0.4228
22316SOL     OW73039   5.721   4.466   1.089  0.5891 -0.4578  0.1622
22316SOL    HW173040   5.635   4.425   1.105  0.5249 -1.5548 -2.4803
22316SOL    HW273041   5.708   4.558   1.112 -1.3844 -0.5484 -0.3895
22317SOL     OW73042   4.018   9.923   6.779  0.3819 -0.5259 -0.0480
22317SOL    HW173043   4.029   9.830   6.764 -0.9562 -0.6524 -0.3880
22317SOL    HW273044   4.051   9.938   6.868  1.8464 -1.0535 -0.4756
22318SOL     OW73045   1.013   3.263   0.935  0.7582  0.2366  0.1627
22318SOL    HW173046   1.051   3.346   0.963 -0.7963  1.0577 -0.0499
22318SOL    HW273047   0.919   3.277   0.940  0.4409 -1.9120  1.2200
22319SOL     OW73048   5.690   2.303   0.132 -0.1209  0.2195 -0.4588
22319SOL    HW173049   5.703   2.280   0.040 -0.5641  1.8495 -0.9762
22319SOL    HW273050   5.751   2.376   0.146  0.1754 -0.2344  0.6393
22320SOL     OW73051   4.343   6.782   9.657 -0.3719 -0.0065 -0.1060
22320SOL    HW173052   4.315   6.795   9.747 -1.6715  2.4847 -0.7692
22320SOL    HW273053   4.410   6.849   9.643  1.8602 -2.1676 -0.2421
22321SOL     OW73054   6.012   6.064   7.883  0.5073  0.1165  0.2573
22321SOL    HW173055   5.931   6.015   7.871  1.1206 -0.5938 -1.2522
22321SOL    HW273056   6.001   6.110   7.966 -1.3182 -0.1815  0.2040
22322SOL     OW73057   4.881   1.697   3.787 -0.7332 -0.1763  0.5984
22322SOL    HW173058   4.809   1.681   3.848 -0.0610 -0.8297  1.2347
22322SOL    HW273059   4.847   1.763   3.726 -1.5658  0.1627  1.4148
22323SOL     OW73060   5.964   8.290   4.877  0.5178 -0.1888 -0.0817
22323SOL    HW173061   6.004   8.212   4.915  0.7954 -0.5378 -1.0463
22323SOL    HW273062   5.912   8.328   4.947 -0.9754 -2.1686 -0.0445
22324SOL     OW73063   5.547   3.755   9.455  0.9799  0.2512  0.3039
22324SOL    HW173064   5.638   3.724   9.457  1.4101  1.4154  2.3980
22324SOL    HW273065   5.555   3.850   9.453 -0.1970  0.3558  0.3565
22325SOL     OW73066   9.017   3.695   2.976  0.2275  0.2019 -0.4022
22325SOL    HW173067   9.026   3.614   3.025  0.2657  0.0249 -0.7007
22325SOL    HW273068   9.104   3.736   2.981 -0.4791  1.6421  2.1844
22326SOL     OW73069   2.735   2.669   4.403  0.2647  0.0633 -0.2353
22326SOL    HW173070   2.830   2.653   4.400  0.4757  0.3363  2.6507
22326SOL    HW273071   2.696   2.582   4.405  0.6504 -0.0900  1.5354
22327SOL     OW73072   8.966  10.353   9.951 -0.0118 -0.0097 -0.6628
22327SOL    HW173073   9.034  10.370  10.016 -0.6522 -0.4608  0.1371
22327SOL    HW273074   8.995  10.402   9.874  2.1919 -1.6830 -0.9972
22328SOL     OW73075   7.379   0.667   6.259  0.4646 -0.2417  0.0445
22328SOL    HW173076   7.306   0.656   6.319 -0.9204  0.5901 -1.4107
22328SOL    HW273077   7.457   0.669   6.315 -0.7113  0.0114  1.7360
22329SOL     OW73078   2.303   6.061  10.027  0.2386 -0.0455 -0.0921
22329SOL    HW173079   2.223   6.073   9.976 -0.4842 -0.7328  0.8363
22329SOL    HW273080   2.272   6.036  10.114  1.4549  0.3691  0.4807
22330SOL     OW73081   7.193   7.606   2.412 -0.0775  0.4152 -0.3331
22330SOL    HW173082   7.195   7.700   2.426 -0.0283  0.4378 -0.4850
22330SOL    HW273083   7.165   7.569   2.496  2.6554  0.3637  0.6620
22331SOL     OW73084  10.338   3.223   9.512  0.1181 -0.2681 -0.5145
22331SOL    HW173085  10.268   3.269   9.467 -0.3247 -1.3699 -0.9980
22331SOL    HW273086  10.419   3.264   9.480 -0.2143 -0.5368 -1.7604
22332SOL     OW73087   7.107   8.434   0.920  0.2796  0.6602 -0.2110
22332SOL    HW173088   7.094   8.495   0.992 -1.4572  0.4158 -0.2718
22332SOL    HW273089   7.027   8.381   0.918  0.3434  0.5487 -2.1961
22333SOL     OW73090   4.375   7.322  10.041  0.2363  0.1090 -0.1552
22333SOL    HW173091   4.411   7.391   9.985 -1.0675 -0.6182 -1.9937
22333SOL    HW273092   4.297   7.361  10.080 -0.2643 -0.1474 -0.8661
22334SOL     OW73093   0.765   5.244   6.373 -0.1691 -0.5168  0.0666
22334SOL    HW173094   0.778   5.168   6.316  1.0784 -0.4430  0.2214
22334SOL    HW273095   0.689   5.222   6.426  0.5448 -1.9318  0.5475
22335SOL     OW73096   3.242   3.221   9.809 -0.4708  0.0966 -0.0362
22335SOL    HW173097   3.322   3.181   9.842 -0.0405 -0.6879 -1.8886
22335SOL    HW273098   3.272   3.292   9.753 -1.1981  1.9934  1.8475
22336SOL     OW73099   4.371   9.265  10.494  0.3618  0.5077  0.2154
22336SOL    HW173100   4.415   9.257  10.579  0.8057  1.5044  0.1016
22336SOL    HW273101   4.306   9.334  10.508  1.0017  1.2736 -0.4622
22337SOL     OW73102   8.525   0.379   1.629  0.0190 -0.4878  0.0557
22337SOL    HW173103   8.538   0.418   1.543 -0.7259  0.5029  0.3617
22337SOL    HW273104   8.462   0.437   1.672  1.2262 -0.3120  1.6918
22338SOL     OW73105   8.641   3.190   8.032 -0.0516  0.2922 -0.2206
22338SOL    HW173106   8.636   3.124   8.101 -1.0709  0.2866 -0.2746
22338SOL    HW273107   8.684   3.146   7.959  1.2435  0.3671  0.4788
22339SOL     OW73108   5.183   1.830   1.062  0.5544  0.2133 -0.4310
22339SOL    HW173109   5.093   1.853   1.038  0.5941  0.8484  0.0001
22339SOL    HW273110   5.175   1.755   1.120  0.3897 -0.6048 -1.4868
22340SOL     OW73111  10.521   5.951  10.068  0.4798 -0.4680 -0.0891
22340SOL    HW173112  10.549   5.874  10.118 -2.1388 -0.2438  1.9735
22340SOL    HW273113  10.425   5.945  10.067  0.3088  1.3210 -2.3638
22341SOL     OW73114   0.744   9.623   1.828  0.1842  0.4509  0.4233
22341SOL    HW173115   0.819   9.652   1.777 -0.6696  2.8364  0.4182
22341SOL    HW273116   0.754   9.667   1.912 -0.6846 -0.0270  0.7897
22342SOL     OW73117   3.229   4.083   2.807 -0.1631 -0.1590 -0.4778
22342SOL    HW173118   3.315   4.047   2.789 -0.4560 -1.3110  0.3323
22342SOL    HW273119   3.183   4.079   2.723  0.1618 -0.6981 -0.6331
22343SOL     OW73120   9.889   2.875   0.321 -0.7569  0.4578 -0.1355
22343SOL    HW173121   9.943   2.939   0.275  1.9252 -0.8044  1.0329
22343SOL    HW273122   9.872   2.806   0.256  0.6198  0.0175 -0.0572
22344SOL     OW73123   5.248   9.455   1.469  0.1615 -0.3031  0.1491
22344SOL    HW173124   5.319   9.391   1.460  0.0802 -0.2946 -0.6841
22344SOL    HW273125   5.293   9.539   1.481  0.2672 -0.5251  1.4627
22345SOL     OW73126   4.875   0.330   9.766 -0.1570  0.0082 -0.0687
22345SOL    HW173127   4.872   0.397   9.833 -0.2209 -0.3523  0.2909
22345SOL    HW273128   4.844   0.373   9.686  1.9646  1.0680 -0.4035
22346SOL     OW73129   0.055   2.505   8.845 -0.4882  0.0004  0.5521
22346SOL    HW173130   0.086   2.463   8.925  0.7152 -0.2279 -0.0023
22346SOL    HW273131   0.117   2.477   8.778 -0.7883  1.1111 -0.2285
22347SOL     OW73132  10.180   6.937   7.808  0.5163  0.0366  0.1368
22347SOL    HW173133  10.215   6.849   7.793 -1.2330 -0.3730 -2.0356
22347SOL    HW273134  10.087   6.924   7.826  0.0482  1.4372 -1.0108
22348SOL     OW73135   3.617   7.270   1.611  0.1481  0.0541  0.1274
22348SOL    HW173136   3.619   7.208   1.538  2.7571  1.8128 -1.4466
22348SOL    HW273137   3.559   7.340   1.581  0.7665  0.5023 -0.0336
22349SOL     OW73138   4.562   1.786   0.278 -0.7438 -0.2670  0.2643
22349SOL    HW173139   4.627   1.855   0.264 -0.7469 -0.4999 -1.0737
22349SOL    HW273140   4.599   1.733   0.349 -0.4848  0.7891  0.9338
22350SOL     OW73141   9.900   4.659  10.283  0.0879 -0.5208 -0.0080
22350SOL    HW173142   9.921   4.725  10.348  0.7069 -1.2808  0.5873
22350SOL    HW273143   9.985   4.623  10.257 -0.2397 -1.0951 -0.2985
22351SOL     OW73144   6.605   1.118   4.186 -0.1796 -0.9033  0.0263
22351SOL    HW173145   6.527   1.140   4.235  0.6866  0.1075  1.0092
22351SOL    HW273146   6.631   1.032   4.219 -1.2012 -1.5405 -0.7675
22352SOL     OW73147   4.626   2.678   5.158  0.0859  0.1934 -0.2073
22352SOL    HW173148   4.542   2.639   5.132  0.5389 -1.0835  0.1730
22352SOL    HW273149   4.625   2.675   5.253  2.0068 -3.2379 -0.1229
22353SOL     OW73150   2.596   8.055   1.947 -0.0814  0.2400  0.3984
22353SOL    HW173151   2.585   8.133   1.892  0.8296 -0.2302 -0.4841
22353SOL    HW273152   2.545   7.988   1.901  0.9038 -0.2250 -0.0316
22354SOL     OW73153   0.491   0.035   2.503  0.2343 -0.2411 -0.1026
22354SOL    HW173154   0.558   0.024   2.570 -0.3991 -3.7445  0.1588
22354SOL    HW273155   0.507  -0.036   2.441 -0.6477  1.4613 -2.4305
22355SOL     OW73156   8.285   8.308   0.733 -0.2475  0.1076  0.4984
22355SOL    HW173157   8.335   8.361   0.796 -3.1744  1.7900  1.6393
22355SOL    HW273158   8.299   8.352   0.649 -0.8936  1.4528  1.0587
22356SOL     OW73159   3.373   2.275   2.592 -0.5428  0.6972  0.3162
22356SOL    HW173160   3.280   2.272   2.617 -0.8802 -0.9003 -0.8876
22356SOL    HW273161   3.386   2.363   2.558 -1.0085  1.6786  2.5526
22357SOL     OW73162   4.444   4.430   4.760  0.5162  0.1760  0.6056
22357SOL    HW173163   4.372   4.479   4.721 -0.1665 -1.7981 -0.7692
22357SOL    HW273164   4.510   4.424   4.691  0.6892 -0.5877  0.8215
22358SOL     OW73165   2.789   1.110   5.819  0.3465  1.1459 -0.0387
22358SOL    HW173166   2.730   1.041   5.849  2.3223  0.4315  2.5773
22358SOL    HW273167   2.769   1.119   5.726 -2.0107 -0.8743  0.1501
22359SOL     OW73168   5.356   9.076   4.892 -0.3239  0.6006 -0.3577
22359SOL    HW173169   5.390   8.987   4.900 -4.3991 -0.9449  3.2227
22359SOL    HW273170   5.423   9.131   4.933  1.1976 -1.1095 -0.4260
22360SOL     OW73171   2.705   7.544   1.035 -0.2960  0.3877 -0.3454
22360SOL    HW173172   2.622   7.555   1.080 -0.4323 -0.9811 -0.2200
22360SOL    HW273173   2.763   7.504   1.100 -0.3895 -1.2776 -1.2192
22361SOL     OW73174   0.340   3.303   6.115  0.2425 -0.4033 -0.7847
22361SOL    HW173175   0.423   3.261   6.139  0.3737  0.3289  0.1109
22361SOL    HW273176   0.353   3.331   6.024  0.5196 -1.3609 -1.0550
22362SOL     OW73177   9.875   8.051   8.188 -0.2383  0.3395 -0.5526
22362SOL    HW173178   9.896   8.008   8.105 -1.3508 -0.4687 -0.4532
22362SOL    HW273179   9.881   7.981   8.253 -1.3481  0.4745 -0.2737
22363SOL     OW73180   6.904   4.804  10.079  0.3567 -0.1525  0.1923
22363SOL    HW173181   6.980   4.858  10.055  1.3417 -1.5893 -0.0177
22363SOL    HW273182   6.865   4.851  10.153  0.7021  1.2705 -0.4999
22364SOL     OW73183   6.910   4.701   5.728 -0.0250  0.2198  0.1415
22364SOL    HW173184   6.971   4.668   5.795  1.1093  0.6010 -0.6737
22364SOL    HW273185   6.823   4.685   5.765  0.5437 -1.1073  0.9811
22365SOL     OW73186  10.297   7.153   9.518  0.2089  0.2117  0.0654
22365SOL    HW173187  10.323   7.194   9.601 -2.0183 -0.5824  1.2598
22365SOL    HW273188  10.257   7.223   9.468 -1.1670  0.1299  0.9841
22366SOL     OW73189   8.900   8.831   0.006  0.2980 -0.2480  0.1249
22366SOL    HW173190   8.914   8.774  -0.070  2.8390 -0.9939  1.0566
22366SOL    HW273191   8.937   8.915  -0.020  0.8046 -0.3876  0.3879
22367SOL     OW73192   6.307   4.414   3.312  0.1691  0.4454  0.1317
22367SOL    HW173193   6.284   4.421   3.404 -0.2031  1.8449 -0.0477
22367SOL    HW273194   6.378   4.350   3.309  0.2139  0.4231  1.3808
22368SOL     OW73195   5.493   2.769   0.771 -0.5244  0.3155 -0.0196
22368SOL    HW173196   5.578   2.769   0.815 -0.8933 -0.8941  0.7222
22368SOL    HW273197   5.433   2.728   0.833 -1.7154  1.3359 -0.4436
22369SOL     OW73198   2.837   9.388   5.576 -0.1125 -0.1410  0.5367
22369SOL    HW173199   2.870   9.431   5.497  0.9578  0.6322  1.3753
22369SOL    HW273200   2.793   9.457   5.625 -0.9009 -0.6467  0.5609
22370SOL     OW73201   2.381   5.854   7.491 -0.4426  0.4473  0.1007
22370SOL    HW173202   2.418   5.940   7.472  0.4183 -0.6114 -4.1091
22370SOL    HW273203   2.293   5.856   7.454 -0.2273 -0.5516 -0.5319
22371SOL     OW73204   1.172   7.888   5.614 -0.6052 -0.0127  0.1065
22371SOL    HW173205   1.083   7.906   5.583 -0.3494  4.2897  1.2860
22371SOL    HW273206   1.229   7.931   5.551  0.5048 -0.5551  0.7035
22372SOL     OW73207   1.937   2.080  10.625  0.3013  0.0224 -0.3304
22372SOL    HW173208   1.936   2.019  10.551  1.5249  1.9890 -2.1008
22372SOL    HW273209   1.868   2.048  10.683  0.2366 -2.4323 -1.6101
22373SOL     OW73210   6.127   6.142   3.174 -0.1060 -0.4396 -0.2436
22373SOL    HW173211   6.136   6.237   3.190 -1.5718 -0.5408  1.5722
22373SOL    HW273212   6.201   6.120   3.118 -0.7260  2.1041 -2.2413
22374SOL     OW73213   4.382   0.032  10.537  0.2534  0.2431  0.4915
22374SOL    HW173214   4.371   0.119  10.574  1.9520  0.5677  0.3001
22374SOL    HW273215   4.476   0.021  10.528  0.0910 -1.7107  0.7284
22375SOL     OW73216   0.433   7.637   7.163  0.0816  0.1154 -0.2537
22375SOL    HW173217   0.430   7.585   7.082 -2.9336 -0.4149  0.0665
22375SOL    HW273218   0.526   7.644   7.184  0.7687 -3.1945 -1.5914
22376SOL     OW73219   7.645   7.714   4.256  0.1312  0.0438 -0.2761
22376SOL    HW173220   7.667   7.792   4.205 -1.3400  1.3139  0.9074
22376SOL    HW273221   7.658   7.740   4.347 -1.0737 -0.8288  0.1810
22377SOL     OW73222   5.477   1.865  10.369 -0.3147  0.1083  0.5705
22377SOL    HW173223   5.524   1.852  10.452 -0.0333  1.1468  0.5874
22377SOL    HW273224   5.443   1.778  10.347 -0.9199 -0.0802  2.1011
22378SOL     OW73225   0.805   1.632   6.666  0.0838 -0.3601  0.0511
22378SOL    HW173226   0.799   1.726   6.650 -1.5983 -0.3326  0.6564
22378SOL    HW273227   0.880   1.604   6.614 -0.8802  0.8977 -2.1645
22379SOL     OW73228   9.860   1.355   0.145 -0.1902  0.4039 -0.0827
22379SOL    HW173229   9.812   1.273   0.135 -1.3867  1.0547  0.1352
22379SOL    HW273230   9.792   1.422   0.146  0.8152  1.4924 -1.2162
22380SOL     OW73231   9.752   2.771   2.341 -0.2268  0.5030  0.1074
22380SOL    HW173232   9.730   2.791   2.250 -0.9432  0.9061  0.3597
22380SOL    HW273233   9.763   2.856   2.382 -2.0211  0.4009  0.8923
22381SOL     OW73234   9.806   6.537  10.910 -0.4043  0.0450 -0.3136
22381SOL    HW173235   9.723   6.520  10.865 -1.1909  2.4231  0.0857
22381SOL    HW273236   9.789   6.518  11.002  0.1781 -1.4834 -0.4846
22382SOL     OW73237   5.610   3.544   6.504 -0.1316 -0.0555  0.2844
22382SOL    HW173238   5.518   3.535   6.532 -0.2143  3.0669  1.3297
22382SOL    HW273239   5.611   3.507   6.415 -2.1291 -1.1450  0.6454
22383SOL     OW73240   2.878   6.767   3.146 -0.3224 -0.7478  0.2018
22383SOL    HW173241   2.815   6.707   3.106  1.0293 -2.6681  0.8234
22383SOL    HW273242   2.848   6.778   3.236 -0.8442 -0.0623 -0.0473
22384SOL     OW73243   2.640  10.227   1.041  0.2393 -0.4397 -0.8230
22384SOL    HW173244   2.664  10.229   1.134  1.0621 -1.9915 -0.9656
22384SOL    HW273245   2.722  10.244   0.994 -0.5399  2.4301 -1.3095
22385SOL     OW73246   8.559   9.376   2.592 -0.2038  0.2866  0.4196
22385SOL    HW173247   8.485   9.430   2.619  1.0221  1.7273  0.9810
22385SOL    HW273248   8.618   9.437   2.548  0.3526 -0.9794 -0.6547
22386SOL     OW73249  10.863   3.480   5.609 -0.6574 -0.4147  0.3206
22386SOL    HW173250  10.819   3.439   5.684  0.5084 -0.8178  0.8115
22386SOL    HW273251  10.921   3.546   5.648  1.1860 -1.7392 -0.0563
22387SOL     OW73252   7.303   7.337   7.380 -0.5965  0.7109 -0.2320
22387SOL    HW173253   7.306   7.431   7.399  2.3372  0.8224 -0.7822
22387SOL    HW273254   7.271   7.297   7.461 -0.9152  2.0952  0.3551
22388SOL     OW73255   1.629   7.115   3.790  0.3094 -0.6577 -0.1553
22388SOL    HW173256   1.620   7.203   3.752  1.0066  0.2916  1.7189
22388SOL    HW273257   1.724   7.100   3.792  0.2462 -0.9916  0.5050
22389SOL     OW73258   5.339   3.234   3.253 -0.2566 -0.3201 -0.6750
22389SOL    HW173259   5.421   3.213   3.207 -0.9605  0.3880 -2.3374
22389SOL    HW273260   5.365   3.297   3.320  0.6571 -0.6010 -0.7498
22390SOL     OW73261   3.596   1.572   7.615  0.4106  0.1891 -0.6348
22390SOL    HW173262   3.579   1.600   7.705 -0.7529 -0.0387 -0.7564
22390SOL    HW273263   3.660   1.502   7.623  0.5405  0.3743 -0.0082
22391SOL     OW73264  10.714  10.246   5.931  0.3678 -0.0259  0.3397
22391SOL    HW173265  10.768  10.289   5.998 -1.7556  1.3780  1.2600
22391SOL    HW273266  10.698  10.313   5.865 -0.6995 -0.2227  0.3745
22392SOL     OW73267   0.725   7.635   7.171 -0.5893  0.2247 -0.0786
22392SOL    HW173268   0.693   7.547   7.189 -0.3414 -0.0700 -1.0180
22392SOL    HW273269   0.780   7.656   7.246  0.6155 -1.0618 -0.5600
22393SOL     OW73270   4.456   0.026   3.758 -0.4562 -0.0657  0.3230
22393SOL    HW173271   4.403   0.100   3.788 -2.4046 -2.0627  2.2479
22393SOL    HW273272   4.498  -0.006   3.838  3.1939  0.9486 -1.0233
22394SOL     OW73273   5.999  10.500   2.787 -0.6940 -0.1886 -0.4483
22394SOL    HW173274   6.022  10.512   2.695  0.7216 -0.9362 -0.2177
22394SOL    HW273275   6.077  10.460   2.826 -1.2057  0.2701  1.1101
22395SOL     OW73276   9.275   8.695   9.139  0.6766 -0.2538 -0.7923
22395SOL    HW173277   9.339   8.706   9.069  3.2515 -2.6986  0.9200
22395SOL    HW273278   9.324   8.714   9.219 -0.8461 -1.8343  0.5998
22396SOL     OW73279   4.919   0.854  10.119  0.1230  0.0723  0.0238
22396SOL    HW173280   4.948   0.941  10.091  1.1960  0.3362  1.7997
22396SOL    HW273281   4.851   0.830  10.056 -0.3580  2.2793 -0.3709
22397SOL     OW73282   1.282   7.613   4.288  0.8120 -0.2402 -0.2169
22397SOL    HW173283   1.263   7.527   4.326  0.9674 -0.4061 -0.5173
22397SOL    HW273284   1.294   7.670   4.364  1.4146 -0.6314 -0.0109
22398SOL     OW73285   6.021   2.441   0.424 -0.4472  0.0408  0.0121
22398SOL    HW173286   5.953   2.424   0.489 -1.3508  0.3994 -0.8282
22398SOL    HW273287   5.975   2.478   0.349  0.7109  0.5833 -0.4630
22399SOL     OW73288  10.125   3.110   8.925 -0.1490  0.0644  0.6316
22399SOL    HW173289  10.164   3.134   8.841  0.1940 -0.3303  0.6791
22399SOL    HW273290  10.087   3.024   8.910 -0.8396  0.3621  0.6404
22400SOL     OW73291   5.388   0.246   6.591  0.3250  0.0517  0.1580
22400SOL    HW173292   5.343   0.191   6.655  0.0105 -1.2279 -1.1035
22400SOL    HW273293   5.317   0.279   6.535  0.6731  0.3497 -0.1075
22401SOL     OW73294   6.883   3.938   3.428  0.3583  0.2124  0.5183
22401SOL    HW173295   6.796   3.896   3.428  0.7013 -0.5301  0.9416
22401SOL    HW273296   6.873   4.013   3.487 -0.2291  0.6537 -0.1288
22402SOL     OW73297   5.738  10.836   2.506  0.0477 -0.3115  0.1321
22402SOL    HW173298   5.733  10.900   2.577 -2.2829 -0.7521  0.4660
22402SOL    HW273299   5.650  10.798   2.503  0.7251 -1.8692 -1.5608
22403SOL     OW73300   0.396  10.673   8.956  0.5963  0.1794 -0.0505
22403SOL    HW173301   0.404  10.618   9.034  0.1955  1.2068  0.7449
22403SOL    HW273302   0.421  10.616   8.883  1.4726 -0.6638  0.8727
22404SOL     OW73303  10.164   3.133   8.045 -0.2280  0.1075  0.2078
22404SOL    HW173304  10.251   3.174   8.041 -0.0492 -0.2147  0.6164
22404SOL    HW273305  10.103   3.206   8.036  0.0718  0.1948 -1.3474
22405SOL     OW73306   5.875   7.523   2.788 -0.1535 -0.0572  0.1772
22405SOL    HW173307   5.968   7.548   2.789 -0.5882  1.7067  1.1372
22405SOL    HW273308   5.876   7.429   2.806  1.4657 -0.1901 -0.3734
22406SOL     OW73309  10.296   3.640   8.752 -0.7268  0.1997 -0.1354
22406SOL    HW173310  10.257   3.703   8.813 -1.4347 -0.1508 -0.2180
22406SOL    HW273311  10.266   3.669   8.666 -1.8083 -0.7656 -0.1036
22407SOL     OW73312   2.176   4.982   9.723 -0.0351  0.2972  0.5305
22407SOL    HW173313   2.146   5.009   9.810  1.1086  1.0891  0.7022
22407SOL    HW273314   2.271   4.971   9.733  0.2236  1.1270 -0.7833
22408SOL     OW73315   9.258  10.444   7.182 -0.4073 -0.2995 -0.7219
22408SOL    HW173316   9.229  10.535   7.195  1.6617  0.5307 -1.4556
22408SOL    HW273317   9.279  10.439   7.089 -0.9720 -1.7116 -0.7973
22409SOL     OW73318   8.692   5.906   7.529 -0.2951  0.1809 -0.0956
22409SOL    HW173319   8.660   5.924   7.441 -0.1246 -4.0862 -1.2754
22409SOL    HW273320   8.613   5.887   7.580 -0.2310 -1.2188 -0.4758
22410SOL     OW73321   9.328   6.224   3.272 -0.4769 -0.1021  0.0606
22410SOL    HW173322   9.259   6.235   3.207 -1.9910 -0.8997  1.4617
22410SOL    HW273323   9.409   6.225   3.221 -1.4992  0.7611 -1.6449
22411SOL     OW73324   1.172   0.411   9.675 -0.0857  0.1511  0.1268
22411SOL    HW173325   1.231   0.421   9.601  0.9996 -1.0355  0.7984
22411SOL    HW273326   1.117   0.490   9.673  0.8425  0.7899 -1.1014
22412SOL     OW73327   4.406   0.097   9.688  0.5586  0.6027 -0.5097
22412SOL    HW173328   4.403   0.134   9.777 -0.3783 -0.3458 -0.1327
22412SOL    HW273329   4.499   0.091   9.668  0.7870  0.5044  0.5494
22413SOL     OW73330   7.110   3.542   7.601 -0.2313 -0.1469 -0.2999
22413SOL    HW173331   7.035   3.487   7.621  0.9685 -1.2861  1.3312
22413SOL    HW273332   7.157   3.496   7.531 -0.2540 -0.2197 -0.2666
22414SOL     OW73333   5.176   3.664  10.818  0.4261 -0.5019 -0.6586
22414SOL    HW173334   5.176   3.754  10.852 -2.7513 -1.2846  1.8845
22414SOL    HW273335   5.147   3.673  10.727 -1.2279  1.0069 -0.0442
22415SOL     OW73336   7.755  10.454   4.472  0.5675  0.3305  0.4028
22415SOL    HW173337   7.850  10.458   4.460  0.5888 -2.1456 -0.9708
22415SOL    HW273338   7.721  10.528   4.421  1.6661 -0.1136 -1.0324
22416SOL     OW73339   0.162   3.739   5.471 -0.8936 -0.1027  0.5018
22416SOL    HW173340   0.133   3.670   5.412 -0.7980  0.6097 -0.4091
22416SOL    HW273341   0.117   3.721   5.553  1.0152 -2.6898  1.1328
22417SOL     OW73342   4.942   2.617   3.477  0.0894  0.6714  0.2336
22417SOL    HW173343   4.902   2.703   3.492 -1.5458  0.0097 -0.0982
22417SOL    HW273344   4.992   2.601   3.557  0.7438  2.0786  0.1451
22418SOL     OW73345   2.446   7.401   1.092 -0.0085  0.1293  0.2320
22418SOL    HW173346   2.361   7.438   1.116  0.8157  3.1670 -0.9137
22418SOL    HW273347   2.502   7.418   1.168  0.1101  0.2865  0.1116
22419SOL     OW73348   9.905   2.905  10.281 -0.1658  0.2220  0.3376
22419SOL    HW173349   9.871   2.818  10.260  1.4973 -0.0423 -1.5609
22419SOL    HW273350   9.827   2.960  10.287 -1.1029 -0.8773 -1.0758
22420SOL     OW73351   3.745   2.146   5.911  0.4487  0.7737 -0.5368
22420SOL    HW173352   3.752   2.124   5.818 -0.8266  1.5323 -0.8414
22420SOL    HW273353   3.802   2.222   5.922  0.0592  1.1198 -0.8686
22421SOL     OW73354   9.891   1.756   7.122 -0.5552  0.3309 -0.2713
22421SOL    HW173355   9.912   1.848   7.109 -1.1403  0.3222 -1.3163
22421SOL    HW273356   9.821   1.737   7.060 -2.2740 -0.1795  1.6988
22422SOL     OW73357   5.865   8.370   4.628 -0.0517 -0.0050 -0.0479
22422SOL    HW173358   5.822   8.450   4.658 -3.1495 -1.3277 -0.6003
22422SOL    HW273359   5.901   8.331   4.708 -1.1553  0.4581  0.7005
22423SOL     OW73360   9.621   4.005   0.033  0.4719 -0.1459  0.1092
22423SOL    HW173361   9.595   4.093   0.007 -0.9159 -0.3990  0.5359
22423SOL    HW273362   9.716   4.007   0.036  0.4730  1.1761 -0.4375
22424SOL     OW73363   6.088   7.304   3.314  0.1799  0.0840  0.2303
22424SOL    HW173364   6.126   7.351   3.240  1.7480  0.9372  1.5066
22424SOL    HW273365   6.005   7.348   3.331 -0.1648 -0.0877 -0.9620
22425SOL     OW73366   4.710   2.498   1.745 -0.2999  0.0798 -0.7142
22425SOL    HW173367   4.712   2.432   1.676 -1.7888 -1.9568  1.0615
22425SOL    HW273368   4.801   2.503   1.775 -0.0606 -0.7658 -1.2428
22426SOL     OW73369   3.565   6.282   4.604  0.4489  0.6184 -0.1047
22426SOL    HW173370   3.649   6.300   4.562  1.1790  0.3796  1.1732
22426SOL    HW273371   3.537   6.198   4.569  2.1001 -0.6306  1.3777
22427SOL     OW73372   2.639  10.031   0.563 -0.1836  0.0228 -0.1786
22427SOL    HW173373   2.680  10.096   0.621 -0.5175 -1.1616  1.4661
22427SOL    HW273374   2.546  10.038   0.582 -0.2953 -0.4054 -0.5740
22428SOL     OW73375   6.334   3.491   6.654 -0.3266  0.0741  0.2825
22428SOL    HW173376   6.399   3.440   6.702 -0.3451  0.3168  0.5645
22428SOL    HW273377   6.313   3.437   6.578 -1.5180 -1.0857  1.3890
22429SOL     OW73378   6.824   3.899   9.336  0.2894 -0.1431  0.4776
22429SOL    HW173379   6.913   3.935   9.328  0.7186 -1.0101  1.1651
22429SOL    HW273380   6.820   3.865   9.426 -1.0007  0.5489  0.7107
22430SOL     OW73381   7.119   0.302   2.222 -0.2967 -0.2500 -0.0234
22430SOL    HW173382   7.113   0.220   2.173 -1.2219  0.0784 -0.4875
22430SOL    HW273383   7.140   0.275   2.312  0.2104 -0.9316 -0.3363
22431SOL     OW73384   8.173   5.485   5.115 -0.5701  0.2555 -0.8795
22431SOL    HW173385   8.146   5.576   5.120 -1.1322  0.1554 -1.8598
22431SOL    HW273386   8.158   5.450   5.203 -3.2744  0.3234 -1.2413
22432SOL     OW73387  10.431   1.688   2.378  1.1559  0.0812 -0.4193
22432SOL    HW173388  10.348   1.681   2.332  0.7722 -2.2935  0.4840
22432SOL    HW273389  10.492   1.723   2.312 -0.2940  0.8224 -1.4104
22433SOL     OW73390   5.739   4.523   6.978  0.3007  0.8686  0.2783
22433SOL    HW173391   5.796   4.547   7.051 -1.3605  2.0725  1.2338
22433SOL    HW273392   5.782   4.561   6.901  2.3240 -0.8125  0.4593
22434SOL     OW73393   2.784   6.400   3.956  0.3968 -0.2199 -0.0148
22434SOL    HW173394   2.864   6.349   3.945  0.5592  0.0971 -0.3609
22434SOL    HW273395   2.797   6.477   3.900 -0.2221 -0.2485 -0.2086
22435SOL     OW73396   1.490   8.776   1.268 -0.0528 -0.3042 -0.6785
22435SOL    HW173397   1.395   8.791   1.272 -0.1276 -0.5233 -1.4705
22435SOL    HW273398   1.511   8.736   1.353 -0.2384  2.0109  0.5246
22436SOL     OW73399   9.981   2.637   2.262 -0.7736 -0.0334 -0.6127
22436SOL    HW173400  10.007   2.705   2.201 -0.0568  1.7250  1.5238
22436SOL    HW273401   9.898   2.668   2.299  0.1373  0.3353  1.2325
22437SOL     OW73402   4.222   9.333   2.135  0.1582 -0.1573  0.6378
22437SOL    HW173403   4.161   9.329   2.209  0.0292 -0.7098  0.5021
22437SOL    HW273404   4.205   9.253   2.085  1.8855 -0.9908  1.3020
22438SOL     OW73405   6.913   8.559  10.885  0.1715  0.1764  0.1700
22438SOL    HW173406   6.931   8.522  10.971 -3.1347  0.2770  1.0275
22438SOL    HW273407   6.856   8.495  10.843 -0.2826  1.2765 -0.9479
22439SOL     OW73408   5.318  10.110  10.792 -0.7900 -0.0295 -0.7594
22439SOL    HW173409   5.302  10.200  10.821 -1.2786 -0.3458 -0.0312
22439SOL    HW273410   5.234  10.066  10.804 -0.0117 -1.1350  0.9629
22440SOL     OW73411   5.296   0.068   9.575 -0.6961 -0.0538  0.1254
22440SOL    HW173412   5.270   0.160   9.579  0.7689  0.4292 -0.7160
22440SOL    HW273413   5.284   0.036   9.665 -0.6077  1.1375  0.5778
22441SOL     OW73414   8.472   9.420   3.190  0.2585 -0.4805 -0.5501
22441SOL    HW173415   8.386   9.394   3.159  0.1833  0.0704 -0.8104
22441SOL    HW273416   8.529   9.410   3.114  0.1060  0.7080 -0.8370
22442SOL     OW73417   8.009   7.379   3.659  0.6623  0.6539 -0.0807
22442SOL    HW173418   7.929   7.336   3.629  1.3961  0.1455 -1.4062
22442SOL    HW273419   8.069   7.372   3.584  2.7698 -1.0595  1.6321
22443SOL     OW73420   5.538  10.064   9.175 -0.0875 -0.1057  0.2219
22443SOL    HW173421   5.468  10.046   9.112 -1.8454  2.5360  1.2529
22443SOL    HW273422   5.599  10.122   9.129  0.3417 -0.7261 -0.0085
22444SOL     OW73423   5.123   4.206   6.806  0.1951 -0.2879 -0.1278
22444SOL    HW173424   5.053   4.205   6.741 -2.1513 -0.5447  2.2165
22444SOL    HW273425   5.121   4.295   6.842  0.4674 -0.5424  0.5402
22445SOL     OW73426  10.695   3.599   3.086  0.2060  0.2386  0.1984
22445SOL    HW173427  10.630   3.661   3.120 -2.0403 -2.5124  1.3808
22445SOL    HW273428  10.682   3.599   2.992 -1.1861  0.1502  0.3707
22446SOL     OW73429  10.151   8.001   2.153 -0.2983  0.5103  0.1646
22446SOL    HW173430  10.089   8.019   2.082 -0.3237 -1.5818 -0.4052
22446SOL    HW273431  10.102   7.944   2.213  1.1926 -1.7912 -0.6585
22447SOL     OW73432  10.604   5.644   9.400 -0.3855  0.3284 -0.6560
22447SOL    HW173433  10.569   5.621   9.314  2.6882 -3.0011 -1.2712
22447SOL    HW273434  10.566   5.581   9.460 -0.0231  0.5289 -0.2065
22448SOL     OW73435  10.832   3.660   0.591 -0.6009 -0.1741 -0.2652
22448SOL    HW173436  10.819   3.572   0.557  0.4230 -1.4435  2.3637
22448SOL    HW273437  10.765   3.669   0.659  0.0136  0.6677  0.2434
22449SOL     OW73438  10.044   0.659   2.349 -0.2268 -0.0841  0.8469
22449SOL    HW173439  10.110   0.589   2.350  0.5828  0.4772 -2.3927
22449SOL    HW273440   9.961   0.614   2.337  0.3238 -0.5560 -1.5587
22450SOL     OW73441   0.606   5.672  10.239 -0.0228  0.2278  0.3305
22450SOL    HW173442   0.590   5.737  10.171  0.5023 -0.9328 -0.9363
22450SOL    HW273443   0.530   5.614  10.235 -1.1561  1.4069  2.3429
22451SOL     OW73444   8.035   3.940   5.521  0.1201  0.2560 -0.6838
22451SOL    HW173445   8.069   3.979   5.602  1.3298  0.1324 -1.1135
22451SOL    HW273446   7.972   4.004   5.488 -0.4043  0.2970  0.3675
22452SOL     OW73447   6.880   1.550   3.326 -0.6788  0.8235 -0.1972
22452SOL    HW173448   6.914   1.592   3.247  0.2013  0.1347 -0.2058
22452SOL    HW273449   6.921   1.464   3.326 -0.4855  0.8963  1.1279
22453SOL     OW73450   0.498   7.919   5.953  0.5999 -0.0732  0.1667
22453SOL    HW173451   0.467   7.830   5.938 -0.3614  0.4285 -1.0557
22453SOL    HW273452   0.438   7.955   6.018 -1.2764  0.7602 -1.8881
22454SOL     OW73453   0.578   0.396   0.802 -0.4372  0.3081 -0.0667
22454SOL    HW173454   0.583   0.302   0.820  0.8824  0.4759  0.4944
22454SOL    HW273455   0.521   0.430   0.871  2.2100  0.4832  2.1796
22455SOL     OW73456   7.590   2.255   0.942 -0.0466 -0.3522  0.3489
22455SOL    HW173457   7.536   2.257   1.021 -0.1257 -1.1212  0.3258
22455SOL    HW273458   7.673   2.218   0.971 -0.4770 -1.7786 -0.1397
22456SOL     OW73459   0.575  10.370   5.930  0.1180 -0.4723  0.6594
22456SOL    HW173460   0.481  10.371   5.943  0.3005 -1.7874  2.2830
22456SOL    HW273461   0.586  10.383   5.835 -1.6444  0.0078  0.4871
22457SOL     OW73462   4.512   3.443   2.841 -0.1976 -0.0802  0.5409
22457SOL    HW173463   4.607   3.436   2.832 -0.2358 -2.3826  1.3136
22457SOL    HW273464   4.490   3.385   2.914 -2.0561  1.6187  1.4395
22458SOL     OW73465   2.475   5.052   3.174 -0.0151 -0.5882  0.3041
22458SOL    HW173466   2.495   5.143   3.199 -0.2416  0.0002 -1.4819
22458SOL    HW273467   2.515   4.999   3.242  3.1495  0.7106 -0.3435
22459SOL     OW73468   9.849   9.755   0.438  0.5262  0.3702 -0.0138
22459SOL    HW173469   9.758   9.757   0.406  0.9573 -0.5209 -1.3791
22459SOL    HW273470   9.843   9.713   0.523 -0.3890  0.7368  0.1221
22460SOL     OW73471   9.943  10.323   1.233  0.1281 -0.0144 -0.2801
22460SOL    HW173472   9.940  10.417   1.214  2.0722  0.3015  0.7291
22460SOL    HW273473   9.948  10.318   1.329 -0.1132 -1.1726 -0.3138
22461SOL     OW73474   1.479   9.156   1.094 -0.9337  0.3201  0.3578
22461SOL    HW173475   1.544   9.167   1.163  0.4173 -0.7973 -0.6859
22461SOL    HW273476   1.407   9.213   1.120  0.5508  1.8020  1.4357
22462SOL     OW73477   4.423   4.097   5.298  0.0690 -0.0198 -0.3904
22462SOL    HW173478   4.371   4.035   5.350  1.0511 -0.6288 -0.0983
22462SOL    HW273479   4.495   4.122   5.356  0.2858  0.5456 -0.8991
22463SOL     OW73480   0.335   5.930  10.537  0.0744 -0.1130  0.5836
22463SOL    HW173481   0.301   5.970  10.457  1.1499  1.0779  0.6899
22463SOL    HW273482   0.256   5.907  10.587 -0.6124 -1.3110 -0.9899
22464SOL     OW73483   9.163   9.650   8.069 -0.2144  0.2805 -0.8044
22464SOL    HW173484   9.222   9.577   8.090  1.6132  1.9642  0.3880
22464SOL    HW273485   9.150   9.694   8.153 -0.2760  1.9855 -1.6625
22465SOL     OW73486   7.074   1.039   5.505  0.0103  0.1115  0.1381
22465SOL    HW173487   7.102   0.984   5.579  1.7083 -0.2481 -0.7149
22465SOL    HW273488   7.099   1.128   5.531 -0.0002  0.0741  0.2778
22466SOL     OW73489   6.374   7.053   2.529 -0.1353 -0.4632  0.0989
22466SOL    HW173490   6.287   7.077   2.561 -0.1978  1.3106 -1.2390
22466SOL    HW273491   6.434   7.112   2.574  0.3658 -1.4191  0.7237
22467SOL     OW73492   9.015   3.283  10.312  0.4918  0.4495 -0.5258
22467SOL    HW173493   8.959   3.357  10.294 -0.4887 -0.3769 -0.9676
22467SOL    HW273494   9.020   3.236  10.228 -0.1572 -0.7988  0.1120
22468SOL     OW73495   6.227   5.405   4.580  0.2253  0.1992 -0.3730
22468SOL    HW173496   6.181   5.489   4.586  0.3952  0.2626  0.0355
22468SOL    HW273497   6.317   5.425   4.603  1.0616  0.5449 -3.4683
22469SOL     OW73498   1.506   3.559  10.049  0.3548 -0.0688  0.1344
22469SOL    HW173499   1.501   3.464  10.036 -2.3123  0.0690 -0.3750
22469SOL    HW273500   1.449   3.576  10.123 -0.4925  1.2964 -0.7950
22470SOL     OW73501   4.050   5.413   3.487  0.1034 -0.1679  0.2426
22470SOL    HW173502   4.057   5.328   3.443 -0.2608  0.5886 -1.3288
22470SOL    HW273503   4.036   5.391   3.579 -1.5476 -1.8466 -0.3464
22471SOL     OW73504   3.866   5.510  10.278  0.0804  0.1372 -0.0057
22471SOL    HW173505   3.842   5.502  10.185  0.1916  0.0895 -0.0291
22471SOL    HW273506   3.808   5.449  10.323 -0.7278  0.9280  0.0760
22472SOL     OW73507   3.891  10.677   2.271 -0.2660  0.7492  0.5346
22472SOL    HW173508   3.972  10.683   2.221 -0.3234  0.4269  0.4018
22472SOL    HW273509   3.873  10.767   2.298 -0.3106  0.9492 -0.1420
22473SOL     OW73510   8.026   6.039   4.787  0.1905  0.1887 -0.1065
22473SOL    HW173511   8.023   6.067   4.696  1.6153 -2.0542 -0.9331
22473SOL    HW273512   7.941   5.997   4.802  1.0291 -2.2013 -1.4808
22474SOL     OW73513   5.068   9.253   2.747 -0.1842  0.2345 -0.0859
22474SOL    HW173514   5.048   9.324   2.687 -0.9328  0.0759 -0.0385
22474SOL    HW273515   5.115   9.295   2.819  0.6032  0.4453 -0.7131
22475SOL     OW73516  10.060   1.756   2.950 -0.4094  0.5357  0.3821
22475SOL    HW173517  10.142   1.804   2.943  0.1431 -0.5175 -0.6741
22475SOL    HW273518  10.083   1.675   2.997 -0.7028 -0.0260 -0.4136
22476SOL     OW73519   4.858   5.589   9.910  0.0368  0.1379 -0.1077
22476SOL    HW173520   4.869   5.585  10.005 -0.2495 -0.5311 -0.1018
22476SOL    HW273521   4.920   5.525   9.876  1.4878  1.6689 -0.4930
22477SOL     OW73522  10.551   7.360   2.411  0.2111  0.5586 -0.0773
22477SOL    HW173523  10.530   7.273   2.445  2.8848  0.8333  2.7642
22477SOL    HW273524  10.637   7.349   2.369  0.5340  1.7919  0.2214
22478SOL     OW73525   3.902   1.909   1.896 -0.3799 -0.4715  0.1938
22478SOL    HW173526   3.832   1.864   1.849 -1.2990 -0.2273  1.2899
22478SOL    HW273527   3.881   1.895   1.989  1.3841 -0.9532  0.5572
22479SOL     OW73528   8.514   2.756   5.054  0.0953  0.3126 -0.1483
22479SOL    HW173529   8.585   2.804   5.096  0.3806 -1.6682  1.8386
22479SOL    HW273530   8.440   2.765   5.114  0.3742 -2.2252  0.6995
22480SOL     OW73531   2.278   8.376   4.209 -0.0180  0.2214 -0.1935
22480SOL    HW173532   2.217   8.313   4.170  0.6553 -1.4607  1.3252
22480SOL    HW273533   2.229   8.458   4.214 -0.9024 -0.1221 -2.3016
22481SOL     OW73534   0.717   1.424   4.808  0.1820 -0.7399 -0.5017
22481SOL    HW173535   0.752   1.338   4.828  2.7115  0.3932  0.3035
22481SOL    HW273536   0.704   1.465   4.894  1.8284  0.6952 -0.8859
22482SOL     OW73537   3.987   5.807   0.594  0.1434  0.2311  0.2258
22482SOL    HW173538   4.079   5.780   0.589 -0.0898 -0.4747 -0.6094
22482SOL    HW273539   3.957   5.804   0.503 -0.4416  1.4386  0.3688
22483SOL     OW73540   8.060   3.636   8.840  0.2642 -0.1297  0.0458
22483SOL    HW173541   8.108   3.566   8.796 -0.5273 -0.8436  0.3011
22483SOL    HW273542   8.119   3.664   8.910 -0.0218 -1.6066  0.9151
22484SOL     OW73543   9.529   0.944   7.726  0.3426 -0.0630 -0.2622
22484SOL    HW173544   9.484   0.904   7.652  0.6392 -0.5687 -0.1683
22484SOL    HW273545   9.477   0.918   7.802  0.5319 -0.2613 -0.2024
22485SOL     OW73546   4.835   8.847   9.465 -0.2805 -0.2440 -0.3982
22485SOL    HW173547   4.920   8.874   9.428 -0.5718 -0.0552 -0.9413
22485SOL    HW273548   4.855   8.825   9.556 -0.0280  1.8736  0.1158
22486SOL     OW73549   5.232   7.778   9.095  0.0975  0.5970  0.4441
22486SOL    HW173550   5.274   7.692   9.091  0.1037  0.6090  0.2112
22486SOL    HW273551   5.154   7.765   9.149  0.2702  0.5182  0.6725
22487SOL     OW73552  10.762   7.184   1.356  0.5896  0.3560  0.0377
22487SOL    HW173553  10.852   7.162   1.329  0.6050  0.6269 -0.1413
22487SOL    HW273554  10.771   7.269   1.399  0.3803  0.5093 -0.2195
22488SOL     OW73555   5.580   2.845   7.453 -0.1932  0.0694  0.0871
22488SOL    HW173556   5.514   2.874   7.516 -0.4784  0.2426 -0.2857
22488SOL    HW273557   5.584   2.916   7.389  1.4366  0.7822  0.8895
22489SOL     OW73558   4.465   8.588   3.939  0.1194 -0.1564  0.0601
22489SOL    HW173559   4.546   8.627   3.907 -0.3550 -1.2822 -2.8758
22489SOL    HW273560   4.488   8.497   3.957  0.0378  0.1279  1.7472
22490SOL     OW73561   5.300   2.224   5.702  0.1135  0.0493 -0.0443
22490SOL    HW173562   5.381   2.274   5.712 -1.1452  1.9378  1.2691
22490SOL    HW273563   5.264   2.218   5.791 -1.2676 -0.6384 -0.6190
22491SOL     OW73564   3.559   6.951  10.674  0.6052 -0.0105  0.0333
22491SOL    HW173565   3.601   6.873  10.711 -0.5353  0.4818  2.6275
22491SOL    HW273566   3.476   6.919  10.639  2.0489 -0.6230 -3.1125
22492SOL     OW73567   5.692   7.537   7.449  0.3291 -0.2716 -0.1292
22492SOL    HW173568   5.703   7.445   7.426  0.9001 -0.6326  1.4710
22492SOL    HW273569   5.619   7.566   7.394 -1.3783 -2.2861  0.9338
22493SOL     OW73570   4.995   4.466   5.496  0.5540 -0.4773 -0.2243
22493SOL    HW173571   5.056   4.410   5.545 -0.4457 -2.4878 -1.1725
22493SOL    HW273572   4.913   4.459   5.544  0.4510  0.3315 -0.2736
22494SOL     OW73573   0.703   0.076   2.736  0.1874  0.5786 -0.0991
22494SOL    HW173574   0.792   0.049   2.715  0.7098  1.5910  0.6837
22494SOL    HW273575   0.711   0.169   2.760 -1.0309  0.6180  0.2545
22495SOL     OW73576   5.537   2.967   1.569 -0.4767  0.3065  0.2926
22495SOL    HW173577   5.606   3.009   1.518 -0.3880 -1.2385 -0.9330
22495SOL    HW273578   5.581   2.897   1.618 -1.1755 -0.9151 -0.7559
22496SOL     OW73579   8.154   4.247   0.846 -0.5236  0.2159  0.4635
22496SOL    HW173580   8.204   4.317   0.804  0.4747  0.5666  2.1688
22496SOL    HW273581   8.067   4.253   0.807 -1.2421  4.0259  2.2490
22497SOL     OW73582   3.694   2.958   6.418  0.2744 -0.1136  0.1976
22497SOL    HW173583   3.624   2.893   6.418 -0.8326  0.9978 -1.7861
22497SOL    HW273584   3.757   2.925   6.354  0.0607  0.3785 -0.2741
22498SOL     OW73585   7.615   0.717   2.158  0.2441  0.2538 -0.4171
22498SOL    HW173586   7.698   0.669   2.158 -1.0264 -2.0627  0.2282
22498SOL    HW273587   7.614   0.762   2.242  0.0394 -1.2632  0.4242
22499SOL     OW73588   6.358   0.063   6.636 -0.3001 -0.3445 -0.1402
22499SOL    HW173589   6.262   0.068   6.637 -0.3124 -0.5973 -0.0262
22499SOL    HW273590   6.382   0.088   6.546 -0.4502  0.0990 -0.0607
22500SOL     OW73591   8.731   0.068   6.941  0.1422 -0.2018 -0.6043
22500SOL    HW173592   8.745   0.159   6.915 -0.2687  0.8150  2.3269
22500SOL    HW273593   8.691   0.027   6.864  0.3926  2.0572 -2.0424
22501SOL     OW73594   3.593   3.813   8.451  0.0133  0.1283 -0.0114
22501SOL    HW173595   3.615   3.798   8.359 -2.2013  1.8360 -0.9036
22501SOL    HW273596   3.499   3.826   8.452 -0.0421  0.0462  2.5554
22502SOL     OW73597   2.946   4.386   3.297  0.3609  0.3246 -0.2368
22502SOL    HW173598   3.021   4.373   3.239 -0.5823  1.6220 -1.8330
22502SOL    HW273599   2.870   4.382   3.239 -1.0381 -2.7772  1.5710
22503SOL     OW73600   4.577  10.053   4.020  0.3810  0.1918 -0.1837
22503SOL    HW173601   4.598  10.139   3.985 -0.6013  1.0219  1.1814
22503SOL    HW273602   4.499  10.066   4.074 -1.2224 -1.9957 -1.7913
22504SOL     OW73603   7.015   1.272  10.185 -0.0785  0.4656  0.5029
22504SOL    HW173604   7.020   1.240  10.275 -0.3412  1.5707  0.9328
22504SOL    HW273605   7.104   1.302  10.165 -0.3404  1.5572  0.9252
22505SOL     OW73606   3.647   2.432   1.246 -0.0776  0.0588 -0.0810
22505SOL    HW173607   3.736   2.457   1.270  0.2250 -0.8056 -0.2560
22505SOL    HW273608   3.635   2.467   1.158  1.1059 -2.1095 -1.1999
22506SOL     OW73609   6.595   9.705   7.154 -0.0334 -0.0323 -0.0449
22506SOL    HW173610   6.569   9.744   7.238 -0.1447 -0.4106  0.0999
22506SOL    HW273611   6.558   9.617   7.157  4.0139 -1.9142  1.6393
22507SOL     OW73612   1.179   6.652   0.759  1.1944  0.0108  0.1274
22507SOL    HW173613   1.095   6.697   0.756  0.3710 -1.4833 -3.0078
22507SOL    HW273614   1.163   6.575   0.814  0.4511 -0.3372 -0.5654
22508SOL     OW73615   6.002   2.440   2.140  0.3026  0.1676 -0.3040
22508SOL    HW173616   5.996   2.432   2.045 -0.3574  0.9118 -0.3324
22508SOL    HW273617   6.001   2.349   2.171 -1.0654 -0.0668 -0.9311
22509SOL     OW73618   1.803   0.705   0.670  0.2528  0.4848  0.4748
22509SOL    HW173619   1.858   0.720   0.594 -1.6979  2.2045 -0.6982
22509SOL    HW273620   1.829   0.773   0.733 -0.1508  0.9548  0.1378
22510SOL     OW73621   0.633   9.193   1.641  0.0217 -0.3383  0.3247
22510SOL    HW173622   0.699   9.143   1.690 -0.0345 -0.0236  0.7240
22510SOL    HW273623   0.616   9.270   1.695 -1.2224 -0.7774  0.6112
22511SOL     OW73624   9.177   8.182   1.324 -0.2274  0.2108  0.0290
22511SOL    HW173625   9.202   8.263   1.279 -0.8990  0.4561  0.0904
22511SOL    HW273626   9.099   8.205   1.374 -1.8473 -1.0694 -1.7848
22512SOL     OW73627   8.780   2.296  10.573 -0.5837 -0.0462  0.1543
22512SOL    HW173628   8.765   2.295  10.668 -0.8331 -0.3018  0.1130
22512SOL    HW273629   8.693   2.285  10.535 -0.3743 -0.9468 -0.0911
22513SOL     OW73630  10.112   9.633   8.740 -0.4420 -0.6150 -0.5407
22513SOL    HW173631  10.034   9.597   8.698 -0.0842  1.0075 -2.7879
22513SOL    HW273632  10.147   9.695   8.677  3.2571 -1.9452 -0.0622
22514SOL     OW73633   8.191   9.965   9.436  0.5338 -0.4717  0.3175
22514SOL    HW173634   8.237  10.027   9.493  0.0932  1.8176 -1.6280
22514SOL    HW273635   8.107  10.007   9.418  0.4119 -1.3955 -1.4619
22515SOL     OW73636   3.724   2.856   5.543  0.0762 -0.0446 -0.3051
22515SOL    HW173637   3.711   2.918   5.614 -0.4454 -0.3767 -0.1064
22515SOL    HW273638   3.781   2.788   5.580  0.5073  0.2201 -0.4710
22516SOL     OW73639   8.293   4.585  10.868  0.0571  0.7657  0.0759
22516SOL    HW173640   8.209   4.538  10.872  0.7968 -0.5062  1.1912
22516SOL    HW273641   8.340   4.557  10.946  1.5551  1.4377 -0.5611
22517SOL     OW73642   5.546   2.223   9.596  0.2475  0.3567  0.0322
22517SOL    HW173643   5.641   2.222   9.608  0.1258  0.1074  1.1305
22517SOL    HW273644   5.515   2.286   9.662 -0.4053 -0.1067  0.1741
22518SOL     OW73645   0.496   5.129   6.443 -1.0097  0.2055  0.2593
22518SOL    HW173646   0.460   5.132   6.532 -1.5227 -2.1988  0.2184
22518SOL    HW273647   0.465   5.209   6.401 -4.7361 -0.7580  0.8599
22519SOL     OW73648   2.889   2.869   7.997 -0.2157 -0.6818 -0.2124
22519SOL    HW173649   2.828   2.927   7.950 -0.8723 -0.3617  0.9902
22519SOL    HW273650   2.909   2.916   8.078  0.9748 -1.1721 -0.2034
22520SOL     OW73651   0.164  10.364   6.965 -0.5704  0.0955 -0.5553
22520SOL    HW173652   0.231  10.380   6.898 -0.0529 -0.3048 -0.1460
22520SOL    HW273653   0.214  10.341   7.044 -1.1882 -2.6291 -0.8559
22521SOL     OW73654   9.292   7.712   4.118 -0.0311 -0.1951 -0.2127
22521SOL    HW173655   9.280   7.783   4.054  0.5429 -0.1560 -0.2855
22521SOL    HW273656   9.254   7.746   4.199 -1.2506 -0.4524 -0.6562
22522SOL     OW73657   8.443   9.435   1.649  0.5456  0.4623 -0.9640
22522SOL    HW173658   8.522   9.384   1.634  0.7963  0.1603  1.1164
22522SOL    HW273659   8.474   9.522   1.673  0.3860 -0.0396  1.3328
22523SOL     OW73660   3.991   9.313   3.657 -0.3539 -0.1482 -0.3629
22523SOL    HW173661   4.022   9.267   3.736  0.2002  0.1175 -0.4211
22523SOL    HW273662   3.896   9.307   3.662 -0.3016 -0.9188 -0.1393
22524SOL     OW73663   7.068   0.009   7.962  0.5723 -0.4298 -0.1919
22524SOL    HW173664   7.045  -0.076   7.924 -0.9325 -0.5723  0.9150
22524SOL    HW273665   7.123  -0.013   8.037  0.0518 -0.4580  0.1891
22525SOL     OW73666   7.741   2.555   2.583  0.3629  0.1048 -0.6642
22525SOL    HW173667   7.695   2.638   2.578 -0.6739 -0.3686  0.5058
22525SOL    HW273668   7.675   2.489   2.563  0.5744 -0.5656  0.7062
22526SOL     OW73669   9.414   5.905   1.580 -0.8204 -0.0886 -0.4710
22526SOL    HW173670   9.397   5.811   1.591  4.9193 -1.4700  0.2768
22526SOL    HW273671   9.439   5.934   1.668 -1.6414  1.9904 -0.8764
22527SOL     OW73672   5.515   5.515   4.282 -0.5783  0.0711  0.7455
22527SOL    HW173673   5.603   5.478   4.286  0.1453  1.0262 -2.7545
22527SOL    HW273674   5.529   5.607   4.260 -2.4860  0.7099  1.9336
22528SOL     OW73675   2.752   3.741   5.362 -0.0727  0.1042  0.2185
22528SOL    HW173676   2.697   3.676   5.318  0.0454 -1.4025  2.1436
22528SOL    HW273677   2.689   3.796   5.409 -0.0422 -1.4524  2.2011
22529SOL     OW73678  10.420   2.471   2.350 -0.4330  0.3029 -0.0793
22529SOL    HW173679  10.443   2.379   2.337 -0.1720 -0.0867  2.5340
22529SOL    HW273680  10.335   2.481   2.308 -1.1941 -1.5584  0.8964
22530SOL     OW73681   8.556   9.767   0.761 -0.1256 -0.0528  0.1742
22530SOL    HW173682   8.564   9.688   0.816 -0.4945 -0.0691  0.2102
22530SOL    HW273683   8.467   9.797   0.777 -0.3958 -0.3214 -0.7715
22531SOL     OW73684   3.543   8.560   7.583  0.2151 -0.2068 -0.3013
22531SOL    HW173685   3.498   8.644   7.580  0.9534  0.1900 -0.6757
22531SOL    HW273686   3.515   8.514   7.503  1.3437  0.5185 -1.1489
22532SOL     OW73687   4.825   7.494   4.642  0.6407  0.2078 -0.3487
22532SOL    HW173688   4.921   7.503   4.640  0.5949  1.6548  1.3369
22532SOL    HW273689   4.793   7.566   4.588  0.4599 -1.5226 -2.7060
22533SOL     OW73690   3.075   9.565   3.301  0.0552  0.3338  0.6548
22533SOL    HW173691   3.167   9.565   3.273 -0.1222  0.8723  0.0387
22533SOL    HW273692   3.051   9.658   3.302 -0.4238  0.2053  1.0093
22534SOL     OW73693   3.952   5.537   8.846 -0.2777  0.3069  0.0211
22534SOL    HW173694   3.977   5.474   8.778  1.0730  0.7755  0.0686
22534SOL    HW273695   4.006   5.516   8.921 -1.4396  0.0939  0.8323
22535SOL     OW73696   1.901  10.787   8.520  0.4360  0.3020 -0.0690
22535SOL    HW173697   1.845  10.710   8.534  0.9097  0.1653  1.2215
22535SOL    HW273698   1.967  10.757   8.458  0.5464 -0.3246  0.3288
22536SOL     OW73699   3.149   5.710   4.711 -0.3617  0.2320  0.5724
22536SOL    HW173700   3.093   5.771   4.663 -0.4419 -0.9543 -0.9270
22536SOL    HW273701   3.087   5.657   4.763 -0.2982  1.3100  1.8041
22537SOL     OW73702  10.528   8.367   7.347 -0.2935 -0.7530  0.1354
22537SOL    HW173703  10.453   8.307   7.357 -0.5196 -0.5515 -0.3438
22537SOL    HW273704  10.602   8.318   7.384 -0.7234 -0.8184  0.9315
22538SOL     OW73705   5.108   5.110   2.855 -0.3317 -0.0797  0.5334
22538SOL    HW173706   5.152   5.194   2.841 -0.9760  0.1006 -0.4975
22538SOL    HW273707   5.160   5.067   2.924  0.3190  0.9265  0.6931
22539SOL     OW73708  10.684   9.133   7.820  0.1837  0.8619  0.2428
22539SOL    HW173709  10.728   9.213   7.792 -1.2437  0.7013 -2.8811
22539SOL    HW273710  10.743   9.063   7.793  0.1468  0.7838  0.3634
22540SOL     OW73711   6.241   7.798   1.159  0.0576  0.3044 -0.4556
22540SOL    HW173712   6.255   7.712   1.197 -0.3221 -0.1283 -1.2689
22540SOL    HW273713   6.329   7.833   1.145  0.2023  0.5444  0.9328
22541SOL     OW73714   4.963   7.203   1.665 -0.3163 -0.1458  0.2835
22541SOL    HW173715   4.932   7.199   1.755  1.1209  0.2675  0.8223
22541SOL    HW273716   5.022   7.128   1.656 -0.8944 -0.5246 -0.5072
22542SOL     OW73717   0.023   9.845   5.661 -0.5635  0.3534 -0.0027
22542SOL    HW173718  -0.033   9.896   5.719 -0.5571 -1.0247  1.2956
22542SOL    HW273719  -0.037   9.790   5.611 -0.4642 -0.0230  0.2848
22543SOL     OW73720   6.696   4.563   4.145 -0.2760  0.3712  0.5867
22543SOL    HW173721   6.779   4.549   4.191 -0.5637 -0.3340  0.9077
22543SOL    HW273722   6.704   4.651   4.107  0.2268  0.7128  1.4497
22544SOL     OW73723   2.208   7.790   6.594  0.3355  0.4256 -0.3252
22544SOL    HW173724   2.268   7.731   6.549  0.7954 -0.0398  0.8583
22544SOL    HW273725   2.232   7.783   6.686 -1.2904  0.5204  0.1324
22545SOL     OW73726   6.892   7.365   6.503  0.1906 -0.1277 -0.4120
22545SOL    HW173727   6.902   7.378   6.409  1.5933 -1.5699 -0.5078
22545SOL    HW273728   6.917   7.274   6.517 -0.1506  0.0187  1.3445
22546SOL     OW73729   6.425   9.311   3.144  0.0350  0.0385 -0.3583
22546SOL    HW173730   6.374   9.314   3.063 -0.9846  0.0779  0.2724
22546SOL    HW273731   6.469   9.226   3.141  0.1989  0.1351 -1.0567
22547SOL     OW73732   7.707   6.475   5.013 -0.5795  0.0041 -0.0976
22547SOL    HW173733   7.673   6.549   4.962  0.0280  0.6213  0.3703
22547SOL    HW273734   7.733   6.411   4.947  1.2940  1.2673 -0.6506
22548SOL     OW73735   1.207   3.174   2.919  0.1822 -0.1559  0.0352
22548SOL    HW173736   1.238   3.120   2.847 -0.2265  2.1425 -2.0073
22548SOL    HW273737   1.221   3.264   2.889 -0.6226  0.9253  2.5811
22549SOL     OW73738   3.422   7.188   4.416  0.3900 -0.6594 -0.0663
22549SOL    HW173739   3.412   7.283   4.422 -0.0202 -0.7502  0.8206
22549SOL    HW273740   3.375   7.153   4.492  2.6811 -1.4297  1.1120
22550SOL     OW73741   6.005   3.864   2.769 -0.2151  0.3540 -0.2211
22550SOL    HW173742   6.059   3.821   2.835 -0.4058 -0.0242 -0.3067
22550SOL    HW273743   5.935   3.905   2.819  0.7882  1.8672  0.0097
22551SOL     OW73744   1.660   2.032   4.594 -0.1146 -0.4439 -0.1875
22551SOL    HW173745   1.643   2.083   4.674 -0.0827  2.8114 -2.0763
22551SOL    HW273746   1.701   1.951   4.626 -2.1136 -0.3237  3.1901
22552SOL     OW73747  10.731   6.707   7.695 -0.2419  0.0987  0.3654
22552SOL    HW173748  10.733   6.715   7.600  0.5626  0.1594  0.3727
22552SOL    HW273749  10.702   6.793   7.726  0.6659  0.4868  0.1975
22553SOL     OW73750   4.898   6.204   2.387 -0.6599  0.0444  0.0714
22553SOL    HW173751   4.890   6.298   2.406 -0.3382  0.3622 -1.2580
22553SOL    HW273752   4.920   6.201   2.294 -0.9653 -1.3707  0.0325
22554SOL     OW73753   0.847   3.023   6.354  0.3339 -0.2197  0.3274
22554SOL    HW173754   0.870   3.023   6.261  1.4869 -0.0241  0.6001
22554SOL    HW273755   0.890   3.101   6.389 -1.1896  0.4547  0.7751
22555SOL     OW73756   5.762   0.106   5.291  0.5529  0.3150  0.4297
22555SOL    HW173757   5.695   0.078   5.229 -0.7045  1.0079  1.4258
22555SOL    HW273758   5.777   0.029   5.346  0.0228  0.3838  0.6724
22556SOL     OW73759   7.182   7.554   8.851  0.0190  0.0650 -0.3512
22556SOL    HW173760   7.121   7.559   8.778  0.9456 -0.6672 -1.2051
22556SOL    HW273761   7.126   7.555   8.929 -0.9816  0.9335 -1.0499
22557SOL     OW73762   1.735   3.836   6.459  0.1990 -0.2274  0.4414
22557SOL    HW173763   1.674   3.803   6.393 -0.5813  1.2521  0.3602
22557SOL    HW273764   1.678   3.864   6.531  0.8798  0.1014  0.8559
22558SOL     OW73765   8.638   3.630   8.916 -0.4944 -0.1047 -0.2357
22558SOL    HW173766   8.702   3.632   8.987  0.5807 -0.5547 -1.1696
22558SOL    HW273767   8.579   3.558   8.939  1.7008 -2.3935 -1.3201
22559SOL     OW73768   9.158   8.424  10.679 -0.0259  0.2542  0.5069
22559SOL    HW173769   9.074   8.391  10.647  0.0404 -0.1394  0.7264
22559SOL    HW273770   9.198   8.465  10.603  0.1848 -0.7814  0.0406
22560SOL     OW73771   6.206   6.994   5.970  0.3703  0.1927 -0.1620
22560SOL    HW173772   6.279   7.025   6.025  1.4779  0.0354 -1.4901
22560SOL    HW273773   6.211   6.898   5.976  1.3578  0.1194 -1.5403
22561SOL     OW73774  10.064   3.393   5.163  0.3546  0.2540 -0.0836
22561SOL    HW173775  10.098   3.405   5.075 -0.1096  1.1381 -0.1525
22561SOL    HW273776  10.125   3.442   5.219  0.1220  0.4830 -0.0261
22562SOL     OW73777   7.502   1.318   5.842  0.3560  0.0736 -0.1116
22562SOL    HW173778   7.541   1.404   5.856  3.6202 -1.2691 -0.2227
22562SOL    HW273779   7.508   1.274   5.927 -0.1611 -0.4870 -0.3565
22563SOL     OW73780   6.681  10.697  10.876 -0.5839 -0.9458  0.2584
22563SOL    HW173781   6.718  10.743  10.951 -0.2668 -0.1948 -0.3437
22563SOL    HW273782   6.618  10.636  10.914  0.2315 -1.2276  1.1927
22564SOL     OW73783   8.081  10.011  10.302 -0.2373  0.2052  0.3076
22564SOL    HW173784   8.037   9.926  10.310 -1.9861  0.7862 -2.0067
22564SOL    HW273785   8.019  10.074  10.339 -0.5860  0.8158 -1.2185
22565SOL     OW73786   9.565   9.376   8.196  0.2497  0.6463  0.0208
22565SOL    HW173787   9.574   9.320   8.273  2.8295  0.2990 -0.4284
22565SOL    HW273788   9.635   9.347   8.137 -0.7739  1.8285 -1.8637
22566SOL     OW73789   4.574   3.071   6.217 -0.0064  0.2441 -0.0094
22566SOL    HW173790   4.618   3.103   6.296 -2.0776  1.4579  0.7340
22566SOL    HW273791   4.537   2.986   6.242 -0.6619  0.6288  0.3667
22567SOL     OW73792   1.648   2.684   6.774 -0.2735  0.2584  0.5546
22567SOL    HW173793   1.678   2.631   6.848  1.5488 -0.7524 -0.8360
22567SOL    HW273794   1.668   2.774   6.799  0.5989 -0.1013  1.1880
22568SOL     OW73795   9.268   8.335   5.052 -0.0640 -0.4040 -0.4162
22568SOL    HW173796   9.270   8.248   5.093 -0.0576  0.1174  0.7455
22568SOL    HW273797   9.176   8.360   5.054 -0.1605 -0.6519 -1.3695
22569SOL     OW73798   2.986   6.843   3.890 -0.6627 -0.5651  0.2280
22569SOL    HW173799   2.988   6.883   3.977  2.1300 -0.3024  0.1184
22569SOL    HW273800   2.968   6.915   3.830 -0.5959 -0.3734  0.4366
22570SOL     OW73801   9.632   3.599   0.280  0.0796 -0.2157  0.2677
22570SOL    HW173802   9.629   3.688   0.315 -0.5545 -0.7731  1.7107
22570SOL    HW273803   9.720   3.568   0.301 -0.3500 -0.6012  1.5517
22571SOL     OW73804   2.097  10.900   2.422  0.6200  0.3272  0.3498
22571SOL    HW173805   2.174  10.876   2.474 -0.4985  0.9507  2.4214
22571SOL    HW273806   2.076  10.821   2.373  1.3601 -0.5136  1.3350
22572SOL     OW73807   6.787   4.796   9.470  0.1780  0.6540 -0.1444
22572SOL    HW173808   6.879   4.797   9.445 -0.3429 -0.9896 -2.3639
22572SOL    HW273809   6.740   4.767   9.392 -2.3737  2.5096  0.5515
22573SOL     OW73810   7.973   1.569   7.370 -0.5917 -0.6177  0.0303
22573SOL    HW173811   7.890   1.574   7.323  0.1733  0.9293 -1.2619
22573SOL    HW273812   7.996   1.660   7.388  1.3381 -0.9465 -0.5789
22574SOL     OW73813  10.560   9.747   8.522  0.3619  0.2540  0.1977
22574SOL    HW173814  10.543   9.675   8.461 -2.0517  1.9315 -1.2858
22574SOL    HW273815  10.648   9.729   8.555  0.1568 -2.9695 -0.5939
22575SOL     OW73816   3.847   0.173   1.250 -0.8427 -0.8485 -0.0101
22575SOL    HW173817   3.754   0.171   1.271 -0.5852 -1.2556  1.1554
22575SOL    HW273818   3.889   0.209   1.328  0.1634 -2.5045  0.2594
22576SOL     OW73819   0.162   6.282   8.168 -0.0914 -0.3727  0.1623
22576SOL    HW173820   0.082   6.304   8.215 -0.6254 -0.2739 -0.7547
22576SOL    HW273821   0.148   6.191   8.140 -0.4823  0.0692 -1.1453
22577SOL     OW73822   5.699   3.692   2.800 -0.3173 -0.2726  0.0617
22577SOL    HW173823   5.769   3.683   2.735 -0.2415 -2.3295  0.3519
22577SOL    HW273824   5.733   3.646   2.877 -1.3352  0.1550  0.7847
22578SOL     OW73825   6.607   6.580   3.351 -0.0286 -0.7063  0.1407
22578SOL    HW173826   6.618   6.538   3.266 -0.3008  0.1260 -0.3128
22578SOL    HW273827   6.616   6.674   3.334  1.3024 -0.5922  1.2531
22579SOL     OW73828   0.609   2.044   4.572 -0.3753 -0.5752  0.3888
22579SOL    HW173829   0.668   2.050   4.498 -0.4000 -1.8424  0.2438
22579SOL    HW273830   0.529   2.089   4.544 -0.1435 -0.4743 -0.1051
22580SOL     OW73831  10.381   9.986   3.171  0.2300  0.6550 -0.2263
22580SOL    HW173832  10.418  10.062   3.216  0.7613  1.2588 -1.6189
22580SOL    HW273833  10.397  10.003   3.078  1.4918 -1.7382 -0.5295
22581SOL     OW73834   3.620   0.877   2.661  0.3063  0.3529 -0.0593
22581SOL    HW173835   3.539   0.924   2.682 -0.0336 -0.7251  1.1480
22581SOL    HW273836   3.592   0.787   2.649  1.4057 -0.1396  0.9266
22582SOL     OW73837   8.549   1.582   4.271 -0.2574 -0.3675 -0.0967
22582SOL    HW173838   8.591   1.569   4.355 -1.4069  0.1587  0.5814
22582SOL    HW273839   8.522   1.494   4.244  0.9605 -0.6679 -0.3966
22583SOL     OW73840   5.787   9.498   0.824 -0.3942 -0.3895  0.0552
22583SOL    HW173841   5.881   9.518   0.816 -0.5054  1.0757  1.7880
22583SOL    HW273842   5.779   9.453   0.908 -1.2438 -0.5260 -0.0951
22584SOL     OW73843   3.179   2.536  10.091 -0.4001  0.2996 -0.3540
22584SOL    HW173844   3.251   2.593  10.118 -1.2764  1.6771 -0.7742
22584SOL    HW273845   3.186   2.531   9.996 -1.4292  1.3231 -0.5165
22585SOL     OW73846   4.343   7.107   9.895  0.0122  0.9399 -0.5296
22585SOL    HW173847   4.428   7.075   9.863 -0.2398  0.7248 -0.9950
22585SOL    HW273848   4.366   7.181   9.952  0.4785  1.4898 -1.3963
22586SOL     OW73849   1.437   8.264   9.555 -0.2564 -0.1792  0.1697
22586SOL    HW173850   1.354   8.278   9.507 -1.8875 -2.4266  2.1098
22586SOL    HW273851   1.439   8.169   9.571  0.4001  0.3450  4.0325
22587SOL     OW73852   7.012  10.386  10.164 -0.5283  0.2854 -0.0447
22587SOL    HW173853   6.963  10.400  10.245 -0.1045  0.2991  0.2099
22587SOL    HW273854   6.986  10.298  10.135  2.0935 -1.3261  2.0820
22588SOL     OW73855   6.918   5.216  10.147 -0.0024 -0.2193  0.3199
22588SOL    HW173856   6.848   5.223  10.213  0.3049 -0.4827  0.6753
22588SOL    HW273857   6.872   5.226  10.063 -0.7738 -2.1582  0.4367
22589SOL     OW73858   6.670  10.202   6.005  0.2149  0.2415  0.0344
22589SOL    HW173859   6.631  10.117   5.984 -0.8920  0.3878  1.3870
22589SOL    HW273860   6.613  10.265   5.962  0.9246  0.3338 -0.8020
22590SOL     OW73861   6.267   6.353   4.856 -0.7300 -0.0666 -0.4935
22590SOL    HW173862   6.362   6.344   4.848 -0.7814 -1.1238 -0.1278
22590SOL    HW273863   6.244   6.422   4.794  0.4939  1.6780  0.9009
22591SOL     OW73864   6.496   7.955   2.113 -0.8351 -0.2501 -0.6611
22591SOL    HW173865   6.460   7.885   2.168 -1.7645 -0.7594 -1.8830
22591SOL    HW273866   6.481   7.925   2.023  1.5667  0.0670 -1.2559
22592SOL     OW73867   0.419   8.689   6.434 -0.0903 -0.6266  0.3458
22592SOL    HW173868   0.461   8.756   6.488  0.4735  1.1669 -2.1186
22592SOL    HW273869   0.479   8.677   6.360 -2.4488 -0.1886 -1.7604
22593SOL     OW73870   6.355   4.646   9.825 -0.0907  0.0542  0.5174
22593SOL    HW173871   6.369   4.606   9.740  0.0225  0.9707  0.0989
22593SOL    HW273872   6.344   4.739   9.807  0.3419  0.3219  1.5410
22594SOL     OW73873   6.317   1.513   5.081 -0.2163  0.4607 -0.2618
22594SOL    HW173874   6.389   1.501   5.144 -0.1004 -0.4596 -0.5535
22594SOL    HW273875   6.241   1.533   5.136  0.1690  1.0634  0.0742
22595SOL     OW73876   0.549   1.373  10.344  0.1096  0.5082  0.6769
22595SOL    HW173877   0.460   1.375  10.379 -0.9150 -1.7219 -1.5242
22595SOL    HW273878   0.545   1.426  10.265  0.9601  0.9979  0.9475
22596SOL     OW73879   3.292   7.586   4.155 -0.6765 -0.0331 -0.0899
22596SOL    HW173880   3.238   7.661   4.130 -0.0542  0.1918 -0.7507
22596SOL    HW273881   3.304   7.536   4.075  0.7725  0.3438 -0.1368
22597SOL     OW73882   5.753   7.289   6.154 -0.3120 -0.0854  0.5161
22597SOL    HW173883   5.783   7.239   6.230 -2.2575  0.1497  1.4891
22597SOL    HW273884   5.817   7.361   6.146  0.2569 -0.4574  1.5485
22598SOL     OW73885   0.108  10.277   9.018 -0.4731 -0.3800 -0.6012
22598SOL    HW173886   0.098  10.183   9.002 -1.5286 -0.6257  1.1815
22598SOL    HW273887   0.181  10.283   9.080  0.4888  0.1201 -1.7496
22599SOL     OW73888   9.876   8.071   4.229  0.3625 -0.2017 -0.1498
22599SOL    HW173889   9.781   8.065   4.227  0.2884  0.9957 -1.4102
22599SOL    HW273890   9.904   7.989   4.269 -1.3162  1.1365  4.3798
22600SOL     OW73891   3.085   1.729   9.476 -0.0973  0.4334  0.2664
22600SOL    HW173892   3.172   1.695   9.453  0.7711  2.5386  0.2518
22600SOL    HW273893   3.099   1.822   9.494 -2.2919  0.7429  0.6830
22601SOL     OW73894   1.693   3.754  10.061 -0.5452 -0.1230 -0.2462
22601SOL    HW173895   1.625   3.812  10.027  0.6035  0.3656 -1.8182
22601SOL    HW273896   1.651   3.667  10.062 -0.8937 -0.0377 -2.2594
22602SOL     OW73897  10.108   2.101   0.978 -0.0483 -0.3300  0.0832
22602SOL    HW173898  10.129   2.140   1.063 -0.8299 -0.5785  0.3970
22602SOL    HW273899  10.019   2.130   0.959 -0.0449 -0.6421 -0.4382
22603SOL     OW73900   8.849   8.258   5.181  0.3722  0.3172 -0.5156
22603SOL    HW173901   8.895   8.190   5.134  0.7301  1.0954 -1.3131
22603SOL    HW273902   8.776   8.282   5.123  0.7497  1.1986 -0.6449
22604SOL     OW73903  10.809   5.249   7.165  0.1570  0.5490  0.5282
22604SOL    HW173904  10.829   5.157   7.147  1.2932  0.7529  0.6970
22604SOL    HW273905  10.759   5.278   7.089  1.6589  0.3784 -0.5746
22605SOL     OW73906   2.280   7.612   8.043  0.6084 -0.3600 -0.1890
22605SOL    HW173907   2.296   7.668   7.967 -0.2599 -1.1375 -0.9615
22605SOL    HW273908   2.229   7.667   8.102  1.6960  0.4101  0.0649
22606SOL     OW73909   2.189   7.264   2.526 -0.3338  0.2156  0.2591
22606SOL    HW173910   2.112   7.274   2.582 -1.5180 -0.7557 -1.1410
22606SOL    HW273911   2.184   7.337   2.464 -1.5507 -1.2258 -1.4135
22607SOL     OW73912   6.121   8.417   1.008  0.1938  0.0695  0.4753
22607SOL    HW173913   6.144   8.324   1.019  0.9213  0.3286  1.3267
22607SOL    HW273914   6.081   8.441   1.092 -1.5216  0.1116 -0.3323
22608SOL     OW73915  10.717   3.176   8.869 -0.3612 -0.0723 -0.5033
22608SOL    HW173916  10.659   3.234   8.819  0.4729  0.7234 -0.5710
22608SOL    HW273917  10.671   3.092   8.869 -0.2375 -0.2167 -2.9225
22609SOL     OW73918   2.540   7.256   1.663 -0.1346 -0.3535 -0.0894
22609SOL    HW173919   2.574   7.167   1.663 -3.6966 -1.8910 -1.1438
22609SOL    HW273920   2.499   7.266   1.749 -0.3947  0.0036 -0.2522
22610SOL     OW73921   8.163   4.448   5.479  0.2802 -0.4040  0.4164
22610SOL    HW173922   8.106   4.503   5.426 -0.5139 -0.7108  0.9353
22610SOL    HW273923   8.193   4.506   5.550 -2.0018 -1.0512  2.0139
22611SOL     OW73924   0.871   7.342   4.486 -0.1548  0.4338 -0.2571
22611SOL    HW173925   0.945   7.358   4.428 -0.3943 -0.3085 -0.7896
22611SOL    HW273926   0.809   7.412   4.467  1.0095  1.9271  1.2500
22612SOL     OW73927   0.371   2.211   7.571 -0.0742 -0.2404  0.5985
22612SOL    HW173928   0.412   2.293   7.544  0.9001 -0.4661  1.3222
22612SOL    HW273929   0.285   2.212   7.529 -0.2253  1.3161  0.8624
22613SOL     OW73930   2.739   6.896   4.679 -0.1273  0.6546 -0.3483
22613SOL    HW173931   2.800   6.890   4.605 -1.5798  2.0541 -1.7317
22613SOL    HW273932   2.668   6.835   4.657  1.1927 -1.8734  1.8188
22614SOL     OW73933   5.416   2.385   1.650 -0.1419  0.1438 -0.3614
22614SOL    HW173934   5.373   2.318   1.596  0.1271 -0.3549  0.0427
22614SOL    HW273935   5.359   2.462   1.642 -0.3724 -0.0814 -0.9478
22615SOL     OW73936   3.972   7.588   9.035 -0.3659  0.1344  0.5221
22615SOL    HW173937   4.060   7.607   9.067  0.3287  0.8116 -1.6387
22615SOL    HW273938   3.943   7.669   8.993  0.1587 -1.4541 -3.3818
22616SOL     OW73939   3.565   6.594   1.443 -0.1588 -0.3128  1.1819
22616SOL    HW173940   3.501   6.662   1.424 -0.4165 -0.8175  0.2135
22616SOL    HW273941   3.605   6.573   1.359 -0.2176 -1.4853  1.4196
22617SOL     OW73942   3.503   0.149  10.765 -0.0212  0.4555  0.5718
22617SOL    HW173943   3.544   0.207  10.701  1.5797 -0.7299  0.4487
22617SOL    HW273944   3.456   0.208  10.824  0.6530  1.7785 -0.1553
22618SOL     OW73945  10.320   9.047   1.489  0.1062  0.1319 -0.0220
22618SOL    HW173946  10.388   9.114   1.488 -0.4173  0.8544  2.8070
22618SOL    HW273947  10.357   8.976   1.541 -0.3407 -0.6304 -0.7251
22619SOL     OW73948   2.125   5.473   5.128  0.2167 -0.3669  0.3283
22619SOL    HW173949   2.106   5.467   5.034  0.0635 -4.1685  0.4698
22619SOL    HW273950   2.043   5.499   5.168 -0.5221 -1.4912 -0.4000
22620SOL     OW73951   3.496   1.844   8.471 -1.0539 -0.4289 -0.1729
22620SOL    HW173952   3.432   1.809   8.533 -1.0732 -0.3004 -0.1195
22620SOL    HW273953   3.551   1.769   8.449  0.1194 -0.0929  1.4244
22621SOL     OW73954   0.523   8.743   3.419  0.2745  0.1636  0.0473
22621SOL    HW173955   0.612   8.776   3.413 -0.3937  2.1711  0.5785
22621SOL    HW273956   0.519   8.672   3.355  2.1876  0.1241 -0.0823
22622SOL     OW73957   0.954   2.975   4.209  0.4244  0.3253  0.1049
22622SOL    HW173958   0.966   2.893   4.257  1.0629 -0.5887 -1.5558
22622SOL    HW273959   0.981   3.043   4.271  0.8691 -0.7775  1.1642
22623SOL     OW73960   9.854  10.046  10.067  0.1648  0.2420 -0.1027
22623SOL    HW173961   9.761  10.068  10.079 -0.6037 -1.1837 -2.7100
22623SOL    HW273962   9.885  10.109  10.002  1.0868  0.7333  0.7792
22624SOL     OW73963   5.577   9.446  10.579  0.0778  0.0220 -0.0677
22624SOL    HW173964   5.488   9.466  10.552  0.3108  0.7602 -0.3359
22624SOL    HW273965   5.610   9.385  10.513 -0.2342 -0.2584  0.0385
22625SOL     OW73966   5.744   7.512   3.971 -0.8782  0.0674  0.3669
22625SOL    HW173967   5.673   7.466   4.016  0.8738 -2.1365  1.0250
22625SOL    HW273968   5.741   7.478   3.882  0.0112 -0.8735  0.6835
22626SOL     OW73969   6.266   2.444  10.405 -0.1453  0.3887 -0.1519
22626SOL    HW173970   6.213   2.367  10.425  1.2586 -0.5288  0.2006
22626SOL    HW273971   6.211   2.518  10.428 -1.4348 -0.5114 -0.2534
22627SOL     OW73972   4.777   1.014   2.355  0.9906 -0.4174  0.0534
22627SOL    HW173973   4.726   1.070   2.297  2.0325  0.8355  0.3008
22627SOL    HW273974   4.723   1.007   2.434 -0.2639 -1.8291 -0.8725
22628SOL     OW73975   2.384   1.186   1.620 -0.4676 -0.4043  0.0961
22628SOL    HW173976   2.312   1.168   1.680  0.2034  0.1365  1.1057
22628SOL    HW273977   2.357   1.148   1.537 -0.3602 -3.5205  1.3371
22629SOL     OW73978   3.204   7.517   2.150  0.0464  0.1757 -0.7452
22629SOL    HW173979   3.129   7.571   2.176  0.1937  0.1943 -0.3577
22629SOL    HW273980   3.237   7.481   2.232 -1.7275 -2.7741 -1.1528
22630SOL     OW73981   8.516   2.302   1.106  0.4846  0.2229  0.5759
22630SOL    HW173982   8.610   2.315   1.094  0.9049 -1.3801  1.8005
22630SOL    HW273983   8.495   2.228   1.050 -0.4701  1.6844 -1.1018
22631SOL     OW73984   2.522   9.459   8.709 -0.7636 -0.3454 -0.2054
22631SOL    HW173985   2.526   9.366   8.733  0.0139 -0.2616  0.0167
22631SOL    HW273986   2.437   9.469   8.667 -1.1574 -1.0007  0.4242
22632SOL     OW73987   7.238  10.553   0.918  0.1795 -0.4357 -0.1363
22632SOL    HW173988   7.192  10.488   0.970  0.8979 -0.2358  0.7680
22632SOL    HW273989   7.228  10.635   0.967 -0.1750  0.0142 -0.9382
22633SOL     OW73990   4.225   5.921   9.154  0.5510 -0.0983  0.0407
22633SOL    HW173991   4.304   5.869   9.166 -0.0172 -0.6242  1.9386
22633SOL    HW273992   4.245   5.979   9.080  3.5445  1.3161  1.7398
22634SOL     OW73993   4.161   2.032   1.929  0.3584 -0.4027  0.3721
22634SOL    HW173994   4.145   2.067   1.841  0.9194  0.3703  0.5640
22634SOL    HW273995   4.110   1.951   1.932 -1.3730  0.6219  0.0688
22635SOL     OW73996   7.615   8.941   1.880 -0.2908 -0.6873 -0.0249
22635SOL    HW173997   7.563   8.884   1.822 -1.7461  0.5776 -0.0347
22635SOL    HW273998   7.608   8.900   1.966 -1.4371 -0.4731 -0.0036
22636SOL     OW73999   7.757   3.955   1.603 -0.0984 -0.3671  0.3945
22636SOL    HW174000   7.699   3.965   1.679 -0.6258  0.3892 -0.0918
22636SOL    HW274001   7.728   3.873   1.562  0.3305 -0.8914  1.1136
22637SOL     OW74002   1.543   6.637  10.902 -0.0733  0.3170 -0.2437
22637SOL    HW174003   1.532   6.650  10.996  1.8963 -0.0419  0.0802
22637SOL    HW274004   1.620   6.690  10.879 -0.2739  0.0787 -1.5700
22638SOL     OW74005   8.339   8.368   2.162  0.5283 -0.2494 -0.3238
22638SOL    HW174006   8.367   8.298   2.221 -1.5075  0.5160  1.6773
22638SOL    HW274007   8.415   8.425   2.155  0.9599 -0.5923  1.2341
22639SOL     OW74008   3.481   7.035   5.737 -0.3903 -0.6400  0.0312
22639SOL    HW174009   3.516   6.968   5.795  0.0982 -0.2267  0.2169
22639SOL    HW274010   3.558   7.083   5.705 -0.7594  0.1186  0.2503
22640SOL     OW74011   9.831   8.376   5.692  0.2131  0.0589  0.3163
22640SOL    HW174012   9.881   8.340   5.764  1.0766 -1.6439 -1.0590
22640SOL    HW274013   9.858   8.325   5.615 -0.7367  1.7047 -1.2051
22641SOL     OW74014   9.255   3.593   1.323 -0.2693 -0.4730 -0.3771
22641SOL    HW174015   9.275   3.687   1.321  0.4010 -0.6219 -2.7298
22641SOL    HW274016   9.291   3.564   1.407  1.3709  1.0108 -0.4932
22642SOL     OW74017   0.243   8.171   0.885 -0.1284  0.1137  0.5409
22642SOL    HW174018   0.322   8.214   0.852 -0.3846  1.4408  1.6059
22642SOL    HW274019   0.275   8.099   0.939  0.3774  0.8444  1.2286
22643SOL     OW74020   6.006   7.360   9.163  0.1908 -0.0075  0.4259
22643SOL    HW174021   5.993   7.438   9.108  1.2934  0.2300  0.4709
22643SOL    HW274022   5.946   7.295   9.128 -2.1914  1.4287  1.5884
22644SOL     OW74023   3.348   5.194   7.375 -0.1230  0.2796 -0.2720
22644SOL    HW174024   3.305   5.279   7.384  1.1881  0.8217  1.3511
22644SOL    HW274025   3.354   5.160   7.464  2.7760  0.2733 -0.3627
22645SOL     OW74026   4.383   5.040   9.039 -0.1539  0.2032 -0.4340
22645SOL    HW174027   4.362   5.133   9.052 -0.1040  0.2754 -0.8602
22645SOL    HW274028   4.370   5.001   9.125 -0.5231  0.5405 -0.3294
22646SOL     OW74029   9.926   6.144   5.313  0.0787  0.2360  0.5085
22646SOL    HW174030   9.860   6.093   5.266  1.1040 -0.0188 -0.7033
22646SOL    HW274031   9.961   6.083   5.379 -0.3598  0.1431  0.6616
22647SOL     OW74032   8.512   7.903   0.232 -0.3277  0.2308  0.2708
22647SOL    HW174033   8.531   7.830   0.290 -1.6413  0.1041  0.5739
22647SOL    HW274034   8.509   7.864   0.144  1.8012  0.4500  0.0588
22648SOL     OW74035   6.413   6.196   0.238 -0.8353  0.2469  0.1040
22648SOL    HW174036   6.423   6.287   0.211 -2.4180  0.6514  0.7679
22648SOL    HW274037   6.338   6.197   0.298 -0.9697 -1.5202  0.0101
22649SOL     OW74038   0.745   1.070   9.527 -0.4480 -0.5897 -0.3648
22649SOL    HW174039   0.789   0.985   9.525 -0.9178 -0.9229  1.2993
22649SOL    HW274040   0.772   1.113   9.446  1.0982 -1.6830 -0.4859
22650SOL     OW74041   4.250   9.846   5.745 -0.3867 -0.2555 -0.2059
22650SOL    HW174042   4.264   9.934   5.781  0.3349 -0.2971 -0.3586
22650SOL    HW274043   4.170   9.815   5.787  0.1775 -0.1200  0.9967
22651SOL     OW74044   1.912   8.276   0.676 -0.2086 -0.0883 -0.2164
22651SOL    HW174045   1.851   8.282   0.603 -1.0540  0.2506  0.4973
22651SOL    HW274046   1.861   8.304   0.752  0.2257 -1.7555  0.7476
22652SOL     OW74047   3.745   1.908   0.950 -0.2099 -0.1647  0.0281
22652SOL    HW174048   3.678   1.906   0.882  0.0853  0.7387 -0.3046
22652SOL    HW274049   3.744   1.999   0.982  0.7506 -0.1684  0.1135
22653SOL     OW74050   9.224   7.084  10.191 -0.1448  0.1579  0.0342
22653SOL    HW174051   9.272   7.031  10.127 -2.2169 -0.9094 -0.7231
22653SOL    HW274052   9.271   7.072  10.273 -0.3069 -2.5899 -0.2005
22654SOL     OW74053   1.765  10.180  10.357  0.2302 -0.1922  0.2199
22654SOL    HW174054   1.758  10.250  10.421  1.5216  0.3333 -0.1927
22654SOL    HW274055   1.858  10.162  10.349  0.3018  0.9116 -2.6934
22655SOL     OW74056   2.985  10.342   6.136  0.1936 -0.1301  0.3193
22655SOL    HW174057   2.933  10.323   6.058 -1.8366  1.6976  1.1538
22655SOL    HW274058   2.987  10.259   6.184  0.1296 -0.8521 -0.8864
22656SOL     OW74059   2.086   0.369   2.288  0.2339  0.2914  0.1897
22656SOL    HW174060   2.036   0.338   2.363  1.4501  0.9843  1.3271
22656SOL    HW274061   2.051   0.319   2.214  0.3700 -1.9325  1.5157
22657SOL     OW74062  10.557   8.490   3.459 -0.1313 -0.1781 -0.3445
22657SOL    HW174063  10.536   8.399   3.478 -0.4801  0.1397  0.8633
22657SOL    HW274064  10.646   8.503   3.493 -0.0812 -0.0574 -0.5149
22658SOL     OW74065   5.115   9.825   5.497  0.4761 -0.3988  0.4664
22658SOL    HW174066   5.181   9.881   5.539 -0.6716  1.0188  0.4442
22658SOL    HW274067   5.101   9.865   5.411 -0.0368 -1.0017  0.2653
22659SOL     OW74068   3.676   6.533   8.258  0.0983  0.5140 -0.0671
22659SOL    HW174069   3.724   6.450   8.260  2.1924  1.6662  0.1698
22659SOL    HW274070   3.716   6.582   8.186 -0.2934  1.7558  0.5249
22660SOL     OW74071   8.725   9.248   6.503  0.2178  0.0922 -0.2726
22660SOL    HW174072   8.754   9.333   6.471 -0.1940  2.1558  4.0687
22660SOL    HW274073   8.777   9.233   6.582 -1.0109 -2.8718  0.1222
22661SOL     OW74074   9.742   8.074   6.885  0.0581  0.0217 -0.2523
22661SOL    HW174075   9.666   8.111   6.930  0.3937 -0.6470  0.9024
22661SOL    HW274076   9.725   7.980   6.883  0.1793  0.0087 -1.3168
22662SOL     OW74077   7.221   5.854   8.097 -0.0253  0.6926  0.2603
22662SOL    HW174078   7.135   5.895   8.088 -0.8640 -0.5433  1.9617
22662SOL    HW274079   7.240   5.859   8.191  2.0454  1.4219 -0.1430
22663SOL     OW74080   4.821   6.410   4.765 -0.6035 -0.1119  0.1873
22663SOL    HW174081   4.812   6.390   4.672 -1.7121  0.7479  0.0943
22663SOL    HW274082   4.826   6.325   4.807  0.5280 -0.5182 -0.6974
22664SOL     OW74083   1.351   7.678   3.647  0.4578  0.2610  0.1074
22664SOL    HW174084   1.294   7.717   3.713  0.5071  0.6490 -0.0800
22664SOL    HW274085   1.439   7.709   3.669  0.2316  2.1307 -1.3711
22665SOL     OW74086   3.988   6.585   3.259  0.3936  0.8299  0.3352
22665SOL    HW174087   4.034   6.557   3.339 -0.9823 -0.2574  0.8058
22665SOL    HW274088   3.901   6.612   3.290 -0.0578  0.6889 -0.7568
22666SOL     OW74089   2.740   2.566   8.415 -0.5588 -0.1773 -0.0737
22666SOL    HW174090   2.816   2.590   8.361 -0.5344 -0.1505 -0.0271
22666SOL    HW274091   2.727   2.473   8.399 -1.6920  0.1874 -1.5860
22667SOL     OW74092   9.484   9.501   4.275  0.2438  0.0885 -0.2057
22667SOL    HW174093   9.392   9.479   4.264 -0.1209  1.5779 -0.3303
22667SOL    HW274094   9.522   9.488   4.188 -0.0530  0.3805 -0.3782
22668SOL     OW74095   6.847   4.265   8.670  0.3315 -0.2106 -0.7475
22668SOL    HW174096   6.858   4.222   8.754  0.9364  1.6856  0.1963
22668SOL    HW274097   6.885   4.205   8.606 -0.3037 -1.7601  0.2830
22669SOL     OW74098   8.055   9.169   0.938  0.1676  0.3988 -0.1532
22669SOL    HW174099   8.048   9.079   0.969  0.3614 -0.3207 -2.0962
22669SOL    HW274100   8.124   9.207   0.992  1.2970 -1.1389 -0.4547
22670SOL     OW74101   0.330   1.880   1.616 -0.4719 -0.2765 -0.3868
22670SOL    HW174102   0.254   1.857   1.562 -0.1528  0.3607 -1.1313
22670SOL    HW274103   0.353   1.798   1.661 -0.7750 -0.8184 -1.1878
22671SOL     OW74104   9.037   2.090   0.547  0.3852  0.3153  0.1592
22671SOL    HW174105   8.992   2.124   0.625 -0.7040  1.4723 -0.9332
22671SOL    HW274106   8.968   2.082   0.482  1.2334 -0.9116 -0.6272
22672SOL     OW74107   7.453   9.755   3.073 -0.5572 -0.1821  0.0199
22672SOL    HW174108   7.368   9.791   3.047 -0.7680 -1.1553 -0.6973
22672SOL    HW274109   7.464   9.678   3.018 -0.3081 -1.4572  1.7766
22673SOL     OW74110   5.008   9.538   5.815 -0.4286  0.3485 -0.3076
22673SOL    HW174111   5.022   9.446   5.834 -0.8292  0.0936 -1.2057
22673SOL    HW274112   5.096   9.574   5.804 -0.2467  0.2172  0.6538
22674SOL     OW74113   9.926   6.974   8.401  0.0233  0.3707  0.1614
22674SOL    HW174114   9.931   7.051   8.457 -2.2780  0.8252 -0.1475
22674SOL    HW274115   9.905   6.902   8.461  1.8993 -0.0366  0.4101
22675SOL     OW74116  10.256   4.210  10.174 -0.6200  0.1308 -0.4400
22675SOL    HW174117  10.256   4.115  10.190 -0.4183  0.4030  1.5012
22675SOL    HW274118  10.240   4.248  10.261  2.4155  1.9383 -0.5577
22676SOL     OW74119   6.036   3.834   4.287 -0.2924  0.5461 -0.5059
22676SOL    HW174120   6.082   3.764   4.333 -1.0182  0.9460  0.8609
22676SOL    HW274121   5.943   3.811   4.296 -0.4884  1.1299 -0.9850
22677SOL     OW74122   5.337   2.647   5.018 -0.4635  0.4735 -0.3437
22677SOL    HW174123   5.297   2.608   5.096  1.3843  1.3509  1.1152
22677SOL    HW274124   5.374   2.572   4.971  0.1614  0.1089  0.6905
22678SOL     OW74125   7.671   7.277   6.906 -0.0229 -0.3798  0.1479
22678SOL    HW174126   7.749   7.328   6.929  0.4943  0.2623 -2.6821
22678SOL    HW274127   7.601   7.316   6.959  1.0667  0.7994  0.7970
22679SOL     OW74128   1.120   3.431   3.943 -0.1949 -0.4884  0.5178
22679SOL    HW174129   1.094   3.496   3.878 -1.7400 -1.4292  0.1520
22679SOL    HW274130   1.151   3.483   4.018 -0.4513  0.6434 -0.1411
22680SOL     OW74131  10.213   7.770   7.794 -0.0940  0.4602  0.4886
22680SOL    HW174132  10.210   7.717   7.874 -0.3668  0.7552  0.6750
22680SOL    HW274133  10.293   7.821   7.801  1.7691 -2.0435 -1.0560
22681SOL     OW74134   8.560   1.859   9.475 -0.0708 -0.5873  1.1524
22681SOL    HW174135   8.490   1.814   9.427 -0.0120  0.0673  0.4334
22681SOL    HW274136   8.640   1.837   9.427  0.1865 -1.0838  1.7920
22682SOL     OW74137   9.765   0.716   7.595  0.5003  0.2463  0.2594
22682SOL    HW174138   9.674   0.689   7.592  1.2027 -2.3017 -0.1408
22682SOL    HW274139   9.767   0.799   7.546 -1.2784 -0.6339 -1.4141
22683SOL     OW74140   5.781   1.107   9.628  0.1774 -0.0426 -0.6107
22683SOL    HW174141   5.744   1.191   9.655  0.6653 -0.0861  0.2095
22683SOL    HW274142   5.712   1.068   9.573  0.7036  1.7047 -2.6295
22684SOL     OW74143   8.783   7.218   3.024 -0.6169 -0.1818  0.0635
22684SOL    HW174144   8.799   7.159   3.098 -0.7095  0.0963  0.3047
22684SOL    HW274145   8.728   7.166   2.964  0.3291 -0.7893 -0.3147
22685SOL     OW74146   3.953   1.656   7.327 -0.3827 -0.2167 -0.0926
22685SOL    HW174147   4.031   1.614   7.291 -0.2640 -1.3109  1.3429
22685SOL    HW274148   3.887   1.586   7.328 -1.6779  0.8699 -1.9897
22686SOL     OW74149   3.155   7.355   0.175 -0.1865  0.2803  0.5648
22686SOL    HW174150   3.158   7.431   0.233 -0.1428  0.1908  0.6831
22686SOL    HW274151   3.073   7.363   0.128  0.8108  1.5636 -1.0406
22687SOL     OW74152   0.314   7.274   7.872  0.1287  0.5214 -0.4668
22687SOL    HW174153   0.376   7.203   7.859 -0.5838 -0.3004  0.5467
22687SOL    HW274154   0.281   7.263   7.961 -1.5237  0.8845 -0.9876
22688SOL     OW74155   4.294   8.304   6.525  0.2111 -0.6476  0.0557
22688SOL    HW174156   4.237   8.229   6.541  0.1746 -0.7227 -0.4076
22688SOL    HW274157   4.279   8.326   6.433  1.1275 -0.8440 -0.1517
22689SOL     OW74158   7.735   1.787   5.749  0.3234 -0.3286  0.2533
22689SOL    HW174159   7.774   1.710   5.709  1.3330  0.5245 -0.4514
22689SOL    HW274160   7.652   1.800   5.702 -0.2190 -1.3870  0.8772
22690SOL     OW74161   4.922   6.899   9.221 -0.3851  0.2473 -0.3831
22690SOL    HW174162   4.974   6.829   9.261 -2.3358 -0.1217  1.7489
22690SOL    HW274163   4.959   6.980   9.256 -0.1438  0.0781 -0.2484
22691SOL     OW74164   3.409   4.048   2.134  0.2429 -0.0179 -0.1817
22691SOL    HW174165   3.387   3.965   2.092  0.2466  0.1990 -0.6095
22691SOL    HW274166   3.361   4.114   2.085 -0.1287  0.1902  0.4476
22692SOL     OW74167   1.259   7.951   4.180 -0.1968  0.3172 -0.3315
22692SOL    HW174168   1.338   7.959   4.233 -1.6619  1.3855  1.8198
22692SOL    HW274169   1.274   8.011   4.106  1.1115  0.2514 -0.1401
22693SOL     OW74170   8.837   0.757   3.179 -0.7120  0.2483  0.1592
22693SOL    HW174171   8.901   0.749   3.249 -1.0856 -1.1096  0.3803
22693SOL    HW274172   8.888   0.777   3.101 -0.2855  1.6967  0.7740
22694SOL     OW74173   2.666   6.208   3.082  0.5813  0.0940 -0.2147
22694SOL    HW174174   2.753   6.181   3.110  0.0783  0.0148  1.4168
22694SOL    HW274175   2.644   6.281   3.141 -1.0446 -0.8798  0.4658
22695SOL     OW74176   4.940   6.861   1.221  0.1856  0.1167  0.1076
22695SOL    HW174177   5.006   6.836   1.156 -0.8370 -0.4896 -0.7370
22695SOL    HW274178   4.929   6.956   1.210  0.2363  0.0629 -0.4092
22696SOL     OW74179   1.947   2.336   2.261  0.1088  0.2304 -0.1089
22696SOL    HW174180   1.912   2.310   2.176  0.1648  2.4012 -0.8553
22696SOL    HW274181   2.030   2.287   2.268 -0.3160 -0.6371 -0.8734
22697SOL     OW74182   5.193   0.772   1.350 -0.6238  0.8709 -0.1280
22697SOL    HW174183   5.214   0.697   1.296 -2.1446 -1.0022  1.7194
22697SOL    HW274184   5.213   0.744   1.440  0.6747  3.4074  0.4812
22698SOL     OW74185   4.056   1.282   6.732  0.8192  0.1656  0.0381
22698SOL    HW174186   3.966   1.299   6.758  0.9756 -0.5855  1.1524
22698SOL    HW274187   4.053   1.277   6.636 -0.2188  0.6520  0.0323
22699SOL     OW74188   5.571   4.874   4.405  0.6595 -0.0453 -0.0182
22699SOL    HW174189   5.584   4.930   4.329 -2.2403  1.0816  0.1729
22699SOL    HW274190   5.507   4.921   4.459  0.4055 -2.1445  1.6621
22700SOL     OW74191   9.632   1.251   1.611  0.1879  0.0499 -0.9073
22700SOL    HW174192   9.605   1.317   1.675 -0.4376 -1.2942  0.2535
22700SOL    HW274193   9.565   1.256   1.542  1.5350  2.3655 -2.1691
22701SOL     OW74194   6.677   6.813   6.184  0.0159 -0.2476  0.4056
22701SOL    HW174195   6.674   6.729   6.138 -0.6167 -0.1535  0.2683
22701SOL    HW274196   6.654   6.878   6.118 -2.2296 -0.2394  1.1347
22702SOL     OW74197   0.872   2.528   0.231 -0.1501 -0.2949 -0.1416
22702SOL    HW174198   0.820   2.513   0.309 -0.6341  0.3921 -0.3168
22702SOL    HW274199   0.807   2.547   0.163  0.3449  1.6869 -0.1156
22703SOL     OW74200   9.269  10.918  10.849  0.3578 -0.4845  0.2962
22703SOL    HW174201   9.347  10.949  10.802  0.3272 -0.3465  0.3370
22703SOL    HW274202   9.201  10.915  10.782 -0.1517  1.4116  0.6756
22704SOL     OW74203   8.219  10.542   8.156 -0.7696  0.7261 -0.5438
22704SOL    HW174204   8.138  10.496   8.177 -0.1808  0.0809  0.4363
22704SOL    HW274205   8.263  10.552   8.240  1.5946 -1.7283 -1.3288
22705SOL     OW74206  10.602  10.056   0.562  0.3848 -0.1690  0.5241
22705SOL    HW174207  10.508  10.042   0.574  0.3161 -0.6841 -0.4944
22705SOL    HW274208  10.640   9.969   0.574  0.6135 -0.1575 -0.1038
22706SOL     OW74209   7.253   7.392   7.780 -0.2927 -0.6214 -0.4598
22706SOL    HW174210   7.301   7.335   7.719 -0.3342 -2.0159  0.7632
22706SOL    HW274211   7.320   7.453   7.813 -0.1586 -0.1958 -1.4743
22707SOL     OW74212   7.656   6.230   3.390  0.3101 -0.1362 -0.4212
22707SOL    HW174213   7.579   6.180   3.361  0.5571 -0.6836 -0.1439
22707SOL    HW274214   7.659   6.216   3.484 -0.6588  1.8704 -0.0273
22708SOL     OW74215   2.449   8.024   4.616 -0.2631  0.5260  0.3626
22708SOL    HW174216   2.517   8.042   4.551 -1.4655  0.6708 -0.9280
22708SOL    HW274217   2.489   7.962   4.677 -0.0381 -2.3174 -2.3955
22709SOL     OW74218   9.283   0.345   1.580 -0.0178  0.4556 -0.0729
22709SOL    HW174219   9.255   0.320   1.668 -0.3821  0.8577 -0.0710
22709SOL    HW274220   9.370   0.382   1.593 -0.9306  2.5548  0.4503
22710SOL     OW74221   9.427   9.957   8.156  0.2322  0.0290 -0.1721
22710SOL    HW174222   9.429   9.874   8.107  0.8729  0.2576 -0.5378
22710SOL    HW274223   9.365  10.011   8.107  1.2499  0.4359 -1.0347
22711SOL     OW74224   2.857   1.977   3.151 -0.1675  0.1890 -0.1581
22711SOL    HW174225   2.815   2.019   3.076 -0.8217 -0.1677 -0.0065
22711SOL    HW274226   2.932   2.032   3.171 -0.2792  0.5691 -0.7578
22712SOL     OW74227  10.451   8.028  10.651 -0.4758 -0.0063  0.1193
22712SOL    HW174228  10.485   8.089  10.585 -1.1531  2.5374  1.9835
22712SOL    HW274229  10.530   7.987  10.688  0.0824  0.5278 -0.4454
22713SOL     OW74230  10.282   9.942  10.495 -0.9711 -0.1811 -0.7281
22713SOL    HW174231  10.261   9.852  10.474 -0.7202 -0.7408  1.2051
22713SOL    HW274232  10.237   9.959  10.578  1.9257  0.2267  0.8928
22714SOL     OW74233   5.027   7.453   2.660  0.2726 -0.5340 -0.0108
22714SOL    HW174234   5.002   7.518   2.595  0.3764 -1.3786 -0.9029
22714SOL    HW274235   5.006   7.495   2.744  1.0216  0.9428 -0.5258
22715SOL     OW74236   8.915   6.781   1.362 -0.2625  0.2231  0.0589
22715SOL    HW174237   8.892   6.698   1.320  0.3282 -1.8568  3.4907
22715SOL    HW274238   9.004   6.767   1.394 -0.1079  2.2648  0.6364
22716SOL     OW74239   4.252   7.781   0.953  0.4134 -0.5513 -0.3712
22716SOL    HW174240   4.324   7.722   0.931  1.6057 -0.2246  2.2883
22716SOL    HW274241   4.186   7.724   0.993  1.1475 -0.3018  1.2851
22717SOL     OW74242   7.851   6.041   5.617  0.3210 -0.1789 -0.3457
22717SOL    HW174243   7.834   5.965   5.671 -0.9292  0.2643 -0.0891
22717SOL    HW274244   7.834   6.116   5.674 -0.0974  0.2940 -1.0677
22718SOL     OW74245   1.903   4.824   5.117  0.0988  0.0644  0.2516
22718SOL    HW174246   1.828   4.778   5.155 -0.0833  0.3049  0.1893
22718SOL    HW274247   1.975   4.807   5.178 -0.1693  0.3826  0.6711
22719SOL     OW74248   0.073   8.013   0.726  0.3228 -0.7824 -0.2269
22719SOL    HW174249   0.134   8.055   0.786  0.3181 -0.8768 -0.1550
22719SOL    HW274250   0.122   8.007   0.643  0.2202 -0.3767 -0.3192
22720SOL     OW74251   1.265   2.585   2.477 -0.5094  0.2843  0.4731
22720SOL    HW174252   1.297   2.673   2.458  0.4843 -0.4495 -1.6452
22720SOL    HW274253   1.320   2.554   2.548  0.6306  0.6219 -0.2315
22721SOL     OW74254   4.086   4.976   7.124  0.0910 -0.4216  0.1864
22721SOL    HW174255   4.005   4.941   7.161 -1.7955 -0.3408 -3.4153
22721SOL    HW274256   4.063   5.064   7.097  1.0340 -0.7324 -1.7788
22722SOL     OW74257   5.099   9.430  10.586 -0.9398 -0.4496  0.1504
22722SOL    HW174258   5.100   9.522  10.615 -0.3127 -0.7883  1.2588
22722SOL    HW274259   5.016   9.396  10.618 -1.1237 -0.2949 -0.1650
22723SOL     OW74260  10.555   5.309   8.079 -0.2080  0.7079  0.3389
22723SOL    HW174261  10.462   5.317   8.058 -0.3669 -0.1738  0.6695
22723SOL    HW274262  10.567   5.217   8.102  1.0391  0.4760 -1.0734
22724SOL     OW74263   7.522   1.893   1.820 -0.6025  0.1060 -0.3825
22724SOL    HW174264   7.543   1.824   1.757  1.1104 -0.3886  0.6591
22724SOL    HW274265   7.605   1.913   1.863 -1.2563  2.1004  0.0942
22725SOL     OW74266   8.923   1.945   6.305  0.0948 -0.4645 -0.1329
22725SOL    HW174267   8.920   1.901   6.220  0.7996  1.0371 -0.9716
22725SOL    HW274268   8.858   2.014   6.299  0.6880  0.1408  0.2562
22726SOL     OW74269   6.753   3.480   6.993 -0.2519  0.0344 -0.0043
22726SOL    HW174270   6.810   3.479   6.916  0.6034 -1.3147  0.5971
22726SOL    HW274271   6.808   3.446   7.064 -1.4050 -0.0161  0.9053
22727SOL     OW74272   3.012   5.906   1.939  0.4301 -0.0671 -0.0688
22727SOL    HW174273   3.007   5.940   1.849 -0.6472 -0.7790 -0.3024
22727SOL    HW274274   3.065   5.826   1.931 -0.8739 -0.9352 -0.3593
22728SOL     OW74275   0.887   5.963   7.687  0.1364 -0.1556  0.0878
22728SOL    HW174276   0.915   5.879   7.723  0.7418 -0.8154 -1.8037
22728SOL    HW274277   0.891   5.951   7.592 -3.7283  0.6738 -0.3398
22729SOL     OW74278  10.653   5.065   8.200  0.0821 -0.3332 -0.0546
22729SOL    HW174279  10.744   5.057   8.172  0.3726 -0.7884  0.9780
22729SOL    HW274280  10.657   5.116   8.281 -0.6501  0.1835 -0.3298
22730SOL     OW74281   1.441  10.274   8.923 -0.5953  0.5826 -0.1665
22730SOL    HW174282   1.466  10.189   8.887  1.5763  1.2455 -0.3280
22730SOL    HW274283   1.415  10.254   9.014 -2.6401 -0.5676 -0.9298
22731SOL     OW74284   6.560   5.667   2.735 -0.2992  0.8076 -0.0609
22731SOL    HW174285   6.605   5.720   2.669  0.5094  1.1465  0.7440
22731SOL    HW274286   6.589   5.703   2.818  1.0742 -1.5049  0.5524
22732SOL     OW74287   4.057   7.769   0.411 -0.0348  0.2958 -0.5778
22732SOL    HW174288   4.110   7.692   0.429  1.0466  1.0268 -0.5294
22732SOL    HW274289   4.010   7.786   0.493 -2.5540 -1.9589 -1.4225
22733SOL     OW74290   3.751   6.220   1.837  0.1321 -0.5670 -0.3645
22733SOL    HW174291   3.666   6.257   1.812  0.6178  0.1461 -1.0347
22733SOL    HW274292   3.813   6.291   1.819  0.9251 -1.2626 -0.3910
22734SOL     OW74293   9.479   9.376   0.754 -0.4483  0.0794  0.0226
22734SOL    HW174294   9.398   9.426   0.763 -1.2210 -1.1628  0.2591
22734SOL    HW274295   9.450   9.290   0.725  0.6889 -0.7044  1.1341
22735SOL     OW74296   4.525   0.492   5.862 -0.6311 -0.0466 -0.0184
22735SOL    HW174297   4.475   0.456   5.788 -1.0490 -0.4689  0.4642
22735SOL    HW274298   4.472   0.566   5.892 -0.5352  0.0306 -0.0363
22736SOL     OW74299  10.339   7.300   6.903 -0.1562  0.6955  0.0539
22736SOL    HW174300  10.275   7.285   6.972 -0.0021 -0.8495 -0.1048
22736SOL    HW274301  10.416   7.335   6.948 -0.8860  2.0351  0.3160
22737SOL     OW74302   6.718   4.418   6.204  0.6998  0.4846 -0.4698
22737SOL    HW174303   6.629   4.406   6.169  1.5285 -0.9950 -2.2445
22737SOL    HW274304   6.736   4.511   6.190 -0.5718  0.8188 -0.0433
22738SOL     OW74305   7.689  10.655   5.343  0.2070 -0.3144  0.3736
22738SOL    HW174306   7.660  10.741   5.314  1.2648 -0.5685 -1.6621
22738SOL    HW274307   7.617  10.596   5.320  0.4600 -0.3013 -0.4889
22739SOL     OW74308   0.573   8.925   2.151  0.5088 -0.5410  0.0287
22739SOL    HW174309   0.588   8.847   2.098 -0.5737 -0.7036 -0.0586
22739SOL    HW274310   0.565   8.996   2.087 -0.1606 -0.6337  0.0047
22740SOL     OW74311   2.030   9.167   2.534 -0.0239  0.0958  0.0162
22740SOL    HW174312   2.039   9.121   2.451  1.0633 -1.2936  0.8583
22740SOL    HW274313   1.947   9.137   2.570  1.3453 -2.4876  1.2463
22741SOL     OW74314   9.576   1.076   7.066  0.1821 -0.0657 -0.1027
22741SOL    HW174315   9.590   0.982   7.057  0.5390 -0.0736  0.4910
22741SOL    HW274316   9.654   1.108   7.112 -0.0897  0.4609  0.0000
22742SOL     OW74317   2.572   6.014   2.730  0.4983  0.2914 -0.0714
22742SOL    HW174318   2.523   6.015   2.648 -2.0155 -0.0919  1.3303
22742SOL    HW274319   2.577   6.106   2.757 -1.0322  0.2104  0.6020
22743SOL     OW74320   6.081   0.376   1.130  0.0471 -0.1414  0.8091
22743SOL    HW174321   6.091   0.361   1.224  1.2708 -0.2121  0.6749
22743SOL    HW274322   6.124   0.460   1.114  1.3145 -0.9077  0.0507
22744SOL     OW74323   8.867   1.824   6.052 -0.3189 -0.0593  0.0077
22744SOL    HW174324   8.931   1.753   6.057 -0.5003 -0.1742  0.9309
22744SOL    HW274325   8.868   1.852   5.961  1.6135  0.4647  0.1414
22745SOL     OW74326   2.517   3.542   6.408 -0.1313 -0.6642  0.0181
22745SOL    HW174327   2.534   3.573   6.319 -0.3341 -0.4646  0.0490
22745SOL    HW274328   2.427   3.569   6.426 -0.0527 -0.6095  0.3247
22746SOL     OW74329   2.013   7.073   2.311  0.0002 -0.2702  0.0194
22746SOL    HW174330   2.015   7.090   2.405  0.9089  0.6007 -0.1349
22746SOL    HW274331   2.091   7.118   2.277 -1.3270  1.0984 -1.4112
22747SOL     OW74332   5.784   1.149   3.697 -0.3539  0.4815  0.1182
22747SOL    HW174333   5.816   1.231   3.662 -0.4418  0.2706 -0.4698
22747SOL    HW274334   5.862   1.095   3.709 -0.4680 -0.1163 -1.5312
22748SOL     OW74335   7.220   2.964   3.943 -0.3044  0.4276  0.0680
22748SOL    HW174336   7.315   2.979   3.941 -0.3152  0.4524 -0.5305
22748SOL    HW274337   7.189   2.998   3.859 -0.3715 -2.6273 -1.2756
22749SOL     OW74338   1.869   2.165   4.137  0.0388 -0.0502 -0.1514
22749SOL    HW174339   1.911   2.216   4.207 -1.0557 -0.7297  1.0566
22749SOL    HW274340   1.917   2.083   4.134  0.0664 -0.0331 -0.1746
22750SOL     OW74341   3.739   9.341  10.892  0.4905 -0.0660  0.3207
22750SOL    HW174342   3.723   9.377  10.980 -0.7154  0.0371  0.0716
22750SOL    HW274343   3.704   9.407  10.832  3.0229  0.7988 -0.3670
22751SOL     OW74344   9.412   7.601  10.855 -0.0131 -0.0541 -0.1681
22751SOL    HW174345   9.336   7.588  10.910  1.1583 -0.4489  1.4305
22751SOL    HW274346   9.462   7.520  10.861  0.9032  0.4493 -0.5887
22752SOL     OW74347   4.352  10.066   0.036 -0.1142  0.2592 -0.3303
22752SOL    HW174348   4.390  10.062   0.124  0.8357  1.7075 -0.6355
22752SOL    HW274349   4.416  10.116  -0.015 -1.8621  1.7344 -1.1714
22753SOL     OW74350   8.806   3.754   8.022 -0.0323  0.2800  0.3809
22753SOL    HW174351   8.754   3.683   8.059 -1.0318  0.0939 -1.2863
22753SOL    HW274352   8.896   3.725   8.031 -0.3758 -0.7440  0.6556
22754SOL     OW74353   3.901  10.072   0.100  0.3230 -0.2184 -0.1207
22754SOL    HW174354   3.983  10.030   0.126  0.2398  0.4566  1.2999
22754SOL    HW274355   3.925  10.163   0.081 -0.0153 -0.1358 -0.1550
22755SOL     OW74356   7.275   9.513   8.808 -0.0581  0.2973  0.7653
22755SOL    HW174357   7.182   9.494   8.799  0.6307 -2.6152 -1.3402
22755SOL    HW274358   7.284   9.603   8.776 -1.9141  0.0243 -0.6827
22756SOL     OW74359   5.128  10.499   1.185 -0.2375 -0.6246  0.1517
22756SOL    HW174360   5.039  10.530   1.167 -0.2771  1.0431  2.8165
22756SOL    HW274361   5.123  10.460   1.272  1.8908  0.8367  1.0078
22757SOL     OW74362   1.717   2.485   6.341  0.5469  0.3981  0.0202
22757SOL    HW174363   1.646   2.449   6.287 -1.7150  2.2425  1.5376
22757SOL    HW274364   1.749   2.410   6.392 -2.2186 -0.1253  1.2224
22758SOL     OW74365   6.565   5.328   9.675 -0.4210  0.4998 -0.1075
22758SOL    HW174366   6.527   5.268   9.611  0.1456 -1.7333  1.5267
22758SOL    HW274367   6.643   5.364   9.632  0.1332 -1.2042 -0.5765
22759SOL     OW74368   3.080  10.045   4.976  0.2710  0.3119 -0.1623
22759SOL    HW174369   3.058  10.063   5.067 -0.1431  1.2108 -0.4386
22759SOL    HW274370   3.100  10.130   4.938 -1.3541  0.1963 -1.3890
22760SOL     OW74371   7.163   5.135  10.284  0.1485  0.0573  0.1902
22760SOL    HW174372   7.218   5.123  10.206 -1.6101  0.0234 -1.0998
22760SOL    HW274373   7.074   5.136  10.250 -0.8076 -1.8952  2.4176
22761SOL     OW74374   1.153   9.489   2.930  0.2955 -0.5006 -0.3212
22761SOL    HW174375   1.153   9.513   2.837  1.3691 -2.1515 -0.7774
22761SOL    HW274376   1.216   9.550   2.970  1.4279 -1.1374 -1.0821
22762SOL     OW74377   2.663   3.980   0.239 -0.7437 -0.1681  0.6818
22762SOL    HW174378   2.626   4.039   0.304 -0.1850 -1.4956  2.2796
22762SOL    HW274379   2.735   3.936   0.285  2.0924  1.3784 -1.8837
22763SOL     OW74380   8.075   0.580   2.862  1.1222  0.3328  0.1061
22763SOL    HW174381   8.065   0.612   2.951 -1.0092  1.4974 -0.4815
22763SOL    HW274382   8.076   0.485   2.870  1.9081  0.4324  1.4269
22764SOL     OW74383   4.008   3.055   5.547  0.4299  0.4578 -0.1185
22764SOL    HW174384   4.070   3.013   5.486 -0.7388 -0.3667 -0.7656
22764SOL    HW274385   3.960   3.117   5.492 -1.8582 -1.5425 -0.4917
22765SOL     OW74386   9.327   4.477   8.093 -0.0671  0.2334  0.3938
22765SOL    HW174387   9.380   4.512   8.165  1.9120 -0.0328 -0.8501
22765SOL    HW274388   9.328   4.546   8.026  0.1358 -0.4423 -0.3157
22766SOL     OW74389   2.537   8.509   8.587 -0.0876  0.1114  0.2441
22766SOL    HW174390   2.489   8.427   8.598 -0.0238 -0.4156 -2.7701
22766SOL    HW274391   2.471   8.572   8.557  0.3971  0.3954 -0.2533
22767SOL     OW74392   7.253   0.366   9.133 -0.3613  0.2535  0.3470
22767SOL    HW174393   7.334   0.316   9.134 -0.2384  0.4446 -0.0173
22767SOL    HW274394   7.202   0.330   9.206  0.7208  1.2490  1.6361
22768SOL     OW74395   0.806   4.675   5.728  0.1392 -0.1891  0.0433
22768SOL    HW174396   0.749   4.608   5.766  0.0035  0.5287  1.1554
22768SOL    HW274397   0.750   4.753   5.722  0.9273  0.4701  0.9594
22769SOL     OW74398   4.958   3.921   6.696  0.0067  0.0189  0.0567
22769SOL    HW174399   4.893   3.991   6.687 -1.4095 -0.9232  2.1605
22769SOL    HW274400   4.920   3.861   6.760  1.2164 -2.6767 -1.5917
22770SOL     OW74401   0.325   6.212   1.803 -0.7246  0.2772  0.2528
22770SOL    HW174402   0.345   6.304   1.785  0.4456 -0.1417 -0.7106
22770SOL    HW274403   0.236   6.200   1.770 -1.0253  1.1426  0.7082
22771SOL     OW74404   8.192  10.661   4.040  0.4349 -0.5215  0.3346
22771SOL    HW174405   8.099  10.680   4.031  0.8757  1.3994 -0.7267
22771SOL    HW274406   8.226  10.732   4.095  1.2872 -1.1608  0.6526
22772SOL     OW74407   9.808   4.405   7.342  0.0145  0.0209  0.4427
22772SOL    HW174408   9.880   4.437   7.287 -0.6212 -0.6874 -0.8489
22772SOL    HW274409   9.807   4.464   7.417  1.1727  0.7738 -0.1056
22773SOL     OW74410   8.409   7.683   7.123  0.2569 -0.3666 -0.5356
22773SOL    HW174411   8.444   7.772   7.130  0.6457 -0.5671  0.2227
22773SOL    HW274412   8.482   7.627   7.149  0.2317 -0.9455 -1.6903
22774SOL     OW74413   1.303   8.127  10.607  0.0515  0.0564  0.3006
22774SOL    HW174414   1.257   8.057  10.560 -0.9556  1.1852 -0.4422
22774SOL    HW274415   1.268   8.208  10.571 -0.1297  0.9868  2.3964
22775SOL     OW74416   9.639   0.520   4.195  0.5640 -0.0366  0.7717
22775SOL    HW174417   9.570   0.548   4.255  0.1034  1.3418 -0.3671
22775SOL    HW274418   9.593   0.494   4.116  1.0063 -3.5506  1.4887
22776SOL     OW74419   1.160   7.973   5.880 -0.0759  0.5399 -0.1258
22776SOL    HW174420   1.065   7.990   5.883  0.0173  1.0298  0.2055
22776SOL    HW274421   1.174   7.927   5.797 -1.0609 -2.3701  1.1872
22777SOL     OW74422  10.757   1.793   2.830 -1.3626  0.5897  0.0260
22777SOL    HW174423  10.809   1.715   2.848 -0.0881  1.1634 -1.0155
22777SOL    HW274424  10.775   1.851   2.904 -2.0610  0.0481  0.6384
22778SOL     OW74425   3.083   7.146   2.902  0.1112  0.0047  0.8148
22778SOL    HW174426   3.176   7.155   2.921  0.2112  0.0959  0.2780
22778SOL    HW274427   3.045   7.230   2.928  0.1633 -0.0565  1.0963
22779SOL     OW74428  10.676   7.112   0.209 -0.0077  0.4728  0.1248
22779SOL    HW174429  10.741   7.135   0.276 -0.5421 -0.2204  0.9052
22779SOL    HW274430  10.683   7.016   0.201 -2.1981  0.0976  1.6251
22780SOL     OW74431   6.583   4.769   7.472  0.0478 -0.2597 -0.5095
22780SOL    HW174432   6.622   4.843   7.518  1.5165 -0.9704 -0.5696
22780SOL    HW274433   6.614   4.777   7.382 -1.2293  0.0216 -0.9489
22781SOL     OW74434   9.096   4.115   9.102 -0.0894  0.0843 -0.2896
22781SOL    HW174435   9.164   4.048   9.111  1.8880  1.8830 -0.8367
22781SOL    HW274436   9.060   4.100   9.014  0.4992 -0.1431 -0.5028
22782SOL     OW74437   8.105   3.043   1.499  0.2183  0.1338  0.6845
22782SOL    HW174438   8.061   3.128   1.499  0.8627  0.4781 -0.1444
22782SOL    HW274439   8.070   2.998   1.576 -0.3990  1.0073  0.9278
22783SOL     OW74440   6.024   7.868  10.812 -0.1336  0.1746 -0.0562
22783SOL    HW174441   6.002   7.930  10.882 -3.0623 -0.8594  0.0736
22783SOL    HW274442   6.113   7.839  10.833 -0.8195  0.0549  3.1487
22784SOL     OW74443   5.963   6.350   9.307  0.1269 -0.4046  0.3451
22784SOL    HW174444   5.993   6.342   9.397  1.7521 -1.6453 -0.2540
22784SOL    HW274445   5.988   6.439   9.281 -1.3638  0.3635  1.4228
22785SOL     OW74446   6.846   4.615   5.018 -0.3545  0.5632  0.2587
22785SOL    HW174447   6.850   4.711   5.019  1.1977  0.5552  2.1756
22785SOL    HW274448   6.794   4.593   5.096 -1.1808 -0.1633 -0.4826
22786SOL     OW74449   5.343  10.334   4.841 -0.4485 -0.6080 -0.3452
22786SOL    HW174450   5.273  10.400   4.836  0.7921  0.8026  0.1304
22786SOL    HW274451   5.328  10.289   4.924 -1.7413 -1.4787 -1.0124
22787SOL     OW74452   2.232   3.518   9.720 -0.2045 -0.2786  0.0501
22787SOL    HW174453   2.144   3.480   9.710 -1.2239  2.0936 -0.8888
22787SOL    HW274454   2.236   3.546   9.811 -0.9019  0.6169 -0.1803
22788SOL     OW74455  10.670   9.984   3.373  0.6289  0.1040 -0.2586
22788SOL    HW174456  10.686   9.904   3.324  1.9519  0.2499 -0.1129
22788SOL    HW274457  10.648   9.955   3.461 -1.3861 -0.1479 -0.8105
22789SOL     OW74458   3.981   3.841   8.468  0.6981  0.4556  0.2637
22789SOL    HW174459   3.974   3.788   8.389  0.3616  0.4761  0.2778
22789SOL    HW274460   3.950   3.928   8.441 -0.0989  0.2781  0.6015
22790SOL     OW74461   2.921   6.801   5.082  0.6366 -0.0556  0.1971
22790SOL    HW174462   2.999   6.840   5.120  0.1223 -0.6347  1.9365
22790SOL    HW274463   2.865   6.781   5.157 -0.5787 -0.9357 -0.9003
22791SOL     OW74464   1.798   8.489   1.488  0.5006  0.1325  0.1046
22791SOL    HW174465   1.767   8.437   1.415  1.8261  0.3613 -0.6611
22791SOL    HW274466   1.754   8.452   1.565 -2.5072  1.1724 -0.9715
22792SOL     OW74467   8.082   2.592   5.422  0.6514  0.0465  0.4341
22792SOL    HW174468   8.006   2.553   5.379  1.1517 -0.5065  0.0394
22792SOL    HW274469   8.119   2.651   5.356  0.8524 -0.0581  0.4533
22793SOL     OW74470   2.846   2.216  10.303 -0.6652  0.5467 -0.5077
22793SOL    HW174471   2.851   2.219  10.399  0.2219  0.1818 -0.5329
22793SOL    HW274472   2.926   2.171  10.277 -0.3948  1.5654 -1.4757
22794SOL     OW74473  10.714   7.940  10.719 -0.0166  0.2438 -0.5033
22794SOL    HW174474  10.764   7.861  10.698 -0.0056  0.6242 -2.0119
22794SOL    HW274475  10.731   7.955  10.812 -0.1125 -1.5827 -0.1518
22795SOL     OW74476   3.700   3.158   7.770 -0.1348  0.1835  0.3012
22795SOL    HW174477   3.757   3.137   7.696  1.1693  1.2211  0.9531
22795SOL    HW274478   3.624   3.101   7.760  0.8416 -0.9685 -0.8335
22796SOL     OW74479   6.539   0.391   7.965  0.1079  0.5135 -0.2617
22796SOL    HW174480   6.455   0.360   7.932 -0.0193 -0.4815  0.9305
22796SOL    HW274481   6.546   0.481   7.933 -1.5484  0.7148 -0.1222
22797SOL     OW74482   2.374   8.593   3.958 -0.4731 -0.3300  0.5110
22797SOL    HW174483   2.297   8.557   3.914 -1.3597  0.8367  1.0617
22797SOL    HW274484   2.340   8.629   4.040  0.4695  1.1268  0.2993
22798SOL     OW74485   9.039   8.941   8.549 -0.6325 -0.3463 -0.1255
22798SOL    HW174486   8.988   8.862   8.563 -0.0907 -0.7495 -0.3829
22798SOL    HW274487   9.055   8.976   8.637 -0.8612 -0.5303 -0.0126
22799SOL     OW74488   5.836   6.537   9.717  0.7634  0.2454 -0.6964
22799SOL    HW174489   5.822   6.442   9.723  0.3508  0.3327 -0.2232
22799SOL    HW274490   5.927   6.550   9.741  0.1458  0.2187  1.9069
22800SOL     OW74491   3.868  10.860   8.168 -0.7192  0.1521  0.6482
22800SOL    HW174492   3.853  10.902   8.253  0.9584  1.8636  0.1811
22800SOL    HW274493   3.851  10.929   8.104  2.0946  0.2167 -0.1661
22801SOL     OW74494   9.688   1.774   6.876  0.5119  0.3197 -0.1156
22801SOL    HW174495   9.616   1.834   6.853  0.0699 -0.0867  0.1830
22801SOL    HW274496   9.767   1.828   6.871  0.1664  0.8131 -0.3006
22802SOL     OW74497   8.938   6.660   6.046 -0.1903 -0.2436 -0.1078
22802SOL    HW174498   8.941   6.567   6.071 -1.3054  0.0689  1.3002
22802SOL    HW274499   8.906   6.660   5.956 -1.1876 -1.1907  0.2257
22803SOL     OW74500   0.336   8.514   4.584  0.0954 -0.0259  0.3548
22803SOL    HW174501   0.257   8.460   4.573  1.5787 -2.2641  0.1150
22803SOL    HW274502   0.381   8.507   4.500  0.7153  1.0007  0.5886
22804SOL     OW74503   4.622   4.791  10.864  0.1379  0.2096  0.5163
22804SOL    HW174504   4.700   4.766  10.913  0.1023  2.1394  1.6988
22804SOL    HW274505   4.558   4.724  10.885  1.1845 -0.8914  0.2876
22805SOL     OW74506   9.096   0.491   4.087  0.1612 -0.0296  0.4674
22805SOL    HW174507   9.150   0.568   4.100  0.1424  0.0885 -0.1327
22805SOL    HW274508   9.011   0.525   4.058 -0.0115 -0.2479  0.7097
22806SOL     OW74509   6.638   8.780   0.752  0.3690 -0.8758 -0.5744
22806SOL    HW174510   6.688   8.716   0.701  2.6037  0.3028 -0.0021
22806SOL    HW274511   6.548   8.748   0.749  1.4521 -4.4804  0.3910
22807SOL     OW74512  10.796   5.827   8.571  0.0901  0.2662  0.4730
22807SOL    HW174513  10.842   5.801   8.491  0.2844 -1.3459  1.0686
22807SOL    HW274514  10.717   5.774   8.572 -0.5479  1.2084  0.7207
22808SOL     OW74515   1.799   8.058   1.811 -0.0644  0.4751  0.0935
22808SOL    HW174516   1.788   7.975   1.857 -2.6628  0.7176  0.0448
22808SOL    HW274517   1.835   8.117   1.877 -0.2516 -0.1325  0.7539
22809SOL     OW74518   7.308   5.057   6.298  0.1945  0.1297 -0.1545
22809SOL    HW174519   7.309   5.123   6.368  0.6717 -0.8386  0.7788
22809SOL    HW274520   7.399   5.051   6.269  0.0453  0.3211 -0.6766
22810SOL     OW74521   8.028   8.922   0.726 -0.6972 -0.3089  0.1401
22810SOL    HW174522   8.012   8.869   0.648 -1.7889 -0.0615  0.1767
22810SOL    HW274523   8.036   8.858   0.797 -2.8836 -0.4404  0.3308
22811SOL     OW74524   0.758   0.045  10.143  0.7496  0.3700  0.0073
22811SOL    HW174525   0.832   0.022  10.198  2.8092 -1.8990 -3.3743
22811SOL    HW274526   0.796   0.092  10.069 -1.8729  3.2298  0.2500
22812SOL     OW74527   4.442   1.528   8.828  0.2021 -0.4253  0.2175
22812SOL    HW174528   4.446   1.574   8.912  0.2245  0.5002 -0.2767
22812SOL    HW274529   4.364   1.562   8.785  1.0808  0.3590 -0.8281
22813SOL     OW74530   8.075   0.629   1.675 -0.3794  0.0601 -0.2704
22813SOL    HW174531   8.005   0.651   1.615 -0.5009  0.3617 -0.0247
22813SOL    HW274532   8.031   0.594   1.753 -0.3064  0.8911  0.1570
22814SOL     OW74533   4.355  10.693   2.999 -0.3993  0.4791  0.3032
22814SOL    HW174534   4.408  10.746   3.059 -0.2327  1.2003 -0.4649
22814SOL    HW274535   4.418  10.637   2.955 -0.6072 -0.5816  1.3129
22815SOL     OW74536   5.070   8.802   0.626  0.2042  0.5806 -0.2378
22815SOL    HW174537   5.090   8.864   0.696  1.1071 -0.8723  0.8433
22815SOL    HW274538   5.071   8.717   0.669  0.7411 -0.3504 -2.0221
22816SOL     OW74539   0.308   5.468   9.965 -0.7310  0.0564 -0.2308
22816SOL    HW174540   0.315   5.402   9.897 -0.7209  2.2796 -2.5679
22816SOL    HW274541   0.386   5.457  10.019  0.7556 -0.0483 -2.3046
22817SOL     OW74542   4.207   0.673   3.615 -0.5155 -0.4567 -0.6659
22817SOL    HW174543   4.284   0.697   3.666 -1.6635  2.5519 -0.1616
22817SOL    HW274544   4.242   0.641   3.532  1.2765 -0.0172 -0.1133
22818SOL     OW74545   7.282   5.322   8.325  0.2244  0.2697 -0.2499
22818SOL    HW174546   7.348   5.355   8.386  0.4394 -1.2606  0.4086
22818SOL    HW274547   7.260   5.397   8.270  0.5803  1.5002  1.2173
22819SOL     OW74548   2.835   3.544   6.612  0.5127 -0.3202  0.5616
22819SOL    HW174549   2.850   3.635   6.638 -2.2514  0.4704 -0.3136
22819SOL    HW274550   2.852   3.493   6.691  1.0477  1.0495  1.3728
22820SOL     OW74551   3.500   6.142   6.514  0.1480  0.1377 -0.3601
22820SOL    HW174552   3.460   6.170   6.432 -0.2997 -0.5331 -0.3814
22820SOL    HW274553   3.585   6.186   6.517  0.3304 -0.1323 -1.3631
22821SOL     OW74554   7.837   4.111  10.022  0.2993 -0.4441  0.2442
22821SOL    HW174555   7.836   4.058  10.102  0.2014 -2.0829 -0.8015
22821SOL    HW274556   7.840   4.047   9.951  0.7866  0.9830 -1.0676
22822SOL     OW74557   7.716   2.306   0.063 -0.7510  0.5972  0.0862
22822SOL    HW174558   7.648   2.318   0.129  1.5746 -0.7610  2.9791
22822SOL    HW274559   7.696   2.221   0.023 -0.7384  0.1684  0.9737
22823SOL     OW74560   8.731   2.661   9.437 -0.6744  0.4205 -0.3118
22823SOL    HW174561   8.693   2.579   9.406  0.9636 -1.5000  2.3359
22823SOL    HW274562   8.661   2.703   9.488 -0.9720 -0.2440 -0.1693
22824SOL     OW74563   0.160   9.948   5.910  0.5105  0.4733  0.1237
22824SOL    HW174564   0.164   9.855   5.889 -0.4921  0.6499 -0.9474
22824SOL    HW274565   0.168   9.993   5.826  0.8849  1.3598  0.6124
22825SOL     OW74566   0.442   6.116   5.739  0.0363  0.2073  0.3209
22825SOL    HW174567   0.488   6.036   5.762 -0.7473 -0.0970  0.8500
22825SOL    HW274568   0.467   6.178   5.808 -0.8132 -0.1397  0.9536
22826SOL     OW74569   5.511   7.990   5.319  0.4665  0.3237 -0.2888
22826SOL    HW174570   5.480   7.946   5.240 -0.2966 -0.7930  0.5961
22826SOL    HW274571   5.597   7.950   5.335 -0.2330 -0.9185  0.5244
22827SOL     OW74572   5.619   9.718   6.429 -0.0750 -0.5349 -0.0817
22827SOL    HW174573   5.640   9.678   6.513 -0.6936 -0.9628 -0.1299
22827SOL    HW274574   5.652   9.656   6.363  0.4911 -0.1585 -0.1648
22828SOL     OW74575   8.220   4.537   0.727  0.2493 -0.4482 -0.5305
22828SOL    HW174576   8.187   4.625   0.743  0.8744 -0.0153 -1.5345
22828SOL    HW274577   8.243   4.536   0.634 -2.3832 -2.5402 -1.3101
22829SOL     OW74578   7.684   0.804   4.823  0.0507 -0.5870  0.6012
22829SOL    HW174579   7.711   0.844   4.906 -0.8168  0.0686  0.5808
22829SOL    HW274580   7.658   0.879   4.769  0.6979 -0.9976 -0.3045
22830SOL     OW74581  10.916  10.595   9.796  0.6167 -0.5559  0.2869
22830SOL    HW174582  10.973  10.652   9.849 -0.7804 -0.2445  1.5048
22830SOL    HW274583  10.877  10.654   9.731  1.0978 -0.6328 -0.0809
22831SOL     OW74584   8.294   6.643   1.983  0.2889 -0.1486  0.3348
22831SOL    HW174585   8.255   6.558   1.965 -0.0699 -0.0429  0.6075
22831SOL    HW274586   8.227   6.691   2.032  0.1143  0.6376 -0.6352
22832SOL     OW74587   2.294   7.588   9.178 -0.1811 -0.2768  0.7213
22832SOL    HW174588   2.282   7.611   9.086 -0.0933 -1.0261  0.5117
22832SOL    HW274589   2.208   7.556   9.206  0.0837 -1.1774  0.5532
22833SOL     OW74590   1.667   3.146   2.028  0.3429  0.0598 -0.1298
22833SOL    HW174591   1.726   3.071   2.021  0.1835 -0.3165  1.9940
22833SOL    HW274592   1.700   3.208   1.962  2.0725 -0.8110 -0.1577
22834SOL     OW74593   1.450  10.284   3.996  0.4478 -0.5773 -0.2593
22834SOL    HW174594   1.356  10.272   3.983  0.2505  1.4998 -1.0642
22834SOL    HW274595   1.468  10.242   4.081 -1.5303  0.4270  0.7227
22835SOL     OW74596   2.560   2.535   2.464 -0.9338  0.6357  0.2589
22835SOL    HW174597   2.602   2.566   2.545  0.2670  1.0398 -0.4843
22835SOL    HW274598   2.596   2.448   2.451 -1.9932  0.1086  0.7341
22836SOL     OW74599   2.322   7.964   7.340 -0.8220 -0.5881 -0.2557
22836SOL    HW174600   2.288   8.011   7.264 -0.2977  2.1099  1.0195
22836SOL    HW274601   2.245   7.940   7.391 -1.0889  0.3986 -0.1653
22837SOL     OW74602   8.750   8.331   9.526 -0.2479 -0.0697  0.6556
22837SOL    HW174603   8.795   8.247   9.527  2.5009  1.2833  0.0920
22837SOL    HW274604   8.815   8.394   9.556 -1.1509  2.3012 -1.8548
22838SOL     OW74605   0.857   8.834   7.754  0.1303 -0.7415  0.0165
22838SOL    HW174606   0.818   8.825   7.667 -0.4440 -2.3773  0.4123
22838SOL    HW274607   0.805   8.776   7.810  0.9604 -0.2877  1.2997
22839SOL     OW74608   9.040   1.772  10.184  0.0501 -0.5974 -0.2490
22839SOL    HW174609   9.073   1.857  10.213  1.8415 -1.3265 -0.0132
22839SOL    HW274610   8.991   1.738  10.259 -1.1352  0.4210 -0.5321
22840SOL     OW74611   6.905   6.434   4.721  0.3666 -0.2083 -0.0267
22840SOL    HW174612   6.967   6.361   4.717 -0.9513 -1.4201  0.7952
22840SOL    HW274613   6.907   6.463   4.812  1.4198  1.3225 -0.4922
22841SOL     OW74614   1.611   4.142   2.544 -0.9429  0.5628  0.7047
22841SOL    HW174615   1.584   4.233   2.561 -0.3089  1.0023 -0.4785
22841SOL    HW274616   1.615   4.102   2.630 -0.4928  1.8830  1.3298
22842SOL     OW74617   1.106   6.880   5.074  0.3622 -0.3416  0.2881
22842SOL    HW174618   1.045   6.952   5.092  0.4803 -0.1306 -0.1479
22842SOL    HW274619   1.121   6.884   4.980 -3.3894 -3.8980 -0.7475
22843SOL     OW74620   0.421   8.213   9.314 -0.1677 -0.0592  0.7993
22843SOL    HW174621   0.387   8.279   9.375 -1.7483  1.4091 -1.4943
22843SOL    HW274622   0.505   8.250   9.284 -0.2031  0.0506  0.8354
22844SOL     OW74623   3.747  10.307  10.788 -0.1217  0.1816 -0.3381
22844SOL    HW174624   3.742  10.220  10.749 -0.1753 -0.0702  0.2235
22844SOL    HW274625   3.717  10.295  10.878 -3.7358  1.4297 -1.2119
22845SOL     OW74626   1.430   7.285   0.618 -0.0501 -0.6470 -0.6804
22845SOL    HW174627   1.512   7.307   0.575  0.8296 -0.4669  1.0128
22845SOL    HW274628   1.377   7.243   0.550  1.5075 -0.9479 -1.7426
22846SOL     OW74629   5.342   0.849   9.385 -0.3569  0.0182 -0.4673
22846SOL    HW174630   5.327   0.924   9.327 -0.6254  1.1476  1.0052
22846SOL    HW274631   5.390   0.786   9.331 -0.4478  1.0926 -1.8533
22847SOL     OW74632   4.299   8.144   7.580  0.1536 -0.4531  0.0261
22847SOL    HW174633   4.323   8.081   7.511 -1.6437 -0.4264 -0.6991
22847SOL    HW274634   4.344   8.225   7.556  0.3447 -0.7253 -0.5532
22848SOL     OW74635   5.543   6.915   9.369 -0.0019  0.5073 -0.1349
22848SOL    HW174636   5.572   6.902   9.279 -2.5914  0.0803 -0.9915
22848SOL    HW274637   5.511   6.829   9.397  0.1755  0.7816  0.9658
22849SOL     OW74638   0.406   0.211   6.555  0.3456 -0.4835 -0.1807
22849SOL    HW174639   0.380   0.159   6.480  2.3464 -2.2885  0.2493
22849SOL    HW274640   0.373   0.162   6.631 -0.2454  0.4330  0.1620
22850SOL     OW74641   1.303   0.004   0.174 -0.3281  0.2746 -0.0356
22850SOL    HW174642   1.277   0.066   0.243  0.2203  0.1495  0.2895
22850SOL    HW274643   1.250  -0.074   0.192 -2.4414  1.2431 -1.5679
22851SOL     OW74644   8.760  10.640   3.614  0.1686  0.0818 -0.0429
22851SOL    HW174645   8.802  10.625   3.699  0.5194 -0.4441 -0.3030
22851SOL    HW274646   8.745  10.734   3.610 -1.1126 -0.0424  1.2052
22852SOL     OW74647   4.850   1.782  10.724 -0.0966 -0.1813  0.1194
22852SOL    HW174648   4.824   1.857  10.670  0.4247 -0.1138 -0.0450
22852SOL    HW274649   4.908   1.731  10.668 -0.3327 -0.6346  0.2834
22853SOL     OW74650   6.637   6.998   5.970  0.5354  0.6847 -0.3850
22853SOL    HW174651   6.664   6.926   5.913 -0.6687 -0.6861  0.7048
22853SOL    HW274652   6.602   7.064   5.910 -0.1474 -0.4648 -1.2935
22854SOL     OW74653   4.560   7.208   1.439 -0.2734  0.3033  0.2208
22854SOL    HW174654   4.652   7.184   1.445 -0.3687 -0.1541 -0.0992
22854SOL    HW274655   4.521   7.142   1.382 -1.2042 -0.6626  1.8849
22855SOL     OW74656  10.532   6.254   6.631 -0.4830  0.4333 -0.3054
22855SOL    HW174657  10.559   6.270   6.541  1.7380  1.1102  0.4206
22855SOL    HW274658  10.548   6.161   6.645 -1.7370  0.1173 -0.8657
22856SOL     OW74659   1.901   4.574   1.799 -0.2653  0.9567  0.5945
22856SOL    HW174660   1.946   4.545   1.719 -1.8382 -0.4209  0.1384
22856SOL    HW274661   1.957   4.544   1.870 -1.6691 -3.4522  0.1550
22857SOL     OW74662   2.044   8.073   3.802  0.6883  0.2284 -0.1272
22857SOL    HW174663   2.034   7.988   3.844  0.0422  1.0314  1.4330
22857SOL    HW274664   2.094   8.126   3.865 -0.2891  1.4739 -0.3522
22858SOL     OW74665   7.312   6.608   0.714 -0.1981 -0.4026  0.2902
22858SOL    HW174666   7.246   6.582   0.778  0.1044 -1.3802  0.2269
22858SOL    HW274667   7.287   6.563   0.633 -0.5063  0.7247 -0.2647
22859SOL     OW74668   0.223   8.301   6.817 -0.2768 -0.5069  0.4488
22859SOL    HW174669   0.233   8.216   6.859 -1.0801 -0.1368  1.4347
22859SOL    HW274670   0.243   8.285   6.724  0.7469 -1.5073  0.8159
22860SOL     OW74671   3.336   9.718   7.394  0.2267  0.4205  0.1577
22860SOL    HW174672   3.353   9.629   7.363 -0.7552  0.4839 -0.6017
22860SOL    HW274673   3.255   9.711   7.445 -0.4280  1.0343 -0.7537
22861SOL     OW74674   4.276   9.075   9.630 -0.7432 -1.3253  0.1733
22861SOL    HW174675   4.205   9.090   9.567 -0.4226  0.9279  0.2386
22861SOL    HW274676   4.254   9.130   9.705  0.6789 -1.1501  0.5043
22862SOL     OW74677   5.184   5.108  10.529  0.1233 -0.5398 -0.2671
22862SOL    HW174678   5.231   5.077  10.452 -0.8798  0.7499 -1.4309
22862SOL    HW274679   5.232   5.185  10.558 -1.0412  0.5988 -1.2745
22863SOL     OW74680   1.805   4.504   9.523 -0.0425  0.1219 -0.0197
22863SOL    HW174681   1.710   4.513   9.508 -0.0837  0.7068  0.5431
22863SOL    HW274682   1.822   4.560   9.598  0.5874 -0.7473  0.5068
22864SOL     OW74683   8.237   9.883   2.031  0.9218 -0.1277 -0.4480
22864SOL    HW174684   8.307   9.911   1.973  0.3928 -1.5816 -1.8697
22864SOL    HW274685   8.202   9.804   1.990 -1.0266  0.1063  0.6345
22865SOL     OW74686   0.082   2.328   2.288 -0.5858  0.1735 -0.6927
22865SOL    HW174687   0.114   2.361   2.372  0.0647 -1.4397 -0.2652
22865SOL    HW274688  -0.004   2.369   2.277 -0.9304  0.0015  1.0328
22866SOL     OW74689  10.491   1.333   4.836 -0.2625 -1.0550 -0.4766
22866SOL    HW174690  10.521   1.380   4.759 -0.2272  0.7427  0.5778
22866SOL    HW274691  10.395   1.333   4.829 -0.2926 -0.2525 -0.1910
22867SOL     OW74692   0.402   2.615   0.035 -0.5997  0.1071  0.2686
22867SOL    HW174693   0.306   2.620   0.033 -0.5734  1.1003  0.8696
22867SOL    HW274694   0.421   2.527   0.068 -1.3247  0.2637  1.1343
22868SOL     OW74695   8.659   6.878   4.832 -0.0587 -0.1572 -0.3158
22868SOL    HW174696   8.673   6.792   4.793  1.5993 -0.1259  0.1471
22868SOL    HW274697   8.598   6.862   4.905  0.6854 -1.0402  0.1265
22869SOL     OW74698  10.921  10.716   5.322 -0.4901 -0.6296  0.7273
22869SOL    HW174699  10.928  10.712   5.227  1.4589 -1.4119  0.8628
22869SOL    HW274700  10.890  10.804   5.341 -2.9180 -1.0865 -0.6903
22870SOL     OW74701   8.924  10.016   2.124 -0.4239  0.2097 -0.1426
22870SOL    HW174702   8.843  10.030   2.173 -0.1872  0.2611  0.2419
22870SOL    HW274703   8.984  10.082   2.157  0.6408 -1.5055  1.5473
22871SOL     OW74704   8.515   1.199  10.531 -0.4884  0.0249  0.4005
22871SOL    HW174705   8.453   1.224  10.600 -1.0216  1.9656 -0.7346
22871SOL    HW274706   8.461   1.157  10.464 -0.1424 -0.7453  0.5841
22872SOL     OW74707   5.714   8.515   3.700 -0.1713 -0.1919  0.4206
22872SOL    HW174708   5.720   8.532   3.794  0.5674  1.0685  0.1671
22872SOL    HW274709   5.686   8.598   3.662 -0.4460 -0.6818 -0.4792
22873SOL     OW74710   5.188   3.364   1.668 -0.0420  0.4853  0.4322
22873SOL    HW174711   5.220   3.289   1.617 -2.3997  0.4345 -1.1668
22873SOL    HW274712   5.245   3.436   1.643 -0.8334  0.3528 -2.0668
22874SOL     OW74713   4.312   4.502   9.130 -0.1627 -0.5424 -0.4562
22874SOL    HW174714   4.245   4.503   9.061 -0.6607  0.0411  0.0196
22874SOL    HW274715   4.389   4.542   9.089  0.4813 -2.7004 -1.5389
22875SOL     OW74716   7.414   7.789   8.840  0.7148 -0.5002 -0.3040
22875SOL    HW174717   7.343   7.726   8.824  0.8552 -0.6398 -0.3800
22875SOL    HW274718   7.461   7.754   8.915  1.6800 -1.2694 -1.2317
22876SOL     OW74719   3.896   2.455   4.517 -0.0756  0.5216 -0.0410
22876SOL    HW174720   3.806   2.430   4.537 -0.5017  1.5123 -0.6726
22876SOL    HW274721   3.920   2.399   4.442  0.1516 -0.3553  0.6671
22877SOL     OW74722   4.750   6.259   1.393  0.0664 -0.0822 -0.5590
22877SOL    HW174723   4.727   6.206   1.317  0.4893 -0.7455 -0.2271
22877SOL    HW274724   4.716   6.210   1.468  1.0386 -0.2255 -0.1988
22878SOL     OW74725   9.384  10.063   0.634  0.4626  0.9390  0.1686
22878SOL    HW174726   9.424  10.093   0.716 -0.1548  0.5151  0.6328
22878SOL    HW274727   9.305  10.017   0.661  0.6147  0.1766 -0.6187
22879SOL     OW74728   4.697   6.899   7.944 -0.5353 -0.0902  0.5488
22879SOL    HW174729   4.725   6.808   7.933 -0.6799  0.0965 -2.0238
22879SOL    HW274730   4.747   6.947   7.878 -0.2283  1.7752  2.0810
22880SOL     OW74731   2.078   7.642   3.691 -0.4915  0.2404 -0.1446
22880SOL    HW174732   2.103   7.551   3.676 -1.0435 -0.4314  2.5523
22880SOL    HW274733   2.014   7.661   3.622 -0.7119 -1.5483 -0.4701
22881SOL     OW74734   9.238   0.665   2.655 -0.0133  0.0927 -0.6922
22881SOL    HW174735   9.254   0.657   2.561  0.3951  1.4830 -0.7684
22881SOL    HW274736   9.215   0.758   2.667 -2.3310 -0.5321  0.2605
22882SOL     OW74737   0.562   4.391   9.745  0.4186  0.6328  0.1017
22882SOL    HW174738   0.638   4.380   9.802  1.4802  1.1258 -1.1952
22882SOL    HW274739   0.567   4.318   9.683  0.7995  1.6278 -1.0579
22883SOL     OW74740   4.021   7.777   5.328  0.6924 -0.0348  0.9082
22883SOL    HW174741   3.937   7.822   5.340 -0.5444 -2.0895  0.4774
22883SOL    HW274742   4.081   7.822   5.388 -1.4901 -0.4538  3.6225
22884SOL     OW74743   9.109   0.173   8.835 -0.5141  0.2525 -0.5778
22884SOL    HW174744   9.033   0.176   8.776 -0.8398  0.5241 -0.1459
22884SOL    HW274745   9.181   0.141   8.779 -0.9191  0.0788 -1.0116
22885SOL     OW74746   9.454   0.141   8.352 -0.3240 -0.2087  0.5556
22885SOL    HW174747   9.489   0.061   8.315  0.7433  0.7176 -0.5173
22885SOL    HW274748   9.528   0.202   8.353 -1.8253  1.8647 -1.8709
22886SOL     OW74749   7.359  10.801   4.074 -0.0993  0.1268  0.2399
22886SOL    HW174750   7.417  10.728   4.052 -0.4516 -0.2682  0.5899
22886SOL    HW274751   7.406  10.879   4.043  0.6874 -0.1653  0.6677
22887SOL     OW74752   7.799  10.348   6.695 -0.0969 -0.5255  0.5746
22887SOL    HW174753   7.860  10.402   6.646  0.2436 -1.1082  0.3547
22887SOL    HW274754   7.854  10.294   6.752 -0.4227 -0.8200  0.6162
22888SOL     OW74755   1.344   4.988   6.793  0.0860  0.3450 -0.6854
22888SOL    HW174756   1.438   4.972   6.784  0.1119  0.8026 -1.2923
22888SOL    HW274757   1.330   5.074   6.753 -0.8417 -0.4282 -2.1403
22889SOL     OW74758   9.755   0.448   8.820  0.5159  0.3052  0.1740
22889SOL    HW174759   9.707   0.430   8.739 -1.0681  1.5674  0.7772
22889SOL    HW274760   9.793   0.534   8.806 -1.2904  1.3625  1.3910
22890SOL     OW74761   6.453   8.818   9.248  0.0676  0.3349  0.2917
22890SOL    HW174762   6.435   8.906   9.214 -1.1771  0.3323  0.9000
22890SOL    HW274763   6.547   8.805   9.230 -0.3155  0.6363 -2.3875
22891SOL     OW74764   3.378   2.289   3.675 -0.2379 -0.5839 -0.1181
22891SOL    HW174765   3.462   2.245   3.691  0.2861  0.7156  0.9113
22891SOL    HW274766   3.402   2.378   3.649 -1.2893  0.0727  1.0426
22892SOL     OW74767   3.669  10.127   0.418  0.0604  0.3962 -0.2863
22892SOL    HW174768   3.621  10.057   0.373 -0.7794  1.3593 -0.9416
22892SOL    HW274769   3.761  10.101   0.411 -0.1675 -0.2159 -1.2810
22893SOL     OW74770   5.905   9.094   7.238  0.3082  0.0983 -0.1698
22893SOL    HW174771   5.838   9.161   7.222 -0.3958 -0.6062 -0.2624
22893SOL    HW274772   5.896   9.034   7.164  0.6904 -0.2827  0.0901
22894SOL     OW74773   5.268   0.406   8.058 -0.4079  0.3651  0.0457
22894SOL    HW174774   5.207   0.478   8.074 -2.6253 -0.9636 -1.8888
22894SOL    HW274775   5.213   0.328   8.056  1.4734 -1.0071 -1.0577
22895SOL     OW74776   7.947   2.981   8.524 -0.3014  0.2525  0.1404
22895SOL    HW174777   7.942   2.990   8.429 -1.5912  3.1570  0.3676
22895SOL    HW274778   7.884   2.912   8.545 -0.7437  0.2729 -1.0429
22896SOL     OW74779   1.434   3.779   9.944 -0.2793 -0.2872 -0.1063
22896SOL    HW174780   1.355   3.784   9.997 -1.0683  0.2253 -1.2963
22896SOL    HW274781   1.463   3.688   9.952 -0.0360 -0.0999  1.6318
22897SOL     OW74782   5.721   0.815   0.659  0.1745  0.3649 -0.2483
22897SOL    HW174783   5.774   0.871   0.717 -1.0404 -0.9534  2.2995
22897SOL    HW274784   5.635   0.856   0.658  0.0022 -0.0009 -0.5647
22898SOL     OW74785   6.860   8.050   4.337  0.1296 -0.4603 -0.4300
22898SOL    HW174786   6.810   8.114   4.387  0.4974 -0.5938  0.1237
22898SOL    HW274787   6.929   8.101   4.294  1.9997 -0.7447  2.0132
22899SOL     OW74788   4.918   3.916   9.126  0.0256  0.1489 -0.1366
22899SOL    HW174789   4.830   3.899   9.160  0.5020 -3.4997 -0.3020
22899SOL    HW274790   4.971   3.934   9.204 -0.4546  0.2049  0.1811
22900SOL     OW74791   0.306   8.186   2.377 -0.5903  0.2335 -0.0597
22900SOL    HW174792   0.211   8.182   2.376 -0.5725 -2.3047 -1.8689
22900SOL    HW274793   0.334   8.108   2.328  2.4392  0.1873  1.5119
22901SOL     OW74794   2.602   1.060   7.153  0.1517 -0.4246  0.1956
22901SOL    HW174795   2.537   1.047   7.222 -0.0291  0.5305  0.2214
22901SOL    HW274796   2.636   1.148   7.169  0.3829 -0.3420 -0.7039
22902SOL     OW74797   4.516   3.555  10.811  0.3433 -0.1834 -0.2669
22902SOL    HW174798   4.574   3.630  10.822 -1.4835  1.3560 -0.7347
22902SOL    HW274799   4.530   3.503  10.890  1.2324  0.9344  0.3449
22903SOL     OW74800   7.529   3.996   1.367 -0.0094 -0.0159 -0.1182
22903SOL    HW174801   7.480   3.981   1.448 -1.8415  0.7148 -1.0399
22903SOL    HW274802   7.563   3.909   1.344  2.1058  0.0634  2.3312
22904SOL     OW74803   8.422   8.447   7.142 -0.3680 -0.4120 -0.0366
22904SOL    HW174804   8.404   8.436   7.236 -0.7164 -0.6693 -0.1313
22904SOL    HW274805   8.341   8.486   7.107  0.7160  2.3497  0.2527
22905SOL     OW74806   1.259   5.150   0.588 -0.4320 -0.3983  0.0126
22905SOL    HW174807   1.295   5.061   0.587  1.4552  0.3281  0.2950
22905SOL    HW274808   1.313   5.198   0.525 -1.8614  0.4232 -0.6409
22906SOL     OW74809   2.269  10.750   7.729  0.2776  0.1290 -0.3224
22906SOL    HW174810   2.361  10.754   7.703  0.3352 -1.1849 -0.3937
22906SOL    HW274811   2.221  10.776   7.650  0.5533 -1.0041 -0.8999
22907SOL     OW74812   2.671   3.204   1.929  0.2961  0.0889  0.2943
22907SOL    HW174813   2.665   3.161   2.014 -0.5179  0.3910  0.3941
22907SOL    HW274814   2.702   3.135   1.870 -1.5189 -0.8217  0.3374
22908SOL     OW74815   4.711   8.876   5.103 -0.0121 -0.4551 -0.1339
22908SOL    HW174816   4.653   8.943   5.139  1.4893 -0.1053  1.7649
22908SOL    HW274817   4.746   8.830   5.180  1.4754 -1.2886 -1.2504
22909SOL     OW74818   4.523   6.987   9.567 -0.0193 -0.1744  0.2932
22909SOL    HW174819   4.545   7.001   9.474 -0.9032 -0.6952 -0.0045
22909SOL    HW274820   4.492   7.072   9.597 -2.2445 -0.5995 -0.6207
22910SOL     OW74821   1.349   9.324   2.602 -0.2369  0.0220 -0.4782
22910SOL    HW174822   1.380   9.244   2.645  0.0079 -0.1801 -1.0169
22910SOL    HW274823   1.410   9.392   2.631  1.3059 -0.5475 -2.2385
22911SOL     OW74824   9.075   6.429   6.375 -0.6142 -0.3428 -0.0009
22911SOL    HW174825   9.145   6.476   6.330 -0.1760 -0.7956  0.2060
22911SOL    HW274826   9.057   6.353   6.320 -0.2128 -0.7912  0.4883
22912SOL     OW74827   4.452   1.515   7.085 -0.1648 -0.2889 -0.6206
22912SOL    HW174828   4.383   1.570   7.049  0.7726  1.5305  0.2588
22912SOL    HW274829   4.479   1.559   7.165  1.7758 -1.1220 -0.7578
22913SOL     OW74830   9.117   9.697   9.480  0.5642  0.1324 -0.1235
22913SOL    HW174831   9.086   9.754   9.550  1.1708 -0.7068  0.8667
22913SOL    HW274832   9.045   9.693   9.417  0.4392  1.7965 -0.1081
22914SOL     OW74833  10.842   0.050   2.970 -0.1628  0.3215  0.6568
22914SOL    HW174834  10.896  -0.028   2.959  1.1036  0.8420  2.6992
22914SOL    HW274835  10.752   0.019   2.966  0.2287 -0.7416 -1.6774
22915SOL     OW74836   8.717   9.707   0.091 -0.1980  0.9533 -0.2708
22915SOL    HW174837   8.791   9.725   0.033 -0.4520  1.4653 -0.4474
22915SOL    HW274838   8.747   9.736   0.177  0.0932  0.4147 -0.1829
22916SOL     OW74839   8.687  10.172   3.613 -0.0808 -0.1281 -0.2505
22916SOL    HW174840   8.752  10.219   3.560  2.8128 -1.9865  1.3982
22916SOL    HW274841   8.646  10.239   3.667  3.2530  0.8127  1.3697
22917SOL     OW74842   5.390   5.363   9.189 -0.1048 -0.4663  0.2579
22917SOL    HW174843   5.428   5.279   9.161 -0.0474 -0.3683  0.0397
22917SOL    HW274844   5.421   5.426   9.124 -1.1026 -0.4882 -0.2537
22918SOL     OW74845   4.813   8.355   7.961 -0.1108  0.7127 -0.0405
22918SOL    HW174846   4.795   8.307   8.042 -1.7588  0.9416 -0.2357
22918SOL    HW274847   4.789   8.293   7.891  0.5607  0.7949 -0.3569
22919SOL     OW74848   2.383   9.137   2.218  0.0667 -0.3878  0.8838
22919SOL    HW174849   2.374   9.048   2.185 -0.6897  0.6091 -1.8695
22919SOL    HW274850   2.466   9.168   2.182 -0.4709  0.5406  0.3916
22920SOL     OW74851   2.858   2.735   9.810 -0.1431 -0.0322 -0.7654
22920SOL    HW174852   2.895   2.818   9.841  1.3102 -0.2385 -1.8702
22920SOL    HW274853   2.895   2.723   9.723 -0.9906 -1.4525 -0.9563
22921SOL     OW74854   3.378   0.540   5.320 -0.6786 -0.2236  0.0969
22921SOL    HW174855   3.409   0.479   5.387 -1.9879 -0.8050  0.1966
22921SOL    HW274856   3.445   0.536   5.251  1.4207  1.3906  1.8784
22922SOL     OW74857   7.315   6.450   6.218  0.0481 -0.5051  0.3954
22922SOL    HW174858   7.407   6.434   6.241 -0.1450 -0.5857  1.1051
22922SOL    HW274859   7.267   6.439   6.300 -0.4111  1.0814  0.3636
22923SOL     OW74860   4.718   4.344   8.779  0.1065 -0.0735 -0.4099
22923SOL    HW174861   4.634   4.366   8.739 -0.7258 -0.5534  0.9849
22923SOL    HW274862   4.739   4.257   8.743 -0.8885 -0.7333  0.5167
22924SOL     OW74863   3.285   2.040   3.746 -0.3051  0.1276 -0.1864
22924SOL    HW174864   3.324   2.119   3.710  1.9507 -0.1998  1.3135
22924SOL    HW274865   3.318   1.969   3.691 -0.9479  0.0825 -0.5132
22925SOL     OW74866   1.547   3.028  10.342 -0.2984  0.0325  0.5313
22925SOL    HW174867   1.484   2.979  10.289  0.3651  0.3170 -0.5525
22925SOL    HW274868   1.494   3.093  10.388 -0.7267  0.8605 -1.0426
22926SOL     OW74869   4.750   5.517  10.808 -0.2715  0.3855  0.5140
22926SOL    HW174870   4.779   5.578  10.740  0.0389 -1.2924 -0.9208
22926SOL    HW274871   4.718   5.440  10.760  0.1360 -0.9453  2.2640
22927SOL     OW74872   7.493   3.160   5.288  0.2235 -0.0505  0.1068
22927SOL    HW174873   7.581   3.127   5.267  1.1101  1.6771  0.8977
22927SOL    HW274874   7.489   3.246   5.244 -1.2038 -0.2411 -0.1727
22928SOL     OW74875   2.356   0.427   3.433  0.7489  0.0819 -0.0069
22928SOL    HW174876   2.374   0.371   3.509 -0.5490 -0.9876 -0.4505
22928SOL    HW274877   2.303   0.498   3.469 -1.2497 -1.2741 -0.1275
22929SOL     OW74878   1.252  10.362   7.135  0.3349  0.2960  0.3893
22929SOL    HW174879   1.327  10.378   7.192 -0.5044  0.0341  1.6203
22929SOL    HW274880   1.282  10.384   7.047  2.0024 -0.3202  0.7817
22930SOL     OW74881   4.782   9.765   4.387 -0.8955 -0.2039 -0.8322
22930SOL    HW174882   4.859   9.813   4.419  0.5624 -2.2232 -1.0973
22930SOL    HW274883   4.708   9.805   4.433  0.7946 -1.2502  3.2373
22931SOL     OW74884   5.564   9.234   5.022 -0.8474  0.4821 -0.3619
22931SOL    HW174885   5.617   9.307   4.987 -0.1354 -0.3207 -1.0112
22931SOL    HW274886   5.620   9.157   5.011 -0.8274  0.0851  2.0706
22932SOL     OW74887   2.967   0.897   6.160  0.0962  0.9750  0.0281
22932SOL    HW174888   3.031   0.834   6.192  2.0528  3.3057  1.0666
22932SOL    HW274889   3.001   0.925   6.075 -0.6770  0.7418 -0.3652
22933SOL     OW74890   7.675   8.826   0.344 -0.2951  0.0740  0.0864
22933SOL    HW174891   7.672   8.909   0.296  0.1813  0.1415  0.1710
22933SOL    HW274892   7.698   8.761   0.277 -1.8397 -0.1908 -0.2302
22934SOL     OW74893  10.370   8.870   0.103 -0.0030 -0.1765 -0.3742
22934SOL    HW174894  10.305   8.829   0.160 -0.7032 -1.2274 -1.8406
22934SOL    HW274895  10.364   8.963   0.122 -0.9936 -0.3918  0.4685
22935SOL     OW74896   3.068   0.495   8.407 -0.8588 -0.2209  0.7042
22935SOL    HW174897   2.985   0.538   8.385 -0.9551 -0.9089 -0.3249
22935SOL    HW274898   3.114   0.487   8.324 -0.6607 -1.7185  0.9222
22936SOL     OW74899   4.291  10.684   4.584 -0.0369  0.3801 -0.2608
22936SOL    HW174900   4.349  10.754   4.615  0.9651 -0.4470 -0.2409
22936SOL    HW274901   4.336  10.603   4.607 -1.4628 -0.3008  0.2542
22937SOL     OW74902   5.131   6.929   4.801  0.0686  0.2585 -0.0340
22937SOL    HW174903   5.116   6.994   4.870 -1.5703  0.0493 -0.1590
22937SOL    HW274904   5.137   6.980   4.721 -2.2169  0.2590 -0.2754
22938SOL     OW74905   5.190   3.640   4.162 -0.2847 -0.1118  0.2040
22938SOL    HW174906   5.138   3.584   4.104  2.1638 -0.4420 -1.8375
22938SOL    HW274907   5.185   3.727   4.121 -0.3889  0.1756  0.8158
22939SOL     OW74908   0.421   1.365   6.584 -0.1119  0.1237  0.0676
22939SOL    HW174909   0.386   1.384   6.497  0.4172  3.0738  0.3878
22939SOL    HW274910   0.398   1.274   6.600 -0.4826 -0.4259 -3.0144
22940SOL     OW74911   0.729   0.792   9.852  0.1808 -0.5775 -0.0033
22940SOL    HW174912   0.691   0.738   9.784 -1.4777  0.3053  0.1870
22940SOL    HW274913   0.692   0.759   9.934  0.1986 -0.0261  0.2369
22941SOL     OW74914  10.143   0.487   8.845  0.5436  0.2258  0.5765
22941SOL    HW174915  10.091   0.407   8.837  2.5180 -0.9687 -2.0229
22941SOL    HW274916  10.117   0.526   8.928 -2.9548 -1.3116  0.3395
22942SOL     OW74917   7.680   9.025   9.785 -0.1295  0.5002 -0.0608
22942SOL    HW174918   7.602   9.021   9.841 -0.5050  0.8153 -0.5614
22942SOL    HW274919   7.646   9.036   9.697  0.4433 -0.6312 -0.4421
22943SOL     OW74920   6.918   0.245   7.996 -0.4448  0.6957  0.2503
22943SOL    HW174921   6.973   0.166   7.997  0.1319  1.0750 -0.6108
22943SOL    HW274922   6.866   0.238   8.076 -2.1152 -1.7391 -0.9255
22944SOL     OW74923   4.439   9.844   5.458 -0.0312  0.3862  0.2339
22944SOL    HW174924   4.452   9.929   5.500 -0.9038  0.1770  0.9547
22944SOL    HW274925   4.449   9.780   5.529 -0.3674 -0.0498 -0.1068
22945SOL     OW74926   6.088   9.025   3.599  0.1223  0.3770  0.0611
22945SOL    HW174927   6.040   8.982   3.529  0.8900 -1.4115  0.5754
22945SOL    HW274928   6.160   9.070   3.555 -1.9497  3.1587 -0.7195
22946SOL     OW74929   7.050   0.376   2.717 -0.5262  0.8282  0.0234
22946SOL    HW174930   7.050   0.465   2.682  4.1197  0.3039 -1.9909
22946SOL    HW274931   7.076   0.386   2.809  0.6131  1.5238 -0.3675
22947SOL     OW74932   3.599   5.501   4.506  0.2826 -0.3739  0.4131
22947SOL    HW174933   3.608   5.452   4.587  0.0240 -0.7438  0.2184
22947SOL    HW274934   3.508   5.531   4.505  0.3176 -0.2682  0.3185
22948SOL     OW74935   8.942   6.657   3.274  0.1994  0.6665  0.1412
22948SOL    HW174936   8.965   6.593   3.342 -0.2484 -0.7639 -0.9961
22948SOL    HW274937   9.000   6.636   3.201 -0.9299  0.6006 -0.7655
22949SOL     OW74938   1.268   6.427   6.696  0.1306  0.0465  0.3559
22949SOL    HW174939   1.295   6.431   6.604  0.8047 -1.6938  0.4473
22949SOL    HW274940   1.210   6.503   6.707 -1.7686 -0.8930 -2.1228
22950SOL     OW74941   2.622   3.526   5.205  0.2827 -0.5810  0.3007
22950SOL    HW174942   2.657   3.571   5.128  0.9797  0.2262  1.0633
22950SOL    HW274943   2.530   3.508   5.183  0.1357  0.7267 -0.2513
22951SOL     OW74944   8.287   5.195   5.875 -0.4893  0.2441 -0.3958
22951SOL    HW174945   8.280   5.112   5.826  1.8073 -0.8576  1.0041
22951SOL    HW274946   8.246   5.176   5.959 -1.5306  1.1381 -0.6777
22952SOL     OW74947   3.185   5.312   8.030 -0.0593  0.3325 -0.6082
22952SOL    HW174948   3.199   5.293   8.122 -1.3401 -2.4000 -0.8755
22952SOL    HW274949   3.238   5.389   8.013  1.5228 -0.0642  2.0078
22953SOL     OW74950   3.060   9.941   7.686  0.1499  0.1032  0.2739
22953SOL    HW174951   3.117   9.871   7.718  1.3740  1.1935  0.5747
22953SOL    HW274952   3.019   9.976   7.765  0.9050  0.8607  0.3474
22954SOL     OW74953   3.462   4.782   4.216  0.4102 -0.1448 -0.3131
22954SOL    HW174954   3.541   4.737   4.186  0.3974  0.2230 -0.9018
22954SOL    HW274955   3.410   4.795   4.136 -0.5519 -0.9745  0.1494
22955SOL     OW74956   3.340   2.642   3.970 -0.1723 -0.1373  0.6981
22955SOL    HW174957   3.383   2.693   3.901  0.7420 -1.2110  0.4499
22955SOL    HW274958   3.248   2.642   3.945 -0.1590  1.2093  0.5951
22956SOL     OW74959   6.502   2.092   8.245 -0.0439  0.4132 -0.2607
22956SOL    HW174960   6.520   2.050   8.329 -1.9865 -1.9587 -0.8950
22956SOL    HW274961   6.408   2.113   8.248  0.0295  1.0529 -1.5209
22957SOL     OW74962   4.940   7.729   2.501 -0.0939 -0.2531 -0.1584
22957SOL    HW174963   4.892   7.696   2.426 -0.9629 -0.5843  0.5274
22957SOL    HW274964   5.032   7.707   2.482 -0.2340  0.1309 -1.3404
22958SOL     OW74965  10.539   4.405   5.902 -0.2295 -0.2796 -0.2570
22958SOL    HW174966  10.574   4.424   5.814  0.4889 -0.2386  0.0296
22958SOL    HW274967  10.598   4.451   5.961 -1.7717  1.2267  0.1843
22959SOL     OW74968   7.519   8.301   8.466  0.1239 -0.2575 -0.0570
22959SOL    HW174969   7.459   8.370   8.438  0.5658  0.3154  0.3875
22959SOL    HW274970   7.463   8.237   8.509 -0.4487 -0.7476 -1.4731
22960SOL     OW74971   3.116   5.635   5.915  0.7505 -0.0231 -0.1994
22960SOL    HW174972   3.076   5.551   5.935 -0.4999  0.6990  0.4686
22960SOL    HW274973   3.210   5.622   5.931  0.7981 -1.7142 -1.6528
22961SOL     OW74974   5.917   0.133   9.368 -0.2861  0.0774 -0.0743
22961SOL    HW174975   5.973   0.199   9.408 -0.7558  0.7194 -0.4582
22961SOL    HW274976   5.902   0.069   9.438  0.4296  0.2081  0.2076
22962SOL     OW74977   8.037   5.607   5.728 -0.0567  0.1864  0.5360
22962SOL    HW174978   8.001   5.593   5.815  0.2481 -0.0725  0.6227
22962SOL    HW274979   8.097   5.534   5.715  1.1934  1.1326  0.7926
22963SOL     OW74980   1.113   3.504   7.460  0.1813 -0.5025 -0.0833
22963SOL    HW174981   1.035   3.492   7.406  0.5659  0.0483 -0.7874
22963SOL    HW274982   1.183   3.523   7.397  0.9782 -1.4062  0.5092
22964SOL     OW74983   5.388  10.417   3.523 -0.1226  0.4078 -0.2855
22964SOL    HW174984   5.375  10.346   3.460  0.5073  0.7778 -0.8402
22964SOL    HW274985   5.482  10.433   3.523 -0.3330  1.7751 -0.7690
22965SOL     OW74986   2.001   2.818   5.503 -0.0658  0.0854  0.3139
22965SOL    HW174987   2.078   2.763   5.499  0.0301  0.1965  0.6031
22965SOL    HW274988   2.007   2.863   5.587  2.2775  4.0605 -1.6731
22966SOL     OW74989   3.003  10.706   8.100  0.0171 -0.1006 -0.5660
22966SOL    HW174990   2.991  10.657   8.019 -0.5722 -0.8078 -0.0724
22966SOL    HW274991   3.092  10.687   8.127  0.5103  0.8278 -1.4800
22967SOL     OW74992   6.916   7.362   3.854  0.0304  0.5435 -0.5417
22967SOL    HW174993   6.898   7.311   3.933  0.9650  1.4392  0.2780
22967SOL    HW274994   6.830   7.397   3.828 -0.2561  0.3869  0.1754
22968SOL     OW74995   4.447   4.097   9.787 -0.4495 -0.0199  0.0381
22968SOL    HW174996   4.402   4.024   9.746 -0.7005 -0.8502  1.6913
22968SOL    HW274997   4.379   4.165   9.796 -0.6927 -0.2697  0.1166
22969SOL     OW74998   8.790   7.229   1.492 -0.2229  0.4091  0.1411
22969SOL    HW174999   8.755   7.161   1.434  0.6677 -0.2000  0.2965
22969SOL    HW275000   8.727   7.235   1.563 -1.0104  0.7266 -0.5692
22970SOL     OW75001   6.186   7.756   9.227 -0.4749 -0.1301  0.1019
22970SOL    HW175002   6.269   7.781   9.268 -0.1379 -1.0502  0.0188
22970SOL    HW275003   6.210   7.727   9.139 -0.9487  0.0491 -0.0906
22971SOL     OW75004   6.282   4.633   6.072  0.3369 -0.0825  0.3272
22971SOL    HW175005   6.344   4.696   6.035  0.8503 -0.9474 -0.3342
22971SOL    HW275006   6.210   4.687   6.105  0.0480  0.7863 -1.5682
22972SOL     OW75007   5.410  10.763   3.661  0.3734  0.6725  0.8008
22972SOL    HW175008   5.403  10.684   3.715 -0.4696  0.6315  0.6436
22972SOL    HW275009   5.348  10.825   3.700 -2.0647 -0.1746 -1.4742
22973SOL     OW75010   9.436   4.353   0.861 -0.0827  0.6388 -0.6432
22973SOL    HW175011   9.509   4.328   0.918  1.2185  0.8245 -2.1551
22973SOL    HW275012   9.464   4.435   0.821 -2.7920  2.8363  1.5617
22974SOL     OW75013  10.849   3.481   8.067 -0.0565 -0.1558 -0.3144
22974SOL    HW175014  10.777   3.443   8.017 -0.6374  0.6069 -0.0813
22974SOL    HW275015  10.881   3.553   8.013 -0.5868  0.5772  0.3165
22975SOL     OW75016   6.660   7.609   5.589  0.3802  0.5873  0.9513
22975SOL    HW175017   6.753   7.628   5.582 -0.1096  3.3029  0.6747
22975SOL    HW275018   6.653   7.548   5.663  2.3245  0.5588  1.1539
22976SOL     OW75019   8.905   0.544   6.317 -0.1169 -0.4195 -0.4185
22976SOL    HW175020   8.843   0.523   6.387  2.0002 -0.9314  1.4379
22976SOL    HW275021   8.962   0.611   6.355 -1.2754  2.3297 -3.1243
22977SOL     OW75022   8.224   4.176   8.696  0.5051  0.4170  0.9743
22977SOL    HW175023   8.154   4.188   8.631 -0.0033 -0.4755  1.3436
22977SOL    HW275024   8.215   4.085   8.724  2.3180  0.0564  0.4563
22978SOL     OW75025   8.295   4.325   6.112  0.4711  0.3510  0.3642
22978SOL    HW175026   8.350   4.260   6.070 -0.8171 -0.9912  0.6750
22978SOL    HW275027   8.244   4.276   6.177 -0.0179  1.7866  1.1142
22979SOL     OW75028   7.202   3.400   1.379  0.3215 -0.0127 -0.1257
22979SOL    HW175029   7.293   3.420   1.402 -0.1259 -0.3529  2.1921
22979SOL    HW275030   7.169   3.481   1.342  1.2096  0.5381  0.2373
22980SOL     OW75031   3.941   9.282   9.787 -0.1840 -0.5335  0.0530
22980SOL    HW175032   3.887   9.217   9.831 -0.2832 -0.4397  0.0680
22980SOL    HW275033   3.880   9.348   9.755  0.0669  0.6273  1.8310
22981SOL     OW75034   4.894   2.500   7.982  0.6259  0.4107 -0.2744
22981SOL    HW175035   4.969   2.457   8.022  0.1915 -0.2812 -0.1919
22981SOL    HW275036   4.836   2.429   7.956  0.9399  0.8076 -2.2762
22982SOL     OW75037   3.238   4.901   9.975 -0.6109  0.4462 -0.4624
22982SOL    HW175038   3.171   4.958   9.938 -1.0695  0.3156  0.1550
22982SOL    HW275039   3.275   4.952  10.047 -1.1762 -0.1105  0.2368
22983SOL     OW75040   3.654   9.481   2.035 -0.1558 -0.7034  0.5452
22983SOL    HW175041   3.676   9.573   2.020  0.0339 -0.7540  0.5076
22983SOL    HW275042   3.559   9.480   2.045 -0.1608 -0.5072  0.5174
22984SOL     OW75043   8.808   4.355   0.149  0.1780 -0.4407 -0.9066
22984SOL    HW175044   8.845   4.267   0.140  1.6275  0.1728 -1.3533
22984SOL    HW275045   8.714   4.343   0.143  0.4049 -1.8155 -2.2613
22985SOL     OW75046   7.358   2.685   2.033  0.0594 -0.1028 -0.3314
22985SOL    HW175047   7.274   2.673   1.989  0.0208  2.7831 -1.2169
22985SOL    HW275048   7.377   2.778   2.025  2.5577 -0.3584  1.3393
22986SOL     OW75049   8.685   3.624   6.949 -0.5987  0.1131  0.3186
22986SOL    HW175050   8.750   3.592   6.886  0.5927  2.4462  0.2669
22986SOL    HW275051   8.602   3.586   6.920  0.0796  0.3601 -2.0901
22987SOL     OW75052   9.786   1.918   3.062 -0.3583  0.2865  0.4329
22987SOL    HW175053   9.812   2.008   3.081 -0.5601  0.6842 -1.0203
22987SOL    HW275054   9.854   1.885   3.002 -1.3103  0.1502 -0.6040
22988SOL     OW75055   8.786   1.065   7.684 -0.0871 -0.3439 -0.0808
22988SOL    HW175056   8.709   1.031   7.638 -0.1971  0.3708 -0.4384
22988SOL    HW275057   8.860   1.020   7.643 -0.3780 -2.7165  1.7143
22989SOL     OW75058   9.500   9.726   8.813 -0.5660 -0.3481 -0.5850
22989SOL    HW175059   9.584   9.702   8.774 -0.4581  1.6682 -1.7622
22989SOL    HW275060   9.472   9.648   8.859  1.8882 -1.1364 -0.2637
22990SOL     OW75061   1.947   2.195   3.521  0.5816  0.0373 -0.2918
22990SOL    HW175062   1.880   2.216   3.456  1.8530  1.8151 -1.0856
22990SOL    HW275063   1.993   2.120   3.485 -0.1550 -0.4103 -0.3337
22991SOL     OW75064   8.279   0.258   3.636  0.3723  0.5153 -0.2117
22991SOL    HW175065   8.231   0.179   3.613 -0.1502  1.2558 -1.8510
22991SOL    HW275066   8.218   0.310   3.687 -0.2409  1.0091 -1.4203
22992SOL     OW75067   4.939   4.933   6.386  0.5283  0.8058  0.5061
22992SOL    HW175068   4.902   4.933   6.474  0.5365  1.3315  0.5094
22992SOL    HW275069   4.914   5.017   6.349  0.1493  0.4146 -0.1519
22993SOL     OW75070   4.214   0.888   8.054 -0.3790  0.7360  0.1024
22993SOL    HW175071   4.188   0.837   8.130  1.9937 -0.6796  0.0626
22993SOL    HW275072   4.309   0.900   8.064  0.0789  0.1763 -2.7733
22994SOL     OW75073   2.892   3.621   1.793  0.2993  0.5766  0.0239
22994SOL    HW175074   2.927   3.547   1.843 -0.0879  0.9451  0.8696
22994SOL    HW275075   2.805   3.593   1.766  0.9986 -0.1211 -1.5872
22995SOL     OW75076   4.853   0.567   2.097  0.1668 -0.0908 -0.5648
22995SOL    HW175077   4.819   0.488   2.140 -0.9998  0.9065  0.4255
22995SOL    HW275078   4.896   0.616   2.167 -0.7438  1.0137 -0.7390
22996SOL     OW75079   3.887   2.415   8.785 -0.5788  0.1418  0.0067
22996SOL    HW175080   3.964   2.368   8.752  0.6504  0.3480  2.3294
22996SOL    HW275081   3.813   2.359   8.765  0.5187 -1.3985  0.1181
22997SOL     OW75082  10.208   0.043   3.159  0.0345  0.1033  0.7287
22997SOL    HW175083  10.126   0.091   3.172  0.9914  1.2450  2.9559
22997SOL    HW275084  10.268   0.079   3.224  1.7868 -1.9568  0.3570
22998SOL     OW75085   2.655   0.975   6.070 -0.2146 -0.5525  0.1434
22998SOL    HW175086   2.650   0.986   6.165 -1.9912 -0.3085  0.0454
22998SOL    HW275087   2.670   0.882   6.057 -0.0855 -0.6053  0.6603
22999SOL     OW75088   7.067   2.546  10.848 -0.5838 -0.4700  0.2470
22999SOL    HW175089   7.107   2.511  10.769 -0.7476 -0.0855 -0.0079
22999SOL    HW275090   6.985   2.586  10.819 -0.4898 -0.0381  0.5556
23000SOL     OW75091   6.433   3.435   9.987 -0.0158 -0.3989  0.1920
23000SOL    HW175092   6.505   3.436   9.924  1.9731  1.9174  2.2873
23000SOL    HW275093   6.405   3.526   9.993 -0.5186 -0.6325  2.1883
23001SOL     OW75094   6.099   1.714   8.631  0.0548 -0.3316  0.0260
23001SOL    HW175095   6.063   1.788   8.680 -0.3089 -1.0215  0.8055
23001SOL    HW275096   6.159   1.672   8.692 -0.5020 -1.2759 -0.0693
23002SOL     OW75097  10.863   3.465   4.201  0.0975 -0.1828 -0.1025
23002SOL    HW175098  10.900   3.496   4.284  0.0626 -1.3543  0.3736
23002SOL    HW275099  10.907   3.381   4.186 -1.2320 -0.8715 -0.3098
23003SOL     OW75100  10.144   8.100   8.510  0.5829  0.3068 -0.2795
23003SOL    HW175101  10.158   8.192   8.532  1.2418 -0.2373  1.8003
23003SOL    HW275102  10.058   8.080   8.548 -0.1334  0.3404 -1.8036
23004SOL     OW75103  10.262  10.065   2.250 -0.4528  0.4617  0.1638
23004SOL    HW175104  10.282   9.972   2.254 -0.2158  0.3285 -2.4452
23004SOL    HW275105  10.182  10.075   2.303 -0.3480 -1.1591  0.6779
23005SOL     OW75106   4.233   1.431   1.246 -0.3124  0.1585  0.1115
23005SOL    HW175107   4.152   1.465   1.208 -0.3906  0.2212  0.3353
23005SOL    HW275108   4.277   1.388   1.173 -0.2693  0.6332 -0.1462
23006SOL     OW75109   3.432   4.616  10.227  0.3331 -0.3350  0.1847
23006SOL    HW175110   3.511   4.650  10.267  1.0475  0.1763 -1.5600
23006SOL    HW275111   3.444   4.631  10.133 -1.5173 -0.9009 -0.1909
23007SOL     OW75112   2.098   1.495  10.391  0.2316  0.3863  0.6768
23007SOL    HW175113   2.172   1.510  10.450 -0.6724  1.3405  1.6139
23007SOL    HW275114   2.123   1.417  10.341  2.0332  0.9259  0.6742
23008SOL     OW75115   0.336   5.635   3.893 -0.2452 -1.1856  0.1017
23008SOL    HW175116   0.326   5.716   3.843  0.5129 -1.3336 -0.3004
23008SOL    HW275117   0.275   5.574   3.851 -0.1117 -1.1074 -0.2100
23009SOL     OW75118   3.908   2.151   4.452  0.1775 -0.4558 -0.1130
23009SOL    HW175119   3.832   2.159   4.508  0.0308 -2.3829 -0.0006
23009SOL    HW275120   3.910   2.060   4.424  2.2475 -0.3941 -0.3905
23010SOL     OW75121   4.287   6.282   4.007  0.1987 -0.7113  0.0020
23010SOL    HW175122   4.194   6.261   4.011 -0.1495  0.0412 -2.3053
23010SOL    HW275123   4.330   6.198   3.993 -0.0982 -1.0800  1.2052
23011SOL     OW75124  10.145   2.982   2.389 -0.4566 -0.3846  0.1186
23011SOL    HW175125  10.227   2.958   2.344  0.5524 -2.3892  2.7352
23011SOL    HW275126  10.161   3.070   2.422  0.6437 -0.6824  0.4571
23012SOL     OW75127   0.335   8.344   5.318  0.4706 -0.1297 -0.3143
23012SOL    HW175128   0.377   8.305   5.394 -0.2516 -1.0380 -0.3651
23012SOL    HW275129   0.324   8.271   5.257 -0.2410  0.2965 -0.7093
23013SOL     OW75130   6.387   6.103   9.315  0.4313 -0.3577 -0.5743
23013SOL    HW175131   6.420   6.092   9.404 -2.1814 -0.7420  0.4334
23013SOL    HW275132   6.311   6.046   9.310  0.2784 -0.0573 -2.9537
23014SOL     OW75133   3.031   1.974   5.557  0.6050 -0.6647 -0.6933
23014SOL    HW175134   3.032   1.988   5.462  0.9784 -0.3206 -0.6379
23014SOL    HW275135   2.940   1.995   5.583  0.4816 -0.8407 -0.9853
23015SOL     OW75136   1.327   7.344   6.719 -0.1302  0.1458 -0.9042
23015SOL    HW175137   1.298   7.253   6.704  0.5255 -0.2583  0.1561
23015SOL    HW275138   1.362   7.372   6.635  1.9905 -1.4817 -0.6407
23016SOL     OW75139   3.775   8.887  10.444 -0.2355  0.5960 -0.5810
23016SOL    HW175140   3.844   8.925  10.390  0.6920  0.1730  0.2703
23016SOL    HW275141   3.708   8.956  10.450  0.0340  0.9527 -1.5434
23017SOL     OW75142   7.161   8.417   6.727 -0.3495  0.1831 -0.3541
23017SOL    HW175143   7.130   8.406   6.638 -0.5941  1.8403 -0.5052
23017SOL    HW275144   7.110   8.490   6.762  1.0106  0.7858  0.4977
23018SOL     OW75145   4.148   9.470   5.943  0.7460  0.3213 -0.2435
23018SOL    HW175146   4.064   9.425   5.934 -0.1695  1.9721 -0.4795
23018SOL    HW275147   4.209   9.420   5.889  0.0877 -1.2964  0.4774
23019SOL     OW75148   6.403   8.597   1.691  0.2227 -0.6352  0.6040
23019SOL    HW175149   6.460   8.672   1.705 -1.2281  0.4847  0.7314
23019SOL    HW275150   6.383   8.565   1.779 -2.4393  1.4275  0.8605
23020SOL     OW75151   8.703   0.343   2.768 -0.1865 -0.1696 -0.1316
23020SOL    HW175152   8.778   0.339   2.827 -0.0132  0.5350 -0.3000
23020SOL    HW275153   8.675   0.251   2.758  1.4871 -0.6097 -1.1496
23021SOL     OW75154   4.088   5.838   7.304  0.4186  0.0953 -0.5163
23021SOL    HW175155   4.072   5.931   7.291 -0.2282 -0.0244 -0.5995
23021SOL    HW275156   4.082   5.825   7.399  0.1862  0.0801 -0.5334
23022SOL     OW75157   2.031   5.635   2.857 -0.3952  0.1845  0.5106
23022SOL    HW175158   1.951   5.687   2.847 -1.1785 -1.1019 -0.3973
23022SOL    HW275159   2.045   5.630   2.951 -0.8959  1.1355  0.6520
23023SOL     OW75160   5.337   0.783   5.752  0.1661 -0.2773 -0.6237
23023SOL    HW175161   5.362   0.830   5.831  1.5940 -3.8756  1.2718
23023SOL    HW275162   5.256   0.739   5.776 -0.4609  0.1224 -1.9157
23024SOL     OW75163   6.600   9.685   9.523  0.1621 -0.1772 -0.4077
23024SOL    HW175164   6.580   9.775   9.499  1.4718  1.0351  2.5808
23024SOL    HW275165   6.531   9.660   9.584  1.2876 -0.1232  0.9469
23025SOL     OW75166   6.555   7.964  10.239  0.5201  0.5199 -0.0982
23025SOL    HW175167   6.560   7.926  10.326  0.0413  0.6004 -0.0328
23025SOL    HW275168   6.553   7.889  10.179 -0.8698  0.4129  0.0522
23026SOL     OW75169   2.917   7.252   9.956  0.1510 -0.1577 -0.4617
23026SOL    HW175170   2.852   7.315   9.988  0.6905  0.5843 -0.8004
23026SOL    HW275171   2.880   7.218   9.875  0.7663  1.2972 -1.4060
23027SOL     OW75172   7.192   9.670  10.436 -0.0155 -0.2525  0.2491
23027SOL    HW175173   7.161   9.733  10.501  0.2299  1.5306 -1.2569
23027SOL    HW275174   7.280   9.700  10.415 -0.0367 -0.8755 -0.7759
23028SOL     OW75175   9.933   3.444   4.890 -0.0908  0.7789  0.3616
23028SOL    HW175176   9.887   3.455   4.974 -1.1620  1.3466 -0.2720
23028SOL    HW275177  10.002   3.510   4.892  0.8438 -0.2004  1.4079
23029SOL     OW75178   3.116   4.945   2.883  0.1409 -0.8465  0.0126
23029SOL    HW175179   3.117   4.892   2.803  0.0530 -1.6345  0.5309
23029SOL    HW275180   3.030   4.986   2.883 -0.0268 -1.2031 -0.0549
23030SOL     OW75181   3.815   1.344   6.816 -0.6848 -1.0730 -0.2321
23030SOL    HW175182   3.805   1.312   6.906 -1.7390 -0.8861 -0.2655
23030SOL    HW275183   3.746   1.410   6.807  0.5141  0.1574 -0.6274
23031SOL     OW75184   4.854   2.958  10.475  0.4008  0.4191  0.4938
23031SOL    HW175185   4.773   2.930  10.516  1.5948 -0.2865  2.4913
23031SOL    HW275186   4.843   3.052  10.460 -1.6903 -0.0546 -1.6194
23032SOL     OW75187  10.063   5.207   1.569  0.1436  0.0954 -0.1204
23032SOL    HW175188  10.064   5.164   1.484  0.3340 -0.6416  0.2485
23032SOL    HW275189  10.008   5.151   1.624  0.8194  0.0278  0.5106
23033SOL     OW75190   1.467   2.680   4.833  0.0785 -0.8646  0.3360
23033SOL    HW175191   1.396   2.616   4.836  0.1169 -0.8785  1.4326
23033SOL    HW275192   1.482   2.694   4.740  0.3638 -2.7828  0.0388
23034SOL     OW75193   3.283   7.526  10.552 -0.2712 -0.0621  0.5560
23034SOL    HW175194   3.278   7.430  10.553  0.4958 -0.1111  1.2266
23034SOL    HW275195   3.284   7.550  10.645  2.0992  0.4011  0.4883
23035SOL     OW75196   8.242   1.780   0.115  0.1163  0.2438  0.1571
23035SOL    HW175197   8.337   1.770   0.110  0.2459  1.1249  0.6883
23035SOL    HW275198   8.226   1.872   0.095 -0.4964  0.4710  1.5770
23036SOL     OW75199   6.270   3.012   6.572  0.2559 -0.1020  0.3435
23036SOL    HW175200   6.310   2.968   6.647  1.7933  1.7853  0.6895
23036SOL    HW275201   6.326   2.987   6.498  1.0074  1.0167  0.5056
23037SOL     OW75202   7.146   2.227   0.775  0.0800  0.3542  0.3999
23037SOL    HW175203   7.189   2.144   0.753  0.0498  0.5202 -0.2791
23037SOL    HW275204   7.063   2.201   0.814  0.1162  0.0674  0.2910
23038SOL     OW75205   5.733   8.442   5.335  0.0448  0.3730  0.0652
23038SOL    HW175206   5.795   8.471   5.401 -0.4211  0.2935  0.5433
23038SOL    HW275207   5.784   8.439   5.254  0.7676 -0.0834  0.5252
23039SOL     OW75208   0.548   7.919  10.173 -0.0979  0.0826  0.0127
23039SOL    HW175209   0.496   7.866  10.112 -1.6188  1.3232  0.1784
23039SOL    HW275210   0.573   7.996  10.123  2.5161 -0.9060 -0.3754
23040SOL     OW75211   4.174   4.597   1.883 -0.4025  0.1287 -0.3087
23040SOL    HW175212   4.164   4.621   1.975 -1.6965  0.3185 -0.4779
23040SOL    HW275213   4.088   4.612   1.845  0.3772  1.0298 -1.7899
23041SOL     OW75214   5.930   6.733   4.320  0.0116 -0.5414  0.3037
23041SOL    HW175215   5.940   6.828   4.314 -1.5551 -0.3911 -0.4091
23041SOL    HW275216   5.904   6.717   4.411  0.1628 -0.2871  0.3910
23042SOL     OW75217   0.906   0.257   7.394 -0.6878  0.2233  0.2815
23042SOL    HW175218   0.893   0.180   7.338  0.3667 -0.2485  0.6554
23042SOL    HW275219   0.855   0.326   7.352 -2.3966 -0.8889  0.4304
23043SOL     OW75220   2.619   1.456   6.079 -0.1790 -0.2947 -0.2246
23043SOL    HW175221   2.606   1.542   6.120  1.5388 -0.4703  0.8032
23043SOL    HW275222   2.709   1.459   6.047  0.3729 -2.1596  1.0223
23044SOL     OW75223   2.528   2.164   0.470  0.3716 -0.0779  0.0312
23044SOL    HW175224   2.433   2.159   0.482  0.2330  1.8134  0.0786
23044SOL    HW275225   2.546   2.107   0.396 -0.8977 -0.0035 -0.3549
23045SOL     OW75226   7.797  10.840   7.839  1.1526  0.1379  0.7091
23045SOL    HW175227   7.755  10.785   7.773 -1.3211  1.4592  1.0303
23045SOL    HW275228   7.837  10.911   7.789  1.3002 -0.0958  0.4945
23046SOL     OW75229   7.714   7.779   1.093  0.0662  0.2001 -0.2901
23046SOL    HW175230   7.741   7.688   1.081  0.2916  0.3728 -1.1130
23046SOL    HW275231   7.771   7.830   1.036  1.4928  1.1357  1.8317
23047SOL     OW75232   2.882   3.801   7.067  0.4102 -0.4865  0.4425
23047SOL    HW175233   2.896   3.857   7.143  1.4868  0.3210 -0.3235
23047SOL    HW275234   2.870   3.713   7.104  0.6802 -0.0681  1.5508
23048SOL     OW75235   8.756  10.342   6.711  0.3932  0.0799 -0.3931
23048SOL    HW175236   8.842  10.302   6.703  0.0137 -0.9699  0.5410
23048SOL    HW275237   8.762  10.396   6.790 -0.3806 -1.6579  0.9358
23049SOL     OW75238   8.954   6.354  10.090  0.4274  0.2239 -0.7446
23049SOL    HW175239   8.977   6.415  10.020 -0.8714 -0.6455 -1.9818
23049SOL    HW275240   8.868   6.320  10.066  0.4499 -0.9819  0.6771
23050SOL     OW75241   4.661   3.613   1.827  0.0935 -0.1781 -0.0982
23050SOL    HW175242   4.589   3.639   1.884 -1.1526  0.2285 -1.8076
23050SOL    HW275243   4.701   3.696   1.800 -0.2960 -0.2736 -1.0097
23051SOL     OW75244   1.314   7.882   2.262 -0.1918 -0.0930  1.0151
23051SOL    HW175245   1.277   7.933   2.334  1.1819  1.2621  0.8047
23051SOL    HW275246   1.263   7.908   2.186  1.2477  1.9782  0.6739
23052SOL     OW75247   8.584   2.099   0.303 -0.4415 -0.4001 -0.3602
23052SOL    HW175248   8.534   2.178   0.326  0.4454 -0.4679  2.1469
23052SOL    HW275249   8.635   2.079   0.382  2.0275 -1.4933 -2.0828
23053SOL     OW75250   6.634   7.475   4.695 -0.7973  0.3343 -0.1361
23053SOL    HW175251   6.542   7.488   4.717 -0.4668  0.0580  1.5752
23053SOL    HW275252   6.680   7.540   4.749  0.0417  0.1486 -0.6155
23054SOL     OW75253   8.242   7.247   7.680  0.2560 -0.1598 -0.2749
23054SOL    HW175254   8.194   7.321   7.642 -0.1241 -0.0661  0.3796
23054SOL    HW275255   8.262   7.191   7.605  0.0757  0.3388 -0.7034
23055SOL     OW75256   9.777   9.916   1.125  0.0520  0.0557 -0.6423
23055SOL    HW175257   9.855   9.957   1.161  0.4176 -0.2786 -1.0394
23055SOL    HW275258   9.757   9.967   1.046 -0.0254  0.0287 -0.6409
23056SOL     OW75259  10.046   9.451   9.775  0.0779 -0.3085 -0.1654
23056SOL    HW175260  10.000   9.454   9.691  1.8640  1.8293 -1.1622
23056SOL    HW275261  10.061   9.358   9.791  1.0038 -0.7355 -3.0015
23057SOL     OW75262   5.420   6.383  10.477  0.0679 -0.1429 -0.2915
23057SOL    HW175263   5.358   6.379  10.404  0.5875  0.3451 -0.7615
23057SOL    HW275264   5.414   6.473  10.508  1.3252  0.2144 -1.0337
23058SOL     OW75265   3.824   0.363   7.654 -0.1857  0.5514 -0.2557
23058SOL    HW175266   3.792   0.450   7.630  0.2215  1.2663  1.6118
23058SOL    HW275267   3.917   0.365   7.631 -0.3706  0.2629 -1.0596
23059SOL     OW75268   5.106   9.237   7.417  0.1789 -0.1900 -0.3116
23059SOL    HW175269   5.191   9.227   7.376  0.3373  1.6859 -0.5326
23059SOL    HW275270   5.047   9.261   7.346 -0.1308  0.3245  0.1067
23060SOL     OW75271   9.857   9.602   3.604  0.6641 -0.5271 -0.1360
23060SOL    HW175272   9.871   9.635   3.693 -2.1179  0.1768  0.1148
23060SOL    HW275273   9.924   9.646   3.551  0.2243  1.6671  1.0556
23061SOL     OW75274   2.391   1.649   3.966  0.1054 -0.1194 -0.2244
23061SOL    HW175275   2.353   1.684   4.046 -1.5279 -2.4592  0.1458
23061SOL    HW275276   2.358   1.559   3.962  1.1069 -0.4506 -2.9144
23062SOL     OW75277   8.512  10.655   1.133 -0.4023 -0.3875  0.3326
23062SOL    HW175278   8.558  10.677   1.215 -0.2361 -0.3098  0.2198
23062SOL    HW275279   8.579  10.612   1.080 -1.0550 -2.4760  1.0854
23063SOL     OW75280   8.154   1.016   2.669 -0.7057  0.6481 -0.2952
23063SOL    HW175281   8.096   1.019   2.592 -0.4925 -1.4739 -0.5900
23063SOL    HW275282   8.107   0.962   2.732  0.8268 -0.9953 -0.4829
23064SOL     OW75283   7.911   8.808   3.553 -0.8051  0.1997  0.4336
23064SOL    HW175284   7.920   8.713   3.554  1.2986  0.3230 -0.9044
23064SOL    HW275285   7.884   8.829   3.464 -3.1736  0.7877  1.2157
23065SOL     OW75286   6.237   2.556   1.518  0.0944  0.2209 -0.0384
23065SOL    HW175287   6.298   2.604   1.462 -0.0256  0.0987 -0.2780
23065SOL    HW275288   6.184   2.504   1.456  2.0491 -2.4286  0.3203
23066SOL     OW75289   1.626   3.314   0.407  0.5657 -0.9008  0.3401
23066SOL    HW175290   1.692   3.262   0.362  0.7589 -2.2387  2.0542
23066SOL    HW275291   1.592   3.374   0.340  1.4019 -2.2149 -1.3244
23067SOL     OW75292  10.191   4.390   0.060  0.4211 -0.3065  0.1733
23067SOL    HW175293  10.127   4.455   0.029 -1.2044 -0.7740  2.3361
23067SOL    HW275294  10.228   4.353  -0.021  0.5735  2.4623 -1.1179
23068SOL     OW75295   9.509   7.585   9.003 -0.1162  0.4592  0.1708
23068SOL    HW175296   9.541   7.605   9.091  0.9968 -1.3277  0.2239
23068SOL    HW275297   9.430   7.533   9.018 -2.1423  3.2502  0.0344
23069SOL     OW75298   2.260   0.111  10.096  0.1133 -0.2660  0.0328
23069SOL    HW175299   2.349   0.120  10.063 -0.1826 -0.4165 -0.8331
23069SOL    HW275300   2.267   0.128  10.190  0.9549  0.2903 -0.1238
23070SOL     OW75301   8.456   4.591   0.163 -0.5106 -0.0616  0.4556
23070SOL    HW175302   8.510   4.518   0.133 -1.0767 -0.1795 -0.2862
23070SOL    HW275303   8.506   4.669   0.139 -0.4065 -0.1775  0.2964
23071SOL     OW75304   8.396   3.943  10.303  0.2215 -0.1343  0.3521
23071SOL    HW175305   8.343   4.020  10.282 -1.9393 -1.5778  0.2083
23071SOL    HW275306   8.430   3.913  10.219 -0.6301 -0.4974  0.1301
23072SOL     OW75307   1.180   3.889   8.412  0.1644 -0.0916 -0.2078
23072SOL    HW175308   1.266   3.870   8.373 -0.3336 -2.2524 -0.3684
23072SOL    HW275309   1.131   3.932   8.341 -0.1051 -2.2850 -1.4411
23073SOL     OW75310   4.959   0.399   0.167 -0.3568 -0.1545  0.2034
23073SOL    HW175311   4.905   0.322   0.187 -0.1302 -0.2714  0.3765
23073SOL    HW275312   4.925   0.431   0.084  0.0180 -0.8784 -0.2450
23074SOL     OW75313   2.953   3.433   2.607 -0.0884 -0.2417  0.1828
23074SOL    HW175314   2.858   3.434   2.617 -0.3966  0.0020 -2.2740
23074SOL    HW275315   2.979   3.525   2.609  0.1558 -0.3130  1.0087
23075SOL     OW75316  10.858   9.309   6.501 -0.0412 -0.0564 -0.1024
23075SOL    HW175317  10.831   9.292   6.411  0.1105  1.6766 -0.5080
23075SOL    HW275318  10.802   9.381   6.530  1.6951  1.2213  0.2448
23076SOL     OW75319   1.866   6.981   5.050 -0.2821  0.2303  0.1054
23076SOL    HW175320   1.938   7.009   5.106 -0.6163 -0.1926  0.7518
23076SOL    HW275321   1.788   7.022   5.088 -0.4444  0.3382 -0.3384
23077SOL     OW75322   6.011   7.252   7.457  0.1264 -0.3536  0.2623
23077SOL    HW175323   5.965   7.230   7.375 -0.7899  2.1909  0.0004
23077SOL    HW275324   5.967   7.199   7.524 -0.5692 -0.8590 -0.5661
23078SOL     OW75325   2.825   2.759  10.438  0.1381  0.5993  0.1241
23078SOL    HW175326   2.841   2.725  10.526  1.1123  0.1951 -0.2028
23078SOL    HW275327   2.911   2.760  10.396 -0.4925 -0.5322 -1.2902
23079SOL     OW75328   6.549   3.305   4.262 -0.1342 -0.4380 -0.2058
23079SOL    HW175329   6.600   3.361   4.204 -0.8026 -0.3686 -0.7336
23079SOL    HW275330   6.580   3.216   4.244  0.6971 -0.2845  0.3986
23080SOL     OW75331   9.490   1.885   3.572  0.3113 -0.1002  0.2634
23080SOL    HW175332   9.488   1.939   3.651  0.0222 -0.3756  0.4474
23080SOL    HW275333   9.582   1.886   3.545  0.3472  0.2889  0.3997
23081SOL     OW75334   6.646   7.485   8.882  0.1761  0.0406  0.2561
23081SOL    HW175335   6.601   7.536   8.950 -0.9989 -0.7021  0.0641
23081SOL    HW275336   6.673   7.404   8.926 -2.0069 -1.1583 -0.4817
23082SOL     OW75337   7.381   4.321   0.353  1.2671  0.2214  0.3604
23082SOL    HW175338   7.307   4.263   0.371  1.3618  0.4140  1.4548
23082SOL    HW275339   7.351   4.407   0.383  1.5062  0.5330 -0.2848
23083SOL     OW75340   0.405   0.749   1.903 -0.3168  0.0211 -0.4041
23083SOL    HW175341   0.499   0.753   1.925 -0.7662  0.0979  1.7103
23083SOL    HW275342   0.401   0.690   1.828  1.4121 -0.0461 -0.4969
23084SOL     OW75343   0.077  10.051   3.270 -0.2448 -0.0004 -0.0435
23084SOL    HW175344   0.023  10.011   3.202 -0.1084 -0.7177  0.2594
23084SOL    HW275345   0.050  10.007   3.351 -0.7903  1.2135  0.4681
23085SOL     OW75346   8.628   7.292   2.497  0.3290 -0.6270 -0.0417
23085SOL    HW175347   8.576   7.360   2.540 -0.8737 -2.0209  0.7909
23085SOL    HW275348   8.698   7.272   2.560  1.3061  0.5188 -0.7230
23086SOL     OW75349   8.454   2.191   6.562  0.3500 -0.1822  0.3451
23086SOL    HW175350   8.373   2.206   6.514  0.0902  0.4936  0.9845
23086SOL    HW275351   8.459   2.096   6.573  0.1089 -0.2985 -0.4755
23087SOL     OW75352   6.683   4.429   3.890 -0.2235  0.7901  0.4111
23087SOL    HW175353   6.625   4.452   3.963 -1.5867 -2.0704  0.3517
23087SOL    HW275354   6.768   4.467   3.914 -0.8073  0.5892  3.1105
23088SOL     OW75355   2.981   1.555  10.005  0.6641 -0.2119  0.5924
23088SOL    HW175356   3.053   1.559   9.942  0.8591  0.4180  0.8535
23088SOL    HW275357   3.017   1.509  10.080  0.3165 -1.3118  0.1047
23089SOL     OW75358  10.929   7.319   7.183  0.4072  0.4087  0.1918
23089SOL    HW175359  10.873   7.397   7.177 -0.1510 -0.0814 -1.3998
23089SOL    HW275360  10.926   7.295   7.276 -1.2275  0.9692  0.3185
23090SOL     OW75361   8.741   1.611   3.428 -0.0965 -0.2971  0.7105
23090SOL    HW175362   8.794   1.636   3.504  0.7632 -1.5392  0.5532
23090SOL    HW275363   8.727   1.517   3.439 -0.0026 -0.4853 -0.6334
23091SOL     OW75364   6.094  10.198   3.238 -0.4086  0.1358 -0.3458
23091SOL    HW175365   6.128  10.163   3.320  0.0010  1.0354 -0.1208
23091SOL    HW275366   6.005  10.163   3.232 -0.7204  0.6635  0.8678
23092SOL     OW75367   0.379   8.806   4.155  0.5817 -0.2274 -0.1861
23092SOL    HW175368   0.361   8.723   4.110  1.8531 -0.9523  0.5934
23092SOL    HW275369   0.309   8.812   4.221 -0.5098  0.1849 -1.3545
23093SOL     OW75370   0.087   6.082   9.703  0.3861  0.1831  0.4499
23093SOL    HW175371   0.022   6.013   9.694 -1.3191  1.3455  2.8459
23093SOL    HW275372   0.066   6.145   9.634  1.2002 -1.0329 -0.9681
23094SOL     OW75373   2.736   9.973   3.462  0.0860 -0.3623  0.4902
23094SOL    HW175374   2.772   9.959   3.550  1.1258  1.5452  0.4266
23094SOL    HW275375   2.697  10.061   3.466  1.0223  0.1708 -1.2043
23095SOL     OW75376   2.353   6.545   5.838 -0.0312 -0.2711 -0.6411
23095SOL    HW175377   2.356   6.639   5.856  0.4928 -0.4563  0.2922
23095SOL    HW275378   2.397   6.505   5.913 -0.7551 -1.3022 -0.7501
23096SOL     OW75379  10.654   3.667   2.463  0.1697 -0.0175 -0.3803
23096SOL    HW175380  10.714   3.656   2.538  0.1531  0.1985 -0.3331
23096SOL    HW275381  10.710   3.703   2.394  0.0769  0.2700 -0.3076
23097SOL     OW75382   9.472   7.079  10.359 -0.3398 -0.3424 -0.0027
23097SOL    HW175383   9.562   7.051  10.375 -0.3162  0.7822  2.1451
23097SOL    HW275384   9.477   7.132  10.279  0.6225 -1.4062 -0.6868
23098SOL     OW75385   7.170   7.559   2.690 -0.4291  0.3323 -0.2733
23098SOL    HW175386   7.082   7.597   2.692 -0.8594 -0.6416 -0.3893
23098SOL    HW275387   7.171   7.495   2.761  0.7046  1.4054  0.7296
23099SOL     OW75388   9.552   9.932   9.576  0.3417 -0.0212  0.2087
23099SOL    HW175389   9.525   9.985   9.651 -2.3419 -2.8047  1.4589
23099SOL    HW275390   9.485   9.948   9.509  0.1532 -0.8699  0.1709
23100SOL     OW75391   1.579   8.811   9.509  0.2064 -0.0961  0.2144
23100SOL    HW175392   1.634   8.880   9.472  2.1142 -1.2609  0.7185
23100SOL    HW275393   1.638   8.763   9.568 -1.3473 -1.4730  0.7185
23101SOL     OW75394  10.163  10.679   8.844 -0.1589 -0.0473 -0.1214
23101SOL    HW175395  10.175  10.628   8.763  1.1011  0.1905 -0.1132
23101SOL    HW275396  10.252  10.688   8.879 -0.6391  0.2187  1.0752
23102SOL     OW75397   1.110   6.366   4.420  0.9550  0.3241 -0.7581
23102SOL    HW175398   1.198   6.330   4.424  1.2878  1.2187  0.5958
23102SOL    HW275399   1.102   6.420   4.499 -0.3365  1.3189 -1.5213
23103SOL     OW75400   2.825   5.795  10.732 -0.4342  0.2473  0.5201
23103SOL    HW175401   2.892   5.861  10.715 -0.5014  0.2793  0.3696
23103SOL    HW275402   2.869   5.712  10.714 -0.8084  0.3266 -0.9237
23104SOL     OW75403   2.110   5.948   8.067 -0.3285  0.3725  0.0289
23104SOL    HW175404   2.146   5.945   7.978 -0.6770 -0.8925 -0.0857
23104SOL    HW275405   2.184   5.925   8.123 -0.6526 -1.0771 -0.1183
23105SOL     OW75406   5.577   4.723   0.943  0.4306  0.3214  0.2293
23105SOL    HW175407   5.526   4.654   0.901 -0.4206  0.6698  0.6587
23105SOL    HW275408   5.559   4.714   1.036  1.5752  0.1344  0.4446
23106SOL     OW75409   4.379   3.913   3.291  0.7064 -0.0323  0.7374
23106SOL    HW175410   4.427   3.957   3.362 -0.4938 -0.2992  1.7372
23106SOL    HW275411   4.442   3.912   3.219  2.0891 -0.0351  1.8741
23107SOL     OW75412   6.115   6.561   9.722 -0.2965 -0.1331 -0.6629
23107SOL    HW175413   6.123   6.656   9.709 -0.4088  0.1359  0.9741
23107SOL    HW275414   6.174   6.523   9.657 -0.2793  1.0505 -1.3757
23108SOL     OW75415   0.802   8.147   9.630  0.4193  0.0087 -0.3697
23108SOL    HW175416   0.842   8.099   9.559  1.3954 -1.5671  1.1606
23108SOL    HW275417   0.792   8.083   9.700 -0.0244  1.5897  1.1030
23109SOL     OW75418   2.553   3.043   8.261 -0.2934 -0.3737 -0.1583
23109SOL    HW175419   2.604   2.962   8.262  0.9768  0.4091 -0.8258
23109SOL    HW275420   2.491   3.031   8.189  1.6605  0.2887 -2.0343
23110SOL     OW75421   1.827   2.706   0.233  0.1291 -0.3860  0.0319
23110SOL    HW175422   1.752   2.740   0.185  0.4248 -1.7697 -1.4727
23110SOL    HW275423   1.871   2.784   0.266 -0.4229  0.5890 -1.4313
23111SOL     OW75424   5.768   9.500   3.661 -0.5157  0.6673  0.2692
23111SOL    HW175425   5.727   9.490   3.575  0.9886 -1.1792 -0.3069
23111SOL    HW275426   5.707   9.458   3.722 -1.2142  1.2804  0.0055
23112SOL     OW75427   0.047   4.533   9.435 -0.1154 -0.0056 -0.5129
23112SOL    HW175428   0.128   4.565   9.475  0.0399 -0.0665 -0.7748
23112SOL    HW275429  -0.011   4.609   9.435  0.0177  0.0974 -0.5268
23113SOL     OW75430   2.262   1.552   9.592 -0.0621 -0.0055 -0.0279
23113SOL    HW175431   2.268   1.507   9.676  0.1232  0.0127 -0.0306
23113SOL    HW275432   2.190   1.508   9.546  0.3836 -0.5713 -0.1919
23114SOL     OW75433   1.681   2.625   9.458 -0.6010  0.0973  0.5252
23114SOL    HW175434   1.622   2.700   9.454  0.3050  0.7654 -1.3411
23114SOL    HW275435   1.769   2.662   9.447 -0.1751 -1.2448 -1.1972
23115SOL     OW75436  10.877   5.630   7.393 -0.1269 -0.2760  0.5694
23115SOL    HW175437  10.852   5.698   7.455  0.1984  0.0053  0.3976
23115SOL    HW275438  10.935   5.674   7.331 -0.3843 -0.5711  0.1109
23116SOL     OW75439   4.676  10.236   2.985  0.2681 -0.4280 -0.1424
23116SOL    HW175440   4.748  10.290   3.017 -0.2512 -0.1808  0.6428
23116SOL    HW275441   4.639  10.197   3.064 -0.6808 -0.2705 -0.4937
23117SOL     OW75442   0.122   3.884   1.620  0.0092  0.1763 -0.5611
23117SOL    HW175443   0.072   3.847   1.548 -1.9763 -0.0766  0.8461
23117SOL    HW275444   0.106   3.978   1.616  1.7863  0.4756 -1.7574
23118SOL     OW75445   0.162   2.545   5.197  0.5252 -0.2591  0.1178
23118SOL    HW175446   0.101   2.586   5.136  2.4685  0.0120 -1.7394
23118SOL    HW275447   0.107   2.514   5.269 -1.6990  0.4409 -1.2051
23119SOL     OW75448   7.494   5.495   4.700 -0.0442  0.5508 -0.1038
23119SOL    HW175449   7.484   5.436   4.625 -0.8384  0.2623  0.2195
23119SOL    HW275450   7.520   5.578   4.661  1.1737 -0.0110 -0.5612
23120SOL     OW75451   9.469   2.181   2.701 -0.2261 -0.5884 -0.4801
23120SOL    HW175452   9.403   2.231   2.749  0.4343 -2.1885  2.3398
23120SOL    HW275453   9.547   2.237   2.701 -0.1855 -0.6296  0.5179
23121SOL     OW75454   9.817   6.664   7.272  0.2169  0.2570  0.3399
23121SOL    HW175455   9.855   6.588   7.229 -0.1688  0.6020 -0.6553
23121SOL    HW275456   9.829   6.736   7.209  0.1791  0.9222  1.0682
23122SOL     OW75457   9.329   1.871   2.293 -0.2610  0.2675  0.3129
23122SOL    HW175458   9.284   1.827   2.220 -1.0617  1.4062  0.0995
23122SOL    HW275459   9.281   1.842   2.371 -0.2749  0.1363  0.2573
23123SOL     OW75460   1.550   6.680   6.768  0.1775  0.0606 -0.3575
23123SOL    HW175461   1.526   6.726   6.687  0.2178  1.1634  0.2461
23123SOL    HW275462   1.534   6.744   6.838  2.4980 -0.0179  0.3074
23124SOL     OW75463   7.179   6.418   9.254 -0.4911 -0.0757  0.2223
23124SOL    HW175464   7.153   6.437   9.164  0.1775  1.0255  0.2396
23124SOL    HW275465   7.104   6.371   9.291 -1.2384  0.4484 -0.5809
23125SOL     OW75466  10.411   1.473   9.029 -0.3524 -0.4568 -0.3527
23125SOL    HW175467  10.317   1.480   9.044 -0.2452  1.2372 -0.2457
23125SOL    HW275468  10.448   1.460   9.117 -0.2527  2.7142  0.2114
23126SOL     OW75469   2.040   9.521   1.295  0.0051 -0.1402  0.0360
23126SOL    HW175470   2.122   9.497   1.251  0.0055  1.1961 -0.7690
23126SOL    HW275471   1.976   9.525   1.224 -0.7177 -0.9568  0.6323
23127SOL     OW75472   4.780   3.648   7.970 -0.0316 -0.5707  0.3635
23127SOL    HW175473   4.847   3.716   7.978 -0.6073 -0.1102  1.5330
23127SOL    HW275474   4.818   3.583   7.910  0.5527  0.7420 -0.7362
23128SOL     OW75475   6.379   9.157   7.663  0.1068  0.4976  0.0850
23128SOL    HW175476   6.301   9.106   7.645  0.5397  0.3553 -1.5443
23128SOL    HW275477   6.445   9.093   7.690  0.0754  0.4419  0.0279
23129SOL     OW75478   0.181   6.387   6.785 -0.2118  0.3608  0.9922
23129SOL    HW175479   0.164   6.314   6.845  1.0957 -0.6503  0.2154
23129SOL    HW275480   0.108   6.384   6.723  0.2188 -0.8185  0.5082
23130SOL     OW75481   5.035   8.319   5.862  0.1795  0.1297  0.0220
23130SOL    HW175482   5.003   8.400   5.902  1.8145  1.3255 -0.9681
23130SOL    HW275483   5.058   8.343   5.773  0.0636 -1.6218 -0.5278
23131SOL     OW75484   6.152   6.211   5.315  0.3102  0.3697 -0.6025
23131SOL    HW175485   6.067   6.209   5.270 -0.9653  2.7003  1.4364
23131SOL    HW275486   6.158   6.126   5.358 -1.0868  0.2035 -0.6831
23132SOL     OW75487   4.843   8.995   0.822 -0.2580  0.0176  0.2550
23132SOL    HW175488   4.796   9.061   0.771  0.4235  0.2970 -0.0305
23132SOL    HW275489   4.781   8.968   0.890 -0.8249  0.3689 -0.1133
23133SOL     OW75490   3.189   9.322   8.887  0.5644 -0.4770 -0.2276
23133SOL    HW175491   3.099   9.334   8.919  0.5120 -0.5491 -0.3442
23133SOL    HW275492   3.213   9.234   8.918  0.0380 -1.0997 -1.4798
23134SOL     OW75493   2.688   7.552   2.327 -0.5734  0.3416  0.3906
23134SOL    HW175494   2.695   7.628   2.269 -0.3648 -1.1024 -1.6084
23134SOL    HW275495   2.613   7.503   2.294  0.7067 -1.5077  0.0574
23135SOL     OW75496   2.359  10.005   4.650 -0.2944  0.3577 -0.2985
23135SOL    HW175497   2.309   9.925   4.668 -0.7238  0.6105 -0.3604
23135SOL    HW275498   2.424   9.978   4.585  0.1759 -0.1601  0.3676
23136SOL     OW75499  10.888   5.450   6.394 -0.5951  0.3808 -0.0641
23136SOL    HW175500  10.877   5.523   6.455  1.6709  0.8737 -0.1623
23136SOL    HW275501  10.938   5.385   6.443 -0.8340 -0.2587 -0.6514
23137SOL     OW75502   4.192  10.883   3.941  0.2836 -0.0719  0.1755
23137SOL    HW175503   4.270  10.843   3.980 -0.7195 -1.4055  0.8922
23137SOL    HW275504   4.223  10.967   3.906  2.0053 -0.5224  0.5352
23138SOL     OW75505   4.914   8.890   5.974 -0.7849 -0.0417  0.1000
23138SOL    HW175506   4.862   8.810   5.978 -0.5293 -0.1835  0.6214
23138SOL    HW275507   4.890   8.930   5.890 -1.5565 -0.2262  0.2260
23139SOL     OW75508   9.569   3.497   8.518 -0.2514 -0.6709 -0.3403
23139SOL    HW175509   9.515   3.557   8.569  1.9334 -0.3428  1.7317
23139SOL    HW275510   9.508   3.428   8.492 -2.0845  0.6662  0.1680
23140SOL     OW75511   9.720  10.762   6.716 -0.0355 -0.0723  0.1128
23140SOL    HW175512   9.694  10.773   6.625 -0.9300  1.8071  0.5366
23140SOL    HW275513   9.750  10.849   6.743  2.2622 -1.0556  1.0367
23141SOL     OW75514   2.155   8.286   7.392  0.1990  0.5953 -0.1911
23141SOL    HW175515   2.248   8.311   7.389  0.3580 -0.0179 -0.7052
23141SOL    HW275516   2.146   8.220   7.323 -0.0666 -1.1822  1.4585
23142SOL     OW75517   4.225   2.332   9.430 -0.3589  0.3347  0.4244
23142SOL    HW175518   4.282   2.390   9.380 -0.4546  0.9444  1.0169
23142SOL    HW275519   4.195   2.267   9.366  1.1025 -0.0912  0.1271
23143SOL     OW75520  10.711   1.328   7.726 -0.3094 -0.1539  0.1956
23143SOL    HW175521  10.761   1.258   7.766 -1.6801 -1.1482  0.2365
23143SOL    HW275522  10.653   1.360   7.795 -2.6232 -1.8135 -0.8378
23144SOL     OW75523   7.679   4.922   0.244  0.2359  0.3678  0.1941
23144SOL    HW175524   7.600   4.894   0.289  0.8122  0.3407  1.2197
23144SOL    HW275525   7.747   4.862   0.274  0.4101 -0.4084 -1.6464
23145SOL     OW75526   5.826   3.302   5.603 -0.2360 -0.6672  0.0452
23145SOL    HW175527   5.789   3.214   5.609  0.9082 -1.1180  0.6089
23145SOL    HW275528   5.844   3.327   5.694  2.5469 -1.2230 -0.2620
23146SOL     OW75529   5.955   7.478  10.584  0.2679 -0.6807 -0.2807
23146SOL    HW175530   5.875   7.468  10.635 -0.3836  1.6902 -0.6827
23146SOL    HW275531   5.941   7.423  10.507 -1.0973 -0.1702 -0.4364
23147SOL     OW75532  10.721   0.856  10.114 -0.3548 -0.5482  0.1668
23147SOL    HW175533  10.679   0.931  10.072  3.3317  1.7084  0.0578
23147SOL    HW275534  10.697   0.863  10.206 -1.8515 -0.6239 -0.1985
23148SOL     OW75535   0.713   4.729  10.504  0.2227  0.2714 -0.1419
23148SOL    HW175536   0.713   4.635  10.522 -0.6743 -0.1684 -2.2251
23148SOL    HW275537   0.760   4.738  10.421  2.8120  2.0271  1.3603
23149SOL     OW75538   0.611   9.692   2.556 -0.0052  0.5837  0.2473
23149SOL    HW175539   0.575   9.765   2.607  0.6367 -0.1597  1.8235
23149SOL    HW275540   0.665   9.734   2.489 -3.4682  1.7660 -2.1499
23150SOL     OW75541   0.893   1.594   1.718  0.0982  0.1297 -0.1651
23150SOL    HW175542   0.833   1.589   1.644  1.8902 -0.6095 -1.6206
23150SOL    HW275543   0.842   1.638   1.787 -0.9848  2.7278 -2.4516
23151SOL     OW75544   5.660   6.535   1.225 -0.2872 -0.3319 -0.6175
23151SOL    HW175545   5.680   6.614   1.275  1.0791 -0.9603 -0.1173
23151SOL    HW275546   5.707   6.547   1.142 -1.0564 -0.1068 -1.0323
23152SOL     OW75547   7.089   8.112   2.091  0.0957 -0.2752  0.1847
23152SOL    HW175548   7.098   8.023   2.055 -1.4487  0.4362 -2.2169
23152SOL    HW275549   7.167   8.158   2.059  0.5223 -0.5464  0.8099
23153SOL     OW75550   6.373   7.901   1.536 -0.1764 -0.4306  0.4143
23153SOL    HW175551   6.399   7.956   1.462 -0.1557 -2.4828 -1.2214
23153SOL    HW275552   6.300   7.948   1.577 -0.3771  0.6562 -1.0878
23154SOL     OW75553   9.686  10.470   7.069  0.3747  0.9037  0.2295
23154SOL    HW175554   9.656  10.535   7.005  2.0396  0.6635 -0.8616
23154SOL    HW275555   9.781  10.474   7.063  0.5221 -0.5768  1.2460
23155SOL     OW75556   0.850   1.097   7.815  0.6739 -0.3177  0.6088
23155SOL    HW175557   0.757   1.076   7.816  0.7003 -0.5219 -0.1486
23155SOL    HW275558   0.877   1.093   7.906  0.0441 -0.7231  0.7818
23156SOL     OW75559   3.861   1.188   0.932 -0.4402  0.1423  0.2146
23156SOL    HW175560   3.869   1.274   0.890  0.1736  0.3624  0.7642
23156SOL    HW275561   3.795   1.142   0.880  1.1701 -0.0418 -1.7955
23157SOL     OW75562   0.219   8.531   4.283 -0.0099  0.1867 -0.1932
23157SOL    HW175563   0.308   8.539   4.319 -0.7109  0.2694  1.6627
23157SOL    HW275564   0.231   8.530   4.188  2.0758 -1.0493  0.0220
23158SOL     OW75565  10.661   4.542   9.528  0.2294  0.0632  0.1929
23158SOL    HW175566  10.647   4.637   9.529 -1.1764  0.0704  4.4905
23158SOL    HW275567  10.612   4.511   9.452 -1.0724  2.6545 -0.1333
23159SOL     OW75568   2.603   3.716  10.914  0.3898 -0.4572  0.2792
23159SOL    HW175569   2.693   3.745  10.900  0.6876 -0.7273  1.5139
23159SOL    HW275570   2.557   3.795  10.943  0.7365 -0.7662  1.7110
23160SOL     OW75571   9.461   0.663   2.269 -0.4186  0.1488  0.0403
23160SOL    HW175572   9.372   0.648   2.302 -0.2745 -1.0735 -0.0791
23160SOL    HW275573   9.512   0.590   2.304  0.2383  0.0959 -0.9895
23161SOL     OW75574   1.295   7.312   3.146  0.2947 -0.1415  0.0852
23161SOL    HW175575   1.374   7.310   3.200  0.4143 -1.9317 -0.1179
23161SOL    HW275576   1.300   7.234   3.091 -1.9988 -0.7736  0.6489
23162SOL     OW75577  10.294   2.017   3.740 -0.2690  0.1828  0.1397
23162SOL    HW175578  10.201   2.016   3.714 -0.1292 -0.1065 -0.3655
23162SOL    HW275579  10.333   2.082   3.682 -0.3036  0.9038  0.9029
23163SOL     OW75580   2.721   0.548   2.537 -0.3616 -0.4385  0.1111
23163SOL    HW175581   2.707   0.621   2.477  0.0712 -0.5089 -0.0771
23163SOL    HW275582   2.661   0.479   2.507  0.1004 -0.5974 -0.4467
23164SOL     OW75583   7.007   9.182   6.801  0.4321  0.7951 -0.0807
23164SOL    HW175584   7.055   9.140   6.872  1.4705 -0.9672 -1.7079
23164SOL    HW275585   7.040   9.272   6.799  0.6506  0.7756  1.3818
23165SOL     OW75586   6.599   2.344   3.410  0.3728  0.0264 -0.0356
23165SOL    HW175587   6.674   2.397   3.437 -0.0393  0.1512  0.9176
23165SOL    HW275588   6.541   2.344   3.487 -0.9585  0.5577 -0.9942
23166SOL     OW75589   3.648   2.152   6.159  0.0052 -0.1047 -1.1929
23166SOL    HW175590   3.664   2.241   6.192  1.0825 -0.8684  0.4951
23166SOL    HW275591   3.688   2.151   6.072 -2.4428  1.8252 -2.4908
23167SOL     OW75592  10.283   0.153  10.059  0.8067 -0.2035 -0.0710
23167SOL    HW175593  10.225   0.229  10.066  1.4472  0.2073  0.8488
23167SOL    HW275594  10.361   0.177  10.109  1.2360 -1.2651 -0.2129
23168SOL     OW75595   0.778   9.184   3.267 -0.4156 -0.5353 -0.3074
23168SOL    HW175596   0.744   9.200   3.356 -1.9884 -0.8169 -0.8228
23168SOL    HW275597   0.709   9.134   3.224  1.2003 -2.2078 -1.0774
23169SOL     OW75598   4.497   1.103   3.623 -0.0859  0.0425 -0.2946
23169SOL    HW175599   4.476   1.014   3.649 -0.3977  0.6564  1.7378
23169SOL    HW275600   4.592   1.104   3.613 -0.0812 -0.4965 -0.3285
23170SOL     OW75601   6.453   5.469   2.143 -0.1830  0.3729  0.0431
23170SOL    HW175602   6.489   5.381   2.132 -0.5755 -0.1119  2.1987
23170SOL    HW275603   6.376   5.471   2.087  1.6228  0.5510 -2.6408
23171SOL     OW75604   7.723   4.491   9.685  0.2031  0.2393  0.2120
23171SOL    HW175605   7.657   4.533   9.741 -2.4291 -2.0405 -0.9309
23171SOL    HW275606   7.798   4.550   9.687 -0.9031  1.7417  3.6411
23172SOL     OW75607   5.275   8.983   2.767 -0.0156 -0.1272 -0.0433
23172SOL    HW175608   5.209   9.051   2.758  1.6747  1.7523  0.8150
23172SOL    HW275609   5.268   8.955   2.859 -0.4774 -0.8771 -0.3025
23173SOL     OW75610   5.733   8.489   3.963  0.0280 -0.3213 -0.0066
23173SOL    HW175611   5.693   8.506   4.049 -1.1752  0.3152 -0.6779
23173SOL    HW275612   5.689   8.409   3.933  1.7262 -1.6055  0.7104
23174SOL     OW75613   3.177  10.858  10.819 -0.3533  0.2441  0.6410
23174SOL    HW175614   3.181  10.826  10.729 -2.6127  0.8710  0.2735
23174SOL    HW275615   3.260  10.906  10.831 -0.3963  0.9194 -1.4047
23175SOL     OW75616   8.992   8.447   9.575  0.0832 -0.3506 -0.2782
23175SOL    HW175617   8.999   8.533   9.616  0.2938 -0.5732  0.1557
23175SOL    HW275618   9.055   8.449   9.503 -0.7192  0.2590 -0.9837
23176SOL     OW75619   1.550   5.571   7.968 -0.0432  0.3955 -0.3621
23176SOL    HW175620   1.489   5.586   8.041 -1.8434 -0.1038 -1.7048
23176SOL    HW275621   1.517   5.493   7.924  3.2234 -1.6233  0.4448
23177SOL     OW75622   1.872   6.665   0.410  0.1541 -0.0328  0.0421
23177SOL    HW175623   1.948   6.667   0.467  0.2321 -0.8826 -0.0110
23177SOL    HW275624   1.800   6.698   0.464  0.1678 -1.0847  0.7446
23178SOL     OW75625   6.569   6.226   4.352  0.1914  0.3495  0.5132
23178SOL    HW175626   6.584   6.151   4.409 -1.0233  1.2970  2.1778
23178SOL    HW275627   6.489   6.204   4.304  0.4558  0.1196  0.1760
23179SOL     OW75628   5.931   7.502   1.002  0.1886  0.7231 -0.2044
23179SOL    HW175629   6.000   7.491   1.068 -3.1660  0.2209  3.6306
23179SOL    HW275630   5.942   7.591   0.970  2.1318  0.9062  0.8406
23180SOL     OW75631   1.623   4.825   6.895  0.4741 -0.2254 -1.0178
23180SOL    HW175632   1.667   4.899   6.853 -0.2098  0.6286 -0.2818
23180SOL    HW275633   1.594   4.860   6.979 -1.1610 -0.8953 -1.2721
23181SOL     OW75634  10.053   3.323   7.210  0.3921  0.6842 -0.0213
23181SOL    HW175635  10.078   3.251   7.152 -0.7098 -1.1972  1.7343
23181SOL    HW275636  10.122   3.327   7.276  0.7586  1.6865 -0.4383
23182SOL     OW75637   9.475   3.790   7.116  0.0397  0.1241 -0.3757
23182SOL    HW175638   9.569   3.777   7.127 -0.0739  0.5257  1.3379
23182SOL    HW275639   9.436   3.711   7.154 -0.3253 -0.4415 -1.8485
23183SOL     OW75640   7.661   3.737   7.132 -0.3440  0.0472  0.6801
23183SOL    HW175641   7.580   3.764   7.177 -2.3598 -1.0637 -2.0149
23183SOL    HW275642   7.722   3.809   7.148 -2.4746  1.8349  1.3082
23184SOL     OW75643   2.026   8.695   3.562  0.2669  0.2638 -0.1858
23184SOL    HW175644   2.011   8.600   3.569 -1.5330  0.4935 -0.5164
23184SOL    HW275645   2.094   8.703   3.495  1.4152 -0.8388  0.7939
23185SOL     OW75646   5.343   4.864   8.942 -0.1085 -0.6457  0.2995
23185SOL    HW175647   5.259   4.861   8.988  1.3524 -0.1770  3.2445
23185SOL    HW275648   5.351   4.778   8.901 -1.8613 -0.7888  0.1439
23186SOL     OW75649   7.484   3.242   5.826  0.5642 -0.0243  0.3239
23186SOL    HW175650   7.488   3.241   5.731 -0.5891  0.7709  0.2429
23186SOL    HW275651   7.575   3.234   5.855  0.9897  0.4948 -0.8425
23187SOL     OW75652   8.293   0.962   8.307  0.0414 -0.7478 -0.2163
23187SOL    HW175653   8.383   0.965   8.339 -0.6192  0.6113  1.6463
23187SOL    HW275654   8.268   0.870   8.315  1.6710 -1.4293 -2.1300
23188SOL     OW75655   5.664   9.398   6.929  0.6824 -0.0101  0.3112
23188SOL    HW175656   5.705   9.446   7.001  2.8613  0.0419 -0.8828
23188SOL    HW275657   5.650   9.309   6.964  2.6490 -0.2704  0.5156
23189SOL     OW75658   2.468   2.996   1.790 -0.3093  0.5226  0.4616
23189SOL    HW175659   2.496   2.988   1.881  1.8467  0.7508 -0.1408
23189SOL    HW275660   2.472   3.090   1.772 -0.6827  0.4717  0.1089
23190SOL     OW75661   2.974  10.175   6.755  0.2738 -0.3885 -0.3787
23190SOL    HW175662   2.994  10.093   6.800 -0.9640 -1.3339 -1.4590
23190SOL    HW275663   3.002  10.244   6.816  1.8398 -1.5879  0.3265
23191SOL     OW75664   4.121   0.688   3.222 -0.4211  0.2556 -0.6174
23191SOL    HW175665   4.117   0.641   3.138 -0.4695  0.7246 -0.8820
23191SOL    HW275666   4.154   0.774   3.199 -0.6875  0.4756 -0.1847
23192SOL     OW75667  10.042   1.790   1.914 -0.3376  0.2398  0.1063
23192SOL    HW175668  10.061   1.772   1.822 -1.2284 -2.8078  0.4068
23192SOL    HW275669   9.947   1.804   1.917 -0.8292 -2.6870  0.8519
23193SOL     OW75670   3.015   1.513   0.395 -0.5216 -0.0388  0.1064
23193SOL    HW175671   2.956   1.586   0.377 -0.7427 -0.3690 -0.5249
23193SOL    HW275672   3.101   1.554   0.407 -1.0380  0.5693  2.1888
23194SOL     OW75673   8.014   3.539   9.631  0.1185  0.4248 -0.0364
23194SOL    HW175674   7.976   3.618   9.593 -0.4705  0.1041 -0.1313
23194SOL    HW275675   7.943   3.475   9.630  0.1185  0.3514  1.4606
23195SOL     OW75676   6.205   0.503   3.682 -0.1909 -0.2439  0.0614
23195SOL    HW175677   6.188   0.569   3.749 -1.8353  0.9212 -1.4017
23195SOL    HW275678   6.298   0.513   3.661 -0.0455  0.4811  0.9868
23196SOL     OW75679   6.745   0.472   8.453  0.7418  0.8439  0.1462
23196SOL    HW175680   6.710   0.456   8.541  1.7607  0.4670  0.5041
23196SOL    HW275681   6.687   0.538   8.416 -1.0336 -0.5883  0.2473
23197SOL     OW75682   5.980  10.216  10.074  0.0687 -0.2052  0.3841
23197SOL    HW175683   5.950  10.173  10.154 -0.0990 -0.4289  0.2015
23197SOL    HW275684   6.030  10.292  10.105 -1.2956  0.5982  0.6743
23198SOL     OW75685   4.820   9.662   8.933 -0.5458 -0.0284 -0.0141
23198SOL    HW175686   4.771   9.581   8.942 -0.0637 -0.2618  0.5707
23198SOL    HW275687   4.812   9.705   9.018 -0.9847  0.6498 -0.3892
23199SOL     OW75688  10.397   6.687   1.489 -0.0959 -0.4042 -0.1656
23199SOL    HW175689  10.469   6.645   1.442  1.4507  1.3264  0.5306
23199SOL    HW275690  10.435   6.711   1.573 -1.0835  1.6879 -0.2540
23200SOL     OW75691   3.202   0.998   4.160 -0.0646 -0.1244  0.5157
23200SOL    HW175692   3.199   0.919   4.106 -0.8360  0.2357  0.0105
23200SOL    HW275693   3.117   1.000   4.204 -1.3021  1.9053 -1.6832
23201SOL     OW75694   9.136   8.370   6.738 -0.3373  0.6466  0.1351
23201SOL    HW175695   9.107   8.407   6.655 -0.2811  1.3681  0.4303
23201SOL    HW275696   9.226   8.399   6.748  0.0424 -0.3912 -0.0883
23202SOL     OW75697   5.562   5.821   8.975 -0.2846 -0.6224  0.8000
23202SOL    HW175698   5.556   5.875   8.897  0.4605 -1.9457 -0.2151
23202SOL    HW275699   5.471   5.802   8.998 -0.5096 -1.6644 -0.8098
23203SOL     OW75700   2.392   9.097  10.641  0.5948  0.6301  0.2864
23203SOL    HW175701   2.469   9.099  10.697 -1.4586  0.3875  3.3267
23203SOL    HW275702   2.404   9.019  10.587  2.6637  0.8836  0.3036
23204SOL     OW75703   7.513   2.826   3.935  0.2122  0.2406  0.2961
23204SOL    HW175704   7.483   2.787   3.853  0.1963  0.8247  0.0200
23204SOL    HW275705   7.604   2.849   3.919 -0.3712  2.3435 -0.3220
23205SOL     OW75706   0.483   2.464   9.102 -0.8022 -0.4021 -0.1373
23205SOL    HW175707   0.557   2.409   9.128 -0.7982 -0.3933 -0.1297
23205SOL    HW275708   0.509   2.552   9.129  0.0050 -0.0811 -1.8419
23206SOL     OW75709   4.620   0.757   1.002 -0.0804 -0.8928  0.7324
23206SOL    HW175710   4.537   0.756   0.954  0.6260 -0.2756 -0.5391
23206SOL    HW275711   4.662   0.674   0.979  0.5178 -0.3431 -0.2208
23207SOL     OW75712   8.116   6.805   2.078 -0.4416 -0.4314  0.2880
23207SOL    HW175713   8.038   6.860   2.085 -0.1973  0.1258 -0.9721
23207SOL    HW275714   8.188   6.859   2.109 -0.3313 -0.3578 -0.0885
23208SOL     OW75715   3.309   2.445   0.663  0.0151 -0.4771 -1.2622
23208SOL    HW175716   3.391   2.469   0.622  0.4312 -0.5334 -0.4762
23208SOL    HW275717   3.332   2.422   0.753 -0.9657  0.2691 -0.7955
23209SOL     OW75718  10.022   8.836   1.553  0.3271  0.6081 -0.3421
23209SOL    HW175719   9.978   8.906   1.505 -2.5033  0.4164  1.6832
23209SOL    HW275720   9.987   8.755   1.517 -0.0995  0.4109  0.4801
23210SOL     OW75721   2.092   9.235  10.601  0.3522  0.3672 -0.2028
23210SOL    HW175722   2.121   9.321  10.570  0.7286  0.8693  1.4375
23210SOL    HW275723   1.999   9.232  10.580  0.2574  1.3257  0.0486
23211SOL     OW75724  10.463   6.516   9.951  0.4317  0.1077  0.3617
23211SOL    HW175725  10.522   6.450   9.987  2.1315  1.2495 -0.1979
23211SOL    HW275726  10.516   6.596   9.950 -1.5878  1.5255  1.1492
23212SOL     OW75727  10.415  10.257   2.704 -0.5964  0.1570 -0.2265
23212SOL    HW175728  10.487  10.319   2.716 -1.7813  1.6608 -0.6382
23212SOL    HW275729  10.440  10.207   2.626  0.5841 -0.2582  0.3765
23213SOL     OW75730  10.500   1.909   4.499  0.6135 -0.0592 -0.1688
23213SOL    HW175731  10.476   1.903   4.592  1.6914 -1.2103  0.0628
23213SOL    HW275732  10.424   1.875   4.453  0.4680 -0.4598  0.3526
23214SOL     OW75733   4.666   9.090   1.535  0.3615 -0.6676 -0.0255
23214SOL    HW175734   4.676   9.087   1.440  1.2080  2.6441 -0.1741
23214SOL    HW275735   4.643   9.181   1.554  0.3037 -1.2049  2.9577
23215SOL     OW75736   2.379   9.871   9.126 -0.3817  0.5619 -0.1312
23215SOL    HW175737   2.317   9.814   9.079  0.0150 -0.0714  0.0983
23215SOL    HW275738   2.412   9.931   9.059  1.2669 -1.2414 -1.0463
23216SOL     OW75739   7.164   0.543   0.020 -0.0477 -0.5384 -0.0402
23216SOL    HW175740   7.252   0.509   0.033 -0.8975 -2.1329  2.5354
23216SOL    HW275741   7.173   0.638   0.029  1.6627 -0.4575 -2.0306
23217SOL     OW75742   2.113   8.704   9.676  0.2194  0.3815  0.0527
23217SOL    HW175743   2.120   8.785   9.626  1.2086  0.9858  1.1115
23217SOL    HW275744   2.183   8.710   9.741 -0.3481 -0.8561  0.8202
23218SOL     OW75745   5.973   9.152   8.238  0.2112  0.0514 -0.1686
23218SOL    HW175746   5.974   9.226   8.299 -0.5754 -0.7322  0.8382
23218SOL    HW275747   5.901   9.171   8.178 -0.1565 -0.0168  0.2477
23219SOL     OW75748   8.203   4.109   0.377  0.3262 -0.6586 -0.4466
23219SOL    HW175749   8.269   4.135   0.442 -0.3081 -0.2435  0.0533
23219SOL    HW275750   8.180   4.020   0.401  0.2111 -0.5624 -0.1931
23220SOL     OW75751   3.231   0.997   7.039 -0.1675  0.1385 -0.5279
23220SOL    HW175752   3.144   1.036   7.041 -0.3587 -0.3066  1.0893
23220SOL    HW275753   3.278   1.039   7.112  0.7597 -0.1350 -0.9452
23221SOL     OW75754   0.165   7.885   9.626  0.6031  0.3385 -0.4325
23221SOL    HW175755   0.112   7.964   9.616  1.2886  0.8255 -0.2810
23221SOL    HW275756   0.236   7.895   9.562  1.4208  0.4596  0.4856
23222SOL     OW75757   0.895   2.248   0.952  0.6687  0.3645  0.5577
23222SOL    HW175758   0.912   2.182   0.885  1.3803 -1.3782  2.3308
23222SOL    HW275759   0.802   2.238   0.973  0.5909  0.4830  0.2702
23223SOL     OW75760   0.589   4.618   2.427  0.0313 -0.0205  0.1787
23223SOL    HW175761   0.621   4.539   2.384  0.5263  0.4940 -0.4374
23223SOL    HW275762   0.531   4.659   2.362 -0.6891 -0.1707  0.7132
23224SOL     OW75763   0.904   3.872   9.155  0.1773  0.2103  0.5266
23224SOL    HW175764   0.859   3.954   9.137  0.2856 -0.1288 -1.5280
23224SOL    HW275765   0.838   3.804   9.142  0.3088 -0.1056  1.3851
23225SOL     OW75766  10.534  10.364   5.163 -0.1126 -0.4357  0.2825
23225SOL    HW175767  10.595  10.356   5.089 -0.7793 -4.0439 -0.0273
23225SOL    HW275768  10.584  10.334   5.239 -0.3503  0.4439  0.8075
23226SOL     OW75769   3.792   2.900   2.499  0.2123 -0.3482  0.4351
23226SOL    HW175770   3.847   2.876   2.425  0.9330  1.5986  0.2675
23226SOL    HW275771   3.853   2.937   2.563 -0.6514 -0.1426  1.1549
23227SOL     OW75772   3.297   0.713   7.153  0.1371 -0.2109 -0.4187
23227SOL    HW175773   3.246   0.782   7.196 -0.0399  0.0358 -1.0123
23227SOL    HW275774   3.348   0.759   7.086 -0.0422 -0.6625 -0.8741
23228SOL     OW75775  10.370   7.514   1.986 -0.3332  0.4347 -0.3407
23228SOL    HW175776  10.306   7.556   2.045  0.9108  2.2202 -0.1715
23228SOL    HW275777  10.440   7.484   2.043 -1.0920 -1.7770 -0.4950
23229SOL     OW75778   0.183   2.553   8.547 -0.1296  0.2922  0.1984
23229SOL    HW175779   0.107   2.494   8.552 -1.1692  1.6690  2.0508
23229SOL    HW275780   0.145   2.640   8.545  1.4155  0.9837 -0.1319
23230SOL     OW75781   7.098   2.560   3.300 -0.3082  0.0264  0.5620
23230SOL    HW175782   7.193   2.562   3.316  0.1132 -0.8654 -1.4871
23230SOL    HW275783   7.071   2.652   3.307  0.9706  0.4757 -0.0335
23231SOL     OW75784   8.282   8.289   0.163 -0.2002 -0.2195  0.4071
23231SOL    HW175785   8.346   8.234   0.208 -1.0705 -0.5577  1.2589
23231SOL    HW275786   8.206   8.290   0.221 -1.4558 -0.8597 -1.1383
23232SOL     OW75787   6.985   3.301   3.359 -0.0725  0.3044 -0.0159
23232SOL    HW175788   7.033   3.370   3.404  0.7434  0.0554 -0.4748
23232SOL    HW275789   6.922   3.348   3.304 -0.5924  0.6266  0.8363
23233SOL     OW75790   2.422   0.614   1.192 -0.8953 -0.1549  0.0451
23233SOL    HW175791   2.405   0.609   1.098 -1.9719  1.2987  0.1280
23233SOL    HW275792   2.505   0.662   1.199 -0.5643 -0.6910 -0.1683
23234SOL     OW75793   2.369   0.992   1.085  0.3906 -0.5360  0.7932
23234SOL    HW175794   2.334   0.909   1.117 -0.6445  0.2336  1.7430
23234SOL    HW275795   2.461   0.993   1.112  1.2784 -2.5966 -1.7310
23235SOL     OW75796   9.675   6.221   0.293  0.2427  0.0355 -0.0146
23235SOL    HW175797   9.684   6.169   0.372  0.7784  0.9995  0.5860
23235SOL    HW275798   9.615   6.172   0.238 -0.2924 -0.5594  1.0742
23236SOL     OW75799   9.212   9.732   6.492 -0.4227  0.4635  0.2019
23236SOL    HW175800   9.202   9.821   6.526  0.7875  0.6780  0.0552
23236SOL    HW275801   9.306   9.714   6.499 -0.5438 -0.5266 -0.4484
23237SOL     OW75802   4.755   8.604   7.923 -0.1354  0.6064  0.1987
23237SOL    HW175803   4.772   8.509   7.925 -0.5830  0.4713 -1.3008
23237SOL    HW275804   4.679   8.613   7.866  0.2758  1.9326 -0.1624
23238SOL     OW75805   5.353   6.397   2.000  0.0188  1.0071  0.2713
23238SOL    HW175806   5.334   6.356   2.084  0.4976  0.8229  0.2932
23238SOL    HW275807   5.304   6.344   1.937 -0.3277  1.1350  0.4302
23239SOL     OW75808   9.228   5.128   6.869  0.1363  0.0602  0.1452
23239SOL    HW175809   9.239   5.037   6.896  2.3682 -0.1899 -1.2706
23239SOL    HW275810   9.136   5.137   6.848 -0.1640 -1.8072  0.5429
23240SOL     OW75811  10.928   5.386   9.259 -0.2862  0.0696  0.3593
23240SOL    HW175812  10.898   5.430   9.339  0.2517  0.5519  0.3079
23240SOL    HW275813  10.894   5.440   9.188  1.8257  1.4768  0.3041
23241SOL     OW75814   9.481   2.383   4.856  0.1675  0.5253 -0.4495
23241SOL    HW175815   9.455   2.359   4.766  0.1467  3.0756 -1.1850
23241SOL    HW275816   9.400   2.377   4.906 -0.3923  1.5502 -1.1913
23242SOL     OW75817   5.587   5.686   7.615  0.1828 -0.0421  0.3906
23242SOL    HW175818   5.621   5.600   7.591  1.5889  0.6409 -0.1965
23242SOL    HW275819   5.493   5.680   7.598  0.5349 -0.8378 -1.6729
23243SOL     OW75820   1.367   8.941   4.273 -0.0447  1.0311  0.1848
23243SOL    HW175821   1.290   8.992   4.300 -1.4618  0.2574 -2.1388
23243SOL    HW275822   1.377   8.959   4.180  2.8843  1.3933  0.4793
23244SOL     OW75823   1.427   7.371   7.674 -0.0135 -0.1144  0.2472
23244SOL    HW175824   1.353   7.422   7.707  0.7212  1.5673 -0.5637
23244SOL    HW275825   1.389   7.315   7.606 -0.3059  2.4630 -1.9062
23245SOL     OW75826   1.128  10.714   1.763  0.2271  0.0131  0.2495
23245SOL    HW175827   1.046  10.669   1.785  0.0216  0.2930  0.0640
23245SOL    HW275828   1.196  10.663   1.806 -0.1307  0.3437  1.2321
23246SOL     OW75829   7.278   3.139   9.096  0.2162  0.0501  0.3826
23246SOL    HW175830   7.254   3.057   9.140  0.5899 -1.1211 -1.4548
23246SOL    HW275831   7.259   3.207   9.160 -0.9826 -1.3931  1.6606
23247SOL     OW75832   5.466  10.877   1.188  0.0466 -0.3357  0.0541
23247SOL    HW175833   5.420  10.812   1.135  1.3247 -0.7352 -0.6195
23247SOL    HW275834   5.453  10.849   1.278  1.0439 -1.8883 -0.2426
23248SOL     OW75835   6.576   3.578   0.547 -0.0202 -0.3425 -0.1418
23248SOL    HW175836   6.586   3.569   0.453  1.1155 -0.7167  0.0008
23248SOL    HW275837   6.486   3.549   0.565  0.0817 -1.2073 -0.9873
23249SOL     OW75838   1.603   6.454   1.497  0.6917 -0.1223  0.3359
23249SOL    HW175839   1.639   6.379   1.545 -0.1949  0.0846  1.3442
23249SOL    HW275840   1.593   6.422   1.407  1.3377 -0.8604  0.5137
23250SOL     OW75841   8.382   7.573   9.909 -0.3825 -0.0644  0.3806
23250SOL    HW175842   8.330   7.520   9.970 -1.4516  2.1261  1.4912
23250SOL    HW275843   8.322   7.642   9.880  1.1498  1.0082 -0.3953
23251SOL     OW75844   7.603   4.601   8.970  0.3162 -0.2516 -0.2204
23251SOL    HW175845   7.515   4.569   8.990  0.4171 -0.6133 -0.3511
23251SOL    HW275846   7.618   4.671   9.034  0.1173 -0.5000  0.1024
23252SOL     OW75847   1.667   9.104   7.075  0.4470 -0.2937 -0.1420
23252SOL    HW175848   1.681   9.085   7.168 -0.6173  1.8995  0.5450
23252SOL    HW275849   1.706   9.191   7.063 -2.9470  1.2938 -0.6926
23253SOL     OW75850   3.765  10.481   4.631 -0.2141  0.7217 -0.2406
23253SOL    HW175851   3.697  10.517   4.688 -0.5723  0.2969 -0.4030
23253SOL    HW275852   3.834  10.454   4.692 -1.2412 -1.1864  0.1535
23254SOL     OW75853   4.537  10.219   1.198 -0.4525 -0.3417  0.1343
23254SOL    HW175854   4.560  10.178   1.114 -2.9997  1.5275 -1.6490
23254SOL    HW275855   4.460  10.172   1.227  0.4938 -1.0612  1.5627
23255SOL     OW75856   8.642   1.227   4.387 -0.2170  0.3744  0.1912
23255SOL    HW175857   8.583   1.224   4.311 -0.5874  0.9304  0.4523
23255SOL    HW275858   8.652   1.320   4.406 -1.7538  0.2212  2.0619
23256SOL     OW75859   5.618   3.472   6.252 -0.1766 -0.1436  0.3096
23256SOL    HW175860   5.605   3.468   6.157  0.5227  1.1989  0.1349
23256SOL    HW275861   5.677   3.400   6.271  0.6268  0.2847 -0.4693
23257SOL     OW75862   1.145  10.730   0.309 -0.3130  1.0755  0.0030
23257SOL    HW175863   1.150  10.715   0.403 -0.4098 -1.5098 -0.3354
23257SOL    HW275864   1.052  10.744   0.292 -1.3523 -4.2257 -0.2818
23258SOL     OW75865  10.153   2.056   7.425 -0.3184  0.3351  0.6555
23258SOL    HW175866  10.075   2.017   7.465 -1.6745  0.0760 -2.0134
23258SOL    HW275867  10.120   2.132   7.376  1.5692  1.9538  1.7133
23259SOL     OW75868   6.097   8.276   5.620 -0.3288  0.2101 -0.1357
23259SOL    HW175869   6.089   8.235   5.534 -0.8456  0.6146 -0.2861
23259SOL    HW275870   6.023   8.337   5.625 -0.4891 -0.0328  0.7250
23260SOL     OW75871   2.121   5.354   2.951  0.7921 -0.1019  0.0075
23260SOL    HW175872   2.052   5.412   2.920 -1.6505 -2.2815  1.0856
23260SOL    HW275873   2.169   5.329   2.871  0.2484  1.2533 -0.7830
23261SOL     OW75874   8.813   9.836   9.181  0.0543  0.2994  0.1821
23261SOL    HW175875   8.831   9.860   9.091 -2.2407  0.9864 -0.1547
23261SOL    HW275876   8.883   9.877   9.232  2.4713 -1.6111 -1.3473
23262SOL     OW75877   8.430   0.191   5.110  0.3774  0.1583 -0.3061
23262SOL    HW175878   8.510   0.219   5.066  0.7207 -0.6578 -0.2252
23262SOL    HW275879   8.412   0.260   5.174 -0.6589  1.8496 -2.3010
23263SOL     OW75880   6.445   6.291   1.001 -0.1492  0.4068  0.2241
23263SOL    HW175881   6.368   6.256   0.957 -1.1975  0.4627  1.9446
23263SOL    HW275882   6.506   6.311   0.929 -1.4923 -0.1452 -1.1348
23264SOL     OW75883   6.653   8.092   0.403  0.0613  0.0703  0.2476
23264SOL    HW175884   6.748   8.097   0.394  0.2258 -2.0681  0.2873
23264SOL    HW275885   6.620   8.093   0.313  0.0648  1.2358  0.2447
23265SOL     OW75886   3.784   5.080   3.725  0.4308  0.3789 -0.0111
23265SOL    HW175887   3.691   5.079   3.702  0.8010 -1.3981 -1.7535
23265SOL    HW275888   3.792   5.148   3.791 -2.3420 -0.3646  1.2342
23266SOL     OW75889   2.499   2.769   0.178 -0.5149  0.1376 -0.1207
23266SOL    HW175890   2.428   2.783   0.115 -1.7703 -1.4772  0.8842
23266SOL    HW275891   2.574   2.745   0.124 -1.7984 -2.0937 -1.0087
23267SOL     OW75892   5.637   0.910   8.548  0.2926  0.4300  0.0620
23267SOL    HW175893   5.604   0.822   8.528  1.2287 -0.3192  1.5663
23267SOL    HW275894   5.661   0.947   8.463 -0.7234 -0.5178 -0.6643
23268SOL     OW75895   5.816   3.684   9.515  0.1447  0.8897 -0.0677
23268SOL    HW175896   5.809   3.663   9.608  2.2021  1.0146  0.1474
23268SOL    HW275897   5.907   3.666   9.492 -0.4823  0.2063 -2.2461
23269SOL     OW75898   6.287   8.636   4.541 -0.2428  0.3157  0.1483
23269SOL    HW175899   6.300   8.543   4.524 -1.1130  0.3903 -1.1008
23269SOL    HW275900   6.375   8.674   4.539  0.0347 -0.3379 -0.2547
23270SOL     OW75901  10.471   8.272   3.618 -0.0647  0.2866 -0.2384
23270SOL    HW175902  10.487   8.177   3.618 -0.7395  0.1442 -1.7578
23270SOL    HW275903  10.398   8.283   3.678 -0.3615 -0.2456 -0.4899
23271SOL     OW75904   9.873   9.907  10.765  0.3367 -0.6057 -0.5067
23271SOL    HW175905   9.911   9.984  10.807  0.7047 -0.7885 -0.4971
23271SOL    HW275906   9.943   9.842  10.766  0.4930 -0.4927 -1.7248
23272SOL     OW75907   5.525   6.484   2.379 -0.2548 -0.3552 -0.2914
23272SOL    HW175908   5.579   6.441   2.444 -0.5191  1.8307  1.5092
23272SOL    HW275909   5.587   6.518   2.314  0.4548  0.7861  0.9332
23273SOL     OW75910   7.425   1.937   5.034  0.0079  0.1564  0.3255
23273SOL    HW175911   7.371   1.997   4.983  0.2859 -0.4999 -0.7614
23273SOL    HW275912   7.470   1.993   5.097 -1.2230  0.8290  0.6458
23274SOL     OW75913   9.906   8.094   9.842 -0.0554 -0.0181 -0.4992
23274SOL    HW175914   9.845   8.123   9.775  0.9424  0.5463 -1.2027
23274SOL    HW275915   9.916   8.171   9.900 -1.2808 -0.6549  0.6044
23275SOL     OW75916   1.461   5.480   0.803  0.5798 -0.0719 -0.1188
23275SOL    HW175917   1.468   5.393   0.842  2.4673  0.3340  0.5253
23275SOL    HW275918   1.499   5.471   0.716  3.9185  0.7330  1.1013
23276SOL     OW75919   6.935   2.990   0.141  0.2111 -0.6363 -0.0194
23276SOL    HW175920   6.939   2.941   0.058  0.3609  0.5950 -0.7646
23276SOL    HW275921   6.919   3.080   0.114 -1.0734 -0.4272  1.3851
23277SOL     OW75922   7.339   0.993   6.389 -0.9607  0.1733  0.1697
23277SOL    HW175923   7.382   0.981   6.473 -0.7698 -0.4020 -0.0049
23277SOL    HW275924   7.314   1.085   6.388  0.6452  0.6440  0.1043
23278SOL     OW75925   8.119   9.103   2.380 -0.7603  0.1361  0.3694
23278SOL    HW175926   8.029   9.080   2.358 -1.2868  2.5585 -0.3503
23278SOL    HW275927   8.118   9.119   2.475 -1.1747  0.4170  0.3200
23279SOL     OW75928   4.656   7.869   3.060 -0.1006 -0.3698 -0.6727
23279SOL    HW175929   4.632   7.957   3.033  0.4253  0.3449  1.0313
23279SOL    HW275930   4.579   7.816   3.041 -1.6712  1.0989  1.1185
23280SOL     OW75931   6.778   8.999   1.536  0.1885  0.7350 -0.0112
23280SOL    HW175932   6.850   9.060   1.553  1.9449 -0.9571 -0.9539
23280SOL    HW275933   6.741   9.029   1.453 -0.4679  1.7897  0.6216
23281SOL     OW75934   4.217   0.404   2.442 -0.1935  0.2130 -0.2973
23281SOL    HW175935   4.239   0.311   2.441  0.7893  0.4303 -0.2495
23281SOL    HW275936   4.296   0.447   2.409 -1.0927  0.9443 -1.5284
23282SOL     OW75937   0.409   8.736   7.940  0.0795 -0.3959  0.1400
23282SOL    HW175938   0.347   8.768   7.874 -1.3236 -0.0426  1.5491
23282SOL    HW275939   0.353   8.694   8.006  1.5292 -1.7696  0.5410
23283SOL     OW75940   6.259   9.705   4.667  0.1019  0.2238  0.4102
23283SOL    HW175941   6.200   9.652   4.613 -0.1886  1.4443 -0.5206
23283SOL    HW275942   6.347   9.681   4.637  0.0051 -0.2389  0.4887
23284SOL     OW75943   9.630   9.035   0.021 -0.5480 -0.1064  0.1164
23284SOL    HW175944   9.541   9.062  -0.001 -0.3109  0.5511 -0.0775
23284SOL    HW275945   9.619   8.972   0.092 -1.1272  0.5982  0.6690
23285SOL     OW75946   2.098   8.717   9.035  0.4211  0.0490 -0.1306
23285SOL    HW175947   2.033   8.657   8.999 -0.5314  0.3298  1.0752
23285SOL    HW275948   2.182   8.680   9.008 -0.2038 -0.8424 -0.9021
23286SOL     OW75949   8.375  10.759   1.520 -0.4532  0.8436 -0.4292
23286SOL    HW175950   8.368  10.793   1.609  0.1317  0.5436 -0.2669
23286SOL    HW275951   8.452  10.802   1.483  0.8284 -0.9066  0.0703
23287SOL     OW75952   3.746   5.651   7.573  0.4505  0.7833 -0.2201
23287SOL    HW175953   3.679   5.607   7.626  1.4104  0.8689  1.1045
23287SOL    HW275954   3.792   5.580   7.529 -2.3582  0.7831 -3.6453
23288SOL     OW75955   3.609   5.717   5.606  0.2786  0.1900 -0.1074
23288SOL    HW175956   3.530   5.664   5.618 -0.5715  1.0982 -1.4020
23288SOL    HW275957   3.673   5.657   5.569 -0.3637 -0.1725 -0.6643
23289SOL     OW75958   4.447   5.218   3.801 -0.3762 -0.2712  0.5085
23289SOL    HW175959   4.404   5.299   3.774 -3.3675 -1.7642  0.3203
23289SOL    HW275960   4.382   5.175   3.858  1.9813 -1.5490  2.4173
23290SOL     OW75961   5.164   1.689   4.522 -0.1068 -0.3407  0.4763
23290SOL    HW175962   5.179   1.783   4.517 -0.0056 -0.3978 -0.3829
23290SOL    HW275963   5.252   1.650   4.517 -0.1670 -0.4954  0.5920
23291SOL     OW75964   2.018   9.603   5.655 -0.3477  0.0626 -0.0128
23291SOL    HW175965   1.934   9.591   5.699  0.1906  0.2970  1.1269
23291SOL    HW275966   2.029   9.525   5.601 -2.3206  1.0533 -1.9477
23292SOL     OW75967   4.279  10.708   8.878  0.3575  0.0565  0.0042
23292SOL    HW175968   4.289  10.617   8.850 -1.3121  0.1059 -0.8322
23292SOL    HW275969   4.298  10.706   8.972  0.9265 -1.0401 -0.1224
23293SOL     OW75970   6.708   5.842   0.542 -0.3271 -0.4580 -0.2650
23293SOL    HW175971   6.691   5.748   0.535 -0.4821 -0.6232  1.7358
23293SOL    HW275972   6.670   5.879   0.462 -3.4474 -1.7167  0.4657
23294SOL     OW75973   3.677   2.416   2.556  0.0755  0.4340 -0.0749
23294SOL    HW175974   3.686   2.381   2.467  0.7921  0.9320 -0.2102
23294SOL    HW275975   3.621   2.353   2.601 -0.4572  0.2743 -0.9353
23295SOL     OW75976   1.066   3.531   8.610 -0.0815  1.1913 -0.3112
23295SOL    HW175977   1.032   3.573   8.532  1.0198  3.5246  0.3677
23295SOL    HW275978   1.161   3.539   8.602  0.0581  1.1773  1.0984
23296SOL     OW75979   3.123   3.712   1.967  0.7764  0.1614 -0.5108
23296SOL    HW175980   3.170   3.629   1.962 -0.7381 -0.7302 -0.6306
23296SOL    HW275981   3.112   3.740   1.876 -1.1539 -0.9797 -0.6710
23297SOL     OW75982   7.021   2.178   6.022 -0.3406 -0.1958 -0.5586
23297SOL    HW175983   7.059   2.121   6.089  0.5066  0.2481 -0.6561
23297SOL    HW275984   7.067   2.261   6.032 -1.0848  0.2632 -0.8750
23298SOL     OW75985  10.650   7.752   9.366 -0.2531 -0.5408 -0.0042
23298SOL    HW175986  10.676   7.674   9.416 -0.6148 -0.3120  0.5509
23298SOL    HW275987  10.709   7.821   9.397 -0.7402 -0.3026  0.3978
23299SOL     OW75988   6.258   8.002   6.298 -0.9077 -0.6624  0.1876
23299SOL    HW175989   6.315   7.944   6.248  0.0358  0.4565 -0.0943
23299SOL    HW275990   6.309   8.025   6.375 -0.1352  1.7925 -0.9299
23300SOL     OW75991   4.812   0.513   8.397  0.1215  0.5343 -0.1746
23300SOL    HW175992   4.770   0.450   8.457  0.2831 -0.5095 -1.1240
23300SOL    HW275993   4.851   0.578   8.455 -0.8895  0.3084  0.8084
23301SOL     OW75994   6.957   9.681   7.503  0.4672  0.5809 -0.6135
23301SOL    HW175995   6.976   9.587   7.506 -0.2156  0.4245 -1.0176
23301SOL    HW275996   6.904   9.693   7.424  2.1281  1.6023 -1.6490
23302SOL     OW75997   5.339   5.143   5.041  0.4911 -0.3128 -0.4436
23302SOL    HW175998   5.284   5.075   5.001  1.9010 -0.4504 -2.2721
23302SOL    HW275999   5.393   5.096   5.105 -0.9667 -0.2856  0.8652
23303SOL     OW76000   4.848   7.712   9.037 -0.0922  0.0697  0.3877
23303SOL    HW176001   4.880   7.739   9.123 -0.4096 -0.9821  0.8502
23303SOL    HW276002   4.920   7.733   8.977  0.0972  0.8894  0.8840
23304SOL     OW76003  10.300   7.292  10.613 -0.3164 -0.2300 -0.4066
23304SOL    HW176004  10.332   7.203  10.598  1.1539  0.1495  0.2754
23304SOL    HW276005  10.370   7.334  10.662 -1.3707  1.0513  0.0525
23305SOL     OW76006   5.730   2.359   3.820 -0.2390 -0.3507 -0.3893
23305SOL    HW176007   5.705   2.348   3.728  1.7482 -2.8865 -0.7339
23305SOL    HW276008   5.817   2.399   3.816 -0.4913  0.3041  0.4461
23306SOL     OW76009   4.478   9.769   1.081 -0.3716  0.1556 -0.2351
23306SOL    HW176010   4.453   9.860   1.066  0.9764  0.2519 -2.2922
23306SOL    HW276011   4.403   9.718   1.051 -0.2074  0.5501 -1.3490
23307SOL     OW76012   7.294   3.294   9.833  0.3369  0.4958  0.7314
23307SOL    HW176013   7.330   3.227   9.892  1.6022 -0.3262 -0.8899
23307SOL    HW276014   7.205   3.309   9.865  0.6945 -0.5347  2.3142
23308SOL     OW76015   0.994  10.469   6.345 -0.2750  0.3570 -0.5262
23308SOL    HW176016   1.069  10.432   6.392 -0.7319 -1.5177 -1.1623
23308SOL    HW276017   1.029  10.496   6.261 -0.5136 -1.9350 -1.4319
23309SOL     OW76018   5.534   5.971   6.415 -0.0695 -0.0890  0.3774
23309SOL    HW176019   5.555   5.878   6.410  1.6115  0.2657  0.0152
23309SOL    HW276020   5.480   5.988   6.338 -0.0549 -0.6920  0.2298
23310SOL     OW76021   5.782   5.757   6.782 -0.1978  0.0323 -0.1124
23310SOL    HW176022   5.724   5.830   6.760  0.5052  0.4077 -0.7522
23310SOL    HW276023   5.830   5.739   6.702  1.2497  0.3544  0.6568
23311SOL     OW76024   7.919   2.523   9.696  0.2384 -0.4247  0.1329
23311SOL    HW176025   7.880   2.610   9.684 -0.1914 -0.7006 -0.5444
23311SOL    HW276026   7.888   2.494   9.782 -0.2953 -0.2460  0.0074
23312SOL     OW76027   1.821   3.746   3.634  0.4551 -0.1952  0.0452
23312SOL    HW176028   1.735   3.780   3.611  0.7242 -0.2922 -1.1959
23312SOL    HW276029   1.880   3.820   3.624  0.6832 -0.4166 -0.3007
23313SOL     OW76030   8.580   7.252   7.659 -0.1610  0.4073 -0.1326
23313SOL    HW176031   8.620   7.206   7.585 -0.9320  0.3242 -0.5075
23313SOL    HW276032   8.527   7.320   7.619  1.1735  1.8344  0.4256
23314SOL     OW76033   3.025   5.788  10.017  0.1589  0.0471  0.0292
23314SOL    HW176034   3.099   5.741  10.055  0.4246  0.2708 -0.2069
23314SOL    HW276035   2.954   5.775  10.079  0.4816  0.0889  0.4123
23315SOL     OW76036   2.325   6.898  10.851 -0.1706 -0.4137  0.1851
23315SOL    HW176037   2.242   6.943  10.835  0.0951  0.4779  1.1928
23315SOL    HW276038   2.362   6.942  10.928  1.3984 -0.5427 -0.4434
23316SOL     OW76039   8.742  10.370   9.474 -0.3518 -0.2596 -0.3334
23316SOL    HW176040   8.782  10.457   9.476 -2.0059  0.5888 -1.2896
23316SOL    HW276041   8.747  10.338   9.564 -0.4371  1.1826  0.2046
23317SOL     OW76042   6.939   6.739   2.547  0.0206  0.0773 -0.3806
23317SOL    HW176043   6.964   6.777   2.632  2.1045 -0.6109 -0.6130
23317SOL    HW276044   6.967   6.647   2.553 -0.7465 -0.2430 -1.4481
23318SOL     OW76045   9.536   6.845   3.864 -0.2352  0.1996 -0.5004
23318SOL    HW176046   9.523   6.817   3.955 -0.9938  1.3212 -0.2408
23318SOL    HW276047   9.629   6.869   3.859 -0.1350 -0.0872 -0.0928
23319SOL     OW76048   7.266   6.000   4.165 -0.2573  0.0014  0.5444
23319SOL    HW176049   7.290   5.909   4.146  0.0311 -0.3683  2.4226
23319SOL    HW276050   7.210   6.026   4.093  0.3286 -1.3960 -0.4587
23320SOL     OW76051   2.430  10.907   0.363  0.1384 -0.4298  0.1642
23320SOL    HW176052   2.363  10.888   0.297  0.9693  0.6596 -1.0588
23320SOL    HW276053   2.453  10.822   0.401  0.3494 -1.2460 -1.6912
23321SOL     OW76054   4.914   4.736   5.411 -0.0943  0.2752  0.4986
23321SOL    HW176055   4.935   4.751   5.503 -0.6163 -0.9400  0.8273
23321SOL    HW276056   4.845   4.800   5.391  1.5266  2.0497  0.3107
23322SOL     OW76057  10.709   8.546   2.544 -0.1699 -0.0291  0.3300
23322SOL    HW176058  10.721   8.624   2.598 -0.1320  0.6540 -0.6396
23322SOL    HW276059  10.797   8.525   2.513 -0.3813  0.4038 -0.5720
23323SOL     OW76060   7.598   9.531   6.549 -0.2122 -0.1071  0.1610
23323SOL    HW176061   7.614   9.610   6.498 -2.0471 -0.3420 -0.8711
23323SOL    HW276062   7.574   9.563   6.636  0.1085  0.4121  0.0634
23324SOL     OW76063   4.392   1.585   2.270 -0.4617  0.2857  0.0236
23324SOL    HW176064   4.331   1.546   2.333  1.5814 -0.9581  1.3690
23324SOL    HW276065   4.442   1.648   2.322 -0.2635  0.8958 -0.9058
23325SOL     OW76066   1.762   7.817   7.681  0.8190  0.1758 -0.1753
23325SOL    HW176067   1.679   7.783   7.713  1.0117  1.4080  1.7977
23325SOL    HW276068   1.779   7.767   7.601 -1.8408 -0.0155 -0.7101
23326SOL     OW76069   4.635   9.621  10.745 -0.1402 -0.5439 -0.0669
23326SOL    HW176070   4.691   9.550  10.777 -0.2362 -0.6325 -0.0963
23326SOL    HW276071   4.620   9.600  10.653 -0.7728 -0.8800  0.1049
23327SOL     OW76072   9.050  10.496  10.402 -0.3121  0.2627 -0.0236
23327SOL    HW176073   9.066  10.409  10.439  0.9296  0.1854 -0.7044
23327SOL    HW276074   9.082  10.490  10.312  0.7948  1.7200  0.2436
23328SOL     OW76075   0.603   0.712   2.697 -0.4101  0.1105 -0.5114
23328SOL    HW176076   0.656   0.705   2.776  1.3324  0.3785 -1.6041
23328SOL    HW276077   0.555   0.630   2.692 -0.3903  0.0067  0.6907
23329SOL     OW76078   6.019   4.964   2.027 -0.5446  0.7901  0.4878
23329SOL    HW176079   5.936   5.009   2.015 -1.6097 -0.7983  1.4667
23329SOL    HW276080   6.086   5.030   2.007 -2.0071  2.5390  1.1158
23330SOL     OW76081   6.041   9.327   7.508  0.5189 -0.2095 -0.1622
23330SOL    HW176082   6.070   9.377   7.585  2.6603 -1.2382 -0.2194
23330SOL    HW276083   5.979   9.263   7.543  1.2367 -0.4643  0.6971
23331SOL     OW76084   4.079   3.822   3.993 -0.2315 -0.5051  0.0335
23331SOL    HW176085   4.040   3.897   4.039 -1.3456 -1.5661  0.8864
23331SOL    HW276086   4.141   3.861   3.931 -0.3963  1.0879  0.8240
23332SOL     OW76087  10.190   2.062   9.159 -0.3528  0.2894 -0.1861
23332SOL    HW176088  10.168   2.148   9.123 -1.3335  0.1646  0.0846
23332SOL    HW276089  10.281   2.070   9.186 -0.4844  1.2971 -0.0050
23333SOL     OW76090   5.846   7.933   3.441 -0.0860 -0.9970  0.4402
23333SOL    HW176091   5.785   7.892   3.380 -0.3046 -0.8325  0.5452
23333SOL    HW276092   5.932   7.903   3.413 -0.1289 -0.4294 -0.3378
23334SOL     OW76093   9.410   9.613   1.770 -0.1185 -0.1808 -0.4080
23334SOL    HW176094   9.410   9.670   1.694  1.9434  1.8909  0.9975
23334SOL    HW276095   9.496   9.570   1.768  0.0155 -0.0075  0.7794
23335SOL     OW76096   9.601  10.127   6.004 -0.5360  0.3541 -0.2160
23335SOL    HW176097   9.693  10.135   5.977 -1.0777  0.5527 -2.1682
23335SOL    HW276098   9.567  10.216   6.001 -1.1908  0.0901 -1.1341
23336SOL     OW76099   0.772  10.861   0.608 -0.2122 -0.4822 -0.0021
23336SOL    HW176100   0.696  10.805   0.628 -0.0642 -1.0807 -1.0354
23336SOL    HW276101   0.736  10.949   0.599 -0.9594 -0.9177 -1.4742
23337SOL     OW76102   4.297   2.629   2.499 -0.1502  0.3699  0.0426
23337SOL    HW176103   4.203   2.622   2.516 -0.3744  1.4368 -0.6556
23337SOL    HW276104   4.319   2.550   2.451 -0.8825  0.5256 -0.5692
23338SOL     OW76105   9.725   6.524   8.694  0.3447  0.4669 -0.1305
23338SOL    HW176106   9.712   6.575   8.774 -0.9220  1.3497 -0.8614
23338SOL    HW276107   9.660   6.559   8.632 -1.3042 -2.6766 -0.3711
23339SOL     OW76108   6.747   5.890   1.809 -0.0409 -0.1594  0.2236
23339SOL    HW176109   6.734   5.859   1.898  2.1079  0.3149  0.7643
23339SOL    HW276110   6.686   5.963   1.799 -2.1970 -1.8397  0.3369
23340SOL     OW76111   7.482  10.562   9.053  0.2566 -0.0810 -0.1722
23340SOL    HW176112   7.508  10.608   9.133  1.8541 -2.0071  0.4844
23340SOL    HW276113   7.430  10.488   9.083  0.2203 -0.3992 -0.9809
23341SOL     OW76114   8.906   1.352   2.165  0.2559 -0.0504  0.5716
23341SOL    HW176115   8.943   1.309   2.242  1.9878  0.7934  0.2644
23341SOL    HW276116   8.977   1.353   2.101 -1.5357 -1.9661 -1.6095
23342SOL     OW76117   6.422   5.846   3.787 -0.2820 -0.1617 -0.1172
23342SOL    HW176118   6.358   5.822   3.855 -0.1654  1.7557  0.7406
23342SOL    HW276119   6.373   5.901   3.726  0.3102  0.5810  0.0580
23343SOL     OW76120   7.644   6.035   1.451  0.1445 -0.2279  0.1357
23343SOL    HW176121   7.670   6.127   1.460 -2.0075  0.2856  2.1637
23343SOL    HW276122   7.725   5.985   1.467  1.9211  1.2111 -3.3754
23344SOL     OW76123   0.673   9.157   2.012  0.3908  0.1267 -0.4732
23344SOL    HW176124   0.728   9.137   1.936  1.0357  0.1369 -0.0204
23344SOL    HW276125   0.734   9.158   2.086 -0.1711  0.4563 -0.0050
23345SOL     OW76126   4.840  10.597   8.179 -0.4350  0.2768 -0.1922
23345SOL    HW176127   4.751  10.562   8.178 -0.7320  0.9833  0.5606
23345SOL    HW276128   4.846  10.646   8.261  0.5904  0.3858 -0.3170
23346SOL     OW76129   8.154   7.660   8.663  0.0446 -0.0387 -0.2861
23346SOL    HW176130   8.225   7.648   8.599 -0.2940  0.1617 -0.7044
23346SOL    HW276131   8.098   7.584   8.651  1.1094 -1.1392  1.2791
23347SOL     OW76132   4.936  10.918   4.442 -0.0437 -0.2443 -0.3975
23347SOL    HW176133   4.904  10.879   4.361 -1.9228 -1.0029  0.6425
23347SOL    HW276134   4.869  10.983   4.465 -1.0425 -1.9214  1.8993
23348SOL     OW76135   1.316   8.358   4.384 -0.1970  0.1076  0.1621
23348SOL    HW176136   1.387   8.295   4.374 -1.5311 -1.6173  0.9128
23348SOL    HW276137   1.359   8.440   4.406  1.7454 -0.0014 -2.7216
23349SOL     OW76138  10.072   7.189   4.583  0.1136 -0.2364  0.2508
23349SOL    HW176139  10.008   7.259   4.596 -1.5139 -1.5200 -0.3922
23349SOL    HW276140  10.019   7.113   4.559  2.0236 -0.6744 -3.2488
23350SOL     OW76141   9.021   7.362   2.923 -0.1406  0.5873  0.6499
23350SOL    HW176142   8.934   7.325   2.942 -1.1747  1.6763 -1.6269
23350SOL    HW276143   9.082   7.295   2.954 -1.7471 -0.2039  2.3608
23351SOL     OW76144   3.685  10.076   1.647  0.5830  0.1280 -0.0884
23351SOL    HW176145   3.657  10.066   1.738 -0.8349  0.2143 -0.4920
23351SOL    HW276146   3.766  10.026   1.642  0.1121 -0.7916  0.9560
23352SOL     OW76147   8.705   6.244  10.902 -0.5741 -0.0968 -0.5118
23352SOL    HW176148   8.737   6.182  10.968 -1.0380  0.1744 -0.0294
23352SOL    HW276149   8.743   6.328  10.928  0.0721 -0.1712 -1.1801
23353SOL     OW76150   4.538   3.099   6.980 -0.4650 -0.8343  0.2979
23353SOL    HW176151   4.583   3.149   7.048  0.6566 -1.0033 -0.3098
23353SOL    HW276152   4.545   3.008   7.007  0.0052 -0.9041 -0.0552
23354SOL     OW76153   1.346   7.009   6.427 -0.3665 -0.3610  0.9107
23354SOL    HW176154   1.265   7.014   6.375  0.0107 -0.0728  0.3427
23354SOL    HW276155   1.415   7.037   6.367  0.3055 -1.6123  1.0616
23355SOL     OW76156   7.622   6.712   1.038  0.3780  0.5744 -0.2948
23355SOL    HW176157   7.704   6.716   1.086 -1.0053 -1.7518  2.5698
23355SOL    HW276158   7.648   6.694   0.947  3.0079  0.8385  0.3250
23356SOL     OW76159   0.454   2.917   6.140 -0.4209  0.1042 -0.0138
23356SOL    HW176160   0.462   2.870   6.223 -2.1607 -1.2097 -0.5317
23356SOL    HW276161   0.402   2.994   6.161 -1.7530 -0.7548 -0.0200
23357SOL     OW76162   5.007   1.515   0.422 -0.3141  0.0538 -0.1086
23357SOL    HW176163   5.005   1.444   0.486  0.0907 -1.3419 -1.5725
23357SOL    HW276164   5.014   1.594   0.474 -2.9888 -0.7753  1.6978
23358SOL     OW76165   7.987   4.855   7.229 -0.0429  0.0230  0.1424
23358SOL    HW176166   7.943   4.807   7.159  1.3527  0.4945 -1.1165
23358SOL    HW276167   8.033   4.927   7.185  1.3611 -0.0029  1.4456
23359SOL     OW76168   3.136   1.000   8.354 -0.8990  0.3842  0.0959
23359SOL    HW176169   3.113   1.092   8.370 -0.2383  0.6068 -0.1967
23359SOL    HW276170   3.100   0.982   8.267  0.0013  0.7303 -0.3590
23360SOL     OW76171   7.887   8.816  10.734  0.2793  0.1092 -0.3156
23360SOL    HW176172   7.804   8.848  10.769  0.5734  1.2825 -0.6507
23360SOL    HW276173   7.879   8.828  10.639  1.2432  1.3020 -0.2691
23361SOL     OW76174   3.640   0.624   6.739 -0.7589  0.4281 -0.4337
23361SOL    HW176175   3.635   0.599   6.647 -1.8486 -4.4336  0.6615
23361SOL    HW276176   3.554   0.661   6.759 -1.1221 -0.0621 -1.0526
23362SOL     OW76177   8.786   5.797  10.266  0.5702 -0.4388  0.3648
23362SOL    HW176178   8.765   5.708  10.237 -0.0402 -0.2506  0.2355
23362SOL    HW276179   8.764   5.798  10.359  0.0856 -0.2710  0.2509
23363SOL     OW76180   6.794   4.458   2.037  0.2268  0.1493  0.0566
23363SOL    HW176181   6.766   4.392   2.099  0.9678 -2.2729 -2.0002
23363SOL    HW276182   6.888   4.442   2.025  0.4080  1.5132 -0.5716
23364SOL     OW76183   6.059   2.877  10.203 -0.1780  0.0017  0.2706
23364SOL    HW176184   6.036   2.908  10.116  0.2233 -1.0042 -0.2074
23364SOL    HW276185   6.039   2.950  10.261 -2.6604 -0.0864 -0.3510
23365SOL     OW76186   5.142   6.706   1.667 -0.0135 -0.5454 -0.6212
23365SOL    HW176187   5.226   6.752   1.673 -0.0428 -0.4622 -0.8225
23365SOL    HW276188   5.076   6.773   1.686 -0.0253 -0.6602 -0.2529
23366SOL     OW76189   7.668   1.330   9.499 -0.4697  0.1071  0.3182
23366SOL    HW176190   7.690   1.408   9.447  0.8350 -0.7507 -0.4805
23366SOL    HW276191   7.572   1.329   9.500 -0.5186  1.4739 -0.0187
23367SOL     OW76192  10.120   2.871   3.653 -0.6064  0.3247 -0.7232
23367SOL    HW176193  10.178   2.863   3.577 -2.5752  0.0096 -2.2575
23367SOL    HW276194  10.161   2.815   3.719  1.1391  0.5722 -1.5170
23368SOL     OW76195   9.824   5.685   5.143  0.2690 -0.5186  0.2177
23368SOL    HW176196   9.823   5.605   5.091  1.2019 -0.0480 -0.5680
23368SOL    HW276197   9.799   5.657   5.231 -2.4943 -1.1478 -0.6805
23369SOL     OW76198   1.801   3.697   2.119  0.2873  0.1664  0.6625
23369SOL    HW176199   1.711   3.703   2.149 -0.3104 -1.8347 -0.5680
23369SOL    HW276200   1.828   3.788   2.105 -2.6617  0.8061 -1.9947
23370SOL     OW76201  10.652   9.379   5.493  0.1497  0.3535  0.3068
23370SOL    HW176202  10.707   9.304   5.473  0.7764  0.7058  0.6663
23370SOL    HW276203  10.599   9.392   5.415 -0.3878 -0.8147  0.4533
23371SOL     OW76204   1.074   6.923   9.695 -0.5326  0.2581 -0.4382
23371SOL    HW176205   0.994   6.969   9.718  0.3974  2.1873 -0.8943
23371SOL    HW276206   1.065   6.902   9.602 -1.7814 -2.3038  0.1927
23372SOL     OW76207   4.117   1.311   0.221 -0.3657  0.5565  0.1619
23372SOL    HW176208   4.181   1.319   0.292 -1.2769  0.7924  0.9660
23372SOL    HW276209   4.035   1.291   0.264 -1.5436  3.3660 -0.5583
23373SOL     OW76210   1.609   6.692   1.116 -0.0397  0.1355  0.5422
23373SOL    HW176211   1.514   6.702   1.110 -0.3302 -1.1344  2.1069
23373SOL    HW276212   1.637   6.674   1.027 -1.4002 -0.2819  0.1654
23374SOL     OW76213   4.639   0.542   6.849 -0.3179 -0.5306 -0.3351
23374SOL    HW176214   4.670   0.621   6.805 -0.1602  0.4272  1.4001
23374SOL    HW276215   4.549   0.532   6.819 -0.6397  0.8416  0.0871
23375SOL     OW76216   9.288   5.164   3.733 -0.1433 -0.3924 -0.0467
23375SOL    HW176217   9.224   5.145   3.802  0.7762 -0.6205  0.7577
23375SOL    HW276218   9.349   5.226   3.772  0.1151 -0.1410 -0.8191
23376SOL     OW76219   6.111  10.497   6.159  0.1608  0.5874 -0.1553
23376SOL    HW176220   6.024  10.498   6.198  1.2375  0.8890  2.4330
23376SOL    HW276221   6.122  10.584   6.122 -0.4909  0.6454 -0.2287
23377SOL     OW76222   2.412   4.276   1.527  0.6740 -0.0894 -0.1269
23377SOL    HW176223   2.489   4.325   1.555  0.1112  1.1199 -0.5937
23377SOL    HW276224   2.377   4.238   1.608 -0.3175  2.4365  0.7614
23378SOL     OW76225   4.402   1.896   7.015 -0.5593  0.2767 -0.3242
23378SOL    HW176226   4.317   1.923   6.981 -0.8189 -0.6412 -0.4304
23378SOL    HW276227   4.387   1.809   7.052  0.2201  0.3178  0.1135
23379SOL     OW76228   3.522   4.268   5.911  0.1919  0.1249  0.0230
23379SOL    HW176229   3.553   4.250   6.000  0.3005  0.9724  0.1607
23379SOL    HW276230   3.569   4.346   5.884 -2.6102  2.2047  0.6975
23380SOL     OW76231   8.576   6.717   9.768 -0.3427  0.1035 -0.0672
23380SOL    HW176232   8.651   6.664   9.796 -0.0640  0.7786  0.4713
23380SOL    HW276233   8.500   6.671   9.804  0.0791  1.7784  3.2473
23381SOL     OW76234   5.534   9.446   9.708 -0.3062 -0.1381 -0.1852
23381SOL    HW176235   5.626   9.419   9.710 -0.6355 -1.3205  1.6653
23381SOL    HW276236   5.489   9.372   9.666 -0.4019  0.5885 -1.4087
23382SOL     OW76237   1.815   4.083   3.635 -0.0921  0.3040 -0.0564
23382SOL    HW176238   1.847   4.173   3.635  1.2062 -0.1345  0.1176
23382SOL    HW276239   1.734   4.086   3.584 -0.6413  1.7442  0.8159
23383SOL     OW76240   0.036  10.736   8.372 -0.3310 -0.6703 -0.2046
23383SOL    HW176241   0.021  10.723   8.279 -0.0647 -1.7564 -0.1030
23383SOL    HW276242   0.118  10.690   8.390 -0.2277 -0.2266  0.5092
23384SOL     OW76243   6.760   3.073   3.638  0.0978  0.4738  0.2214
23384SOL    HW176244   6.674   3.100   3.670  0.3838  0.4406  1.0529
23384SOL    HW276245   6.766   2.980   3.658  1.4453  1.0300  2.9191
23385SOL     OW76246   8.165   2.576   1.980  0.1662  0.2138  0.4087
23385SOL    HW176247   8.162   2.667   1.949 -0.5800 -0.1190 -0.5598
23385SOL    HW276248   8.129   2.580   2.068  1.8670  1.1173  1.1001
23386SOL     OW76249   0.046   5.485   5.449 -0.0161 -0.3885 -0.2006
23386SOL    HW176250   0.052   5.433   5.529  0.2516  0.3828  0.2908
23386SOL    HW276251   0.092   5.432   5.383  2.0180  0.0842  0.7543
23387SOL     OW76252   3.605   2.880   0.653 -0.3688 -0.2660 -0.5729
23387SOL    HW176253   3.586   2.920   0.568 -0.1967  0.9413 -0.0642
23387SOL    HW276254   3.597   2.952   0.715 -0.5951 -1.1605  0.4548
23388SOL     OW76255   6.732   8.364  10.754  0.4066  0.0282 -0.0776
23388SOL    HW176256   6.811   8.367  10.701  0.9303  0.0948  0.6813
23388SOL    HW276257   6.675   8.301  10.709  0.8406  0.0661 -0.6926
23389SOL     OW76258   5.257   7.599   6.322  0.1842 -0.0331  0.2282
23389SOL    HW176259   5.173   7.591   6.368  0.2347  2.0361  0.7766
23389SOL    HW276260   5.232   7.606   6.229 -0.0501 -1.9885  0.1030
23390SOL     OW76261   4.680   0.990   1.142 -0.5818 -0.2373 -0.1907
23390SOL    HW176262   4.756   0.960   1.193 -0.4623  0.3643 -0.0004
23390SOL    HW276263   4.642   0.910   1.105 -0.9361 -0.7298  1.2013
23391SOL     OW76264   0.153  10.214   1.820 -0.1971  0.0313  0.1191
23391SOL    HW176265   0.178  10.306   1.807  0.0191  0.2175  1.7008
23391SOL    HW276266   0.058  10.216   1.824 -0.2979 -0.0770 -1.5692
23392SOL     OW76267   9.728   3.752   1.337 -0.0646  0.1467 -0.2753
23392SOL    HW176268   9.713   3.739   1.243  0.0446  0.6152 -0.3611
23392SOL    HW276269   9.823   3.757   1.345 -0.1245  2.6812 -0.5159
23393SOL     OW76270   8.458   7.011   1.694 -0.3279  0.0604  0.5683
23393SOL    HW176271   8.445   6.921   1.723 -0.3370 -0.5624 -1.2563
23393SOL    HW276272   8.548   7.032   1.719 -0.5353 -0.2148  1.5728
23394SOL     OW76273  10.293   3.955  10.231 -0.1454 -0.1937 -0.0643
23394SOL    HW176274  10.223   3.891  10.218 -0.8139  0.4473  0.3043
23394SOL    HW276275  10.352   3.941  10.157 -0.5170 -0.9235 -0.2370
23395SOL     OW76276   4.463  10.317   5.278 -0.0807  0.0729  0.2867
23395SOL    HW176277   4.374  10.282   5.275  0.1869 -0.5949  0.0717
23395SOL    HW276278   4.452  10.406   5.312 -1.0334  0.6803 -1.4621
23396SOL     OW76279   0.292   8.581   5.618 -0.5313  0.7020  0.0912
23396SOL    HW176280   0.214   8.628   5.646 -0.1059  1.4663  0.0051
23396SOL    HW276281   0.362   8.646   5.620 -0.0039  0.1606 -0.3555
23397SOL     OW76282   3.773   2.745   9.855  0.1147  0.4795 -0.6107
23397SOL    HW176283   3.835   2.794   9.802  0.6125  1.6267  0.9415
23397SOL    HW276284   3.774   2.657   9.818  3.4794  0.1539 -0.0764
23398SOL     OW76285   6.060   4.961   1.453 -0.8636 -0.1356  0.0743
23398SOL    HW176286   5.978   4.914   1.439 -0.8229 -0.0304 -0.5384
23398SOL    HW276287   6.125   4.913   1.402 -0.9380  0.8920 -1.0530
23399SOL     OW76288   6.673   5.180   2.434  0.2014 -0.3931  0.0715
23399SOL    HW176289   6.755   5.200   2.478 -0.2213  1.0500  0.2587
23399SOL    HW276290   6.690   5.099   2.387  2.1720  0.5706 -1.0149
23400SOL     OW76291   7.834   1.282   9.701  0.7516  0.3354 -0.2142
23400SOL    HW176292   7.763   1.305   9.640  0.7477  1.2726  0.1307
23400SOL    HW276293   7.913   1.283   9.647  0.6067  0.0219 -0.4397
23401SOL     OW76294   6.729   6.342   5.971  0.0539 -0.0891 -0.3316
23401SOL    HW176295   6.715   6.349   5.877  1.3519 -0.6212 -0.5876
23401SOL    HW276296   6.682   6.262   5.996  1.6634 -1.3164 -0.9976
23402SOL     OW76297   2.740   5.154   0.414 -0.2237 -0.1215  0.1785
23402SOL    HW176298   2.681   5.215   0.369 -1.2217 -0.9813  0.2837
23402SOL    HW276299   2.775   5.099   0.344  0.4679  0.3737  0.1188
23403SOL     OW76300   3.963   6.031   5.048 -0.6780  0.3785  0.0615
23403SOL    HW176301   3.977   5.952   4.996  2.5100 -0.0581  1.3291
23403SOL    HW276302   3.879   6.016   5.092  0.3729 -3.0351  1.2860
23404SOL     OW76303   6.605   1.841   6.960  0.0773  0.6241  0.2053
23404SOL    HW176304   6.517   1.823   6.993  0.3562 -0.2659  0.4862
23404SOL    HW276305   6.628   1.926   6.997 -0.7473  0.9659 -0.0478
23405SOL     OW76306   4.911  10.123   8.513 -0.1801 -0.2721 -0.0337
23405SOL    HW176307   4.902  10.177   8.591  0.3288 -0.2190 -0.0050
23405SOL    HW276308   5.004  10.128   8.491 -0.3043 -0.3516 -0.5958
23406SOL     OW76309   9.516   7.129   6.207 -0.4836 -0.3242 -0.1140
23406SOL    HW176310   9.571   7.206   6.193  1.5110 -1.5914  0.2758
23406SOL    HW276311   9.428   7.164   6.219  0.6566  2.0755  2.1605
23407SOL     OW76312   9.101   8.584   4.171 -0.6681 -0.7851  0.2293
23407SOL    HW176313   9.190   8.551   4.185 -0.1248  0.1332 -0.9829
23407SOL    HW276314   9.046   8.506   4.177  0.5219 -1.8719 -1.8764
23408SOL     OW76315   3.025   5.228   3.167 -0.3922  0.5734  0.3271
23408SOL    HW176316   3.030   5.254   3.075 -0.4576  0.7097  0.3619
23408SOL    HW276317   3.116   5.223   3.196 -0.4011  1.7383  0.5939
23409SOL     OW76318   3.237   0.695   7.527  0.3851  0.2271  0.2094
23409SOL    HW176319   3.157   0.720   7.572  1.4579  2.0472  1.2183
23409SOL    HW276320   3.208   0.672   7.438 -1.3653 -0.2914  0.8747
23410SOL     OW76321   8.515   6.753   1.043 -0.0722 -0.4375  0.4579
23410SOL    HW176322   8.428   6.713   1.042  1.2185 -3.5392  0.4001
23410SOL    HW276323   8.537   6.760   1.136  0.8107 -2.7557  0.4904
23411SOL     OW76324   0.946   1.533   2.958  0.3965 -0.4458  0.3418
23411SOL    HW176325   0.863   1.581   2.964  1.7562  2.0029  1.2599
23411SOL    HW276326   0.923   1.442   2.974 -1.8961  0.4063  2.6109
23412SOL     OW76327   7.203   9.178   6.360  0.2900  0.0722 -0.4274
23412SOL    HW176328   7.171   9.142   6.278  0.1335  0.0033 -0.3365
23412SOL    HW276329   7.238   9.102   6.408 -1.6994 -0.2918  0.5507
23413SOL     OW76330   5.451   6.797  10.717  0.0541 -0.6178 -0.3958
23413SOL    HW176331   5.525   6.839  10.761 -0.1183 -0.6689 -0.0569
23413SOL    HW276332   5.386   6.867  10.709  0.2334 -0.5005 -0.9346
23414SOL     OW76333   6.099   9.950   8.869  0.4556 -0.2909  0.0498
23414SOL    HW176334   6.186   9.940   8.829  0.8152  0.1377  0.6963
23414SOL    HW276335   6.038   9.952   8.795  1.0546 -0.0010 -0.4429
23415SOL     OW76336   8.161   9.486   4.202  0.5265 -0.1936 -0.0666
23415SOL    HW176337   8.101   9.422   4.239  1.4134 -0.8893  0.1769
23415SOL    HW276338   8.195   9.534   4.278  1.0703 -0.4987 -0.1170
23416SOL     OW76339   0.279   2.261   2.832  0.1550  0.4585  0.5564
23416SOL    HW176340   0.259   2.252   2.739  1.9082 -1.6227  0.3181
23416SOL    HW276341   0.225   2.195   2.875  0.9048 -0.0355  0.7558
23417SOL     OW76342  10.903   9.093   5.160  0.7447 -0.4993 -0.3335
23417SOL    HW176343  10.893   9.125   5.070 -0.3166  0.7192  0.1820
23417SOL    HW276344  10.991   9.055   5.163  0.9024 -0.2982 -1.7983
23418SOL     OW76345   0.587   3.594   3.015  0.4559  0.2760 -0.2687
23418SOL    HW176346   0.531   3.670   3.030 -0.8368 -0.6848 -0.1081
23418SOL    HW276347   0.664   3.630   2.970 -0.0291  1.7026 -0.0099
23419SOL     OW76348   5.426   8.480   4.628 -0.0203 -0.1401 -0.1809
23419SOL    HW176349   5.461   8.489   4.716 -0.4895 -0.2506  0.0230
23419SOL    HW276350   5.348   8.425   4.639  0.4635 -0.9649 -0.8066
23420SOL     OW76351   9.937   2.377   8.553  0.4475  0.8058 -0.0401
23420SOL    HW176352   9.857   2.408   8.510  0.0667  0.5520  0.4713
23420SOL    HW276353   9.929   2.409   8.643  0.5861  0.1777  0.1967
23421SOL     OW76354   8.291   0.892   9.539  0.4511 -0.4043 -0.6442
23421SOL    HW176355   8.367   0.875   9.594  0.2730 -1.1025 -0.6154
23421SOL    HW276356   8.220   0.911   9.601  0.3929 -0.5988 -0.6525
23422SOL     OW76357   3.109   1.707   0.015 -0.4808 -0.6093  0.3787
23422SOL    HW176358   3.039   1.702   0.080 -1.5616 -1.2795 -0.7782
23422SOL    HW276359   3.139   1.616   0.005 -0.2279 -0.4935  0.0563
23423SOL     OW76360   0.696   2.001   8.313 -0.1442  0.7658  0.2720
23423SOL    HW176361   0.625   1.983   8.251 -0.4683 -1.6222  1.2128
23423SOL    HW276362   0.668   1.957   8.394  2.5364 -0.6268  0.5668
23424SOL     OW76363   9.673   5.937   7.247  0.4350 -0.3434  0.0824
23424SOL    HW176364   9.691   5.997   7.320  0.3056  0.4446 -0.5176
23424SOL    HW276365   9.679   5.850   7.285 -0.7995  0.0734  1.3262
23425SOL     OW76366   5.069   2.959   0.446 -0.0926  0.1373  0.5962
23425SOL    HW176367   5.047   2.933   0.535  0.2385  1.7138  1.1760
23425SOL    HW276368   5.019   3.040   0.432  1.9994  1.4764  0.4189
23426SOL     OW76369  10.203  10.883   4.808 -0.4959 -0.1838  0.5983
23426SOL    HW176370  10.112  10.892   4.781 -0.6871 -0.7501  1.0477
23426SOL    HW276371  10.200  10.829   4.887  0.0798  1.1676  1.5970
23427SOL     OW76372   6.816   3.985   5.085  0.2935 -0.2679  0.0379
23427SOL    HW176373   6.831   3.928   5.010  2.2139  0.1325  0.0713
23427SOL    HW276374   6.857   3.939   5.158 -1.1010 -0.4033  0.7781
23428SOL     OW76375   9.372   4.523  10.486 -0.2582 -0.0232 -0.4716
23428SOL    HW176376   9.431   4.562  10.550  2.0253  0.0486 -2.4851
23428SOL    HW276377   9.346   4.597  10.430  1.6456 -0.7428 -2.4476
23429SOL     OW76378   3.375  10.210   9.809 -0.0077 -0.0912 -0.1165
23429SOL    HW176379   3.391  10.116   9.802  1.4565  0.1771 -0.8732
23429SOL    HW276380   3.305  10.218   9.873 -1.0316 -1.7580 -0.9668
23430SOL     OW76381   3.570   3.272   9.926 -0.4311  0.0843 -0.0314
23430SOL    HW176382   3.614   3.357   9.928 -0.1234 -0.0856  1.1040
23430SOL    HW276383   3.561   3.251   9.833 -0.0263  1.1069 -0.3065
23431SOL     OW76384   3.992   1.192   8.742 -0.4032  0.3728  0.4315
23431SOL    HW176385   4.076   1.160   8.775 -0.1483 -1.2647 -1.5406
23431SOL    HW276386   3.930   1.178   8.813  0.4851 -1.0539  0.9617
23432SOL     OW76387   0.224   1.708   9.288 -0.0644  0.0135  0.1169
23432SOL    HW176388   0.196   1.617   9.278 -0.3156 -0.0275  1.0694
23432SOL    HW276389   0.309   1.712   9.245 -0.9553 -0.1592 -1.7799
23433SOL     OW76390   5.530  10.876  10.145 -0.5191  0.2326  0.3094
23433SOL    HW176391   5.503  10.819  10.073  1.0643 -0.5566  0.3048
23433SOL    HW276392   5.566  10.817  10.211  0.7352  1.1710  0.5018
23434SOL     OW76393   7.129   7.848   1.272 -0.1413 -0.0143 -0.0329
23434SOL    HW176394   7.212   7.852   1.319 -1.3457  0.4927  2.2141
23434SOL    HW276395   7.106   7.755   1.270 -1.4040  0.1158  3.0672
23435SOL     OW76396   6.513   0.365   9.874  0.3937  0.0660  0.4882
23435SOL    HW176397   6.495   0.459   9.876 -1.4478 -0.2337 -0.2575
23435SOL    HW276398   6.514   0.339   9.966 -0.9926  0.4972  0.6415
23436SOL     OW76399   0.867   6.133  10.600 -0.1972  0.1276 -0.7281
23436SOL    HW176400   0.805   6.182  10.654  0.7611  0.8279 -0.2347
23436SOL    HW276401   0.813   6.068  10.556 -0.9009 -1.1587  1.8186
23437SOL     OW76402   9.336   7.552   6.113 -0.1353  0.1245 -0.3009
23437SOL    HW176403   9.261   7.588   6.066 -1.1194 -1.1945  0.1958
23437SOL    HW276404   9.361   7.474   6.064  0.7315  0.3824 -0.2901
23438SOL     OW76405  10.571   1.619   0.100 -0.5157 -0.7319 -0.1378
23438SOL    HW176406  10.660   1.585   0.089 -0.2745 -0.2681  0.3308
23438SOL    HW276407  10.559   1.623   0.195 -0.6875  0.0999 -0.1863
23439SOL     OW76408   6.732   1.512   6.536 -0.0647  0.0114  0.2492
23439SOL    HW176409   6.815   1.553   6.562  0.0772  0.2765 -0.5948
23439SOL    HW276410   6.738   1.503   6.441 -1.1184  0.2923  0.1441
23440SOL     OW76411   7.422   1.698   1.625  0.2707  0.0165 -0.2608
23440SOL    HW176412   7.475   1.618   1.628  0.0123 -0.2125  4.0581
23440SOL    HW276413   7.481   1.764   1.588  1.8977 -1.3106 -0.1761
23441SOL     OW76414   6.364   7.855   2.902  0.1499  0.2609  0.3236
23441SOL    HW176415   6.409   7.895   2.828  1.5623 -0.1581  0.9261
23441SOL    HW276416   6.296   7.801   2.863  0.5805  0.4056 -0.6465
23442SOL     OW76417   7.652   0.187   8.798 -0.0534  0.0135  0.3315
23442SOL    HW176418   7.581   0.175   8.861 -0.1252  0.6242  0.3823
23442SOL    HW276419   7.726   0.138   8.834 -1.0447 -2.4592 -0.8097
23443SOL     OW76420   2.922   7.411   8.794  0.4473  0.0306  0.0797
23443SOL    HW176421   2.961   7.447   8.874 -0.3065  1.6755 -0.2437
23443SOL    HW276422   2.980   7.443   8.723  1.1027 -1.4014 -0.0613
23444SOL     OW76423   1.928   1.440   4.432  0.1756  0.7361 -0.2577
23444SOL    HW176424   1.979   1.383   4.374  0.2837  0.5840 -0.0162
23444SOL    HW276425   1.889   1.505   4.374  0.2568  0.5648 -0.5050
23445SOL     OW76426   2.683   9.754  10.073 -0.7250  0.2596 -0.2612
23445SOL    HW176427   2.668   9.823  10.009 -1.2103  0.0602 -0.3746
23445SOL    HW276428   2.678   9.798  10.158  0.2543  0.5828 -0.3659
23446SOL     OW76429   3.736   6.326   8.859 -0.1790  0.6608  0.5494
23446SOL    HW176430   3.666   6.333   8.924 -1.4963 -1.1701 -0.5603
23446SOL    HW276431   3.794   6.258   8.895 -1.0958 -0.6069 -0.2727
23447SOL     OW76432   8.915   6.850   0.128 -0.0596  0.1168 -0.0826
23447SOL    HW176433   8.977   6.912   0.090  0.2338  1.3092  2.1778
23447SOL    HW276434   8.969   6.784   0.171 -0.3630 -0.2961 -0.3299
23448SOL     OW76435   0.675   0.611   5.526 -0.0748 -0.3677 -0.3013
23448SOL    HW176436   0.629   0.656   5.455 -0.7043 -0.7628 -0.1558
23448SOL    HW276437   0.622   0.628   5.604  1.0266  0.7121  0.2442
23449SOL     OW76438   2.890   8.302   0.594  0.4135  0.2810 -0.4551
23449SOL    HW176439   2.903   8.308   0.499 -0.0598 -2.8210 -0.8077
23449SOL    HW276440   2.972   8.333   0.631  1.5743 -0.7933 -1.9984
23450SOL     OW76441   2.505   5.997   5.087 -0.0610 -0.1381 -0.2508
23450SOL    HW176442   2.490   5.908   5.117 -0.1575  0.4585  1.5940
23450SOL    HW276443   2.440   6.050   5.132  2.7521  1.4955  2.3126
23451SOL     OW76444   5.791   4.064   2.843  0.3556 -1.2371  0.2391
23451SOL    HW176445   5.760   3.980   2.809 -0.7403 -0.7666  0.0179
23451SOL    HW276446   5.736   4.081   2.919 -1.1692  0.4103 -1.1318
23452SOL     OW76447   5.875   8.630   9.033 -0.1830  0.2983 -0.1300
23452SOL    HW176448   5.922   8.699   8.986 -0.1885 -0.2670 -0.9964
23452SOL    HW276449   5.895   8.550   8.983 -0.8155 -0.1961  0.3945
23453SOL     OW76450   9.520   0.984   3.742 -0.0346 -0.5430  0.4258
23453SOL    HW176451   9.596   1.025   3.701 -0.9674  1.1011  0.2585
23453SOL    HW276452   9.507   0.903   3.693  1.3601 -0.6725  0.2222
23454SOL     OW76453   0.373   2.708   9.313  0.2856  0.6911 -0.3082
23454SOL    HW176454   0.422   2.750   9.242  0.2163  0.7881 -0.2984
23454SOL    HW276455   0.368   2.616   9.287 -0.9087  0.9643 -1.0958
23455SOL     OW76456   4.332   6.958  10.534  0.1681 -0.5965 -0.1395
23455SOL    HW176457   4.283   7.030  10.572  1.0244  0.5086 -1.0340
23455SOL    HW276458   4.424   6.984  10.543  0.4444 -0.9497 -1.6652
23456SOL     OW76459   2.599   9.916   9.566 -0.3863 -0.1164 -0.1195
23456SOL    HW176460   2.628   9.826   9.553  1.0241  0.2798  0.1281
23456SOL    HW276461   2.517   9.922   9.516 -0.9245 -1.7340  0.4921
23457SOL     OW76462   7.829  10.306   4.217  0.0093  0.6364 -0.3043
23457SOL    HW176463   7.820  10.345   4.304  0.0160  0.4575 -0.2234
23457SOL    HW276464   7.902  10.245   4.225 -0.8061 -0.3475 -0.0827
23458SOL     OW76465   8.852   3.078   9.884  0.6585  0.4658  0.6177
23458SOL    HW176466   8.814   3.022   9.952 -0.0709  0.8472  0.5357
23458SOL    HW276467   8.778   3.130   9.852  1.1061  0.6708 -0.0931
23459SOL     OW76468   6.797   6.065   5.036  0.9195 -0.3379  0.4410
23459SOL    HW176469   6.766   6.002   4.971 -0.0752 -1.5740  2.0267
23459SOL    HW276470   6.810   6.012   5.115 -0.0922  1.4564  1.8805
23460SOL     OW76471   8.450   3.797   9.770 -0.4583  0.4600  0.6137
23460SOL    HW176472   8.395   3.721   9.786  0.4986 -0.3461  0.1712
23460SOL    HW276473   8.422   3.830   9.685 -1.0278  0.7533  0.9081
23461SOL     OW76474   9.178   9.875   0.808  0.2979 -0.2060  0.2873
23461SOL    HW176475   9.144   9.835   0.729 -0.5864  0.6405  0.2089
23461SOL    HW276476   9.101   9.887   0.864 -0.2640  4.4256 -1.0399
23462SOL     OW76477   9.537   2.267   5.686 -0.1245  0.1189 -0.4937
23462SOL    HW176478   9.544   2.345   5.632  2.1249 -0.2302 -0.7947
23462SOL    HW276479   9.464   2.218   5.648 -0.3670  1.1906 -1.4531
23463SOL     OW76480   3.654   3.671   2.577 -0.0343  0.1962  0.4730
23463SOL    HW176481   3.582   3.659   2.639 -2.2729  2.3409 -1.4936
23463SOL    HW276482   3.686   3.583   2.561 -2.8457 -1.0131  0.8266
23464SOL     OW76483   5.380   5.293   4.209  0.3980 -0.4108 -0.0418
23464SOL    HW176484   5.434   5.370   4.228 -0.7837  0.0474  1.7019
23464SOL    HW276485   5.414   5.259   4.126  1.4468  1.5283 -0.4534
23465SOL     OW76486   1.431   0.082   3.878  0.0248  0.0203  0.5420
23465SOL    HW176487   1.394   0.072   3.966 -0.2983  0.6738  0.4820
23465SOL    HW276488   1.376   0.027   3.822 -0.3532  0.3443  0.5922
23466SOL     OW76489  10.559  10.717   0.421  0.2252 -0.2182 -0.0560
23466SOL    HW176490  10.611  10.724   0.501  0.8004 -1.0155 -0.3468
23466SOL    HW276491  10.494  10.650   0.441 -1.5250  1.5985  0.7236
23467SOL     OW76492   8.456   9.463   4.038 -0.0969  0.7874 -0.5547
23467SOL    HW176493   8.537   9.513   4.036  0.1491  0.3940 -0.5599
23467SOL    HW276494   8.450   9.431   4.129  1.3176 -1.6933 -1.2433
23468SOL     OW76495   8.891   0.737   6.709  0.4596 -0.4059  0.0067
23468SOL    HW176496   8.880   0.642   6.715 -0.6820 -0.2666  0.3640
23468SOL    HW276497   8.964   0.756   6.768  1.8863 -1.2295 -1.3932
23469SOL     OW76498   5.464   1.898   5.555  0.0718 -0.0734 -0.3132
23469SOL    HW176499   5.553   1.862   5.560  0.5247  0.9635 -0.5200
23469SOL    HW276500   5.421   1.869   5.635  1.1259  0.7307  0.5843
23470SOL     OW76501   3.872   9.946   4.135  0.0183 -0.2657  0.0258
23470SOL    HW176502   3.843   9.882   4.070 -0.9314 -0.6194  0.7841
23470SOL    HW276503   3.827   9.922   4.216  0.9305  0.3623  0.7514
23471SOL     OW76504   1.099  10.014   0.610  0.0127  0.0022  0.2081
23471SOL    HW176505   1.069   9.923   0.621  0.0174 -0.0972 -0.5660
23471SOL    HW276506   1.032  10.055   0.556  1.4469 -0.3457 -1.9540
23472SOL     OW76507  10.194  10.434   1.784 -0.0268 -0.1743 -0.3220
23472SOL    HW176508  10.132  10.433   1.711 -0.8334 -1.6924  0.3409
23472SOL    HW276509  10.197  10.344   1.814  3.1688 -0.3539 -0.8256
23473SOL     OW76510   5.214   8.887  10.012 -0.0318  0.4173 -0.6025
23473SOL    HW176511   5.299   8.845  10.003  0.5383  1.2703  0.5206
23473SOL    HW276512   5.232   8.968  10.061 -1.4604  0.6601 -0.4310
23474SOL     OW76513   9.347   7.669   9.740 -0.1596 -0.2498 -0.4868
23474SOL    HW176514   9.283   7.710   9.682 -0.3719  1.1150  0.6580
23474SOL    HW276515   9.353   7.579   9.709 -1.5214 -0.0062 -1.5580
23475SOL     OW76516   3.863   0.421  10.765  0.8976 -0.1102 -0.3568
23475SOL    HW176517   3.931   0.463  10.714  2.3916 -0.1144  1.5147
23475SOL    HW276518   3.883   0.444  10.856 -1.8273  0.2059  0.2695
23476SOL     OW76519   7.998  10.101   7.303 -0.0344 -0.4052  0.0084
23476SOL    HW176520   7.914  10.142   7.322  0.5376  0.7990  0.0285
23476SOL    HW276521   8.052  10.120   7.380  0.9381  0.7802 -0.9243
23477SOL     OW76522   2.045   3.045   2.671  0.2367 -0.0795  0.0674
23477SOL    HW176523   1.966   3.006   2.707  0.1301 -0.1908 -0.2773
23477SOL    HW276524   2.040   3.137   2.696 -1.7727  0.7479 -2.7974
23478SOL     OW76525   9.305   1.081   2.949  0.1983 -0.2658 -0.2827
23478SOL    HW176526   9.358   1.108   2.874 -0.1181  0.7268 -0.1675
23478SOL    HW276527   9.336   1.135   3.022 -1.9153  1.4453 -0.5418
23479SOL     OW76528   3.470  10.430   1.815 -0.2992  0.3544 -0.1367
23479SOL    HW176529   3.396  10.488   1.835 -1.4145 -0.5376 -1.4364
23479SOL    HW276530   3.547  10.478   1.844 -1.3735  1.3739  1.1623
23480SOL     OW76531   4.871   8.500   5.173 -0.2748  0.4599  0.0992
23480SOL    HW176532   4.817   8.544   5.108  1.0290  1.1762 -0.5263
23480SOL    HW276533   4.922   8.570   5.213 -0.3290 -0.1080  1.1962
23481SOL     OW76534   7.694   4.754   7.217  0.2428  0.3843  0.3229
23481SOL    HW176535   7.602   4.771   7.236 -0.2104 -1.7938  0.3224
23481SOL    HW276536   7.714   4.673   7.263  1.8531  0.1937 -0.6128
23482SOL     OW76537   8.162   7.796   8.399 -0.2124  0.0006 -0.2920
23482SOL    HW176538   8.176   7.786   8.305  1.3128 -2.7592  0.1398
23482SOL    HW276539   8.246   7.826   8.433 -0.4794  0.0943  0.3078
23483SOL     OW76540  10.490   6.985   9.429 -0.4247 -0.1560  0.0450
23483SOL    HW176541  10.562   7.018   9.483  0.8352  1.1740 -2.3047
23483SOL    HW276542  10.419   7.047   9.444 -0.4339 -0.3409  0.8464
23484SOL     OW76543   8.983   8.865   5.711  0.6442  0.6982  0.3870
23484SOL    HW176544   8.934   8.911   5.643 -0.3430 -0.8205  0.0070
23484SOL    HW276545   9.049   8.815   5.663  1.3334  1.2530  0.7408
23485SOL     OW76546   1.264   2.812   6.227  0.3297 -0.1327  0.2455
23485SOL    HW176547   1.308   2.727   6.230  2.0930  0.7499  0.5537
23485SOL    HW276548   1.334   2.876   6.241 -1.1695  1.3170  1.5886
23486SOL     OW76549   9.113   7.175   6.004  0.5680 -0.2899  0.1939
23486SOL    HW176550   9.056   7.099   5.990 -0.2138 -0.0393  1.7448
23486SOL    HW276551   9.201   7.138   6.008  0.6650 -0.6294 -2.7320
23487SOL     OW76552  10.550   7.933   1.406 -0.2447 -0.2110  0.2565
23487SOL    HW176553  10.599   7.996   1.459 -1.5768 -0.4934  1.9147
23487SOL    HW276554  10.592   7.849   1.425  0.3151 -0.1002 -0.4514
23488SOL     OW76555   9.297   1.687   3.204  0.1447 -0.4238  0.1233
23488SOL    HW176556   9.226   1.628   3.230 -0.3559  0.4279  0.7348
23488SOL    HW276557   9.282   1.703   3.111 -0.0264 -0.8395  0.0764
23489SOL     OW76558   0.127   0.799   6.118 -0.1124  0.0083  0.4352
23489SOL    HW176559   0.209   0.819   6.163 -1.0500  0.4394  2.0163
23489SOL    HW276560   0.069   0.872   6.138 -0.2775  0.8155 -2.4387
23490SOL     OW76561  10.566   5.446   8.682  0.3058  0.1020 -0.9665
23490SOL    HW176562  10.563   5.404   8.768  0.6544 -0.0760 -1.0405
23490SOL    HW276563  10.482   5.422   8.641  0.1454  0.1766 -0.6833
23491SOL     OW76564   4.924   4.631   6.777 -0.2376 -0.1358  0.1737
23491SOL    HW176565   4.848   4.688   6.763  0.5143  1.3049  1.6708
23491SOL    HW276566   4.996   4.675   6.732  0.4292  0.3378  1.6319
23492SOL     OW76567   9.037   5.785   4.564 -0.3439  0.0789 -0.4459
23492SOL    HW176568   9.016   5.878   4.567  1.3870  0.5212 -0.7584
23492SOL    HW276569   8.980   5.745   4.630 -0.9538  1.3857 -0.1531
23493SOL     OW76570  10.027   5.330   7.086  0.4854  0.2848  0.1368
23493SOL    HW176571  10.089   5.390   7.043 -1.3857  2.4163  0.1699
23493SOL    HW276572   9.975   5.294   7.014  0.5819 -0.0597  0.2393
23494SOL     OW76573   2.129   9.530   9.332 -0.5626 -0.5738  0.7622
23494SOL    HW176574   2.118   9.555   9.423  1.7901 -1.3477  1.3361
23494SOL    HW276575   2.208   9.476   9.331 -0.9201 -1.1912 -1.6323
23495SOL     OW76576   1.770   5.088   5.221  0.6710  0.2282 -0.2347
23495SOL    HW176577   1.766   5.159   5.157 -1.2279 -0.2024 -0.6251
23495SOL    HW276578   1.716   5.019   5.184 -1.0451  0.2202  2.1274
23496SOL     OW76579   6.986   3.502   7.941  0.2632 -0.2863 -0.3839
23496SOL    HW176580   6.948   3.590   7.938  0.2205 -0.1925  1.5515
23496SOL    HW276581   6.944   3.455   7.869 -0.0352  1.1329 -1.1863
23497SOL     OW76582   6.093   6.316   5.809 -0.4272  0.3850  0.0374
23497SOL    HW176583   6.096   6.361   5.893  2.0373  1.3073 -0.4637
23497SOL    HW276584   6.047   6.234   5.827 -1.9436  1.5324  1.7565
23498SOL     OW76585   3.054   6.847   2.978  0.0160  0.2750 -0.0680
23498SOL    HW176586   3.040   6.937   2.946 -0.1932 -0.1200 -1.1261
23498SOL    HW276587   2.994   6.839   3.053 -0.7670  0.6824 -0.6294
23499SOL     OW76588   1.706   2.059   7.881  0.0041  0.3071  0.6254
23499SOL    HW176589   1.723   2.125   7.948  1.4550 -0.6993  1.3279
23499SOL    HW276590   1.710   2.107   7.798  0.1340  1.2425  1.1584
23500SOL     OW76591   5.820   3.913   7.262  0.2030 -0.5162  0.4225
23500SOL    HW176592   5.811   3.840   7.323  0.3437 -1.2745 -0.4342
23500SOL    HW276593   5.746   3.904   7.202  1.0086 -0.8260 -0.5593
23501SOL     OW76594   9.789  10.425   6.304 -0.1632  0.1221 -0.2012
23501SOL    HW176595   9.742  10.490   6.250  1.6377  0.1508 -1.8589
23501SOL    HW276596   9.727  10.352   6.313 -1.2317  0.9440 -0.6218
23502SOL     OW76597   9.725   8.756   9.295 -0.5885 -0.3679  0.1004
23502SOL    HW176598   9.747   8.685   9.235 -0.4559 -1.3457  1.2856
23502SOL    HW276599   9.789   8.824   9.275  0.2001 -1.1424 -0.0632
23503SOL     OW76600   8.365   5.278   2.927 -0.3066  0.1094 -0.5854
23503SOL    HW176601   8.297   5.225   2.886 -0.1035 -0.0924 -0.6631
23503SOL    HW276602   8.448   5.240   2.896 -0.0766 -1.6683  1.9452
23504SOL     OW76603   0.396   5.846   9.774 -0.1409 -0.2909 -0.8610
23504SOL    HW176604   0.420   5.787   9.703 -1.0349 -1.5928 -0.1112
23504SOL    HW276605   0.325   5.802   9.820 -2.1751  2.2174 -1.3885
23505SOL     OW76606   2.384   9.476  10.107  0.2619 -0.5121 -0.0096
23505SOL    HW176607   2.406   9.560  10.148  0.1681  0.0418 -1.0449
23505SOL    HW276608   2.298   9.491  10.068  0.9078 -0.5752 -1.5196
23506SOL     OW76609   2.304  10.148   3.365  0.3568  0.4066 -0.5689
23506SOL    HW176610   2.232  10.212   3.368 -0.4157 -0.4593  1.1145
23506SOL    HW276611   2.272  10.077   3.309  0.0551  0.2134 -0.1561
23507SOL     OW76612   5.619   0.691   3.348 -0.1061  0.5375  0.7570
23507SOL    HW176613   5.700   0.691   3.297  0.1017  0.3066  1.0824
23507SOL    HW276614   5.596   0.599   3.357 -1.7307  0.6697 -1.3909
23508SOL     OW76615   4.554   1.171   5.152  0.1595  0.4325 -0.5127
23508SOL    HW176616   4.548   1.219   5.070 -1.1919 -1.0846 -1.3635
23508SOL    HW276617   4.629   1.209   5.198  0.5169  1.7593 -2.1418
23509SOL     OW76618   6.360   1.778   4.654 -0.0631 -0.1476  0.2036
23509SOL    HW176619   6.338   1.727   4.732 -0.5347 -1.8314 -0.9680
23509SOL    HW276620   6.426   1.725   4.609 -0.4933  0.3191 -1.0268
23510SOL     OW76621   6.911   5.864   0.727  0.5719  0.0048  0.5053
23510SOL    HW176622   6.854   5.882   0.802  0.7646 -0.7060  0.8301
23510SOL    HW276623   6.851   5.855   0.653  0.2548 -0.7181  0.8408
23511SOL     OW76624  10.448  10.813   2.522  0.0355 -0.0487 -0.0224
23511SOL    HW176625  10.428  10.889   2.576 -0.2266  0.2330 -0.5102
23511SOL    HW276626  10.518  10.768   2.569  1.8327  1.7401 -0.8500
23512SOL     OW76627   6.259   6.126   1.841  0.2942  0.3835 -0.5408
23512SOL    HW176628   6.244   6.162   1.929  1.8870  1.3772 -0.6374
23512SOL    HW276629   6.177   6.082   1.819 -0.1548  0.1642  1.4136
23513SOL     OW76630   5.575   3.691   0.012  0.0693  0.0856 -0.0734
23513SOL    HW176631   5.640   3.622  -0.003 -0.6606 -1.1264  1.8595
23513SOL    HW276632   5.566   3.734  -0.072  2.2270 -0.7088 -0.7907
23514SOL     OW76633   4.565   2.128   9.744 -0.4911  0.4299  0.2518
23514SOL    HW176634   4.547   2.051   9.797  1.1844 -0.5301 -0.4956
23514SOL    HW276635   4.659   2.125   9.728 -0.9501  0.3218 -3.2497
23515SOL     OW76636   1.157   8.360  10.467  0.5897  0.2961  0.6988
23515SOL    HW176637   1.165   8.434  10.527 -0.7841  0.5574  0.5785
23515SOL    HW276638   1.064   8.356  10.446  1.1603  0.8959 -2.3073
23516SOL     OW76639   9.080   3.468   6.279 -0.4950 -0.2685 -0.1345
23516SOL    HW176640   9.120   3.411   6.213 -2.1042  0.5503 -1.9197
23516SOL    HW276641   9.136   3.546   6.280  0.4657 -0.9494  0.7105
23517SOL     OW76642  10.808   8.791   0.084  0.1582 -0.2081  0.0830
23517SOL    HW176643  10.820   8.712   0.137 -0.5107  0.4895  1.3119
23517SOL    HW276644  10.724   8.778   0.040 -0.8826  0.5937  1.7491
23518SOL     OW76645  10.740   8.239   9.109 -0.1017 -0.0589  0.0935
23518SOL    HW176646  10.724   8.159   9.059  0.1712  0.2911 -0.5667
23518SOL    HW276647  10.803   8.288   9.056 -0.5555  0.7655  0.3075
23519SOL     OW76648   8.807  10.580   7.283  0.6215  0.1252 -0.4922
23519SOL    HW176649   8.796  10.629   7.365 -0.1302 -0.1089 -0.4459
23519SOL    HW276650   8.805  10.646   7.215  0.3408  0.2368 -0.3794
23520SOL     OW76651   8.322   7.325   3.420 -0.0448 -0.1661  1.1594
23520SOL    HW176652   8.300   7.297   3.331  0.2879  1.3933  0.5510
23520SOL    HW276653   8.307   7.248   3.474 -1.6804 -0.7177 -0.0253
23521SOL     OW76654   3.014   5.795   5.162 -0.1907 -0.2460  0.5924
23521SOL    HW176655   3.026   5.745   5.242 -2.8908 -0.6957  0.8140
23521SOL    HW276656   2.988   5.882   5.193 -0.8591 -0.3121  0.2405
23522SOL     OW76657   9.217   9.311   1.327 -0.1008 -0.4753 -0.2283
23522SOL    HW176658   9.274   9.336   1.254 -1.3247  2.2447 -0.3775
23522SOL    HW276659   9.270   9.327   1.405 -0.5944  2.3661 -0.3469
23523SOL     OW76660   1.514   3.623   4.970  0.1118  0.1309 -0.1591
23523SOL    HW176661   1.567   3.553   4.933 -0.3974 -0.6892  0.6117
23523SOL    HW276662   1.486   3.675   4.895 -0.0496 -0.8829 -0.8154
23524SOL     OW76663   6.050   5.947   0.406  0.3462  0.0360 -0.1330
23524SOL    HW176664   5.983   5.905   0.461  0.4090 -0.3482 -0.3453
23524SOL    HW276665   6.133   5.923   0.446  0.3342  1.6709  0.9554
23525SOL     OW76666   1.552  10.014   1.718 -0.0626 -0.6897 -0.2415
23525SOL    HW176667   1.476  10.012   1.775  0.1120  1.7471  0.1412
23525SOL    HW276668   1.530   9.953   1.647 -1.0996 -2.2488  1.3447
23526SOL     OW76669   3.261   4.776   3.630  0.4317 -0.1626 -0.4360
23526SOL    HW176670   3.230   4.789   3.540  0.6792  3.8280 -0.1241
23526SOL    HW276671   3.301   4.689   3.630 -0.3047 -0.6376 -3.9291
23527SOL     OW76672   6.484   7.867   1.092  0.0640 -0.3990  0.9066
23527SOL    HW176673   6.567   7.893   1.131 -0.1080  1.6791  0.0133
23527SOL    HW276674   6.505   7.846   1.001 -0.4704  0.8417  0.4810
23528SOL     OW76675   3.223   4.924   8.550  0.2119  0.2670  0.1444
23528SOL    HW176676   3.248   4.930   8.458  0.2971 -0.0600  0.1440
23528SOL    HW276677   3.223   5.014   8.581 -0.5814  0.4564 -0.3725
23529SOL     OW76678   7.401   6.070   1.247 -0.3652  0.4916  0.5123
23529SOL    HW176679   7.327   6.119   1.283 -1.3841 -1.4229  1.1873
23529SOL    HW276680   7.457   6.052   1.322 -0.4870 -0.1611  0.4537
23530SOL     OW76681   2.710   5.650   3.027  0.2495  0.3902  0.4538
23530SOL    HW176682   2.665   5.708   2.966  0.2019 -0.6118 -0.5067
23530SOL    HW276683   2.799   5.644   2.994  0.9697  1.8620  1.9909
23531SOL     OW76684   2.569   2.764  10.130 -0.1897  0.6085  0.1784
23531SOL    HW176685   2.628   2.702  10.088  1.2172  2.6293 -0.9859
23531SOL    HW276686   2.505   2.785  10.063 -1.9263 -1.0092  1.2064
23532SOL     OW76687   4.633   3.806   1.302  0.0382 -0.4604 -0.9580
23532SOL    HW176688   4.681   3.886   1.281 -0.2135 -0.0148  0.0932
23532SOL    HW276689   4.700   3.740   1.314  0.5218  0.3526  1.3815
23533SOL     OW76690   7.978   9.787   1.936 -0.0752  0.1530  0.2439
23533SOL    HW176691   8.030   9.707   1.946  1.5938  0.7792 -2.3915
23533SOL    HW276692   7.891   9.756   1.909 -0.6312 -0.8377  2.9086
23534SOL     OW76693  10.815   0.225  10.052  0.1505 -0.1667  0.1392
23534SOL    HW176694  10.740   0.228  10.112  1.8620 -0.7254  2.4466
23534SOL    HW276695  10.821   0.133  10.027  0.8044 -0.3828  1.0263
23535SOL     OW76696   3.907  10.594   0.021  0.0915 -0.5561  0.0837
23535SOL    HW176697   3.990  10.606  -0.025  1.5532  0.3232  2.7086
23535SOL    HW276698   3.882  10.682   0.048 -1.7732 -0.8006 -0.6777
23536SOL     OW76699   5.045  10.224   9.446  0.0130 -0.0824 -0.1061
23536SOL    HW176700   5.074  10.181   9.526  0.0620  3.1313  1.7672
23536SOL    HW276701   5.125  10.256   9.405 -0.1774  0.6188  0.0485
23537SOL     OW76702   2.909   2.728   1.074  0.2266  0.1947 -0.6760
23537SOL    HW176703   2.991   2.734   1.025  1.1730 -1.3717  0.6214
23537SOL    HW276704   2.850   2.679   1.017 -0.0976  1.9278 -1.9094
23538SOL     OW76705   2.420   2.058   1.255 -0.0289 -0.3877  0.0012
23538SOL    HW176706   2.395   1.993   1.189  0.8135  0.7028 -1.4477
23538SOL    HW276707   2.401   2.016   1.338 -0.3524 -2.1381 -0.9119
23539SOL     OW76708   8.607   2.944   0.799 -0.8414  0.0100  0.0933
23539SOL    HW176709   8.595   2.856   0.835  1.8033 -0.1722  0.8075
23539SOL    HW276710   8.647   2.930   0.713  0.0578  0.4702  0.4180
23540SOL     OW76711  10.168   1.871   6.859 -0.1875  0.0552  0.0075
23540SOL    HW176712  10.262   1.881   6.875 -0.5842  1.5091  1.6293
23540SOL    HW276713  10.140   1.804   6.921 -0.5957  1.2320  1.1345
23541SOL     OW76714   0.032   2.629   8.190  0.3536  0.1912  0.7199
23541SOL    HW176715  -0.005   2.713   8.161  0.0666 -0.1150  0.1783
23541SOL    HW276716  -0.022   2.603   8.265 -0.4550 -0.1813  0.0282
23542SOL     OW76717   9.253   6.009  10.047 -0.0305  0.1517  0.0956
23542SOL    HW176718   9.250   5.924  10.092  1.2396  0.8301  1.5757
23542SOL    HW276719   9.161   6.030  10.029 -0.4328 -1.0898  0.5974
23543SOL     OW76720   8.445   4.541   6.170  0.6568 -0.0693 -0.2432
23543SOL    HW176721   8.442   4.596   6.248 -0.3702 -0.4895  0.0233
23543SOL    HW276722   8.372   4.481   6.180  2.8069 -2.7786  0.4284
23544SOL     OW76723   3.202   2.761   0.961 -0.3216 -0.5610  0.1228
23544SOL    HW176724   3.200   2.817   0.884 -0.1703 -1.6146 -0.6713
23544SOL    HW276725   3.294   2.740   0.974 -0.1564  0.8993  1.5805
23545SOL     OW76726   8.683   8.757   2.815  0.6356  0.3744  0.2913
23545SOL    HW176727   8.689   8.665   2.787 -0.1958 -0.0475  1.3698
23545SOL    HW276728   8.751   8.802   2.766  2.2082 -1.1404  0.9448
23546SOL     OW76729   4.275   6.379  10.775 -0.5031  0.3133  0.0831
23546SOL    HW176730   4.362   6.410  10.799  0.6377 -2.9374  0.6708
23546SOL    HW276731   4.280   6.364  10.681 -0.5089  0.3915  0.0705
23547SOL     OW76732   7.109   7.495  10.267 -0.0091  0.2459  0.7610
23547SOL    HW176733   7.143   7.420  10.315  0.1551 -0.3591 -0.2891
23547SOL    HW276734   7.182   7.523  10.211 -0.1635  1.0172  0.9231
23548SOL     OW76735   9.596   9.496   6.328 -0.5853 -0.9623  0.7445
23548SOL    HW176736   9.513   9.539   6.307 -0.3848 -0.6764  0.5354
23548SOL    HW276737   9.582   9.459   6.415 -0.4938  0.2280  1.2861
23549SOL     OW76738   4.616  10.612   4.541  0.1317 -0.0355  0.2393
23549SOL    HW176739   4.594  10.695   4.583 -0.6878 -0.2317  0.2195
23549SOL    HW276740   4.689  10.633   4.483  0.8389  0.3779  1.2576
23550SOL     OW76741   3.113   4.238   1.539  0.2971  0.2776  0.0789
23550SOL    HW176742   3.082   4.329   1.542 -3.2944 -0.7593 -0.1248
23550SOL    HW276743   3.077   4.204   1.456 -0.0598 -1.7803  1.0270
23551SOL     OW76744   6.460   2.277   3.647 -0.0105  0.3777  0.0147
23551SOL    HW176745   6.373   2.315   3.633  0.1936  0.4011 -1.3825
23551SOL    HW276746   6.445   2.183   3.650 -0.1600  0.4140  0.4632
23552SOL     OW76747   5.963   8.481   2.240 -0.0188 -0.5174  0.3311
23552SOL    HW176748   6.015   8.543   2.188 -0.9364 -0.9372 -1.1745
23552SOL    HW276749   6.006   8.396   2.226 -0.2361 -0.6234  0.2948
23553SOL     OW76750  10.281   1.465   3.237 -0.2186  0.1154 -0.5940
23553SOL    HW176751  10.334   1.417   3.173 -0.8018  0.3788 -1.2921
23553SOL    HW276752  10.337   1.538   3.264 -0.2834  0.5151 -1.4903
23554SOL     OW76753   9.326   0.741   7.022 -0.0979 -0.0255 -0.3486
23554SOL    HW176754   9.335   0.661   7.075 -2.0508  0.0236  0.1380
23554SOL    HW276755   9.346   0.812   7.083  0.1563 -0.0786 -0.3697
23555SOL     OW76756   9.425   8.547   5.138 -0.6599 -0.7086  0.0384
23555SOL    HW176757   9.408   8.621   5.080  1.3092 -1.9653 -2.3225
23555SOL    HW276758   9.363   8.480   5.110 -1.6546 -0.4009  1.3985
23556SOL     OW76759  10.269   3.540   3.133 -0.3799 -0.1889  0.3825
23556SOL    HW176760  10.316   3.476   3.079 -1.4361 -1.5697  1.0317
23556SOL    HW276761  10.297   3.625   3.100 -0.5123 -0.9773 -1.9248
23557SOL     OW76762   0.735   9.675   0.062 -0.1792 -0.6210  0.1702
23557SOL    HW176763   0.731   9.690  -0.032 -0.5227 -1.2574  0.0770
23557SOL    HW276764   0.828   9.679   0.083 -0.2570  4.3984  0.6703
23558SOL     OW76765   8.363   3.556   0.269  0.0592 -0.0620 -0.1075
23558SOL    HW176766   8.416   3.629   0.237  0.7202 -0.3271  0.3671
23558SOL    HW276767   8.415   3.479   0.249 -0.5966 -0.4045 -0.5196
23559SOL     OW76768  10.650   1.918   0.386 -0.2031  0.2728 -0.2967
23559SOL    HW176769  10.567   1.872   0.375 -0.4804  0.7941 -0.4605
23559SOL    HW276770  10.631   2.008   0.359  0.8506  0.0209 -2.1258
23560SOL     OW76771   6.161   4.413   1.882  0.1300 -0.3746  0.3090
23560SOL    HW176772   6.199   4.408   1.795  1.3751 -2.8510  0.8995
23560SOL    HW276773   6.066   4.411   1.867  0.3253 -1.0616 -0.9819
23561SOL     OW76774   1.669   0.532   2.292  0.5406 -0.0767 -0.3540
23561SOL    HW176775   1.705   0.594   2.229  0.2091  0.3617 -0.1173
23561SOL    HW276776   1.701   0.563   2.377  1.0753 -0.7266 -0.3101
23562SOL     OW76777  10.613   7.351   9.266 -0.2560  0.3145  0.3332
23562SOL    HW176778  10.567   7.309   9.339  0.0475  0.8882  0.8671
23562SOL    HW276779  10.551   7.345   9.193 -0.1128 -1.2617  0.3185
23563SOL     OW76780   8.262   2.183   0.538  0.2522  0.2409 -0.2881
23563SOL    HW176781   8.281   2.181   0.632  1.7308  1.5388 -0.5292
23563SOL    HW276782   8.227   2.096   0.519  0.1974 -0.1349  1.4046
23564SOL     OW76783   3.424   3.201   8.029 -0.0506 -0.0082 -0.3544
23564SOL    HW176784   3.423   3.112   7.996  2.8469  0.3277 -1.6486
23564SOL    HW276785   3.401   3.193   8.122  0.1217 -2.0611 -0.4512
23565SOL     OW76786   4.421   8.540   9.877  0.6232  0.1189  0.1745
23565SOL    HW176787   4.396   8.500   9.960  0.8004  1.1905  0.7588
23565SOL    HW276788   4.382   8.628   9.880  0.1632 -0.0206 -1.1119
23566SOL     OW76789   6.447   2.409  10.612  0.0562 -0.2267 -1.1070
23566SOL    HW176790   6.371   2.443  10.565 -0.9075 -2.3336 -1.2124
23566SOL    HW276791   6.480   2.338  10.557  0.3859 -1.1635  0.2473
23567SOL     OW76792   8.372  10.480   5.073  0.5358 -0.7920 -0.1347
23567SOL    HW176793   8.453  10.510   5.032 -0.7874  2.9304 -0.4364
23567SOL    HW276794   8.320  10.444   5.001  0.7048 -0.2326 -0.5413
23568SOL     OW76795   6.685   9.547   2.892  0.3713 -0.1788 -0.2217
23568SOL    HW176796   6.612   9.500   2.852  1.4124 -0.9146 -1.3192
23568SOL    HW276797   6.678   9.637   2.859  0.3331 -0.4063 -0.8358
23569SOL     OW76798   0.321   0.366   4.921  0.1598  0.5383 -0.0741
23569SOL    HW176799   0.245   0.422   4.905 -1.2268 -0.5787  2.0825
23569SOL    HW276800   0.381   0.386   4.849 -1.0803  3.3092 -0.4729
23570SOL     OW76801   9.279   3.661   2.422 -0.0051  0.3703  0.0568
23570SOL    HW176802   9.353   3.715   2.450 -0.7817  0.5788  1.7991
23570SOL    HW276803   9.285   3.582   2.475 -0.2848 -0.1885 -0.7309
23571SOL     OW76804   3.301  10.740   4.113 -0.3367 -0.1211 -0.2525
23571SOL    HW176805   3.328  10.812   4.170 -1.5525  1.7260 -1.8735
23571SOL    HW276806   3.245  10.686   4.167 -0.6001  0.9881  0.6077
23572SOL     OW76807   4.327   0.489   9.598  0.1374 -0.1008  0.3073
23572SOL    HW176808   4.310   0.439   9.518 -0.0194  0.6383 -0.1266
23572SOL    HW276809   4.349   0.422   9.663 -0.4170 -0.7632 -0.1659
23573SOL     OW76810   5.100  10.241   0.921 -0.4094  0.1914  0.2201
23573SOL    HW176811   5.164  10.178   0.887  0.3395  0.3386  1.3277
23573SOL    HW276812   5.118  10.246   1.014 -1.2420  1.1695  0.3438
23574SOL     OW76813   2.627   0.970   7.877  0.0039  0.2833 -0.5543
23574SOL    HW176814   2.615   0.935   7.966 -0.4286  0.0282 -0.7127
23574SOL    HW276815   2.581   0.909   7.820  0.6693  0.2009 -1.0070
23575SOL     OW76816   1.982   8.107   6.330 -0.0725 -0.1765  0.2163
23575SOL    HW176817   1.959   8.026   6.286  0.1602 -0.6194  0.8909
23575SOL    HW276818   1.959   8.092   6.422 -1.7703  1.1876  0.0617
23576SOL     OW76819   1.741   3.150   3.220  0.2449 -0.2667 -0.1424
23576SOL    HW176820   1.648   3.145   3.244 -0.0715  0.1914 -1.1914
23576SOL    HW276821   1.747   3.229   3.165  1.8744  1.6555  2.5690
23577SOL     OW76822   8.832   9.451   4.128 -0.0710 -0.8754  0.4927
23577SOL    HW176823   8.818   9.395   4.205  1.2339 -1.2239  0.4913
23577SOL    HW276824   8.857   9.390   4.059  0.4937 -0.3810  0.2540
23578SOL     OW76825   9.481   4.819   1.324  0.2730 -1.0266  0.2598
23578SOL    HW176826   9.522   4.797   1.407 -1.3606 -2.5829  0.7126
23578SOL    HW276827   9.517   4.756   1.262  0.7578 -0.4953 -0.0066
23579SOL     OW76828   7.605   6.040   4.075  0.2755 -0.1280  0.5732
23579SOL    HW176829   7.636   5.956   4.041  1.5665  0.5303  0.0471
23579SOL    HW276830   7.539   6.068   4.012  1.6446  0.4116 -0.6951
23580SOL     OW76831   5.897   5.491   8.327  0.2462  0.4313  0.3384
23580SOL    HW176832   5.813   5.535   8.331 -1.1055 -1.6658 -2.2367
23580SOL    HW276833   5.876   5.398   8.329  2.1984 -0.2324 -2.7474
23581SOL     OW76834   0.346   0.876   1.480 -0.3502  0.0495 -0.2668
23581SOL    HW176835   0.255   0.854   1.458 -1.2298  0.0022  2.8975
23581SOL    HW276836   0.338   0.936   1.554  2.2320  1.6434 -1.1355
23582SOL     OW76837   5.074   3.844   2.623 -0.8243 -0.2572  0.3459
23582SOL    HW176838   5.135   3.874   2.690  0.7835  0.3205 -1.3110
23582SOL    HW276839   5.024   3.923   2.600 -2.8304 -0.8732  2.2142
23583SOL     OW76840   9.996   3.701   9.335 -0.3542  0.2055  0.2090
23583SOL    HW176841  10.043   3.648   9.271 -0.7640  0.6208 -0.4455
23583SOL    HW276842   9.965   3.638   9.400 -0.1003 -0.2454 -0.0984
23584SOL     OW76843  10.338   8.946   3.552 -0.2944  0.0569 -0.6376
23584SOL    HW176844  10.304   8.868   3.508 -2.1172  0.7568 -0.5627
23584SOL    HW276845  10.339   8.923   3.644  0.8930 -0.4591 -0.7553
23585SOL     OW76846   6.012   4.947  10.754 -0.3555 -0.2858  0.4431
23585SOL    HW176847   5.955   4.978  10.824  0.1731 -0.0459  0.7786
23585SOL    HW276848   6.097   4.936  10.796 -0.0330 -0.1462 -0.1607
23586SOL     OW76849   4.116  10.844   6.951 -0.4042 -0.2902 -0.4405
23586SOL    HW176850   4.178  10.915   6.932 -0.7994 -0.6281 -3.5510
23586SOL    HW276851   4.032  10.888   6.962 -0.3387 -0.1439 -0.5249
23587SOL     OW76852   3.944   0.704   1.102  0.1973  0.0758 -0.4847
23587SOL    HW176853   3.962   0.695   1.008 -1.3867  2.2225 -1.0736
23587SOL    HW276854   4.025   0.739   1.139  1.3443 -2.1534 -0.7127
23588SOL     OW76855   6.067   9.194   1.203 -0.3188 -0.4486  0.4004
23588SOL    HW176856   6.017   9.149   1.271 -1.2934 -0.1313 -0.0975
23588SOL    HW276857   6.008   9.199   1.129 -0.2924  1.7574  0.4628
23589SOL     OW76858   7.432  10.255   9.022  0.2808 -0.4248 -0.1986
23589SOL    HW176859   7.339  10.255   9.000 -0.0764 -0.4109  1.2037
23589SOL    HW276860   7.462  10.166   9.005 -0.9925 -1.6403  3.0920
23590SOL     OW76861   2.867  10.283   0.899  0.3160  0.1291 -0.3654
23590SOL    HW176862   2.870  10.365   0.850 -1.0458 -0.1746 -1.0008
23590SOL    HW276863   2.953  10.277   0.941  0.6463  1.5799 -0.7788
23591SOL     OW76864   0.804   8.945   8.446 -0.2746  0.3404 -0.5941
23591SOL    HW176865   0.762   8.887   8.510  0.9623  2.3350  2.2609
23591SOL    HW276866   0.732   8.976   8.391 -1.4464 -1.3521 -0.0917
23592SOL     OW76867   6.420   4.113   6.239  0.1948 -0.0346 -0.0413
23592SOL    HW176868   6.442   4.036   6.186  2.6111 -1.8722  3.2022
23592SOL    HW276869   6.439   4.086   6.329 -0.1331  3.9755  1.4444
23593SOL     OW76870   8.816  10.051   4.307 -0.2812 -0.1108  0.1882
23593SOL    HW176871   8.828   9.956   4.303  1.0573  0.0024  0.7476
23593SOL    HW276872   8.722  10.064   4.304 -0.5131 -1.5032  0.7344
23594SOL     OW76873   6.863   9.429   4.821  0.3130  0.2347 -0.7755
23594SOL    HW176874   6.818   9.423   4.736 -0.3516 -0.1128 -0.4096
23594SOL    HW276875   6.934   9.490   4.806  0.9756 -0.7641 -1.9233
23595SOL     OW76876  10.133   7.488   1.471  0.1902 -1.0324  0.2792
23595SOL    HW176877  10.123   7.493   1.376  0.6088 -1.8137  0.1925
23595SOL    HW276878  10.212   7.537   1.490  2.5287 -4.2933 -0.2494
23596SOL     OW76879   4.172   0.143   7.722 -1.0511  0.0668  0.0955
23596SOL    HW176880   4.133   0.217   7.676  0.5405  1.3812  0.7357
23596SOL    HW276881   4.203   0.180   7.805  1.2183 -0.8994 -0.2350
23597SOL     OW76882   4.618   6.822   1.819  0.0109  0.2092  0.3106
23597SOL    HW176883   4.556   6.885   1.783 -0.2753 -0.0909  0.2792
23597SOL    HW276884   4.627   6.755   1.752 -0.8921 -0.6078  0.9772
23598SOL     OW76885  10.318   9.999   9.999  0.3016 -0.0315 -0.0825
23598SOL    HW176886  10.249  10.054  10.036  1.6453  0.8322  1.2578
23598SOL    HW276887  10.365   9.966  10.075  0.8046 -1.3728 -0.9420
23599SOL     OW76888   0.405   4.258   8.634 -0.3149  0.6129 -0.2290
23599SOL    HW176889   0.435   4.331   8.579  1.0933  0.1381 -0.1135
23599SOL    HW276890   0.482   4.231   8.683 -1.1349 -0.1297  0.6888
23600SOL     OW76891   3.467   2.741   0.860 -0.5099  0.5071 -0.1223
23600SOL    HW176892   3.515   2.792   0.925 -0.7803  2.0288 -1.0545
23600SOL    HW276893   3.501   2.772   0.776 -0.2459 -1.3381 -0.7370
23601SOL     OW76894   8.750   4.930   1.024 -0.0874 -0.0251 -0.1645
23601SOL    HW176895   8.699   4.910   0.945  1.5938 -0.0676 -1.2901
23601SOL    HW276896   8.735   5.023   1.039  0.4475  0.2569 -1.2338
23602SOL     OW76897   5.562   5.068   1.117  0.4064 -0.0452  0.7030
23602SOL    HW176898   5.590   5.135   1.179  0.9029  0.2990  0.1213
23602SOL    HW276899   5.587   4.985   1.158 -1.2384  0.0371  1.9456
23603SOL     OW76900   2.481   7.736   4.034 -0.2038  0.0533 -0.0096
23603SOL    HW176901   2.403   7.719   3.981 -0.9824  0.6095  0.9226
23603SOL    HW276902   2.478   7.672   4.105 -1.4844  1.9046  1.7441
23604SOL     OW76903   8.736   5.768  10.529  0.1817  0.3760 -0.3251
23604SOL    HW176904   8.818   5.770  10.578  2.4338  0.3399 -3.7119
23604SOL    HW276905   8.689   5.692  10.563  1.5326  0.3592  1.6907
23605SOL     OW76906   9.249   5.455   0.861 -0.1919 -0.0831 -0.2328
23605SOL    HW176907   9.247   5.443   0.956 -1.2402 -2.2575 -0.4788
23605SOL    HW276908   9.326   5.406   0.832 -0.6757 -0.6298 -0.6209
23606SOL     OW76909   4.376   2.577   9.231 -0.3964  0.0215 -0.0165
23606SOL    HW176910   4.466   2.556   9.254 -0.7012 -0.4419  0.8102
23606SOL    HW276911   4.379   2.667   9.200  0.7155 -0.7091 -2.2366
23607SOL     OW76912   7.719  10.053  10.353 -0.5338  0.8429 -0.1511
23607SOL    HW176913   7.768  10.134  10.340 -0.3619  1.1152  1.8425
23607SOL    HW276914   7.630  10.074  10.327 -0.0377  0.9339 -1.9005
23608SOL     OW76915   2.579   1.490  10.107 -0.0744 -0.5730 -0.0290
23608SOL    HW176916   2.531   1.455  10.182  1.3966 -0.2662  1.0945
23608SOL    HW276917   2.667   1.507  10.140  0.2846  0.7091 -1.5164
23609SOL     OW76918   3.181   2.351  10.281 -0.0577  0.7193  0.4269
23609SOL    HW176919   3.180   2.428  10.225  1.7036  1.6037  1.5305
23609SOL    HW276920   3.130   2.377  10.358 -2.1379 -0.3550 -0.5133
23610SOL     OW76921   2.936   4.034   6.842 -0.0587 -0.3246 -0.0015
23610SOL    HW176922   2.890   4.000   6.919  1.6680 -2.1445  0.3022
23610SOL    HW276923   2.916   4.128   6.842 -1.4744 -0.5720  1.6831
23611SOL     OW76924   9.733   6.754  10.033  0.1729 -0.7326 -0.5628
23611SOL    HW176925   9.788   6.681  10.005  1.1447  0.3047 -1.4768
23611SOL    HW276926   9.682   6.777   9.955 -0.3528 -0.6430 -0.1940
23612SOL     OW76927   9.932   9.484   9.260  0.4945  0.1001  0.6455
23612SOL    HW176928   9.902   9.396   9.284  0.9361 -0.7648 -1.6852
23612SOL    HW276929   9.984   9.471   9.181  0.7741  2.4584  0.3623
23613SOL     OW76930   4.377   3.540   9.181  0.4542  0.1916 -0.4734
23613SOL    HW176931   4.413   3.595   9.251 -0.0241 -0.0387 -0.0384
23613SOL    HW276932   4.334   3.601   9.121  0.0744  0.3111 -0.0815
23614SOL     OW76933   9.062   9.449   6.531 -0.2316 -0.0059  0.2487
23614SOL    HW176934   9.021   9.450   6.618 -1.0737  0.4507 -0.1450
23614SOL    HW276935   9.115   9.529   6.530 -1.6051  0.9239 -0.2899
23615SOL     OW76936  10.417   5.135   0.560 -0.3567 -1.2195 -0.0583
23615SOL    HW176937  10.377   5.065   0.508 -0.8217 -0.6077 -0.5390
23615SOL    HW276938  10.413   5.103   0.650 -1.1083 -1.5671 -0.2049
23616SOL     OW76939   5.805   1.556   9.321 -0.6152  0.2068  0.1312
23616SOL    HW176940   5.841   1.469   9.303 -0.3086 -0.0223  1.6874
23616SOL    HW276941   5.717   1.540   9.353 -0.6014  0.4703  0.3089
23617SOL     OW76942   9.122   7.187   6.891  0.1568 -0.6454  0.1305
23617SOL    HW176943   9.204   7.177   6.842  0.6818 -0.6176  0.9688
23617SOL    HW276944   9.069   7.113   6.863  0.1705 -0.2635 -0.9654
23618SOL     OW76945   3.838   2.762   1.086 -0.2157  0.0094 -0.1020
23618SOL    HW176946   3.783   2.727   1.015  0.2929 -0.3507 -0.3243
23618SOL    HW276947   3.922   2.778   1.044 -0.5011  1.7509 -0.0688
23619SOL     OW76948   3.156   2.712  10.660  0.1840  0.3260  0.0289
23619SOL    HW176949   3.073   2.663  10.659  1.5027 -2.0957 -0.5372
23619SOL    HW276950   3.172   2.731  10.752 -1.1835  1.2155  0.1084
23620SOL     OW76951   0.927   7.808   7.088 -0.8337 -0.4747 -0.0810
23620SOL    HW176952   0.909   7.852   7.005 -2.3719 -3.1884 -1.3245
23620SOL    HW276953   0.843   7.772   7.116 -0.4045  0.4399  2.7982
23621SOL     OW76954   2.485   0.467   8.476  0.1771 -0.1026 -0.4029
23621SOL    HW176955   2.512   0.543   8.528 -0.3536 -0.8964  1.1124
23621SOL    HW276956   2.556   0.404   8.489 -0.5068 -0.7393  0.3531
23622SOL     OW76957   6.185  10.322  10.530 -0.1087 -0.2614  0.2522
23622SOL    HW176958   6.215  10.282  10.449 -1.0704  1.1775 -0.8697
23622SOL    HW276959   6.090  10.321  10.524 -0.2165 -0.5569  1.5973
23623SOL     OW76960   9.074   6.609   3.030 -0.4149 -0.8389  0.4421
23623SOL    HW176961   9.166   6.610   3.057 -0.6849 -1.9145  1.4863
23623SOL    HW276962   9.071   6.545   2.958 -0.0540  0.5398 -0.8520
23624SOL     OW76963   8.781   1.727   4.497  1.0287 -0.3079  0.3659
23624SOL    HW176964   8.796   1.733   4.403 -0.0742 -2.3977 -0.0104
23624SOL    HW276965   8.778   1.818   4.526 -1.1023  0.5424 -2.0772
23625SOL     OW76966   1.574   1.760   9.417 -0.1306  0.0111  0.2918
23625SOL    HW176967   1.536   1.717   9.494 -0.3964  0.6139  0.5053
23625SOL    HW276968   1.509   1.746   9.348  0.9368 -2.1482 -0.3582
23626SOL     OW76969   7.025   0.596   8.902  0.2617 -0.6600  0.1152
23626SOL    HW176970   7.049   0.515   8.858 -0.2288 -1.2517  0.8958
23626SOL    HW276971   7.070   0.591   8.987 -0.8162 -0.7526  0.7001
23627SOL     OW76972   0.321   0.278   9.579  0.3990 -0.5941  0.5756
23627SOL    HW176973   0.285   0.335   9.512 -1.2352  0.5105  2.2723
23627SOL    HW276974   0.290   0.190   9.556 -1.0791 -0.0696  0.4305
23628SOL     OW76975   5.768   0.645   2.251 -0.2276 -0.1292  0.1100
23628SOL    HW176976   5.725   0.595   2.320  0.5646 -0.9214  0.0480
23628SOL    HW276977   5.711   0.634   2.175  0.7901 -2.5020 -0.4230
23629SOL     OW76978   3.214   2.163   1.770 -0.0275  0.2102 -0.1777
23629SOL    HW176979   3.183   2.252   1.754  2.5338  1.0109 -1.3646
23629SOL    HW276980   3.212   2.122   1.683 -0.1291 -0.5228  0.1676
23630SOL     OW76981   7.286   3.826   4.862 -0.1510  0.0281 -0.0164
23630SOL    HW176982   7.261   3.737   4.888 -0.1753 -0.0541 -0.3091
23630SOL    HW276983   7.321   3.816   4.773  1.6107  0.0370  0.6414
23631SOL     OW76984  10.159   3.451   1.967 -0.1181 -0.4940  0.1077
23631SOL    HW176985  10.242   3.436   2.013  0.4779 -0.2469 -0.8509
23631SOL    HW276986  10.108   3.505   2.027  0.8085  0.1748  0.3231
23632SOL     OW76987   2.276   8.287   1.788 -0.0715 -0.3777 -0.5632
23632SOL    HW176988   2.363   8.247   1.795 -0.4425 -1.3110 -1.1065
23632SOL    HW276989   2.225   8.247   1.859 -0.1231 -0.0099 -0.3923
23633SOL     OW76990   8.313   0.194   9.101 -0.4660 -0.4535 -0.3517
23633SOL    HW176991   8.309   0.210   9.007 -2.1461 -2.2360 -0.6640
23633SOL    HW276992   8.232   0.146   9.120  0.8239 -2.0135  1.6030
23634SOL     OW76993   9.275   6.246   4.287  0.4380  0.1009 -0.1729
23634SOL    HW176994   9.304   6.186   4.357  1.5334 -0.6513 -1.2348
23634SOL    HW276995   9.220   6.192   4.231  1.6843 -0.0354 -1.3087
23635SOL     OW76996   3.896   7.385   0.580 -0.2081  0.4207 -0.1630
23635SOL    HW176997   3.810   7.344   0.579  0.8500 -2.0642  1.0409
23635SOL    HW276998   3.905   7.424   0.494 -2.2883  0.2078 -0.5238
23636SOL     OW76999   1.771   8.788   4.279 -0.6714  0.0267 -0.1451
23636SOL    HW177000   1.723   8.831   4.209 -0.7680 -0.0123 -0.1031
23636SOL    HW277001   1.704   8.765   4.343 -0.8442 -1.5873 -0.8723
23637SOL     OW77002   2.907   3.926   9.617 -0.1627 -0.1125  0.3503
23637SOL    HW177003   2.908   3.890   9.705  2.4154 -1.2651 -0.0519
23637SOL    HW277004   2.905   4.021   9.629  1.0274 -0.2345  1.6953
23638SOL     OW77005   4.646   6.558   7.746 -0.9977 -0.0317  0.1610
23638SOL    HW177006   4.663   6.640   7.700  0.2319 -0.5067 -0.2953
23638SOL    HW277007   4.561   6.570   7.788 -0.6206  1.6481  0.5047
23639SOL     OW77008   6.811   5.417   5.726 -0.1160 -0.1808 -0.2913
23639SOL    HW177009   6.723   5.419   5.689 -1.2859  0.1017  2.3181
23639SOL    HW277010   6.858   5.487   5.680 -1.8998  1.0720 -0.3194
23640SOL     OW77011   6.115   1.659   0.469  0.3692 -0.0961 -0.4066
23640SOL    HW177012   6.131   1.631   0.559  0.8891 -0.5327 -0.6342
23640SOL    HW277013   6.163   1.597   0.415 -1.5134 -1.0389 -1.0839
23641SOL     OW77014   5.167   9.558   3.821 -0.3400 -0.6178 -0.0095
23641SOL    HW177015   5.175   9.564   3.916 -0.1500  0.2665 -0.0707
23641SOL    HW277016   5.073   9.545   3.805 -0.6895  1.2364  0.2418
23642SOL     OW77017   5.192  10.285   7.290  0.1212  0.4620 -0.2646
23642SOL    HW177018   5.283  10.312   7.301  0.4391  0.4369 -2.4020
23642SOL    HW277019   5.189  10.246   7.202 -2.6035  3.4211 -1.6868
23643SOL     OW77020   5.739   2.108   1.631 -0.1575  0.1892  0.1431
23643SOL    HW177021   5.683   2.036   1.602  0.4400 -0.9768  1.7528
23643SOL    HW277022   5.808   2.066   1.682 -0.3741  1.9746  2.0621
23644SOL     OW77023   6.260  10.570   8.245 -0.6689  0.7414  0.9312
23644SOL    HW177024   6.350  10.595   8.220 -1.1190  2.1253  0.5905
23644SOL    HW277025   6.231  10.513   8.174 -0.2817  0.7948  0.7241
23645SOL     OW77026  10.930   8.470   2.374 -0.3218 -0.1225 -0.2329
23645SOL    HW177027  10.996   8.475   2.443 -1.1789  1.2526  0.5310
23645SOL    HW277028  10.942   8.550   2.323  0.4759 -1.2482 -1.8876
23646SOL     OW77029   4.489   5.705   5.781  0.1833 -0.1701  0.1431
23646SOL    HW177030   4.581   5.719   5.761  0.0293  0.6040 -0.0514
23646SOL    HW277031   4.459   5.789   5.817 -0.2024 -0.7188  1.1325
23647SOL     OW77032   4.617   1.071   0.259  0.3348 -0.0958  0.2287
23647SOL    HW177033   4.595   1.143   0.317  0.7996  0.6533 -0.4994
23647SOL    HW277034   4.689   1.025   0.303 -1.1718 -1.2534  1.5711
23648SOL     OW77035   9.748   8.463   2.188  0.2662  0.5161 -0.5597
23648SOL    HW177036   9.838   8.472   2.158 -0.2327 -1.0747 -2.7761
23648SOL    HW277037   9.725   8.372   2.167 -1.7332  0.7716  0.3146
23649SOL     OW77038   7.732   8.469   5.231 -0.2284 -0.5196  0.2313
23649SOL    HW177039   7.799   8.401   5.229  0.1052 -0.2622  1.6150
23649SOL    HW277040   7.709   8.482   5.139  2.9115  0.6636 -0.5047
23650SOL     OW77041   8.977   1.265  10.777  0.4087  0.5958  0.8837
23650SOL    HW177042   8.943   1.350  10.751 -1.6911 -0.3031  0.4690
23650SOL    HW277043   9.041   1.243  10.709  1.0642  1.8591  1.0640
23651SOL     OW77044   6.238   1.019   9.456  0.2795  0.0880 -0.1899
23651SOL    HW177045   6.198   0.997   9.372  0.1496 -0.1693 -0.0613
23651SOL    HW277046   6.179   1.085   9.494 -0.8581 -1.3565  0.6609
23652SOL     OW77047   8.860   7.893   6.682  0.5800  0.0990 -0.3215
23652SOL    HW177048   8.898   7.892   6.594  0.4591 -0.0025 -0.3737
23652SOL    HW277049   8.841   7.985   6.699 -0.0046  0.0503 -0.6673
23653SOL     OW77050   7.227   8.778   5.102 -0.6653  0.6863  0.3067
23653SOL    HW177051   7.296   8.716   5.125 -0.9697  0.2094 -0.0510
23653SOL    HW277052   7.268   8.837   5.039 -1.0164 -0.5846 -1.1835
23654SOL     OW77053   3.445   6.072   7.982 -0.4747 -0.2721 -0.6217
23654SOL    HW177054   3.482   6.097   8.067 -0.5547 -1.3141 -0.2558
23654SOL    HW277055   3.460   6.147   7.925  1.4093 -0.3338 -0.2444
23655SOL     OW77056  10.099   1.705   2.598  0.0945 -0.3689  0.1398
23655SOL    HW177057  10.055   1.625   2.570 -1.3591 -0.5300  2.5232
23655SOL    HW277058  10.051   1.776   2.554 -1.0559 -0.6699  0.8697
23656SOL     OW77059   4.520   5.580   8.986  0.1216 -0.2203 -0.5540
23656SOL    HW177060   4.454   5.522   9.023 -1.0878  0.4029 -1.6765
23656SOL    HW277061   4.551   5.631   9.062 -1.0674 -0.1532 -0.0896
23657SOL     OW77062   4.658   4.442   7.950  0.0143 -0.4402 -0.2217
23657SOL    HW177063   4.584   4.390   7.919  0.5961 -0.0567 -2.4116
23657SOL    HW277064   4.652   4.437   8.046 -1.5836 -2.1571 -0.3481
23658SOL     OW77065   1.794   3.598   9.872  0.7353  0.1323  0.3560
23658SOL    HW177066   1.750   3.665   9.923 -1.3876 -1.4573  0.7722
23658SOL    HW277067   1.850   3.553   9.935 -0.9190 -1.0079  1.1053
23659SOL     OW77068   8.959   9.022   9.108  0.3059 -0.4205 -0.2101
23659SOL    HW177069   8.883   8.988   9.154  0.8303 -1.5955 -0.1636
23659SOL    HW277070   9.006   8.943   9.078  0.8925  0.2879 -1.2287
23660SOL     OW77071   7.245   4.283   5.145  0.3164  0.3569  0.4472
23660SOL    HW177072   7.205   4.202   5.177  1.0736 -0.2602 -0.1206
23660SOL    HW277073   7.200   4.352   5.193 -0.5483 -0.3788  0.7358
23661SOL     OW77074   9.980   8.136  10.711 -0.0640  0.0314  0.1269
23661SOL    HW177075   9.943   8.214  10.669 -1.3044 -0.6416 -0.0862
23661SOL    HW277076   9.956   8.146  10.803 -1.8913 -0.9670 -0.1916
23662SOL     OW77077   7.346   3.770   0.904 -0.0350 -0.9025 -0.7386
23662SOL    HW177078   7.431   3.760   0.947 -0.1883 -1.2409 -0.5071
23662SOL    HW277079   7.345   3.861   0.873  0.1857 -0.7345 -0.2621
23663SOL     OW77080   1.127   9.469   5.152  0.0611  0.0400 -0.0693
23663SOL    HW177081   1.195   9.426   5.204 -0.5084  1.2938  1.8289
23663SOL    HW277082   1.171   9.494   5.071  1.6788  0.2221  0.8241
23664SOL     OW77083   6.058   5.457   7.386  0.2914 -0.6019  0.0413
23664SOL    HW177084   6.115   5.528   7.416 -0.1295 -0.4318  0.4619
23664SOL    HW277085   6.043   5.404   7.464 -1.9136  0.5948  0.5408
23665SOL     OW77086   8.659   1.786  10.426  0.2175 -0.5262 -0.4541
23665SOL    HW177087   8.652   1.853  10.494 -0.0542 -0.0083 -0.9845
23665SOL    HW277088   8.613   1.710  10.462 -0.8627  0.0960 -0.4947
23666SOL     OW77089   9.685   3.266   7.546  0.2970  0.2062 -0.5118
23666SOL    HW177090   9.591   3.265   7.525  0.3809  1.3741 -0.9999
23666SOL    HW277091   9.712   3.174   7.537 -1.0059 -0.3230  0.6546
23667SOL     OW77092   2.761   4.306   6.660 -0.6271  0.6097 -0.1843
23667SOL    HW177093   2.752   4.396   6.628 -2.8920 -0.0256 -1.6019
23667SOL    HW277094   2.732   4.251   6.587 -1.0779 -1.1887  1.2557
23668SOL     OW77095   5.809   9.503   9.025  0.2940 -0.7837 -0.3955
23668SOL    HW177096   5.862   9.583   9.026 -2.3804  1.0904  0.2511
23668SOL    HW277097   5.873   9.433   9.013  3.2120  1.0916  2.3826
23669SOL     OW77098   2.190   9.378   0.201  0.6004 -0.1661  0.9205
23669SOL    HW177099   2.151   9.463   0.178  0.5261  0.1813  2.2515
23669SOL    HW277100   2.115   9.320   0.215  0.6566 -0.8040 -1.1069
23670SOL     OW77101   6.439   2.519   4.665  0.2828  0.3352  0.7858
23670SOL    HW177102   6.407   2.550   4.750  1.2264  2.3920  0.4395
23670SOL    HW277103   6.534   2.514   4.675  0.2714 -1.3388  0.4169
23671SOL     OW77104   8.478   6.853  10.577 -0.3073 -0.0711 -0.1115
23671SOL    HW177105   8.470   6.768  10.534  1.6943  0.3933 -1.5519
23671SOL    HW277106   8.518   6.910  10.511 -1.6447  2.0466  0.7787
23672SOL     OW77107  10.741   9.940   2.588 -0.0515 -0.1791  0.5025
23672SOL    HW177108  10.742   9.918   2.682 -0.2978 -0.9580  0.3301
23672SOL    HW277109  10.654   9.914   2.559  0.5367 -1.3645 -0.2694
23673SOL     OW77110   1.144   1.196   1.634 -0.2557  0.0364 -0.0476
23673SOL    HW177111   1.082   1.250   1.584  1.4849  2.1401 -0.0629
23673SOL    HW277112   1.169   1.126   1.573 -1.1307  0.2837 -0.7063
23674SOL     OW77113   4.789   5.456   0.686  0.1797 -0.0544  0.2225
23674SOL    HW177114   4.854   5.426   0.624  1.2337  0.7427  0.9057
23674SOL    HW277115   4.734   5.517   0.636  1.1333  0.7283  0.1079
23675SOL     OW77116   8.982   8.206   2.108 -1.0687 -0.7251 -0.8830
23675SOL    HW177117   9.052   8.261   2.072 -2.3900  1.1911 -0.7244
23675SOL    HW277118   9.025   8.151   2.173  0.2881  0.4495 -0.7364
23676SOL     OW77119   8.628   7.863   5.321 -0.2866  0.2559 -0.5396
23676SOL    HW177120   8.603   7.783   5.275 -0.1228  1.1514 -2.2844
23676SOL    HW277121   8.724   7.860   5.324 -0.3290 -0.4020  0.9359
23677SOL     OW77122   0.562   3.873  10.598 -0.4192  0.2539 -0.0091
23677SOL    HW177123   0.636   3.817  10.574 -0.6307 -0.2956  0.5723
23677SOL    HW277124   0.595   3.925  10.671 -0.3995  0.4787 -0.1796
23678SOL     OW77125  10.588   5.900   9.573 -0.2234  0.3277  0.1337
23678SOL    HW177126  10.648   5.876   9.502 -1.1611 -1.0871 -0.2203
23678SOL    HW277127  10.523   5.956   9.531 -0.8834 -0.6580 -0.2013
23679SOL     OW77128   6.424   3.189   0.743  0.3497  0.1225 -0.4723
23679SOL    HW177129   6.509   3.230   0.760  1.5870 -2.7163  0.7318
23679SOL    HW277130   6.377   3.253   0.689  1.6437  3.5887  2.1208
23680SOL     OW77131   0.778   1.068   1.461  0.1555 -0.0712  0.2342
23680SOL    HW177132   0.698   1.119   1.449  0.9194  1.0056 -0.4514
23680SOL    HW277133   0.787   1.060   1.556 -2.0254 -2.3213  0.3458
23681SOL     OW77134   7.409   7.283  10.393  0.0137 -0.0128 -0.7280
23681SOL    HW177135   7.444   7.301  10.480 -1.5079 -1.2548  0.1792
23681SOL    HW277136   7.408   7.188  10.386 -1.4584  0.0286 -1.4252
23682SOL     OW77137   0.408   1.035   5.478  0.0265 -0.8767  0.3719
23682SOL    HW177138   0.333   1.095   5.469  1.8676  1.8752  1.7700
23682SOL    HW277139   0.401   1.002   5.568 -0.2170 -1.6933  0.0600
23683SOL     OW77140   3.951   1.099   3.288  0.1410  0.2708 -0.2553
23683SOL    HW177141   3.980   1.128   3.374  0.5489  0.2031 -0.3709
23683SOL    HW277142   3.923   1.008   3.301  1.3348 -0.1330 -0.4431
23684SOL     OW77143   8.250   5.677   4.736 -0.1951  0.0769  0.5208
23684SOL    HW177144   8.246   5.590   4.776  0.6898 -0.2360 -0.0336
23684SOL    HW277145   8.335   5.679   4.692 -0.6156  0.8629 -0.2929
23685SOL     OW77146   6.873   8.488  10.388  0.3556 -0.0816  0.4491
23685SOL    HW177147   6.942   8.540  10.346  0.6147 -1.6469 -1.1997
23685SOL    HW277148   6.912   8.459  10.470  0.7654  1.0222  0.6632
23686SOL     OW77149   7.967   3.863   6.739 -0.2765 -0.3351 -0.4128
23686SOL    HW177150   7.893   3.823   6.785 -0.3354  0.2145 -0.0192
23686SOL    HW277151   7.978   3.810   6.660 -1.5050 -0.0501 -0.8021
23687SOL     OW77152   4.032   4.377   7.191  0.9814  0.0782  0.2644
23687SOL    HW177153   3.958   4.355   7.248  1.9033  0.8123  1.8096
23687SOL    HW277154   4.019   4.322   7.113 -0.2550 -1.0680  1.2241
23688SOL     OW77155   5.310   8.304   8.244  0.3140  0.2236  0.0217
23688SOL    HW177156   5.274   8.393   8.235 -1.2899 -0.4375 -0.4729
23688SOL    HW277157   5.328   8.295   8.338 -0.6181  0.6701  0.2566
23689SOL     OW77158   9.283   5.055   8.403 -0.5158 -0.1283  0.3556
23689SOL    HW177159   9.296   4.980   8.461  0.7746 -0.1580  0.0708
23689SOL    HW277160   9.200   5.093   8.429 -1.0244 -1.4710  0.7232
23690SOL     OW77161   3.113   9.212   6.142  0.1545 -0.0348 -0.0721
23690SOL    HW177162   3.135   9.266   6.066  0.6572  1.3396  1.0183
23690SOL    HW277163   3.171   9.136   6.134  0.0690 -0.0137 -1.1440
23691SOL     OW77164   0.979   0.679   6.690 -0.1967 -0.3407  0.0159
23691SOL    HW177165   1.023   0.760   6.715  0.0061 -0.3961 -0.1651
23691SOL    HW277166   0.918   0.662   6.762 -2.3083  1.4854 -1.2332
23692SOL     OW77167  10.250   1.758   0.872  0.0865 -0.2536  0.0453
23692SOL    HW177168  10.270   1.779   0.963  1.9991  0.1216 -0.4114
23692SOL    HW277169  10.332   1.772   0.826 -0.7562 -0.7600 -1.6983
23693SOL     OW77170   5.849  10.046   3.847  0.4823  0.0253 -0.2711
23693SOL    HW177171   5.883   9.972   3.897  1.4627  0.9545  0.4713
23693SOL    HW277172   5.926  10.098   3.824 -0.2612  1.3506  0.1022
23694SOL     OW77173   1.799   9.745   6.650 -0.3922  0.4410  0.2050
23694SOL    HW177174   1.779   9.672   6.592 -1.2463 -2.1093  3.3899
23694SOL    HW277175   1.886   9.774   6.624 -0.0252 -1.7387 -1.1827
23695SOL     OW77176   5.670   1.649   8.363  0.3042  0.4781  0.3314
23695SOL    HW177177   5.728   1.678   8.433  0.6539  0.6282 -0.0107
23695SOL    HW277178   5.677   1.718   8.297  0.5232  0.0061 -0.1468
23696SOL     OW77179   5.206  10.253   5.583 -0.0853  0.0136 -0.0710
23696SOL    HW177180   5.261  10.242   5.505  0.3596  1.3364  0.0318
23696SOL    HW277181   5.140  10.184   5.575  2.5589 -2.8932  0.7338
23697SOL     OW77182   5.774   1.707   9.991 -0.3145 -0.0100  0.5098
23697SOL    HW177183   5.792   1.631   9.936 -0.4540  0.1358  0.2628
23697SOL    HW277184   5.785   1.782   9.933 -0.1216  0.1614  0.7687
23698SOL     OW77185   1.973   0.992  10.116  0.1010  0.4808 -0.2889
23698SOL    HW177186   1.963   0.929  10.188 -1.1758  1.5416  0.5059
23698SOL    HW277187   1.886   1.030  10.105  0.2631  0.3004 -2.4681
23699SOL     OW77188  10.015  10.368   7.741 -0.5549 -0.2090 -0.1552
23699SOL    HW177189  10.035  10.296   7.682  0.9790  0.1677 -0.1289
23699SOL    HW277190  10.016  10.446   7.686 -2.5937 -0.2108 -0.2611
23700SOL     OW77191   5.094   8.755   3.029 -0.3093  0.0258  0.2336
23700SOL    HW177192   5.165   8.819   3.025  1.6399 -2.0813 -1.2097
23700SOL    HW277193   5.124   8.689   3.091 -1.0138 -0.8866 -0.3756
23701SOL     OW77194   2.329   5.756   3.870 -0.1312  0.1342  0.0110
23701SOL    HW177195   2.294   5.807   3.943  0.6074  0.2865  0.2677
23701SOL    HW277196   2.374   5.683   3.912 -0.6867 -0.4223 -0.3393
23702SOL     OW77197   8.931   2.606   6.707 -0.2528 -0.2619  0.7844
23702SOL    HW177198   8.868   2.534   6.720 -1.2216  0.3759 -0.1838
23702SOL    HW277199   8.981   2.581   6.630 -0.2375 -0.1393  0.7538
23703SOL     OW77200   2.694   5.311   2.984  0.2868 -0.5449  0.6652
23703SOL    HW177201   2.661   5.400   2.983  2.5426  0.4709 -2.7376
23703SOL    HW277202   2.702   5.288   3.076 -1.0937  2.4527  1.6212
23704SOL     OW77203   6.615   7.964  10.832  0.3488  0.6204 -0.1414
23704SOL    HW177204   6.701   7.996  10.807  1.2982 -2.0983 -0.6826
23704SOL    HW277205   6.617   7.870  10.813 -2.6052  0.3755  0.1953
23705SOL     OW77206   4.262   5.760  10.055 -0.3287 -0.1092 -0.1160
23705SOL    HW177207   4.229   5.845  10.025  0.5455  0.4177  0.3821
23705SOL    HW277208   4.272   5.770  10.149 -0.5659 -0.8974  0.0034
23706SOL     OW77209   8.700   1.496   0.692 -0.3515  0.1806  0.0034
23706SOL    HW177210   8.684   1.460   0.605  1.5582  0.1137 -0.3460
23706SOL    HW277211   8.613   1.498   0.733 -0.8095 -3.7367 -0.3513
23707SOL     OW77212   1.747   7.031   5.735  0.1027 -0.5607  0.0780
23707SOL    HW177213   1.695   6.955   5.760 -2.1739  0.7058 -0.5718
23707SOL    HW277214   1.745   7.030   5.639 -2.1198  1.6357  0.0123
23708SOL     OW77215   0.204   4.053   7.243  0.5827  0.0775  0.1166
23708SOL    HW177216   0.137   4.120   7.232  1.4095  1.0894  1.0850
23708SOL    HW277217   0.216   4.047   7.337  0.7647 -1.2114  0.0275
23709SOL     OW77218   5.307   7.051   3.538 -0.1927 -0.1084 -0.2107
23709SOL    HW177219   5.267   7.123   3.587 -1.7760  1.1819 -3.1338
23709SOL    HW277220   5.264   6.972   3.572  0.6742  0.3665  2.1867
23710SOL     OW77221   6.482   1.328   1.582 -0.3772  1.0618  0.0268
23710SOL    HW177222   6.402   1.300   1.626 -0.0496  1.3172  0.8063
23710SOL    HW277223   6.526   1.385   1.646  2.6578 -2.5565  1.5537
23711SOL     OW77224   3.835   4.724   3.566  0.0070 -0.1307 -0.0803
23711SOL    HW177225   3.886   4.643   3.576  1.1613  0.5870  0.0860
23711SOL    HW277226   3.871   4.783   3.633 -0.5155  0.6655 -0.4867
23712SOL     OW77227   2.306  10.893  10.872  0.2110 -0.1766 -0.1041
23712SOL    HW177228   2.365  10.962  10.902 -2.7817  2.4581  0.3243
23712SOL    HW277229   2.251  10.874  10.948 -0.9368 -0.8552 -1.0592
23713SOL     OW77230   8.217   1.065   0.524 -0.1968 -0.1209  0.1270
23713SOL    HW177231   8.173   1.017   0.594 -0.5954  0.9385  0.6257
23713SOL    HW277232   8.194   1.018   0.444 -1.4783 -0.1317  0.4820
23714SOL     OW77233   1.566   7.150   6.967 -0.0109 -0.0536  0.2256
23714SOL    HW177234   1.558   7.233   7.015 -0.3768  0.8055 -1.2666
23714SOL    HW277235   1.476   7.121   6.955  0.0260  0.2570 -0.8150
23715SOL     OW77236   6.097   3.218   5.720  0.0814  0.0688  0.2542
23715SOL    HW177237   6.119   3.222   5.627  1.2851 -1.9014  0.4027
23715SOL    HW277238   6.038   3.143   5.728 -0.6102  0.6706  0.9838
23716SOL     OW77239   4.704   7.529   6.189  0.3571  0.6928 -0.2134
23716SOL    HW177240   4.708   7.521   6.094  0.2286 -0.6480 -0.1275
23716SOL    HW277241   4.679   7.442   6.220 -0.3611  1.2942  1.0059
23717SOL     OW77242   3.371   5.310   2.250 -0.5378  0.0323  0.7236
23717SOL    HW177243   3.294   5.253   2.253 -0.8626  0.3253 -1.0284
23717SOL    HW277244   3.423   5.285   2.327 -2.4965  0.0253  2.1042
23718SOL     OW77245   0.482   8.664   7.055 -0.2001 -0.5609  0.3763
23718SOL    HW177246   0.411   8.612   7.092  0.9566 -1.5226  1.3213
23718SOL    HW277247   0.502   8.728   7.124 -1.3488  0.9422 -0.6181
23719SOL     OW77248   1.833   9.563   4.451  0.6689 -0.1154  0.1124
23719SOL    HW177249   1.795   9.627   4.391  1.5247  0.0047 -0.3246
23719SOL    HW277250   1.921   9.598   4.470  0.9546 -0.9006  0.2636
23720SOL     OW77251   4.109  10.303   5.820  0.1862 -0.0948  0.7823
23720SOL    HW177252   4.175  10.234   5.810  0.7336  0.4224  0.7910
23720SOL    HW277253   4.109  10.324   5.913 -0.2617 -0.3495  0.8448
23721SOL     OW77254   6.394   6.389   1.939 -0.1139 -0.2873  0.0633
23721SOL    HW177255   6.483   6.425   1.947  0.0687 -0.6032 -0.4424
23721SOL    HW277256   6.406   6.309   1.888 -0.6664 -0.4485  0.1820
23722SOL     OW77257   6.323   2.789   2.864 -0.1622  0.6208 -0.2077
23722SOL    HW177258   6.314   2.698   2.893 -0.3464  0.3019 -1.2315
23722SOL    HW277259   6.266   2.796   2.787 -0.6059  1.7678  0.2041
23723SOL     OW77260   2.842   8.499   1.077 -0.4917  0.1730 -0.3016
23723SOL    HW177261   2.876   8.512   1.165  0.5559  0.9143 -0.7906
23723SOL    HW277262   2.775   8.566   1.066 -1.5675 -0.7625  0.3766
23724SOL     OW77263   7.201  10.203  10.823  0.1174  0.1435  0.5989
23724SOL    HW177264   7.108  10.223  10.830 -0.3418 -1.8104  0.6587
23724SOL    HW277265   7.209  10.153  10.742  0.9079 -0.6756  1.1625
23725SOL     OW77266   0.197   1.977   8.194  0.4562  0.0457 -0.2736
23725SOL    HW177267   0.176   1.893   8.236 -0.4685  0.1763 -0.4590
23725SOL    HW277268   0.141   2.041   8.238  0.7806  0.4832 -0.4883
23726SOL     OW77269   4.369   1.978   5.340  0.1728 -0.1475 -0.5481
23726SOL    HW177270   4.303   1.945   5.279 -1.3154  1.3387  0.2073
23726SOL    HW277271   4.364   2.073   5.331  1.2692  0.0293  0.5267
23727SOL     OW77272  10.775   1.712   9.438 -0.3400  0.1876  0.1066
23727SOL    HW177273  10.808   1.705   9.527 -1.3104  0.4090  0.4902
23727SOL    HW277274  10.739   1.625   9.418  0.4499 -0.0552 -0.3128
23728SOL     OW77275   0.488   2.533   3.309  0.0950 -0.6147 -0.3068
23728SOL    HW177276   0.540   2.569   3.238  1.5986 -0.6404  0.7331
23728SOL    HW277277   0.552   2.499   3.371 -1.1236  0.1352  1.4503
23729SOL     OW77278   0.710  10.755   0.914  0.9754  0.7704 -0.2493
23729SOL    HW177279   0.721  10.723   1.003  0.0501 -1.3544 -0.8454
23729SOL    HW277280   0.763  10.697   0.860 -0.9601 -0.0255 -1.4129
23730SOL     OW77281   6.917   3.602   3.428 -0.3028 -0.1996  0.2396
23730SOL    HW177282   6.873   3.551   3.496 -0.9987  0.1882  0.0870
23730SOL    HW277283   6.977   3.660   3.475 -0.3957 -0.3068  0.4864
23731SOL     OW77284   2.123   8.327   2.731  0.5436  0.0142 -0.4806
23731SOL    HW177285   2.145   8.266   2.801 -0.3192 -1.7291 -1.6381
23731SOL    HW277286   2.050   8.378   2.766  0.5889 -0.3376  0.1464
23732SOL     OW77287   3.521   4.134   2.585 -0.4999  0.3678 -1.1239
23732SOL    HW177288   3.448   4.071   2.586 -0.7546  0.6576  0.0430
23732SOL    HW277289   3.508   4.186   2.664  2.1353 -0.9151  0.2810
23733SOL     OW77290   8.301   8.600  10.789 -0.1449  0.1527  0.3952
23733SOL    HW177291   8.313   8.681  10.739  1.6613  0.5341  1.3403
23733SOL    HW277292   8.228   8.619  10.848 -0.2852  0.7914  0.0263
23734SOL     OW77293  10.580   9.814  10.144  0.7780  0.4735 -0.1116
23734SOL    HW177294  10.578   9.886  10.206 -0.9403 -0.2465  0.7578
23734SOL    HW277295  10.529   9.745  10.187  2.0355 -1.1216 -1.0738
23735SOL     OW77296   6.795   7.603   7.928  0.6069  0.9001  0.1238
23735SOL    HW177297   6.805   7.650   8.011  1.3321 -0.3456  0.7848
23735SOL    HW277298   6.884   7.597   7.893  0.3954  0.8249 -0.4044
23736SOL     OW77299   6.039   1.312   0.737 -0.2213  0.8517  0.6379
23736SOL    HW177300   6.117   1.335   0.788  0.1516  2.0026 -0.4053
23736SOL    HW277301   5.987   1.393   0.735 -0.9219  0.4084  0.3982
23737SOL     OW77302   3.868   2.826   6.253 -0.2301 -0.0247 -0.2441
23737SOL    HW177303   3.818   2.757   6.212 -1.2809  0.3967  0.2988
23737SOL    HW277304   3.959   2.796   6.248 -0.6446 -1.3310 -0.2061
23738SOL     OW77305   7.353   9.131   5.950  0.1219  0.3080 -0.7449
23738SOL    HW177306   7.443   9.102   5.963 -0.3990 -0.8484  0.5552
23738SOL    HW277307   7.356   9.226   5.961  1.0595  0.1965  0.0768
23739SOL     OW77308   0.095   0.102   0.176  0.5151  0.5900 -0.2275
23739SOL    HW177309   0.159   0.133   0.240  2.0609 -2.9048  0.1589
23739SOL    HW277310   0.015   0.089   0.227  0.0390  2.8994 -0.2581
23740SOL     OW77311   7.393   1.285   2.988  0.0034  0.2053  0.0121
23740SOL    HW177312   7.350   1.331   3.060 -2.0448 -0.3545 -0.8016
23740SOL    HW277313   7.411   1.353   2.923 -0.6739  0.2865 -0.0999
23741SOL     OW77314  10.713   0.152   8.286 -0.1174  0.3915  0.2905
23741SOL    HW177315  10.789   0.142   8.229 -0.3933  0.4134 -0.0926
23741SOL    HW277316  10.644   0.100   8.243 -0.3982  0.6071  0.4725
23742SOL     OW77317   5.793   2.222   2.173 -0.0182  0.1921  0.2788
23742SOL    HW177318   5.729   2.290   2.195 -1.2370 -1.1195  0.9737
23742SOL    HW277319   5.793   2.218   2.077 -0.4342  0.7142  0.2545
23743SOL     OW77320   6.614   0.216   7.379  0.5296 -0.1248  0.7015
23743SOL    HW177321   6.562   0.136   7.372 -0.4808  0.4308  1.6608
23743SOL    HW277322   6.585   0.257   7.460  0.6378  1.4927 -0.0471
23744SOL     OW77323  10.887  10.547   7.382  0.2068 -0.2835 -0.5513
23744SOL    HW177324  10.911  10.573   7.471 -0.0332 -1.5067 -0.1155
23744SOL    HW277325  10.794  10.525   7.388  0.4575 -1.4438 -0.8532
23745SOL     OW77326   7.549   1.538   2.513  0.2122  0.3640  0.0379
23745SOL    HW177327   7.488   1.592   2.463  1.3430  0.1295 -1.6650
23745SOL    HW277328   7.635   1.575   2.494  1.0164 -1.9051 -1.1102
23746SOL     OW77329   8.037   0.816   9.037 -0.4691 -0.9993  0.1081
23746SOL    HW177330   8.052   0.900   9.079  1.1107 -1.3136  0.2327
23746SOL    HW277331   7.954   0.827   8.990 -0.5563  0.4410  0.5542
23747SOL     OW77332   7.171   1.600   9.393 -0.1017  0.3145 -0.5624
23747SOL    HW177333   7.224   1.679   9.386 -0.6117  0.6382 -0.8265
23747SOL    HW277334   7.217   1.546   9.457 -0.2110  1.2013  0.2877
23748SOL     OW77335  10.045   1.090   6.554 -0.1838  0.2473 -0.7342
23748SOL    HW177336  10.008   1.042   6.480 -1.2054  0.9125 -0.6754
23748SOL    HW277337   9.978   1.086   6.622  1.0465 -1.0221  0.4821
23749SOL     OW77338   5.700   7.107  10.620  0.4633 -0.2671  0.8659
23749SOL    HW177339   5.792   7.082  10.605  0.1681 -0.8209 -0.1174
23749SOL    HW277340   5.673   7.055  10.695  1.0233  0.0852  1.3236
23750SOL     OW77341  10.833   2.481   1.525 -0.4541  0.4192  0.3793
23750SOL    HW177342  10.766   2.546   1.507 -0.9701 -0.3399 -0.4616
23750SOL    HW277343  10.889   2.523   1.591 -1.6489  1.1138  0.9811
23751SOL     OW77344   2.342   9.808   7.538  0.4919 -0.0511  0.4545
23751SOL    HW177345   2.264   9.808   7.482  0.9287  0.4268 -0.1634
23751SOL    HW277346   2.340   9.723   7.582  0.2775 -0.5398 -0.4730
23752SOL     OW77347   8.828   6.099   6.759  0.3714  0.0300  0.0042
23752SOL    HW177348   8.895   6.123   6.823  0.5968 -0.9475  0.1513
23752SOL    HW277349   8.760   6.055   6.811  0.9741 -1.5899 -0.5240
23753SOL     OW77350   0.936   0.438  10.713  0.5922  0.4987  0.1349
23753SOL    HW177351   0.856   0.443  10.765  0.4078  1.1284 -0.1906
23753SOL    HW277352   0.969   0.349  10.727 -0.8534 -0.2088 -0.7242
23754SOL     OW77353   3.155  10.469   4.174 -0.4183  0.2049  0.1795
23754SOL    HW177354   3.069  10.487   4.213 -0.3818  1.4600 -0.2703
23754SOL    HW277355   3.135  10.429   4.090 -0.5734  0.4438  0.1011
23755SOL     OW77356   6.030   4.445   2.840 -0.8637  0.0204  0.4226
23755SOL    HW177357   6.031   4.511   2.771 -0.5472 -1.1716 -0.7551
23755SOL    HW277358   6.072   4.488   2.915 -0.7485  1.1713 -0.2730
23756SOL     OW77359   2.606   1.669   9.703  0.6340  0.9220  0.1194
23756SOL    HW177360   2.555   1.671   9.784 -0.3227 -0.0172 -0.4272
23756SOL    HW277361   2.554   1.614   9.644  2.5326 -0.5000 -0.3224
23757SOL     OW77362   3.330   3.462   0.700  0.1132  0.3491 -0.2020
23757SOL    HW177363   3.275   3.533   0.731  0.3299  0.4424 -0.0295
23757SOL    HW277364   3.397   3.452   0.767  0.0711 -0.0338 -0.2127
23758SOL     OW77365   9.735  10.877   9.778 -0.1318 -0.3451 -0.1657
23758SOL    HW177366   9.663  10.864   9.717 -0.7142  1.4345  0.0704
23758SOL    HW277367   9.777  10.957   9.748  2.0229 -1.5339 -0.5114
23759SOL     OW77368   6.745   4.807   3.966 -0.3309 -0.3526 -0.1509
23759SOL    HW177369   6.688   4.880   3.989 -0.2949 -0.3620 -0.0329
23759SOL    HW277370   6.833   4.837   3.989 -0.4426 -0.8989  1.0595
23760SOL     OW77371   1.473   4.119   1.678  0.9326  0.0756  0.3228
23760SOL    HW177372   1.446   4.030   1.702  0.4698 -0.0607 -0.6371
23760SOL    HW277373   1.553   4.107   1.628  0.5488  0.1358 -0.3236
23761SOL     OW77374   4.341   6.123   1.651 -0.2648 -0.2273 -0.0263
23761SOL    HW177375   4.430   6.133   1.615  0.3187  1.1057  1.6765
23761SOL    HW277376   4.294   6.075   1.583  0.7418  2.1741 -2.6385
23762SOL     OW77377   6.107   0.725   9.314 -0.2795  0.3158 -0.2153
23762SOL    HW177378   6.114   0.794   9.247 -1.3763  0.1797 -0.4838
23762SOL    HW277379   6.174   0.661   9.289  2.3289  2.2437  1.2710
23763SOL     OW77380  10.910   8.517   6.119  0.2752 -0.1799 -0.3047
23763SOL    HW177381  10.858   8.510   6.039 -0.1666 -1.6394  0.0813
23763SOL    HW277382  11.001   8.523   6.087  0.1222 -0.9723 -0.9170
23764SOL     OW77383   7.571   5.171   5.918 -0.2079  0.4022 -0.1194
23764SOL    HW177384   7.567   5.087   5.964 -0.9521  1.0330  1.0148
23764SOL    HW277385   7.514   5.229   5.969  0.2517  1.5818 -0.9102
23765SOL     OW77386   3.932   5.907   2.925 -0.1770  0.1133  0.3730
23765SOL    HW177387   4.008   5.864   2.963 -0.0114 -0.2524 -0.3664
23765SOL    HW277388   3.891   5.840   2.870 -0.7108  0.4788  0.3167
23766SOL     OW77389   8.099   5.068   9.658  0.3702  0.5652  0.9236
23766SOL    HW177390   8.192   5.092   9.656  0.4954  0.1837 -1.5361
23766SOL    HW277391   8.066   5.094   9.571 -1.7453  0.3394  1.5900
23767SOL     OW77392   7.609   3.346  10.897 -0.1687  0.7498 -0.1404
23767SOL    HW177393   7.578   3.433  10.924 -1.2135  0.3619 -0.0417
23767SOL    HW277394   7.598   3.292  10.975 -0.8465  0.2078 -0.6059
23768SOL     OW77395   2.032  10.631   1.965  0.4096 -0.4438 -0.0623
23768SOL    HW177396   1.944  10.599   1.948 -0.2470  1.2939 -0.1840
23768SOL    HW277397   2.088  10.583   1.904 -0.3705 -1.8953  0.3394
23769SOL     OW77398  10.490  10.817   7.064  0.1863  0.7012  1.1967
23769SOL    HW177399  10.541  10.737   7.055  0.1845  0.7075  1.1337
23769SOL    HW277400  10.525  10.875   6.997  0.4357  0.8837  1.4816
23770SOL     OW77401   8.837   1.091   4.163  0.1164 -0.2567 -0.1128
23770SOL    HW177402   8.837   1.086   4.258 -2.2649 -1.5810 -0.1097
23770SOL    HW277403   8.782   1.018   4.135 -0.3226  0.8699 -2.4402
23771SOL     OW77404   0.984   9.749   5.905 -0.3804  0.4316 -0.5315
23771SOL    HW177405   1.033   9.827   5.931  1.5802 -0.7341 -0.5234
23771SOL    HW277406   0.968   9.761   5.812  1.1086  0.2803 -0.8366
23772SOL     OW77407   4.592  10.509   9.587  0.4051 -0.1606 -0.4954
23772SOL    HW177408   4.546  10.523   9.669 -0.2950 -2.0986 -0.4918
23772SOL    HW277409   4.684  10.500   9.613  0.2646 -0.1786  0.0082
23773SOL     OW77410   7.086   0.365   1.319 -0.3816  0.1368  0.2749
23773SOL    HW177411   7.065   0.321   1.237  0.0495 -1.2237  0.8714
23773SOL    HW277412   7.066   0.457   1.303 -1.8265 -0.3358 -0.8389
23774SOL     OW77413   2.807  10.865   5.261  0.0406  0.1256 -0.0690
23774SOL    HW177414   2.888  10.820   5.238 -0.7090 -0.1604 -2.4696
23774SOL    HW277415   2.739  10.817   5.213 -1.3564  1.2515  0.7076
23775SOL     OW77416   2.298   1.174   4.697  0.1758 -0.4063  0.1913
23775SOL    HW177417   2.218   1.226   4.692  0.4317  0.3088  2.5200
23775SOL    HW277418   2.269   1.084   4.677 -1.1454 -0.1193  0.7070
23776SOL     OW77419   1.897   6.218   0.622  0.0015 -0.0248  0.5732
23776SOL    HW177420   1.944   6.145   0.663  1.9281 -0.4992 -2.2349
23776SOL    HW277421   1.833   6.176   0.565  0.0860  0.5059  0.0778
23777SOL     OW77422   9.655   1.295  10.236  0.1913  0.1607  0.2345
23777SOL    HW177423   9.656   1.288  10.140 -0.6100  0.2092  0.2136
23777SOL    HW277424   9.723   1.359  10.256 -0.6955  1.3324 -0.4198
23778SOL     OW77425   4.848   4.371   9.186  0.5052  0.0171  0.4696
23778SOL    HW177426   4.879   4.446   9.237  0.3795  0.0876  0.4407
23778SOL    HW277427   4.927   4.321   9.166  0.8141  1.0689 -1.0409
23779SOL     OW77428  10.765   7.949   9.118 -0.2338  0.0370  0.3962
23779SOL    HW177429  10.818   7.872   9.136 -1.0946 -0.3645  1.2858
23779SOL    HW277430  10.812   8.021   9.161 -0.1499 -0.2326  0.7598
23780SOL     OW77431   6.585   5.509   6.496  0.3838  0.0720 -0.1487
23780SOL    HW177432   6.537   5.462   6.427  0.4460 -1.1767  0.6364
23780SOL    HW277433   6.536   5.590   6.508 -0.9231 -0.6938 -0.1257
23781SOL     OW77434   9.632   9.358   3.401  0.5762  0.1945 -0.2058
23781SOL    HW177435   9.681   9.341   3.482  0.3962 -0.9061 -0.3121
23781SOL    HW277436   9.612   9.271   3.367  1.7082  0.6314 -2.0896
23782SOL     OW77437   3.802   9.340   5.417  0.4177 -0.2190 -0.8522
23782SOL    HW177438   3.769   9.275   5.479  1.0336 -0.2149 -0.5043
23782SOL    HW277439   3.866   9.292   5.365  0.3778 -0.0566 -1.0487
23783SOL     OW77440   9.598   8.392   4.975  0.3408  0.0479  0.1802
23783SOL    HW177441   9.550   8.464   5.018  1.4155  0.6434  0.4152
23783SOL    HW277442   9.530   8.343   4.929 -0.4355  1.1846  0.0616
23784SOL     OW77443   9.747   4.628   5.920  0.0030  0.1188 -0.3865
23784SOL    HW177444   9.662   4.629   5.964 -0.4130  1.3188 -1.1713
23784SOL    HW277445   9.739   4.559   5.853  0.0238 -0.4867  0.2281
23785SOL     OW77446   4.238   2.090   7.632  0.1936 -0.3598 -0.1062
23785SOL    HW177447   4.328   2.113   7.611 -0.2542  1.3838 -0.2408
23785SOL    HW277448   4.225   2.005   7.591  2.0653 -1.1100  0.7441
23786SOL     OW77449   0.170   0.402   6.953  0.5733  0.0097 -0.0502
23786SOL    HW177450   0.123   0.446   6.883  0.0138  0.1495  0.3956
23786SOL    HW277451   0.239   0.353   6.910 -0.0801 -0.3131 -0.7446
23787SOL     OW77452   4.351  10.877  10.031  0.3357  0.1863 -0.0323
23787SOL    HW177453   4.295  10.800  10.029 -3.0554  2.4114 -3.4045
23787SOL    HW277454   4.426  10.854   9.976 -0.0669 -1.0136 -0.0956
23788SOL     OW77455   2.332   5.137   0.390 -0.0920 -0.4236 -0.4282
23788SOL    HW177456   2.271   5.090   0.333 -1.5117  1.2569 -0.3681
23788SOL    HW277457   2.371   5.068   0.445 -1.3354 -1.6435 -1.0126
23789SOL     OW77458   4.410   3.686   2.843  0.2937 -0.2078 -0.0706
23789SOL    HW177459   4.461   3.730   2.912 -0.3073 -0.1732  0.3594
23789SOL    HW277460   4.449   3.599   2.837 -0.4551 -0.6588  1.2264
23790SOL     OW77461   3.523   4.293   9.712  0.2898  0.0756 -0.1977
23790SOL    HW177462   3.619   4.290   9.718  0.2546  0.0757  0.5593
23790SOL    HW277463   3.494   4.217   9.762 -0.1015  0.0273 -0.5021
23791SOL     OW77464  10.116   2.416   3.450 -0.5323  0.2046 -0.1027
23791SOL    HW177465  10.182   2.348   3.438  1.0442  1.4622  0.9209
23791SOL    HW277466  10.166   2.498   3.454 -2.1508  1.2129  0.7218
23792SOL     OW77467  10.023   0.449   2.624 -0.3876 -0.2704 -0.3542
23792SOL    HW177468  10.004   0.538   2.654 -1.6533 -0.0266 -1.7328
23792SOL    HW277469   9.969   0.439   2.545 -0.2324 -2.2442 -0.2515
23793SOL     OW77470   4.899  10.431   9.385  0.1525  0.4495 -0.3347
23793SOL    HW177471   4.948  10.351   9.404  0.8861  0.9946  0.1485
23793SOL    HW277472   4.881  10.469   9.471  1.1432  1.5656 -0.5835
23794SOL     OW77473  10.544   3.988   9.791 -0.0727 -0.1855  0.3674
23794SOL    HW177474  10.577   3.922   9.729  0.1875 -0.3141  0.6370
23794SOL    HW277475  10.513   4.060   9.736  0.0240 -0.3593  0.0839
23795SOL     OW77476   2.519   1.391   4.673  0.1789  0.1099 -0.4574
23795SOL    HW177477   2.526   1.485   4.691 -1.6121  0.2100 -0.0810
23795SOL    HW277478   2.427   1.370   4.690  0.6363 -1.8122 -0.1129
23796SOL     OW77479   6.176   2.736   5.335  0.4924 -0.1301 -0.2646
23796SOL    HW177480   6.099   2.784   5.366  0.8229  1.7428 -2.1576
23796SOL    HW277481   6.184   2.663   5.397 -1.3349  0.9920  1.4440
23797SOL     OW77482   0.453   5.420   6.361 -0.5581 -0.3269  0.1251
23797SOL    HW177483   0.418   5.488   6.305 -1.5945 -0.9185  0.0178
23797SOL    HW277484   0.413   5.436   6.447 -0.2135 -0.3515  0.2934
23798SOL     OW77485   7.931  10.739   5.121  0.1636  0.2718  0.0307
23798SOL    HW177486   7.896  10.825   5.144 -0.7551 -0.0309 -0.1888
23798SOL    HW277487   7.854  10.688   5.095  0.5180 -1.0055  1.3424
23799SOL     OW77488  10.062   5.094   8.728  0.1011  0.6140 -0.1001
23799SOL    HW177489  10.103   5.009   8.742 -0.0784  0.5022 -0.2478
23799SOL    HW277490   9.984   5.093   8.784 -0.4723  0.2694 -0.8866
23800SOL     OW77491   6.610   0.164   5.405 -0.3762  0.0275 -0.2154
23800SOL    HW177492   6.704   0.166   5.419 -0.3736 -0.1006 -0.2084
23800SOL    HW277493   6.577   0.239   5.454 -0.2284  0.3587 -0.6216
23801SOL     OW77494   6.321   2.213  10.816 -0.2280  0.1087  0.7172
23801SOL    HW177495   6.364   2.298  10.809  0.9421 -0.6061 -1.6175
23801SOL    HW277496   6.386   2.150  10.787 -1.5638 -1.4432  0.9474
23802SOL     OW77497   5.224   9.494  10.078  0.2022  0.3959  0.2920
23802SOL    HW177498   5.194   9.568  10.131  0.5189 -0.7056  2.0979
23802SOL    HW277499   5.144   9.457  10.041 -0.3143 -0.1997  1.9191
23803SOL     OW77500   4.921  10.835   3.998  0.2839  0.5621  0.1627
23803SOL    HW177501   4.874  10.875   3.925 -0.5292  1.2951  1.0451
23803SOL    HW277502   5.011  10.825   3.967  0.1820  1.7858 -0.5997
23804SOL     OW77503   7.832   0.635   0.529  0.5411 -0.1006 -0.0334
23804SOL    HW177504   7.827   0.729   0.516  0.6257 -0.0393  0.3814
23804SOL    HW277505   7.743   0.608   0.549  0.7471  0.0944  1.2109
23805SOL     OW77506   2.176   7.477   0.749 -0.1880  0.2485  0.4118
23805SOL    HW177507   2.183   7.426   0.830  1.9616 -0.8475 -0.3995
23805SOL    HW277508   2.133   7.418   0.687 -2.1840  1.2195  0.7803
23806SOL     OW77509   5.567   4.011   9.471 -0.3253  0.1146  0.0426
23806SOL    HW177510   5.618   4.084   9.436  0.7998  0.1012  1.5583
23806SOL    HW277511   5.476   4.036   9.456  0.0641  1.2537 -0.5748
23807SOL     OW77512   1.161   7.435   2.174 -0.2367  0.2701 -0.1362
23807SOL    HW177513   1.116   7.445   2.090 -1.0773  1.6225  0.4330
23807SOL    HW277514   1.116   7.497   2.232  1.0958  0.2209  0.9924
23808SOL     OW77515   4.096   2.011   1.270 -0.4776 -0.1275  0.1152
23808SOL    HW177516   4.155   2.048   1.204  0.1820  0.4332  0.9892
23808SOL    HW277517   4.105   1.917   1.260  0.8233 -0.0559  0.4253
23809SOL     OW77518   7.972   0.220   2.867  0.0437  0.0558  0.1113
23809SOL    HW177519   7.896   0.272   2.841  0.5083  0.5265 -0.3099
23809SOL    HW277520   7.995   0.170   2.789  0.6997  0.5724 -0.0381
23810SOL     OW77521  10.441   2.182   9.904 -0.1766 -0.0057  0.0964
23810SOL    HW177522  10.372   2.222   9.852  0.4808  1.1346  0.0450
23810SOL    HW277523  10.516   2.175   9.844 -0.0223 -0.5280  0.3456
23811SOL     OW77524   5.510   8.560   5.189  0.2479  0.3360 -0.0300
23811SOL    HW177525   5.481   8.483   5.140 -2.8399  0.9965  0.5045
23811SOL    HW277526   5.586   8.530   5.239  1.0007 -1.4523 -2.1180
23812SOL     OW77527   6.008   3.069   2.756 -0.1271  0.3618  0.3575
23812SOL    HW177528   5.930   3.063   2.702 -0.6334 -0.6258  1.1810
23812SOL    HW277529   5.980   3.041   2.843  1.1074  0.1065  0.6937
23813SOL     OW77530   2.101   7.871   8.605  0.0088  0.2852  0.4916
23813SOL    HW177531   2.021   7.901   8.648 -0.2392  0.6238 -0.1890
23813SOL    HW277532   2.081   7.783   8.574  0.9794 -0.9817  3.1461
23814SOL     OW77533   7.999  10.518   0.277  0.1186 -0.5123 -0.0669
23814SOL    HW177534   8.008  10.600   0.325 -1.1394 -1.1608  1.3884
23814SOL    HW277535   7.917  10.480   0.309  0.5521 -2.2421 -0.8394
23815SOL     OW77536   7.117   0.185   0.371  0.0420 -0.1955  0.1971
23815SOL    HW177537   7.039   0.161   0.320  0.1840 -0.2578  0.0072
23815SOL    HW277538   7.127   0.279   0.357  0.1788 -0.2416 -0.0311
23816SOL     OW77539   7.699   5.636   7.974  0.0492  0.1091 -0.6057
23816SOL    HW177540   7.646   5.606   7.900  0.1004 -0.1596 -0.5378
23816SOL    HW277541   7.790   5.623   7.945  0.1490 -3.1249  0.6498
23817SOL     OW77542   7.495   5.272   1.004  0.3619 -0.4435  0.2499
23817SOL    HW177543   7.453   5.336   1.062 -0.3082 -1.0385  0.4516
23817SOL    HW277544   7.422   5.221   0.968  0.8996 -1.4697  0.5564
23818SOL     OW77545   9.562   0.383   6.633 -0.2571 -0.5131  0.1468
23818SOL    HW177546   9.586   0.402   6.724 -0.2951 -0.9952  0.2582
23818SOL    HW277547   9.603   0.454   6.582 -0.5865 -0.0090  0.5783
23819SOL     OW77548   8.646   8.988   8.395  0.1768  0.1106  0.2410
23819SOL    HW177549   8.739   8.997   8.377  0.2257 -0.9997 -0.0976
23819SOL    HW277550   8.639   8.913   8.455 -0.3810  1.0676  1.4368
23820SOL     OW77551   2.322   3.387   4.057  0.2736 -0.1955  0.4682
23820SOL    HW177552   2.388   3.456   4.054 -1.0850  1.1306 -0.3549
23820SOL    HW277553   2.239   3.434   4.051 -0.8797 -1.6505  3.3117
23821SOL     OW77554   3.840   4.597   3.111 -0.4967  0.6510 -0.1418
23821SOL    HW177555   3.757   4.629   3.147  0.7292  2.1252  1.5473
23821SOL    HW277556   3.892   4.574   3.187  0.3285 -1.2364 -1.2038
23822SOL     OW77557   3.735   0.188  10.514 -0.3415  0.2674 -0.0137
23822SOL    HW177558   3.646   0.167  10.490 -0.3739 -0.2112  0.5049
23822SOL    HW277559   3.752   0.272  10.472 -1.0561  0.3920 -0.0659
23823SOL     OW77560   9.050   2.078   2.308 -0.0412 -0.5321  0.0319
23823SOL    HW177561   8.997   2.134   2.364 -0.8671 -0.6591 -0.6196
23823SOL    HW277562   9.132   2.067   2.357 -2.0861 -3.9186  3.2912
23824SOL     OW77563   0.605   8.145   6.342  0.5329  0.3228 -0.1024
23824SOL    HW177564   0.517   8.114   6.318  0.7494 -0.5188  0.1297
23824SOL    HW277565   0.633   8.199   6.268 -0.0397  0.3113 -0.3356
23825SOL     OW77566   3.950   0.269   5.179  0.6616 -0.0444  0.1609
23825SOL    HW177567   3.993   0.184   5.171  0.5366 -0.0331 -0.6610
23825SOL    HW277568   4.002   0.327   5.125  0.1080  0.1596 -0.1551
23826SOL     OW77569   3.051   2.535   6.311 -0.2803 -0.0167 -0.1712
23826SOL    HW177570   2.960   2.555   6.333 -0.2041  1.3540 -1.0195
23826SOL    HW277571   3.048   2.444   6.280 -0.9507 -0.8060  1.9679
23827SOL     OW77572   1.451   8.151   7.133  0.0103  0.0788 -0.4136
23827SOL    HW177573   1.449   8.203   7.214  0.1595  0.9321 -0.9503
23827SOL    HW277574   1.463   8.061   7.163 -0.3897  0.3287  0.5421
23828SOL     OW77575   4.923   2.236   4.399  0.4232 -0.5152  0.0794
23828SOL    HW177576   4.970   2.265   4.477  0.5056 -1.2207  0.2990
23828SOL    HW277577   4.857   2.175   4.432  0.7576 -1.1841 -0.4365
23829SOL     OW77578   9.075   8.216   7.342  0.9627 -0.2680 -0.1499
23829SOL    HW177579   9.155   8.195   7.389 -0.5585 -2.9837  1.4817
23829SOL    HW277580   9.066   8.148   7.276  0.7022  0.8635 -1.3283
23830SOL     OW77581   9.040   5.842   7.427  0.0221 -0.2760  0.5918
23830SOL    HW177582   8.999   5.890   7.355  0.2614 -0.1059  0.5681
23830SOL    HW277583   9.036   5.901   7.502  1.4641  0.3135  0.2490
23831SOL     OW77584   5.146   8.673   5.813  0.9456  0.1020 -0.2885
23831SOL    HW177585   5.209   8.702   5.879  2.8885 -1.1450 -1.5112
23831SOL    HW277586   5.079   8.626   5.864  2.1199 -0.3990  0.8532
23832SOL     OW77587   3.229   0.154   4.431  0.0945  0.5768  0.1050
23832SOL    HW177588   3.201   0.152   4.523 -0.3764  0.8062 -0.0290
23832SOL    HW277589   3.150   0.132   4.382 -0.2386  2.5966 -0.3604
23833SOL     OW77590   4.430   8.354   1.039  0.3989  0.3832 -0.0694
23833SOL    HW177591   4.451   8.443   1.068  2.8770  0.4806 -1.8358
23833SOL    HW277592   4.416   8.363   0.945 -0.1311 -0.9843 -0.1339
23834SOL     OW77593   7.885   0.958  10.710  0.0299 -0.3512 -0.2351
23834SOL    HW177594   7.861   0.866  10.698 -1.1052  0.1855 -2.5104
23834SOL    HW277595   7.803   1.006  10.694  0.7797  1.0967  0.1685
23835SOL     OW77596   0.547   8.214   2.009 -0.1584  0.8373  0.0359
23835SOL    HW177597   0.597   8.270   1.951 -0.8405  1.1797 -0.2351
23835SOL    HW277598   0.554   8.256   2.095  0.3022  0.6919  0.0709
23836SOL     OW77599   6.326  10.896   9.725  0.3382 -0.2615  0.2060
23836SOL    HW177600   6.237  10.924   9.705  0.2070 -1.2052 -0.6366
23836SOL    HW277601   6.382  10.969   9.698 -0.1089 -0.0999 -0.2950
23837SOL     OW77602   2.333   5.560   6.907 -0.0110 -0.5764 -0.0209
23837SOL    HW177603   2.338   5.545   6.813 -1.0263  0.4303 -0.2535
23837SOL    HW277604   2.299   5.649   6.916 -1.8991 -1.3463  1.2689
23838SOL     OW77605   7.362   3.041   6.431 -0.1928  0.1472  0.0977
23838SOL    HW177606   7.362   3.001   6.343  0.0267 -1.8955  0.9642
23838SOL    HW277607   7.277   3.016   6.468  0.8896 -1.6896  1.5400
23839SOL     OW77608   1.738   6.684   2.548 -0.0912 -0.0663  0.3933
23839SOL    HW177609   1.779   6.768   2.569  0.7610 -0.6787  1.2766
23839SOL    HW277610   1.782   6.655   2.468  0.7350 -0.3889  0.9511
23840SOL     OW77611   5.037   9.028   8.941  0.2714 -0.8034  0.4439
23840SOL    HW177612   4.957   9.000   8.896  0.3871 -0.6748  0.1510
23840SOL    HW277613   5.007   9.088   9.009 -0.0019 -1.8446  1.2587
23841SOL     OW77614   4.698   4.448   2.113  0.3408  0.4193  0.4584
23841SOL    HW177615   4.693   4.377   2.048 -0.2189  1.0392 -0.1853
23841SOL    HW277616   4.761   4.416   2.178 -0.6781 -1.1234  0.7440
23842SOL     OW77617   2.481   6.295   5.644  0.9872 -0.3815  0.1173
23842SOL    HW177618   2.509   6.332   5.728  0.5893 -1.5719  0.7934
23842SOL    HW277619   2.388   6.276   5.656  0.0294  2.4476 -1.7129
23843SOL     OW77620   9.439   3.577   8.190 -0.3743  0.0928 -0.3987
23843SOL    HW177621   9.405   3.627   8.116 -1.6146 -0.3604 -0.1663
23843SOL    HW277622   9.409   3.488   8.175  0.9263 -0.3884 -0.2704
23844SOL     OW77623   5.167   5.919   1.850  0.1040 -0.2030 -0.2435
23844SOL    HW177624   5.096   5.984   1.852 -0.6121 -0.9260 -1.0682
23844SOL    HW277625   5.228   5.953   1.784 -0.5509 -0.6239 -1.0888
23845SOL     OW77626   2.601   6.021   7.082 -0.4710  0.5104  0.3301
23845SOL    HW177627   2.579   6.112   7.063 -1.3080 -0.1794 -2.4416
23845SOL    HW277628   2.670   5.999   7.020  0.1864 -0.6028  1.3968
23846SOL     OW77629   8.367   8.788   3.143  0.0256  0.0819 -0.1462
23846SOL    HW177630   8.383   8.786   3.237 -0.3052  1.9934 -0.0038
23846SOL    HW277631   8.378   8.880   3.119 -0.8785 -0.2026 -1.8057
23847SOL     OW77632   5.718   9.618   5.311  0.3909  0.2254  0.5450
23847SOL    HW177633   5.698   9.530   5.278  1.6477  0.0863  0.0762
23847SOL    HW277634   5.665   9.676   5.257  1.6736 -0.0767 -1.1371
23848SOL     OW77635   8.133   3.844   8.539  0.6193 -0.3407 -0.5909
23848SOL    HW177636   8.176   3.855   8.624 -1.0186 -0.1488  0.2541
23848SOL    HW277637   8.205   3.836   8.476  1.8806  0.6559  0.6634
23849SOL     OW77638   9.027   9.114  10.689 -0.0050  0.1058  0.1930
23849SOL    HW177639   8.940   9.138  10.720  0.2751  0.5347  0.6554
23849SOL    HW277640   9.015   9.029  10.646 -0.9519  0.9194 -1.2156
23850SOL     OW77641   1.601   4.590   7.087  0.2776  0.1825  0.0316
23850SOL    HW177642   1.691   4.609   7.062  0.1948  0.6323  0.0663
23850SOL    HW277643   1.562   4.676   7.105 -0.2475  0.0190 -0.2998
23851SOL     OW77644   2.562  10.134   2.547 -0.3103  0.0665 -0.0677
23851SOL    HW177645   2.642  10.169   2.586 -0.1348 -1.1508  0.7363
23851SOL    HW277646   2.502  10.121   2.621  0.3024 -3.0239  0.0562
23852SOL     OW77647   7.531   5.696   6.046 -0.2427  0.3985 -0.2972
23852SOL    HW177648   7.572   5.699   6.132  2.5073  2.2295 -1.5546
23852SOL    HW277649   7.580   5.629   5.998 -1.6034 -0.4488 -0.5851
23853SOL     OW77650  10.113   7.013   6.321 -0.1691  0.2955 -0.3327
23853SOL    HW177651  10.040   6.956   6.294  0.8258 -1.4023  0.4229
23853SOL    HW277652  10.188   6.981   6.271  1.0685 -1.0563  2.2075
23854SOL     OW77653   1.349   9.557  10.337 -0.3620 -0.1031 -1.2956
23854SOL    HW177654   1.280   9.623  10.336  0.2818  0.7028  0.7326
23854SOL    HW277655   1.424   9.601  10.377  0.1688 -1.9787 -0.0665
23855SOL     OW77656   3.570   7.163   3.715 -0.3220  0.2310  0.3858
23855SOL    HW177657   3.557   7.137   3.624 -1.1036 -0.6097  0.7265
23855SOL    HW277658   3.517   7.102   3.765  1.0099 -0.0554  1.4969
23856SOL     OW77659  10.506   6.591   7.776  0.1750 -0.4411  0.8414
23856SOL    HW177660  10.507   6.507   7.730 -0.0706 -1.0602  1.9287
23856SOL    HW277661  10.580   6.639   7.740 -1.9727  0.5289 -2.7328
23857SOL     OW77662   8.460   7.365   4.762  0.1562  0.0566  0.1138
23857SOL    HW177663   8.554   7.382   4.763 -0.0192  1.6260  3.1442
23857SOL    HW277664   8.420   7.452   4.759 -1.2327 -0.5770 -0.9927
23858SOL     OW77665   2.406   3.677   7.807 -0.2090 -0.3066 -0.1096
23858SOL    HW177666   2.495   3.699   7.835 -0.1896 -0.3151 -0.1643
23858SOL    HW277667   2.418   3.608   7.742 -0.3049 -0.9466  0.5373
23859SOL     OW77668   2.243  10.417   5.273 -0.1827 -0.2226  0.0598
23859SOL    HW177669   2.282  10.393   5.189 -0.0028 -1.0256  0.3722
23859SOL    HW277670   2.165  10.467   5.250  0.2758  0.2153 -0.5774
23860SOL     OW77671   6.708   3.909   1.946  0.0463  0.2194  0.5128
23860SOL    HW177672   6.736   3.948   2.028  0.0225 -0.2877  0.7603
23860SOL    HW277673   6.640   3.847   1.970 -0.0068  0.1124  0.1046
23861SOL     OW77674   8.303   9.798   0.260  0.0145  0.2813  0.4169
23861SOL    HW177675   8.247   9.813   0.336  0.3223  0.4514  0.6130
23861SOL    HW277676   8.379   9.751   0.295 -0.1643 -0.2564  0.0933
23862SOL     OW77677   4.428   8.498   2.644 -0.0879  0.3886 -0.3391
23862SOL    HW177678   4.410   8.529   2.555 -0.8148  4.4236  1.0041
23862SOL    HW277679   4.523   8.485   2.646 -0.0794  0.1110 -1.7285
23863SOL     OW77680   5.175   2.892   7.070  0.4480 -0.7868 -0.3246
23863SOL    HW177681   5.221   2.822   7.024  1.5682 -0.2610 -0.0297
23863SOL    HW277682   5.207   2.887   7.160  0.1745 -0.1940 -0.1891
23864SOL     OW77683   8.182   0.917   0.067  0.2104 -0.2968 -0.0993
23864SOL    HW177684   8.275   0.907   0.047  0.0109 -1.6070 -0.4654
23864SOL    HW277685   8.175   0.895   0.160  0.3414  0.3539  0.0672
23865SOL     OW77686   4.671   9.752   7.356 -0.4731 -0.3884  0.3182
23865SOL    HW177687   4.747   9.718   7.403 -0.1716  0.6065  0.5688
23865SOL    HW277688   4.606   9.768   7.423 -0.0515  1.0098  0.4165
23866SOL     OW77689   4.987   2.150   7.548 -0.5391 -0.2733  0.0822
23866SOL    HW177690   5.025   2.130   7.463  0.1772 -0.2386  0.3880
23866SOL    HW277691   4.985   2.246   7.552  2.1062 -0.1765  1.2279
23867SOL     OW77692   4.752   9.112   6.240 -0.2616 -0.6262  0.2949
23867SOL    HW177693   4.747   9.094   6.333  1.7136  1.2477  0.8260
23867SOL    HW277694   4.839   9.083   6.214 -0.9503 -1.5669 -1.1168
23868SOL     OW77695   3.374   3.197   1.936 -0.2196 -0.3975 -0.0029
23868SOL    HW177696   3.439   3.150   1.883 -0.1555  0.1451 -0.4159
23868SOL    HW277697   3.394   3.172   2.026  0.2675 -0.6001 -0.1612
23869SOL     OW77698   4.224   0.299   8.851  0.0770 -0.0641 -0.3909
23869SOL    HW177699   4.318   0.316   8.844 -0.0639  0.8083 -0.2523
23869SOL    HW277700   4.215   0.206   8.829  0.8564  0.0688 -1.3481
23870SOL     OW77701   4.281   6.984   5.224 -0.5325 -0.3697  0.3369
23870SOL    HW177702   4.344   6.912   5.226  0.7879  0.7502 -0.0160
23870SOL    HW277703   4.326   7.054   5.177 -2.2349  0.2941 -0.3907
23871SOL     OW77704   0.186   1.867   7.922 -0.4524  0.2444  0.1186
23871SOL    HW177705   0.134   1.917   7.860 -2.5079 -2.0069 -0.1229
23871SOL    HW277706   0.193   1.924   7.999 -0.4072  1.8985 -1.0601
23872SOL     OW77707   3.511   3.352   0.914  0.5470 -0.2193  0.2715
23872SOL    HW177708   3.571   3.410   0.961  0.5971  0.4245 -0.5558
23872SOL    HW277709   3.451   3.320   0.981 -1.8516  3.6645  0.3252
23873SOL     OW77710   6.198   7.965   3.126 -0.1959  0.2658  0.4949
23873SOL    HW177711   6.133   8.000   3.065 -0.2987 -0.3043  0.2705
23873SOL    HW277712   6.253   7.908   3.072 -0.0724  0.0303  0.8637
23874SOL     OW77713   4.190   6.621   5.492 -0.2057 -0.5235  0.6211
23874SOL    HW177714   4.236   6.704   5.500  1.0195 -0.4707 -4.1476
23874SOL    HW277715   4.258   6.554   5.497 -0.3347 -0.8140 -0.9108
23875SOL     OW77716   0.987   2.104   5.708  0.5403 -0.1299 -0.1050
23875SOL    HW177717   1.049   2.121   5.636 -0.0063 -0.4597 -0.6678
23875SOL    HW277718   0.903   2.134   5.674  0.4414  0.6928  0.8086
23876SOL     OW77719  10.857   9.254   6.237  0.2065 -0.6589 -0.7819
23876SOL    HW177720  10.847   9.302   6.155  1.5510  1.1541  0.0712
23876SOL    HW277721  10.948   9.225   6.237  0.2485 -0.5347  0.1387
23877SOL     OW77722   8.446   9.548   8.834 -0.7885 -0.3502 -0.2774
23877SOL    HW177723   8.467   9.567   8.925 -0.8671 -0.6405 -0.1999
23877SOL    HW277724   8.353   9.530   8.834 -0.8950  0.1632 -0.5005
23878SOL     OW77725   9.512   5.174   7.337  0.4062 -0.4203  0.7668
23878SOL    HW177726   9.451   5.158   7.409  0.5924  1.4982  1.4000
23878SOL    HW277727   9.483   5.257   7.299  0.5151 -1.2130 -1.1900
23879SOL     OW77728   4.542   2.451   1.194 -0.1583 -0.4302 -0.1682
23879SOL    HW177729   4.626   2.467   1.238 -0.3143 -0.0261 -0.0144
23879SOL    HW277730   4.489   2.527   1.215 -0.9756 -1.2268  0.7006
23880SOL     OW77731  10.588   1.878   5.933 -0.4431 -0.9783  0.4663
23880SOL    HW177732  10.633   1.793   5.938  0.6433 -0.4191  0.4304
23880SOL    HW277733  10.495   1.855   5.928 -0.0898 -2.3252 -2.7888
23881SOL     OW77734   2.372   4.331   7.233  0.3219  0.2410 -0.6806
23881SOL    HW177735   2.448   4.287   7.271  0.3909  0.3977 -0.6359
23881SOL    HW277736   2.303   4.264   7.233  0.5978 -0.0397 -1.1662
23882SOL     OW77737   0.033   8.141   8.139 -0.1761  0.2052 -0.7859
23882SOL    HW177738   0.085   8.083   8.195  0.6935  0.0187 -1.7432
23882SOL    HW277739   0.052   8.229   8.170  0.7025  0.1359 -1.0861
23883SOL     OW77740  10.248   8.158   6.029  0.3346 -0.0126  0.5121
23883SOL    HW177741  10.329   8.190   6.071 -0.2382  0.5917  1.1857
23883SOL    HW277742  10.188   8.144   6.102  0.5232 -2.5930  0.2356
23884SOL     OW77743   5.620  10.493   1.085  0.6461 -0.2988  0.6677
23884SOL    HW177744   5.710  10.467   1.065  0.5646 -1.5768  1.8250
23884SOL    HW277745   5.623  10.520   1.177  0.0647  0.7411  0.3893
23885SOL     OW77746   8.477   2.722   6.498 -0.0379 -0.1862 -0.0620
23885SOL    HW177747   8.387   2.703   6.472 -0.2627 -0.3596  0.7992
23885SOL    HW277748   8.520   2.637   6.502  1.0173  0.0679 -3.2987
23886SOL     OW77749   0.575   9.464   1.548  0.2012  0.2466  0.1750
23886SOL    HW177750   0.638   9.472   1.620  1.1486  1.0931 -0.7023
23886SOL    HW277751   0.498   9.424   1.587  0.4822  1.2008  1.7865
23887SOL     OW77752  10.215   3.378   9.882  0.2895  0.3077  0.5100
23887SOL    HW177753  10.282   3.335   9.935  1.6450  1.7312  0.0329
23887SOL    HW277754  10.252   3.464   9.862 -1.3084  0.7940 -0.5387
23888SOL     OW77755   6.093   8.855   5.418 -0.4366 -0.1414 -0.6430
23888SOL    HW177756   6.147   8.867   5.495  0.1010 -1.4236 -0.8019
23888SOL    HW277757   6.107   8.934   5.366 -0.1138  0.3263  0.1393
23889SOL     OW77758   0.055   0.775   7.469 -0.6905  0.2521  0.0450
23889SOL    HW177759   0.071   0.695   7.419  1.7617  0.3133  0.6087
23889SOL    HW277760   0.059   0.845   7.404  0.0262  0.1409 -0.0323
23890SOL     OW77761   3.738  10.723   1.459  0.1704  0.3444  0.3775
23890SOL    HW177762   3.668  10.658   1.457  0.6685 -0.1842 -0.7354
23890SOL    HW277763   3.815  10.675   1.490  0.1407  0.8447  1.2765
23891SOL     OW77764   7.222   8.396   2.893 -0.0535  0.5562  0.1345
23891SOL    HW177765   7.233   8.474   2.947  1.0705 -0.1924  1.0270
23891SOL    HW277766   7.275   8.328   2.936 -2.2563 -1.1800  0.3178
23892SOL     OW77767   1.737   2.847   4.054  0.0959 -0.2183 -0.6761
23892SOL    HW177768   1.653   2.892   4.065 -0.2963 -1.2005  0.6718
23892SOL    HW277769   1.714   2.759   4.025  0.4203 -1.2698  1.9411
23893SOL     OW77770   3.640  10.630   5.322  0.1264 -0.2556 -0.0958
23893SOL    HW177771   3.703  10.570   5.362 -0.5523  0.4033  2.0447
23893SOL    HW277772   3.694  10.694   5.275  0.9215 -1.2541 -0.5749
23894SOL     OW77773  10.629   0.508   6.250  0.3751  0.2204 -0.3125
23894SOL    HW177774  10.541   0.484   6.223  0.3081 -0.9720  0.8798
23894SOL    HW277775  10.686   0.452   6.198  0.3243 -0.5849  0.4737
23895SOL     OW77776   9.134  10.777   6.640 -0.1207 -0.3044  0.4241
23895SOL    HW177777   9.221  10.738   6.640 -1.0063 -2.5580 -1.7155
23895SOL    HW277778   9.134  10.836   6.565 -0.2754  0.0880  0.7291
23896SOL     OW77779   0.040   4.042   6.551  0.0850  0.8954  0.1342
23896SOL    HW177780   0.108   4.108   6.542  0.3842  0.6357  0.4474
23896SOL    HW277781   0.088   3.959   6.550 -0.2581  0.6975  0.0498
23897SOL     OW77782   2.488  10.336   1.378 -0.1325 -0.5018 -0.1299
23897SOL    HW177783   2.495  10.356   1.471  1.2639  0.9330 -0.5057
23897SOL    HW277784   2.436  10.407   1.342  2.0790  0.8024 -0.9375
23898SOL     OW77785   9.813   3.446  10.141 -0.3378 -0.1653  0.3532
23898SOL    HW177786   9.864   3.369  10.168 -1.1363 -1.5783 -1.8519
23898SOL    HW277787   9.779   3.422  10.054 -1.2088  2.4276 -0.0894
23899SOL     OW77788   3.135  10.414   8.353 -0.4594  0.2150  0.5533
23899SOL    HW177789   3.150  10.327   8.390 -2.1061 -0.3724 -0.0343
23899SOL    HW277790   3.064  10.451   8.407 -1.8877 -0.0783 -1.0469
23900SOL     OW77791   1.016   4.091   4.143 -0.0525 -0.2025  0.6107
23900SOL    HW177792   0.952   4.025   4.170 -0.5377 -0.1390 -0.3449
23900SOL    HW277793   0.988   4.171   4.188 -1.6305  0.2270 -1.0299
23901SOL     OW77794   0.347   7.624   4.241 -0.3991 -0.7441 -0.8754
23901SOL    HW177795   0.392   7.599   4.161 -1.4078 -0.7555 -1.4593
23901SOL    HW277796   0.328   7.542   4.285 -0.7589 -0.8121 -1.1480
23902SOL     OW77797   6.940   3.568   5.168 -0.5247  0.1392 -0.3448
23902SOL    HW177798   7.032   3.542   5.165 -0.9839 -1.6593 -0.2836
23902SOL    HW277799   6.934   3.627   5.243  0.3519 -0.8225  0.5277
23903SOL     OW77800  10.305   2.089   4.091 -0.5207 -0.0838  0.1864
23903SOL    HW177801  10.278   2.039   4.014 -2.2933  1.5113 -0.2891
23903SOL    HW277802  10.223   2.113   4.135  0.3982  0.1765  1.8489
23904SOL     OW77803  10.559  10.512   3.328  0.1001  0.2918  0.0220
23904SOL    HW177804  10.557  10.607   3.342  0.3883  0.1021  1.4754
23904SOL    HW277805  10.537  10.475   3.413  2.0000 -0.9574  0.0406
23905SOL     OW77806   1.987  10.886  10.091  0.1258  0.2779 -0.4602
23905SOL    HW177807   1.939  10.815  10.048 -1.3824  1.3185 -0.6006
23905SOL    HW277808   2.077  10.854  10.098 -0.3290 -1.2885 -1.2810
23906SOL     OW77809   4.625   0.872   0.596 -0.2588 -0.2172 -0.3562
23906SOL    HW177810   4.531   0.866   0.580  0.0298 -0.6367 -2.1123
23906SOL    HW277811   4.656   0.782   0.588  0.4453  0.0684 -0.9516
23907SOL     OW77812   4.350   0.108   0.202  0.1994 -0.1470 -0.3608
23907SOL    HW177813   4.350   0.135   0.110 -0.2150 -1.0367 -0.6363
23907SOL    HW277814   4.303   0.025   0.203 -1.3123  0.6668  0.9079
23908SOL     OW77815   3.528   9.649   4.225  0.1010  0.0408 -0.0268
23908SOL    HW177816   3.530   9.625   4.318 -1.3365 -0.5691 -0.1365
23908SOL    HW277817   3.485   9.735   4.223 -0.5026 -0.2620 -0.1815
23909SOL     OW77818   4.222   5.802   2.442 -0.1483 -1.1500  0.1664
23909SOL    HW177819   4.145   5.837   2.398 -0.0067 -1.4696 -0.3447
23909SOL    HW277820   4.248   5.726   2.389 -0.0047 -1.5724  0.8225
23910SOL     OW77821   8.860   7.351   7.066 -0.4743  0.1177  0.3527
23910SOL    HW177822   8.878   7.259   7.047 -0.9442 -0.5045  2.5627
23910SOL    HW277823   8.942   7.386   7.100  0.1494  1.0026 -1.8930
23911SOL     OW77824   5.741   4.404   2.791  0.0415  0.1544 -0.0577
23911SOL    HW177825   5.813   4.354   2.752 -0.3130 -2.3505  2.1813
23911SOL    HW277826   5.669   4.395   2.729  0.4660 -0.8371 -0.4303
23912SOL     OW77827   0.231   2.781   1.941 -0.9460  0.2458 -0.4012
23912SOL    HW177828   0.295   2.832   1.991 -1.6474  1.3319 -0.5608
23912SOL    HW277829   0.226   2.697   1.986  1.3039 -0.2497 -0.9544
23913SOL     OW77830   2.026   1.012   4.033  0.0414 -0.7596 -0.0925
23913SOL    HW177831   2.092   1.044   3.973  1.1630 -1.8405  0.5182
23913SOL    HW277832   2.075   0.988   4.112 -1.0316 -1.8121  0.2858
23914SOL     OW77833   7.171   8.680   1.904  0.6831  0.0625 -0.1384
23914SOL    HW177834   7.188   8.717   1.818  2.0221 -0.2945 -0.0450
23914SOL    HW277835   7.152   8.588   1.888 -1.8245  0.5280 -0.2862
23915SOL     OW77836   2.327   5.941  10.765  0.4903 -0.0052  0.3327
23915SOL    HW177837   2.418   5.943  10.796  0.2364  1.6539  1.0978
23915SOL    HW277838   2.275   5.923  10.844 -0.1076  3.4493  0.8634
23916SOL     OW77839   1.533   0.170   2.074  0.1316  0.3013 -0.5221
23916SOL    HW177840   1.556   0.242   2.015  2.9386 -0.8554 -0.9785
23916SOL    HW277841   1.555   0.203   2.162 -2.0464  1.2403 -0.2570
23917SOL     OW77842  10.900   2.967   2.610 -0.0351  0.7413 -0.5826
23917SOL    HW177843  10.905   2.881   2.650 -1.3478  1.5731  1.5020
23917SOL    HW277844  10.862   2.952   2.523  0.2971 -0.8023 -0.4777
23918SOL     OW77845  10.752   9.796   5.386  0.0953  0.1961  0.2582
23918SOL    HW177846  10.813   9.870   5.379  0.3739 -0.1357 -1.0248
23918SOL    HW277847  10.734   9.770   5.296 -0.6483 -0.7796  0.6640
23919SOL     OW77848   6.535   5.468   3.855 -0.9810 -0.4347 -0.1440
23919SOL    HW177849   6.518   5.431   3.768 -2.4235 -1.8944  0.7094
23919SOL    HW277850   6.614   5.521   3.843 -0.6876 -1.2274 -2.1613
23920SOL     OW77851   9.938   2.741   7.264  0.2747 -0.0806  0.1063
23920SOL    HW177852   9.923   2.647   7.251 -0.6621 -0.1897  1.7757
23920SOL    HW277853   9.916   2.781   7.180 -0.1955 -1.2560 -0.3436
23921SOL     OW77854   7.670   6.323   7.794  0.0913 -0.3895  0.0791
23921SOL    HW177855   7.596   6.265   7.781  1.6956 -2.4521 -0.3197
23921SOL    HW277856   7.643   6.406   7.755 -1.3842 -1.5623 -1.5226
23922SOL     OW77857   5.373   6.002   9.688 -0.3392  0.2387 -0.5195
23922SOL    HW177858   5.443   5.960   9.637 -0.6884 -0.3817 -0.4956
23922SOL    HW277859   5.389   6.096   9.677 -0.1477  0.1127 -1.4145
23923SOL     OW77860   4.251   2.066   1.037 -0.5617  0.1832 -0.3143
23923SOL    HW177861   4.312   2.140   1.046 -1.1824  0.8352 -1.3287
23923SOL    HW277862   4.246   2.050   0.943 -2.4381  0.5460 -0.3041
23924SOL     OW77863   0.364   6.924   6.104  0.1056  0.2765 -0.1478
23924SOL    HW177864   0.416   7.004   6.115  0.3784  0.6288 -3.0589
23924SOL    HW277865   0.364   6.910   6.009 -0.9981 -2.5030  0.1957
23925SOL     OW77866   1.297   3.648  10.269 -0.0604  0.0620 -0.5073
23925SOL    HW177867   1.250   3.564  10.272  0.0056  0.0465  0.7800
23925SOL    HW277868   1.373   3.634  10.326  1.0804  0.3605 -1.8893
23926SOL     OW77869   8.884   5.265   5.349 -0.3724 -0.0940 -0.6296
23926SOL    HW177870   8.795   5.267   5.383 -0.3694  1.3403 -0.6609
23926SOL    HW277871   8.905   5.356   5.329  1.4447 -0.2811  0.2390
23927SOL     OW77872   0.348   9.616   8.015  0.0252 -0.5517 -1.0663
23927SOL    HW177873   0.384   9.664   7.941 -0.7638 -0.9272 -1.7041
23927SOL    HW277874   0.281   9.558   7.977 -1.0250 -0.1059  0.0326
23928SOL     OW77875   7.759   8.565   9.406 -0.5010 -0.2702 -0.2420
23928SOL    HW177876   7.693   8.544   9.339 -0.4316 -1.8313  0.1341
23928SOL    HW277877   7.829   8.502   9.390  1.2202  1.7529 -1.0251
23929SOL     OW77878   7.563   3.354   4.660 -0.2945  0.2880 -0.3787
23929SOL    HW177879   7.527   3.334   4.573  0.8141 -0.8800 -0.5858
23929SOL    HW277880   7.644   3.304   4.665 -0.7369 -0.3095  1.6543
23930SOL     OW77881   3.494   0.068   4.678 -0.0711 -0.7525 -0.2762
23930SOL    HW177882   3.471   0.128   4.608  2.2750 -0.8585 -1.2168
23930SOL    HW277883   3.572   0.107   4.719 -0.2457 -1.6801  1.0163
23931SOL     OW77884   6.497   4.324   7.743 -0.1070  0.3483  0.0210
23931SOL    HW177885   6.418   4.305   7.693  0.4671 -2.0069 -0.1117
23931SOL    HW277886   6.519   4.415   7.721 -2.2707  0.7711 -0.5777
23932SOL     OW77887   8.164   1.904   5.464  0.3820  0.1384 -0.2214
23932SOL    HW177888   8.138   1.921   5.374 -0.4524  0.6557  0.0943
23932SOL    HW277889   8.136   1.983   5.512 -0.2662 -0.6087  0.6756
23933SOL     OW77890   4.839   5.896   8.040  0.2795  0.0532 -0.1661
23933SOL    HW177891   4.777   5.838   8.084 -0.2057  0.9351  0.3355
23933SOL    HW277892   4.925   5.861   8.064 -0.0066 -0.6635 -0.1545
23934SOL     OW77893   6.800   5.586   0.526 -0.9158 -0.0957  0.1748
23934SOL    HW177894   6.741   5.517   0.555 -0.1325 -1.2464 -0.8557
23934SOL    HW277895   6.886   5.560   0.560 -0.2609 -0.6835 -1.7678
23935SOL     OW77896   8.368   1.814  10.006 -0.2548 -0.1673  0.8325
23935SOL    HW177897   8.421   1.892  10.022  2.3070 -1.6870  0.4378
23935SOL    HW277898   8.375   1.763  10.087 -1.0590 -0.4398  0.7374
23936SOL     OW77899   3.459   1.404  10.099 -0.2403 -0.2738  0.5987
23936SOL    HW177900   3.517   1.384  10.026 -0.0030  2.6304 -0.0908
23936SOL    HW277901   3.383   1.446  10.059 -0.9655 -0.3219  1.8617
23937SOL     OW77902   6.478   7.798   7.544 -0.4461 -0.2861 -0.1512
23937SOL    HW177903   6.439   7.716   7.516 -1.2553 -0.5152  1.4951
23937SOL    HW277904   6.514   7.780   7.631 -1.0676  1.1789  0.4644
23938SOL     OW77905  10.911   1.208   0.289 -0.2745  0.4587  0.4299
23938SOL    HW177906  10.945   1.131   0.333  0.8045  0.6704 -0.0011
23938SOL    HW277907  10.975   1.227   0.221 -1.9339  0.0671 -1.3413
23939SOL     OW77908   6.849   5.732   4.459  0.0920 -0.4304  0.1489
23939SOL    HW177909   6.885   5.745   4.371 -0.4477  2.0992  0.2046
23939SOL    HW277910   6.926   5.724   4.515  0.4425 -1.8111 -0.4834
23940SOL     OW77911   9.925   9.060   1.146  0.1729  0.1841 -0.5472
23940SOL    HW177912   9.877   8.978   1.157 -0.9124  0.9829  1.2179
23940SOL    HW277913   9.857   9.126   1.132  0.9750  0.8887 -1.2446
23941SOL     OW77914   3.730   0.504   8.277 -0.2200  0.7000 -0.2167
23941SOL    HW177915   3.765   0.567   8.340  1.2219 -0.7144  0.4481
23941SOL    HW277916   3.670   0.450   8.328  0.1349  0.2238 -0.3024
23942SOL     OW77917   3.211   8.995   3.729  0.1731  0.2528  0.0287
23942SOL    HW177918   3.205   8.908   3.689  2.3073 -0.8609  1.8869
23942SOL    HW277919   3.304   9.015   3.730 -0.1724  2.0587  0.6839
23943SOL     OW77920   5.605   6.581   7.208  0.1101  0.4543 -0.1433
23943SOL    HW177921   5.586   6.592   7.114 -0.8757  0.4309  0.0484
23943SOL    HW277922   5.531   6.532   7.242  0.6958  0.0447  0.5662
23944SOL     OW77923   1.971   0.535   5.829 -0.4527 -0.6228  0.2319
23944SOL    HW177924   1.972   0.441   5.809 -1.0012 -0.6509  0.3119
23944SOL    HW277925   2.051   0.569   5.791 -0.0521 -1.1974  0.5415
23945SOL     OW77926   4.771   0.521   3.592  0.4846 -0.1399 -0.8732
23945SOL    HW177927   4.730   0.539   3.676  1.8890  0.9464 -0.3732
23945SOL    HW277928   4.827   0.445   3.608  0.3460 -0.2611 -0.9643
23946SOL     OW77929  10.713   9.363   3.193 -0.1031  0.3249  0.0062
23946SOL    HW177930  10.794   9.335   3.236  0.3012  1.4411  0.0178
23946SOL    HW277931  10.643   9.333   3.250  0.3815  0.7781  0.8622
23947SOL     OW77932   0.968   8.452   6.862  0.1650 -0.3433  0.1344
23947SOL    HW177933   0.873   8.451   6.873  0.2701 -0.4257  1.1809
23947SOL    HW277934   0.999   8.513   6.929  0.9420 -1.3571  0.7443
23948SOL     OW77935   0.757   3.581   1.287  0.7428 -0.3238 -0.4872
23948SOL    HW177936   0.729   3.667   1.255  2.2551 -0.0437 -1.1166
23948SOL    HW277937   0.678   3.527   1.281 -0.7583  1.4398  1.6788
23949SOL     OW77938   9.516   1.492   0.978 -0.2778  0.0404  0.4659
23949SOL    HW177939   9.580   1.423   0.995 -0.5569  0.0890  1.8508
23949SOL    HW277940   9.558   1.547   0.911  1.8420  0.9191  2.3752
23950SOL     OW77941   2.471   7.986   1.695  0.4094 -0.5739  0.3801
23950SOL    HW177942   2.546   7.993   1.636 -0.2037  0.2772 -0.3143
23950SOL    HW277943   2.395   7.997   1.639 -0.3173 -2.6385  0.8851
23951SOL     OW77944   3.115  10.260   2.669  0.1798 -0.6484 -0.4645
23951SOL    HW177945   3.159  10.334   2.628  0.1749  0.1733  0.9230
23951SOL    HW277946   3.182  10.220   2.724 -0.0054 -1.2601 -0.6776
23952SOL     OW77947   9.698   1.557   7.619 -0.4002  0.1576 -0.6030
23952SOL    HW177948   9.732   1.565   7.530 -0.8045  1.4618 -0.6667
23952SOL    HW277949   9.603   1.558   7.608 -0.4609  1.1288 -0.1219
23953SOL     OW77950  10.831   2.801   7.816 -0.1068 -0.2059  0.1905
23953SOL    HW177951  10.907   2.756   7.780  1.8445  2.9160  0.0814
23953SOL    HW277952  10.796   2.853   7.743 -0.3059  0.9102  1.0471
23954SOL     OW77953   2.525   1.597   3.206  0.4754  0.2058 -0.5547
23954SOL    HW177954   2.506   1.510   3.241 -0.2825  0.0194 -1.4001
23954SOL    HW277955   2.599   1.583   3.147 -0.3318 -0.0706 -1.5182
23955SOL     OW77956   9.837   3.866   0.817  0.3608 -0.4620  0.2858
23955SOL    HW177957   9.751   3.907   0.809 -0.0366 -0.8268  2.1814
23955SOL    HW277958   9.872   3.866   0.728  0.0471  3.2158  0.0213
23956SOL     OW77959   5.715   8.789   3.770 -0.1228 -0.3441 -0.4330
23956SOL    HW177960   5.644   8.784   3.833  1.5293 -1.9647  1.4699
23956SOL    HW277961   5.698   8.869   3.720 -3.0221 -0.4874  0.1481
23957SOL     OW77962   6.421   8.105   1.354 -0.1557  0.2291  0.2352
23957SOL    HW177963   6.391   8.188   1.391  2.5097  0.7132  1.5401
23957SOL    HW277964   6.494   8.129   1.297  0.6969 -1.1969  0.6733
23958SOL     OW77965   8.258   6.744   6.509 -0.2019 -0.1763 -0.0350
23958SOL    HW177966   8.272   6.773   6.599 -2.9522  2.3398 -0.2440
23958SOL    HW277967   8.231   6.823   6.462 -1.5230 -1.8979 -2.4219
23959SOL     OW77968   2.961   7.624   1.943  0.3611  0.2026 -0.6489
23959SOL    HW177969   2.911   7.558   1.992 -1.1978  1.1933 -0.8322
23959SOL    HW277970   3.024   7.658   2.006  0.6854 -0.9288 -0.3432
23960SOL     OW77971   9.080   0.876   6.930  0.3863  0.0172 -0.0108
23960SOL    HW177972   9.154   0.851   6.984  0.1662  0.4468  0.4947
23960SOL    HW277973   9.035   0.944   6.980  0.2370  0.4964 -0.7788
23961SOL     OW77974   4.821   9.556   5.176  0.0004 -0.1476  0.5274
23961SOL    HW177975   4.768   9.510   5.111 -0.7993  1.1263  0.2286
23961SOL    HW277976   4.821   9.648   5.146  0.7875  0.2189  1.5749
23962SOL     OW77977   4.772   5.792   3.969  0.4790  0.3376  0.1935
23962SOL    HW177978   4.857   5.835   3.978 -0.6928  2.8070  0.2953
23962SOL    HW277979   4.712   5.844   4.022 -1.1493 -1.2897  0.0831
23963SOL     OW77980   9.996   0.593   5.627 -0.0053  1.0824 -0.8626
23963SOL    HW177981  10.007   0.537   5.550  1.8407  1.5443 -0.9926
23963SOL    HW277982  10.030   0.678   5.599 -1.1504  1.8081 -0.1249
23964SOL     OW77983   1.213   2.323   6.354  0.1866 -0.4403 -0.4681
23964SOL    HW177984   1.145   2.331   6.288  0.7824  1.8942 -0.8762
23964SOL    HW277985   1.187   2.383   6.424  2.4547  1.7114 -1.2949
23965SOL     OW77986   0.710   6.754   9.917  0.0509 -0.3263  0.5779
23965SOL    HW177987   0.622   6.734   9.951  0.8786 -2.5381  1.6294
23965SOL    HW277988   0.694   6.786   9.829 -1.9094  1.0593  1.3554
23966SOL     OW77989   1.437   0.525   8.563 -0.0080 -0.3699 -0.0942
23966SOL    HW177990   1.388   0.597   8.524  0.8550 -0.5012 -1.4919
23966SOL    HW277991   1.517   0.565   8.596 -0.8766 -0.2011  1.9407
23967SOL     OW77992   4.869   2.946   7.191  0.2703  0.5518  0.1707
23967SOL    HW177993   4.843   3.012   7.128 -1.5069 -1.0994 -0.9582
23967SOL    HW277994   4.950   2.909   7.157 -1.4720 -1.4340 -2.2028
23968SOL     OW77995   5.802   6.779   2.719  0.3534  0.1204  0.3397
23968SOL    HW177996   5.892   6.746   2.722 -0.2397 -1.9042 -1.4698
23968SOL    HW277997   5.748   6.700   2.717 -1.4218  1.2987  0.3835
23969SOL     OW77998   7.091   1.366   6.651 -0.6088 -0.0723 -0.0253
23969SOL    HW177999   7.070   1.458   6.634  1.1238  0.4303  0.3253
23969SOL    HW278000   7.091   1.359   6.746  1.7929  0.2586  0.0537
23970SOL     OW78001   2.584   0.695   6.008  0.6245 -0.3604 -0.4707
23970SOL    HW178002   2.651   0.627   6.004 -0.3394 -1.3748  0.1640
23970SOL    HW278003   2.526   0.675   5.934  0.6029  0.0779 -0.5769
23971SOL     OW78004   7.427   8.656   3.722  0.5332  0.3197 -0.0858
23971SOL    HW178005   7.454   8.667   3.813 -1.0926  1.3051  0.3037
23971SOL    HW278006   7.406   8.744   3.692 -0.5261 -0.1830 -0.8944
23972SOL     OW78007   4.148   8.270   6.030 -0.1633 -0.3507 -0.3080
23972SOL    HW178008   4.133   8.290   5.937  0.4268  0.5232 -0.2280
23972SOL    HW278009   4.193   8.186   6.029 -0.0629 -0.2935 -0.8242
23973SOL     OW78010   9.213  10.653   2.398  0.1494 -0.0835 -0.1559
23973SOL    HW178011   9.154  10.638   2.472 -0.0524 -0.4172 -0.3807
23973SOL    HW278012   9.180  10.595   2.329 -1.4446  2.2883 -1.5423
23974SOL     OW78013   1.560   8.498   9.372 -0.1115 -0.8208 -0.0826
23974SOL    HW178014   1.616   8.434   9.329  0.9276 -0.5281  0.8003
23974SOL    HW278015   1.619   8.568   9.400 -1.0369 -0.0843  0.1017
23975SOL     OW78016   8.323  10.923   8.087 -0.1669 -0.0963  0.2636
23975SOL    HW178017   8.278  10.838   8.082 -1.3647  0.4541  1.2382
23975SOL    HW278018   8.385  10.922   8.014 -1.1148 -1.2549 -0.5504
23976SOL     OW78019   5.920   4.187   7.418 -0.1029  0.2265 -0.0568
23976SOL    HW178020   5.873   4.270   7.424 -0.1157  0.4076 -1.8811
23976SOL    HW278021   5.993   4.195   7.479 -0.8239  1.0720  0.7134
23977SOL     OW78022   5.040   8.111   7.115  0.4769  0.3945 -0.7038
23977SOL    HW178023   5.032   8.109   7.019  0.1498  1.1407 -0.6932
23977SOL    HW278024   5.093   8.033   7.135 -0.9737 -0.7995 -1.3381
23978SOL     OW78025   7.710   6.816   7.003  0.2016  0.2356  0.6537
23978SOL    HW178026   7.654   6.881   6.960 -0.7401 -0.2740  1.0898
23978SOL    HW278027   7.684   6.820   7.095 -0.0713 -0.9585  0.6416
23979SOL     OW78028   1.514   6.075  10.072  0.5358  0.7864  0.2928
23979SOL    HW178029   1.528   6.167  10.097 -0.2263  1.0321 -0.1530
23979SOL    HW278030   1.429   6.075  10.028  0.5348 -0.1367  0.2791
23980SOL     OW78031   5.093   0.649   0.059  0.1073  0.0674  0.2282
23980SOL    HW178032   5.187   0.629   0.064  0.5971  2.2294  1.1469
23980SOL    HW278033   5.076   0.660  -0.035  0.9207  0.2419  0.0894
23981SOL     OW78034   8.820  10.028   0.512 -0.3253  0.2579 -0.1724
23981SOL    HW178035   8.726  10.046   0.510 -0.0520  1.8112 -0.1783
23981SOL    HW278036   8.826   9.932   0.509 -1.9194  0.0978  0.6967
23982SOL     OW78037   9.006   7.792   7.914  0.2884  0.3101 -0.0102
23982SOL    HW178038   9.000   7.887   7.901  1.1820  0.3205 -0.4363
23982SOL    HW278039   9.095   7.770   7.886  1.1481 -0.2288  2.8257
23983SOL     OW78040   4.603   2.807   5.687 -0.7784  0.5768 -0.0375
23983SOL    HW178041   4.529   2.866   5.678 -0.7162  0.6440 -0.1077
23983SOL    HW278042   4.670   2.858   5.731 -0.7570  0.5309 -0.0165
23984SOL     OW78043  10.238   4.746  10.858 -0.2160  0.2809  0.4770
23984SOL    HW178044  10.237   4.841  10.855  0.4135  0.2726 -1.6664
23984SOL    HW278045  10.178   4.724  10.930 -1.0427  2.2590  0.4674
23985SOL     OW78046   4.005   1.175   4.220 -0.0370 -0.0764 -0.3857
23985SOL    HW178047   4.067   1.245   4.242  0.2038  0.0850 -1.5375
23985SOL    HW278048   4.048   1.095   4.250 -0.5822  0.2815  1.5170
23986SOL     OW78049   2.589   8.832   2.624  0.5390  0.2558 -0.5478
23986SOL    HW178050   2.522   8.853   2.559  0.5856  0.1236 -0.6378
23986SOL    HW278051   2.625   8.917   2.649 -0.4945  0.4479  0.3885
23987SOL     OW78052   4.792   2.498   9.770 -0.0292 -0.3804  0.0190
23987SOL    HW178053   4.750   2.513   9.855 -0.3410 -0.6098 -0.0915
23987SOL    HW278054   4.752   2.563   9.712 -0.3603 -0.7071 -0.1259
23988SOL     OW78055  10.795   1.406   2.771 -0.1940 -0.2257  0.2213
23988SOL    HW178056  10.730   1.475   2.759  0.4525  0.6215  1.4334
23988SOL    HW278057  10.827   1.388   2.682 -1.3317  0.0538 -0.2639
23989SOL     OW78058   7.392   9.735   5.899  0.5832  0.3328 -0.0784
23989SOL    HW178059   7.470   9.764   5.853  0.3659  1.4840  0.2468
23989SOL    HW278060   7.335   9.812   5.899 -0.1076 -0.1727  0.6225
23990SOL     OW78061   5.729   6.924   4.887  0.2663  0.0487 -0.3850
23990SOL    HW178062   5.676   6.887   4.816  0.7400  1.5483 -1.5790
23990SOL    HW278063   5.725   7.019   4.872  1.2651  0.3254  0.9772
23991SOL     OW78064   8.955   3.149   4.531 -0.2372  0.3705  1.1940
23991SOL    HW178065   8.978   3.241   4.535 -0.6652  0.5095  0.5100
23991SOL    HW278066   8.985   3.113   4.615  0.1877  1.0634  1.3420
23992SOL     OW78067   8.756   9.486   3.259  0.0522  0.2359  0.5378
23992SOL    HW178068   8.744   9.547   3.187 -1.4462 -1.7048 -0.9958
23992SOL    HW278069   8.842   9.446   3.243  0.2560  0.6708  0.5388
23993SOL     OW78070   4.566   8.023   9.032  0.6774 -0.6076 -0.2931
23993SOL    HW178071   4.641   8.058   9.079  0.4105 -0.8514  0.3192
23993SOL    HW278072   4.540   7.945   9.082  0.7698 -1.2289 -1.1753
23994SOL     OW78073   9.053   6.563  10.876 -0.4245  0.5073 -0.3499
23994SOL    HW178074   9.140   6.588  10.908 -1.4649  2.3337  1.2128
23994SOL    HW278075   9.068   6.480  10.829  1.8633 -0.1452  1.3550
23995SOL     OW78076   0.361   8.584   0.221 -0.3064  0.1732 -0.2382
23995SOL    HW178077   0.371   8.561   0.313 -0.9336 -0.6947 -0.3821
23995SOL    HW278078   0.421   8.525   0.175 -0.3087  0.3207 -0.4347
23996SOL     OW78079   1.992   0.429   1.108 -0.5373 -0.0223 -0.5173
23996SOL    HW178080   1.902   0.433   1.141  0.3806 -1.3485  2.4718
23996SOL    HW278081   2.003   0.339   1.078 -0.4069  0.3237 -1.5222
23997SOL     OW78082   0.584   3.343   0.321 -0.7968 -0.7811  0.0036
23997SOL    HW178083   0.519   3.356   0.252 -1.0286  0.1162  0.3812
23997SOL    HW278084   0.612   3.431   0.346 -0.1003 -1.1231  0.4780
23998SOL     OW78085   7.100   5.719   2.441 -0.0261 -0.5756  0.3747
23998SOL    HW178086   7.014   5.678   2.442 -0.9386  1.1600 -1.3908
23998SOL    HW278087   7.141   5.686   2.361  1.0188 -1.4269  1.2274
23999SOL     OW78088   4.774   9.817   5.081  0.5386 -0.3077  0.0315
23999SOL    HW178089   4.681   9.831   5.101  0.8793 -0.1779  1.6596
23999SOL    HW278090   4.792   9.876   5.007  0.2222  2.7041  2.1832
24000SOL     OW78091   2.256   3.864   4.051  0.0953  0.0882 -0.3771
24000SOL    HW178092   2.222   3.898   4.133 -0.3747 -1.6357  0.1868
24000SOL    HW278093   2.351   3.877   4.057 -0.0120  0.6794  0.0926
24001SOL     OW78094   3.826   0.403  10.227  0.2502 -0.0681  0.0042
24001SOL    HW178095   3.732   0.407  10.243  0.0742  0.1687 -1.0125
24001SOL    HW278096   3.834   0.395  10.132  1.2758  1.5959 -0.0901
24002SOL     OW78097   6.853   1.025   6.786 -0.1091  1.0364 -0.4550
24002SOL    HW178098   6.829   1.110   6.824 -0.8166  0.7128 -0.1488
24002SOL    HW278099   6.880   0.972   6.861  0.5110  1.0416 -0.6691
24003SOL     OW78100  10.284   7.300   8.812  0.4629  0.4129 -0.2384
24003SOL    HW178101  10.234   7.218   8.820  1.4276 -0.4045 -1.9480
24003SOL    HW278102  10.254   7.338   8.729  0.7873  1.2669  0.0277
24004SOL     OW78103   9.723   1.996   8.786  0.3197  0.0840 -0.4137
24004SOL    HW178104   9.760   2.072   8.832 -0.4412 -0.3387  0.9546
24004SOL    HW278105   9.629   2.006   8.797  0.2280 -1.9632  1.3873
24005SOL     OW78106   6.120   9.764  10.513  0.4102 -0.9399  0.3369
24005SOL    HW178107   6.155   9.841  10.470 -0.8009 -0.7848 -0.3979
24005SOL    HW278108   6.189   9.738  10.575  0.8501  0.6774  0.5650
24006SOL     OW78109   2.177  10.567   2.590 -0.4753 -0.6839 -0.1995
24006SOL    HW178110   2.112  10.504   2.558 -1.0429 -0.1926 -0.0230
24006SOL    HW278111   2.218  10.524   2.664 -0.8407 -0.8577 -0.0972
24007SOL     OW78112   7.936   0.957   8.139  0.0408  0.8445  0.2606
24007SOL    HW178113   7.884   1.014   8.082  0.6210  0.9423 -0.1833
24007SOL    HW278114   7.953   1.010   8.217  0.8162  1.4058 -0.2671
24008SOL     OW78115   9.516   8.012   2.866  0.6716 -0.3903 -0.0493
24008SOL    HW178116   9.445   8.048   2.919 -0.3510  2.0973 -2.8072
24008SOL    HW278117   9.482   7.929   2.833 -0.2003 -0.1428  0.1964
24009SOL     OW78118   5.860   8.750   6.845 -0.6540  0.2146 -0.1589
24009SOL    HW178119   5.927   8.687   6.820  0.3563  1.1420  0.1264
24009SOL    HW278120   5.777   8.706   6.828 -0.0206 -0.1218 -2.7391
24010SOL     OW78121   6.846   1.674   3.826 -0.6270  0.3585  0.4289
24010SOL    HW178122   6.852   1.675   3.731 -0.6153  0.0658  0.4268
24010SOL    HW278123   6.927   1.716   3.855 -0.6064  0.4004  0.3111
24011SOL     OW78124   1.604   7.104  10.085  0.6027  0.0394 -0.1915
24011SOL    HW178125   1.633   7.193  10.063  0.0668  0.2829  0.0700
24011SOL    HW278126   1.519   7.116  10.127  0.2231 -0.6452 -0.7292
24012SOL     OW78127   3.312   8.794   3.089 -0.2464 -0.1683 -0.0585
24012SOL    HW178128   3.361   8.753   3.160 -1.1906  1.4197  1.6133
24012SOL    HW278129   3.259   8.724   3.052 -1.0594 -0.7153  2.0069
24013SOL     OW78130  10.614  10.587   6.368  0.1623  0.1924 -0.3145
24013SOL    HW178131  10.687  10.547   6.321 -0.5688 -1.2207 -0.3179
24013SOL    HW278132  10.601  10.531   6.445  0.4961  1.7070  0.8877
24014SOL     OW78133   0.248   8.833   0.933  0.0227  0.4978 -0.0556
24014SOL    HW178134   0.196   8.913   0.926 -0.7472  0.2020  1.6278
24014SOL    HW278135   0.241   8.792   0.847 -2.8334  0.3146  0.1816
24015SOL     OW78136   6.524   9.062   7.329 -0.2782 -0.4038  0.5148
24015SOL    HW178137   6.516   9.154   7.354  2.0336 -0.3940  1.5025
24015SOL    HW278138   6.477   9.056   7.246  0.4394  1.9572 -0.1627
24016SOL     OW78139   2.956   4.228   8.131  0.3330  0.1675 -0.0903
24016SOL    HW178140   3.041   4.184   8.128  0.9554  1.3386  0.0526
24016SOL    HW278141   2.920   4.205   8.217  1.6251  1.6722  0.9025
24017SOL     OW78142   3.131   2.888  10.023 -0.1838  0.1307 -0.0611
24017SOL    HW178143   3.164   2.882  10.112  0.1167 -0.6901 -0.2206
24017SOL    HW278144   3.209   2.877   9.967 -0.5680 -0.8563 -0.4275
24018SOL     OW78145  10.845   7.124   7.850  0.1229 -0.9963 -0.8264
24018SOL    HW178146  10.889   7.187   7.792  0.5626 -1.4352 -0.9766
24018SOL    HW278147  10.913   7.095   7.910 -0.4593 -0.1372  0.2760
24019SOL     OW78148   3.457   2.483   7.905  0.8349 -0.1102 -0.0939
24019SOL    HW178149   3.496   2.430   7.835  0.8568 -0.0586 -0.1207
24019SOL    HW278150   3.483   2.438   7.986 -1.1480 -1.5343 -0.1679
24020SOL     OW78151   3.860   5.453   0.937 -0.1997  0.3562 -0.0124
24020SOL    HW178152   3.899   5.395   0.871  0.8747  0.4605  0.5097
24020SOL    HW278153   3.767   5.456   0.914 -0.4339 -2.1386  0.3664
24021SOL     OW78154   2.819   0.958   5.445  0.1167  0.2967  0.3168
24021SOL    HW178155   2.803   1.012   5.368  0.9037  0.7695  0.4776
24021SOL    HW278156   2.762   0.995   5.513  1.5309  1.7214  0.7771
24022SOL     OW78157   1.760   1.011   9.591 -0.1050  0.1047  1.0464
24022SOL    HW178158   1.702   0.955   9.643 -0.1420 -0.6756  0.1916
24022SOL    HW278159   1.845   1.006   9.637 -0.4225  0.3532  1.6713
24023SOL     OW78160   0.567  10.418   3.915  0.0969 -0.1535 -0.1075
24023SOL    HW178161   0.637  10.403   3.978 -0.6272  2.7184  1.5802
24023SOL    HW278162   0.494  10.451   3.968 -2.1876 -1.9017 -1.9411
24024SOL     OW78163   2.244   7.448   7.038 -0.4957  0.1762 -0.3767
24024SOL    HW178164   2.312   7.393   6.998 -0.2876  0.3608 -0.2757
24024SOL    HW278165   2.289   7.528   7.063 -0.7311  0.2611 -0.2189
24025SOL     OW78166   6.576   1.698   5.394  0.2041 -0.0216  1.0707
24025SOL    HW178167   6.554   1.722   5.304  0.6438 -0.9912  0.6938
24025SOL    HW278168   6.671   1.687   5.393  0.4750  1.8180  2.1146
24026SOL     OW78169  10.914   7.712   4.497  0.1587  0.3392 -0.5062
24026SOL    HW178170  10.892   7.801   4.525  0.9126  1.3898 -3.0133
24026SOL    HW278171  10.832   7.677   4.463 -0.5840 -0.6810  2.0703
24027SOL     OW78172   1.824   3.407   6.470 -0.3167  0.1506  0.1383
24027SOL    HW178173   1.736   3.430   6.501  0.0061  1.6621  0.0048
24027SOL    HW278174   1.809   3.341   6.402 -1.1685 -1.5984  1.9088
24028SOL     OW78175   0.135   6.695   6.001  0.1027  0.2891 -0.0766
24028SOL    HW178176   0.176   6.676   6.085 -1.5919  0.1743  0.7699
24028SOL    HW278177   0.181   6.639   5.938  0.3624 -0.8005  1.0586
24029SOL     OW78178   2.485   7.317   5.337 -0.3661  0.8559 -0.5998
24029SOL    HW178179   2.410   7.336   5.392 -1.0212  0.6547 -1.3979
24029SOL    HW278180   2.494   7.222   5.340  1.3509  1.0151  1.3817
24030SOL     OW78181   0.864   6.963   7.139 -0.4049  0.1395  0.3677
24030SOL    HW178182   0.868   6.872   7.169 -0.6468 -0.4460 -1.2370
24030SOL    HW278183   0.773   6.989   7.151 -0.5477 -0.1632 -0.0253
24031SOL     OW78184   1.325   4.189   7.941 -0.0006  0.1070  0.0099
24031SOL    HW178185   1.336   4.281   7.963  0.5186 -0.0965  0.6290
24031SOL    HW278186   1.339   4.185   7.846 -0.8392  0.7766 -0.1580
24032SOL     OW78187   1.184   8.461  10.225 -0.3024  0.5043  0.2199
24032SOL    HW178188   1.170   8.555  10.235 -0.5146  0.6001 -0.9065
24032SOL    HW278189   1.118   8.421  10.281 -1.6169  1.0103 -0.9156
24033SOL     OW78190   0.873   5.728   8.361 -0.2829  0.0822 -0.3370
24033SOL    HW178191   0.785   5.725   8.398 -0.0053 -4.0094  0.5321
24033SOL    HW278192   0.903   5.637   8.364  3.4651  1.0666 -1.9135
24034SOL     OW78193   2.198  10.382   7.543 -0.3876 -0.0509 -0.1788
24034SOL    HW178194   2.204  10.298   7.588  0.7219  0.2382  0.2489
24034SOL    HW278195   2.257  10.374   7.468  0.6619  0.7094  0.5148
24035SOL     OW78196   4.655   2.185   3.332 -0.0784 -0.0155 -0.2803
24035SOL    HW178197   4.745   2.155   3.344  0.0728  0.6551  0.2922
24035SOL    HW278198   4.662   2.279   3.320 -0.8437  0.3764  1.8354
24036SOL     OW78199   3.070   5.080   9.860 -0.4710 -0.0358 -0.0138
24036SOL    HW178200   3.076   5.170   9.890  1.0543 -0.6711  1.7777
24036SOL    HW278201   3.060   5.087   9.765  1.8187  2.0133 -0.1979
24037SOL     OW78202   7.264   7.324   6.323  0.4137 -0.6679 -0.0404
24037SOL    HW178203   7.269   7.229   6.328 -1.9884 -0.8404  0.2351
24037SOL    HW278204   7.262   7.353   6.414 -0.8449 -0.5335 -0.0943
24038SOL     OW78205   1.989  10.275   7.120  0.5577 -0.3988  0.2799
24038SOL    HW178206   1.944  10.341   7.067  2.1527  0.3050 -0.2446
24038SOL    HW278207   2.014  10.322   7.200  0.7263 -0.6811  0.3942
24039SOL     OW78208   2.767   5.047   3.477  0.2793  0.6598 -0.3810
24039SOL    HW178209   2.695   4.994   3.442  0.9653 -0.6809  0.1319
24039SOL    HW278210   2.739   5.069   3.566 -0.0781  1.3189 -0.6510
24040SOL     OW78211   6.117   2.982   9.922  0.2181 -0.7844 -0.4102
24040SOL    HW178212   6.084   3.065   9.956  0.9009  0.5059 -2.6467
24040SOL    HW278213   6.209   2.981   9.945  0.0898 -1.2306  0.1151
24041SOL     OW78214   3.528   0.991   3.924 -0.3296 -0.1987  0.4805
24041SOL    HW178215   3.498   1.066   3.872 -1.4020 -0.1313  1.1693
24041SOL    HW278216   3.595   1.028   3.983  0.2919 -0.1130 -0.2650
24042SOL     OW78217   0.911   1.361   2.093  0.4073  0.1596 -0.1009
24042SOL    HW178218   0.846   1.301   2.129 -1.6572  1.3350 -1.6471
24042SOL    HW278219   0.943   1.317   2.014  0.6429  0.0784  0.0394
24043SOL     OW78220   7.951   9.730   2.399  0.0444 -0.1599  0.0905
24043SOL    HW178221   7.998   9.648   2.385  1.0223  0.3959  0.0558
24043SOL    HW278222   8.010   9.798   2.366 -0.3301  0.6436  1.0330
24044SOL     OW78223   4.749   8.699   5.379 -0.2026 -0.1942 -0.6622
24044SOL    HW178224   4.766   8.750   5.458 -1.8891 -5.4651  3.7426
24044SOL    HW278225   4.834   8.661   5.357 -0.1376 -0.7036  0.3775
24045SOL     OW78226   6.890   1.335   5.231  0.1672 -0.1301  0.1155
24045SOL    HW178227   6.985   1.349   5.228  0.4701 -2.0248 -0.7119
24045SOL    HW278228   6.867   1.346   5.324  1.2622 -0.0069  0.3887
24046SOL     OW78229   0.757   4.438   6.925 -0.1022 -0.1158  0.0813
24046SOL    HW178230   0.783   4.493   6.851 -1.7298 -1.8478 -1.9003
24046SOL    HW278231   0.669   4.409   6.903 -0.1463 -1.7135  2.1386
24047SOL     OW78232   1.000  10.199   5.316  0.1930  0.3528 -0.2716
24047SOL    HW178233   0.930  10.135   5.327 -1.3476  1.9782 -0.0956
24047SOL    HW278234   1.074  10.148   5.283 -1.1237 -1.4189 -0.6678
24048SOL     OW78235   2.831   1.390   1.559  0.3097  0.2290 -0.1774
24048SOL    HW178236   2.923   1.386   1.585  0.6807 -0.6647 -1.5334
24048SOL    HW278237   2.814   1.483   1.545  1.4560  0.2840 -1.3619
24049SOL     OW78238   3.780   5.659   4.674  0.1741  0.0966  0.5000
24049SOL    HW178239   3.754   5.634   4.586 -0.3344 -0.2305  0.7370
24049SOL    HW278240   3.873   5.638   4.679  0.0337 -0.5922  0.2903
24050SOL     OW78241   7.578   7.563   6.802 -0.5387 -0.4254  0.0165
24050SOL    HW178242   7.527   7.528   6.875 -1.0011  0.4464  0.1244
24050SOL    HW278243   7.584   7.490   6.740 -3.5260 -0.1014 -0.8487
24051SOL     OW78244   3.508   0.586   3.196 -0.0322 -0.3177  0.1400
24051SOL    HW178245   3.598   0.611   3.175 -0.3455  0.1996 -0.6539
24051SOL    HW278246   3.494   0.504   3.148 -0.1246 -0.1613 -0.1022
24052SOL     OW78247   2.995   8.616   1.844 -0.2998 -0.3877 -0.0762
24052SOL    HW178248   3.068   8.656   1.890 -0.1060  0.9139 -1.4140
24052SOL    HW278249   3.028   8.531   1.815 -0.4625 -1.2760  2.1821
24053SOL     OW78250   8.978  10.012   0.136  0.1165 -0.7207  0.0721
24053SOL    HW178251   8.914  10.031   0.068 -0.9203 -1.0793  0.9227
24053SOL    HW278252   8.926   9.988   0.212  1.2525 -0.3136  1.0067
24054SOL     OW78253   8.633   0.084   2.739 -0.6045  0.1837 -0.2300
24054SOL    HW178254   8.575   0.008   2.736 -1.5422  0.7678  1.5686
24054SOL    HW278255   8.684   0.071   2.819 -0.0999  0.9809 -0.4209
24055SOL     OW78256   1.484   3.500   0.260 -0.3509  0.0226 -0.3464
24055SOL    HW178257   1.501   3.584   0.217  0.1250 -0.2312 -0.6560
24055SOL    HW278258   1.430   3.523   0.336 -0.9088  0.5192 -0.8733
24056SOL     OW78259  10.565   7.821   5.852  0.0077  0.1204  0.0604
24056SOL    HW178260  10.551   7.753   5.786  0.3534  0.1739 -0.0722
24056SOL    HW278261  10.656   7.849   5.838 -0.0969  0.5305  0.1874
24057SOL     OW78262   2.108   7.388   3.577  0.5410 -0.0896  0.3023
24057SOL    HW178263   2.105   7.294   3.594  1.1082 -0.2770 -0.5505
24057SOL    HW278264   2.057   7.400   3.497 -0.4817  0.4995  1.0162
24058SOL     OW78265   2.271   1.675   0.565  0.0439  0.6810  0.4199
24058SOL    HW178266   2.287   1.581   0.555  0.8816  0.9377 -0.8356
24058SOL    HW278267   2.312   1.697   0.648  1.0949  0.1879  0.0574
24059SOL     OW78268   0.669   6.727   0.930  0.2308  0.3572 -0.3620
24059SOL    HW178269   0.647   6.705   0.840 -0.4112 -1.4864  0.1929
24059SOL    HW278270   0.637   6.816   0.943  0.3874  0.6619 -1.9597
24060SOL     OW78271   3.906   0.516   7.952 -0.0661  0.5522 -0.1328
24060SOL    HW178272   3.935   0.503   7.862 -1.0933  0.9413 -0.5273
24060SOL    HW278273   3.832   0.456   7.963 -0.0083  0.5732  0.4265
24061SOL     OW78274   6.114   1.059   0.156 -0.0433 -0.6812  0.1773
24061SOL    HW178275   6.125   1.152   0.138  0.3095 -0.6618  0.5019
24061SOL    HW278276   6.150   1.015   0.079  0.3766 -0.5645  0.3043
24062SOL     OW78277   9.710  10.826  10.610 -0.0333 -0.0037 -0.3199
24062SOL    HW178278   9.803  10.831  10.634  0.0294 -1.2639 -0.2354
24062SOL    HW278279   9.702  10.744  10.562 -1.0985  0.1177 -0.3691
24063SOL     OW78280   8.262   6.489   7.217  0.7168  0.2336  0.5852
24063SOL    HW178281   8.343   6.481   7.268  0.6169  0.5802  0.8044
24063SOL    HW278282   8.192   6.481   7.282  0.5527 -0.7713  0.3031
24064SOL     OW78283   0.871   2.498   4.599 -0.1199 -0.2606  0.2679
24064SOL    HW178284   0.828   2.480   4.516 -0.5942  0.1559  0.4198
24064SOL    HW278285   0.883   2.412   4.639  0.1563 -0.4699 -0.2472
24065SOL     OW78286   2.813   7.354   5.104 -0.1478  0.1590 -0.0310
24065SOL    HW178287   2.725   7.388   5.087 -0.3308  0.4590  1.4141
24065SOL    HW278288   2.872   7.427   5.085 -0.3182  0.3782  0.2831
24066SOL     OW78289   4.610   4.181   3.931 -0.0188  0.1292 -0.0763
24066SOL    HW178290   4.653   4.173   3.845  0.1310  2.8596 -0.3528
24066SOL    HW278291   4.516   4.182   3.911 -0.0577 -0.9088  0.0024
24067SOL     OW78292   2.238  10.333   9.705 -0.5177  0.0868 -0.3685
24067SOL    HW178293   2.234  10.397   9.776  0.7692 -0.3596  0.1316
24067SOL    HW278294   2.200  10.254   9.742 -1.3871  0.3079 -0.7408
24068SOL     OW78295   6.828  10.910   0.633  0.4498  0.0819 -0.9788
24068SOL    HW178296   6.784  10.875   0.555  0.2119  0.0267 -0.8200
24068SOL    HW278297   6.901  10.961   0.598  0.6642 -0.3848 -1.2233
24069SOL     OW78298   6.473   2.505   4.292  0.2636  0.2830 -0.8744
24069SOL    HW178299   6.477   2.439   4.222  0.7769 -0.0776 -0.5137
24069SOL    HW278300   6.559   2.548   4.289  0.2859  0.2712 -0.4793
24070SOL     OW78301   0.123   6.868   6.699 -0.0890  0.4456  0.0620
24070SOL    HW178302   0.192   6.896   6.639  0.1913  1.4198  0.8150
24070SOL    HW278303   0.045   6.917   6.672 -0.0546  0.6145  0.2674
24071SOL     OW78304   4.098  10.517   2.666 -0.6559 -0.4022 -0.2227
24071SOL    HW178305   4.179  10.549   2.627  0.5761 -2.3529  0.5365
24071SOL    HW278306   4.077  10.438   2.615 -0.6318 -1.3372  1.1511
24072SOL     OW78307   6.445   8.555   6.102 -0.4644  0.2851  0.0069
24072SOL    HW178308   6.428   8.590   6.014 -0.5666 -1.4318 -0.7176
24072SOL    HW278309   6.427   8.627   6.161 -0.9394  1.3321 -1.3606
24073SOL     OW78310   1.898   6.411   8.786  0.1378 -0.1028  0.1973
24073SOL    HW178311   1.859   6.495   8.810 -0.9449 -0.8924  1.3139
24073SOL    HW278312   1.989   6.418   8.814  0.0702  0.6919  0.2533
24074SOL     OW78313   3.146   8.223   1.299 -0.3260 -0.2459  0.0145
24074SOL    HW178314   3.187   8.228   1.212 -0.2891 -1.7164 -0.0767
24074SOL    HW278315   3.208   8.268   1.356  1.4178 -2.3033 -0.1481
24075SOL     OW78316   6.236   9.069   8.316 -0.0604  0.5304  0.3340
24075SOL    HW178317   6.147   9.101   8.300  0.1817  1.1419  0.1822
24075SOL    HW278318   6.292   9.144   8.297  0.5418 -0.0562 -0.2869
24076SOL     OW78319   9.994   1.715   0.723 -0.1420  0.3961  0.2395
24076SOL    HW178320  10.006   1.685   0.633  0.2402  1.1552  0.0262
24076SOL    HW278321  10.083   1.730   0.756 -0.2842  0.2792  0.6885
24077SOL     OW78322  10.476   3.525   8.451 -0.2892  0.1548  0.9047
24077SOL    HW178323  10.506   3.492   8.536 -1.1815 -1.4981  0.6219
24077SOL    HW278324  10.554   3.565   8.412  0.5290 -0.4808  1.8375
24078SOL     OW78325   5.048   5.331   9.532 -0.2674  0.2431  0.0934
24078SOL    HW178326   5.057   5.353   9.625  0.0034  1.1760 -0.1410
24078SOL    HW278327   5.137   5.322   9.501 -0.3719 -1.5497  0.2406
24079SOL     OW78328   5.060   3.850   4.810 -0.8524  0.3923  1.0699
24079SOL    HW178329   5.072   3.925   4.751 -1.7388  0.4090  0.8954
24079SOL    HW278330   5.103   3.877   4.891  0.6336  0.2585  0.3659
24080SOL     OW78331   2.967   0.019   3.306 -0.2078  0.2134 -0.2323
24080SOL    HW178332   2.902   0.086   3.329 -1.0616 -0.0298 -1.7994
24080SOL    HW278333   3.045   0.069   3.282  0.3442  0.5044  1.9211
24081SOL     OW78334   4.307   2.307   8.927  0.3056  0.1113 -0.4109
24081SOL    HW178335   4.344   2.359   8.855 -1.1665  0.5320 -0.9023
24081SOL    HW278336   4.312   2.217   8.896  0.2360  0.2318 -0.7789
24082SOL     OW78337   4.852   5.025   9.405 -0.3249 -0.3141  0.7858
24082SOL    HW178338   4.811   4.976   9.476  1.4809  0.1909  2.2863
24082SOL    HW278339   4.937   5.052   9.441 -0.0450  1.4309 -0.9797
24083SOL     OW78340   4.189   3.766   4.629 -0.4084  0.2126  0.9184
24083SOL    HW178341   4.207   3.672   4.627 -0.6730  0.1684  0.5731
24083SOL    HW278342   4.265   3.804   4.673 -0.1470 -0.1296  0.7664
24084SOL     OW78343   0.863   1.222   0.458 -0.1374  0.3015 -0.1672
24084SOL    HW178344   0.770   1.245   0.467  0.2062  1.9705 -0.6057
24084SOL    HW278345   0.890   1.198   0.546 -0.6164  1.3140  0.2745
24085SOL     OW78346   7.730   8.504   4.300  0.1160 -0.3313  0.3592
24085SOL    HW178347   7.647   8.475   4.260 -0.6496  0.0157  1.6480
24085SOL    HW278348   7.712   8.506   4.394  2.0369 -1.6142  0.8039
24086SOL     OW78349   7.401   7.256   9.666 -0.5936 -0.1739  0.1149
24086SOL    HW178350   7.494   7.235   9.665 -0.5822 -0.1313 -0.7150
24086SOL    HW278351   7.363   7.199   9.598 -0.8503  1.1650 -0.9227
24087SOL     OW78352   6.445   5.715   0.709  0.0944 -0.1634 -0.6666
24087SOL    HW178353   6.530   5.725   0.750 -0.5418  2.4335  0.1868
24087SOL    HW278354   6.392   5.669   0.775  0.4630 -0.5632 -0.6485
24088SOL     OW78355   6.535   8.414  10.385  0.0577 -0.2014 -0.0486
24088SOL    HW178356   6.488   8.486  10.426  2.0462  1.7057 -0.9498
24088SOL    HW278357   6.521   8.340  10.445 -2.2224  0.8158  0.7885
24089SOL     OW78358   2.150   8.691   6.378  0.0289  0.3080  0.4302
24089SOL    HW178359   2.170   8.777   6.415 -1.4284  1.3542 -1.0790
24089SOL    HW278360   2.122   8.639   6.454 -0.3996  1.5797  1.1844
24090SOL     OW78361   0.557   6.927   6.350 -0.4058  0.7140 -0.2360
24090SOL    HW178362   0.573   7.022   6.346  3.2573  0.2791  0.1532
24090SOL    HW278363   0.610   6.891   6.279 -0.8396 -1.1343  0.3231
24091SOL     OW78364   1.826   3.418   1.353  0.4268  0.6826 -0.1047
24091SOL    HW178365   1.789   3.463   1.429 -1.5290 -1.1446  0.1452
24091SOL    HW278366   1.798   3.470   1.278 -0.4724  0.7315  0.2541
24092SOL     OW78367   5.548   4.271  10.768 -0.4673 -1.1482 -0.1009
24092SOL    HW178368   5.473   4.237  10.720 -0.0968 -1.1577 -0.6815
24092SOL    HW278369   5.544   4.366  10.755 -0.1821 -1.1797 -0.4249
24093SOL     OW78370   0.512   6.266   7.557  0.0104  0.3229  0.9283
24093SOL    HW178371   0.480   6.356   7.548  0.6616  0.5721  1.0259
24093SOL    HW278372   0.570   6.269   7.632  0.3637 -0.0895  0.6762
24094SOL     OW78373   9.872   9.072   2.512 -0.0575  0.5623 -0.0810
24094SOL    HW178374   9.833   9.013   2.576 -1.2847 -1.2543 -2.3508
24094SOL    HW278375   9.961   9.087   2.545 -0.3897 -0.8887  1.6390
24095SOL     OW78376   5.205   4.403   4.941 -0.2527 -0.0204 -0.3482
24095SOL    HW178377   5.299   4.385   4.953  0.1230 -0.3936 -3.1158
24095SOL    HW278378   5.191   4.486   4.986  1.7029  0.6105 -0.7999
24096SOL     OW78379   8.313   7.477   8.898 -0.1747 -0.1072 -0.5184
24096SOL    HW178380   8.314   7.417   8.822  0.3136  0.2235 -0.7770
24096SOL    HW278381   8.387   7.448   8.951 -0.4211 -0.2347 -0.2437
24097SOL     OW78382   3.289   7.459   4.950 -0.1055  0.0947  0.3517
24097SOL    HW178383   3.346   7.462   4.873 -1.5663  1.0161 -0.7406
24097SOL    HW278384   3.297   7.546   4.989 -0.3881  0.0734  0.4621
24098SOL     OW78385   8.648   9.290   9.056 -0.2502  0.2839  0.3545
24098SOL    HW178386   8.706   9.303   8.980 -0.6052  2.1751  0.3631
24098SOL    HW278387   8.612   9.202   9.043  0.8656 -0.0440 -0.8492
24099SOL     OW78388   9.149   8.110   8.142 -0.5749 -0.2491 -0.0333
24099SOL    HW178389   9.064   8.154   8.144  0.8194  2.6111  1.5863
24099SOL    HW278390   9.201   8.158   8.079  0.6305 -0.3130  0.8667
24100SOL     OW78391   4.481   2.783   9.461 -0.0949 -0.7678  0.6580
24100SOL    HW178392   4.406   2.779   9.402 -0.0615 -0.2252  0.5729
24100SOL    HW278393   4.455   2.846   9.528  0.5822  0.0139  0.1994
24101SOL     OW78394   5.087   1.486   8.340  0.3343 -0.6396 -0.3732
24101SOL    HW178395   5.182   1.488   8.331  0.5028 -1.8850  0.6880
24101SOL    HW278396   5.055   1.557   8.284  1.8670 -0.3260 -0.8910
24102SOL     OW78397   6.159   1.255   7.487  0.5097 -0.4810 -0.0055
24102SOL    HW178398   6.106   1.245   7.408  1.0586 -0.6315 -0.3581
24102SOL    HW278399   6.144   1.346   7.514  0.4073 -0.3934 -0.3490
24103SOL     OW78400   8.183  10.674   1.293 -0.1551  0.2174 -0.4281
24103SOL    HW178401   8.174  10.629   1.377 -1.0873 -1.5833 -1.4446
24103SOL    HW278402   8.276  10.664   1.270  0.5677  2.3867  1.2203
24104SOL     OW78403   3.312   3.810   5.847  0.0754 -0.0561  0.5092
24104SOL    HW178404   3.341   3.865   5.920 -1.5720  0.4250  0.8379
24104SOL    HW278405   3.316   3.867   5.771  1.9321 -0.5989  0.1490
24105SOL     OW78406   7.796  10.013   1.809 -0.1352 -0.1852  0.2829
24105SOL    HW178407   7.702  10.028   1.799 -0.2425 -1.3623 -0.5778
24105SOL    HW278408   7.803   9.930   1.855  0.4933  0.3752  1.2439
24106SOL     OW78409   1.439   0.178   6.563 -0.0547 -0.4394  0.5975
24106SOL    HW178410   1.416   0.137   6.479  2.9025 -0.7972 -0.1336
24106SOL    HW278411   1.441   0.272   6.544  0.5629 -0.5163  0.2558
24107SOL     OW78412   0.619   9.030   8.249  0.5920 -0.5656  0.7340
24107SOL    HW178413   0.541   9.034   8.304 -0.5141 -2.0811 -0.6221
24107SOL    HW278414   0.589   9.058   8.162  2.0277  0.7038  0.6104
24108SOL     OW78415   6.901   8.461   1.773 -0.5167  0.0327 -0.5883
24108SOL    HW178416   6.939   8.432   1.690  1.1053 -2.2755  0.8580
24108SOL    HW278417   6.975   8.475   1.831 -1.6545  0.5275  0.8234
24109SOL     OW78418   5.325   4.147   0.472 -0.4939  0.1817  0.1697
24109SOL    HW178419   5.318   4.119   0.380  0.4234 -1.3846  0.5397
24109SOL    HW278420   5.236   4.139   0.506 -0.9080  1.0962 -0.6522
24110SOL     OW78421   1.401   4.664   3.410 -0.3114 -0.2870 -0.0348
24110SOL    HW178422   1.349   4.659   3.330  1.7699 -1.7745 -1.3574
24110SOL    HW278423   1.444   4.579   3.417 -0.4867 -0.2443  2.7559
24111SOL     OW78424   5.000   3.067   4.976 -0.0094  0.7730  0.6563
24111SOL    HW178425   4.935   3.130   5.009 -3.0046 -0.9796 -1.3647
24111SOL    HW278426   4.980   2.986   5.023  0.3115  0.0692 -0.3756
24112SOL     OW78427   1.659   6.139   3.962  0.7123  0.2931  0.1504
24112SOL    HW178428   1.629   6.073   3.899 -1.7472  1.2424  0.1902
24112SOL    HW278429   1.674   6.090   4.043  2.0839 -0.6549 -0.6417
24113SOL     OW78430   1.624  10.263   4.214  0.0861  0.0029  0.0217
24113SOL    HW178431   1.647  10.171   4.203  0.0909 -0.1270  1.0006
24113SOL    HW278432   1.567  10.264   4.291 -0.6508  0.7099 -0.5222
24114SOL     OW78433   4.597   9.124   8.923  0.3398  0.0705  0.3099
24114SOL    HW178434   4.598   9.060   8.994  0.6538  0.6986  0.8837
24114SOL    HW278435   4.660   9.091   8.859 -0.9199 -1.2128 -0.3451
24115SOL     OW78436   1.573   0.944   0.222  0.3963  0.0108  0.1136
24115SOL    HW178437   1.632   0.933   0.147 -0.5339 -1.4179 -0.4368
24115SOL    HW278438   1.620   1.004   0.280  1.6008  0.3149 -1.1187
24116SOL     OW78439   8.092   9.357   3.793  0.1499 -0.0259  0.2551
24116SOL    HW178440   8.133   9.339   3.709  0.5440 -0.3198  0.5042
24116SOL    HW278441   8.116   9.447   3.814  0.1664  0.0001  0.1196
24117SOL     OW78442   3.587   6.701   8.493  0.1270  0.1214 -1.0228
24117SOL    HW178443   3.645   6.657   8.430  1.7137 -2.9500  2.2160
24117SOL    HW278444   3.503   6.657   8.483  0.3267 -0.2461 -1.1123
24118SOL     OW78445   4.602   5.227   0.982  0.2642 -0.8541  0.0349
24118SOL    HW178446   4.619   5.212   1.075 -0.7862 -1.2338  0.1724
24118SOL    HW278447   4.573   5.318   0.977 -1.4273 -1.3549  0.3389
24119SOL     OW78448   0.215   3.749  10.814 -0.1400 -0.6964  0.0728
24119SOL    HW178449   0.277   3.805  10.768 -2.7368  2.2161 -0.2134
24119SOL    HW278450   0.133   3.758  10.765 -1.2835 -3.0581  1.3323
24120SOL     OW78451   2.204  10.827   1.856  0.0760  0.1173 -0.2534
24120SOL    HW178452   2.142  10.768   1.897  0.7965 -1.0089 -0.7435
24120SOL    HW278453   2.157  10.863   1.781 -0.7439  1.0707  0.6852
24121SOL     OW78454   7.378  10.162   0.130  0.0916  0.1762  0.6832
24121SOL    HW178455   7.465  10.135   0.102 -0.1281 -1.2997  1.3432
24121SOL    HW278456   7.337  10.197   0.051  0.9720  0.0613  0.1697
24122SOL     OW78457   4.047   7.847   3.831  0.4774  0.4943 -0.5634
24122SOL    HW178458   4.107   7.909   3.872 -1.5689  1.2448  1.5165
24122SOL    HW278459   4.005   7.803   3.905 -1.1851 -0.3250 -1.9426
24123SOL     OW78460   5.975   1.692   1.191  0.1315  0.1450 -0.2456
24123SOL    HW178461   5.981   1.776   1.145  1.6919  0.9069  1.2091
24123SOL    HW278462   5.938   1.714   1.276 -0.2812 -0.7968 -0.1686
24124SOL     OW78463   7.872   3.771   5.678 -0.3805 -0.1141 -0.1487
24124SOL    HW178464   7.947   3.795   5.625 -0.1370 -1.7456 -0.6105
24124SOL    HW278465   7.858   3.846   5.736  2.0627 -0.0567  0.4553
24125SOL     OW78466   6.833   7.966   9.003  0.7568 -0.4272 -0.3362
24125SOL    HW178467   6.799   7.959   8.914  1.0864 -0.7717 -0.4402
24125SOL    HW278468   6.796   8.048   9.037 -1.5128 -1.5930  0.1558
24126SOL     OW78469   3.185   0.088   3.791 -0.3650 -0.6967  0.0631
24126SOL    HW178470   3.220   0.097   3.702  2.1879  1.1448  1.1232
24126SOL    HW278471   3.182  -0.006   3.806 -0.6471 -1.0390 -1.8852
24127SOL     OW78472   2.850   2.302   8.409  0.5646  0.8876 -0.5887
24127SOL    HW178473   2.938   2.302   8.448  0.7772 -1.7573 -0.8732
24127SOL    HW278474   2.864   2.271   8.319 -0.7788 -1.5464 -0.0608
24128SOL     OW78475   1.161   4.233   5.558 -0.0331 -0.4996 -0.0198
24128SOL    HW178476   1.091   4.275   5.609  0.9616 -2.5428  3.3955
24128SOL    HW278477   1.122   4.150   5.529  0.7059 -1.3674  1.3700
24129SOL     OW78478   7.266   7.572   7.548 -0.1276 -0.4880 -0.5686
24129SOL    HW178479   7.176   7.583   7.578 -0.2684  0.2062 -1.2323
24129SOL    HW278480   7.319   7.582   7.628 -0.6688 -1.7101 -0.0324
24130SOL     OW78481   2.533   0.384   3.255  0.3075  0.4645  0.0649
24130SOL    HW178482   2.480   0.355   3.180 -0.1436  0.1006  0.5232
24130SOL    HW278483   2.470   0.413   3.320  0.5901 -1.2621  1.1606
24131SOL     OW78484   0.104   4.287   6.993 -0.0141 -0.2977  0.1819
24131SOL    HW178485   0.165   4.305   6.921  1.4670 -2.1562  0.8618
24131SOL    HW278486   0.096   4.370   7.039  0.6861  0.4069 -0.9146
24132SOL     OW78487   2.211   4.710   1.490  0.5015 -0.2980  0.5370
24132SOL    HW178488   2.196   4.782   1.429  0.1081 -1.2225 -0.4905
24132SOL    HW278489   2.232   4.635   1.435  0.8165 -1.0031  1.5768
24133SOL     OW78490   1.365   6.783   0.218 -0.5468  0.2520  0.4528
24133SOL    HW178491   1.304   6.710   0.215 -0.8033  0.4581  0.6045
24133SOL    HW278492   1.434   6.756   0.279  0.2587 -0.5489 -0.7720
24134SOL     OW78493   2.682   9.090   2.642  0.0957 -0.0885 -0.6729
24134SOL    HW178494   2.677   9.163   2.703 -0.5269 -0.4551 -0.2735
24134SOL    HW278495   2.768   9.051   2.658  0.5922  0.7886 -1.1685
24135SOL     OW78496   6.214   7.473   7.834  0.4620 -0.1411 -0.0560
24135SOL    HW178497   6.226   7.390   7.787  1.6019  0.7989 -1.4736
24135SOL    HW278498   6.301   7.512   7.837 -0.2552  1.5445 -0.3967
24136SOL     OW78499   1.643   3.449   1.935  0.3257 -0.1571  0.8152
24136SOL    HW178500   1.715   3.497   1.894 -0.0364 -0.4880 -0.2318
24136SOL    HW278501   1.633   3.491   2.021  1.3420  0.3088  0.7262
24137SOL     OW78502   8.671   3.666   6.083 -0.1518  0.3463  0.0033
24137SOL    HW178503   8.602   3.669   6.017 -0.7846 -0.0702  0.6244
24137SOL    HW278504   8.638   3.720   6.154 -1.3960 -2.3730  1.6893
24138SOL     OW78505   4.575   1.953   3.830 -0.1494  0.4756  0.1878
24138SOL    HW178506   4.599   1.974   3.739  1.1794  1.5511  0.7559
24138SOL    HW278507   4.640   1.998   3.883  0.7402 -2.2807  1.6362
24139SOL     OW78508   6.646   0.731   3.715  0.3463 -0.1501  0.3439
24139SOL    HW178509   6.733   0.717   3.678 -0.3193 -0.1606 -1.3004
24139SOL    HW278510   6.660   0.795   3.785  1.5096  0.7354 -0.6497
24140SOL     OW78511   9.023   7.159   8.478  0.1080  0.2098  0.7133
24140SOL    HW178512   9.089   7.186   8.413  0.9309 -0.7057  1.1330
24140SOL    HW278513   8.968   7.237   8.490  0.7101  0.7927 -0.1421
24141SOL     OW78514   7.197   8.568   7.315  0.2474  0.0633 -1.2953
24141SOL    HW178515   7.244   8.588   7.234 -0.8940 -0.0058 -1.9862
24141SOL    HW278516   7.105   8.569   7.291 -0.1389  0.4301  0.0939
24142SOL     OW78517   3.247   3.353   9.052 -0.5497  0.0512 -0.3665
24142SOL    HW178518   3.340   3.339   9.069 -0.5158  0.0558 -0.5506
24142SOL    HW278519   3.210   3.370   9.139 -0.5844 -1.1132 -0.1425
24143SOL     OW78520   7.917   6.741   7.428 -0.7820 -0.0928 -0.3536
24143SOL    HW178521   7.954   6.658   7.400 -0.4512 -0.8782  2.1537
24143SOL    HW278522   7.930   6.800   7.354 -0.4741 -2.0878 -1.9679
24144SOL     OW78523   6.900   4.160   4.091 -0.7156  0.1609 -0.4146
24144SOL    HW178524   6.805   4.152   4.083 -0.7686  0.0585  0.2277
24144SOL    HW278525   6.934   4.101   4.025 -1.1036 -0.0042 -0.4743
24145SOL     OW78526   9.985   3.310   5.657  0.0420 -0.1806  0.1686
24145SOL    HW178527   9.894   3.304   5.627 -0.2612  0.8445  0.8467
24145SOL    HW278528  10.037   3.284   5.580 -0.6675  3.0309 -1.5787
24146SOL     OW78529   6.240   5.208   3.120 -0.2171 -0.3230 -0.0931
24146SOL    HW178530   6.263   5.118   3.143 -1.1253 -1.1917 -2.2671
24146SOL    HW278531   6.159   5.225   3.167  0.4529 -0.2705  1.0749
24147SOL     OW78532   0.981   8.908   5.587  0.4301 -0.4432 -0.1422
24147SOL    HW178533   0.979   8.823   5.631  1.1453 -0.7869 -0.7486
24147SOL    HW278534   1.043   8.960   5.638 -1.1458  0.2752  1.1572
24148SOL     OW78535   3.988   7.356   5.848  0.0183 -0.1741  0.3202
24148SOL    HW178536   4.044   7.309   5.909  2.2197  0.1325 -1.3264
24148SOL    HW278537   3.996   7.307   5.766 -1.1675  0.5964 -0.2942
24149SOL     OW78538   5.858   4.336   2.217 -0.3861  0.0974  0.2393
24149SOL    HW178539   5.927   4.280   2.182  0.2081  0.3354  1.0171
24149SOL    HW278540   5.888   4.425   2.200 -0.0343  0.2182  1.4516
24150SOL     OW78541  10.562   0.896  10.595 -0.3897 -0.2798  0.3518
24150SOL    HW178542  10.634   0.885  10.658  1.2533  0.7343 -1.2692
24150SOL    HW278543  10.535   0.806  10.575 -0.6156 -0.6376  2.0836
24151SOL     OW78544   1.045  10.023   7.161  0.1194  0.8703 -0.6653
24151SOL    HW178545   0.964   9.998   7.117 -0.4475 -0.0536  0.8406
24151SOL    HW278546   1.101   9.945   7.154  0.0008  0.6896  0.2528
24152SOL     OW78547   1.633   8.775   3.894 -0.3853  0.0928 -0.1999
24152SOL    HW178548   1.658   8.691   3.855 -2.0522 -1.4297  1.7957
24152SOL    HW278549   1.621   8.833   3.818 -0.0736 -1.7033 -1.7123
24153SOL     OW78550   4.196   5.411   0.001  0.4605 -0.2526 -0.5093
24153SOL    HW178551   4.234   5.457  -0.073  1.3406  1.6774  1.0639
24153SOL    HW278552   4.150   5.478   0.051  0.9488 -1.2406  1.3653
24154SOL     OW78553   1.655   9.242   2.894 -0.1603  0.7382 -0.2964
24154SOL    HW178554   1.568   9.212   2.867 -0.4626  1.1027  0.2748
24154SOL    HW278555   1.655   9.336   2.877  0.3418  0.6490 -0.8636
24155SOL     OW78556   9.054   9.173   6.484 -0.2553  0.1866 -0.3856
24155SOL    HW178557   9.058   9.269   6.485 -1.1288  0.2585 -1.6658
24155SOL    HW278558   8.998   9.151   6.559 -1.4881  0.7865 -1.1022
24156SOL     OW78559   2.583   9.835   2.581  0.0230 -0.1770 -0.0357
24156SOL    HW178560   2.571   9.930   2.577 -1.5099 -0.3808 -1.3527
24156SOL    HW278561   2.504   9.799   2.541 -0.3298 -2.0857  2.1221
24157SOL     OW78562   4.346  10.507   8.571  0.2314  0.1955 -0.4022
24157SOL    HW178563   4.353  10.485   8.664  0.2027  1.1531 -0.1635
24157SOL    HW278564   4.268  10.460   8.541  1.2250 -1.5393 -0.3874
24158SOL     OW78565  10.411   5.677   5.745 -0.0705  0.2749  0.4098
24158SOL    HW178566  10.324   5.712   5.768 -0.6788  0.0752 -1.3721
24158SOL    HW278567  10.412   5.590   5.783 -0.0460  0.8098  1.6912
24159SOL     OW78568   4.075   8.630   9.404  0.1249  0.9465 -0.1976
24159SOL    HW178569   4.041   8.575   9.475  1.7394 -0.1931 -0.2402
24159SOL    HW278570   4.088   8.570   9.331  0.7862  1.6144 -0.6497
24160SOL     OW78571   3.527   7.621   8.632  0.8343  0.1101  0.2125
24160SOL    HW178572   3.553   7.683   8.563  0.1248 -0.9903 -1.0910
24160SOL    HW278573   3.595   7.631   8.699  1.8622  0.8393 -0.8804
24161SOL     OW78574   9.969   8.204   1.974 -0.0700  0.2380  0.2508
24161SOL    HW178575   9.892   8.161   2.011 -0.0285  0.0653  0.1366
24161SOL    HW278576   9.989   8.274   2.036 -1.1422  1.1641 -0.4062
24162SOL     OW78577   1.414   2.078   9.490 -0.4888  0.4388 -0.4539
24162SOL    HW178578   1.334   2.026   9.476 -1.0986  1.4857 -1.0487
24162SOL    HW278579   1.463   2.068   9.408  1.1046 -1.9546  0.6732
24163SOL     OW78580   7.474   9.265  10.737  0.2296  0.1026  0.2420
24163SOL    HW178581   7.535   9.308  10.797  0.4126 -2.8609  2.4409
24163SOL    HW278582   7.388   9.300  10.760  0.6360  1.4850 -0.2177
24164SOL     OW78583  10.341  10.162   5.085  0.2705  0.5555  0.1704
24164SOL    HW178584  10.383  10.247   5.094  0.2044  0.4067  2.1284
24164SOL    HW278585  10.249  10.178   5.103  0.2074  0.1094  0.2609
24165SOL     OW78586   4.246   6.299   5.393  0.3067 -0.7186 -0.0142
24165SOL    HW178587   4.270   6.359   5.322  2.0085 -2.1113 -0.7095
24165SOL    HW278588   4.165   6.257   5.363  0.1756 -0.1726 -0.4331
24166SOL     OW78589   4.086   4.546   2.503  0.0539 -0.3379 -0.0526
24166SOL    HW178590   4.018   4.480   2.512 -0.8637  0.8026  2.1226
24166SOL    HW278591   4.167   4.500   2.524 -0.2669 -1.2553 -0.7677
24167SOL     OW78592   4.966   4.348   9.890 -0.0139 -0.1461 -0.3333
24167SOL    HW178593   4.883   4.305   9.870  0.8979 -1.6630 -0.9814
24167SOL    HW278594   4.948   4.441   9.874 -1.5005 -0.4702 -0.7341
24168SOL     OW78595   8.122   7.880  10.497 -0.0887  1.2790 -0.0822
24168SOL    HW178596   8.207   7.922  10.483  0.4966 -0.2353 -1.4088
24168SOL    HW278597   8.061   7.953  10.509  0.9381  2.5131 -1.8512
24169SOL     OW78598   6.825   6.618   8.883 -0.7239  0.0127 -0.4041
24169SOL    HW178599   6.789   6.686   8.826 -0.7045 -0.9941 -1.6447
24169SOL    HW278600   6.766   6.544   8.873  1.0715 -1.3162 -1.6826
24170SOL     OW78601   1.142   1.555   9.623  0.1308  0.4906  0.2419
24170SOL    HW178602   1.085   1.626   9.595  1.2653  1.3479  0.0023
24170SOL    HW278603   1.135   1.554   9.719  0.5583  1.3469  0.2948
24171SOL     OW78604   1.791   7.794   1.934  0.2078 -0.1234  0.6040
24171SOL    HW178605   1.862   7.774   1.995 -0.1646 -2.5468  0.3155
24171SOL    HW278606   1.712   7.785   1.986 -0.0241 -0.3887  0.2096
24172SOL     OW78607   4.842   8.804   2.542  0.5852 -0.0979 -0.1733
24172SOL    HW178608   4.877   8.809   2.630 -1.5285  2.0031  0.6510
24172SOL    HW278609   4.748   8.821   2.552  0.3750  0.8862 -2.8622
24173SOL     OW78610   4.195   8.483   2.853 -0.2269 -0.1492  0.0828
24173SOL    HW178611   4.143   8.506   2.777  0.5728 -0.6307 -0.6255
24173SOL    HW278612   4.286   8.484   2.822  0.2188  0.7836  1.3136
24174SOL     OW78613   2.859   8.208   3.123  0.1786 -0.2193 -0.1983
24174SOL    HW178614   2.886   8.298   3.142  2.5760 -1.0167  0.5682
24174SOL    HW278615   2.810   8.181   3.201 -0.7289  0.4513 -0.5182
24175SOL     OW78616   1.987  10.273   4.684  0.0877  0.3472  0.1720
24175SOL    HW178617   1.929  10.240   4.752 -0.9904  0.1871 -0.8008
24175SOL    HW278618   1.929  10.306   4.616  1.0505 -1.6650 -1.7543
24176SOL     OW78619   9.457   1.541  10.510  0.3910  0.7926 -0.0714
24176SOL    HW178620   9.387   1.526  10.447 -0.5250  0.9268  0.9013
24176SOL    HW278621   9.460   1.461  10.562  0.4554  1.0840  0.3751
24177SOL     OW78622   4.780   8.180   4.212  0.3078  0.0656  0.1465
24177SOL    HW178623   4.746   8.109   4.158 -0.2474 -1.1507  2.0309
24177SOL    HW278624   4.703   8.212   4.260  0.6232  1.7155 -0.3781
24178SOL     OW78625   6.200   7.157   9.055 -0.0508  0.1923 -0.1967
24178SOL    HW178626   6.141   7.230   9.078  0.8736  0.9683 -0.2242
24178SOL    HW278627   6.188   7.094   9.126 -1.0769  0.2277 -0.3207
24179SOL     OW78628   6.988   3.083   4.060  0.4240 -0.2441  0.5035
24179SOL    HW178629   7.021   3.058   3.973 -1.0155 -0.3751 -0.0285
24179SOL    HW278630   7.066   3.085   4.115  1.2815 -0.7969 -0.6411
24180SOL     OW78631   5.408   3.975   5.763  0.0200 -0.1222  0.4342
24180SOL    HW178632   5.313   3.990   5.767  0.0808  0.4590 -0.0841
24180SOL    HW278633   5.419   3.886   5.794 -1.0963 -1.5581 -2.8507
24181SOL     OW78634   5.244  10.385   9.045 -0.1247  0.5814  0.4903
24181SOL    HW178635   5.197  10.405   8.964  0.4998  1.3030  0.2981
24181SOL    HW278636   5.336  10.395   9.023 -0.0010  2.7386  1.7541
24182SOL     OW78637   3.362   3.640   8.303 -0.1658  0.0180 -0.3461
24182SOL    HW178638   3.340   3.711   8.363  1.1835 -0.3173  0.6104
24182SOL    HW278639   3.297   3.572   8.323  0.1834 -0.0398  0.6751
24183SOL     OW78640  10.132   2.168   8.619  0.1454 -0.4098  0.7591
24183SOL    HW178641  10.057   2.207   8.573  1.6193 -0.0734 -1.4902
24183SOL    HW278642  10.172   2.242   8.664  0.7464 -0.0038 -0.3996
24184SOL     OW78643   9.679   3.238   8.275 -0.3457 -0.7797 -0.2487
24184SOL    HW178644   9.711   3.186   8.349 -0.2534 -0.2548  0.0866
24184SOL    HW278645   9.605   3.287   8.311  1.4230  1.6300  0.3022
24185SOL     OW78646   4.936  10.282   5.801  0.1793 -0.2980 -0.5097
24185SOL    HW178647   5.005  10.255   5.742  0.9570  1.4511 -0.4596
24185SOL    HW278648   4.911  10.370   5.771  0.8020  0.7836  1.8523
24186SOL     OW78649   7.216   7.424  10.618  0.0805  0.2797 -0.1565
24186SOL    HW178650   7.306   7.393  10.612  0.3507  0.7867  0.9310
24186SOL    HW278651   7.219   7.513  10.583 -0.0365  0.2294 -0.2949
24187SOL     OW78652   1.410   2.735   9.518 -0.3519 -0.9597  0.2780
24187SOL    HW178653   1.364   2.762   9.597  0.7986  2.2415  0.0116
24187SOL    HW278654   1.460   2.658   9.544  0.2252  0.1675  2.8190
24188SOL     OW78655   6.892   2.280   0.915 -0.1859  0.4757  0.7935
24188SOL    HW178656   6.835   2.241   0.981 -1.1446  1.5154  0.6135
24188SOL    HW278657   6.837   2.288   0.837  0.7517 -0.1683  0.0313
24189SOL     OW78658   9.211   3.657   0.583  0.1678  0.3285 -0.3367
24189SOL    HW178659   9.283   3.720   0.592  1.0796 -0.8187  1.1105
24189SOL    HW278660   9.251   3.581   0.540 -0.6284  0.3170 -1.0757
24190SOL     OW78661   9.047   2.918   5.777  0.4442  0.0105  0.4861
24190SOL    HW178662   9.074   2.837   5.734 -1.1652  0.2760 -1.1160
24190SOL    HW278663   9.077   2.908   5.868  2.7558 -1.1365 -0.3236
24191SOL     OW78664   4.539   4.765   0.315 -0.5772  0.6676 -0.4638
24191SOL    HW178665   4.477   4.836   0.335  0.9693  1.6545  1.2269
24191SOL    HW278666   4.594   4.801   0.246  0.4248  1.3134  0.6310
24192SOL     OW78667   9.828   1.468   1.065 -0.1606  0.5118 -0.4323
24192SOL    HW178668   9.906   1.492   1.014 -0.5473  1.7320 -0.4666
24192SOL    HW278669   9.860   1.463   1.155  0.4585 -1.3486 -0.7147
24193SOL     OW78670  10.794  10.893   9.943 -0.2551 -0.0014  0.2847
24193SOL    HW178671  10.699  10.888   9.940 -0.2420 -0.0777 -1.8660
24193SOL    HW278672  10.818  10.859  10.029 -2.1688  0.1949  0.9260
24194SOL     OW78673   9.424   2.288   2.289 -0.4239 -0.3760  0.2568
24194SOL    HW178674   9.394   2.358   2.348  0.3018  0.8330 -0.7541
24194SOL    HW278675   9.488   2.239   2.340 -0.4715  0.0932  0.7837
24195SOL     OW78676   5.735   9.111   1.401  0.5715  0.2169  0.0265
24195SOL    HW178677   5.693   9.036   1.442  1.9960 -1.4158 -1.3577
24195SOL    HW278678   5.812   9.128   1.454  1.6819 -1.0420 -1.1018
24196SOL     OW78679   1.811   6.203   3.131 -0.2178  0.4188  0.2440
24196SOL    HW178680   1.902   6.212   3.104 -0.1729 -0.7101 -0.0115
24196SOL    HW278681   1.802   6.112   3.158 -1.3499  0.4359 -0.0170
24197SOL     OW78682   5.974   5.523   3.799  0.7704  0.6079 -0.0196
24197SOL    HW178683   5.915   5.488   3.866  1.2673 -1.2511 -0.4913
24197SOL    HW278684   5.927   5.597   3.762 -0.6509  0.0462  0.5887
24198SOL     OW78685   4.206   8.689   7.461  0.2008 -0.1086  0.2459
24198SOL    HW178686   4.152   8.659   7.388  0.9787 -0.8550 -0.0393
24198SOL    HW278687   4.200   8.784   7.457 -0.0106 -0.1453 -0.6106
24199SOL     OW78688   4.803   2.099  10.078  0.8009 -0.2137  0.3294
24199SOL    HW178689   4.877   2.155  10.056 -0.0958  1.2940  1.0083
24199SOL    HW278690   4.728   2.159  10.083  0.2045 -1.0697  3.3186
24200SOL     OW78691   2.877   6.364   1.154  0.3282 -0.3183 -0.3647
24200SOL    HW178692   2.866   6.420   1.078 -1.0267  1.2639  0.9118
24200SOL    HW278693   2.817   6.291   1.140 -0.9450  0.6777 -0.2159
24201SOL     OW78694   0.113   8.265   1.799 -0.5797  0.5531  0.1410
24201SOL    HW178695   0.161   8.311   1.730 -1.9577 -0.9741 -1.9643
24201SOL    HW278696   0.096   8.178   1.763  0.0361 -0.9328  3.0886
24202SOL     OW78697   5.192   2.629   3.669  0.0659 -0.1128  0.1525
24202SOL    HW178698   5.274   2.676   3.657  1.3792 -2.2841  0.2355
24202SOL    HW278699   5.216   2.547   3.712 -2.2127 -0.6091  0.6338
24203SOL     OW78700   7.060   6.337   0.922  0.3305 -0.4525  0.7369
24203SOL    HW178701   6.975   6.321   0.965  0.6121  0.7832  1.8140
24203SOL    HW278702   7.040   6.399   0.852  0.1423 -1.2217  0.0872
24204SOL     OW78703   2.330  10.196   3.823  0.3485 -0.2076 -0.0795
24204SOL    HW178704   2.293  10.108   3.831 -1.0599  0.3979  0.5427
24204SOL    HW278705   2.425  10.183   3.830  0.1816 -1.6820 -0.1655
24205SOL     OW78706   2.417   9.715  10.272  0.5526 -0.2055  0.3776
24205SOL    HW178707   2.459   9.793  10.237 -2.0449  1.8382  1.4621
24205SOL    HW278708   2.459   9.701  10.357 -0.1611  1.1821  0.9963
24206SOL     OW78709  10.417   0.799   9.860 -0.4646 -0.4062  0.0814
24206SOL    HW178710  10.452   0.886   9.840 -1.2019 -0.1805 -0.2628
24206SOL    HW278711  10.398   0.801   9.954  2.1845 -1.1713  0.7252
24207SOL     OW78712   5.312   4.140   3.659 -0.4999  0.2144  0.1679
24207SOL    HW178713   5.247   4.176   3.719  1.0555  2.1216  0.7878
24207SOL    HW278714   5.338   4.057   3.700 -1.2766  0.2618  0.7977
24208SOL     OW78715   4.335   2.094   4.734  0.1349 -0.4558  0.4141
24208SOL    HW178716   4.365   2.130   4.650  1.5144 -1.5956  0.3828
24208SOL    HW278717   4.299   2.008   4.711 -0.8089 -0.1684  0.8105
24209SOL     OW78718   2.715   8.472   3.589 -0.2346  0.9042  0.3232
24209SOL    HW178719   2.632   8.448   3.547  0.3560  1.5142 -1.2752
24209SOL    HW278720   2.750   8.542   3.534  1.6984  0.1362  0.5108
24210SOL     OW78721   0.970   4.212   4.834  0.1769  0.5472  0.2023
24210SOL    HW178722   0.922   4.186   4.913  0.5438 -0.4793  0.0932
24210SOL    HW278723   1.050   4.254   4.867  0.6786 -0.5372  0.3825
24211SOL     OW78724   3.772   0.252   9.853  0.0572 -0.2251  0.1772
24211SOL    HW178725   3.717   0.174   9.839  1.7765 -1.7117  1.2839
24211SOL    HW278726   3.854   0.217   9.888  0.8308  2.1298  0.8580
24212SOL     OW78727   7.058   0.071   2.077  0.3433  0.2242  0.7717
24212SOL    HW178728   7.113  -0.007   2.092  0.9929  0.5868  0.2924
24212SOL    HW278729   7.037   0.068   1.984 -0.6199 -0.0068  0.9822
24213SOL     OW78730   2.369   4.319  10.620  0.1200 -0.0929  0.6535
24213SOL    HW178731   2.462   4.340  10.631  0.2805  1.3346 -2.2620
24213SOL    HW278732   2.368   4.238  10.569 -0.1899  0.1285  0.2970
24214SOL     OW78733   5.002   7.750   5.604 -0.1374  0.5356  0.1440
24214SOL    HW178734   5.086   7.706   5.607  1.4653  3.3581  1.1987
24214SOL    HW278735   4.938   7.683   5.627  1.6703 -1.8920 -1.4214
24215SOL     OW78736   2.595   9.755   2.020  0.0963  0.0129 -0.0010
24215SOL    HW178737   2.605   9.705   2.101  1.5900 -1.9148 -1.2782
24215SOL    HW278738   2.501   9.758   2.005 -0.1443 -0.4408  1.3073
24216SOL     OW78739   7.375   8.815   0.231 -0.5119 -0.0361  0.1606
24216SOL    HW178740   7.461   8.857   0.230  0.0127 -1.0057  1.7762
24216SOL    HW278741   7.367   8.779   0.320 -1.9132 -1.3391 -0.4585
24217SOL     OW78742   4.825   4.058   7.435 -0.2884 -0.4827 -0.2153
24217SOL    HW178743   4.772   4.009   7.498 -1.3409 -0.4504 -1.0330
24217SOL    HW278744   4.903   4.005   7.422  0.5072  0.0596  1.9536
24218SOL     OW78745   7.275   7.229   5.453 -0.1351  0.0595 -0.5513
24218SOL    HW178746   7.264   7.213   5.359 -0.8043 -0.4078 -0.3960
24218SOL    HW278747   7.260   7.323   5.464 -1.3619 -0.1016 -0.7311
24219SOL     OW78748   6.073   3.502   3.096 -0.3516  0.3675  0.0954
24219SOL    HW178749   6.105   3.426   3.048  0.1911 -0.3314  1.5121
24219SOL    HW278750   5.996   3.471   3.143 -0.1036  0.6691  0.7158
24220SOL     OW78751   7.554   2.143   6.758  0.2117 -0.1572 -0.2696
24220SOL    HW178752   7.550   2.096   6.842  0.9926 -1.7124 -1.0543
24220SOL    HW278753   7.490   2.214   6.768  0.5087 -0.1035  1.7419
24221SOL     OW78754   9.209   7.990   4.646 -0.3216  0.2820 -0.3246
24221SOL    HW178755   9.254   7.997   4.730  0.2457  3.0429 -0.7608
24221SOL    HW278756   9.127   7.945   4.667 -0.3271  1.1374  1.7914
24222SOL     OW78757   5.755   7.722   4.866 -0.1038  0.3784 -0.7801
24222SOL    HW178758   5.766   7.813   4.842 -0.3031  0.1556 -1.7510
24222SOL    HW278759   5.820   7.674   4.815  0.8565  0.0840  0.6408
24223SOL     OW78760   6.614  10.002   8.112 -0.4479  0.0126  0.3232
24223SOL    HW178761   6.641   9.926   8.060 -0.3388  0.7758 -0.7750
24223SOL    HW278762   6.689  10.061   8.108 -1.2154  0.9617 -0.4046
24224SOL     OW78763   8.367  10.178   1.374 -0.3819  0.4115  0.3076
24224SOL    HW178764   8.462  10.165   1.373 -0.6761 -2.8778  1.3304
24224SOL    HW278765   8.344  10.203   1.285  1.2978 -0.2229 -0.3302
24225SOL     OW78766  10.097  10.666   5.349 -0.3357 -0.6103 -0.8960
24225SOL    HW178767  10.133  10.578   5.360 -1.2594 -0.8914  0.0308
24225SOL    HW278768  10.087  10.676   5.255  1.3283 -0.8541 -1.1232
24226SOL     OW78769   7.795   8.346   7.882  0.4935 -0.5995  0.0648
24226SOL    HW178770   7.771   8.371   7.793 -0.6258  2.5947  1.1443
24226SOL    HW278771   7.739   8.271   7.901 -1.0474  0.1980 -1.1096
24227SOL     OW78772   4.459   3.434   4.781 -0.3483  0.1099 -0.9155
24227SOL    HW178773   4.442   3.464   4.870  2.0657 -1.4721  0.1827
24227SOL    HW278774   4.426   3.344   4.780  2.8272 -1.1998 -0.3240
24228SOL     OW78775   9.012   4.091   1.366 -0.0114  0.1030 -0.0031
24228SOL    HW178776   8.996   4.020   1.427  0.3803 -2.4956 -2.6897
24228SOL    HW278777   9.090   4.064   1.318 -0.2426  2.0370 -1.6076
24229SOL     OW78778   1.872   7.787   9.754 -0.2503  0.2746 -0.1902
24229SOL    HW178779   1.877   7.698   9.789 -0.0039  0.6102  0.6456
24229SOL    HW278780   1.803   7.829   9.805  1.3757  1.3456  1.2539
24230SOL     OW78781   4.247   6.563  10.042  0.3292 -0.2947 -0.4412
24230SOL    HW178782   4.156   6.537  10.037  0.2422  0.2610 -3.1435
24230SOL    HW278783   4.247   6.657  10.021  1.5280 -0.2822 -0.4949
24231SOL     OW78784  10.491   4.599  10.829  0.3482 -0.3631 -0.5145
24231SOL    HW178785  10.547   4.635  10.897  0.1505 -1.5165  0.2831
24231SOL    HW278786  10.419   4.662  10.821  1.3305  0.7301 -1.0028
24232SOL     OW78787   6.645   1.726   2.395  0.5855  0.0502  0.0562
24232SOL    HW178788   6.612   1.641   2.366  0.8753 -0.3776  0.9374
24232SOL    HW278789   6.570   1.768   2.437  1.0043 -0.7570  1.7030
24233SOL     OW78790   0.062   2.111   0.354  0.1329  0.1875  0.6743
24233SOL    HW178791   0.013   2.118   0.272  1.1657  0.4676  0.0623
24233SOL    HW278792   0.112   2.193   0.360 -0.0322  0.2332  1.6571
24234SOL     OW78793   5.267   5.234   9.739  0.4145  0.2170  0.4276
24234SOL    HW178794   5.330   5.195   9.678  0.1060  1.1242 -0.4934
24234SOL    HW278795   5.224   5.159   9.780  1.0987 -0.4093  0.0187
24235SOL     OW78796   1.400   0.184   9.870 -0.3261 -0.1308 -0.6472
24235SOL    HW178797   1.309   0.205   9.848 -1.0600 -3.0322 -0.8608
24235SOL    HW278798   1.393   0.109   9.930  1.9140  0.7598  0.8404
24236SOL     OW78799   5.936   8.136   2.250  0.1861 -0.5276  1.0710
24236SOL    HW178800   5.964   8.068   2.190  0.8331  0.9741 -0.4141
24236SOL    HW278801   6.017   8.176   2.281 -0.1567  1.2633 -0.1717
24237SOL     OW78802   8.292   9.755   7.355  0.1248  0.7065 -0.1165
24237SOL    HW178803   8.353   9.693   7.394  0.4478  0.9934 -0.1612
24237SOL    HW278804   8.348   9.821   7.313 -0.1780  1.9174  1.2842
24238SOL     OW78805   6.177   2.298   4.286 -0.4446 -0.2732 -0.3012
24238SOL    HW178806   6.148   2.288   4.377  0.8935 -2.2561 -0.0465
24238SOL    HW278807   6.268   2.328   4.293 -0.9432  1.5671 -1.0501
24239SOL     OW78808   1.677   6.572   0.820 -0.7673 -0.0869 -0.6520
24239SOL    HW178809   1.676   6.483   0.855 -3.0893  0.2598  0.3662
24239SOL    HW278810   1.588   6.585   0.786 -0.2589  1.6051 -1.4424
24240SOL     OW78811   4.043   9.381  10.027  0.2420 -0.1974 -0.3144
24240SOL    HW178812   4.134   9.410  10.027  0.6004 -1.2762 -0.3078
24240SOL    HW278813   4.023   9.365   9.935 -0.7511  2.3872 -0.6185
24241SOL     OW78814   6.696   0.160   9.466 -0.1526 -0.5703 -0.4090
24241SOL    HW178815   6.734   0.248   9.470 -0.3753 -0.3380 -2.2874
24241SOL    HW278816   6.618   0.165   9.522 -0.6246  0.7031 -1.1316
24242SOL     OW78817   5.476   7.612   0.218 -0.2881  0.5798  0.0115
24242SOL    HW178818   5.476   7.671   0.143 -1.1887  0.0610 -0.4172
24242SOL    HW278819   5.392   7.566   0.212  0.2321 -0.4743  0.5363
24243SOL     OW78820   8.372   9.919   8.031 -0.4474 -0.1823  0.7372
24243SOL    HW178821   8.456   9.908   8.077 -1.1950  1.1322  2.5154
24243SOL    HW278822   8.359  10.013   8.026 -1.4926 -0.3529 -0.2000
24244SOL     OW78823   6.859   4.893   5.277 -0.2199 -0.5346 -0.0924
24244SOL    HW178824   6.848   4.869   5.185  0.7857 -1.5493  0.0264
24244SOL    HW278825   6.897   4.815   5.318 -1.7518 -0.5359  1.4502
24245SOL     OW78826   1.749   4.883   6.173 -0.2280  0.1872  0.5271
24245SOL    HW178827   1.795   4.830   6.238 -0.3316 -0.5891 -0.0246
24245SOL    HW278828   1.813   4.949   6.147 -0.1520  0.4411  1.3348
24246SOL     OW78829  10.919   2.781   6.002 -0.0105 -0.2613  0.0165
24246SOL    HW178830  11.001   2.825   5.979  0.7540 -0.0314  2.8305
24246SOL    HW278831  10.945   2.708   6.057 -1.6793 -0.2018  0.9612
24247SOL     OW78832   2.788   5.712   3.903 -0.3514  0.2252 -0.1056
24247SOL    HW178833   2.831   5.665   3.831 -0.8020 -0.9678  0.3738
24247SOL    HW278834   2.721   5.766   3.860 -1.9561 -1.9328 -0.5078
24248SOL     OW78835   8.010   5.761   6.428  0.1088 -0.0812 -0.4925
24248SOL    HW178836   7.968   5.847   6.433 -0.5795 -0.4654  0.9089
24248SOL    HW278837   8.094   5.777   6.385  0.7546  1.5960  1.2776
24249SOL     OW78838   8.844   2.780   1.243  0.4816  0.0622  0.0240
24249SOL    HW178839   8.782   2.726   1.292  0.6148 -0.0628  0.0554
24249SOL    HW278840   8.801   2.865   1.235  2.3247  1.7322  4.5184
24250SOL     OW78841   9.602   6.065   9.588  0.2437  0.0908  0.2591
24250SOL    HW178842   9.573   6.143   9.635 -0.0702  0.3057 -0.2758
24250SOL    HW278843   9.697   6.065   9.598  0.1853  0.1591  0.8411
24251SOL     OW78844   2.567   3.311   9.038 -0.0401  0.3914 -0.1945
24251SOL    HW178845   2.581   3.302   9.132 -0.7105 -0.6637 -0.1724
24251SOL    HW278846   2.491   3.370   9.031  1.1414  1.9808 -0.1608
24252SOL     OW78847   9.283   7.417   0.809  0.0855 -0.7411  0.0043
24252SOL    HW178848   9.199   7.399   0.852  0.1737 -0.2580  0.3898
24252SOL    HW278849   9.327   7.332   0.806 -0.2730 -0.9340  0.1117
24253SOL     OW78850   7.392   9.336   8.673  0.1163 -0.0982 -0.7713
24253SOL    HW178851   7.470   9.370   8.628 -0.2375  0.7974 -0.7159
24253SOL    HW278852   7.368   9.405   8.735  0.4713 -1.2162  0.6817
24254SOL     OW78853   4.610   8.833   8.093 -0.0319  0.1937 -0.0266
24254SOL    HW178854   4.673   8.762   8.102  0.3395  0.4115 -0.8259
24254SOL    HW278855   4.644   8.903   8.149  2.3202  1.5888 -2.9317
24255SOL     OW78856   3.176   3.394  10.158  0.3138 -0.6537 -0.1415
24255SOL    HW178857   3.187   3.310  10.202  1.5711  0.3742  1.6097
24255SOL    HW278858   3.084   3.395  10.130 -0.0622 -2.0682  0.9473
24256SOL     OW78859   0.474   9.688   7.493 -0.2546  0.8368  0.4096
24256SOL    HW178860   0.455   9.762   7.435 -1.0286 -0.9200 -1.7332
24256SOL    HW278861   0.538   9.636   7.446 -3.3798 -2.4513 -0.6910
24257SOL     OW78862   6.807   9.880  10.409  0.4980  0.1946 -0.5985
24257SOL    HW178863   6.885   9.863  10.356  0.9984  1.1434 -0.1906
24257SOL    HW278864   6.734   9.845  10.357  1.0661  0.3589 -1.5257
24258SOL     OW78865   2.004   1.376   6.896  0.3482 -0.7822  0.1546
24258SOL    HW178866   2.042   1.445   6.843  2.6460 -0.8395  1.6245
24258SOL    HW278867   1.911   1.400   6.903  0.7576  1.2557 -0.6744
24259SOL     OW78868   1.459   7.494   1.395  0.0062 -0.2038  0.3145
24259SOL    HW178869   1.371   7.529   1.383 -0.2359  0.5594  3.5141
24259SOL    HW278870   1.507   7.526   1.319 -1.6008  2.4448  0.2666
24260SOL     OW78871   2.615  10.677   3.433 -0.6204 -0.0939 -0.4907
24260SOL    HW178872   2.602  10.668   3.339 -1.3636  1.8581 -0.6237
24260SOL    HW278873   2.550  10.743   3.460 -0.4236 -0.5986  1.3888
24261SOL     OW78874   0.029  10.448   5.577  0.2668  0.1139 -0.0032
24261SOL    HW178875   0.098  10.513   5.593  0.9138 -0.2905 -1.0444
24261SOL    HW278876  -0.002  10.469   5.489 -0.7701  0.1228  0.3566
24262SOL     OW78877   3.334   7.414   9.075  0.3498  0.2317 -0.1636
24262SOL    HW178878   3.321   7.444   9.165  0.1509 -1.4916  0.4123
24262SOL    HW278879   3.245   7.405   9.040  0.2777 -1.6256  0.3768
24263SOL     OW78880   4.470   4.965   6.353  1.2262  0.0895  0.2705
24263SOL    HW178881   4.475   5.004   6.266  1.5313  0.8927  0.6417
24263SOL    HW278882   4.400   5.013   6.398  1.0522 -0.3353  0.4656
24264SOL     OW78883   0.370   8.221  10.926 -0.4209  0.0118  0.4880
24264SOL    HW178884   0.276   8.237  10.920 -0.0632  2.1477 -0.3607
24264SOL    HW278885   0.403   8.288  10.985  0.9059  1.0478 -1.3269
24265SOL     OW78886   5.564   6.080   9.934  0.0205 -0.5535  0.2568
24265SOL    HW178887   5.652   6.048   9.915  0.6537  1.5043 -0.6291
24265SOL    HW278888   5.512   6.055   9.858  0.2932 -0.2823 -0.0249
24266SOL     OW78889   9.537   6.525   3.700  0.4218  0.1593 -0.5354
24266SOL    HW178890   9.504   6.461   3.636 -0.0192 -0.2177  0.0597
24266SOL    HW278891   9.528   6.609   3.656  1.4034 -0.2220 -1.4956
24267SOL     OW78892   4.562   4.633   5.736 -0.6221  0.1303  0.3066
24267SOL    HW178893   4.639   4.658   5.787 -0.8944 -0.3689  0.9673
24267SOL    HW278894   4.493   4.621   5.800 -0.4268 -2.7089  0.1338
24268SOL     OW78895   5.491   9.869   1.911 -0.1369 -0.3430 -0.2461
24268SOL    HW178896   5.468   9.848   1.821 -0.9363  0.0841 -0.1480
24268SOL    HW278897   5.483   9.786   1.958 -1.0542 -0.3059 -0.3095
24269SOL     OW78898   2.977   0.908   8.119  0.0685 -0.0770  0.4682
24269SOL    HW178899   2.922   0.830   8.109 -0.3548  0.2123  0.4915
24269SOL    HW278900   2.996   0.934   8.029 -0.2226  0.0882  0.4521
24270SOL     OW78901   0.299   0.242   1.632  0.1830  0.3310 -0.2541
24270SOL    HW178902   0.318   0.305   1.702 -0.9681  0.9491 -0.4649
24270SOL    HW278903   0.219   0.198   1.661  1.4456 -1.7274  0.3141
24271SOL     OW78904   8.884   2.488   1.542  0.0531  0.5489 -0.2620
24271SOL    HW178905   8.841   2.456   1.463 -0.6653  0.6906  0.0605
24271SOL    HW278906   8.816   2.537   1.588 -0.0807 -0.9860  1.2984
24272SOL     OW78907   4.427   8.600   0.449 -0.1189  0.2274 -0.0105
24272SOL    HW178908   4.427   8.547   0.529 -0.4806 -1.7975 -1.2795
24272SOL    HW278909   4.517   8.631   0.441 -0.2762  1.2423  1.6264
24273SOL     OW78910   4.887   8.916   0.266 -0.3740 -0.6365 -0.4281
24273SOL    HW178911   4.976   8.904   0.299  0.3541  0.2435 -1.9611
24273SOL    HW278912   4.836   8.942   0.343  0.3670 -2.4162  0.7383
24274SOL     OW78913   3.245  10.655   4.468 -0.2919 -0.9486 -0.4391
24274SOL    HW178914   3.266  10.617   4.553 -0.7032 -0.8129 -0.2752
24274SOL    HW278915   3.323  10.639   4.414  1.2072  1.5196  0.7930
24275SOL     OW78916   1.788   4.107   3.929 -0.1993  0.7391  0.6957
24275SOL    HW178917   1.822   4.194   3.908 -0.2309  0.3562 -1.0721
24275SOL    HW278918   1.799   4.056   3.848 -1.1015 -0.6174  1.3817
24276SOL     OW78919   4.142   1.592   4.650 -0.3079 -0.3041 -0.6383
24276SOL    HW178920   4.228   1.587   4.692 -0.3050 -0.7088 -0.6936
24276SOL    HW278921   4.115   1.501   4.637 -0.9817 -0.1805 -0.1424
24277SOL     OW78922   3.626   9.374   6.228  0.0804  0.6630 -0.0713
24277SOL    HW178923   3.614   9.448   6.169 -0.8914  0.5689 -0.0185
24277SOL    HW278924   3.564   9.308   6.197  0.0148  0.3703  0.6566
24278SOL     OW78925   0.283   1.023   8.229  0.1090 -0.4019 -0.2132
24278SOL    HW178926   0.240   1.010   8.313 -2.6575 -1.5849 -1.6962
24278SOL    HW278927   0.321   0.938   8.208  1.2185  0.0174 -0.0066
24279SOL     OW78928   1.930   3.249   1.866  0.5275  0.4862  0.1419
24279SOL    HW178929   1.875   3.228   1.791  0.1731  0.4113  0.4214
24279SOL    HW278930   1.982   3.169   1.880 -1.2253 -0.4642  1.5597
24280SOL     OW78931   4.632   7.359   6.836  0.1362  0.7429  0.3070
24280SOL    HW178932   4.634   7.412   6.915 -0.3922 -0.9118  1.4839
24280SOL    HW278933   4.604   7.272   6.866 -0.7737  0.2481 -1.7919
24281SOL     OW78934   2.519   0.823   4.658 -0.0941  0.0103 -0.6284
24281SOL    HW178935   2.461   0.852   4.728 -1.2583 -2.9617 -0.1808
24281SOL    HW278936   2.604   0.862   4.679 -0.9435  1.0353  1.1576
24282SOL     OW78937   0.884   5.707   9.360 -0.3338  0.5081  0.2077
24282SOL    HW178938   0.837   5.750   9.431  0.2776  0.9984  0.3153
24282SOL    HW278939   0.815   5.668   9.306 -0.7583 -1.0231  1.7793
24283SOL     OW78940   3.646   9.300   9.058 -0.2221  0.1613 -0.8488
24283SOL    HW178941   3.628   9.382   9.012 -1.3929 -0.5585 -1.7367
24283SOL    HW278942   3.680   9.327   9.143 -0.8019  1.5649 -1.0342
24284SOL     OW78943   5.319   2.923   7.599 -0.1582  0.3975 -0.0613
24284SOL    HW178944   5.303   2.858   7.668 -1.2866 -0.2000 -0.8638
24284SOL    HW278945   5.345   3.002   7.647 -1.1542  0.0634  1.0749
24285SOL     OW78946   7.244   9.793   1.803  0.3609 -0.7767 -0.3180
24285SOL    HW178947   7.172   9.810   1.742  0.4612  0.3248 -0.1632
24285SOL    HW278948   7.214   9.832   1.886  0.0548 -2.6108  0.4710
24286SOL     OW78949  10.045  10.591  10.714  0.3880  0.4214 -0.6335
24286SOL    HW178950  10.019  10.541  10.636 -0.1702  0.3612 -0.4180
24286SOL    HW278951  10.054  10.526  10.783 -0.7746  0.6503 -0.2443
24287SOL     OW78952   3.788   0.184   4.554  0.0602 -0.0103 -0.0852
24287SOL    HW178953   3.774   0.275   4.581 -0.1009 -0.1763  0.4056
24287SOL    HW278954   3.883   0.174   4.555  0.1016  0.3169 -0.6984
24288SOL     OW78955   1.021   7.244   0.355  0.2341  0.6703 -0.4627
24288SOL    HW178956   1.107   7.238   0.313  0.7364 -0.4524  0.6360
24288SOL    HW278957   1.028   7.319   0.414  0.1683  1.0909 -0.9860
24289SOL     OW78958   4.565   2.916  10.413  0.2245  0.5196 -0.0664
24289SOL    HW178959   4.558   2.861  10.334  0.5358 -1.1363  0.9913
24289SOL    HW278960   4.521   2.997  10.390 -1.9950 -0.8691 -1.1306
24290SOL     OW78961   1.306   1.169   0.425  0.4749 -0.1249  0.2388
24290SOL    HW178962   1.315   1.215   0.509  1.7570  0.4628 -0.1915
24290SOL    HW278963   1.353   1.087   0.437  1.1517  0.2028 -0.0472
24291SOL     OW78964   8.483   3.139   6.545 -0.0776 -0.1357 -0.6178
24291SOL    HW178965   8.477   3.225   6.586  0.1292  0.7358 -2.3154
24291SOL    HW278966   8.402   3.131   6.493  0.6685 -0.2050 -1.8099
24292SOL     OW78967  10.241   3.875   7.453 -0.0347  0.0699 -0.2446
24292SOL    HW178968  10.239   3.813   7.526 -0.9828 -0.8417 -1.0126
24292SOL    HW278969  10.149   3.893   7.435  0.2096  0.8446 -0.7583
24293SOL     OW78970   9.950   2.860   6.553 -0.1047  0.3395  0.5532
24293SOL    HW178971   9.868   2.820   6.584 -0.6339 -0.5477 -1.7636
24293SOL    HW278972   9.922   2.932   6.497  0.6320 -0.3101 -0.7067
24294SOL     OW78973   0.898   3.716   0.563 -0.1301 -0.4303  0.0598
24294SOL    HW178974   0.952   3.781   0.608 -0.1203 -0.6082  0.3068
24294SOL    HW278975   0.904   3.638   0.618 -1.9482  0.0229  0.9833
24295SOL     OW78976  10.885   3.491  10.701 -0.1037  0.1796 -0.1456
24295SOL    HW178977  10.916   3.463  10.614 -2.1254  0.8721 -1.1661
24295SOL    HW278978  10.813   3.551  10.682  0.6866  1.9405  2.0231
24296SOL     OW78979   0.380   7.998   7.640 -0.5090  0.6241 -0.4344
24296SOL    HW178980   0.344   8.061   7.578 -0.2157  0.9489 -0.2757
24296SOL    HW278981   0.445   8.047   7.690 -0.4288  0.2518 -0.1657
24297SOL     OW78982   0.305   0.098   5.627  0.2439  0.6874  0.5003
24297SOL    HW178983   0.234   0.076   5.688 -0.4999 -0.1189 -0.6105
24297SOL    HW278984   0.261   0.143   5.555  0.9807  0.8230  0.1256
24298SOL     OW78985   1.505   6.607   5.675  0.5608  0.6430 -0.3191
24298SOL    HW178986   1.462   6.684   5.637  0.1683 -0.1872 -1.6466
24298SOL    HW278987   1.559   6.573   5.604  0.0426 -0.8070 -0.0631
24299SOL     OW78988   2.556   0.220  10.694 -0.5480 -0.1181 -0.2460
24299SOL    HW178989   2.485   0.245  10.752 -0.3933 -0.2263 -0.0078
24299SOL    HW278990   2.569   0.296  10.637  1.0343  1.0286  1.5417
24300SOL     OW78991   2.373   5.430   6.584  0.3686  0.1137  0.5607
24300SOL    HW178992   2.449   5.486   6.569  1.6162 -1.4319  0.8005
24300SOL    HW278993   2.384   5.358   6.522  0.0312 -1.0186  1.7686
24301SOL     OW78994   4.446   9.564   5.174 -0.2272 -0.2044 -0.2068
24301SOL    HW178995   4.434   9.475   5.139  0.4830 -0.4368  0.1314
24301SOL    HW278996   4.376   9.573   5.239  0.0344 -0.7200  0.1523
24302SOL     OW78997   6.734   4.169   8.372 -0.2014 -0.3756  0.2070
24302SOL    HW178998   6.826   4.196   8.369  0.0157 -1.0559 -2.7880
24302SOL    HW278999   6.736   4.079   8.404 -0.0620  0.1784  1.8525
24303SOL     OW79000   4.773   6.352   8.487 -0.3543 -0.3621 -0.1715
24303SOL    HW179001   4.774   6.311   8.574  0.7419 -0.3325 -0.1460
24303SOL    HW279002   4.770   6.279   8.426 -0.5608 -0.4069 -0.1054
24304SOL     OW79003   0.578   9.286   8.696  0.7905  0.0387 -0.3124
24304SOL    HW179004   0.663   9.301   8.655  0.1284 -0.8554 -2.1026
24304SOL    HW279005   0.517   9.339   8.645  0.2352  0.6787  0.9616
24305SOL     OW79006   4.801   7.244   7.369 -0.4898  0.4775  0.6376
24305SOL    HW179007   4.820   7.322   7.317  1.1185 -0.3917 -0.1654
24305SOL    HW279008   4.875   7.186   7.353 -1.3771 -1.0108  1.6430
24306SOL     OW79009   4.896   8.066   4.996 -0.1600 -0.4536 -0.0797
24306SOL    HW179010   4.953   8.080   5.073  1.8906 -1.1542 -1.3915
24306SOL    HW279011   4.911   7.975   4.972 -1.5127 -0.5029 -0.7676
24307SOL     OW79012   0.260   4.127   3.067 -0.2955  0.4175  0.1019
24307SOL    HW179013   0.309   4.194   3.020  0.4463 -0.7886 -0.9121
24307SOL    HW279014   0.277   4.046   3.018 -0.9095 -0.5714  1.4519
24308SOL     OW79015   5.047   4.177   5.905 -0.9385  0.2452 -0.6034
24308SOL    HW179016   5.129   4.207   5.945 -0.1831  1.3684 -2.8100
24308SOL    HW279017   5.063   4.086   5.882 -0.9691 -0.0611  0.5272
24309SOL     OW79018   2.981   0.872   7.856  0.2335  0.2730 -0.8037
24309SOL    HW179019   2.914   0.805   7.842 -1.0260  0.9185  1.6434
24309SOL    HW279020   2.948   0.950   7.811 -1.0313  0.7718  0.9182
24310SOL     OW79021   9.813   0.319  10.016  0.3676  0.0673  0.3738
24310SOL    HW179022   9.809   0.233   9.974  1.8165 -0.0451  0.4060
24310SOL    HW279023   9.759   0.311  10.094  0.8084 -0.9403  0.5873
24311SOL     OW79024   7.184  10.250   1.984 -0.0871 -0.2500 -0.1796
24311SOL    HW179025   7.118  10.196   1.941 -0.2823  0.1468 -0.3798
24311SOL    HW279026   7.167  10.239   2.077 -0.5257 -0.0415 -0.2322
24312SOL     OW79027   5.712   3.319   7.798 -0.2178 -0.5148 -0.6307
24312SOL    HW179028   5.659   3.282   7.869 -0.8125 -1.4932 -1.5565
24312SOL    HW279029   5.803   3.303   7.825 -0.4403 -1.1002 -0.2002
24313SOL     OW79030  10.755  10.040   2.906 -0.2578  0.4306  0.8679
24313SOL    HW179031  10.832  10.077   2.864  0.0586 -0.4609  0.6607
24313SOL    HW279032  10.787   9.966   2.956 -0.8463  0.6086  1.5363
24314SOL     OW79033  10.106   7.539   1.202  0.3803  0.0450  0.4138
24314SOL    HW179034  10.198   7.525   1.179  0.2172 -0.6662  0.1725
24314SOL    HW279035  10.061   7.461   1.171 -0.6921  1.3399 -1.5089
24315SOL     OW79036   8.183   1.005   9.183 -0.6749  0.2554 -0.0540
24315SOL    HW179037   8.270   0.969   9.165 -0.3659  0.4169  1.0190
24315SOL    HW279038   8.198   1.098   9.197 -0.7503  0.0337  1.7337
24316SOL     OW79039   0.183   1.270   8.179 -0.1769 -0.0997  0.2557
24316SOL    HW179040   0.205   1.180   8.205 -0.3267 -0.5975 -1.2901
24316SOL    HW279041   0.097   1.263   8.139  0.0097  0.6603 -0.2876
24317SOL     OW79042   9.863   2.532   1.637  0.3654 -0.0849 -0.1457
24317SOL    HW179043   9.921   2.468   1.594  0.7748  0.1282  0.0805
24317SOL    HW279044   9.877   2.518   1.730 -1.3022 -1.2542 -0.0240
24318SOL     OW79045   5.998   5.337   3.548 -0.2215 -0.1166 -0.5001
24318SOL    HW179046   5.965   5.265   3.602 -0.9330  0.6654  0.1394
24318SOL    HW279047   6.073   5.371   3.596  0.6092 -0.9226 -1.1980
24319SOL     OW79048   2.113   0.677   6.061 -0.1119  0.4290  0.3378
24319SOL    HW179049   2.084   0.606   6.004 -1.6380  0.2818  1.2336
24319SOL    HW279050   2.160   0.737   6.003 -2.0960  0.5687 -1.2435
24320SOL     OW79051   4.615   4.671   2.514 -0.1552 -0.0481 -0.6151
24320SOL    HW179052   4.567   4.590   2.534  0.7443  0.1390  2.8414
24320SOL    HW279053   4.707   4.648   2.526  0.2417  1.0889 -1.2966
24321SOL     OW79054   9.718   9.253   2.391 -0.9925  0.6504  0.5731
24321SOL    HW179055   9.772   9.331   2.374 -1.0509  0.7683  0.9188
24321SOL    HW279056   9.781   9.187   2.419 -0.4040 -0.6072 -3.2426
24322SOL     OW79057   0.371   1.449   1.177 -0.2668 -0.2422  0.2422
24322SOL    HW179058   0.391   1.357   1.157 -0.4165  0.0146 -1.2099
24322SOL    HW279059   0.356   1.489   1.091 -0.1842  1.1507  0.8565
24323SOL     OW79060   8.670   6.107   0.306 -0.7538 -0.2085  0.2297
24323SOL    HW179061   8.670   6.049   0.381 -0.5498 -0.1164  0.3018
24323SOL    HW279062   8.599   6.169   0.323  0.0529  0.5501  0.9272
24324SOL     OW79063   9.771   2.988   5.300  0.0768 -0.2789  0.0549
24324SOL    HW179064   9.771   2.892   5.300 -1.1714 -0.3138  1.1413
24324SOL    HW279065   9.852   3.012   5.344 -0.1656 -0.8900  0.8747
24325SOL     OW79066   8.834   7.702   7.101 -0.1583 -0.0373 -0.1685
24325SOL    HW179067   8.836   7.699   7.005  0.8308 -1.0125 -0.1411
24325SOL    HW279068   8.825   7.795   7.122 -1.5771  0.0854 -1.2064
24326SOL     OW79069   4.389   6.779   2.845 -0.1921 -0.3024  0.2879
24326SOL    HW179070   4.378   6.777   2.940  0.6847 -0.3272  0.3967
24326SOL    HW279071   4.422   6.867   2.827  1.0246 -0.7745  0.1719
24327SOL     OW79072   6.537   5.565  10.627 -0.9380 -0.9465 -0.4286
24327SOL    HW179073   6.589   5.566  10.546 -0.9685  1.9316 -0.5154
24327SOL    HW279074   6.525   5.658  10.648  0.2169 -1.5327  3.6370
24328SOL     OW79075   4.212   3.361   1.294  0.1896  0.0273 -0.3650
24328SOL    HW179076   4.253   3.314   1.367 -0.7302  2.1046  1.5807
24328SOL    HW279077   4.278   3.425   1.267 -0.6846  1.5340  0.9517
24329SOL     OW79078   2.186   8.257   3.623 -0.0811  0.1523 -0.1194
24329SOL    HW179079   2.133   8.207   3.685  0.7476 -0.6793 -0.0631
24329SOL    HW279080   2.274   8.256   3.661 -0.2494  2.7383  0.5509
24330SOL     OW79081   9.169  10.062   6.329 -0.1244  0.1014  0.5538
24330SOL    HW179082   9.119  10.143   6.321 -0.1794  0.1318  1.1668
24330SOL    HW279083   9.108   9.992   6.307 -0.5721  0.1044  1.7426
24331SOL     OW79084   8.107   3.934   6.026 -0.5341 -0.1335 -0.4377
24331SOL    HW179085   8.095   4.019   6.067  0.7635 -0.2338  0.2129
24331SOL    HW279086   8.022   3.891   6.033 -0.8744  0.6395  0.3503
24332SOL     OW79087   5.090   9.093   1.550 -0.3563  0.2299  0.5476
24332SOL    HW179088   5.129   9.097   1.462  1.1300 -0.9234  1.1149
24332SOL    HW279089   4.996   9.100   1.534 -0.0555  1.3168 -1.0290
24333SOL     OW79090   1.444   5.307   7.777  0.6047  0.4737 -0.0216
24333SOL    HW179091   1.460   5.214   7.764 -1.8638  0.0559 -0.7618
24333SOL    HW279092   1.522   5.350   7.744  1.6065 -1.3110 -0.1047
24334SOL     OW79093  10.827   6.784   0.770 -0.4067  0.2934 -0.3932
24334SOL    HW179094  10.764   6.834   0.822 -0.4280  0.0002 -0.1348
24334SOL    HW279095  10.802   6.801   0.679 -1.4843 -0.5948 -0.2921
24335SOL     OW79096   0.373   2.888   2.412  0.0695 -0.1031 -0.1125
24335SOL    HW179097   0.287   2.869   2.450  0.6459  0.3493  1.4605
24335SOL    HW279098   0.434   2.881   2.485  1.3674 -0.2265 -1.1687
24336SOL     OW79099   1.938  10.068   0.779 -0.5904  0.3778  0.1307
24336SOL    HW179100   1.865  10.109   0.732 -0.0522  0.7809 -0.3722
24336SOL    HW279101   1.901  10.044   0.864 -1.2877  0.6489 -0.0856
24337SOL     OW79102   8.501   2.597   6.830  0.3773 -0.0444 -0.3810
24337SOL    HW179103   8.531   2.680   6.793 -0.6074 -0.3345 -1.9682
24337SOL    HW279104   8.411   2.615   6.859 -0.0539 -0.6500 -1.2640
24338SOL     OW79105   5.428   6.002   3.027 -0.4449  0.1840 -0.5338
24338SOL    HW179106   5.411   5.950   3.106  1.6917  0.8448  0.4271
24338SOL    HW279107   5.411   5.941   2.955 -1.8898 -0.6095  0.4236
24339SOL     OW79108   3.202   0.796   2.129  0.0838  0.2726  0.2727
24339SOL    HW179109   3.142   0.866   2.104 -0.7414 -1.0481 -1.7244
24339SOL    HW279110   3.224   0.814   2.221 -1.9190  1.8304  0.5066
24340SOL     OW79111   9.294   9.991   3.777 -0.2438 -0.0726  0.3824
24340SOL    HW179112   9.389   9.981   3.785 -0.1533  0.0684 -0.4457
24340SOL    HW279113   9.261   9.901   3.770 -0.2624 -0.1703  1.4401
24341SOL     OW79114   6.020   8.774   8.837 -0.0426  0.0805  0.3346
24341SOL    HW179115   6.090   8.835   8.814 -0.6930  1.0032  0.7781
24341SOL    HW279116   5.992   8.737   8.753  1.1096 -0.4712  0.1668
24342SOL     OW79117   4.724   8.608   3.870  0.0216  0.2777  0.7630
24342SOL    HW179118   4.789   8.674   3.848  0.0246 -0.3057 -1.1308
24342SOL    HW279119   4.774   8.530   3.893  0.1615 -0.8911 -2.8681
24343SOL     OW79120   2.260   2.992   7.286 -0.6087  0.2445  0.3512
24343SOL    HW179121   2.285   2.904   7.261 -2.2571 -0.0744 -0.3279
24343SOL    HW279122   2.206   2.981   7.364  1.0210  0.8837  1.6335
24344SOL     OW79123   0.116   8.123   9.301  0.1118 -0.0636 -0.6236
24344SOL    HW179124   0.121   8.092   9.210 -2.3662 -0.8421 -0.5835
24344SOL    HW279125   0.133   8.044   9.353  2.4862  0.5772 -0.3384
24345SOL     OW79126   3.380   5.631   5.712 -0.4122  0.1871 -0.1142
24345SOL    HW179127   3.386   5.583   5.795  0.2945  0.0599 -0.2322
24345SOL    HW279128   3.344   5.717   5.737 -3.9529 -1.0869 -0.1900
24346SOL     OW79129   1.110   5.039  10.578  0.3279  0.5492  0.2381
24346SOL    HW179130   1.077   5.013  10.664  1.8842 -2.4277  0.0793
24346SOL    HW279131   1.049   4.999  10.516  0.7861  0.2602 -0.0307
24347SOL     OW79132  10.879   9.460   2.066 -0.5653  0.0206 -0.4211
24347SOL    HW179133  10.931   9.431   1.991 -1.2891  1.0976 -1.3779
24347SOL    HW279134  10.914   9.546   2.088 -2.4193  1.1629 -1.6397
24348SOL     OW79135  10.529   6.823   5.401 -0.3876 -0.2774  0.3621
24348SOL    HW179136  10.499   6.782   5.319 -0.7450  0.6030  0.0423
24348SOL    HW279137  10.587   6.758   5.440 -0.0444 -0.6277 -0.6941
24349SOL     OW79138   0.087   3.885   4.421  0.4327  0.6643  0.0850
24349SOL    HW179139   0.086   3.931   4.506 -0.7783  0.4171  0.2169
24349SOL    HW279140  -0.004   3.888   4.391 -0.1408 -3.1120  0.9139
24350SOL     OW79141   1.934   1.527   5.127  0.2847 -0.1101  0.3781
24350SOL    HW179142   2.016   1.492   5.159 -0.1087 -0.7789  0.6653
24350SOL    HW279143   1.931   1.503   5.034  0.5293  0.1442  0.3034
24351SOL     OW79144   3.565   4.647   3.527 -0.2441 -0.2196 -0.2286
24351SOL    HW179145   3.648   4.693   3.540  0.4883 -1.4827 -0.2600
24351SOL    HW279146   3.590   4.562   3.491 -1.5514 -0.6796 -0.1059
24352SOL     OW79147   6.563   1.111  10.830 -0.5633 -0.1924 -0.0598
24352SOL    HW179148   6.655   1.097  10.852  0.0949  0.8454 -1.8797
24352SOL    HW279149   6.540   1.036  10.775 -0.9542 -0.6733  0.7447
24353SOL     OW79150   5.235   4.268   7.115 -0.2280  0.7731  0.4417
24353SOL    HW179151   5.208   4.269   7.207 -0.7298  0.0795  0.3115
24353SOL    HW279152   5.161   4.307   7.068 -0.0439  0.9656  0.3072
24354SOL     OW79153   3.387   5.650   3.884 -0.6304 -0.5221 -0.5149
24354SOL    HW179154   3.327   5.576   3.892 -0.4341 -0.7683 -1.2909
24354SOL    HW279155   3.331   5.724   3.859 -1.0820  0.0018  1.7905
24355SOL     OW79156   4.819  10.782   7.968  0.3255 -0.1925 -0.1722
24355SOL    HW179157   4.824  10.864   8.018 -1.5623 -0.4884  0.5609
24355SOL    HW279158   4.807  10.714   8.035  0.3481 -0.8928 -0.8733
24356SOL     OW79159   0.948  10.023   2.941 -0.1053 -0.2742  0.1401
24356SOL    HW179160   0.995   9.947   2.908  0.7515  0.4898 -0.4466
24356SOL    HW279161   0.929  10.075   2.862 -0.1166  0.4267  0.5931
24357SOL     OW79162   7.642  10.659   4.348 -0.1446 -0.1002  0.5768
24357SOL    HW179163   7.683  10.744   4.364 -0.0688  0.7252 -3.1373
24357SOL    HW279164   7.565  10.658   4.405  0.9695  1.4919  2.2366
24358SOL     OW79165  10.862   0.657  10.781  0.1792  0.3912  0.0782
24358SOL    HW179166  10.807   0.733  10.799  1.5152  1.6868 -1.0415
24358SOL    HW279167  10.938   0.669  10.837  0.3372 -0.1967 -0.0058
24359SOL     OW79168   7.796   9.364   7.912  0.4905  0.0223  0.1929
24359SOL    HW179169   7.879   9.379   7.866  2.5035 -1.3951  3.0355
24359SOL    HW279170   7.782   9.444   7.962  1.4521 -0.5681  1.4638
24360SOL     OW79171   1.994   6.238   7.526  0.2306 -0.2046 -0.5065
24360SOL    HW179172   2.075   6.287   7.539  0.3778 -0.2556 -1.1815
24360SOL    HW279173   1.946   6.249   7.608  0.8980 -0.1371 -0.1193
24361SOL     OW79174   8.449   2.036   2.770 -0.3698 -0.3100  0.0219
24361SOL    HW179175   8.464   1.983   2.692  0.9326 -0.0127  0.0551
24361SOL    HW279176   8.362   2.009   2.801  0.5851 -3.0719  0.5492
24362SOL     OW79177   5.885   6.167   9.114 -0.1001  0.2302 -0.7213
24362SOL    HW179178   5.832   6.119   9.178 -0.1397  0.7174 -0.3828
24362SOL    HW279179   5.926   6.237   9.165 -0.1743  0.6543 -1.2403
24363SOL     OW79180  10.021   8.618   0.047  0.2531 -0.0713  0.4507
24363SOL    HW179181  10.061   8.671  -0.022 -0.1403  0.1549  0.3954
24363SOL    HW279182  10.029   8.672   0.126  0.6591 -0.3098  0.5773
24364SOL     OW79183   0.460   8.682  10.376  0.3287  0.7091 -0.0997
24364SOL    HW179184   0.455   8.742  10.450  2.4416  1.9257 -0.8605
24364SOL    HW279185   0.448   8.595  10.414 -1.2001  1.4802  1.2553
24365SOL     OW79186   9.801   9.926   2.410 -0.1271  0.0234 -0.2313
24365SOL    HW179187   9.706   9.925   2.400 -0.0682  0.9050 -1.0529
24365SOL    HW279188   9.819   9.859   2.475 -1.2759 -0.4639 -0.3900
24366SOL     OW79189   2.303   8.012   2.428  0.1216 -0.5275  0.2028
24366SOL    HW179190   2.290   8.103   2.400  0.2064 -0.5848 -0.0267
24366SOL    HW279191   2.244   8.001   2.502  0.4455 -0.1493  0.5157
24367SOL     OW79192   4.753   3.715   9.558  0.0984 -0.3010 -0.0620
24367SOL    HW179193   4.844   3.693   9.539  0.7922  1.8295  0.5059
24367SOL    HW279194   4.754   3.739   9.651 -0.8321  0.7636 -0.3141
24368SOL     OW79195   4.435   3.435   3.430 -0.0445  0.0191 -0.3011
24368SOL    HW179196   4.433   3.385   3.348 -0.1515  0.6151 -0.6766
24368SOL    HW279197   4.362   3.497   3.421  0.7311  0.9539 -0.3308
24369SOL     OW79198   2.193   0.499   1.298 -0.3520  0.4325  0.4447
24369SOL    HW179199   2.278   0.530   1.266 -0.1859  2.3520  2.4931
24369SOL    HW279200   2.141   0.485   1.218  1.2148  1.2328 -0.7787
24370SOL     OW79201   1.589  10.026   2.547  0.4365 -0.0463  0.5170
24370SOL    HW179202   1.612  10.087   2.477 -1.0912  1.3332  1.1619
24370SOL    HW279203   1.674   9.994   2.579  1.1763 -0.5360 -1.7466
24371SOL     OW79204   3.049   8.339   5.491  0.0922 -0.3849 -0.4823
24371SOL    HW179205   3.059   8.245   5.501 -0.0562 -0.2696  0.9613
24371SOL    HW279206   3.123   8.366   5.435  0.0266 -1.3624 -1.0548
24372SOL     OW79207   2.100  10.160   2.144  0.3244 -0.1085 -0.2253
24372SOL    HW179208   2.102  10.239   2.198 -0.7166  0.2469 -0.6634
24372SOL    HW279209   2.095  10.088   2.206  1.1995  0.1667  0.1793
24373SOL     OW79210   4.665   6.456   4.125 -0.7075  0.2254 -0.7448
24373SOL    HW179211   4.625   6.452   4.039  0.6655  1.4281 -1.4897
24373SOL    HW279212   4.669   6.549   4.146  0.4359  0.0670 -0.1338
24374SOL     OW79213   9.107  10.708   4.689 -0.1894 -0.1948 -0.1605
24374SOL    HW179214   9.142  10.759   4.616 -2.5307 -0.6519 -1.7171
24374SOL    HW279215   9.026  10.753   4.713 -1.5653 -2.2475 -0.6102
24375SOL     OW79216   3.377   0.423   1.597 -0.0359  0.2328  0.1788
24375SOL    HW179217   3.459   0.467   1.573 -0.1732  0.7140  0.5624
24375SOL    HW279218   3.309   0.489   1.579 -0.1803  0.4358  1.4217
24376SOL     OW79219   3.072   5.769   0.756 -0.3497 -0.0102 -0.1095
24376SOL    HW179220   3.091   5.814   0.674 -1.7181 -0.3071 -0.6255
24376SOL    HW279221   3.121   5.818   0.822 -0.0617  0.8822 -0.9621
24377SOL     OW79222   0.538   0.365   3.634 -0.1334  0.0947 -0.0350
24377SOL    HW179223   0.589   0.285   3.645 -0.9137 -0.1526  2.3802
24377SOL    HW279224   0.577   0.427   3.695 -1.0752  0.7432 -0.0694
24378SOL     OW79225   7.600   8.671   7.034 -0.4186 -0.4240 -0.0667
24378SOL    HW179226   7.649   8.689   6.955 -2.1528 -0.6398 -1.2491
24378SOL    HW279227   7.590   8.575   7.035 -3.1597 -0.2475 -1.4262
24379SOL     OW79228   8.257   6.340   8.482  0.0580  0.1061  0.1627
24379SOL    HW179229   8.313   6.310   8.410 -1.1205  1.0652 -1.2060
24379SOL    HW279230   8.241   6.432   8.463  0.7661  0.7429  2.3872
24380SOL     OW79231   2.492   4.606   3.419 -0.7734 -0.3164 -0.3738
24380SOL    HW179232   2.425   4.538   3.409 -0.4731 -1.3598  3.0771
24380SOL    HW279233   2.573   4.563   3.394 -0.5789 -1.4081  1.8401
24381SOL     OW79234   2.432   3.243   9.326  0.2135 -0.1546 -0.4142
24381SOL    HW179235   2.527   3.241   9.332  0.2005  0.7811  0.3223
24381SOL    HW279236   2.406   3.319   9.378 -0.7807  1.2572 -2.8002
24382SOL     OW79237   3.904   1.962   2.451 -0.2771 -0.6363 -0.1897
24382SOL    HW179238   3.995   1.947   2.477 -0.3020 -1.1097 -0.3710
24382SOL    HW279239   3.879   2.043   2.496 -0.0324 -0.9585  0.5317
24383SOL     OW79240   7.674  10.598   2.505 -0.4681 -0.1074  0.4079
24383SOL    HW179241   7.680  10.561   2.593 -0.1205  0.3486  0.5803
24383SOL    HW279242   7.653  10.524   2.449  0.9521 -0.7243  0.6373
24384SOL     OW79243   0.049   8.390   9.356 -0.2833  0.2995 -0.0284
24384SOL    HW179244   0.099   8.432   9.286  0.1284  0.0509  0.1125
24384SOL    HW279245   0.060   8.296   9.340 -0.0892  0.2414  0.4351
24385SOL     OW79246   2.864   0.961   1.120 -0.1622 -0.6151 -0.8551
24385SOL    HW179247   2.889   0.869   1.106  1.1795 -0.0989 -2.0904
24385SOL    HW279248   2.897   1.007   1.043  0.3304  1.1192  0.3204
24386SOL     OW79249  10.512   0.380   8.271 -0.2038  0.1508 -0.1230
24386SOL    HW179250  10.590   0.333   8.300 -0.7480 -0.5783  0.1942
24386SOL    HW279251  10.454   0.378   8.346 -1.1537 -0.7105 -0.8398
24387SOL     OW79252   3.672   6.096   6.167 -0.2533 -0.3857  0.9326
24387SOL    HW179253   3.587   6.104   6.209  0.6014  1.4496  2.4153
24387SOL    HW279254   3.678   6.172   6.110  0.0523 -0.9922  0.1293
24388SOL     OW79255   0.229   3.421   1.449  0.1437  0.5234 -0.4720
24388SOL    HW179256   0.178   3.468   1.515  2.8635  2.2141  0.6141
24388SOL    HW279257   0.222   3.475   1.370 -0.3485  0.3196 -0.5733
24389SOL     OW79258   1.486   1.718   3.860  0.8645  0.5544 -0.1541
24389SOL    HW179259   1.413   1.705   3.801  1.4811 -1.6990 -0.5043
24389SOL    HW279260   1.454   1.690   3.946  0.5832  1.9587  0.2330
24390SOL     OW79261   0.570   4.225   5.982 -0.4818 -0.9334  0.2065
24390SOL    HW179262   0.629   4.154   6.008  0.9206  0.2087  0.3218
24390SOL    HW279263   0.518   4.243   6.059 -1.1192 -2.0785  0.0569
24391SOL     OW79264   7.563   5.218   7.389  0.0343 -0.6623  0.2436
24391SOL    HW179265   7.470   5.204   7.407 -0.0184 -0.8615 -0.1639
24391SOL    HW279266   7.606   5.137   7.417  0.1946 -0.2707  1.1680
24392SOL     OW79267   3.357  10.450   8.831  0.8022  0.1922  0.0370
24392SOL    HW179268   3.389  10.514   8.895  0.7361 -0.1276  0.3957
24392SOL    HW279269   3.299  10.393   8.882  0.0184  0.4963 -0.5111
24393SOL     OW79270   1.198   1.897   4.310  0.6718  1.0136  0.0048
24393SOL    HW179271   1.124   1.955   4.293  0.2859  0.7317  0.6742
24393SOL    HW279272   1.179   1.858   4.395  0.9947  0.0215 -0.3603
24394SOL     OW79273  10.181   0.289   0.937  0.0409  0.2741 -0.2033
24394SOL    HW179274  10.185   0.369   0.989  1.1163 -0.2264  0.5279
24394SOL    HW279275  10.206   0.219   0.998  0.6710 -0.4095 -1.2151
24395SOL     OW79276   2.055   9.130   8.248  0.1767  0.0433  0.0340
24395SOL    HW179277   1.983   9.099   8.303 -0.1650  1.3186  0.3326
24395SOL    HW279278   2.090   9.051   8.207 -1.0050 -0.6604  0.3572
24396SOL     OW79279   5.420   3.095   5.689  0.0544  0.0158  0.1884
24396SOL    HW179280   5.434   3.178   5.643 -0.1157 -1.1677 -2.1460
24396SOL    HW279281   5.326   3.091   5.705  0.0415  0.1945  0.1532
24397SOL     OW79282   4.833  10.830  10.586  0.0676 -0.0271 -0.4753
24397SOL    HW179283   4.812  10.751  10.536  0.3445 -0.0166 -0.6142
24397SOL    HW279284   4.902  10.872  10.535 -0.2832  0.4593 -0.5556
24398SOL     OW79285   6.098   7.975   4.336 -0.4071 -0.0145  0.2182
24398SOL    HW179286   6.124   8.065   4.320  0.5536  0.0895  2.0089
24398SOL    HW279287   6.123   7.928   4.257  0.9557  0.9511  0.0373
24399SOL     OW79288   3.937   2.847   0.416 -0.4815  0.4787 -0.1934
24399SOL    HW179289   3.955   2.802   0.333 -1.2673  0.8232 -0.5636
24399SOL    HW279290   3.937   2.778   0.482  0.1296  0.1969 -0.4801
24400SOL     OW79291   1.079   8.137   1.844 -0.3502  0.5961  0.3156
24400SOL    HW179292   1.148   8.133   1.778  1.2570 -0.4547  1.9626
24400SOL    HW279293   1.001   8.106   1.799  0.2178  1.7812 -1.5955
24401SOL     OW79294   5.975   1.205   1.646  0.0291  0.0610 -0.0564
24401SOL    HW179295   5.908   1.230   1.582  0.7526  1.0037 -0.4666
24401SOL    HW279296   5.983   1.281   1.704  0.0533 -0.4247  0.5865
24402SOL     OW79297   7.829   1.489   2.856 -0.4247  0.4224  0.2085
24402SOL    HW179298   7.876   1.418   2.900  2.1724  1.2786 -0.9791
24402SOL    HW279299   7.811   1.553   2.925 -1.3696 -0.6346  0.9830
24403SOL     OW79300   8.898   2.881   9.360  0.5453  0.6198  0.4515
24403SOL    HW179301   8.855   2.796   9.372  2.8464 -0.8688 -1.1393
24403SOL    HW279302   8.863   2.935   9.432 -0.3783 -1.8935  2.0449
24404SOL     OW79303   4.756   2.765   7.415 -0.1149 -0.0071 -0.0404
24404SOL    HW179304   4.777   2.674   7.433 -1.2618 -0.3732 -0.4648
24404SOL    HW279305   4.768   2.775   7.320 -0.6109  0.1007 -0.0973
24405SOL     OW79306   3.680   4.872   8.601  0.2779 -0.1330  0.6861
24405SOL    HW179307   3.672   4.968   8.598 -0.5524 -0.2220 -2.0704
24405SOL    HW279308   3.609   4.840   8.546  0.9902 -2.3236  0.9626
24406SOL     OW79309   7.975   4.382   8.176  0.3529 -0.0610  0.3214
24406SOL    HW179310   7.927   4.362   8.256  0.6189  0.1285  0.5308
24406SOL    HW279311   7.960   4.307   8.119  0.9860 -0.6557  0.9315
24407SOL     OW79312   7.991   7.832   3.556 -0.1068  0.1234  0.3929
24407SOL    HW179313   7.933   7.758   3.538  0.0628 -0.2071  1.1712
24407SOL    HW279314   7.969   7.897   3.489  0.5176 -1.0575 -1.0307
24408SOL     OW79315   9.505   2.093   3.316 -0.2629  0.4597 -0.0543
24408SOL    HW179316   9.452   2.046   3.381 -1.6461 -0.6071 -1.8502
24408SOL    HW279317   9.502   2.037   3.238  1.4266  1.6340 -1.0269
24409SOL     OW79318   2.397   7.615   6.493  0.3009 -0.0584  0.0087
24409SOL    HW179319   2.455   7.651   6.426  1.7764 -0.5559  0.9480
24409SOL    HW279320   2.435   7.529   6.513 -0.4914 -0.1961  1.0103
24410SOL     OW79321   5.257   3.246   7.377 -0.6604  0.2686 -0.0800
24410SOL    HW179322   5.247   3.336   7.346 -2.1980  0.0251 -0.3660
24410SOL    HW279323   5.316   3.205   7.313  1.0804  1.3614  0.7423
24411SOL     OW79324   8.859   6.158  10.667  0.0603 -0.4735 -0.2947
24411SOL    HW179325   8.792   6.173  10.733  0.8578  1.8629  0.0665
24411SOL    HW279326   8.816   6.176  10.584  0.3914  1.9791 -0.0065
24412SOL     OW79327   5.455  10.688   4.469 -0.1566 -0.4703  0.4682
24412SOL    HW179328   5.480  10.757   4.531  1.9186 -0.6685 -0.0664
24412SOL    HW279329   5.443  10.734   4.386 -1.5793 -0.3970  0.6899
24413SOL     OW79330   3.252   0.790   5.813  0.0607  0.1079  0.4125
24413SOL    HW179331   3.205   0.873   5.815 -0.9924 -0.4441 -0.2928
24413SOL    HW279332   3.337   0.811   5.776 -0.4550  0.7614 -0.4454
24414SOL     OW79333   5.413   5.062  10.013  0.1423  0.0093  0.0932
24414SOL    HW179334   5.334   5.055  10.067  1.0880  2.2258  1.9457
24414SOL    HW279335   5.458   4.978  10.025 -1.0072 -0.5520  0.5475
24415SOL     OW79336   1.462   7.183   1.149  0.9765  0.3266  0.3773
24415SOL    HW179337   1.518   7.219   1.218  2.0668 -0.4593 -0.0750
24415SOL    HW279338   1.522   7.139   1.090  0.1171  1.3712 -1.3543
24416SOL     OW79339   7.395   8.283   8.055 -0.1774 -0.3373  0.2149
24416SOL    HW179340   7.323   8.299   8.115 -1.8451 -0.1007 -1.7488
24416SOL    HW279341   7.446   8.364   8.057 -0.5116 -0.1372  0.8875
24417SOL     OW79342   2.453   8.063   2.798 -0.0969  0.0172 -0.2090
24417SOL    HW179343   2.372   8.042   2.843  0.3252  1.6391  1.4338
24417SOL    HW279344   2.487   7.978   2.769 -1.5595 -0.8405  0.4664
24418SOL     OW79345   4.365  10.036   5.232 -0.1089 -0.2961  0.2924
24418SOL    HW179346   4.321  10.045   5.147 -0.7096 -0.9167  0.5324
24418SOL    HW279347   4.305  10.076   5.294  1.5935  2.8757  0.1185
24419SOL     OW79348   9.078   3.068   7.504 -0.2125  0.0223 -0.3081
24419SOL    HW179349   8.993   3.086   7.465  0.1884  0.9687 -0.7721
24419SOL    HW279350   9.122   3.011   7.440  0.3800  1.4370 -1.2021
24420SOL     OW79351   8.735   3.789   4.987 -0.7776  0.4357 -0.0806
24420SOL    HW179352   8.662   3.850   4.993 -0.8162  0.2527  2.2172
24420SOL    HW279353   8.769   3.783   5.076  0.6249 -1.2228 -0.6588
24421SOL     OW79354   6.176   7.753   0.613 -0.3839 -0.4119 -1.0714
24421SOL    HW179355   6.094   7.765   0.660 -0.0750  1.4028 -0.9616
24421SOL    HW279356   6.187   7.657   0.608 -0.1623 -0.7618  2.9668
24422SOL     OW79357   3.888   4.964   9.361 -0.1526  0.7546 -0.0608
24422SOL    HW179358   3.950   4.988   9.292 -0.9519  0.1271 -1.0205
24422SOL    HW279359   3.856   5.047   9.395  1.8333  1.1297  1.0743
24423SOL     OW79360   5.561   2.506   6.855 -0.0499 -0.0635  0.2500
24423SOL    HW179361   5.591   2.594   6.831  0.4915 -0.5855 -1.0474
24423SOL    HW279362   5.488   2.488   6.797  1.3830 -1.4032 -1.2363
24424SOL     OW79363   6.167   0.361   9.568 -0.1365  0.5575 -0.2797
24424SOL    HW179364   6.178   0.456   9.567  0.2288  0.5512  1.1593
24424SOL    HW279365   6.176   0.335   9.476  1.9604  1.6615 -0.4544
24425SOL     OW79366   3.555   9.836   7.116  0.7218 -0.2633  0.2687
24425SOL    HW179367   3.647   9.857   7.135  0.2602  0.7025  1.5962
24425SOL    HW279368   3.506   9.880   7.185 -0.6581 -2.0020  0.4623
24426SOL     OW79369   9.668   3.754   1.067 -0.4236 -0.3506 -0.2621
24426SOL    HW179370   9.589   3.706   1.042 -1.8727  0.9600  1.5056
24426SOL    HW279371   9.690   3.806   0.989 -2.1028  0.2515 -0.3746
24427SOL     OW79372   3.654   8.656   6.385 -0.4162  0.0857  0.1646
24427SOL    HW179373   3.678   8.611   6.466  0.1995 -0.8928 -0.5338
24427SOL    HW279374   3.699   8.740   6.391 -0.7085  0.1941  1.0171
24428SOL     OW79375   2.667   2.170   8.600 -0.0825  0.2831 -0.1745
24428SOL    HW179376   2.594   2.232   8.598  0.5782  1.0495 -1.1333
24428SOL    HW279377   2.740   2.217   8.562  1.1565 -0.2068  1.4851
24429SOL     OW79378   1.997   9.914  10.486 -0.7826  0.2142 -0.1264
24429SOL    HW179379   2.024   9.834  10.440  0.5915  1.3632 -1.4831
24429SOL    HW279380   2.059   9.980  10.454 -1.8586  1.8053  0.9713
24430SOL     OW79381   9.412   4.058  10.103 -0.4938 -0.1474 -0.4226
24430SOL    HW179382   9.496   4.088  10.139 -0.6634 -1.6062  1.3068
24430SOL    HW279383   9.359   4.138  10.097 -0.1096  0.3091  1.6670
24431SOL     OW79384   1.486   4.162   8.164 -0.7924 -0.2592  0.7093
24431SOL    HW179385   1.430   4.172   8.087 -1.6273 -0.3898  1.2855
24431SOL    HW279386   1.575   4.158   8.129 -1.0835  0.6367 -0.1747
24432SOL     OW79387   8.241  10.290   8.732 -0.0302 -0.0361  0.2399
24432SOL    HW179388   8.237  10.247   8.817 -0.9153  0.1253  0.2884
24432SOL    HW279389   8.327  10.266   8.697 -0.3303 -1.4755  0.4425
24433SOL     OW79390   5.111   9.557   5.479  0.1318 -0.5632 -0.3416
24433SOL    HW179391   5.092   9.651   5.473 -1.3775 -0.8807 -0.8268
24433SOL    HW279392   5.025   9.515   5.476  0.8027 -1.9757 -0.3057
24434SOL     OW79393   4.332   0.592   8.057  0.5012 -0.0964  0.3143
24434SOL    HW179394   4.355   0.618   8.147 -0.2564  2.5488 -0.1793
24434SOL    HW279395   4.415   0.563   8.019  0.7845 -1.5558  1.9016
24435SOL     OW79396   9.779   8.981   3.984 -0.1929  0.8406  0.1301
24435SOL    HW179397   9.850   8.924   4.015 -1.2371  0.6054  2.2900
24435SOL    HW279398   9.725   8.995   4.062 -0.2347  4.4390 -0.3921
24436SOL     OW79399   6.662   3.096   7.322  0.2413 -0.4590  0.2627
24436SOL    HW179400   6.610   3.027   7.363 -2.6705  0.9299 -0.7732
24436SOL    HW279401   6.661   3.168   7.386 -0.4578  0.1136 -0.3742
24437SOL     OW79402   3.859   9.773  10.347  0.3205  0.5683 -0.5299
24437SOL    HW179403   3.924   9.797  10.281  0.3384 -0.3154 -0.8491
24437SOL    HW279404   3.776   9.804  10.311  0.5540  1.8749 -0.0333
24438SOL     OW79405   1.933   9.252   8.879 -0.1861 -0.3457 -0.2232
24438SOL    HW179406   2.001   9.247   8.945 -1.3657  0.7856  1.1510
24438SOL    HW279407   1.874   9.179   8.900  0.8978 -1.7502 -1.8271
24439SOL     OW79408   7.276   3.914   6.096 -0.5720  0.7755  0.0763
24439SOL    HW179409   7.269   3.962   6.014 -0.3340  0.2408 -0.2670
24439SOL    HW279410   7.343   3.848   6.079  0.1066  1.2151  0.9840
24440SOL     OW79411   0.856   1.434  10.381 -0.2089  0.1463  0.5649
24440SOL    HW179412   0.771   1.466  10.352 -1.4244 -1.1466  2.5018
24440SOL    HW279413   0.836   1.357  10.433  2.3163 -1.3745 -0.5353
24441SOL     OW79414   8.412  10.193   4.808  0.4184  0.0512 -0.0804
24441SOL    HW179415   8.338  10.246   4.837  0.5047  0.6550 -0.9067
24441SOL    HW279416   8.374  10.107   4.789 -0.1332  0.4157 -0.6999
24442SOL     OW79417   1.204   9.086   4.494 -0.2349 -0.4337  0.1625
24442SOL    HW179418   1.134   9.040   4.448  0.1046  0.9283 -1.8500
24442SOL    HW279419   1.160   9.162   4.533  0.1268  0.6219 -1.4105
24443SOL     OW79420   4.039   7.289   2.157  0.1067 -0.1713 -0.0294
24443SOL    HW179421   4.123   7.299   2.112 -0.5480  0.1186 -1.2513
24443SOL    HW279422   4.036   7.363   2.217 -0.8540  2.1422 -2.6917
24444SOL     OW79423   6.841   1.217   2.148  0.2950  0.0074 -0.1748
24444SOL    HW179424   6.881   1.297   2.115  0.1622 -0.5343 -1.7594
24444SOL    HW279425   6.870   1.149   2.087 -1.9121 -0.6437 -0.6175
24445SOL     OW79426   9.414   7.116   8.032 -0.3336  0.2740  0.0281
24445SOL    HW179427   9.449   7.055   7.967 -0.6027  1.9616 -1.8127
24445SOL    HW279428   9.416   7.201   7.988 -2.3292  1.1943  1.5427
24446SOL     OW79429   5.160   6.793  10.430 -0.1286  0.1319  0.4161
24446SOL    HW179430   5.180   6.877  10.473 -3.6311  0.7422  1.1844
24446SOL    HW279431   5.147   6.816  10.338 -2.0912  0.7324  0.7925
24447SOL     OW79432   1.705   5.300   5.058  0.0331 -0.1648 -0.0588
24447SOL    HW179433   1.781   5.358   5.050  0.3962 -0.6822 -0.3881
24447SOL    HW279434   1.653   5.339   5.129 -0.3233  1.2135 -1.0294
24448SOL     OW79435   1.064  10.840   7.146 -0.5149  0.0115  0.5144
24448SOL    HW179436   1.133  10.887   7.099 -0.2992  1.1109  1.8648
24448SOL    HW279437   1.082  10.747   7.130  0.9926  0.2951  0.4753
24449SOL     OW79438   5.370   5.669  10.330  0.1449 -0.2303 -0.3246
24449SOL    HW179439   5.341   5.720  10.406  1.4880  0.3725 -0.1850
24449SOL    HW279440   5.311   5.696  10.260 -0.4235  0.0216  0.2414
24450SOL     OW79441   3.744   6.944   8.202  0.0316  0.4543  0.7090
24450SOL    HW179442   3.812   6.988   8.252 -0.2939  0.4528  1.1611
24450SOL    HW279443   3.683   6.911   8.268  0.6214 -1.2780  0.4096
24451SOL     OW79444   2.222  10.834   0.198  0.9448 -0.9407 -0.0018
24451SOL    HW179445   2.145  10.888   0.214  1.7539 -0.1459  1.4142
24451SOL    HW279446   2.188  10.745   0.192 -0.1485 -0.5341 -0.1303
24452SOL     OW79447   4.614   9.130   2.005  0.0977 -0.2820 -0.1706
24452SOL    HW179448   4.684   9.194   2.021 -0.9656  1.0370 -0.5435
24452SOL    HW279449   4.647   9.049   2.042  2.5041 -0.1379 -1.7450
24453SOL     OW79450   9.757   2.504   9.937 -0.0443  0.1995 -0.4570
24453SOL    HW179451   9.822   2.574   9.942 -1.0699  1.1120  1.8842
24453SOL    HW279452   9.803   2.431   9.896  1.1162  2.1325 -2.8215
24454SOL     OW79453  10.647   1.747   2.178  0.0528 -0.7078 -0.3663
24454SOL    HW179454  10.711   1.677   2.186 -0.6383 -1.2941  0.1798
24454SOL    HW279455  10.627   1.751   2.085 -0.2995 -1.6144 -0.3368
24455SOL     OW79456  10.769   1.738   4.985 -0.4869 -0.0596 -0.3040
24455SOL    HW179457  10.858   1.756   5.016  0.0150 -1.6345 -0.7039
24455SOL    HW279458  10.740   1.821   4.945  0.9316  0.3922 -0.4595
24456SOL     OW79459   1.780   1.592   4.265  0.0916 -0.0840 -0.4637
24456SOL    HW179460   1.756   1.685   4.273 -0.7475 -0.4205  2.6061
24456SOL    HW279461   1.709   1.554   4.213 -0.2028  0.7983 -0.7346
24457SOL     OW79462   1.138   5.894   8.094 -0.1468  0.2041 -0.3818
24457SOL    HW179463   1.206   5.961   8.087  0.7815 -0.6377  0.2070
24457SOL    HW279464   1.161   5.830   8.027  0.8056 -1.0449  1.0684
24458SOL     OW79465   7.439   9.352   4.274 -0.2079  0.0490  0.1703
24458SOL    HW179466   7.462   9.343   4.181 -2.3048 -3.3100 -0.2179
24458SOL    HW279467   7.352   9.392   4.273 -0.7461 -1.0726  0.5480
24459SOL     OW79468   2.314   4.639   7.015  0.0363 -0.2218  0.0961
24459SOL    HW179469   2.250   4.622   7.084  0.6548  1.5152  1.1649
24459SOL    HW279470   2.306   4.733   6.998  0.4198 -0.4739 -1.6924
24460SOL     OW79471   0.708   5.341   7.442 -0.1885  0.4610 -0.3090
24460SOL    HW179472   0.670   5.401   7.506  1.2106 -0.3350  1.3302
24460SOL    HW279473   0.705   5.389   7.360  1.4090  3.0434  1.0404
24461SOL     OW79474   6.366   8.566   5.277 -0.2499 -0.2863 -0.4599
24461SOL    HW179475   6.427   8.635   5.250 -0.6915  0.1353 -0.4036
24461SOL    HW279476   6.282   8.592   5.239 -0.7051 -0.1048  0.6007
24462SOL     OW79477   6.991   7.712   3.728  0.0740 -0.6165 -0.0645
24462SOL    HW179478   6.917   7.658   3.699 -0.0381  0.1385 -1.2433
24462SOL    HW279479   6.951   7.778   3.784 -0.2415  0.1161 -1.1300
24463SOL     OW79480   1.791   7.672   8.624  0.0559  0.3257  0.1220
24463SOL    HW179481   1.750   7.711   8.547 -0.1213 -0.4278 -0.1770
24463SOL    HW279482   1.879   7.647   8.594 -1.1847 -3.4193 -1.0645
24464SOL     OW79483   3.910   8.032   6.933  0.6985  0.1176  0.0479
24464SOL    HW179484   3.926   8.014   6.841  5.2239  1.3148  0.3841
24464SOL    HW279485   3.915   8.127   6.940  0.1385  0.0694  1.5331
24465SOL     OW79486  10.496   3.786   3.077  0.0474  0.5016 -0.1322
24465SOL    HW179487  10.416   3.795   3.024 -0.0067  0.8887  0.0120
24465SOL    HW279488  10.515   3.875   3.107  0.9888  0.5611 -0.8325
24466SOL     OW79489   7.910   9.997  10.913 -0.6943  0.0724  0.3920
24466SOL    HW179490   7.961  10.066  10.955 -0.1071  0.5079 -0.9837
24466SOL    HW279491   7.878  10.036  10.832 -0.6013 -1.1653 -0.2690
24467SOL     OW79492   9.293   0.725   7.611  0.1889 -0.8351 -0.0448
24467SOL    HW179493   9.252   0.661   7.552  0.9640 -1.4466  0.0513
24467SOL    HW279494   9.382   0.691   7.623  0.4175 -0.0521  0.4991
24468SOL     OW79495   9.157   8.813   4.362 -0.2146 -0.0287 -0.3770
24468SOL    HW179496   9.222   8.760   4.408 -1.0844 -1.5555 -0.8587
24468SOL    HW279497   9.165   8.787   4.270  1.1313  2.5975 -1.1284
24469SOL     OW79498   5.139   8.886   1.052 -0.1173 -0.2856  0.0674
24469SOL    HW179499   5.180   8.822   0.995 -0.1155  3.0187 -4.1542
24469SOL    HW279500   5.212   8.934   1.091  0.0100  0.5581 -1.1595
24470SOL     OW79501   8.759   3.645   6.456 -0.0136  0.1826  0.3874
24470SOL    HW179502   8.840   3.685   6.424 -0.8027  1.7297  0.2010
24470SOL    HW279503   8.705   3.634   6.378 -0.1789 -0.3849  0.5760
24471SOL     OW79504   5.505   7.561   7.259  0.1773 -0.4026 -0.6881
24471SOL    HW179505   5.432   7.500   7.263 -1.7135  1.7881  0.0178
24471SOL    HW279506   5.465   7.647   7.244  2.4962  1.0583  0.8125
24472SOL     OW79507   0.853   4.135   5.995 -0.1328 -0.3407 -0.7764
24472SOL    HW179508   0.900   4.186   5.930 -0.0511 -0.3967 -0.7611
24472SOL    HW279509   0.838   4.050   5.953  1.0960 -0.8421 -0.2375
24473SOL     OW79510   4.697  10.486   0.926  0.2843  0.5802  0.0015
24473SOL    HW179511   4.731  10.401   0.899  1.4254  0.4851  1.5748
24473SOL    HW279512   4.664  10.526   0.846 -0.0267 -1.2307 -0.8094
24474SOL     OW79513   7.546   4.280   8.221 -0.5871 -0.8811 -0.1051
24474SOL    HW179514   7.626   4.329   8.240 -2.0086  1.0386  1.3696
24474SOL    HW279515   7.553   4.201   8.275 -0.6011  0.3039  1.7113
24475SOL     OW79516   5.326   8.412   0.731  0.6844  0.2887 -0.2617
24475SOL    HW179517   5.266   8.421   0.805 -0.1734  0.7917 -1.0006
24475SOL    HW279518   5.374   8.331   0.749  0.1015  0.1130  0.5713
24476SOL     OW79519   2.899   9.867   5.508 -0.3884  0.1511  0.1722
24476SOL    HW179520   2.844   9.914   5.571  0.0460  0.2867  0.4478
24476SOL    HW279521   2.870   9.899   5.423  0.3540  1.4009  0.3799
24477SOL     OW79522   6.419   9.768   8.997 -0.6326 -0.2999  0.2128
24477SOL    HW179523   6.392   9.702   9.061  2.2512 -1.5536  0.3136
24477SOL    HW279524   6.436   9.718   8.917  0.6197  0.4314 -0.0087
24478SOL     OW79525   5.921   3.476  10.772 -0.5061 -0.6522 -0.4285
24478SOL    HW179526   5.878   3.491  10.856  0.3442 -1.3334  0.1274
24478SOL    HW279527   5.923   3.563  10.731 -0.8129 -0.2931  0.2979
24479SOL     OW79528   6.874   1.978   6.189  0.2925  0.2252  0.1579
24479SOL    HW179529   6.915   2.054   6.147  0.4473 -0.8976 -1.8624
24479SOL    HW279530   6.938   1.907   6.177  1.1813  0.1611  3.9957
24480SOL     OW79531  10.691   0.717   2.299  0.3832 -0.0063  0.1707
24480SOL    HW179532  10.694   0.630   2.340  0.8014 -0.2829 -0.4278
24480SOL    HW279533  10.603   0.722   2.261 -0.2698  0.5479  1.7105
24481SOL     OW79534   0.459   3.768   7.946 -0.4839  0.1930  0.2377
24481SOL    HW179535   0.380   3.727   7.982  1.2806 -1.8569  2.1253
24481SOL    HW279536   0.500   3.811   8.021  1.4952 -1.0875 -0.0421
24482SOL     OW79537   2.644   5.195   9.781  0.2582  0.0514 -0.3956
24482SOL    HW179538   2.696   5.125   9.740  2.9405  1.4648  0.3661
24482SOL    HW279539   2.629   5.258   9.710  1.4083  0.5901 -0.1866
24483SOL     OW79540   5.011  10.330   2.374 -0.0256 -0.4366  0.9317
24483SOL    HW179541   4.917  10.333   2.389  0.3492 -0.3067  3.5967
24483SOL    HW279542   5.036  10.422   2.361 -0.0271 -0.2618  2.0823
24484SOL     OW79543   7.751   3.329   7.323  0.0163  0.0462 -0.1600
24484SOL    HW179544   7.827   3.317   7.380  1.3893  0.9806 -1.6877
24484SOL    HW279545   7.692   3.386   7.373  0.3164 -0.6423  1.0248
24485SOL     OW79546   6.222   7.233   8.205 -0.1297 -0.0010 -0.3095
24485SOL    HW179547   6.168   7.296   8.251 -0.5111 -0.7709  0.3287
24485SOL    HW279548   6.161   7.166   8.175  0.3775 -0.5322 -0.1827
24486SOL     OW79549   9.168   1.321   9.207 -0.3184  0.6611  0.0799
24486SOL    HW179550   9.197   1.375   9.280 -0.0689 -0.0497  0.5139
24486SOL    HW279551   9.174   1.231   9.239 -1.3065  0.4014 -0.4233
24487SOL     OW79552   4.954   1.846   8.145  0.0512  0.2476 -0.4744
24487SOL    HW179553   5.033   1.850   8.092 -0.6796  0.5041 -1.5911
24487SOL    HW279554   4.970   1.908   8.217  0.6883  0.6353 -0.9406
24488SOL     OW79555   7.900   5.820   7.642  0.1941  0.6407 -0.5513
24488SOL    HW179556   7.941   5.766   7.710  0.8697  0.7130 -0.8885
24488SOL    HW279557   7.969   5.880   7.615 -0.7128  2.1007  0.2337
24489SOL     OW79558   9.929   7.987   0.427  0.1078 -0.2659  0.0745
24489SOL    HW179559   9.972   8.046   0.364 -0.0095  2.1885  2.1317
24489SOL    HW279560  10.001   7.933   0.460  0.2964 -1.0823 -1.5678
24490SOL     OW79561   2.691   8.503   8.097  0.2596  0.1860 -0.3014
24490SOL    HW179562   2.605   8.486   8.136  0.6059 -0.7976  0.0507
24490SOL    HW279563   2.704   8.597   8.109  0.2026 -0.0157  1.6662
24491SOL     OW79564   1.224   8.786   4.554  0.4648  0.7705  0.6805
24491SOL    HW179565   1.140   8.786   4.508  0.5870 -0.7742  0.4115
24491SOL    HW279566   1.284   8.740   4.495  1.3091  1.1578  1.2158
24492SOL     OW79567   5.353   8.272   9.170 -0.1424  0.0697 -0.2105
24492SOL    HW179568   5.286   8.255   9.105 -0.3836  0.3907 -0.0476
24492SOL    HW279569   5.436   8.251   9.126 -0.3444 -0.2601 -0.4295
24493SOL     OW79570   5.114   0.988   2.889  0.3611  0.0366  0.7847
24493SOL    HW179571   5.194   0.952   2.928  0.2422 -0.9590  0.1271
24493SOL    HW279572   5.136   1.001   2.797 -0.0844  0.2104  0.7027
24494SOL     OW79573   1.799   8.023   4.768  0.0513 -0.1694  0.0451
24494SOL    HW179574   1.793   7.989   4.857  1.0751 -2.2432 -0.6149
24494SOL    HW279575   1.762   8.111   4.774 -0.2271 -0.3688  2.4313
24495SOL     OW79576   9.714   7.060   7.260  0.5059  0.2406 -0.3000
24495SOL    HW179577   9.651   6.992   7.237  1.3530 -0.3874 -0.7887
24495SOL    HW279578   9.664   7.142   7.252 -0.7945 -0.3503  1.2183
24496SOL     OW79579   5.128   7.123   5.016  0.1623 -0.3659  0.0022
24496SOL    HW179580   5.118   7.198   4.958 -2.1538 -1.0665 -0.6482
24496SOL    HW279581   5.145   7.160   5.102 -0.3441  0.8935 -0.4222
24497SOL     OW79582   8.216   0.759   3.750 -0.2539  0.4438 -0.5728
24497SOL    HW179583   8.187   0.745   3.840  0.7124 -0.3001 -0.3638
24497SOL    HW279584   8.167   0.694   3.699  0.7256 -0.5630 -0.2713
24498SOL     OW79585   1.407   9.238   6.365 -0.1868  0.0470 -0.4999
24498SOL    HW179586   1.317   9.228   6.335  0.2342 -0.9417 -1.5100
24498SOL    HW279587   1.442   9.149   6.367  0.2690  0.2271  1.5622
24499SOL     OW79588   4.388   8.132   4.514  0.3534 -0.0119 -0.6945
24499SOL    HW179589   4.373   8.057   4.571  2.7719 -0.0447  0.0093
24499SOL    HW279590   4.377   8.208   4.570  0.8713  0.0253 -0.6349
24500SOL     OW79591   1.726   7.814   5.831  0.4831 -0.2064  0.1158
24500SOL    HW179592   1.649   7.814   5.774  0.8672 -1.3576 -0.4445
24500SOL    HW279593   1.691   7.794   5.918  0.1193 -0.5365 -0.0997
24501SOL     OW79594   3.637   0.555   1.544 -0.0462 -0.6533 -0.2853
24501SOL    HW179595   3.700   0.530   1.611  0.5859 -0.4165 -0.7854
24501SOL    HW279596   3.639   0.651   1.545 -0.8363 -0.6306  0.0995
24502SOL     OW79597   5.530   3.889   1.720  0.2998 -0.5227  0.5465
24502SOL    HW179598   5.489   3.926   1.798  0.3404  0.5028  0.0901
24502SOL    HW279599   5.596   3.829   1.754 -0.1544 -0.6150  1.2932
24503SOL     OW79600  10.028  10.345   3.796 -0.1416 -0.2992 -0.0550
24503SOL    HW179601  10.030  10.368   3.703 -1.2464 -1.3807 -0.3836
24503SOL    HW279602   9.970  10.411   3.835  1.6220  1.1658  0.2228
24504SOL     OW79603   9.849   1.135  10.822  0.1631  0.4023 -0.4560
24504SOL    HW179604   9.849   1.039  10.826  2.3844  0.3808  0.0955
24504SOL    HW279605   9.864   1.154  10.730 -1.4287  0.2804 -0.7774
24505SOL     OW79606   6.776   8.068   9.488 -0.2072  0.2796  0.3674
24505SOL    HW179607   6.747   8.133   9.552 -1.5604 -1.9649  2.2521
24505SOL    HW279608   6.871   8.078   9.484 -0.3263  1.9821  0.9876
24506SOL     OW79609   0.957   8.060  10.494 -0.0193  0.1556  0.4604
24506SOL    HW179610   0.923   8.038  10.407  0.0374  1.0131  0.2150
24506SOL    HW279611   0.997   7.979  10.525  0.5037  0.0019 -0.5722
24507SOL     OW79612   6.295   1.861   6.572 -0.4298 -0.6001 -0.0512
24507SOL    HW179613   6.203   1.837   6.586 -0.6987  0.4214  0.0476
24507SOL    HW279614   6.329   1.792   6.515 -1.3487 -0.8418 -0.3339
24508SOL     OW79615   6.054   8.441   1.315  0.1323  0.0944  0.0065
24508SOL    HW179616   6.106   8.504   1.365  0.1609 -0.1844  0.3328
24508SOL    HW279617   5.967   8.480   1.311  0.1889  0.2291  0.0714
24509SOL     OW79618   4.155   1.380   5.991 -0.6462 -0.0796  0.3495
24509SOL    HW179619   4.217   1.385   5.918 -0.6739 -0.8774  0.2595
24509SOL    HW279620   4.162   1.464   6.035  0.5593 -0.1947  0.3889
24510SOL     OW79621   3.666   8.401   3.362  0.4356 -0.4526 -0.5346
24510SOL    HW179622   3.757   8.371   3.364  1.3023  1.7618 -2.0300
24510SOL    HW279623   3.672   8.496   3.369 -1.4347  0.0819 -3.8886
24511SOL     OW79624   9.191   2.067   4.472  0.6917 -0.3138  0.1591
24511SOL    HW179625   9.193   2.106   4.385 -0.7993  0.8608  0.5885
24511SOL    HW279626   9.168   1.975   4.457  1.5577 -0.3962 -0.7322
24512SOL     OW79627  10.581   9.269   7.336  0.0705 -0.9447  0.5202
24512SOL    HW179628  10.560   9.356   7.368 -1.8243  0.2161 -3.3156
24512SOL    HW279629  10.658   9.282   7.281 -0.2508 -1.6594 -0.1191
24513SOL     OW79630   9.409   5.334   0.435 -0.0858 -0.2500 -0.0309
24513SOL    HW179631   9.314   5.334   0.425 -0.7904 -2.9349  4.0409
24513SOL    HW279632   9.425   5.384   0.515  1.2990 -3.0143  1.6119
24514SOL     OW79633   0.985   1.223   8.050 -0.7165  0.3503  0.3296
24514SOL    HW179634   0.899   1.242   8.086 -0.2678  2.8682  0.2267
24514SOL    HW279635   1.037   1.301   8.068  0.7229  0.0605 -2.1517
24515SOL     OW79636  10.036   1.075   4.829 -0.0547 -0.5809  0.6702
24515SOL    HW179637   9.994   1.044   4.749 -1.3544 -0.9913  1.4822
24515SOL    HW279638  10.013   1.168   4.833 -0.5618 -0.7118  0.9003
24516SOL     OW79639   7.270   8.917   4.335 -0.1613  0.1426 -0.2119
24516SOL    HW179640   7.257   9.006   4.370 -0.9234 -1.0032  2.7004
24516SOL    HW279641   7.192   8.901   4.282  0.4288  1.5024 -1.5806
24517SOL     OW79642   6.739   0.883   9.104 -0.2030 -0.0327  0.0747
24517SOL    HW179643   6.790   0.935   9.166 -0.8873  0.2111  0.4449
24517SOL    HW279644   6.716   0.945   9.035  0.7279 -0.3516 -0.5385
24518SOL     OW79645   8.777   8.677   1.976  0.2500  0.3396  0.0241
24518SOL    HW179646   8.697   8.726   1.955  0.2795 -0.0259 -0.9958
24518SOL    HW279647   8.780   8.677   2.072  0.4103  2.5544  0.0580
24519SOL     OW79648   6.810   1.274   4.835 -0.3302 -0.3317 -0.0527
24519SOL    HW179649   6.841   1.232   4.916  2.3325  0.6771 -0.4504
24519SOL    HW279650   6.867   1.240   4.767  0.4050  2.1143 -0.7555
24520SOL     OW79651   4.932   7.106   8.947 -0.4895 -0.2878  0.0069
24520SOL    HW179652   5.003   7.168   8.967  0.0549 -1.0955  0.6163
24520SOL    HW279653   4.853   7.161   8.946  0.0536  0.5154 -0.0342
24521SOL     OW79654   1.142   3.850   2.563  0.0677  0.3142 -0.0892
24521SOL    HW179655   1.217   3.856   2.503  0.3811  1.7895  0.4126
24521SOL    HW279656   1.181   3.836   2.649 -0.2939 -0.0328  0.0186
24522SOL     OW79657  10.248   0.943   4.476 -0.7052 -0.0436  0.4986
24522SOL    HW179658  10.160   0.925   4.508 -1.4567  2.2480 -0.0982
24522SOL    HW279659  10.242   0.933   4.381 -0.3089  0.1384  0.4509
24523SOL     OW79660   4.053   0.582   4.552  0.1682 -0.6686  0.7967
24523SOL    HW179661   4.060   0.650   4.618 -1.2784  0.4814 -0.1574
24523SOL    HW279662   4.130   0.593   4.496  1.2382 -1.4563  2.0561
24524SOL     OW79663   7.262   4.033   7.650 -0.0107  0.1365 -1.0864
24524SOL    HW179664   7.186   4.034   7.591 -0.0987 -3.1175 -1.1765
24524SOL    HW279665   7.239   3.971   7.718  2.6450 -1.1735 -1.2716
24525SOL     OW79666   8.268   0.541   0.159 -0.0591  0.0485  0.2399
24525SOL    HW179667   8.236   0.451   0.166  1.2362 -0.6044 -1.7196
24525SOL    HW279668   8.237   0.583   0.240 -3.7441 -1.1333 -0.3644
24526SOL     OW79669   1.744   1.169   4.926 -0.6686  0.0303 -0.3996
24526SOL    HW179670   1.741   1.087   4.876 -0.0770  0.7269 -1.6348
24526SOL    HW279671   1.756   1.141   5.016 -1.0335 -1.2631 -0.7222
24527SOL     OW79672   1.671   6.036   9.242  0.7159  0.6252  0.3699
24527SOL    HW179673   1.581   6.007   9.253  1.1028  0.0328  2.4824
24527SOL    HW279674   1.694   6.009   9.153 -0.8153 -0.2807  0.2134
24528SOL     OW79675   9.540  10.323   8.011 -0.1040  0.3407 -0.5197
24528SOL    HW179676   9.622  10.373   8.016 -0.6159  1.3597 -1.7818
24528SOL    HW279677   9.504  10.344   7.925 -0.7737 -1.5679 -0.7462
24529SOL     OW79678   5.957   4.309  10.594  0.1331  0.1191 -0.1479
24529SOL    HW179679   5.965   4.358  10.512 -0.0508  0.7808  0.2202
24529SOL    HW279680   5.959   4.376  10.662  0.0051 -0.4007  0.3763
24530SOL     OW79681   4.868   8.488   3.312  0.3626  0.7863 -0.1149
24530SOL    HW179682   4.848   8.513   3.222  0.9752  0.2197 -0.4144
24530SOL    HW279683   4.785   8.500   3.359 -0.1755  0.3148 -0.9235
24531SOL     OW79684   9.979   6.636   7.554 -0.0958  0.2649 -0.2148
24531SOL    HW179685   9.931   6.588   7.622  1.3623 -3.2234 -1.4161
24531SOL    HW279686   9.912   6.655   7.487 -0.8291  0.4292  0.5463
24532SOL     OW79687   8.025   7.248   8.927 -0.4491  0.9018  0.1225
24532SOL    HW179688   8.003   7.314   8.992 -0.3944 -0.3487  1.4838
24532SOL    HW279689   8.119   7.233   8.940 -0.4851  0.4855 -0.0862
24533SOL     OW79690   6.967   0.185   4.839  0.1051 -0.3579  0.0681
24533SOL    HW179691   6.874   0.164   4.826  0.2923 -0.2317 -1.8221
24533SOL    HW279692   7.013   0.103   4.820  0.3934 -0.4755  1.2001
24534SOL     OW79693   8.611   4.082   9.194 -0.1054  0.5719 -0.5537
24534SOL    HW179694   8.657   4.000   9.179  0.1011  0.6839 -0.5333
24534SOL    HW279695   8.678   4.150   9.186 -0.0874  0.6736  0.3249
24535SOL     OW79696   0.570   0.956  10.490 -0.2260 -0.3862  0.2804
24535SOL    HW179697   0.567   0.876  10.542 -0.9624 -1.0920 -0.8228
24535SOL    HW279698   0.632   0.938  10.420  0.1159  0.2585  0.4065
24536SOL     OW79699   2.251   7.670   0.573 -0.6129  0.2507 -0.0765
24536SOL    HW179700   2.344   7.691   0.578 -0.8551  1.1001  1.0016
24536SOL    HW279701   2.234   7.617   0.651 -0.7998 -0.8850 -0.8670
24537SOL     OW79702   8.017   5.352   5.358 -0.3669 -0.1888 -0.6745
24537SOL    HW179703   8.025   5.258   5.372  0.3506 -0.2686 -1.5129
24537SOL    HW279704   7.955   5.360   5.285 -0.5738  0.0039 -0.4818
24538SOL     OW79705   5.199   1.199   1.925  0.0993 -0.6684  0.2861
24538SOL    HW179706   5.226   1.108   1.937 -0.6252 -0.8121  0.9453
24538SOL    HW279707   5.103   1.194   1.919  0.1742 -0.1955 -2.0505
24539SOL     OW79708  10.682   2.176   2.480 -0.5008 -0.2393  0.1100
24539SOL    HW179709  10.630   2.156   2.402 -0.6537 -1.1723  0.4468
24539SOL    HW279710  10.709   2.091   2.514  0.0498  0.1820  0.7574
24540SOL     OW79711  10.060   6.702  10.553  0.0372  0.3911 -0.5009
24540SOL    HW179712  10.092   6.645  10.483  1.0275  0.6510 -0.2626
24540SOL    HW279713  10.043   6.642  10.626 -1.1651  0.0941 -0.9938
24541SOL     OW79714   1.520   5.071   8.466 -0.2140 -0.2978  0.0087
24541SOL    HW179715   1.469   5.028   8.535 -1.3836 -0.6642 -1.0266
24541SOL    HW279716   1.564   4.999   8.421 -1.1241 -0.2990 -0.9076
24542SOL     OW79717   2.778   5.623   7.357  0.7662  0.2578 -0.0577
24542SOL    HW179718   2.711   5.571   7.403 -0.5202  1.5240 -0.4100
24542SOL    HW279719   2.850   5.562   7.342  0.8009 -0.5008  2.6519
24543SOL     OW79720   9.526   3.132   3.405  0.0803  0.7551  0.2068
24543SOL    HW179721   9.570   3.125   3.321 -1.5582 -1.2861 -0.5720
24543SOL    HW279722   9.482   3.047   3.416  0.0858  1.0270  3.0327
24544SOL     OW79723   5.843   3.384   3.227 -0.0027  0.5196 -0.3604
24544SOL    HW179724   5.809   3.337   3.303 -0.5596 -0.6674 -1.3021
24544SOL    HW279725   5.769   3.385   3.165  0.8569  0.1960 -1.4331
24545SOL     OW79726   7.672   2.853   6.967 -0.0492  0.5046  0.2439
24545SOL    HW179727   7.606   2.920   6.951 -1.3945 -0.5611  1.1907
24545SOL    HW279728   7.658   2.826   7.057  2.3372  0.9148  0.8131
24546SOL     OW79729   5.640   2.742   2.973  0.6550  0.2895  0.1089
24546SOL    HW179730   5.618   2.706   3.059  0.1910  1.4952  0.5266
24546SOL    HW279731   5.566   2.721   2.918  0.7896 -0.1726  0.1057
24547SOL     OW79732  10.272   8.951   0.797 -0.6060 -0.5069 -0.1732
24547SOL    HW179733  10.286   8.991   0.711  0.5705  0.0273  0.2345
24547SOL    HW279734  10.178   8.961   0.813 -0.5064  1.3806 -0.4657
24548SOL     OW79735   0.984   5.531   9.525  0.6157 -0.3418  0.1386
24548SOL    HW179736   1.080   5.538   9.522  0.5383  1.0345 -0.1121
24548SOL    HW279737   0.954   5.600   9.466 -0.5486  0.1571  1.2733
24549SOL     OW79738   3.466   1.680   0.745  0.0168 -1.1021  0.3253
24549SOL    HW179739   3.551   1.667   0.703  0.1075 -0.8019  0.4133
24549SOL    HW279740   3.422   1.746   0.690 -0.5316 -1.9321 -0.2527
24550SOL     OW79741   8.450   0.921   4.307 -0.0967  0.1878 -0.2366
24550SOL    HW179742   8.417   0.995   4.257 -0.3504  0.0444 -0.2827
24550SOL    HW279743   8.477   0.958   4.391  0.5740  0.4742 -0.5705
24551SOL     OW79744   7.199  10.236   6.992 -0.0677 -0.1209 -0.5275
24551SOL    HW179745   7.130  10.237   7.058  0.2120 -0.4381 -0.2260
24551SOL    HW279746   7.244  10.320   7.002  0.1184 -0.2631 -0.1577
24552SOL     OW79747   3.942   5.290   1.224  0.1756 -0.0631  0.3043
24552SOL    HW179748   3.923   5.255   1.137 -3.1337  2.0353  0.0111
24552SOL    HW279749   3.907   5.224   1.285 -1.5152  0.4156 -0.1129
24553SOL     OW79750   9.778   2.044   0.262  0.0374 -0.1002 -0.1104
24553SOL    HW179751   9.728   1.962   0.264  0.4707 -0.3491  1.1596
24553SOL    HW279752   9.726   2.105   0.315  0.2575  0.1267 -0.1540
24554SOL     OW79753   0.911   7.889   5.465 -0.1054 -0.3864 -0.2581
24554SOL    HW179754   0.863   7.808   5.444 -0.7580 -0.2644  0.6618
24554SOL    HW279755   0.948   7.917   5.382 -1.8574 -0.3495 -1.0859
24555SOL     OW79756   1.843   8.298   5.671  0.3914 -0.0903  0.4644
24555SOL    HW179757   1.802   8.275   5.755 -0.4234  0.8623  0.3467
24555SOL    HW279758   1.916   8.355   5.695  1.9453 -2.0612  0.6998
24556SOL     OW79759   2.383   3.017   5.880 -0.3686  0.1599  0.0377
24556SOL    HW179760   2.476   3.022   5.902 -0.6929  3.1598  1.2395
24556SOL    HW279761   2.343   2.976   5.957 -0.2774  1.0789  0.5931
24557SOL     OW79762   7.135   9.023   0.676  0.7172  0.0503  0.0438
24557SOL    HW179763   7.052   8.997   0.636  0.7862  2.4260 -1.9204
24557SOL    HW279764   7.191   8.946   0.668 -0.3826 -0.6476 -1.4104
24558SOL     OW79765   2.597   9.137   7.988 -0.2517  0.0425  0.1050
24558SOL    HW179766   2.601   9.224   8.027 -0.8527 -0.1807  0.6834
24558SOL    HW279767   2.569   9.152   7.898  0.6103  0.5183 -0.1010
24559SOL     OW79768   8.361   3.830   6.143  0.0876 -0.2899  0.1409
24559SOL    HW179769   8.280   3.856   6.099  0.5604 -1.4586 -1.5109
24559SOL    HW279770   8.348   3.738   6.165  1.1276 -0.6260 -0.5876
24560SOL     OW79771   0.138   8.343   5.664 -0.5692 -0.2353 -0.0640
24560SOL    HW179772   0.201   8.399   5.619  0.4403 -1.4747 -0.2376
24560SOL    HW279773   0.181   8.258   5.670 -2.2448 -1.1369 -0.2223
24561SOL     OW79774   5.094   1.115   4.112 -0.3172  0.1284 -0.3576
24561SOL    HW179775   5.058   1.074   4.191  0.6175 -0.7789 -0.3901
24561SOL    HW279776   5.037   1.191   4.097 -0.4578  0.3755  1.2450
24562SOL     OW79777   6.417   5.164   8.497 -0.4713  0.5808  0.5131
24562SOL    HW179778   6.368   5.218   8.435 -0.2049  0.0093 -0.2041
24562SOL    HW279779   6.419   5.077   8.457 -0.0760  0.2638  1.2035
24563SOL     OW79780   6.793   5.833   1.239  0.1899  0.0652  0.1071
24563SOL    HW179781   6.763   5.774   1.170 -0.8062 -0.2680  0.8113
24563SOL    HW279782   6.758   5.796   1.320 -0.1884  1.4537  0.6098
24564SOL     OW79783   0.925   1.733   5.255  0.9024  0.1081  0.4780
24564SOL    HW179784   0.840   1.724   5.299 -0.2402  1.9378 -1.1781
24564SOL    HW279785   0.968   1.806   5.300 -1.7166  4.4067 -3.1444
24565SOL     OW79786   3.993   1.586   5.506  0.3919 -0.1632  0.0116
24565SOL    HW179787   3.926   1.552   5.447  0.9101  0.3452 -0.8882
24565SOL    HW279788   4.029   1.508   5.549 -1.5027 -0.3717  1.3440
24566SOL     OW79789   8.849   5.633   0.495  0.1715  0.2896  0.1133
24566SOL    HW179790   8.807   5.676   0.570 -0.2095  1.3473 -0.6863
24566SOL    HW279791   8.908   5.568   0.535  0.0210  0.8673  1.3265
24567SOL     OW79792   7.243   9.956  10.314  0.3949  0.0543  0.4801
24567SOL    HW179793   7.158   9.915  10.331  0.2008  0.6883  1.1164
24567SOL    HW279794   7.228  10.008  10.235  1.0535 -2.2057 -1.2421
24568SOL     OW79795   6.444  10.633   0.260  0.1388  0.2268  0.2593
24568SOL    HW179796   6.435  10.713   0.208 -2.7457 -0.7980 -1.0234
24568SOL    HW279797   6.354  10.610   0.285  0.8965 -2.4512  0.8305
24569SOL     OW79798   2.924   3.427   6.829  0.2655 -0.2140  0.5735
24569SOL    HW179799   3.013   3.446   6.860  0.7297 -0.2942 -0.6496
24569SOL    HW279800   2.917   3.332   6.836  0.1108 -0.1717  1.0640
24570SOL     OW79801   0.481   7.317   5.636  0.0233 -0.0839  0.0954
24570SOL    HW179802   0.504   7.409   5.640 -0.0705  0.1370 -2.6167
24570SOL    HW279803   0.531   7.276   5.706  1.8427  1.6984 -0.0837
24571SOL     OW79804   3.013   3.308   4.131 -0.3714 -0.5308 -0.0376
24571SOL    HW179805   3.034   3.256   4.053 -0.5282 -0.3146 -0.2280
24571SOL    HW279806   2.918   3.319   4.127 -0.2978  0.0948 -0.2098
24572SOL     OW79807   9.769  10.165   1.480  0.2210  0.1640  0.0194
24572SOL    HW179808   9.825  10.239   1.506  2.1562 -0.2763 -2.4848
24572SOL    HW279809   9.830  10.091   1.474 -0.9074 -0.6904 -1.3785
24573SOL     OW79810   9.646   7.327   5.154 -0.0713 -0.1157  0.4516
24573SOL    HW179811   9.592   7.259   5.115  0.8802 -0.2927 -0.6177
24573SOL    HW279812   9.643   7.400   5.092 -1.2718  0.9582  1.6938
24574SOL     OW79813   9.762   0.791   8.378  0.2135 -0.3768 -0.0941
24574SOL    HW179814   9.676   0.762   8.406 -0.0191 -0.4039 -0.8192
24574SOL    HW279815   9.745   0.863   8.317  0.6445 -1.2403 -1.2701
24575SOL     OW79816   5.190   1.068   6.012  0.1451 -0.2270 -0.1242
24575SOL    HW179817   5.154   1.075   6.101 -2.0928 -0.4238 -0.9418
24575SOL    HW279818   5.161   0.983   5.981  0.3741  0.0947 -1.2617
24576SOL     OW79819   7.127   4.143   7.273  0.0253  0.2751  0.3865
24576SOL    HW179820   7.044   4.162   7.229  0.2575  0.8385  0.1724
24576SOL    HW279821   7.183   4.109   7.203 -0.2103 -0.6843  0.6553
24577SOL     OW79822   8.368   2.461   5.251  0.5674  0.1322  0.3098
24577SOL    HW179823   8.312   2.397   5.295  1.5744 -0.8535  0.2219
24577SOL    HW279824   8.308   2.527   5.216 -0.4176 -0.2260  1.2780
24578SOL     OW79825   8.693   3.114   7.694  0.0893 -1.1656  0.0784
24578SOL    HW179826   8.617   3.055   7.694  0.0945 -1.2878  2.5825
24578SOL    HW279827   8.769   3.055   7.690  0.1205 -1.0730 -1.6493
24579SOL     OW79828   8.058  10.201   1.693  0.3261  0.1677  0.6540
24579SOL    HW179829   8.073  10.199   1.788  2.4221 -0.8211  0.3563
24579SOL    HW279830   8.143  10.222   1.656 -0.1342 -0.8738 -1.0828
24580SOL     OW79831  10.859  10.394   2.021  0.3034  0.5848  0.2112
24580SOL    HW179832  10.778  10.403   1.972  0.4972  0.6351 -0.1033
24580SOL    HW279833  10.852  10.459   2.091  0.0505  0.5508  0.2181
24581SOL     OW79834   4.148   6.993   7.792 -0.2310  0.3532 -0.1333
24581SOL    HW179835   4.241   7.008   7.776  0.0869  0.3767  1.5168
24581SOL    HW279836   4.112   7.081   7.806 -0.1364  0.2494  0.8784
24582SOL     OW79837   9.876   9.299   4.916  0.1062 -0.3324 -0.1105
24582SOL    HW179838   9.900   9.214   4.880 -0.9866 -1.3321  1.4023
24582SOL    HW279839   9.788   9.316   4.881 -1.4776 -1.8609  2.7530
24583SOL     OW79840   8.587   4.303   8.159 -0.2569  0.8090  0.1012
24583SOL    HW179841   8.632   4.222   8.182  0.4327  1.2821  0.4641
24583SOL    HW279842   8.643   4.372   8.195 -0.9527  1.4341  0.0001
24584SOL     OW79843   6.817  10.451   8.338 -0.2722 -0.5735  0.7134
24584SOL    HW179844   6.802  10.415   8.425  0.3268  0.0014  1.0616
24584SOL    HW279845   6.907  10.427   8.317  0.1088  0.6454  0.9180
24585SOL     OW79846  10.546   2.037   7.202  0.3151  0.2112 -0.0328
24585SOL    HW179847  10.499   1.964   7.161 -0.4062  1.0465 -0.7363
24585SOL    HW279848  10.495   2.057   7.281 -0.0673  0.6109 -0.3804
24586SOL     OW79849   2.019   2.177   8.095 -0.1074  0.1549  0.5518
24586SOL    HW179850   2.005   2.264   8.132  2.0248  0.4194  0.8431
24586SOL    HW279851   1.980   2.182   8.007 -1.1412  0.9733  1.0338
24587SOL     OW79852   9.618   2.719  10.827 -0.3681 -0.1719  0.2354
24587SOL    HW179853   9.563   2.794  10.805  1.3400  1.1974  0.4392
24587SOL    HW279854   9.679   2.711  10.754 -0.3734 -1.2313  0.3299
24588SOL     OW79855   5.531   1.118   3.433  0.1763 -0.5564 -0.1114
24588SOL    HW179856   5.604   1.082   3.383 -0.7302 -0.6666 -1.4054
24588SOL    HW279857   5.472   1.154   3.366 -0.3884  0.5879  0.9701
24589SOL     OW79858   3.120   2.357   3.828  0.1394 -0.3121  0.0097
24589SOL    HW179859   3.083   2.314   3.906  2.5473  1.4447  2.2919
24589SOL    HW279860   3.190   2.298   3.800 -0.6687 -0.8991 -0.8478
24590SOL     OW79861   8.383   9.966   8.778  0.1335 -0.1645  0.2672
24590SOL    HW179862   8.365  10.003   8.865 -0.0665 -1.1957  0.6824
24590SOL    HW279863   8.445   9.896   8.795  0.3073 -0.1907 -0.4717
24591SOL     OW79864   8.964   3.276   1.683  0.6947  0.1585 -0.2556
24591SOL    HW179865   9.056   3.255   1.695  0.9288  1.2728  0.0314
24591SOL    HW279866   8.964   3.369   1.658 -0.2179 -0.2964 -2.1959
24592SOL     OW79867  10.440   1.665   6.166 -0.5395  0.0401 -0.3594
24592SOL    HW179868  10.433   1.597   6.099  0.9622  0.8998 -1.4706
24592SOL    HW279869  10.414   1.622   6.247  0.3731 -1.8710 -1.0212
24593SOL     OW79870   8.740   8.131   3.051  0.4250  0.2881  0.0632
24593SOL    HW179871   8.736   8.221   3.019  0.6490  0.4838  0.5733
24593SOL    HW279872   8.649   8.106   3.065  0.3948  0.6731  0.5657
24594SOL     OW79873   2.096   5.666   4.473 -0.1644  0.1705  0.0313
24594SOL    HW179874   2.181   5.667   4.429 -0.7648 -3.4796 -1.6064
24594SOL    HW279875   2.033   5.680   4.403 -0.9949  0.0970  0.7467
24595SOL     OW79876   9.692   6.469   5.826  0.3052 -0.4935  0.2065
24595SOL    HW179877   9.750   6.404   5.788  0.6738  0.4366 -0.9018
24595SOL    HW279878   9.721   6.552   5.788 -3.4436 -0.2260 -2.7117
24596SOL     OW79879  10.300   2.794   8.689  0.4685  0.1527  0.2348
24596SOL    HW179880  10.246   2.804   8.767  1.5150  1.1247  0.8546
24596SOL    HW279881  10.264   2.857   8.627  0.6391  0.5248  0.5097
24597SOL     OW79882   6.192   3.970   6.427  0.2571  0.3054 -0.1924
24597SOL    HW179883   6.148   4.054   6.410 -0.7537 -0.4161 -1.3786
24597SOL    HW279884   6.189   3.925   6.342 -0.2729 -1.3978  0.6906
24598SOL     OW79885   5.170   0.380   4.575 -0.3070  0.1416 -0.7009
24598SOL    HW179886   5.150   0.308   4.635 -1.7333  0.4064 -0.8157
24598SOL    HW279887   5.193   0.454   4.632 -2.1369  0.5345 -0.4161
24599SOL     OW79888   4.462   0.664   2.022  0.0041 -0.7234  0.4779
24599SOL    HW179889   4.500   0.671   1.934 -2.2614 -2.4274 -0.7353
24599SOL    HW279890   4.526   0.708   2.079  1.6012  0.3629 -1.9683
24600SOL     OW79891   2.952   0.581   8.859 -0.2061  0.0795 -0.1439
24600SOL    HW179892   2.921   0.545   8.942 -0.1981  0.3708 -0.0138
24600SOL    HW279893   3.044   0.557   8.855 -0.2205  0.0159 -0.0950
24601SOL     OW79894   0.900   5.975   6.489 -0.3019 -0.1084  0.6018
24601SOL    HW179895   0.806   5.980   6.471 -0.3296 -2.0178  0.0356
24601SOL    HW279896   0.913   5.889   6.529  1.2202  0.0617  0.5479
24602SOL     OW79897   9.595   7.580   0.613  0.1924  0.0108 -0.4126
24602SOL    HW179898   9.630   7.639   0.547  0.8104  1.0170  0.7645
24602SOL    HW279899   9.599   7.493   0.573 -0.8162  0.7412 -2.2221
24603SOL     OW79900   4.520   2.350   6.556  0.1446 -0.2215 -0.0991
24603SOL    HW179901   4.608   2.320   6.577  1.3892  1.7416 -2.1306
24603SOL    HW279902   4.488   2.287   6.492  1.1171  0.4471 -1.2718
24604SOL     OW79903   4.123   5.565   6.536 -0.0142 -0.2202  0.4113
24604SOL    HW179904   4.184   5.594   6.604 -0.2861 -0.6948  0.8556
24604SOL    HW279905   4.176   5.567   6.455 -0.2540  2.4596  0.2110
24605SOL     OW79906   2.192   8.080   4.742  0.0477 -0.5860  0.3861
24605SOL    HW179907   2.275   8.088   4.696  0.1005  1.9302  0.7758
24605SOL    HW279908   2.213   8.097   4.834 -0.5362 -2.4873  0.9199
24606SOL     OW79909   9.277   9.122   4.872 -0.2394 -0.4270 -0.0847
24606SOL    HW179910   9.335   9.136   4.797 -0.2792 -0.4494 -0.1198
24606SOL    HW279911   9.194   9.162   4.846 -0.7546 -1.8267 -0.6991
24607SOL     OW79912   0.762   7.167   4.663 -0.1421 -0.6516 -0.3675
24607SOL    HW179913   0.831   7.102   4.653 -0.6730 -1.0562 -1.5093
24607SOL    HW279914   0.767   7.222   4.585  0.3041  0.7095  0.5844
24608SOL     OW79915   3.817   8.212  10.259  0.1348  0.0122 -0.2987
24608SOL    HW179916   3.792   8.184  10.347  1.8653  1.7152  0.8044
24608SOL    HW279917   3.910   8.191  10.251  0.1290  0.3282 -1.5458
24609SOL     OW79918   7.843   1.953   9.566 -0.6358 -0.0455 -0.3972
24609SOL    HW179919   7.777   2.005   9.613 -1.2626 -2.0736  1.1274
24609SOL    HW279920   7.839   1.867   9.608  0.4785 -1.2874 -2.6899
24610SOL     OW79921   7.656   4.992   6.529 -0.8705 -0.1551 -0.0427
24610SOL    HW179922   7.672   5.080   6.562  2.3530 -0.8011  0.4723
24610SOL    HW279923   7.654   5.001   6.434  2.6525  0.2223 -0.2235
24611SOL     OW79924   4.347   1.453   0.864  0.1560 -0.3846  0.0658
24611SOL    HW179925   4.283   1.387   0.891  0.5349 -0.3010  1.2185
24611SOL    HW279926   4.348   1.517   0.935  0.5489  0.3241 -0.5598
24612SOL     OW79927   5.502   5.531   8.954 -0.2465  0.2830 -0.2700
24612SOL    HW179928   5.465   5.588   8.885 -0.5886  0.0702 -0.2675
24612SOL    HW279929   5.568   5.480   8.909 -0.5927  0.0185 -0.4877
24613SOL     OW79930   3.723   6.551   9.605 -0.2471 -0.4628  0.4362
24613SOL    HW179931   3.728   6.585   9.694  0.7791  0.9460 -0.1196
24613SOL    HW279932   3.698   6.459   9.616 -0.4173 -0.2530  2.1454
24614SOL     OW79933   7.427   0.785   8.304 -0.4954 -0.0501  0.0273
24614SOL    HW179934   7.399   0.874   8.282  0.1563  0.3345  0.7105
24614SOL    HW279935   7.483   0.759   8.230  1.2626  1.0338  0.9127
24615SOL     OW79936   2.760  10.471   1.849 -0.4711  0.2466 -0.2329
24615SOL    HW179937   2.701  10.521   1.792 -1.9158  0.4912  1.3909
24615SOL    HW279938   2.704  10.441   1.920  0.7611 -2.1181 -0.1660
24616SOL     OW79939   0.525   4.838   6.746  0.2515 -0.2627 -0.4427
24616SOL    HW179940   0.566   4.914   6.788  1.5019 -0.5026 -1.1824
24616SOL    HW279941   0.598   4.788   6.711 -0.5779 -1.6416 -0.2737
24617SOL     OW79942   7.556   3.511   9.127  0.0751 -0.7932  0.7815
24617SOL    HW179943   7.527   3.430   9.085 -0.1414  0.8697 -2.6482
24617SOL    HW279944   7.652   3.506   9.125  0.0699 -1.3625  1.5173
24618SOL     OW79945   9.373   0.190   8.086  0.0867  0.0978 -0.2099
24618SOL    HW179946   9.383   0.284   8.068 -0.1660  0.3524  0.8600
24618SOL    HW279947   9.392   0.182   8.180 -0.4890 -0.8245 -0.1620
24619SOL     OW79948   5.653   7.184   9.281  0.2054  0.0279  0.1683
24619SOL    HW179949   5.656   7.089   9.286  2.0064  0.0605  0.7668
24619SOL    HW279950   5.633   7.204   9.190 -2.0096 -0.8751  0.3945
24620SOL     OW79951   3.487   9.089   1.078  0.4097  0.5469  0.3198
24620SOL    HW179952   3.479   9.049   0.992 -1.8982  0.7979  0.3472
24620SOL    HW279953   3.477   9.017   1.140  1.0214  0.5181  0.3938
24621SOL     OW79954   8.060   9.880   6.155  0.1890  0.1974  0.5168
24621SOL    HW179955   7.966   9.865   6.141  0.0618  0.3161  1.2187
24621SOL    HW279956   8.103   9.813   6.100 -0.2693  0.8199 -0.6449
24622SOL     OW79957   3.027   7.304   3.727  0.2252 -0.4900  0.9545
24622SOL    HW179958   3.071   7.295   3.812  1.9393 -0.3700  0.1156
24622SOL    HW279959   2.965   7.376   3.741 -0.0106 -0.9186  2.2933
24623SOL     OW79960   4.095   7.953   9.539 -0.3374  0.1138 -0.5389
24623SOL    HW179961   4.012   7.993   9.564 -0.6250 -0.4828 -0.5107
24623SOL    HW279962   4.161   8.019   9.559 -0.5260 -0.3482  1.9144
24624SOL     OW79963   1.149   3.056   1.233  0.5261  0.0989  0.6889
24624SOL    HW179964   1.170   3.139   1.191  0.0647 -0.4421 -0.6790
24624SOL    HW279965   1.209   2.993   1.194 -0.3651 -0.5513  0.3197
24625SOL     OW79966   2.756   8.735   8.234 -0.4483 -0.1372  0.0104
24625SOL    HW179967   2.764   8.830   8.238 -1.3571  0.0685 -1.9244
24625SOL    HW279968   2.667   8.717   8.264 -0.2005 -0.4170  0.5990
24626SOL     OW79969   2.542   4.778   0.966  0.2729 -0.4237 -0.0755
24626SOL    HW179970   2.509   4.798   1.054 -1.3164 -1.5131 -0.3924
24626SOL    HW279971   2.564   4.685   0.970  0.0904 -0.5012 -0.8490
24627SOL     OW79972   7.624   6.338   2.287 -0.2286 -0.2982  0.3393
24627SOL    HW179973   7.683   6.355   2.360 -1.5656  1.0082  1.1780
24627SOL    HW279974   7.547   6.393   2.305 -0.4304  0.3914 -2.2806
24628SOL     OW79975   9.466   4.960   9.137  0.1868  0.8796 -0.4224
24628SOL    HW179976   9.534   4.899   9.166 -0.0603  0.5702 -0.4844
24628SOL    HW279977   9.451   4.937   9.046  1.0193  1.9061 -0.8315
24629SOL     OW79978   7.524   6.107   6.223  0.4938  0.3928  0.2624
24629SOL    HW179979   7.550   6.159   6.299  0.2716  0.4071  0.3275
24629SOL    HW279980   7.431   6.126   6.211  0.5024  0.3088  0.0513
24630SOL     OW79981   9.567   3.996   1.133  0.3509  0.0845 -0.0958
24630SOL    HW179982   9.651   4.026   1.168  0.2063  0.3270  0.0474
24630SOL    HW279983   9.577   3.901   1.125  0.8830  0.1909 -0.7400
24631SOL     OW79984   0.580   0.299   5.989 -0.2030 -0.5071  0.3931
24631SOL    HW179985   0.551   0.233   5.925  1.4040 -1.4885  0.6100
24631SOL    HW279986   0.673   0.280   6.002  0.1532  1.4254  0.9646
24632SOL     OW79987   5.125   0.503   8.961 -0.1325  0.4437 -0.7216
24632SOL    HW179988   5.136   0.575   9.022  1.2248 -0.0982 -0.3068
24632SOL    HW279989   5.136   0.543   8.875  1.6276  0.5744 -0.4584
24633SOL     OW79990  10.061   5.104   5.062  0.9925  0.4361  0.1691
24633SOL    HW179991  10.062   5.174   4.996 -0.7053  1.3045  0.9931
24633SOL    HW279992  10.153   5.091   5.085  1.3302  4.5560  2.1085
24634SOL     OW79993   1.149   2.655   5.778  0.2450 -0.4182 -0.0231
24634SOL    HW179994   1.058   2.681   5.762 -1.6009 -4.3963  2.3500
24634SOL    HW279995   1.175   2.608   5.700  0.0477  0.1330 -0.4297
24635SOL     OW79996   2.480   0.384   5.810 -0.3598 -0.1776  0.4072
24635SOL    HW179997   2.402   0.392   5.864  1.1102  0.6177  2.5454
24635SOL    HW279998   2.471   0.452   5.743 -1.0737  0.5024  1.1787
24636SOL     OW79999   0.511  10.156   1.557 -0.0606  0.2752  0.0743
24636SOL    HW180000   0.437  10.096   1.566  0.2141 -0.0801 -0.0291
24636SOL    HW280001   0.491  10.227   1.618  0.0206 -0.3295  0.8185
24637SOL     OW80002   2.696   2.907   3.553  0.3317 -0.0359  0.4887
24637SOL    HW180003   2.755   2.906   3.478  0.6092  1.8818  0.6334
24637SOL    HW280004   2.648   2.989   3.544  0.2762  0.1738  2.3395
24638SOL     OW80005   2.426   1.773   6.042 -0.2078  0.3336  0.4664
24638SOL    HW180006   2.514   1.760   6.078  0.4336  1.4655 -0.6251
24638SOL    HW280007   2.368   1.745   6.113  0.9673 -3.1169  0.2756
24639SOL     OW80008   2.803   6.140   0.332 -0.2481 -0.3721  0.0158
24639SOL    HW180009   2.794   6.080   0.407  3.8149  0.1497  1.1530
24639SOL    HW280010   2.845   6.218   0.369  0.5419  0.5137 -2.5580
24640SOL     OW80011   8.151   1.346   5.792 -0.2814 -0.1813  0.7760
24640SOL    HW180012   8.175   1.335   5.884 -1.5591  1.3442  1.3440
24640SOL    HW280013   8.129   1.439   5.784 -1.5823 -0.5695 -0.7297
24641SOL     OW80014   6.509   3.360   2.949  0.6701 -0.2857 -0.6652
24641SOL    HW180015   6.599   3.390   2.935  0.2441  0.4558 -2.0060
24641SOL    HW280016   6.479   3.410   3.025  1.4101 -0.6132 -0.1478
24642SOL     OW80017   5.980   7.719   6.620 -0.3378  0.3000  0.1963
24642SOL    HW180018   5.976   7.656   6.548  0.0198  3.2529 -2.6439
24642SOL    HW280019   6.061   7.767   6.606  0.2813  0.3891  3.2741
24643SOL     OW80020  10.848   1.382   2.517 -0.0958  0.6892 -0.4922
24643SOL    HW180021  10.760   1.390   2.481  0.7623  0.0998 -2.8987
24643SOL    HW280022  10.887   1.308   2.471  1.7196  1.0270  0.3806
24644SOL     OW80023   4.886   8.347   3.614 -0.4203 -0.2228  0.0706
24644SOL    HW180024   4.968   8.396   3.617 -1.4016  1.4875  0.0842
24644SOL    HW280025   4.898   8.284   3.543  1.1305 -0.4622  0.5185
24645SOL     OW80026   8.863   5.743   9.012 -0.0422 -0.2974 -0.1164
24645SOL    HW180027   8.941   5.773   9.059 -0.2895 -1.2747  0.9718
24645SOL    HW280028   8.877   5.771   8.922  0.3174  1.8940  0.5603
24646SOL     OW80029   5.048   4.085   4.455 -0.3546  0.1244 -0.6712
24646SOL    HW180030   4.989   4.129   4.393 -0.8205  0.1931 -0.1897
24646SOL    HW280031   5.131   4.079   4.409 -0.7532 -0.0215 -1.3920
24647SOL     OW80032   5.779  10.886   5.632  0.1306 -1.1843 -0.2471
24647SOL    HW180033   5.735  10.813   5.589 -0.0280 -0.1825 -1.9024
24647SOL    HW280034   5.850  10.910   5.572 -1.3572  1.5988 -1.0874
24648SOL     OW80035   2.494   1.418   7.320  0.2498 -0.3229  0.0152
24648SOL    HW180036   2.515   1.459   7.404  0.4927  0.9848 -0.6609
24648SOL    HW280037   2.417   1.466   7.289  0.2008 -0.7547 -0.5363
24649SOL     OW80038   7.451   5.667   0.851  0.7089  0.0019 -0.0478
24649SOL    HW180039   7.504   5.731   0.897  1.4006  0.0228 -0.8391
24649SOL    HW280040   7.482   5.582   0.883 -0.5028  0.0416  1.3191
24650SOL     OW80041   3.929   7.628   2.998  0.0659 -0.0298  0.6486
24650SOL    HW180042   3.883   7.635   2.915 -0.4415 -3.5792  0.4923
24650SOL    HW280043   4.011   7.583   2.977  0.7245  0.5296  1.8747
24651SOL     OW80044   5.300   9.902   3.045  0.2399 -0.4557 -0.3047
24651SOL    HW180045   5.342   9.975   2.999  0.6485 -0.6995 -0.3239
24651SOL    HW280046   5.297   9.832   2.980  2.0709 -1.2669  0.4195
24652SOL     OW80047   3.705  10.460   7.727 -0.1435 -0.3423  0.5979
24652SOL    HW180048   3.749  10.418   7.801 -0.8243 -1.9080  0.1529
24652SOL    HW280049   3.634  10.400   7.705 -1.2954  1.1633  0.0528
24653SOL     OW80050   6.910   6.402   0.006 -0.1688  0.6686  0.2533
24653SOL    HW180051   6.960   6.324   0.030  1.2819  1.4238 -0.2230
24653SOL    HW280052   6.884   6.387  -0.085  0.6717  1.0121 -0.0495
24654SOL     OW80053   2.449   6.970   9.279 -0.3077  0.0782 -0.7017
24654SOL    HW180054   2.533   6.949   9.321  0.4310 -0.1854 -2.2215
24654SOL    HW280055   2.383   6.943   9.342  0.7390  0.9137  0.8290
24655SOL     OW80056   5.569   5.993   6.715  0.2957 -0.6784 -0.2503
24655SOL    HW180057   5.535   6.082   6.726 -0.4259 -1.1525  1.8269
24655SOL    HW280058   5.615   5.995   6.631  0.2079  1.6219 -0.3064
24656SOL     OW80059   9.411   9.911   0.939 -0.4531 -0.2118 -0.3176
24656SOL    HW180060   9.351   9.872   0.876  1.2488 -3.6532 -0.0130
24656SOL    HW280061   9.357   9.929   1.016 -1.9710  1.3927 -1.6582
24657SOL     OW80062   7.661   1.100  10.691 -1.0754  0.1188  0.4811
24657SOL    HW180063   7.596   1.060  10.633  1.1401 -0.6202 -1.6435
24657SOL    HW280064   7.659   1.193  10.667  0.9632 -0.4074 -2.1370
24658SOL     OW80065   3.219   4.651   7.311 -0.3358  0.0589  0.0477
24658SOL    HW180066   3.137   4.671   7.266 -0.1143  0.0653 -0.3601
24658SOL    HW280067   3.285   4.654   7.242 -0.0185 -0.1274  0.3421
24659SOL     OW80068   8.873   9.089   1.749  0.7406 -0.0215 -0.2463
24659SOL    HW180069   8.881   9.039   1.830 -0.2519  0.0214 -0.1096
24659SOL    HW280070   8.792   9.056   1.709  0.1542  1.3554 -0.2372
24660SOL     OW80071   8.885   3.520  10.226 -0.2624 -0.3156  0.1593
24660SOL    HW180072   8.888   3.595  10.285  0.5544 -1.5059  1.7150
24660SOL    HW280073   8.946   3.542  10.156  0.3837  0.2577  0.8757
24661SOL     OW80074   5.586   1.458   6.983  0.0644 -0.9028  0.3948
24661SOL    HW180075   5.581   1.422   6.895  0.6092  0.7124 -0.3267
24661SOL    HW280076   5.669   1.426   7.018 -0.0567 -1.3778  0.2578
24662SOL     OW80077  10.010   7.920   2.388 -0.6932 -0.2306  0.3993
24662SOL    HW180078   9.923   7.879   2.390 -1.0890  0.6061  1.8960
24662SOL    HW280079  10.049   7.898   2.473  0.6974 -0.8165 -0.3430
24663SOL     OW80080   9.671   6.034  10.131  0.2820 -0.0148 -0.1441
24663SOL    HW180081   9.665   5.973  10.057 -0.6911 -1.1662  0.8336
24663SOL    HW280082   9.580   6.060  10.148  0.2936 -0.9298  1.5382
24664SOL     OW80083   0.042   7.969   5.471  0.5758  0.2777 -0.6644
24664SOL    HW180084   0.113   7.971   5.407  0.7897 -0.9602 -0.5000
24664SOL    HW280085   0.080   8.003   5.551  0.5591  0.9886 -0.9486
24665SOL     OW80086   0.714   1.615   7.504  0.0604  0.2309  0.1143
24665SOL    HW180087   0.727   1.643   7.594 -1.4438 -1.5142  0.9224
24665SOL    HW280088   0.631   1.655   7.478  0.1019  0.0954 -0.2384
24666SOL     OW80089   6.167   7.914   8.775  0.1622 -0.4417 -0.1672
24666SOL    HW180090   6.178   7.823   8.745  1.3369 -0.1474 -0.6580
24666SOL    HW280091   6.251   7.937   8.814 -0.0098  0.5642 -0.3741
24667SOL     OW80092   7.281   8.089   4.386 -0.2808  0.1193 -0.2110
24667SOL    HW180093   7.228   8.016   4.355  0.5614 -0.9402  0.7477
24667SOL    HW280094   7.366   8.077   4.344 -0.1649  0.6000 -0.1217
24668SOL     OW80095   3.474   6.215   4.992 -0.1251  0.0001 -0.2402
24668SOL    HW180096   3.563   6.209   4.956  0.0292 -0.1939  0.1652
24668SOL    HW280097   3.463   6.134   5.041  0.2406  0.9129  1.4220
24669SOL     OW80098   1.105   8.948  10.909 -0.1069  1.2913  0.4291
24669SOL    HW180099   1.196   8.964  10.882 -0.4262  2.4145 -0.0183
24669SOL    HW280100   1.057   9.025  10.878 -1.3396  0.3972  0.0719
24670SOL     OW80101   6.844   4.271   6.407 -0.4769 -0.6493  0.3700
24670SOL    HW180102   6.924   4.317   6.384 -0.3164 -1.5469 -0.9954
24670SOL    HW280103   6.779   4.302   6.344 -0.9304 -0.7061  0.7991
24671SOL     OW80104   3.331   3.596   7.437  0.1010 -0.4186 -0.0916
24671SOL    HW180105   3.383   3.572   7.360  0.8462  0.0987  0.2311
24671SOL    HW280106   3.367   3.680   7.464 -0.6192 -0.2689  0.4145
24672SOL     OW80107   5.799   9.654   0.102 -0.3767  0.4391 -0.0179
24672SOL    HW180108   5.743   9.577   0.090 -2.5854  2.1511 -1.6042
24672SOL    HW280109   5.830   9.674   0.014  1.1689  0.6835  0.5680
24673SOL     OW80110   4.981   6.886   8.167  0.0059  0.1889  0.5106
24673SOL    HW180111   4.993   6.792   8.179 -0.1987  0.2343  1.0672
24673SOL    HW280112   4.917   6.893   8.096 -0.5577 -0.1022  0.9824
24674SOL     OW80113   8.298   7.825   9.826 -0.5422  0.4057 -0.5113
24674SOL    HW180114   8.345   7.866   9.899  1.3709  0.7500 -1.8619
24674SOL    HW280115   8.235   7.893   9.798 -2.1973 -0.1699  1.4954
24675SOL     OW80116   1.003   7.998   8.413 -0.2197 -0.0367 -0.2669
24675SOL    HW180117   1.043   8.083   8.433 -0.1708 -0.0161 -0.4533
24675SOL    HW280118   0.915   8.020   8.382 -0.1539 -0.0451 -0.4600
24676SOL     OW80119   7.632   1.638   3.474 -0.3512  0.0779 -0.4447
24676SOL    HW180120   7.560   1.595   3.428 -1.1886  0.9565  0.0165
24676SOL    HW280121   7.645   1.586   3.553  0.1194 -0.5918 -0.9553
24677SOL     OW80122   3.939   4.137   4.703  0.3561 -0.2745 -0.3978
24677SOL    HW180123   4.017   4.190   4.718  0.6751 -1.1856  1.4159
24677SOL    HW280124   3.969   4.046   4.714 -0.8219 -0.6655 -0.2494
24678SOL     OW80125   4.543   1.156   5.538  0.0029 -0.2086  0.6188
24678SOL    HW180126   4.552   1.176   5.631  0.0575 -0.5244  0.6810
24678SOL    HW280127   4.631   1.169   5.501  0.3338 -1.5229  0.8894
24679SOL     OW80128   4.910   8.294   5.327  0.0571 -0.3274  0.1090
24679SOL    HW180129   4.983   8.264   5.272 -0.7503  0.2424 -1.3438
24679SOL    HW280130   4.888   8.380   5.292  0.1992  0.5583  2.0702
24680SOL     OW80131   4.956   6.928   3.311  0.3691  0.4735  0.1347
24680SOL    HW180132   4.879   6.872   3.325  1.4889 -1.5788 -1.4007
24680SOL    HW280133   4.976   6.963   3.398 -0.4515 -1.4424  1.1526
24681SOL     OW80134  10.010   4.171   6.259 -0.2185  0.5518  0.2453
24681SOL    HW180135  10.071   4.132   6.322 -0.3822  0.9111  0.6344
24681SOL    HW280136   9.923   4.146   6.291 -0.3259  1.2165  0.4966
24682SOL     OW80137   3.898   5.885   1.132 -0.0415 -0.0152  0.0048
24682SOL    HW180138   3.936   5.823   1.194  0.9354  0.4068 -0.1474
24682SOL    HW280139   3.889   5.835   1.050  0.6794  0.0112 -0.0985
24683SOL     OW80140   7.939   1.703   1.023  0.1361 -0.1300 -0.2117
24683SOL    HW180141   7.873   1.642   0.989 -0.1939 -0.5027  1.0456
24683SOL    HW280142   8.022   1.665   0.994 -0.1786  0.2976 -1.7336
24684SOL     OW80143   5.729   0.490   1.794 -0.3015  0.5037 -0.4334
24684SOL    HW180144   5.788   0.523   1.862 -0.0288 -0.8622  0.0169
24684SOL    HW280145   5.786   0.471   1.720 -0.7135  2.9422 -1.4946
24685SOL     OW80146  10.240   1.400   2.772 -0.4327 -0.4464  0.1134
24685SOL    HW180147  10.249   1.495   2.763  1.4321 -0.6162 -0.3867
24685SOL    HW280148  10.225   1.369   2.682 -2.0554 -0.5641  0.4050
24686SOL     OW80149   3.148   1.718   5.556  0.0597  0.3090 -0.7748
24686SOL    HW180150   3.114   1.807   5.561  2.4390  1.2330  0.3304
24686SOL    HW280151   3.166   1.705   5.463 -0.0206  1.1068 -0.9128
24687SOL     OW80152   5.392   2.185   6.576 -0.1009  0.1816  0.3071
24687SOL    HW180153   5.451   2.121   6.616 -0.1334  0.5123  0.8994
24687SOL    HW280154   5.425   2.270   6.607 -1.0137  0.3583  0.8171
24688SOL     OW80155   7.597   0.446   3.942 -0.1378  0.7122  0.0828
24688SOL    HW180156   7.508   0.473   3.962 -1.5601 -1.9831 -1.9399
24688SOL    HW280157   7.626   0.397   4.019 -0.9914  0.3634  0.1861
24689SOL     OW80158   0.144   4.387   8.151 -0.3998  0.2173 -0.4773
24689SOL    HW180159   0.179   4.423   8.233  0.5717  0.7057 -1.0759
24689SOL    HW280160   0.217   4.394   8.089 -1.4105  0.7718 -1.6484
24690SOL     OW80161   9.060   8.409   5.311  0.0200 -0.1045 -0.6270
24690SOL    HW180162   9.032   8.341   5.250 -2.2251  0.9838 -0.9592
24690SOL    HW280163   9.041   8.491   5.264  2.9810  0.8195 -0.4055
24691SOL     OW80164   7.839  10.238   2.831 -0.2113 -0.2854  0.3213
24691SOL    HW180165   7.807  10.169   2.772 -0.2084 -0.2235  0.2464
24691SOL    HW280166   7.922  10.266   2.791 -0.5402  0.2250 -0.0167
24692SOL     OW80167   8.821   7.076  10.788  0.6244  0.0794  0.6198
24692SOL    HW180168   8.860   7.073  10.701 -0.2873 -1.6668  0.2114
24692SOL    HW280169   8.892   7.050  10.847  0.5403 -1.5329  0.0574
24693SOL     OW80170   7.268   7.952  10.144 -0.1040 -0.5712  0.0627
24693SOL    HW180171   7.339   7.985  10.089 -0.2398  0.1511  0.3082
24693SOL    HW280172   7.271   7.857  10.133  1.0217 -0.5670  0.2216
24694SOL     OW80173   1.704   7.984  10.173 -0.2586 -0.2706  0.3933
24694SOL    HW180174   1.696   8.067  10.126  0.3099  0.0935  0.9206
24694SOL    HW280175   1.614   7.962  10.197 -0.2662  1.3845  2.2087
24695SOL     OW80176   3.331   9.077   7.437  0.0485  0.0749  0.2130
24695SOL    HW180177   3.371   9.119   7.513 -0.7485  2.1342 -0.4585
24695SOL    HW280178   3.240   9.104   7.439 -0.2091 -0.6364 -0.9587
24696SOL     OW80179   0.534   1.093   8.438 -0.1983 -0.0485  0.4541
24696SOL    HW180180   0.495   1.110   8.353 -2.3553  0.4181  1.4713
24696SOL    HW280181   0.515   1.171   8.490 -1.7930 -1.5250  2.2948
24697SOL     OW80182   7.262   9.760   4.616 -0.1259  0.5029  0.2012
24697SOL    HW180183   7.296   9.793   4.533 -0.4099 -1.0180 -0.5453
24697SOL    HW280184   7.216   9.835   4.654  0.3740  1.3462 -0.8046
24698SOL     OW80185   3.296   5.251   0.283  0.2072  0.4258 -0.8046
24698SOL    HW180186   3.245   5.264   0.203  1.7726 -2.5133 -2.4543
24698SOL    HW280187   3.249   5.184   0.332 -0.0850  1.3169  0.1654
24699SOL     OW80188   4.409   9.434   3.954 -0.0284 -0.1141  0.1867
24699SOL    HW180189   4.402   9.486   3.874  0.7459 -0.9917 -0.4846
24699SOL    HW280190   4.443   9.349   3.924  1.4446 -0.0771  1.5896
24700SOL     OW80191   8.705   5.092   0.069  0.4063  0.6580  0.4936
24700SOL    HW180192   8.679   5.037  -0.005  1.5535 -2.3457  2.1755
24700SOL    HW280193   8.791   5.126   0.043  0.4672  0.2416  0.1299
24701SOL     OW80194   2.771   5.212   3.244 -0.7126 -0.2762  0.2501
24701SOL    HW180195   2.768   5.140   3.308  0.2061  1.5338  2.4733
24701SOL    HW280196   2.864   5.224   3.226 -0.8151  0.6774  0.3169
24702SOL     OW80197   2.704   4.198   0.053  0.6541  0.0640 -0.3320
24702SOL    HW180198   2.799   4.192   0.040  0.8471 -2.0253  1.3833
24702SOL    HW280199   2.682   4.118   0.102 -1.6630  1.5028  1.1654
24703SOL     OW80200   7.181  10.717   6.208  0.3739 -0.3985  0.0913
24703SOL    HW180201   7.184  10.645   6.144 -0.6002 -0.3309 -0.0438
24703SOL    HW280202   7.182  10.796   6.154 -0.8189 -0.3434  0.1167
24704SOL     OW80203   0.727   4.882   0.878 -0.0679  0.7439  0.1740
24704SOL    HW180204   0.776   4.817   0.827  0.9311  2.8491 -1.6889
24704SOL    HW280205   0.763   4.875   0.966 -0.7513 -1.9127  0.3383
24705SOL     OW80206   4.970   8.962   2.158 -0.0360 -0.2375  0.1910
24705SOL    HW180207   4.979   8.920   2.244 -2.5393 -1.3095  0.0255
24705SOL    HW280208   4.884   8.934   2.127  1.3068 -0.9829 -3.2842
24706SOL     OW80209   7.771  10.908   4.848  0.4146 -0.0837 -0.1541
24706SOL    HW180210   7.741  10.992   4.815  0.9561 -0.0669 -0.6288
24706SOL    HW280211   7.766  10.916   4.943 -2.0126 -0.4373 -0.1763
24707SOL     OW80212   3.752   5.380   5.125 -0.1249  0.1473  0.1731
24707SOL    HW180213   3.799   5.404   5.045 -0.4894 -0.2134 -0.1514
24707SOL    HW280214   3.686   5.449   5.135  0.1249  0.3643  0.3389
24708SOL     OW80215   8.869   7.528   4.782 -0.0131 -0.8597 -0.5523
24708SOL    HW180216   8.887   7.464   4.713  1.7085 -0.2244 -0.7474
24708SOL    HW280217   8.952   7.538   4.828  0.2664  2.3468 -1.4993
24709SOL     OW80218   4.645   6.103   5.081 -0.3973  0.3156 -0.3571
24709SOL    HW180219   4.650   6.160   5.157  1.3266  0.5072 -0.5908
24709SOL    HW280220   4.591   6.029   5.111  0.4035  0.2847  1.1327
24710SOL     OW80221  10.875  10.538   2.236  0.2378 -0.4176  0.3920
24710SOL    HW180222  10.918  10.502   2.314  2.6530  3.4646  1.1995
24710SOL    HW280223  10.802  10.589   2.271  0.4687  0.1826  0.0291
24711SOL     OW80224   5.021   8.244   1.043 -0.0142  0.1808  0.0634
24711SOL    HW180225   5.013   8.162   0.994  0.5202 -1.3135  2.3498
24711SOL    HW280226   4.934   8.258   1.080  0.4302 -0.5493  1.4306
24712SOL     OW80227   6.626   8.151   5.289 -0.4634 -0.2589 -0.0181
24712SOL    HW180228   6.640   8.122   5.199 -0.5985  1.4747 -0.6334
24712SOL    HW280229   6.647   8.074   5.343 -0.2830 -1.2915 -1.5053
24713SOL     OW80230   4.659  10.290   8.212  0.0186  0.8497 -0.2903
24713SOL    HW180231   4.697  10.263   8.128  1.1777  0.9325  0.1894
24713SOL    HW280232   4.617  10.374   8.193 -0.5250  0.4296 -0.9909
24714SOL     OW80233   9.494   3.968   7.846 -0.1306  0.3359 -0.0167
24714SOL    HW180234   9.528   3.984   7.758 -0.5631  1.4456  0.0016
24714SOL    HW280235   9.530   3.883   7.871  0.0017  0.0077 -1.2590
24715SOL     OW80236   8.915   3.405   0.696  0.6260  1.1040  0.4268
24715SOL    HW180237   8.991   3.374   0.746  1.0090  1.1131 -0.1339
24715SOL    HW280238   8.902   3.338   0.628 -0.2846  0.7695  0.9280
24716SOL     OW80239   5.650   5.848   5.562 -0.0768  0.1558 -0.2837
24716SOL    HW180240   5.584   5.781   5.580 -0.1293  0.7302  1.9561
24716SOL    HW280241   5.601   5.930   5.561  0.4068  0.4490  0.0354
24717SOL     OW80242   6.672   6.087   7.784  0.3161 -0.1998 -0.0123
24717SOL    HW180243   6.636   6.019   7.726 -0.4091 -0.2556  0.4937
24717SOL    HW280244   6.651   6.057   7.872  0.0219  0.6681  0.2178
24718SOL     OW80245   1.634   0.483   7.786 -0.3665 -0.1699 -0.1688
24718SOL    HW180246   1.718   0.481   7.831 -0.8816 -0.3066  0.8070
24718SOL    HW280247   1.569   0.479   7.856 -1.1929 -2.0070 -0.9683
24719SOL     OW80248   7.108   6.633   7.755 -0.4808 -0.3774 -0.3707
24719SOL    HW180249   7.068   6.663   7.673  0.2350  0.2738 -0.4976
24719SOL    HW280250   7.145   6.548   7.734  0.4842  0.1742 -0.9943
24720SOL     OW80251  10.509   1.375   3.474  0.1227 -0.1351  0.1893
24720SOL    HW180252  10.518   1.469   3.459  0.8283  0.5640  3.9152
24720SOL    HW280253  10.599   1.341   3.468 -0.1301 -0.6365 -1.1602
24721SOL     OW80254   3.573   4.561   9.727 -0.2379  0.2796 -0.1663
24721SOL    HW180255   3.557   4.562   9.633 -0.7752  1.0778 -0.0786
24721SOL    HW280256   3.553   4.471   9.754 -0.2327  0.0886 -0.7880
24722SOL     OW80257  10.363   9.536   8.120  0.5060  0.0014  0.0467
24722SOL    HW180258  10.383   9.614   8.069  0.1107  0.1967  0.1792
24722SOL    HW280259  10.349   9.468   8.055 -1.4631  0.5862 -0.2029
24723SOL     OW80260   7.949   1.434   0.899 -0.0106  0.2775  0.1272
24723SOL    HW180261   7.996   1.358   0.933 -0.5931 -0.5779 -0.9172
24723SOL    HW280262   8.011   1.478   0.842  0.1315  0.2497  0.2602
24724SOL     OW80263   0.144   0.982   9.732  0.5530 -0.0704 -0.0618
24724SOL    HW180264   0.217   0.986   9.793  0.0497  3.4805  0.5013
24724SOL    HW280265   0.068   1.009   9.784 -0.3877  0.4201 -1.6280
24725SOL     OW80266   2.776  10.106   2.350  1.1104 -0.0425 -0.3115
24725SOL    HW180267   2.837  10.076   2.417  1.7870  0.6182 -0.6208
24725SOL    HW280268   2.689  10.099   2.391  1.3826 -0.9948  0.1246
24726SOL     OW80269   6.786   6.531   8.571 -0.2760 -0.1413  0.2531
24726SOL    HW180270   6.804   6.460   8.509  0.1453 -0.2685  0.5248
24726SOL    HW280271   6.799   6.611   8.520  0.2905 -0.2429  0.2378
24727SOL     OW80272   6.987   9.815   8.648  0.0980 -0.0907  0.4420
24727SOL    HW180273   6.973   9.910   8.639 -0.3746 -0.2152 -0.2070
24727SOL    HW280274   7.022   9.804   8.736  0.8867  0.7667  0.2520
24728SOL     OW80275   6.213   3.023   3.064  0.2206 -0.5592  0.6444
24728SOL    HW180276   6.133   3.035   3.012 -0.4814  1.3416  2.0487
24728SOL    HW280277   6.283   3.015   2.999 -0.5683  2.1932 -0.6950
24729SOL     OW80278   5.998   5.229   3.287 -0.3326 -0.0764 -0.1928
24729SOL    HW180279   5.924   5.273   3.245 -1.9411 -0.9892  1.5446
24729SOL    HW280280   6.009   5.275   3.371 -0.6858 -1.5904  0.7236
24730SOL     OW80281   6.041   3.053   1.113  0.2097  0.3592  0.2167
24730SOL    HW180282   6.111   3.091   1.059  0.7909  0.2300  0.8598
24730SOL    HW280283   5.968   3.114   1.103  0.5247  0.6793 -0.2027
24731SOL     OW80284   4.753   1.824   6.609  0.4016 -0.1788 -0.5668
24731SOL    HW180285   4.668   1.858   6.638  0.9410  0.2723  0.5586
24731SOL    HW280286   4.732   1.765   6.537 -0.8174  0.3547 -0.6789
24732SOL     OW80287  10.536   8.353   5.695 -0.1067  0.1549  0.1150
24732SOL    HW180288  10.530   8.258   5.686  1.2352  0.0018  0.5919
24732SOL    HW280289  10.589   8.380   5.620  0.2974  0.4058  0.4864
24733SOL     OW80290   8.695  10.176   5.453 -0.5352 -0.1438 -0.7399
24733SOL    HW180291   8.678  10.212   5.366 -1.8132  0.9875 -0.0772
24733SOL    HW280292   8.651  10.091   5.453 -1.2999  0.2342 -0.9474
24734SOL     OW80293   3.178   2.835   4.958  0.1691  0.2457 -0.3008
24734SOL    HW180294   3.211   2.856   4.871  0.3601  0.7139 -0.1141
24734SOL    HW280295   3.096   2.884   4.965  1.4444  2.3589  0.7851
24735SOL     OW80296   6.396   7.895   0.520  0.6520 -0.0775 -0.6808
24735SOL    HW180297   6.454   7.869   0.592 -0.2022 -0.5737 -0.1514
24735SOL    HW280298   6.311   7.859   0.544  0.1692  0.4488 -1.5528
24736SOL     OW80299   5.540   3.151   0.171 -0.0442  0.7100  0.2843
24736SOL    HW180300   5.617   3.148   0.115 -0.1607 -2.7712  0.0727
24736SOL    HW280301   5.466   3.149   0.110 -0.5479  5.0069  0.4320
24737SOL     OW80302   5.687   3.042   5.606 -0.0155  0.1637  0.6512
24737SOL    HW180303   5.689   3.005   5.518 -0.2176 -0.3684  0.8616
24737SOL    HW280304   5.594   3.061   5.621 -0.1972 -1.1177  1.2909
24738SOL     OW80305   6.923   8.685   9.449 -0.2987 -0.1604 -0.1379
24738SOL    HW180306   6.932   8.717   9.360 -1.2543 -0.8253 -0.4906
24738SOL    HW280307   7.005   8.637   9.466  0.0384  0.2774 -0.5176
24739SOL     OW80308   8.618  10.044   1.076  0.1659 -0.6285 -0.0802
24739SOL    HW180309   8.575   9.968   1.036 -4.7944  1.4579  0.4927
24739SOL    HW280310   8.708  10.041   1.044 -0.6489 -4.8561 -2.7095
24740SOL     OW80311  10.926   3.169  10.450  0.0175  1.0060  0.3230
24740SOL    HW180312  10.983   3.117  10.392  0.9788  1.1859  1.0797
24740SOL    HW280313  10.877   3.104  10.500  1.2597  0.7854  1.3101
24741SOL     OW80314   6.821   3.595   0.105 -0.1642  0.3595  0.6265
24741SOL    HW180315   6.767   3.637   0.039 -0.7814 -1.1766  0.1138
24741SOL    HW280316   6.890   3.551   0.055  0.7473  1.1236  1.1786
24742SOL     OW80317   6.220   4.905   2.699  0.3462  0.2448 -0.1928
24742SOL    HW180318   6.306   4.937   2.727  0.8563  0.9060 -2.3155
24742SOL    HW280319   6.238   4.823   2.654 -0.6114 -1.5456  2.4954
24743SOL     OW80320   3.184  10.474   7.225  0.5482  0.2061 -0.9631
24743SOL    HW180321   3.257  10.457   7.286 -1.6257 -0.2874  1.7091
24743SOL    HW280322   3.155  10.388   7.197 -1.2415  0.1026  0.9547
24744SOL     OW80323   4.307   4.737   2.372  0.2455  0.2003 -0.2020
24744SOL    HW180324   4.337   4.784   2.451 -0.3832  0.9914 -0.4115
24744SOL    HW280325   4.255   4.665   2.406  0.1691  0.4028  0.1194
24745SOL     OW80326   3.812   2.434   0.724  0.0519 -0.3979 -0.5819
24745SOL    HW180327   3.877   2.504   0.716  0.8267 -1.0345 -0.0935
24745SOL    HW280328   3.862   2.359   0.756 -1.3507 -0.1935  2.5013
24746SOL     OW80329   4.762  10.088  10.844 -0.0076  0.0901 -0.2337
24746SOL    HW180330   4.703  10.039  10.786  0.0461  0.5779 -0.7093
24746SOL    HW280331   4.808  10.148  10.785  2.3323 -1.5308 -0.2298
24747SOL     OW80332   6.011  10.219   2.542 -0.3798 -0.2166 -0.2090
24747SOL    HW180333   6.060  10.302   2.540 -2.0685  0.8153 -0.8464
24747SOL    HW280334   6.008  10.192   2.450 -2.8570  0.9268 -0.5362
24748SOL     OW80335   2.170   0.945   3.569  0.1378 -0.1266  0.0038
24748SOL    HW180336   2.187   1.036   3.544 -0.5076 -0.1925 -0.7153
24748SOL    HW280337   2.257   0.906   3.576  0.3910  0.1176 -1.3430
24749SOL     OW80338   8.968   2.934  10.845 -0.2913  0.0560  0.1295
24749SOL    HW180339   8.932   3.008  10.894 -0.5911  0.0092 -0.0189
24749SOL    HW280340   9.055   2.963  10.818  0.3995 -0.3734  1.7587
24750SOL     OW80341   8.921   2.985   7.738 -0.2395 -0.5376  0.4002
24750SOL    HW180342   8.997   2.942   7.776 -0.4369 -1.2451  0.0232
24750SOL    HW280343   8.949   3.012   7.651 -0.2810 -0.3945  0.4313
24751SOL     OW80344   5.090   5.544   3.281  0.3724  0.8875 -0.0743
24751SOL    HW180345   5.031   5.585   3.344  1.2850  0.8694  0.8099
24751SOL    HW280346   5.054   5.568   3.196 -1.6048 -0.1622  0.4326
24752SOL     OW80347   5.343   8.176   9.426 -0.2877  0.2463 -0.3703
24752SOL    HW180348   5.275   8.187   9.360 -0.2404  0.9223 -0.3242
24752SOL    HW280349   5.420   8.219   9.388 -0.0135 -0.1334 -0.2455
24753SOL     OW80350   6.426   4.246   2.831 -0.3039 -0.8725  0.3113
24753SOL    HW180351   6.343   4.261   2.876 -0.8734 -1.3250 -0.5439
24753SOL    HW280352   6.466   4.333   2.823 -1.3509 -0.4306 -0.4683
24754SOL     OW80353  10.573   5.492   6.628  0.2548 -0.1011 -0.3629
24754SOL    HW180354  10.507   5.423   6.635 -1.4918  1.6214  1.1839
24754SOL    HW280355  10.579   5.511   6.535 -2.1382  0.2802 -0.4933
24755SOL     OW80356   1.622   5.677   0.473  0.5041 -0.2988 -0.0551
24755SOL    HW180357   1.534   5.643   0.459 -0.0171  1.1709 -0.4454
24755SOL    HW280358   1.640   5.732   0.397  1.2719  0.4035  0.6162
24756SOL     OW80359   0.735   3.967   9.493  0.3046 -0.1864 -0.4844
24756SOL    HW180360   0.814   4.021   9.500  0.7265 -0.7339 -0.9377
24756SOL    HW280361   0.768   3.877   9.485 -0.3863 -0.5195  0.2039
24757SOL     OW80362   0.816   8.076   0.945  0.0467  0.0768  0.3363
24757SOL    HW180363   0.784   7.992   0.912 -0.7876 -0.0390  1.3785
24757SOL    HW280364   0.907   8.060   0.970 -0.0842 -0.4963  0.4470
24758SOL     OW80365   9.016   1.803   6.947 -0.0327  0.1414  0.2201
24758SOL    HW180366   8.991   1.894   6.930 -0.1529  0.3060  1.2355
24758SOL    HW280367   8.963   1.776   7.022  0.4968 -0.5465  0.3632
24759SOL     OW80368   4.554   4.506   9.575 -0.0071 -0.7550  0.0539
24759SOL    HW180369   4.504   4.448   9.518 -0.8269  1.5457 -1.6758
24759SOL    HW280370   4.516   4.493   9.662 -3.9207  1.0668 -1.1887
24760SOL     OW80371   7.631   1.743  10.496  0.7097 -0.3403  0.1327
24760SOL    HW180372   7.550   1.793  10.506  0.4034 -0.8031  0.0210
24760SOL    HW280373   7.674   1.782  10.420 -1.0627 -2.2471 -1.9968
24761SOL     OW80374   6.550   2.928   7.545 -0.0626  0.0895  0.0089
24761SOL    HW180375   6.482   2.995   7.543  2.0764  2.5068  2.0017
24761SOL    HW280376   6.560   2.906   7.637  1.9892 -0.0158 -0.1904
24762SOL     OW80377   8.510  10.280   9.090 -0.3505  0.0441 -0.0633
24762SOL    HW180378   8.587  10.236   9.054 -1.0905 -2.4687  1.1626
24762SOL    HW280379   8.491  10.232   9.171 -1.5070  2.4611  1.1937
24763SOL     OW80380   8.589   8.928   8.848 -0.0036  0.0365  0.0597
24763SOL    HW180381   8.629   8.841   8.858  0.6989  0.2682 -0.6142
24763SOL    HW280382   8.653   8.977   8.796  0.1961  1.3732  1.5071
24764SOL     OW80383   1.112   6.411   0.386  0.2614  0.0678  0.2791
24764SOL    HW180384   1.142   6.390   0.475 -2.5524 -1.3655  1.0225
24764SOL    HW280385   1.102   6.506   0.386  1.6196  0.2426  0.9858
24765SOL     OW80386   1.428   3.842   0.905  0.4807 -0.2780 -0.6825
24765SOL    HW180387   1.404   3.920   0.955  2.1670 -0.0701 -0.1189
24765SOL    HW280388   1.459   3.877   0.821 -0.5793 -0.4959 -1.1766
24766SOL     OW80389   0.424   8.952   0.688 -0.3152 -0.0231  0.1867
24766SOL    HW180390   0.409   9.029   0.743 -0.8458 -1.0997  1.6183
24766SOL    HW280391   0.487   8.981   0.623 -0.8340  1.7460  0.4207
24767SOL     OW80392   6.881   0.702  10.441  0.3538  0.3855 -0.2125
24767SOL    HW180393   6.892   0.606  10.442 -0.2852  0.3159  0.3189
24767SOL    HW280394   6.971   0.735  10.438  0.8711 -0.1871  3.6845
24768SOL     OW80395   9.660  10.296   5.386  0.2388 -0.2908  0.7586
24768SOL    HW180396   9.610  10.319   5.465  0.3187 -0.5131  0.8771
24768SOL    HW280397   9.602  10.236   5.338 -0.0362  0.2827  0.3696
24769SOL     OW80398   5.866   8.628   9.827  0.6419 -0.3516 -0.3050
24769SOL    HW180399   5.803   8.664   9.890  0.2559 -2.7675  0.8039
24769SOL    HW280400   5.951   8.639   9.869  0.4899 -0.9822  0.1883
24770SOL     OW80401   3.495   3.089   5.937  0.2070  0.0556 -0.3780
24770SOL    HW180402   3.476   3.180   5.959  0.3411  0.0115 -0.0626
24770SOL    HW280403   3.553   3.059   6.008 -0.6755 -0.5808  0.1010
24771SOL     OW80404   0.718   7.805   7.919  0.5509 -0.2300 -0.2510
24771SOL    HW180405   0.685   7.885   7.959 -1.8475 -0.2963 -1.9331
24771SOL    HW280406   0.705   7.738   7.986  1.3306  0.5121  0.6736
24772SOL     OW80407   5.246   0.892  10.485 -0.1765 -0.1556  0.3955
24772SOL    HW180408   5.315   0.931  10.431 -0.5043  0.3598  0.3448
24772SOL    HW280409   5.292   0.830  10.541  0.2317 -0.3645 -0.1545
24773SOL     OW80410   4.237   7.828   9.311  0.2044  0.1891  0.0726
24773SOL    HW180411   4.158   7.843   9.259  0.0960  1.8704  0.6536
24773SOL    HW280412   4.211   7.851   9.400  0.6948 -1.5924  0.7039
24774SOL     OW80413   8.471   6.481   2.990  0.6210 -0.1007  0.0654
24774SOL    HW180414   8.396   6.535   2.967  0.6666 -1.0742 -2.6771
24774SOL    HW280415   8.434   6.410   3.043 -0.0252  0.5094  0.4585
24775SOL     OW80416   2.865   9.123  10.391  0.2520 -0.1730 -0.4219
24775SOL    HW180417   2.806   9.182  10.438 -1.7143 -1.2853 -1.3768
24775SOL    HW280418   2.902   9.066  10.459 -0.2671  0.1264  0.1155
24776SOL     OW80419   6.332   4.489   8.859  0.3244 -0.0707  0.1467
24776SOL    HW180420   6.333   4.463   8.766 -1.3945  2.0214 -0.5162
24776SOL    HW280421   6.365   4.411   8.905 -0.8194 -1.9634 -2.0181
24777SOL     OW80422   9.919   9.265   7.586 -0.1321 -0.4186 -0.3493
24777SOL    HW180423   9.921   9.212   7.506 -0.3772 -0.7309 -0.1500
24777SOL    HW280424   9.860   9.337   7.566 -0.3414 -0.5986 -0.3876
24778SOL     OW80425   7.538   9.098   6.770  0.2274 -0.7087 -0.2216
24778SOL    HW180426   7.461   9.153   6.785  0.1468 -0.7428 -0.5180
24778SOL    HW280427   7.606   9.137   6.824  0.5600  0.5176 -1.4809
24779SOL     OW80428   1.229   3.147   0.830  0.2859  0.6061  0.0504
24779SOL    HW180429   1.275   3.224   0.864  0.5246  0.0618  1.0018
24779SOL    HW280430   1.136   3.168   0.842  0.3290  0.9743 -0.2266
24780SOL     OW80431   9.196   1.633   4.903 -0.4140 -0.0741 -0.4017
24780SOL    HW180432   9.168   1.615   4.992 -0.8476 -0.9982 -0.7114
24780SOL    HW280433   9.129   1.591   4.848 -0.2199  0.5803 -1.1596
24781SOL     OW80434   1.629   3.975   2.766  0.5412  0.3923 -0.4999
24781SOL    HW180435   1.582   3.909   2.715  1.4204 -0.4743 -0.2178
24781SOL    HW280436   1.595   3.965   2.855 -1.4807  2.3504 -0.9517
24782SOL     OW80437   2.437   3.217   1.473  0.7809  0.0017  0.4753
24782SOL    HW180438   2.511   3.259   1.429  1.3534 -1.1957  0.2517
24782SOL    HW280439   2.426   3.134   1.426 -0.4708 -0.0008  0.7486
24783SOL     OW80440   4.088   6.124   0.986  0.5999  0.2619 -0.3825
24783SOL    HW180441   4.020   6.137   1.052 -0.3139 -0.1257 -1.2262
24783SOL    HW280442   4.041   6.093   0.909  1.3118  2.6955 -1.9273
24784SOL     OW80443   5.363   6.403   3.610 -0.2877  0.4412 -0.2654
24784SOL    HW180444   5.299   6.427   3.543  0.8059  2.3006 -0.7196
24784SOL    HW280445   5.321   6.427   3.693 -0.5044  0.8515 -0.4943
24785SOL     OW80446   2.079   2.521  10.409 -0.2803 -0.7385  0.2273
24785SOL    HW180447   2.173   2.516  10.427 -0.5215 -1.3752  1.4952
24785SOL    HW280448   2.058   2.435  10.372 -0.4218 -0.7408  0.3124
24786SOL     OW80449   0.738   3.257   1.064 -0.1705  0.0751  0.2228
24786SOL    HW180450   0.679   3.302   1.124 -0.2327  3.4385 -2.0765
24786SOL    HW280451   0.803   3.215   1.120 -0.4952  2.5755  2.6625
24787SOL     OW80452   3.040   4.801   6.567  0.2517 -0.0486  0.2569
24787SOL    HW180453   3.128   4.811   6.530  0.6975 -1.7666  0.7363
24787SOL    HW280454   2.981   4.809   6.492  1.0072 -1.3771 -0.5189
24788SOL     OW80455   3.525  10.558   1.129 -0.6279 -0.3073 -0.1045
24788SOL    HW180456   3.604  10.533   1.081 -0.5443 -2.5153  1.0409
24788SOL    HW280457   3.552  10.560   1.221 -1.6204  0.1723  0.1867
24789SOL     OW80458   2.153   9.935   0.690 -0.1197 -0.6118 -0.0219
24789SOL    HW180459   2.122   9.861   0.638  0.7767  0.2682 -1.9111
24789SOL    HW280460   2.075   9.987   0.708 -0.2753 -0.0949 -1.9514
24790SOL     OW80461   3.211   3.826   3.312 -0.3713  0.2804 -0.4590
24790SOL    HW180462   3.235   3.808   3.222 -0.1233 -0.4811 -0.2511
24790SOL    HW280463   3.144   3.760   3.333 -1.0043  0.9412 -0.3253
24791SOL     OW80464   0.390   2.122   9.376 -0.6492 -0.3643 -0.3489
24791SOL    HW180465   0.425   2.176   9.446 -0.7965  0.0736 -0.6066
24791SOL    HW280466   0.434   2.038   9.385 -0.9497 -0.4352  0.5002
24792SOL     OW80467   8.415   1.598   1.565 -0.3529 -0.3115 -0.1556
24792SOL    HW180468   8.448   1.527   1.620  0.4742  0.7040  0.7186
24792SOL    HW280469   8.374   1.659   1.627  0.2342  0.6624 -0.6945
24793SOL     OW80470   9.020   3.737   6.439  0.1119 -0.2679  0.7985
24793SOL    HW180471   9.055   3.650   6.420 -1.8557 -1.0223  0.3885
24793SOL    HW280472   9.008   3.778   6.354  0.1195  0.0273  0.9355
24794SOL     OW80473   5.619   7.748   3.556  0.3306 -0.1975  0.6876
24794SOL    HW180474   5.713   7.756   3.566  0.1948 -0.0350  1.9150
24794SOL    HW280475   5.585   7.836   3.568 -0.3535 -0.8275  5.1413
24795SOL     OW80476   8.173   1.310   0.449 -0.5529 -0.7764 -0.1658
24795SOL    HW180477   8.170   1.215   0.463 -2.1835 -0.7872 -0.4836
24795SOL    HW280478   8.140   1.348   0.530 -0.1374 -0.4834 -0.1295
24796SOL     OW80479   1.339   9.344   8.991 -0.4304 -0.2837 -0.1851
24796SOL    HW180480   1.354   9.270   9.050 -0.2103 -1.6899 -1.9225
24796SOL    HW280481   1.244   9.358   8.995 -0.3853 -0.1678  0.7015
24797SOL     OW80482   0.671  10.744   1.606 -0.2297  0.5269 -0.4594
24797SOL    HW180483   0.638  10.702   1.686  2.0440 -3.0546 -1.1967
24797SOL    HW280484   0.685  10.836   1.632 -1.1625 -0.0815  2.7060
24798SOL     OW80485   0.577   3.423   6.831 -0.3652  0.6708  0.0755
24798SOL    HW180486   0.633   3.374   6.891 -1.2950 -0.6656 -0.1075
24798SOL    HW280487   0.490   3.421   6.872 -0.9428  0.0160 -1.1297
24799SOL     OW80488  10.671   1.480   5.025  0.4379  0.1061  0.0418
24799SOL    HW180489  10.598   1.450   4.971  1.3915 -0.9395 -0.7083
24799SOL    HW280490  10.681   1.572   5.003 -0.1607  0.0644 -0.4191
24800SOL     OW80491   8.853   9.677   4.790 -0.2722  0.5762 -0.6485
24800SOL    HW180492   8.813   9.755   4.752 -1.0929  1.1033  1.1949
24800SOL    HW280493   8.828   9.679   4.882  0.9084 -1.1018 -0.2352
24801SOL     OW80494   3.891   3.182   0.232 -0.3142 -0.1733 -0.2470
24801SOL    HW180495   3.817   3.159   0.288 -2.6344  2.7214 -1.8265
24801SOL    HW280496   3.892   3.115   0.163  0.1926 -1.6116  1.1036
24802SOL     OW80497   2.838   8.017   6.075 -0.4484 -0.6242  0.9183
24802SOL    HW180498   2.847   7.927   6.043 -0.6757 -0.9704  1.8198
24802SOL    HW280499   2.925   8.040   6.106 -0.1750 -0.2118 -0.1181
24803SOL     OW80500   7.122   9.606   9.159 -0.3555  0.3938 -0.2327
24803SOL    HW180501   7.173   9.527   9.138 -0.2388  0.3839  0.0815
24803SOL    HW280502   7.035   9.589   9.122 -0.9546 -0.7680  1.5809
24804SOL     OW80503   8.535  10.770   8.220 -0.3439 -0.0427 -0.6659
24804SOL    HW180504   8.556  10.775   8.127 -2.0928  2.2807 -1.0359
24804SOL    HW280505   8.470  10.839   8.234 -2.1088 -2.0051  1.7877
24805SOL     OW80506   1.986   0.784   5.229  0.5300 -0.0619 -0.0882
24805SOL    HW180507   1.893   0.786   5.207  0.6988  1.6409 -0.7676
24805SOL    HW280508   1.988   0.781   5.325 -0.2675  2.1261  0.0411
24806SOL     OW80509   7.399   7.699   9.885  0.7638  0.2041 -0.2972
24806SOL    HW180510   7.375   7.702   9.792  1.3503 -0.4756 -0.4798
24806SOL    HW280511   7.457   7.623   9.892 -1.4510 -1.4737  1.1289
24807SOL     OW80512   6.816   0.564   1.593  0.0790 -0.0156  0.5555
24807SOL    HW180513   6.888   0.623   1.617 -0.2171  0.4559  0.2988
24807SOL    HW280514   6.758   0.565   1.670 -0.8547  1.4732 -0.1118
24808SOL     OW80515   2.425   6.931   8.153 -0.3397 -0.1797 -0.2155
24808SOL    HW180516   2.457   6.961   8.068  1.7569 -2.0822 -0.1932
24808SOL    HW280517   2.426   7.009   8.208  0.4905  0.6255 -1.3169
24809SOL     OW80518   9.559   0.442   0.200  0.6409  0.2036  0.3015
24809SOL    HW180519   9.506   0.483   0.267 -3.4554 -0.4854 -2.1884
24809SOL    HW280520   9.590   0.361   0.240 -1.7783 -0.2638  1.3989
24810SOL     OW80521   8.566   4.415   0.422  0.3017 -0.1104 -0.7405
24810SOL    HW180522   8.561   4.424   0.327  0.1635  0.5133 -0.6806
24810SOL    HW280523   8.650   4.453   0.445  1.0789 -1.7379 -0.7642
24811SOL     OW80524   5.287   7.649   5.227  0.4507  0.7171 -0.5417
24811SOL    HW180525   5.340   7.725   5.204  1.8983 -0.1979 -0.3267
24811SOL    HW280526   5.346   7.592   5.277 -0.2956 -0.9913 -1.5110
24812SOL     OW80527   0.218   8.519   9.164 -0.1743 -0.1754 -0.3203
24812SOL    HW180528   0.294   8.523   9.223 -0.3455  3.5141 -0.1713
24812SOL    HW280529   0.256   8.516   9.076  0.1412  0.4044 -0.2072
24813SOL     OW80530   2.855   4.282   6.910  0.2060  0.2278 -0.0058
24813SOL    HW180531   2.821   4.287   6.821  0.0758  0.3333  0.0512
24813SOL    HW280532   2.781   4.306   6.966  0.6115  1.3331  0.0789
24814SOL     OW80533   7.282   7.700   4.440 -0.5509 -0.2179  0.0488
24814SOL    HW180534   7.226   7.726   4.513 -1.3971  1.5512 -1.1388
24814SOL    HW280535   7.250   7.752   4.366  0.6996 -1.4450 -1.4267
24815SOL     OW80536   7.315   2.400   2.321  0.1248  0.3661 -0.2925
24815SOL    HW180537   7.348   2.488   2.340  2.3760 -0.2029 -1.2380
24815SOL    HW280538   7.277   2.408   2.233 -0.7974  0.6352  0.1143
24816SOL     OW80539   1.319   2.277   4.751  0.0467  0.5015  0.0416
24816SOL    HW180540   1.360   2.363   4.757  0.9684  0.1611 -0.9980
24816SOL    HW280541   1.244   2.282   4.810 -1.3027  2.7922 -1.6966
24817SOL     OW80542   5.341   3.173   5.307  0.1618 -0.3116  0.1246
24817SOL    HW180543   5.355   3.085   5.272  1.9204  0.4816 -1.3459
24817SOL    HW280544   5.279   3.213   5.245 -0.2047 -0.3286  0.4776
24818SOL     OW80545   7.703  10.864   2.476  0.5990 -0.5442  0.1449
24818SOL    HW180546   7.612  10.878   2.451 -0.0124 -0.5137  2.1981
24818SOL    HW280547   7.713  10.768   2.475 -0.3877 -0.7662  2.6523
24819SOL     OW80548   7.752   3.351   1.317 -0.0897  0.4989  0.3732
24819SOL    HW180549   7.838   3.331   1.280 -0.6608 -1.7364  0.0471
24819SOL    HW280550   7.691   3.331   1.245 -0.9616  0.3315  1.1418
24820SOL     OW80551   1.528   8.792   7.397  0.3051 -0.2206  0.1206
24820SOL    HW180552   1.510   8.877   7.436 -1.0154 -1.8268  3.3795
24820SOL    HW280553   1.616   8.769   7.429 -0.4053 -1.1450  1.5091
24821SOL     OW80554   7.352   1.031   0.065  0.3595  0.2547 -0.0612
24821SOL    HW180555   7.342   0.936   0.069  0.0609  0.2110 -1.5423
24821SOL    HW280556   7.445   1.045   0.051  0.6202  0.2529  1.4657
24822SOL     OW80557   5.248   7.701   3.758  0.0797 -0.5167 -0.5682
24822SOL    HW180558   5.265   7.782   3.806  0.3764  0.0108 -1.5277
24822SOL    HW280559   5.227   7.730   3.669 -0.7779 -1.4480 -0.6843
24823SOL     OW80560   2.735   4.394   3.099  0.1690  0.6788 -0.1495
24823SOL    HW180561   2.654   4.414   3.146  1.4734  1.3877  1.9386
24823SOL    HW280562   2.719   4.308   3.059 -1.2605  0.3397  1.0660
24824SOL     OW80563   7.203   1.826   8.179  0.4193  0.0402 -0.4461
24824SOL    HW180564   7.109   1.847   8.176  0.5152  0.3850 -1.3789
24824SOL    HW280565   7.222   1.817   8.272 -0.7454 -1.0097 -0.2821
24825SOL     OW80566   3.210   6.051   7.547  0.2966  0.2479  0.3511
24825SOL    HW180567   3.122   6.024   7.521 -0.2245 -1.0185  2.9876
24825SOL    HW280568   3.195   6.123   7.609  1.3350  2.0227 -1.3773
24826SOL     OW80569   5.614   2.012   9.849 -0.8509 -0.2164 -0.7738
24826SOL    HW180570   5.642   1.954   9.779  0.2954 -0.3273 -0.2526
24826SOL    HW280571   5.587   1.953   9.920  2.0596 -0.2475  0.4597
24827SOL     OW80572   4.588   7.982   2.638 -0.9650 -0.1279 -0.6379
24827SOL    HW180573   4.541   8.017   2.714  0.0065 -0.2072  0.0074
24827SOL    HW280574   4.629   8.059   2.598  1.6086 -0.4652  1.0792
24828SOL     OW80575  10.620   5.026   9.861  0.6005 -0.0283  0.3400
24828SOL    HW180576  10.530   4.993   9.856  1.5171 -2.7369 -0.0065
24828SOL    HW280577  10.649   5.000   9.948  1.5060 -0.5483 -0.1054
24829SOL     OW80578   2.136   0.329   0.523  0.2444 -0.2789 -0.7707
24829SOL    HW180579   2.212   0.285   0.486  0.6229 -1.4481  1.1990
24829SOL    HW280580   2.098   0.378   0.451  3.2336  0.9196 -1.6783
24830SOL     OW80581   4.180   7.151   0.706  0.2172  0.4825 -0.2799
24830SOL    HW180582   4.242   7.119   0.640 -0.4561  0.2645 -0.8234
24830SOL    HW280583   4.180   7.246   0.695 -0.6015  0.3833 -1.2607
24831SOL     OW80584   4.274   2.258   0.144  0.3018 -0.5732  0.5369
24831SOL    HW180585   4.224   2.236   0.066  2.6612 -0.8287 -1.0336
24831SOL    HW280586   4.243   2.198   0.211  0.3332 -2.5120 -1.0960
24832SOL     OW80587   8.039   6.099   6.581  0.1520  0.0481 -0.6012
24832SOL    HW180588   8.107   6.032   6.585 -0.0277 -0.1169 -0.1743
24832SOL    HW280589   8.083   6.177   6.548  0.9860  0.4926  1.4356
24833SOL     OW80590   3.404  10.102   3.042 -0.2632 -0.0876 -0.5123
24833SOL    HW180591   3.424  10.081   3.133  0.7898  1.4303 -0.3598
24833SOL    HW280592   3.404  10.017   2.997  3.5158 -0.5884  0.0874
24834SOL     OW80593  10.720   9.243   1.931 -0.2849  0.1936 -0.0493
24834SOL    HW180594  10.786   9.309   1.911 -0.2953  0.0758 -0.4792
24834SOL    HW280595  10.636   9.288   1.916 -0.2921 -0.2666 -1.5539
24835SOL     OW80596   2.738   0.161   3.675  0.2298 -0.2649  0.7118
24835SOL    HW180597   2.743   0.192   3.585  2.2874 -0.2827  0.7875
24835SOL    HW280598   2.818   0.193   3.717  0.6254 -2.4605  1.8131
24836SOL     OW80599  10.587   9.326   5.804 -0.0697  0.5314  0.4075
24836SOL    HW180600  10.493   9.333   5.786  0.1183  1.5709 -0.2426
24836SOL    HW280601  10.629   9.342   5.719  0.6642 -2.5455  0.0554
24837SOL     OW80602   9.783  10.206   8.706 -0.3604 -0.6006 -0.1999
24837SOL    HW180603   9.743  10.120   8.693 -0.1768 -1.0543  1.8788
24837SOL    HW280604   9.810  10.206   8.798 -0.3104  1.6648 -0.1697
24838SOL     OW80605   5.176   9.368   8.587 -0.3340  0.0801 -0.4821
24838SOL    HW180606   5.246   9.397   8.529  0.3174 -1.7481 -0.6625
24838SOL    HW280607   5.220   9.341   8.667 -0.8005 -1.0729 -0.5880
24839SOL     OW80608   4.726   3.486   8.868 -0.3827 -0.1586  0.3127
24839SOL    HW180609   4.764   3.563   8.911  0.9715  0.5137 -1.9180
24839SOL    HW280610   4.632   3.503   8.868 -0.1359  1.3406  0.1762
24840SOL     OW80611   5.524  10.072   8.421 -0.5527  0.1118 -0.5844
24840SOL    HW180612   5.431  10.096   8.419 -0.7415 -0.5485 -0.0779
24840SOL    HW280613   5.567  10.141   8.371 -1.2552  0.7229 -0.3791
24841SOL     OW80614   6.757   8.193   6.958 -0.2374 -0.1593 -0.1439
24841SOL    HW180615   6.718   8.200   6.870  1.4750  0.9978 -0.8830
24841SOL    HW280616   6.689   8.227   7.017 -0.8689  0.5090 -1.2045
24842SOL     OW80617   5.300   0.710   2.261 -0.4420  0.6205 -0.2642
24842SOL    HW180618   5.303   0.711   2.165  1.4600 -1.1639 -0.3032
24842SOL    HW280619   5.364   0.775   2.288  0.0906  0.1121 -0.2646
24843SOL     OW80620   0.952   1.723   0.377  0.3522  0.3329  0.0109
24843SOL    HW180621   0.857   1.721   0.386  0.4287  0.8030  0.9956
24843SOL    HW280622   0.970   1.672   0.298 -0.6633 -0.3975  0.2406
24844SOL     OW80623   1.076   3.454   0.058 -0.4687 -0.3772 -0.3762
24844SOL    HW180624   1.039   3.484  -0.024 -1.9692 -1.5433 -0.1683
24844SOL    HW280625   1.003   3.412   0.104 -0.0149  1.2757  2.0973
24845SOL     OW80626   7.023   4.278   4.885  0.4169  0.3537  0.3881
24845SOL    HW180627   7.041   4.303   4.975 -0.8723 -0.8233  1.0182
24845SOL    HW280628   7.056   4.188   4.878 -0.3244  0.1043 -0.0189
24846SOL     OW80629   4.238   3.844  10.927  0.5610 -0.0994 -0.3914
24846SOL    HW180630   4.238   3.936  10.898 -4.6234  0.3772  0.2858
24846SOL    HW280631   4.237   3.794  10.845  0.3157  0.5909 -0.8285
24847SOL     OW80632   6.051   3.691   5.137  0.1616 -0.6294  0.6925
24847SOL    HW180633   6.123   3.666   5.079 -0.1941  0.0484 -0.0623
24847SOL    HW280634   6.083   3.670   5.225  1.6876  0.5320  0.4703
24848SOL     OW80635   0.505   9.845   1.812 -0.0973  0.3720  0.6671
24848SOL    HW180636   0.593   9.808   1.822  0.0947  1.1106  1.8609
24848SOL    HW280637   0.446   9.780   1.850 -0.1243 -0.2600 -0.3998
24849SOL     OW80638   1.236   9.961   0.834  0.0687 -0.3617  0.5659
24849SOL    HW180639   1.163   9.934   0.890  0.6526  0.3036  1.6928
24849SOL    HW280640   1.194  10.003   0.759 -0.7300  1.1074  1.7650
24850SOL     OW80641   2.442   1.980  10.554  0.5595 -0.1910  0.3630
24850SOL    HW180642   2.509   2.009  10.615 -0.1413 -1.0482  1.5864
24850SOL    HW280643   2.468   1.892  10.528  1.0921  0.3338 -0.9701
24851SOL     OW80644   5.360   4.951   1.712 -0.5849  0.2026 -0.5396
24851SOL    HW180645   5.418   4.910   1.777 -0.5856 -0.1375 -0.7479
24851SOL    HW280646   5.369   5.045   1.728  1.2140  0.2621 -1.5537
24852SOL     OW80647   6.200   1.810  10.420 -0.2573 -0.3973 -0.0690
24852SOL    HW180648   6.285   1.852  10.429 -1.2963  2.1641 -1.2356
24852SOL    HW280649   6.211   1.724  10.461  2.5740  0.2264  0.6750
24853SOL     OW80650  10.744   2.364   0.159  0.2698  0.2513 -0.0908
24853SOL    HW180651  10.777   2.333   0.075  0.6912  0.1439  0.1079
24853SOL    HW280652  10.803   2.436   0.183  0.3750  0.0463  0.2754
24854SOL     OW80653   9.220   8.581  10.148  0.4661 -0.1409  0.5016
24854SOL    HW180654   9.200   8.671  10.122 -0.4427  0.0440  1.8011
24854SOL    HW280655   9.277   8.549  10.077  1.9324  1.8688  0.6715
24855SOL     OW80656   9.345   7.763   2.513 -0.6744 -0.7078 -0.1860
24855SOL    HW180657   9.338   7.794   2.604 -3.8155 -2.5343  0.3666
24855SOL    HW280658   9.409   7.692   2.516  0.6402  0.4499  0.1511
24856SOL     OW80659  10.074   3.658   0.808  0.5000  0.0402 -0.2980
24856SOL    HW180660   9.985   3.671   0.775  0.1193 -1.5597 -0.0245
24856SOL    HW280661  10.125   3.638   0.729  0.4163  0.0513 -0.3555
24857SOL     OW80662   4.284   7.348   2.021 -0.3449 -0.4471 -0.5453
24857SOL    HW180663   4.345   7.274   2.017  0.7001  0.2056  1.6374
24857SOL    HW280664   4.301   7.397   1.941 -0.3618 -2.0366 -1.5514
24858SOL     OW80665   8.097   2.031   5.935 -0.2179  0.1462  0.1591
24858SOL    HW180666   8.192   2.046   5.934 -0.1970  0.3304 -2.4883
24858SOL    HW280667   8.070   2.056   6.023  1.9612  1.6315  0.4897
24859SOL     OW80668   4.367   7.944   7.791 -0.2286  0.5249 -0.1037
24859SOL    HW180669   4.352   8.001   7.866 -2.3419  0.5772 -0.5078
24859SOL    HW280670   4.350   7.999   7.715  1.1381  0.2631 -0.6365
24860SOL     OW80671   9.392   2.037   4.053  0.7392 -0.3631 -0.4573
24860SOL    HW180672   9.378   2.131   4.057  0.0145 -0.5071  2.1793
24860SOL    HW280673   9.304   2.000   4.044  0.8193 -0.8226  0.5008
24861SOL     OW80674   7.026   7.126   5.797  0.5642  0.1616  0.2317
24861SOL    HW180675   7.097   7.145   5.735 -0.0597  0.4086 -0.4194
24861SOL    HW280676   6.971   7.062   5.752 -0.2956  0.8906  0.2199
24862SOL     OW80677   2.061   4.189   0.014 -0.7032 -0.3621  0.3897
24862SOL    HW180678   1.985   4.246   0.014 -0.6055 -0.2186 -0.7502
24862SOL    HW280679   2.066   4.155  -0.075  0.8254 -0.0220  0.3251
24863SOL     OW80680   1.462  10.230   0.317 -0.0921  0.4228 -0.5043
24863SOL    HW180681   1.374  10.194   0.310  0.7154 -1.6771 -0.8248
24863SOL    HW280682   1.450  10.324   0.323 -2.3476  0.1730 -0.4329
24864SOL     OW80683   0.881   2.945   1.076 -0.2712 -0.4175 -0.5203
24864SOL    HW180684   0.915   2.857   1.094  0.8232  0.1656  0.4232
24864SOL    HW280685   0.957   3.002   1.085 -1.3500  0.8725  1.0926
24865SOL     OW80686  10.576  10.008   5.605 -0.3554 -0.0775  0.5962
24865SOL    HW180687  10.569  10.027   5.511  0.2060 -0.3103  0.5037
24865SOL    HW280688  10.490  10.030   5.640  0.0275  2.0359  0.3965
24866SOL     OW80689   8.073   4.525   7.158 -0.5238 -0.6539 -0.2282
24866SOL    HW180690   8.058   4.489   7.071 -0.3249 -1.1767 -0.0527
24866SOL    HW280691   8.128   4.602   7.143  1.1230 -1.8192 -0.4185
24867SOL     OW80692   6.436   4.802   3.615 -0.5791 -0.4216  0.7394
24867SOL    HW180693   6.531   4.805   3.628 -0.2403 -2.9258 -0.4117
24867SOL    HW280694   6.399   4.835   3.697  1.2819  0.2159  1.3720
24868SOL     OW80695   3.688   5.712   1.435  0.4100  0.2495 -0.5291
24868SOL    HW180696   3.764   5.696   1.490  1.5630  0.1392 -2.0977
24868SOL    HW280697   3.660   5.626   1.406 -2.8192 -0.1980  3.0675
24869SOL     OW80698  10.658  10.057   3.922  0.6776 -0.2900  0.0655
24869SOL    HW180699  10.671  10.138   3.872  0.6768 -0.4490 -0.1933
24869SOL    HW280700  10.567  10.061   3.950  0.9139  0.2091  0.7852
24870SOL     OW80701   9.951   3.458   9.523  0.6074  0.2000 -0.0710
24870SOL    HW180702   9.985   3.491   9.606  0.1696 -0.3888  0.3502
24870SOL    HW280703  10.024   3.409   9.485  0.4533 -0.5227  0.5296
24871SOL     OW80704   2.254   8.770   5.720 -0.3371 -0.1188  0.9826
24871SOL    HW180705   2.161   8.769   5.700 -0.4329 -0.0256  1.4032
24871SOL    HW280706   2.268   8.855   5.762 -0.2579 -0.5316  1.8033
24872SOL     OW80707   6.424   1.986   3.667 -0.3047 -0.2920 -0.1865
24872SOL    HW180708   6.471   1.974   3.750  1.2760 -1.7916 -1.2378
24872SOL    HW280709   6.334   1.959   3.687  0.2534 -1.5028  0.8443
24873SOL     OW80710   6.551   1.095   3.479 -0.5008  0.0419  0.4104
24873SOL    HW180711   6.622   1.045   3.519 -0.2635 -0.4982 -0.6594
24873SOL    HW280712   6.564   1.184   3.511 -2.1066 -0.8346  3.9962
24874SOL     OW80713   4.498   5.748   8.780 -0.3974  0.1096 -0.0610
24874SOL    HW180714   4.587   5.758   8.747  2.2388  2.2878  6.0771
24874SOL    HW280715   4.507   5.686   8.853 -4.2893 -0.6774 -0.0614
24875SOL     OW80716   2.086   0.142   9.420 -0.3952 -0.0674  0.0153
24875SOL    HW180717   2.088   0.050   9.444 -1.3798 -0.3885 -1.0334
24875SOL    HW280718   1.996   0.158   9.393  0.3502  0.5298 -2.3217
24876SOL     OW80719   3.561   1.701   6.885 -0.6305 -0.1563 -0.0579
24876SOL    HW180720   3.628   1.697   6.953  0.3260  0.3895 -0.9444
24876SOL    HW280721   3.491   1.643   6.917  0.3927 -1.0001  0.7265
24877SOL     OW80722   6.186   6.984   2.161  0.2874 -0.3034  0.8340
24877SOL    HW180723   6.279   6.983   2.183  0.3120  0.9771  0.8250
24877SOL    HW280724   6.153   6.902   2.198  1.6044 -1.2911 -0.0727
24878SOL     OW80725   4.239   6.313   9.865 -0.7619  0.4536 -0.4025
24878SOL    HW180726   4.260   6.390   9.918 -0.3086  1.1793 -1.5950
24878SOL    HW280727   4.261   6.339   9.776  0.3400 -1.4013 -0.7199
24879SOL     OW80728   1.993   1.136   7.605 -0.9878 -0.0994 -0.1825
24879SOL    HW180729   1.915   1.185   7.631 -0.1567  0.3902  1.5272
24879SOL    HW280730   2.035   1.191   7.538 -0.4535  1.2147  1.1876
24880SOL     OW80731   8.809   9.394   0.256 -0.0208 -0.4537 -0.2737
24880SOL    HW180732   8.733   9.404   0.314  1.3178 -1.6717  1.8270
24880SOL    HW280733   8.839   9.484   0.240 -0.0553 -0.0763  1.5291
24881SOL     OW80734   2.047   8.043   2.621 -0.1317 -0.0683 -0.5641
24881SOL    HW180735   2.057   8.138   2.630 -0.1245 -0.1219  0.0812
24881SOL    HW280736   2.019   8.015   2.708  0.0446 -0.6817 -0.7058
24882SOL     OW80737   6.774   2.091   3.941 -0.0420 -0.0075  0.0093
24882SOL    HW180738   6.857   2.085   3.989  1.8123 -1.2063 -3.0227
24882SOL    HW280739   6.767   2.183   3.917  1.4461 -0.1586 -1.2085
24883SOL     OW80740   2.400   0.933   9.192  0.0882  0.4648  0.2033
24883SOL    HW180741   2.406   0.929   9.287 -0.3766 -1.5942  0.1950
24883SOL    HW280742   2.423   0.844   9.163  0.7690  1.2040 -1.6365
24884SOL     OW80743   4.133   5.030   7.912 -0.1117 -0.3463 -0.2508
24884SOL    HW180744   4.110   5.083   7.835  1.1982 -0.2238 -0.5933
24884SOL    HW280745   4.055   5.031   7.967 -0.7805  0.2867 -1.1841
24885SOL     OW80746   9.152  10.645   0.636  0.1576  0.4056 -0.3777
24885SOL    HW180747   9.179  10.639   0.544  0.9474 -2.3594 -0.0587
24885SOL    HW280748   9.085  10.578   0.645  2.0132 -1.3466  1.6093
24886SOL     OW80749   9.723   6.533   6.098  0.3763 -0.2209  0.1521
24886SOL    HW180750   9.707   6.519   6.005  1.4096  1.2144 -0.2717
24886SOL    HW280751   9.809   6.574   6.103 -0.5564  1.7850  1.5349
24887SOL     OW80752   2.936   7.989   8.472  0.0148 -0.6760  0.2187
24887SOL    HW180753   2.973   7.998   8.384  0.7467 -1.5260  0.4218
24887SOL    HW280754   3.012   7.982   8.530 -0.4286  1.2045  1.0968
24888SOL     OW80755   5.032   6.758   2.943 -0.2425  0.5387  0.1852
24888SOL    HW180756   4.997   6.845   2.921 -1.8530  0.1056  0.8373
24888SOL    HW280757   5.013   6.748   3.036  1.6858  0.2446  0.5733
24889SOL     OW80758   7.731   3.152   7.133 -0.5203 -0.3519  0.3029
24889SOL    HW180759   7.653   3.111   7.170  0.4613 -1.9485  0.6841
24889SOL    HW280760   7.741   3.233   7.183 -0.9533 -0.9781  1.4426
24890SOL     OW80761   7.232   3.321   1.801  0.1901  0.6930  0.5640
24890SOL    HW180762   7.215   3.227   1.800 -0.8263  0.8019  2.2667
24890SOL    HW280763   7.237   3.343   1.894 -1.3828  2.5848  0.2769
24891SOL     OW80764   4.522   3.014   3.667 -0.6335  0.3432 -0.1369
24891SOL    HW180765   4.537   2.980   3.755  0.9139 -1.1669 -0.9187
24891SOL    HW280766   4.596   2.982   3.616 -1.3735  1.3608 -1.9469
24892SOL     OW80767   3.835   6.118   9.226 -0.6417  0.0713  0.2786
24892SOL    HW180768   3.902   6.135   9.293  1.3177 -1.4496 -1.1518
24892SOL    HW280769   3.770   6.063   9.270  0.8724 -1.3448  0.8500
24893SOL     OW80770   9.645   8.546   1.940 -0.3579  0.1633  0.1480
24893SOL    HW180771   9.669   8.545   2.033 -1.7834  2.3005  0.6082
24893SOL    HW280772   9.724   8.578   1.895 -0.0381  0.2644  0.7656
24894SOL     OW80773   1.975   2.441   1.745  0.2275 -0.1150  0.5480
24894SOL    HW180774   2.021   2.525   1.750  0.6489 -0.2346 -0.7150
24894SOL    HW280775   1.884   2.462   1.764  0.1297  0.8465 -0.8077
24895SOL     OW80776   5.940   3.800   8.622  0.7389  0.2662  0.1622
24895SOL    HW180777   5.913   3.889   8.598 -0.4867 -0.0821  0.1654
24895SOL    HW280778   6.002   3.813   8.694 -0.2975  1.0977  0.9404
24896SOL     OW80779  10.900   8.720   0.803 -0.2371  0.5677 -0.4601
24896SOL    HW180780  10.949   8.647   0.842  1.6387  1.8090 -0.3361
24896SOL    HW280781  10.808   8.700   0.822  0.2864 -1.2234  0.4645
24897SOL     OW80782   9.256  10.116   7.161  0.3396 -0.2830  0.4434
24897SOL    HW180783   9.185  10.176   7.139  0.2306 -0.3141  0.7068
24897SOL    HW280784   9.293  10.150   7.243  1.7436  0.7145 -0.5542
24898SOL     OW80785   8.292   6.894   5.800  0.1304  0.2344  0.3365
24898SOL    HW180786   8.221   6.951   5.831 -1.3915 -1.5483  0.3137
24898SOL    HW280787   8.247   6.824   5.752  1.9967 -0.4415 -0.5127
24899SOL     OW80788   6.962   4.020   6.995 -0.2763  0.1772 -0.2221
24899SOL    HW180789   7.031   4.071   6.953  2.2901 -1.6883  1.3912
24899SOL    HW280790   6.954   3.942   6.940 -0.1648 -0.1842  0.2651
24900SOL     OW80791  10.734   7.535   8.604  0.0578 -0.3210  0.5390
24900SOL    HW180792  10.787   7.615   8.607  0.5952 -0.6919  2.0048
24900SOL    HW280793  10.688   7.534   8.688 -0.3217 -1.2988  0.3266
24901SOL     OW80794   3.522  10.550   6.994  0.1649  0.0175 -0.3799
24901SOL    HW180795   3.588  10.568   7.060 -1.3057  1.7575  0.7234
24901SOL    HW280796   3.482  10.468   7.021  0.8580 -0.2760 -0.2224
24902SOL     OW80797  10.146   9.156   2.329 -0.5049  0.4102 -0.7402
24902SOL    HW180798  10.158   9.114   2.414 -0.9555  0.4857 -0.6387
24902SOL    HW280799  10.101   9.090   2.276 -2.0016  1.0585 -0.3156
24903SOL     OW80800   8.871   2.191   2.492  0.0144  0.1198 -0.0974
24903SOL    HW180801   8.806   2.260   2.503  0.0785 -0.0642  1.9304
24903SOL    HW280802   8.819   2.112   2.477 -0.1979  0.1524  0.4321
24904SOL     OW80803   5.743   1.039   6.623 -0.3073  0.2919  0.9988
24904SOL    HW180804   5.716   0.971   6.562 -2.2209  0.9582  1.0618
24904SOL    HW280805   5.737   0.998   6.709 -0.5155  0.2530  0.9647
24905SOL     OW80806   4.777   4.695   8.085  0.0969 -0.4916 -0.4460
24905SOL    HW180807   4.698   4.739   8.055  0.2754 -0.0116 -0.2205
24905SOL    HW280808   4.815   4.657   8.005 -0.6213 -1.1616 -0.4814
24906SOL     OW80809   3.778   3.822   5.138  0.5761  0.2201 -0.4333
24906SOL    HW180810   3.797   3.910   5.107 -1.5346  0.8230 -0.2178
24906SOL    HW280811   3.716   3.835   5.210  0.9503 -1.4104  0.2391
24907SOL     OW80812   7.879   5.860   0.188 -0.1922 -0.2667  0.2363
24907SOL    HW180813   7.946   5.792   0.192 -0.9363 -0.9776  1.4669
24907SOL    HW280814   7.799   5.813   0.164 -0.4122  0.4566 -0.5079
24908SOL     OW80815   4.061   0.567  10.637 -0.3544  0.2689 -0.8831
24908SOL    HW180816   4.144   0.614  10.647 -0.0823 -0.0977 -1.3659
24908SOL    HW280817   3.998   0.634  10.611 -0.8267  1.0538  1.9622
24909SOL     OW80818   4.519   2.763   1.948 -0.3654 -0.2106  0.5320
24909SOL    HW180819   4.553   2.806   1.870 -2.8014  0.3557 -0.2984
24909SOL    HW280820   4.503   2.673   1.921 -0.4555 -0.2275  0.6415
24910SOL     OW80821   9.009   7.464   6.383  0.5962 -0.4003 -0.2991
24910SOL    HW180822   9.004   7.415   6.301  1.5152 -0.6154 -0.2434
24910SOL    HW280823   8.976   7.403   6.449  0.6588 -0.5356 -0.3916
24911SOL     OW80824   3.473   0.868   8.751 -0.3655 -0.2777  0.4472
24911SOL    HW180825   3.393   0.920   8.736  0.3444  1.6935  2.7900
24911SOL    HW280826   3.456   0.822   8.833  0.9819  0.4112  1.1440
24912SOL     OW80827   9.766   3.994   8.200  0.4174  0.6033  0.3651
24912SOL    HW180828   9.816   4.067   8.163 -0.9982  1.4114 -0.0249
24912SOL    HW280829   9.681   3.997   8.155 -0.2276 -0.3266  1.4580
24913SOL     OW80830   7.759  10.453  10.486  0.4907 -1.0099  0.0064
24913SOL    HW180831   7.851  10.452  10.460  0.8703 -0.3997  1.2368
24913SOL    HW280832   7.710  10.436  10.405  1.4588  2.9972 -1.6580
24914SOL     OW80833   3.571  10.120   5.276 -0.7003 -0.4799 -0.1793
24914SOL    HW180834   3.536  10.206   5.251  2.4404  0.9484 -0.2269
24914SOL    HW280835   3.558  10.066   5.199  0.9210  1.2556 -1.7874
24915SOL     OW80836   4.872   0.917   5.778  0.4310 -0.4448 -0.2634
24915SOL    HW180837   4.921   0.992   5.745 -0.5012 -0.6795 -2.3234
24915SOL    HW280838   4.890   0.847   5.716  0.8820 -1.8128  1.3437
24916SOL     OW80839   3.263   9.700   4.930 -0.7428 -0.2230 -0.2799
24916SOL    HW180840   3.343   9.650   4.950 -0.3341 -0.2659 -1.8843
24916SOL    HW280841   3.224   9.717   5.015  0.7878 -0.5293  0.5276
24917SOL     OW80842   6.055  10.483   2.315 -0.6076  0.0952 -0.6074
24917SOL    HW180843   5.993  10.504   2.244 -1.5527 -2.4426 -0.6544
24917SOL    HW280844   6.014  10.520   2.393 -3.1382 -2.7571 -0.3800
24918SOL     OW80845   1.105   0.684   1.264  0.0599  0.0158  0.0675
24918SOL    HW180846   1.146   0.678   1.351  2.0100  1.3849 -0.6779
24918SOL    HW280847   1.074   0.596   1.245 -0.3412 -0.3389  2.0913
24919SOL     OW80848   2.436   6.903   0.256  0.3829  0.3009  0.3583
24919SOL    HW180849   2.394   6.988   0.245 -0.2463 -0.1729 -1.2627
24919SOL    HW280850   2.403   6.871   0.340 -2.7114 -0.0783 -0.8625
24920SOL     OW80851   1.031   8.455  10.836 -0.2072 -0.0787  0.0744
24920SOL    HW180852   1.035   8.527  10.899  0.2858 -1.4238  1.6642
24920SOL    HW280853   1.083   8.485  10.762  1.8194  0.4075  1.5929
24921SOL     OW80854   6.861   2.526   5.813  0.3812 -0.5155  0.1450
24921SOL    HW180855   6.886   2.435   5.832 -0.4737 -0.8855 -0.4598
24921SOL    HW280856   6.920   2.578   5.868  1.2269 -1.4125  0.1277
24922SOL     OW80857   5.374   8.554  10.683 -0.7302 -0.3916  1.0405
24922SOL    HW180858   5.362   8.644  10.653 -0.6760 -0.7877 -0.2174
24922SOL    HW280859   5.432   8.514  10.618  0.0191 -1.0698  2.0989
24923SOL     OW80860  10.714   2.727   6.225 -0.2603 -0.9555  0.2508
24923SOL    HW180861  10.780   2.780   6.269 -2.7007  2.6814 -0.0457
24923SOL    HW280862  10.752   2.707   6.139  0.5197  0.9781  0.0979
24924SOL     OW80863   8.498   0.934   2.050 -0.5147 -0.8967  0.3412
24924SOL    HW180864   8.540   0.955   2.133  0.1499 -0.6592 -0.0503
24924SOL    HW280865   8.407   0.916   2.073 -1.2035  2.4361  0.7350
24925SOL     OW80866   9.383   7.331   2.871  0.0721  0.1353  0.0937
24925SOL    HW180867   9.445   7.260   2.858  0.3807  0.1535  1.3758
24925SOL    HW280868   9.309   7.291   2.916  0.1686  0.5739  0.6583
24926SOL     OW80869   1.460   3.861   5.705  0.0430  0.1766 -0.6484
24926SOL    HW180870   1.406   3.786   5.679  1.0170 -0.8079  0.0606
24926SOL    HW280871   1.528   3.866   5.638  1.2774 -0.9997  0.4578
24927SOL     OW80872   7.887   2.130   5.782  0.2352  0.7517 -0.4856
24927SOL    HW180873   7.801   2.121   5.822  1.4428  2.5202  2.8949
24927SOL    HW280874   7.944   2.074   5.834  1.4384  0.8421 -1.6399
24928SOL     OW80875   3.752   1.331   7.119 -0.1968  0.2320 -0.0184
24928SOL    HW180876   3.846   1.315   7.129  0.2585  1.8949 -1.2235
24928SOL    HW280877   3.728   1.382   7.196 -0.7950 -2.5361  1.7640
24929SOL     OW80878  10.709   5.579   4.393  0.2723  0.3454  1.0439
24929SOL    HW180879  10.652   5.649   4.424 -0.5576  0.2181 -0.1618
24929SOL    HW280880  10.747   5.612   4.312 -2.2981 -1.5823 -1.1099
24930SOL     OW80881   2.543  10.331   1.930 -0.4092 -0.0276 -0.0515
24930SOL    HW180882   2.544  10.236   1.945 -0.1640  0.0899  0.7288
24930SOL    HW280883   2.462  10.360   1.973  0.1088  0.2698  0.7394
24931SOL     OW80884   8.789   2.367   1.811 -0.4124 -0.4582 -0.3290
24931SOL    HW180885   8.882   2.390   1.816 -0.5430  0.1608 -0.7129
24931SOL    HW280886   8.745   2.447   1.784 -1.4152  0.0480  2.4154
24932SOL     OW80887   1.640   2.362   5.830  0.7756  0.3677  0.8642
24932SOL    HW180888   1.681   2.310   5.899  1.0045  1.4178  1.5405
24932SOL    HW280889   1.649   2.452   5.859  0.2942  0.7925 -0.2393
24933SOL     OW80890   0.583   3.880   7.723 -0.1255 -0.4052  0.2099
24933SOL    HW180891   0.678   3.881   7.729 -0.1441  0.5241  0.5780
24933SOL    HW280892   0.555   3.826   7.797  0.0604  1.4859  1.7709
24934SOL     OW80893  10.587   3.812  10.831  0.2675  0.0566 -0.2135
24934SOL    HW180894  10.564   3.892  10.879  0.6066 -0.4922  0.8974
24934SOL    HW280895  10.681   3.801  10.844  0.3096 -0.2850 -0.7444
24935SOL     OW80896   5.251   5.786   5.816  0.1223  0.0351  0.2848
24935SOL    HW180897   5.171   5.780   5.868  0.9533  0.5726  1.6870
24935SOL    HW280898   5.286   5.697   5.815  0.3300  0.1039  1.0443
24936SOL     OW80899   8.968   7.237   8.867  0.2129 -0.1652  0.2382
24936SOL    HW180900   9.062   7.238   8.849  0.0787 -1.2845 -0.6834
24936SOL    HW280901   8.954   7.308   8.929  1.9623 -1.1767  1.9064
24937SOL     OW80902   2.616   5.940   8.789 -0.1908 -0.0322 -0.3739
24937SOL    HW180903   2.523   5.961   8.799 -0.3929 -1.2965  0.6897
24937SOL    HW280904   2.660   5.991   8.858 -0.1120  0.3927 -0.7336
24938SOL     OW80905   5.198   1.865   3.027  0.2666  0.3695 -0.1183
24938SOL    HW180906   5.287   1.878   3.059  0.4328 -2.7149  1.0733
24938SOL    HW280907   5.206   1.868   2.931  0.9511  3.3731 -0.0582
24939SOL     OW80908   4.583   0.636   6.418 -0.2843  0.0135 -0.1296
24939SOL    HW180909   4.637   0.638   6.497  0.0557 -0.4253 -0.3414
24939SOL    HW280910   4.637   0.678   6.351 -0.6576  0.5763 -0.0795
24940SOL     OW80911   8.791   7.263   9.304 -0.6211  0.5089 -0.4178
24940SOL    HW180912   8.766   7.267   9.396 -1.0267 -0.6054 -0.4734
24940SOL    HW280913   8.715   7.227   9.259  0.9172 -2.8959 -0.6063
24941SOL     OW80914   3.881   3.865   9.548  0.2595 -1.0418 -0.2480
24941SOL    HW180915   3.856   3.950   9.513  0.2427 -0.7704  0.4113
24941SOL    HW280916   3.842   3.862   9.636 -0.3533 -2.0271 -0.5345
24942SOL     OW80917   2.847   3.315   7.511  0.3208 -0.0667  0.1515
24942SOL    HW180918   2.877   3.290   7.599 -0.1963  0.8017  0.5849
24942SOL    HW280919   2.775   3.376   7.527  0.6237  0.5716 -0.8752
24943SOL     OW80920   7.894   7.912   6.820  0.3257  0.4272 -0.3425
24943SOL    HW180921   7.874   7.832   6.869 -0.3453  1.6658  1.5422
24943SOL    HW280922   7.966   7.952   6.869 -0.8049  2.0430  0.0846
24944SOL     OW80923   5.985   2.159   3.927 -0.5319  0.3095 -0.4933
24944SOL    HW180924   5.906   2.170   3.875 -0.4588  0.8838 -0.4864
24944SOL    HW280925   5.967   2.207   4.008 -1.5320 -2.3818  0.9940
24945SOL     OW80926   0.088   2.113   6.207  0.4369  0.1102  0.2042
24945SOL    HW180927   0.029   2.052   6.165 -0.2393 -0.4175  1.8502
24945SOL    HW280928   0.158   2.127   6.143 -0.5106 -0.6886 -1.0386
24946SOL     OW80929   3.842   9.767   9.921 -0.1130 -0.2745 -0.2802
24946SOL    HW180930   3.753   9.802   9.917 -0.3299 -0.7954 -0.1244
24946SOL    HW280931   3.852   9.718   9.839  0.2956  0.3974 -0.6370
24947SOL     OW80932   4.345   1.329   5.353  0.3736  0.5009 -0.4899
24947SOL    HW180933   4.390   1.246   5.369  2.3624  1.7161  0.5752
24947SOL    HW280934   4.408   1.380   5.301 -1.2963  0.9600 -2.1845
24948SOL     OW80935   5.255   5.003   2.610 -0.1351 -0.1612  0.2764
24948SOL    HW180936   5.228   4.926   2.561  0.4656 -1.3581  1.7560
24948SOL    HW280937   5.193   5.008   2.683 -0.2304  0.8295  0.1450
24949SOL     OW80938   5.928   8.673   4.751  0.0722  0.4173  0.9829
24949SOL    HW180939   5.887   8.693   4.667 -0.9776 -1.4813  0.9946
24949SOL    HW280940   6.012   8.633   4.728 -0.1134  0.1058  0.8502
24950SOL     OW80941  10.512   3.440   0.414  0.0894  0.2698 -0.0352
24950SOL    HW180942  10.464   3.522   0.408 -2.0908 -0.7434  2.0031
24950SOL    HW280943  10.451   3.374   0.381  1.3203 -0.7032 -0.4473
24951SOL     OW80944   1.995   4.499   3.631 -0.4488  0.5920 -0.5032
24951SOL    HW180945   1.999   4.591   3.656 -1.4272  0.4984  0.0511
24951SOL    HW280946   1.946   4.498   3.549 -1.0367  0.5126 -0.1568
24952SOL     OW80947  10.015   2.030   3.736  0.4794  0.0597 -0.2670
24952SOL    HW180948   9.963   2.017   3.657  0.6739 -2.5031 -0.0699
24952SOL    HW280949   9.958   2.078   3.795  0.3297  2.0360 -1.8967
24953SOL     OW80950  10.691   0.956   4.311  0.1640 -0.1780 -0.0471
24953SOL    HW180951  10.733   0.882   4.355 -0.8882  0.2591  1.8059
24953SOL    HW280952  10.621   0.916   4.260 -0.0975 -0.5127  0.5614
24954SOL     OW80953   9.279   1.620   5.173  0.1334  0.3958 -0.3826
24954SOL    HW180954   9.221   1.544   5.180  1.5039 -0.7366 -0.7568
24954SOL    HW280955   9.289   1.652   5.262  0.2319 -0.4101 -0.1005
24955SOL     OW80956   3.970   5.864   9.089 -0.1837  0.2368 -0.5160
24955SOL    HW180957   4.061   5.856   9.119 -0.5453 -1.9945  0.1454
24955SOL    HW280958   3.970   5.822   9.003 -1.1031 -2.5383  0.7297
24956SOL     OW80959   4.775   7.922   7.297  0.0665 -0.2666 -0.0081
24956SOL    HW180960   4.696   7.867   7.304  0.4221 -0.6783  0.9247
24956SOL    HW280961   4.845   7.860   7.275  0.3317 -0.0843  0.3048
24957SOL     OW80962   9.026   1.374   6.861  0.1040 -0.0869  0.0530
24957SOL    HW180963   9.002   1.309   6.795  1.1041 -0.1488 -0.2759
24957SOL    HW280964   8.943   1.401   6.900 -0.4916 -0.1878 -1.0974
24958SOL     OW80965   0.176   4.040   9.651  0.6413  0.3621 -0.9029
24958SOL    HW180966   0.082   4.043   9.670  0.8591  0.0478  0.3262
24958SOL    HW280967   0.209   3.968   9.704  1.5836  0.4561 -1.3355
24959SOL     OW80968  10.835  10.257   6.960 -0.5589 -0.6638  0.2284
24959SOL    HW180969  10.916  10.300   6.986 -1.7530  0.7953  1.7844
24959SOL    HW280970  10.845  10.242   6.866  1.4744 -0.4745  0.3718
24960SOL     OW80971   0.176   1.183  10.798 -0.3181 -0.1393  0.2108
24960SOL    HW180972   0.136   1.262  10.760  1.0965  0.4384 -0.1528
24960SOL    HW280973   0.190   1.125  10.723 -2.8048 -1.4609  0.6776
24961SOL     OW80974   7.684  10.081   9.922 -0.3208  0.3901  0.0016
24961SOL    HW180975   7.640  10.057  10.004  0.3085  0.9076  0.5000
24961SOL    HW280976   7.774  10.100   9.948  0.0221  0.0487 -0.8987
24962SOL     OW80977   6.686   4.881   7.925 -0.4472 -0.3934 -0.6263
24962SOL    HW180978   6.717   4.846   8.009  0.0806 -1.4222 -1.2291
24962SOL    HW280979   6.640   4.962   7.949  0.3508 -0.2583  0.5726
24963SOL     OW80980  10.211   2.835   7.189 -0.1016  0.3954 -0.6346
24963SOL    HW180981  10.221   2.787   7.106 -0.8241  0.9933 -1.0762
24963SOL    HW280982  10.163   2.775   7.246  1.2790 -0.4294 -0.2673
24964SOL     OW80983   1.937   5.898  10.030  0.1360 -0.0783 -0.5178
24964SOL    HW180984   1.866   5.871   9.972 -0.0004 -0.5884 -0.1180
24964SOL    HW280985   1.932   5.994  10.030 -0.0925 -0.0846 -1.0567
24965SOL     OW80986   1.563   4.214   7.410  0.0690 -0.4003 -0.0183
24965SOL    HW180987   1.627   4.163   7.459  1.7642  1.6823  0.0876
24965SOL    HW280988   1.605   4.233   7.327 -1.8306 -1.8585 -1.4106
24966SOL     OW80989   1.607   2.245   8.623  0.4520  0.2750 -0.0251
24966SOL    HW180990   1.605   2.188   8.700 -0.5247  1.8342  1.1558
24966SOL    HW280991   1.623   2.332   8.658 -1.1138  1.1877 -1.4573
24967SOL     OW80992   0.195   2.396  10.685  0.1490 -0.1422  0.0607
24967SOL    HW180993   0.233   2.415  10.599 -1.3122  1.5498 -0.2727
24967SOL    HW280994   0.146   2.315  10.673  1.1519 -0.7117 -0.2922
24968SOL     OW80995   0.380  10.830   4.266  0.6071 -0.3097  0.2392
24968SOL    HW180996   0.465  10.821   4.222 -0.0118 -3.3190 -0.5176
24968SOL    HW280997   0.319  10.850   4.196  0.6774  2.7981  0.8927
24969SOL     OW80998   4.183  10.330   4.962 -0.2989  0.0453 -0.0470
24969SOL    HW180999   4.192  10.251   5.014  0.6944  0.7406  0.8883
24969SOL    HW281000   4.261  10.382   4.983  0.2047  0.3149 -2.3196
24970SOL     OW81001   7.080   2.506  10.076  0.2782 -0.2986 -0.0326
24970SOL    HW181002   7.061   2.577  10.137  2.7151 -0.4525  0.9953
24970SOL    HW281003   7.037   2.533   9.994 -0.1981  1.5688  0.7798
24971SOL     OW81004   4.048   5.895   2.248 -0.2111  0.1349  0.1466
24971SOL    HW181005   3.957   5.882   2.276  0.0353 -1.0214  0.4679
24971SOL    HW281006   4.050   5.984   2.215 -1.2159  0.5436  1.1168
24972SOL     OW81007   9.136   1.691   1.378  0.0694  0.5166  0.3124
24972SOL    HW181008   9.089   1.722   1.300  0.2391  3.1664  1.1323
24972SOL    HW281009   9.086   1.616   1.409 -0.0308 -0.5646 -2.2793
24973SOL     OW81010   3.456   2.233   0.493 -0.0442  0.4366 -0.4589
24973SOL    HW181011   3.491   2.294   0.557 -1.3973  0.4486  0.3111
24973SOL    HW281012   3.469   2.276   0.408  0.8680  0.8518 -0.1147
24974SOL     OW81013   6.572   9.955   9.196  0.7139  0.2517 -0.6204
24974SOL    HW181014   6.540  10.037   9.158 -0.6848 -0.4837 -1.0892
24974SOL    HW281015   6.507   9.890   9.171  1.1036 -0.7537  0.8766
24975SOL     OW81016   3.609   5.899   2.745  0.0925  0.1054  0.0124
24975SOL    HW181017   3.651   5.982   2.720  1.8196 -0.6501  0.2879
24975SOL    HW281018   3.675   5.833   2.729 -0.9492 -1.1385  0.6694
24976SOL     OW81019   2.554   9.360   2.138  0.1080 -0.5886 -0.1605
24976SOL    HW181020   2.530   9.380   2.229  0.2895  1.4344 -0.5126
24976SOL    HW281021   2.486   9.401   2.086  1.4607  0.6615 -1.0110
24977SOL     OW81022   0.800   4.539   8.304 -0.2264 -0.3300 -0.4393
24977SOL    HW181023   0.778   4.526   8.212 -0.4747  0.4220 -0.4917
24977SOL    HW281024   0.733   4.599   8.337 -1.2675 -2.0560  0.7318
24978SOL     OW81025  10.508   5.027   5.856 -0.4275 -0.4697 -0.3640
24978SOL    HW181026  10.580   5.088   5.866 -0.3608 -0.7206  0.8635
24978SOL    HW281027  10.540   4.945   5.896 -0.9712 -0.9160 -0.8269
24979SOL     OW81028   1.947   2.609   3.506  0.4591 -0.3624  0.1713
24979SOL    HW181029   2.029   2.596   3.459  0.3019 -0.1431 -0.1707
24979SOL    HW281030   1.964   2.576   3.594  1.1243  0.3056  0.2985
24980SOL     OW81031   7.062   0.066   1.801 -0.0334  0.4428  0.2982
24980SOL    HW181032   7.128   0.033   1.740  0.7133  0.5762  1.0202
24980SOL    HW281033   7.011   0.129   1.749 -0.3413 -0.5167 -0.5876
24981SOL     OW81034   2.865   3.531  10.430 -0.3082 -0.7243  0.3330
24981SOL    HW181035   2.957   3.550  10.450 -0.6507  0.9985  0.4714
24981SOL    HW281036   2.848   3.449  10.476  1.1067 -0.9817  0.4649
24982SOL     OW81037   0.682   8.312   8.579  0.0967 -0.2338 -0.0835
24982SOL    HW181038   0.768   8.291   8.615 -0.4017 -2.6227 -0.1615
24982SOL    HW281039   0.701   8.358   8.497  1.3047 -1.1137 -0.3126
24983SOL     OW81040  10.044   4.263   9.024  0.3031  0.4316 -0.1500
24983SOL    HW181041  10.103   4.189   9.039 -0.6185 -0.1633  0.6239
24983SOL    HW281042   9.968   4.225   8.979 -0.4762  0.7665  0.8423
24984SOL     OW81043   9.266   7.995   5.955 -0.0605  0.2855  0.2656
24984SOL    HW181044   9.320   8.072   5.975  0.2500 -0.2872  1.7401
24984SOL    HW281045   9.177   8.023   5.974 -0.2775  1.0441 -1.6093
24985SOL     OW81046   2.083   3.834   1.853  0.2102  0.3738  0.7853
24985SOL    HW181047   2.045   3.771   1.914  1.1736 -1.4629 -0.4335
24985SOL    HW281048   2.008   3.872   1.807 -0.4109  0.5817  1.9247
24986SOL     OW81049   9.452   7.896   1.994  0.2121  0.0236 -0.3761
24986SOL    HW181050   9.389   7.846   1.943 -0.6632  0.0460  0.6405
24986SOL    HW281051   9.487   7.833   2.057 -0.0425  0.4105  0.1591
24987SOL     OW81052   9.414   4.673   8.269  0.6372  0.5719 -0.2812
24987SOL    HW181053   9.348   4.731   8.307 -0.6332 -1.6980  1.2152
24987SOL    HW281054   9.490   4.683   8.326 -0.1076 -0.3165  0.9113
24988SOL     OW81055   2.582   0.916   3.247 -0.5465  0.2841 -0.7745
24988SOL    HW181056   2.659   0.918   3.303 -1.1773 -0.1566  0.1338
24988SOL    HW281057   2.617   0.911   3.158  0.4931 -1.2211 -0.3267
24989SOL     OW81058   3.515   4.658   5.060 -0.0559  0.3515 -0.0108
24989SOL    HW181059   3.492   4.679   5.150  0.3771 -1.7394  0.6508
24989SOL    HW281060   3.488   4.735   5.010  1.4388  2.4200  2.1091
24990SOL     OW81061  10.067   7.652   0.124 -0.2344  0.1212 -0.1383
24990SOL    HW181062  10.022   7.730   0.092 -0.1421 -0.0110 -0.5989
24990SOL    HW281063  10.070   7.663   0.219  2.9571  2.4869 -0.3511
24991SOL     OW81064   7.653   9.796  10.438  0.1442 -0.4498 -0.3399
24991SOL    HW181065   7.559   9.799  10.422 -0.1119  1.3378  1.0949
24991SOL    HW281066   7.683   9.886  10.419  1.5222 -0.9282 -0.5430
24992SOL     OW81067   8.492   8.468   8.506 -0.1278 -0.0435 -0.0369
24992SOL    HW181068   8.462   8.379   8.524 -0.7148  0.3969  1.3642
24992SOL    HW281069   8.418   8.524   8.532  0.7406  0.9124  0.4538
24993SOL     OW81070   3.287   0.226   1.453 -0.1775 -0.1845  0.5047
24993SOL    HW181071   3.324   0.295   1.508  0.3412  1.3546 -1.6642
24993SOL    HW281072   3.306   0.254   1.364  0.6127 -3.4690 -0.4745
24994SOL     OW81073   1.443   3.421   3.337 -0.0268 -0.1803 -1.0629
24994SOL    HW181074   1.368   3.439   3.394  0.1470  1.3013 -1.2550
24994SOL    HW281075   1.512   3.392   3.397  0.2180  1.5658 -0.4480
24995SOL     OW81076   6.422   6.610   3.575 -0.4140 -0.4801 -0.1017
24995SOL    HW181077   6.464   6.607   3.489 -0.9145  0.1235 -0.3792
24995SOL    HW281078   6.486   6.653   3.631 -0.0923 -0.8576 -0.1728
24996SOL     OW81079   6.040   9.148   3.853  0.6658  0.2171 -0.3174
24996SOL    HW181080   6.064   9.127   3.763 -2.0450 -1.2094 -0.8385
24996SOL    HW281081   6.060   9.068   3.903 -0.8479 -0.2277 -0.3662
24997SOL     OW81082  10.522   8.490   2.332 -0.5334 -0.2682 -0.1162
24997SOL    HW181083  10.522   8.571   2.282 -0.6011 -0.4113 -0.3526
24997SOL    HW281084  10.580   8.506   2.406 -0.9111  0.1475  0.0900
24998SOL     OW81085   2.639  10.844   5.628  0.0128  0.2271  0.1272
24998SOL    HW181086   2.720  10.866   5.674  0.5128 -2.7649  0.9299
24998SOL    HW281087   2.575  10.907   5.661  1.7601  2.1237  0.1219
24999SOL     OW81088   1.517  10.387   2.212 -0.0400  0.1870  0.1332
24999SOL    HW181089   1.489  10.296   2.216 -0.5368  0.2539 -1.4439
24999SOL    HW281090   1.487  10.424   2.295 -2.9142 -0.2504 -0.6077
25000SOL     OW81091   1.409   2.625   7.660  0.3198  0.1675  0.3904
25000SOL    HW181092   1.360   2.705   7.675  3.0113  1.9930  0.2157
25000SOL    HW281093   1.425   2.589   7.747 -1.0132 -0.3192  0.4589
25001SOL     OW81094   9.326   1.672   5.441  0.3347  0.0715 -0.3773
25001SOL    HW181095   9.265   1.730   5.486  0.0368 -0.9908  0.6305
25001SOL    HW281096   9.412   1.694   5.477  0.0605 -0.9887  0.9945
25002SOL     OW81097   7.086   2.052   7.576  0.3481 -0.0251  0.3465
25002SOL    HW181098   7.034   2.119   7.621 -1.4672 -1.3198  0.2865
25002SOL    HW281099   7.138   2.011   7.645  0.5813  0.6582  0.5780
25003SOL     OW81100   9.894   8.243   0.603 -0.1850  0.3056  0.0474
25003SOL    HW181101   9.970   8.224   0.659 -1.5938 -1.5383  1.4833
25003SOL    HW281102   9.909   8.190   0.525 -0.5418 -1.0730  0.8734
25004SOL     OW81103   8.671   6.917   0.034  0.0299  0.0097  0.1636
25004SOL    HW181104   8.713   6.979  -0.025 -0.0966  0.0624  0.1293
25004SOL    HW281105   8.744   6.866   0.071  0.0245 -0.9303 -1.0368
25005SOL     OW81106   6.255   1.938   1.529  0.0990 -0.0301 -0.0383
25005SOL    HW181107   6.210   2.011   1.487  0.6155  0.7537  0.7319
25005SOL    HW281108   6.185   1.886   1.568 -0.2563  0.1834 -0.3837
25006SOL     OW81109   5.236   5.517   4.911  0.1021 -0.0770  0.4691
25006SOL    HW181110   5.276   5.457   4.973  2.2335 -0.1240 -0.8512
25006SOL    HW281111   5.232   5.468   4.829 -0.3559  0.7761 -0.0313
25007SOL     OW81112   0.067   0.708   0.620 -0.7307 -0.1443 -0.5429
25007SOL    HW181113  -0.028   0.705   0.631 -0.6327 -0.3335  0.3056
25007SOL    HW281114   0.086   0.646   0.549 -1.0991 -1.2569  0.3060
25008SOL     OW81115   7.257   3.405   2.455  0.0027  0.5028  0.2331
25008SOL    HW181116   7.345   3.381   2.485 -0.2806 -0.3583  0.4113
25008SOL    HW281117   7.201   3.333   2.485 -0.5206  0.2902 -1.1586
25009SOL     OW81118   6.458   7.573   3.107 -0.0477 -0.0499  0.0714
25009SOL    HW181119   6.540   7.573   3.156 -1.6022  0.4577  2.8437
25009SOL    HW281120   6.446   7.664   3.080  0.2285 -0.1036 -0.2403
25010SOL     OW81121   1.796   0.041   8.682  0.4199  0.6995  0.7414
25010SOL    HW181122   1.747   0.101   8.626 -1.6243  0.2527  1.9507
25010SOL    HW281123   1.822  -0.030   8.623 -2.0322  0.0257  0.3491
25011SOL     OW81124   9.021   8.040   9.121 -0.2437 -0.0288 -0.4670
25011SOL    HW181125   8.965   8.054   9.044 -1.3634 -0.2229  0.2960
25011SOL    HW281126   9.015   8.122   9.170 -0.7070 -0.4256  0.1484
25012SOL     OW81127   1.239   9.466   4.633 -0.3348 -0.2915 -0.2191
25012SOL    HW181128   1.325   9.459   4.592  1.1993 -0.2214  2.6893
25012SOL    HW281129   1.199   9.542   4.593  2.1748  1.4073  0.2575
25013SOL     OW81130   5.009   7.121   0.418 -0.0033 -0.0234 -0.7409
25013SOL    HW181131   4.948   7.194   0.404  1.0357  0.8666 -0.7657
25013SOL    HW281132   5.084   7.161   0.464 -0.2611 -1.4687  1.0481
25014SOL     OW81133   2.828   4.988   0.218  0.2776  0.1106 -0.4970
25014SOL    HW181134   2.850   4.895   0.222 -2.8594 -0.7409 -0.1071
25014SOL    HW281135   2.839   5.012   0.126 -2.3980 -1.7610 -1.4318
25015SOL     OW81136   5.681   3.267   2.667 -0.2604  0.0678 -0.1120
25015SOL    HW181137   5.593   3.301   2.656  0.0544  1.0180  0.2275
25015SOL    HW281138   5.674   3.173   2.647 -1.3862  0.0879  0.1671
25016SOL     OW81139   9.804   3.276   2.827  0.1620 -0.2177 -0.2356
25016SOL    HW181140   9.741   3.213   2.792  1.2728 -0.5283 -1.7337
25016SOL    HW281141   9.767   3.302   2.912 -2.1214 -0.1631 -1.1869
25017SOL     OW81142   7.803   5.307  10.625  0.0233  0.2173  0.1862
25017SOL    HW181143   7.744   5.301  10.700 -0.3959  0.6078 -0.1049
25017SOL    HW281144   7.789   5.395  10.590 -0.2368 -0.1581 -0.7008
25018SOL     OW81145   0.207   7.518   0.564  0.0421 -0.0629 -0.4870
25018SOL    HW181146   0.141   7.468   0.516  0.1612 -1.6980  0.9714
25018SOL    HW281147   0.290   7.474   0.543  0.0779 -0.9060  1.2955
25019SOL     OW81148   2.626   7.707   6.336  0.2302  0.1103  0.2293
25019SOL    HW181149   2.590   7.793   6.313  1.3457  0.7408  0.7817
25019SOL    HW281150   2.697   7.726   6.397  0.5562 -1.2030  0.2847
25020SOL     OW81151  10.048   8.247  10.431  0.2907 -0.0372  0.5504
25020SOL    HW181152   9.964   8.269  10.473 -0.8933  1.4248 -2.3373
25020SOL    HW281153  10.113   8.294  10.482 -0.9399  0.8990  1.3222
25021SOL     OW81154   3.340   7.665   6.934  0.3440 -0.0972 -0.0861
25021SOL    HW181155   3.319   7.597   6.998  0.0021 -0.8268 -0.9531
25021SOL    HW281156   3.292   7.639   6.855 -1.1346  2.0143  0.0416
25022SOL     OW81157   9.998   0.642   2.805 -0.6844  0.2097 -0.0725
25022SOL    HW181158  10.028   0.693   2.730 -0.0277 -1.3056 -0.8769
25022SOL    HW281159  10.071   0.645   2.866  0.0708 -1.2133 -0.8752
25023SOL     OW81160   8.716   8.144   6.681 -0.1853  0.3250  0.1104
25023SOL    HW181161   8.752   8.191   6.756  2.6720 -0.9431 -0.3086
25023SOL    HW281162   8.628   8.119   6.708  0.6920  0.0187  3.0075
25024SOL     OW81163   3.755   7.051   3.155 -0.2158 -0.4312 -0.5089
25024SOL    HW181164   3.717   6.982   3.209 -2.7063  1.0072 -0.2747
25024SOL    HW281165   3.776   7.121   3.217  5.5069 -1.9445 -0.1632
25025SOL     OW81166   6.995  10.066   1.403 -0.5005 -0.2364  0.1445
25025SOL    HW181167   7.037  10.013   1.334  0.3805  2.9109 -1.9319
25025SOL    HW281168   6.902  10.052   1.391 -0.2947 -1.8978  0.2190
25026SOL     OW81169   3.929   6.466   7.578  0.5699  0.3655  0.3505
25026SOL    HW181170   3.987   6.500   7.647  0.4152 -0.9289  1.1410
25026SOL    HW281171   3.846   6.513   7.591  0.4814 -0.0066  1.1685
25027SOL     OW81172   7.243   5.299   9.461 -0.5038  0.1013 -0.0658
25027SOL    HW181173   7.262   5.336   9.547 -2.0060 -1.3245  0.9440
25027SOL    HW281174   7.247   5.204   9.475  2.5130 -0.2765 -2.3732
25028SOL     OW81175   6.649   4.914   0.558  0.7360 -1.0642  0.0073
25028SOL    HW181176   6.583   4.983   0.561  1.6926 -0.1529  2.2638
25028SOL    HW281177   6.600   4.836   0.530 -0.6860  0.1535 -1.0849
25029SOL     OW81178   0.951   6.674   9.878  0.3237  0.2971  0.2378
25029SOL    HW181179   0.957   6.629   9.794  1.9437  2.5637 -0.9666
25029SOL    HW281180   0.859   6.701   9.884  0.2288  0.2809 -0.9089
25030SOL     OW81181   3.741   8.861   3.772 -0.1430  0.2426  0.3017
25030SOL    HW181182   3.750   8.914   3.693 -0.5292 -2.0471 -1.3717
25030SOL    HW281183   3.797   8.904   3.837  1.1275  1.5290 -1.5602
25031SOL     OW81184   6.745  10.572  10.345 -0.8652  0.7761 -0.1995
25031SOL    HW181185   6.656  10.575  10.379 -0.9841  0.9404 -0.5250
25031SOL    HW281186   6.739  10.520  10.265 -0.4380 -0.3279  0.4640
25032SOL     OW81187   6.926   3.210   1.797 -0.5465  0.5455 -0.2693
25032SOL    HW181188   6.855   3.255   1.752 -0.5530  0.4280 -0.3782
25032SOL    HW281189   6.967   3.277   1.852  0.0502  0.9136 -1.1539
25033SOL     OW81190   1.510   6.959   6.012  0.3757  0.4327  0.2906
25033SOL    HW181191   1.501   7.047   5.976  0.3637  1.4147  2.5269
25033SOL    HW281192   1.596   6.959   6.054  0.5599 -0.7836 -0.0627
25034SOL     OW81193   2.121   2.000   4.487  0.2839 -0.2204  0.7077
25034SOL    HW181194   2.084   1.992   4.399  0.4627 -0.6701  0.6733
25034SOL    HW281195   2.215   1.986   4.475  0.4492  0.7489  0.8213
25035SOL     OW81196   4.256   8.762   2.913 -0.3098  0.5677  0.4932
25035SOL    HW181197   4.166   8.775   2.944 -0.6570  0.7527 -0.5708
25035SOL    HW281198   4.253   8.678   2.867 -0.1106  0.9191 -0.1634
25036SOL     OW81199   0.828   3.551   8.136 -0.0538  0.3598 -0.4589
25036SOL    HW181200   0.795   3.462   8.128  0.2738  0.3746 -2.5086
25036SOL    HW281201   0.750   3.605   8.148 -0.2225 -0.2019  1.2075
25037SOL     OW81202   5.450   2.402   1.925 -0.1509 -0.0710  0.2579
25037SOL    HW181203   5.426   2.406   1.832  0.1159  1.2493  0.2189
25037SOL    HW281204   5.382   2.349   1.966  0.8688 -2.5261 -1.0288
25038SOL     OW81205   9.921   4.742   9.971  0.7436  0.1406 -0.5577
25038SOL    HW181206   9.826   4.746   9.981  0.4569  0.8775 -3.0223
25038SOL    HW281207   9.951   4.698  10.050 -1.6450 -0.2327  0.2291
25039SOL     OW81208   3.726   6.322   6.562  0.1176 -0.2178  0.4030
25039SOL    HW181209   3.674   6.371   6.625  1.3118  2.0105 -0.2439
25039SOL    HW281210   3.817   6.340   6.586  0.5949 -0.0762 -1.3359
25040SOL     OW81211   6.495   4.983   8.290  0.6504 -0.2960  0.3444
25040SOL    HW181212   6.566   5.047   8.301  0.8190 -0.6253  1.2424
25040SOL    HW281213   6.539   4.905   8.258  0.7496 -0.6012  1.2063
25041SOL     OW81214   4.028   6.307   3.386 -0.8414 -0.4584 -0.8913
25041SOL    HW181215   4.044   6.244   3.316 -2.1068  0.0624 -1.6897
25041SOL    HW281216   3.958   6.266   3.438  1.1438 -1.5730  1.0558
25042SOL     OW81217   9.572   3.268   1.296 -0.3353 -0.4152 -0.3392
25042SOL    HW181218   9.590   3.310   1.211 -0.3652 -0.5456 -0.4099
25042SOL    HW281219   9.620   3.185   1.292 -2.7025 -1.8318 -1.4335
25043SOL     OW81220   0.765   6.212   3.180  0.2198  0.5017  0.1534
25043SOL    HW181221   0.837   6.188   3.122 -1.6833  1.3436 -2.8119
25043SOL    HW281222   0.773   6.307   3.190 -0.0263  0.4931  0.4323
25044SOL     OW81223  10.776   6.199   7.299  0.1546 -0.2384  0.1570
25044SOL    HW181224  10.725   6.150   7.364  1.2683  0.4106  1.5840
25044SOL    HW281225  10.758   6.155   7.216 -0.8695 -1.4634  0.9913
25045SOL     OW81226   3.195   9.979   3.296 -0.3066  0.3970 -0.1737
25045SOL    HW181227   3.279   9.933   3.301 -0.1067  0.8145  0.4417
25045SOL    HW281228   3.217  10.071   3.311 -0.9050  0.4786  0.2601
25046SOL     OW81229   8.784  10.632   9.481 -0.0074  0.4671  0.4430
25046SOL    HW181230   8.699  10.654   9.443 -0.9283  0.2244  2.2306
25046SOL    HW281231   8.841  10.704   9.456 -0.8759  0.8907 -0.3752
25047SOL     OW81232   0.971   8.246   2.986 -0.7582 -0.0413 -0.1231
25047SOL    HW181233   1.058   8.207   2.981 -0.8795 -0.2763 -0.5312
25047SOL    HW281234   0.917   8.178   3.027 -0.5609  0.4578  0.9977
25048SOL     OW81235   0.779   9.918   3.520  0.2955 -0.1373 -0.4924
25048SOL    HW181236   0.691   9.896   3.551  0.7627 -0.5963  0.5620
25048SOL    HW281237   0.820   9.833   3.503  0.0379  0.0842 -2.5262
25049SOL     OW81238   3.419   3.920   6.069 -0.5451 -0.6304  0.8407
25049SOL    HW181239   3.445   3.841   6.117  0.3013 -0.9841 -0.1824
25049SOL    HW281240   3.448   3.992   6.125  1.5249 -1.0257  0.3352
25050SOL     OW81241   8.613   6.959   2.970 -0.7712 -0.2728 -0.2203
25050SOL    HW181242   8.539   7.020   2.971 -0.6015 -0.0673 -0.0318
25050SOL    HW281243   8.604   6.908   3.050 -1.3505 -1.0346 -0.7567
25051SOL     OW81244   3.936   0.025   4.297 -0.0891  0.1199 -0.1743
25051SOL    HW181245   3.910   0.041   4.206 -0.2523 -0.1998 -0.1862
25051SOL    HW281246   3.873   0.075   4.349  0.5044  0.9572 -0.2580
25052SOL     OW81247   8.511   9.028   9.123  0.0152  0.1207  0.1359
25052SOL    HW181248   8.417   9.012   9.135  0.1989 -0.4735  0.7927
25052SOL    HW281249   8.537   8.966   9.055  0.5636 -1.9675  2.1338
25053SOL     OW81250   4.218   9.981  10.606 -0.6752 -0.1655 -0.2319
25053SOL    HW181251   4.205  10.053  10.667  0.4763 -0.5022  0.4516
25053SOL    HW281252   4.206   9.902  10.659  1.3831 -0.4667 -0.1381
25054SOL     OW81253   5.144   9.926   1.129  0.2905 -0.0304  0.1688
25054SOL    HW181254   5.059   9.969   1.140 -0.1504 -1.2980  2.3697
25054SOL    HW281255   5.128   9.856   1.065 -0.2699 -0.0991  0.3787
25055SOL     OW81256   5.129   3.067   4.197  0.0812 -0.3385  0.1142
25055SOL    HW181257   5.139   3.075   4.102  0.6146  1.0044  0.2556
25055SOL    HW281258   5.052   3.012   4.209 -0.1768 -0.2624 -1.1057
25056SOL     OW81259   5.384   6.558   1.193  0.5555 -0.1690 -0.7749
25056SOL    HW181260   5.374   6.565   1.288  0.3802  0.6988 -0.8479
25056SOL    HW281261   5.478   6.565   1.178  0.6275 -0.7769 -0.6368
25057SOL     OW81262   5.197   3.360   7.065 -0.2177 -0.3155  0.5972
25057SOL    HW181263   5.288   3.350   7.093 -0.6405 -0.9834  1.8247
25057SOL    HW281264   5.171   3.274   7.033 -0.5547 -0.2568  0.7010
25058SOL     OW81265   4.275   0.202   7.066  0.1490 -0.0578  0.2337
25058SOL    HW181266   4.181   0.198   7.083  0.3516  0.6487  1.6508
25058SOL    HW281267   4.296   0.296   7.065  0.7721 -0.1944 -0.4902
25059SOL     OW81268   9.831   2.219   7.661  0.1143  0.5436 -0.4797
25059SOL    HW181269   9.792   2.298   7.699  0.1359  0.2580  0.1485
25059SOL    HW281270   9.756   2.163   7.640  0.1350  0.4337 -0.2586
25060SOL     OW81271   3.762   9.888   5.219  0.1015  0.2620  0.2038
25060SOL    HW181272   3.692   9.877   5.155 -0.0644  0.6089  0.3207
25060SOL    HW281273   3.721   9.866   5.303 -0.0251  0.9872  0.3415
25061SOL     OW81274   7.362   6.367   6.589  0.2483 -0.4691 -0.1079
25061SOL    HW181275   7.423   6.366   6.663  0.0858 -1.8593  0.0303
25061SOL    HW281276   7.354   6.275   6.563 -0.0246 -0.0472 -1.5933
25062SOL     OW81277   5.554   0.295   4.832 -0.6045 -0.0635  0.0757
25062SOL    HW181278   5.508   0.375   4.858 -0.1170  1.1915 -2.5334
25062SOL    HW281279   5.485   0.235   4.803 -1.0058 -0.8244  2.4190
25063SOL     OW81280  10.008   2.599  10.090  0.3158  0.3537 -0.0631
25063SOL    HW181281  10.030   2.670  10.028  0.3255  2.4864  2.2165
25063SOL    HW281282  10.081   2.537  10.082  1.5216  1.7575 -0.5320
25064SOL     OW81283   7.924   6.565   4.341 -0.3746 -0.5488  0.0396
25064SOL    HW181284   7.895   6.612   4.262  0.4518 -1.6350 -0.9368
25064SOL    HW281285   8.017   6.588   4.349 -0.2591 -1.0839  0.2375
25065SOL     OW81286   3.329   4.918   3.093  0.1431 -0.0172  0.5499
25065SOL    HW181287   3.311   4.841   3.040  2.2807  0.3255 -0.7963
25065SOL    HW281288   3.280   4.989   3.051  1.4048  0.1431 -0.7209
25066SOL     OW81289   3.171   6.358   4.170  0.3879 -0.0930  0.1080
25066SOL    HW181290   3.104   6.311   4.219  0.2666 -0.9983 -0.8886
25066SOL    HW281291   3.138   6.360   4.080  1.5063 -0.2084 -0.3210
25067SOL     OW81292  10.442  10.240   5.922 -0.0018 -0.9281  0.9496
25067SOL    HW181293  10.413  10.207   5.837 -1.5110  1.0681  0.6203
25067SOL    HW281294  10.537  10.226   5.922 -0.0695 -1.6037 -0.7631
25068SOL     OW81295   3.893   7.054   5.837 -0.0917 -0.0852 -0.5008
25068SOL    HW181296   3.854   7.054   5.925  0.9982 -1.0832  0.0110
25068SOL    HW281297   3.943   6.972   5.833 -1.3116 -0.8103 -2.6051
25069SOL     OW81298  10.212  10.643   9.705  0.2409 -0.1089 -0.3590
25069SOL    HW181299  10.200  10.675   9.795  2.2663  1.0161 -0.4337
25069SOL    HW281300  10.279  10.575   9.714 -1.2798 -1.7184 -0.7379
25070SOL     OW81301   7.247   0.270   4.704 -0.7268 -0.5881 -0.0460
25070SOL    HW181302   7.203   0.213   4.641 -0.3665 -0.5654 -0.3215
25070SOL    HW281303   7.180   0.287   4.771 -1.1874 -0.4237 -0.5376
25071SOL     OW81304  10.737   0.020   2.225 -0.2274  0.3146  0.4463
25071SOL    HW181305  10.714  -0.060   2.272  0.7160  0.3777  1.0335
25071SOL    HW281306  10.687   0.015   2.143 -0.6460 -0.5733  0.7456
25072SOL     OW81307   9.141   5.691   0.476  0.4160 -0.3395 -0.1258
25072SOL    HW181308   9.112   5.609   0.516 -0.6476 -1.0156 -2.1111
25072SOL    HW281309   9.224   5.667   0.433  0.0308 -0.4426 -0.8294
25073SOL     OW81310   6.155   4.904   8.035  0.1153  0.1937 -0.2509
25073SOL    HW181311   6.202   4.981   8.005  0.3149  0.5702  0.9692
25073SOL    HW281312   6.208   4.871   8.108 -0.3760 -0.6410 -0.2637
25074SOL     OW81313   3.117   2.097   3.212  0.5802 -0.1076 -0.1343
25074SOL    HW181314   3.181   2.061   3.273  1.1373  2.2126  0.7635
25074SOL    HW281315   3.163   2.099   3.128  0.5477 -1.3535 -0.2046
25075SOL     OW81316   2.968  10.792   4.070  0.4537  0.1423  0.0829
25075SOL    HW181317   2.993  10.775   4.161  3.0760 -0.9264 -0.7401
25075SOL    HW281318   2.977  10.887   4.060 -0.8334  0.4113  1.1467
25076SOL     OW81319   7.845   8.371   0.806 -0.1454  0.6642 -0.1404
25076SOL    HW181320   7.873   8.283   0.781  0.9206  1.6929 -2.8699
25076SOL    HW281321   7.921   8.409   0.850 -0.3476  0.5116  0.3538
25077SOL     OW81322   3.917   0.008   9.444 -0.2157  0.2081 -0.3802
25077SOL    HW181323   3.978   0.028   9.515  0.8036 -1.2662 -0.8056
25077SOL    HW281324   3.851  -0.048   9.483  0.2131 -0.4087 -0.5380
25078SOL     OW81325   0.111   5.163  10.843  0.8319 -0.4623  0.0650
25078SOL    HW181326   0.055   5.155  10.920  1.2279 -1.1366  0.2847
25078SOL    HW281327   0.199   5.144  10.874  0.8155 -2.1294 -0.8249
25079SOL     OW81328   7.622   6.193   9.067 -0.2806 -0.6358 -0.2624
25079SOL    HW181329   7.560   6.245   9.118 -0.3081 -0.9045 -0.0228
25079SOL    HW281330   7.585   6.104   9.068  0.5179 -0.9640  0.5302
25080SOL     OW81331   3.803   4.914   7.604 -0.0935  0.5244 -0.1409
25080SOL    HW181332   3.891   4.897   7.568  0.2040  1.3825  0.1617
25080SOL    HW281333   3.762   4.973   7.541 -0.7948 -0.5689 -0.7363
25081SOL     OW81334   9.906   8.954   2.280  0.2377  0.2899 -0.3611
25081SOL    HW181335   9.832   8.895   2.265  1.2770 -1.0858 -0.3095
25081SOL    HW281336   9.900   8.979   2.372 -0.5752  0.8003 -0.5441
25082SOL     OW81337   6.628   5.510   6.864 -0.1147 -0.3398 -0.0854
25082SOL    HW181338   6.720   5.491   6.881  0.0002  0.9750  0.9032
25082SOL    HW281339   6.602   5.444   6.800  1.6158 -0.4974 -0.6950
25083SOL     OW81340  10.207   2.644   5.619  0.0520  0.0882  0.0697
25083SOL    HW181341  10.176   2.731   5.597  0.8820  0.4743  0.3702
25083SOL    HW281342  10.226   2.648   5.713 -0.7938 -0.6999  0.2911
25084SOL     OW81343   1.230   7.229   1.766  0.2074  0.7593  0.4609
25084SOL    HW181344   1.190   7.311   1.795  0.4183  1.0046  0.0656
25084SOL    HW281345   1.299   7.213   1.830  0.1858  0.9058  0.5228
25085SOL     OW81346   5.682   5.374   9.188  0.6271 -0.2323  0.0971
25085SOL    HW181347   5.757   5.431   9.206  0.0299  0.7240 -0.3705
25085SOL    HW281348   5.609   5.416   9.233 -0.1901  0.3505 -1.7248
25086SOL     OW81349   0.250  10.698   3.220  0.6058 -0.0413 -0.2408
25086SOL    HW181350   0.235  10.660   3.134  1.1419  0.3829 -0.5267
25086SOL    HW281351   0.242  10.792   3.207 -1.3103 -0.0337  0.5822
25087SOL     OW81352   4.415   8.014   0.876  0.5178  0.3004 -0.2466
25087SOL    HW181353   4.496   8.065   0.878  2.2410 -2.2031 -0.8811
25087SOL    HW281354   4.400   7.996   0.783 -1.1802  1.2647 -0.1906
25088SOL     OW81355   4.715   0.715   6.213 -0.2929 -0.7188  0.4066
25088SOL    HW181356   4.778   0.784   6.236 -1.7081  0.7765  0.0119
25088SOL    HW281357   4.766   0.653   6.161  0.6345  1.0295 -0.8851
25089SOL     OW81358   0.309   3.494   6.316 -0.2687 -0.0018 -0.4055
25089SOL    HW181359   0.317   3.427   6.248  2.0551 -0.0741 -0.1384
25089SOL    HW281360   0.275   3.570   6.270 -0.1823 -0.5041 -1.3276
25090SOL     OW81361   0.984  10.926   0.879  0.3653 -0.1273  0.2442
25090SOL    HW181362   0.950  10.999   0.828 -0.0086 -0.2597  0.3013
25090SOL    HW281363   0.915  10.859   0.874  0.8235 -0.5920 -0.0639
25091SOL     OW81364   9.239   0.832   8.308 -0.1788  0.6211  0.1533
25091SOL    HW181365   9.178   0.832   8.234  0.2376 -2.9659 -0.3607
25091SOL    HW281366   9.186   0.860   8.382 -2.0984 -0.9064 -0.5612
25092SOL     OW81367   0.565   6.421   6.753  0.0776  0.3306 -0.1817
25092SOL    HW181368   0.521   6.340   6.729  2.9281 -0.7179 -2.3578
25092SOL    HW281369   0.493   6.481   6.776 -2.2316 -2.1140 -0.5116
25093SOL     OW81370   1.543  10.926   7.658 -0.0881  0.0942 -0.4762
25093SOL    HW181371   1.526  10.958   7.569  0.4536 -0.1430 -0.6668
25093SOL    HW281372   1.493  10.985   7.714  0.6096  1.0581 -0.8500
25094SOL     OW81373  10.922   1.478   1.589  0.4175  0.2548  0.5615
25094SOL    HW181374  10.967   1.505   1.670  0.6675  0.7748  0.2606
25094SOL    HW281375  10.834   1.455   1.617  0.6515 -0.0606  1.0560
25095SOL     OW81376   9.419   6.489   4.234 -0.0174  0.0937  0.1143
25095SOL    HW181377   9.456   6.481   4.146 -0.6710 -0.8479 -0.0992
25095SOL    HW281378   9.390   6.400   4.256 -2.7972  0.8375 -0.0722
25096SOL     OW81379   8.025  10.840   9.359 -0.3420  0.0878  0.2511
25096SOL    HW181380   8.079  10.856   9.437  0.2556 -0.5191 -0.0202
25096SOL    HW281381   7.936  10.857   9.388 -0.0992  0.1818  0.9862
25097SOL     OW81382   2.729   1.303   7.222  0.3862  0.4191  0.4682
25097SOL    HW181383   2.799   1.367   7.214 -0.2927  1.1036 -0.3295
25097SOL    HW281384   2.657   1.351   7.262  0.9444 -0.7789  3.0883
25098SOL     OW81385   5.503   7.475   3.086 -0.1426 -0.0793  0.3991
25098SOL    HW181386   5.416   7.475   3.046  0.3829 -0.3876 -0.7816
25098SOL    HW281387   5.490   7.433   3.171 -0.8380 -1.8027 -0.5001
25099SOL     OW81388   6.124   9.560   8.978  0.0873  0.1850 -0.2774
25099SOL    HW181389   6.128   9.473   8.939  1.1788  0.3899 -0.6803
25099SOL    HW281390   6.103   9.619   8.905 -2.7592  0.0882  0.3471
25100SOL     OW81391   8.947   9.295   9.402  0.1425 -0.7570  0.1955
25100SOL    HW181392   9.029   9.331   9.436  0.6815 -0.7889 -1.0199
25100SOL    HW281393   8.965   9.202   9.389 -0.0003 -0.7188 -0.2997
25101SOL     OW81394   9.222   8.511   7.289 -0.4336 -0.5719 -0.3284
25101SOL    HW181395   9.189   8.592   7.328  0.9060  0.4603 -1.2528
25101SOL    HW281396   9.176   8.504   7.205  0.4584  0.0112 -0.8858
25102SOL     OW81397  10.120   3.700  10.913 -0.0069 -0.2630 -0.6846
25102SOL    HW181398  10.113   3.610  10.883 -0.7354 -0.9865  1.4457
25102SOL    HW281399  10.035   3.740  10.891 -0.3063 -0.6098 -0.1982
25103SOL     OW81400   3.502   8.080   4.712  0.1955 -0.2185  0.0271
25103SOL    HW181401   3.484   8.083   4.618 -0.3606  1.5133  0.1540
25103SOL    HW281402   3.551   8.160   4.730 -1.5728  0.6141  1.5278
25104SOL     OW81403  10.846   8.974   1.777 -0.5115 -0.3605  0.0127
25104SOL    HW181404  10.767   9.025   1.756  0.3511  0.4579 -1.3732
25104SOL    HW281405  10.812   8.889   1.806 -1.9820  0.8109  2.0081
25105SOL     OW81406   7.762   4.173   8.591 -0.0737  0.3609 -0.6393
25105SOL    HW181407   7.826   4.115   8.548 -1.9685 -1.1707 -1.5603
25105SOL    HW281408   7.771   4.153   8.684  1.2124  0.6404 -0.6868
25106SOL     OW81409   9.459  10.708   9.777  0.2174 -0.2650  0.5840
25106SOL    HW181410   9.513  10.733   9.852 -1.5110 -1.2441  2.2458
25106SOL    HW281411   9.520  10.667   9.716  1.7202  0.7577  1.3460
25107SOL     OW81412   8.007   9.857   1.099 -0.2287  0.0702 -0.1280
25107SOL    HW181413   7.975   9.913   1.169 -0.6726 -0.2194 -0.0978
25107SOL    HW281414   8.090   9.898   1.072  1.0180 -0.9286  1.9340
25108SOL     OW81415   4.016   3.691   5.221  0.2569  0.1543  0.5732
25108SOL    HW181416   3.980   3.752   5.157  2.2905  0.9180  0.0939
25108SOL    HW281417   4.109   3.685   5.199  0.9297  0.0621  3.1400
25109SOL     OW81418   8.824   8.913   7.440 -0.3762  0.7407  0.3197
25109SOL    HW181419   8.737   8.880   7.467 -0.0948  0.4121  0.8541
25109SOL    HW281420   8.860   8.953   7.520 -0.8437  2.6986 -0.3991
25110SOL     OW81421   6.338   3.910   9.449  0.6467 -0.1235  0.1406
25110SOL    HW181422   6.288   3.930   9.529 -0.4346  0.1574 -0.5820
25110SOL    HW281423   6.315   3.819   9.429 -0.1376  0.2203 -0.5730
25111SOL     OW81424  10.286   2.790   0.157 -0.2034  0.2946 -0.3938
25111SOL    HW181425  10.276   2.861   0.220  0.5862  0.5350 -0.5343
25111SOL    HW281426  10.206   2.738   0.167  1.5430 -2.1155  3.8038
25112SOL     OW81427   1.231   2.746   8.726  0.2269  0.1651 -0.4028
25112SOL    HW181428   1.298   2.812   8.744 -0.8041  0.9502  0.7885
25112SOL    HW281429   1.239   2.684   8.798  0.1863 -0.1511 -0.6732
25113SOL     OW81430   5.119   6.209   3.232 -0.0635 -0.5508  0.1456
25113SOL    HW181431   5.100   6.298   3.260  1.5077 -0.1396  0.0379
25113SOL    HW281432   5.093   6.206   3.140  1.7854  0.4899 -0.4692
25114SOL     OW81433   3.817  10.550   8.755  0.2953 -0.4199  0.0189
25114SOL    HW181434   3.748  10.535   8.690  1.1129 -1.9157 -0.5560
25114SOL    HW281435   3.802  10.484   8.822 -0.0229  0.5601  0.9362
25115SOL     OW81436   2.071   2.109   9.760 -0.1025  0.0568 -0.1206
25115SOL    HW181437   2.146   2.086   9.705 -0.7413 -1.4180 -0.4385
25115SOL    HW281438   2.047   2.197   9.732  1.5210  0.5822  0.0246
25116SOL     OW81439   0.572   5.853   4.508  0.0054 -0.0090  0.6189
25116SOL    HW181440   0.540   5.818   4.591 -1.5916  0.9887  0.4639
25116SOL    HW281441   0.494   5.869   4.456  0.8068  1.4474 -0.2330
25117SOL     OW81442   8.385   3.052   1.260 -0.2739 -0.1247  0.3943
25117SOL    HW181443   8.470   3.066   1.301  0.5121 -1.0761 -0.8766
25117SOL    HW281444   8.385   2.960   1.234 -1.2502  0.1400 -0.6051
25118SOL     OW81445   4.584  10.218   2.220  0.4195 -0.5664  0.0090
25118SOL    HW181446   4.653  10.185   2.162  1.3844  0.2246  0.6600
25118SOL    HW281447   4.630  10.245   2.299 -0.2802  2.0908 -0.3770
25119SOL     OW81448   3.001   7.643  10.735 -0.2939 -0.4101 -0.2394
25119SOL    HW181449   2.989   7.735  10.712 -0.6709 -0.6907 -1.2233
25119SOL    HW281450   3.093   7.637  10.761 -0.2009  0.2038 -0.4047
25120SOL     OW81451   0.147   5.464   0.489 -0.0058  0.3999 -0.6601
25120SOL    HW181452   0.122   5.555   0.508 -1.3424  0.1640 -1.2218
25120SOL    HW281453   0.189   5.469   0.403 -1.1963  0.3300 -1.2648
25121SOL     OW81454   9.978   9.301   6.378  0.7114  0.2080 -0.7036
25121SOL    HW181455  10.048   9.327   6.317  0.6332  1.1997 -0.3871
25121SOL    HW281456   9.971   9.374   6.438 -0.9749  0.3574 -1.0391
25122SOL     OW81457   5.851   2.074   2.421  0.3903  0.5086  0.3220
25122SOL    HW181458   5.936   2.031   2.409 -0.3877 -0.8211 -0.7242
25122SOL    HW281459   5.855   2.151   2.364  0.1501 -0.7143 -1.4392
25123SOL     OW81460   8.885  10.352   7.992  0.3678  0.1664  0.3066
25123SOL    HW181461   8.872  10.444   7.968 -0.1951  0.2159  0.7811
25123SOL    HW281462   8.979  10.337   7.981  0.4907  0.8453  0.3961
25124SOL     OW81463   0.189  10.347   3.946  0.4792  0.2524  0.2154
25124SOL    HW181464   0.094  10.338   3.954  0.2222  2.8065  0.8801
25124SOL    HW281465   0.224  10.263   3.975 -1.5239 -0.2755  1.2724
25125SOL     OW81466   2.630  10.623   3.125 -0.2190  0.3800  0.3044
25125SOL    HW181467   2.715  10.664   3.141 -0.3175  0.7720 -0.1536
25125SOL    HW281468   2.587  10.681   3.062 -0.2799 -0.5251 -0.5116
25126SOL     OW81469   6.686   6.425   2.102  0.3921 -0.3585 -0.6362
25126SOL    HW181470   6.697   6.518   2.119 -1.2628 -0.4178  0.9923
25126SOL    HW281471   6.775   6.390   2.103  0.8755  0.5652  2.9451
25127SOL     OW81472   0.001   1.760   8.907  0.2388  0.2478  0.1835
25127SOL    HW181473  -0.079   1.810   8.924  0.6509  0.6853  0.8814
25127SOL    HW281474   0.066   1.798   8.965  0.5899 -1.0783  0.6950
25128SOL     OW81475   8.046   1.378   6.366 -0.0637 -0.6178  0.8019
25128SOL    HW181476   8.041   1.402   6.459 -2.3042  0.7598  0.3964
25128SOL    HW281477   7.977   1.313   6.355  1.0216 -1.7328  0.3022
25129SOL     OW81478   6.753   9.396   7.439  0.0537 -0.2812 -0.2399
25129SOL    HW181479   6.671   9.446   7.450 -1.1151 -1.7900 -1.6027
25129SOL    HW281480   6.731   9.308   7.470  0.6269 -1.1325 -2.1359
25130SOL     OW81481  10.808   2.626  10.875 -0.4180 -0.3479 -0.8430
25130SOL    HW181482  10.727   2.655  10.917 -0.3121 -0.6554 -0.4164
25130SOL    HW281483  10.780   2.567  10.806 -0.5100 -1.4152  0.0885
25131SOL     OW81484   6.366   9.922   3.941 -0.1485 -0.2452 -0.4857
25131SOL    HW181485   6.345   9.979   4.015  0.7675 -1.4055  0.7381
25131SOL    HW281486   6.402   9.843   3.982 -0.2793 -1.2217 -2.1607
25132SOL     OW81487   5.596   6.337   4.825  0.1908 -0.1928  0.4133
25132SOL    HW181488   5.663   6.404   4.812 -0.0508 -0.1959 -0.9343
25132SOL    HW281489   5.616   6.300   4.911  2.6399 -0.9969 -0.4151
25133SOL     OW81490   0.075   2.820   8.464  0.5307 -0.0914  0.0078
25133SOL    HW181491   0.140   2.808   8.394  1.5318  1.3073  0.6463
25133SOL    HW281492  -0.000   2.768   8.436 -0.3949  2.8642 -3.7764
25134SOL     OW81493   6.337   0.211   7.866  0.6680 -0.2269 -0.3514
25134SOL    HW181494   6.307   0.197   7.776  0.8596 -0.5343 -0.3702
25134SOL    HW281495   6.392   0.134   7.885  2.1133  0.6940 -0.6003
25135SOL     OW81496   2.263   2.763  10.310  0.0120 -0.0426  0.1179
25135SOL    HW181497   2.356   2.782  10.321  0.6625 -1.7105 -1.9079
25135SOL    HW281498   2.223   2.792  10.392  2.0759  1.9525  0.5177
25136SOL     OW81499   4.532   2.681   4.356  0.2342 -0.4500 -0.0690
25136SOL    HW181500   4.497   2.745   4.418 -2.5545 -2.7575  0.9563
25136SOL    HW281501   4.613   2.651   4.397 -0.1094  0.1002  1.0583
25137SOL     OW81502   7.954   8.012   2.720  0.2985 -0.0817 -0.0925
25137SOL    HW181503   8.006   8.002   2.640 -2.1473 -0.5016 -1.7456
25137SOL    HW281504   7.914   8.098   2.712 -0.5944 -0.4483  0.2546
25138SOL     OW81505   3.660   9.639  10.857  0.2800 -0.2805 -0.1729
25138SOL    HW181506   3.737   9.633  10.800 -1.1087 -0.1978 -2.1631
25138SOL    HW281507   3.662   9.729  10.890  0.6611 -0.0691 -0.7581
25139SOL     OW81508   2.173   4.489   9.652  0.2421  0.4093 -0.2723
25139SOL    HW181509   2.180   4.584   9.655  2.0454  0.3043 -0.3877
25139SOL    HW281510   2.221   4.463   9.574  0.3167 -0.6453  0.1049
25140SOL     OW81511   1.194   6.535   9.760 -0.8382 -0.4077 -0.1148
25140SOL    HW181512   1.134   6.593   9.807 -1.8752  0.3909 -2.2834
25140SOL    HW281513   1.137   6.479   9.706  0.2778 -1.1535 -0.5732
25141SOL     OW81514   3.896   6.459   7.991 -0.1813 -0.3413  0.0676
25141SOL    HW181515   3.944   6.518   8.049  2.6485 -1.5483 -0.8516
25141SOL    HW281516   3.877   6.382   8.046  2.6739 -1.5685 -0.4740
25142SOL     OW81517   8.899   6.112   8.741 -0.2105  1.1436  0.0345
25142SOL    HW181518   8.893   6.184   8.679  0.6210 -0.0181 -1.4779
25142SOL    HW281519   8.815   6.067   8.734 -0.1746  1.1050 -0.1634
25143SOL     OW81520   6.810   3.278   2.540  0.1221 -0.0354  0.1795
25143SOL    HW181521   6.849   3.233   2.614  1.4224 -0.9604 -1.0275
25143SOL    HW281522   6.817   3.217   2.467 -2.1888  0.3669 -0.4924
25144SOL     OW81523   4.202  10.170   2.843  0.0545 -0.1784  0.2142
25144SOL    HW181524   4.131  10.230   2.865 -1.1064 -0.9303 -1.2887
25144SOL    HW281525   4.207  10.174   2.747  0.8030 -1.5173  0.1754
25145SOL     OW81526  10.620   2.005   6.547 -0.1615  0.0364  0.1701
25145SOL    HW181527  10.609   1.972   6.459  0.8991  0.8645 -0.3002
25145SOL    HW281528  10.709   2.041   6.549 -0.5919  1.1419  1.1892
25146SOL     OW81529   6.726   8.214   7.592  0.2457 -0.1632 -0.1225
25146SOL    HW181530   6.800   8.228   7.533 -0.9116 -1.3168 -1.9567
25146SOL    HW281531   6.733   8.122   7.618 -1.0596 -0.5652 -1.1107
25147SOL     OW81532   0.537   9.039   2.881  0.6479  0.3348  0.0908
25147SOL    HW181533   0.568   9.053   2.970 -0.5931 -2.5442  1.0670
25147SOL    HW281534   0.442   9.048   2.887  0.6771  2.7031 -1.5606
25148SOL     OW81535   8.828   2.962   2.590  0.0081 -0.3978  0.1892
25148SOL    HW181536   8.824   3.024   2.663 -0.4422 -0.1435 -0.0518
25148SOL    HW281537   8.914   2.978   2.550 -0.8906  1.4688 -1.0979
25149SOL     OW81538   4.703   5.790   7.109  0.2155 -0.3464  0.3184
25149SOL    HW181539   4.621   5.831   7.137 -0.0448  0.0053 -0.8939
25149SOL    HW281540   4.752   5.777   7.190 -0.1758  1.3122  0.8590
25150SOL     OW81541   5.485   5.170   3.055  0.3322  0.6182 -0.0989
25150SOL    HW181542   5.475   5.244   2.995  2.5867  0.7652 -0.3665
25150SOL    HW281543   5.545   5.202   3.123  0.6775 -0.6944  0.2325
25151SOL     OW81544   6.742  10.128   4.965  0.1932 -0.3372 -0.1729
25151SOL    HW181545   6.787  10.209   4.945 -0.2359 -0.2825 -0.9714
25151SOL    HW281546   6.690  10.148   5.043  0.8263 -0.1391  0.2078
25152SOL     OW81547   5.051  10.529   8.382 -0.4549  0.4123 -0.4683
25152SOL    HW181548   4.998  10.555   8.457  1.0716  4.1704 -0.4985
25152SOL    HW281549   4.995  10.544   8.306 -0.4804  1.1549 -0.3120
25153SOL     OW81550   4.312   8.591   5.261 -0.3050 -0.0225 -0.3001
25153SOL    HW181551   4.370   8.617   5.189  0.6127  0.7902  0.6926
25153SOL    HW281552   4.241   8.656   5.260  0.6301  1.0664  0.5721
25154SOL     OW81553   1.462   2.829  10.177 -0.1592 -0.4896 -0.1238
25154SOL    HW181554   1.536   2.769  10.183  0.9877  0.9032  0.3268
25154SOL    HW281555   1.403   2.789  10.113  0.2355 -2.3930  0.6344
25155SOL     OW81556   3.026  10.736   4.338 -0.1672  0.1644  0.4576
25155SOL    HW181557   3.101  10.702   4.388 -2.2484 -1.4935  2.6935
25155SOL    HW281558   2.998  10.813   4.387 -0.4781  0.2428  0.1568
25156SOL     OW81559   7.782   6.382   9.413  0.1854  0.1254 -0.1811
25156SOL    HW181560   7.724   6.306   9.411 -0.1620  0.3655  0.5972
25156SOL    HW281561   7.813   6.390   9.322  0.8431 -1.4032 -0.1261
25157SOL     OW81562   8.371   2.543   9.501  0.2156 -0.0002 -0.3877
25157SOL    HW181563   8.444   2.497   9.460  0.3144 -1.2900  1.1439
25157SOL    HW281564   8.332   2.478   9.559  1.4871  2.2744  3.3305
25158SOL     OW81565   6.386   6.881   3.158  0.8082  0.0460  0.2116
25158SOL    HW181566   6.414   6.955   3.104  1.1410  0.1134  0.4748
25158SOL    HW281567   6.385   6.916   3.247 -0.5941  0.1865  0.1613
25159SOL     OW81568   5.601   7.852   8.767  0.3623  0.1493  0.0651
25159SOL    HW181569   5.650   7.785   8.815  2.9728  1.2860 -0.8191
25159SOL    HW281570   5.593   7.817   8.679 -0.1360  0.1246  0.1179
25160SOL     OW81571   2.011   0.249   2.063 -0.1090 -0.0542  0.3892
25160SOL    HW181572   1.963   0.172   2.092 -0.4893  0.6208  1.6183
25160SOL    HW281573   1.963   0.281   1.987 -0.6392 -0.3421  0.6001
25161SOL     OW81574   7.310   8.384   2.361  0.5743 -0.0010 -0.1529
25161SOL    HW181575   7.292   8.290   2.357 -1.8320  0.3811 -0.0193
25161SOL    HW281576   7.251   8.417   2.429  1.9400  1.5229  0.3699
25162SOL     OW81577   3.005  10.510   0.743 -0.2544 -0.3638 -0.5214
25162SOL    HW181578   3.088  10.500   0.790  0.3686  2.8358 -0.7338
25162SOL    HW281579   3.031  10.542   0.657 -1.6520 -1.5363 -1.4147
25163SOL     OW81580   3.020   1.987   1.069 -0.3588  0.4722 -0.5239
25163SOL    HW181581   3.034   1.961   1.160 -0.4264  0.3370 -0.5509
25163SOL    HW281582   2.979   2.073   1.074  0.8503  1.0659 -0.4513
25164SOL     OW81583   0.780   0.046   1.634 -0.2445  0.1448 -0.4142
25164SOL    HW181584   0.811   0.124   1.681 -2.4380  1.2288 -0.6310
25164SOL    HW281585   0.860   0.002   1.606  1.1695  0.3229  2.8455
25165SOL     OW81586   3.858   0.741  10.669  0.2922  0.4001 -0.0901
25165SOL    HW181587   3.886   0.719  10.758  0.8590  0.6187 -0.2062
25165SOL    HW281588   3.885   0.832  10.657  1.3495  0.0127 -0.8976
25166SOL     OW81589   5.247   8.995   4.156  0.4219 -0.1283 -0.3580
25166SOL    HW181590   5.301   9.042   4.219 -0.8514  1.4356 -0.3990
25166SOL    HW281591   5.304   8.924   4.125  2.7409  1.8278 -0.8990
25167SOL     OW81592   4.210   6.505   8.435 -0.4221  0.0105 -0.3670
25167SOL    HW181593   4.138   6.539   8.489 -0.0772  0.4489 -0.1769
25167SOL    HW281594   4.172   6.496   8.347 -0.3509  1.5730 -0.5933
25168SOL     OW81595   2.666   1.516   5.057 -0.0245  0.4193  0.2786
25168SOL    HW181596   2.739   1.512   5.118 -0.2809 -0.9325  0.5369
25168SOL    HW281597   2.694   1.463   4.982 -0.6100  0.1491  0.2424
25169SOL     OW81598   4.588   1.327   6.572 -0.4024 -0.3501 -0.4612
25169SOL    HW181599   4.523   1.344   6.503  0.4449 -1.3712 -1.5505
25169SOL    HW281600   4.590   1.408   6.624 -1.8908  0.0136 -0.9399
25170SOL     OW81601  10.704   9.654   9.838  0.3998 -0.0662 -0.2641
25170SOL    HW181602  10.684   9.603   9.759 -1.0041 -0.8136  0.5276
25170SOL    HW281603  10.723   9.742   9.805 -0.5328 -0.2651 -1.4193
25171SOL     OW81604  10.159   8.124   3.523 -0.3005  0.1762 -0.1025
25171SOL    HW181605  10.064   8.131   3.532 -0.2020  0.4349  0.9328
25171SOL    HW281606  10.182   8.048   3.577  0.2188  1.0030  0.8882
25172SOL     OW81607   0.664  10.694   7.957 -0.1869  0.0040  0.8364
25172SOL    HW181608   0.753  10.696   7.921 -1.1769 -0.8609 -1.9679
25172SOL    HW281609   0.644  10.601   7.965 -0.2962  0.1792  3.1265
25173SOL     OW81610   4.754   8.530   4.912 -0.4644 -0.1777 -0.0282
25173SOL    HW181611   4.801   8.447   4.899 -0.0265 -0.1027  1.0227
25173SOL    HW281612   4.797   8.591   4.852 -0.9108 -0.7391 -0.9519
25174SOL     OW81613  10.859   3.390   0.921 -0.0008 -0.3315 -0.1440
25174SOL    HW181614  10.925   3.426   0.861  0.5110 -1.2918 -0.1870
25174SOL    HW281615  10.805   3.333   0.866  1.2766 -2.2609  0.4866
25175SOL     OW81616   2.525   4.461   7.736 -0.3546 -0.1785 -0.0272
25175SOL    HW181617   2.440   4.419   7.752 -0.7772 -0.4716 -2.5976
25175SOL    HW281618   2.529   4.532   7.800 -1.4930 -1.5554  1.6589
25176SOL     OW81619   9.832   0.559   5.085  0.1732 -0.0755 -0.4473
25176SOL    HW181620   9.757   0.610   5.055  0.1894  1.1138  1.3513
25176SOL    HW281621   9.799   0.470   5.092 -1.1081  0.4230  0.2926
25177SOL     OW81622   8.549   1.452   1.736  0.1752  0.2349  0.6767
25177SOL    HW181623   8.583   1.409   1.657 -1.0607  1.8841 -0.8431
25177SOL    HW281624   8.570   1.392   1.807  0.5268 -1.7730 -1.0226
25178SOL     OW81625   1.071   4.541   7.002 -0.1467 -0.2219  0.0144
25178SOL    HW181626   1.151   4.490   6.988 -0.5392 -0.3796 -2.0152
25178SOL    HW281627   1.003   4.476   7.018 -0.2776 -0.2398 -0.5827
25179SOL     OW81628   7.942   0.243   0.262  0.0335 -0.5667  0.1273
25179SOL    HW181629   7.917   0.207   0.348  0.0550  0.2128  0.4650
25179SOL    HW281630   8.036   0.230   0.258  0.1374  0.0303  0.5283
25180SOL     OW81631   3.290   1.734   0.944  0.0176  0.7106 -0.3449
25180SOL    HW181632   3.361   1.693   0.894 -1.2482 -0.4018 -1.2974
25180SOL    HW281633   3.253   1.799   0.883  0.8084  1.9884  0.4936
25181SOL     OW81634   7.725   6.021   7.729 -0.4178  0.5543 -0.1776
25181SOL    HW181635   7.791   5.954   7.709  0.9967  1.4338  1.2362
25181SOL    HW281636   7.755   6.099   7.683 -0.5381  0.9265  0.3661
25182SOL     OW81637   9.089   2.511   5.975 -0.3457  0.5035 -0.2729
25182SOL    HW181638   9.032   2.556   5.913 -3.8230 -1.2367  1.3817
25182SOL    HW281639   9.118   2.433   5.928 -1.5298  0.0672 -0.3033
25183SOL     OW81640   2.999   8.979  10.575  0.1264  0.3689  0.9006
25183SOL    HW181641   3.094   8.990  10.573  0.1496  0.1188 -0.2554
25183SOL    HW281642   2.984   8.904  10.633  0.7524 -0.5158 -0.0451
25184SOL     OW81643   9.105   0.122   1.102  0.0086 -0.1070  0.0847
25184SOL    HW181644   9.175   0.057   1.095  0.4116  0.2573  0.6295
25184SOL    HW281645   9.046   0.102   1.030 -0.6652 -2.0240  1.0970
25185SOL     OW81646   9.941   2.165   2.111  0.5368 -0.2313  0.3927
25185SOL    HW181647   9.915   2.073   2.116  0.1902 -0.1621 -0.0793
25185SOL    HW281648  10.016   2.165   2.051  1.6186 -0.4258  1.7170
25186SOL     OW81649   7.822   6.915   7.830 -0.1148 -0.0171  0.3829
25186SOL    HW181650   7.768   6.931   7.753 -1.2599 -1.3615  0.8548
25186SOL    HW281651   7.861   6.829   7.814  0.0141 -0.0960  1.0935
25187SOL     OW81652   6.003   4.356   9.842  0.0251 -0.5885  0.0580
25187SOL    HW181653   6.090   4.388   9.818  0.2931 -1.0367  0.4137
25187SOL    HW281654   6.019   4.275   9.890 -0.6407 -1.1991 -0.7239
25188SOL     OW81655   6.325   4.089   1.104  0.4511 -0.0018  0.1767
25188SOL    HW181656   6.419   4.070   1.104  0.1279 -1.7513 -0.0098
25188SOL    HW281657   6.320   4.184   1.114  2.2429  0.1582 -0.1038
25189SOL     OW81658  10.324   0.673   0.719 -0.0495  0.3151 -0.5227
25189SOL    HW181659  10.250   0.726   0.688 -1.3622 -1.1360  0.0402
25189SOL    HW281660  10.357   0.721   0.795 -1.2284  0.3446 -0.0050
25190SOL     OW81661   4.168   3.107   4.256 -0.3898  0.0306  0.4367
25190SOL    HW181662   4.146   3.016   4.276 -3.1581  0.5397  0.1316
25190SOL    HW281663   4.153   3.154   4.338  1.7248  0.1769  0.7941
25191SOL     OW81664   5.057   3.884   5.967 -0.0399 -0.1699 -0.3288
25191SOL    HW181665   5.110   3.865   6.045  2.6198  0.7498 -1.7630
25191SOL    HW281666   5.072   3.809   5.910 -1.3482 -0.4775 -0.2918
25192SOL     OW81667  10.733   2.910   0.527  0.1834 -0.7001  0.0008
25192SOL    HW181668  10.659   2.954   0.484  1.7415  1.6111 -0.5317
25192SOL    HW281669  10.698   2.879   0.610 -1.5037 -0.0733 -0.4448
25193SOL     OW81670   4.345   9.329   5.793  0.2258  0.5294  0.1511
25193SOL    HW181671   4.321   9.242   5.762 -1.5254  0.2807  1.9611
25193SOL    HW281672   4.330   9.387   5.718 -0.2153 -0.4965 -0.5672
25194SOL     OW81673   5.927   8.539   7.320  0.0389  0.2673 -0.6474
25194SOL    HW181674   5.915   8.625   7.360  3.1208  0.6439 -0.2830
25194SOL    HW281675   5.947   8.558   7.228 -0.4366 -0.1737 -0.8497
25195SOL     OW81676   4.956   1.760   3.055  0.0850  0.0310 -0.1104
25195SOL    HW181677   4.910   1.840   3.080 -3.8182 -2.2847  0.9636
25195SOL    HW281678   5.048   1.787   3.048 -0.9976  4.5949 -0.1306
25196SOL     OW81679   4.469   8.253  10.853 -0.1683  0.3891  0.3938
25196SOL    HW181680   4.528   8.253  10.928 -0.3845  0.6066  0.5622
25196SOL    HW281681   4.381   8.257  10.891 -0.3212 -0.4631  0.1640
25197SOL     OW81682   1.711   2.533   3.402  0.0306 -0.4462 -0.8286
25197SOL    HW181683   1.633   2.588   3.411 -0.5637 -1.4458  0.3249
25197SOL    HW281684   1.775   2.572   3.462 -0.8892 -1.8152  1.1350
25198SOL     OW81685   5.044   9.182   3.934  0.3278  0.0331  0.0242
25198SOL    HW181686   5.114   9.198   3.997 -0.9855 -0.0408  1.5648
25198SOL    HW281687   4.992   9.263   3.935 -0.5708 -0.5248  0.2159
25199SOL     OW81688   8.237   5.815   3.343  0.5953 -0.0404 -0.5449
25199SOL    HW181689   8.274   5.727   3.348  0.6099 -0.0180 -0.2430
25199SOL    HW281690   8.209   5.824   3.252 -2.2901 -1.5375  0.0455
25200SOL     OW81691   3.125   0.348   9.108  0.0697  0.2834  0.4482
25200SOL    HW181692   3.042   0.317   9.070  0.8651 -0.7242 -0.5419
25200SOL    HW281693   3.117   0.443   9.108 -1.3409  0.1846  0.9639
25201SOL     OW81694   5.128  10.776   2.058 -0.1791 -0.8202  0.8872
25201SOL    HW181695   5.118  10.821   2.142 -0.8055 -1.0851  0.9598
25201SOL    HW281696   5.103  10.685   2.076  1.6345 -1.3736  0.8799
25202SOL     OW81697   6.101   8.936   2.956 -0.5746 -0.4118  0.2984
25202SOL    HW181698   6.018   8.921   3.002 -1.6971 -0.6203 -1.6760
25202SOL    HW281699   6.168   8.914   3.020 -2.0493 -0.5965  1.8513
25203SOL     OW81700   1.000   2.752   2.809 -0.7006 -0.1620 -0.5641
25203SOL    HW181701   1.043   2.782   2.728 -1.1357  0.9354 -0.4022
25203SOL    HW281702   0.990   2.832   2.861  0.4050 -0.9882  0.9847
25204SOL     OW81703   4.589   3.838   7.356 -0.6030 -0.1961  0.7471
25204SOL    HW181704   4.623   3.770   7.298 -0.3337  0.2319  0.3946
25204SOL    HW281705   4.578   3.915   7.299 -1.0931 -0.0021  1.0929
25205SOL     OW81706   5.683  10.762   7.959  0.3611  0.3597 -0.0447
25205SOL    HW181707   5.750  10.734   7.896  0.1896  0.0129 -0.0770
25205SOL    HW281708   5.723  10.834   8.007  1.2750 -0.7218  0.8833
25206SOL     OW81709   0.488   4.338   6.457 -0.3041  0.1373  0.1363
25206SOL    HW181710   0.546   4.402   6.416 -1.0204  1.0526  0.5280
25206SOL    HW281711   0.543   4.261   6.469  1.9688  2.0657  3.7828
25207SOL     OW81712   2.251   7.128   1.535 -0.1474 -0.6090  0.2612
25207SOL    HW181713   2.253   7.075   1.615  0.9246  0.2433  0.8117
25207SOL    HW281714   2.262   7.218   1.564  0.7185 -0.3149 -0.8635
25208SOL     OW81715   9.538   1.819   1.368 -0.1432  0.3105  0.1192
25208SOL    HW181716   9.514   1.903   1.328  0.4609 -0.0410 -1.0205
25208SOL    HW281717   9.590   1.843   1.444 -1.1601  0.9906  0.6284
25209SOL     OW81718   6.123   5.423   5.132 -0.4132 -0.5753  0.5657
25209SOL    HW181719   6.066   5.372   5.190 -1.2484  0.3464  0.5790
25209SOL    HW281720   6.097   5.514   5.148 -0.2865 -0.2750 -0.8756
25210SOL     OW81721   4.839   4.084   2.739 -0.8342  0.5241 -0.0901
25210SOL    HW181722   4.932   4.099   2.722 -0.5119  0.7899  1.6757
25210SOL    HW281723   4.794   4.145   2.681  0.0791  0.3135 -1.0517
25211SOL     OW81724   6.091  10.097   9.513 -0.2266 -0.0674  0.5242
25211SOL    HW181725   6.180  10.126   9.532  0.5951 -2.4572  0.7265
25211SOL    HW281726   6.101  10.032   9.444 -2.0137  0.6695 -0.4936
25212SOL     OW81727   8.119  10.070   5.388 -0.4166 -0.2038  0.0078
25212SOL    HW181728   8.118   9.975   5.403  2.0919 -0.3330 -0.0887
25212SOL    HW281729   8.208  10.096   5.413 -0.8146  2.0006 -0.7139
25213SOL     OW81730   3.530   6.932   9.644 -0.6297  0.3725 -0.7832
25213SOL    HW181731   3.479   6.900   9.570  0.5149 -3.0425 -0.2865
25213SOL    HW281732   3.620   6.908   9.624 -0.0110  1.1562  0.8431
25214SOL     OW81733  10.044   1.925   5.313 -0.3039  0.0753 -0.0774
25214SOL    HW181734  10.057   1.842   5.267 -1.0595 -0.2099  0.2100
25214SOL    HW281735  10.094   1.989   5.262 -0.0494 -0.4777 -0.5337
25215SOL     OW81736   4.137  10.845  10.638 -0.0527  0.0405 -0.3875
25215SOL    HW181737   4.074  10.914  10.657 -0.0441  0.5320 -1.9919
25215SOL    HW281738   4.209  10.889  10.594 -0.1839 -1.0019 -1.7301
25216SOL     OW81739   4.904   9.791   2.806 -0.3058  0.4851 -0.1561
25216SOL    HW181740   4.920   9.718   2.866 -0.5566 -0.7360 -1.5103
25216SOL    HW281741   4.832   9.839   2.846  0.0947  0.2161  0.9439
25217SOL     OW81742   6.756   7.994   4.929  0.0618  0.8373  0.3986
25217SOL    HW181743   6.688   8.060   4.935 -1.3566 -0.3528 -1.3404
25217SOL    HW281744   6.752   7.947   5.012 -1.3658  0.7073  0.2816
25218SOL     OW81745   2.831   9.688   7.822  0.1274 -0.0671  0.1323
25218SOL    HW181746   2.897   9.630   7.784  0.0422  0.3693 -0.6845
25218SOL    HW281747   2.827   9.661   7.914 -0.1139 -1.5442 -0.2828
25219SOL     OW81748   3.360   9.964  10.319 -0.2500 -0.3964  0.4515
25219SOL    HW181749   3.362  10.022  10.243 -0.9526 -1.3955 -0.3548
25219SOL    HW281750   3.412  10.009  10.385  3.2579 -0.9456 -1.6721
25220SOL     OW81751   6.418   5.518   9.349 -0.0056 -0.0117  0.9484
25220SOL    HW181752   6.341   5.471   9.318 -0.3211  2.2191 -2.1269
25220SOL    HW281753   6.492   5.473   9.308  0.0630 -0.2419  1.3195
25221SOL     OW81754   6.620  10.019   2.562 -0.2416  0.4218  0.8999
25221SOL    HW181755   6.529  10.035   2.539 -0.5335 -0.4705  1.3964
25221SOL    HW281756   6.657   9.976   2.485 -0.5212 -0.1748  1.0969
25222SOL     OW81757   9.839   8.889   7.439 -0.1193 -0.1265 -0.2890
25222SOL    HW181758   9.892   8.968   7.427  0.2706  0.0465  2.0372
25222SOL    HW281759   9.771   8.895   7.372 -0.1589  2.2438 -0.1186
25223SOL     OW81760   8.094   3.582   0.248  0.1594 -0.4648  0.3248
25223SOL    HW181761   8.189   3.579   0.246  0.1633 -0.2739  0.2158
25223SOL    HW281762   8.067   3.556   0.160  0.1055 -0.6925  0.4078
25224SOL     OW81763  10.416   1.187   5.934 -0.2497  0.6514 -0.0511
25224SOL    HW181764  10.366   1.164   6.013 -1.3642 -1.4678 -1.2856
25224SOL    HW281765  10.399   1.115   5.873  0.0246  2.5230 -2.4956
25225SOL     OW81766   2.652   6.703  10.830  0.2688  0.1055 -0.2183
25225SOL    HW181767   2.732   6.755  10.838 -0.5857  1.4484 -0.0280
25225SOL    HW281768   2.634   6.700  10.736  0.4074  0.0129 -0.2421
25226SOL     OW81769   8.477   8.640   4.365 -0.4844  0.1014  0.4029
25226SOL    HW181770   8.428   8.713   4.326  1.0221  1.8708  1.6930
25226SOL    HW281771   8.548   8.624   4.303 -0.6267 -0.0446  0.2781
25227SOL     OW81772   3.543   1.909   2.190 -0.4930  0.7043 -0.6335
25227SOL    HW181773   3.520   1.927   2.281  1.0757 -0.9204  0.1741
25227SOL    HW281774   3.485   1.837   2.165  0.8529 -0.6923  0.0616
25228SOL     OW81775   2.990   9.326   0.474 -0.0139 -0.1789  0.1254
25228SOL    HW181776   3.040   9.270   0.414  2.9811  1.4601  0.9328
25228SOL    HW281777   2.956   9.396   0.418  1.6401  0.6161  0.0679
25229SOL     OW81778   6.188   0.853   7.890  0.2582  0.9282 -0.0527
25229SOL    HW181779   6.153   0.767   7.868 -0.1575  0.5994  1.7447
25229SOL    HW281780   6.128   0.888   7.957  0.4839  2.5722 -0.6534
25230SOL     OW81781   6.703   5.100   6.903 -0.1762  0.3584  0.6573
25230SOL    HW181782   6.655   5.110   6.820 -0.2388  1.2385  0.7933
25230SOL    HW281783   6.756   5.021   6.890 -2.2029 -1.1064  0.7758
25231SOL     OW81784   4.903   6.886   0.513 -0.1741 -0.1113  0.3864
25231SOL    HW181785   4.941   6.946   0.449 -1.8767  0.1348 -0.4477
25231SOL    HW281786   4.978   6.836   0.546  0.7510 -0.4204 -1.9757
25232SOL     OW81787  10.837   2.207   9.958  0.0524  0.0685  0.4955
25232SOL    HW181788  10.882   2.143  10.013  0.5714 -0.0324 -0.0411
25232SOL    HW281789  10.900   2.277   9.946 -1.1719  1.7036  2.7414
25233SOL     OW81790   7.785   6.797   9.902 -0.1591  0.1078 -0.2505
25233SOL    HW181791   7.858   6.782   9.840 -0.3934  0.3112 -0.5771
25233SOL    HW281792   7.722   6.729   9.880  0.7170 -1.2671  1.2699
25234SOL     OW81793   1.990   3.889   0.581  0.1502  0.0073 -0.2887
25234SOL    HW181794   1.948   3.803   0.591 -0.4514 -0.0431 -2.6554
25234SOL    HW281795   1.948   3.927   0.504  3.2567  0.6559 -1.8069
25235SOL     OW81796   4.491  10.554   5.406  0.0953 -0.3686 -0.4406
25235SOL    HW181797   4.503  10.539   5.500 -2.4702 -0.2988 -0.0205
25235SOL    HW281798   4.559  10.617   5.382  2.0201 -1.8121  0.9096
25236SOL     OW81799   5.848   3.111   3.694  0.5821 -0.1986  0.0768
25236SOL    HW181800   5.785   3.053   3.652  0.8459 -0.8889  0.6266
25236SOL    HW281801   5.820   3.115   3.785 -0.2040  1.5819 -0.2012
25237SOL     OW81802   4.226   5.382  10.571 -0.0213  0.6218 -0.2890
25237SOL    HW181803   4.159   5.421  10.628 -0.1098 -0.2726  0.2322
25237SOL    HW281804   4.248   5.452  10.509 -0.8563  1.1891  0.0363
25238SOL     OW81805   1.326   1.842   0.637 -0.1073  0.0054  0.5933
25238SOL    HW181806   1.335   1.827   0.543  0.3139 -0.2174  0.6685
25238SOL    HW281807   1.252   1.788   0.663  0.7547 -1.1635  0.6722
25239SOL     OW81808   4.141   9.030   9.874 -0.0128 -0.0870 -0.2164
25239SOL    HW181809   4.046   9.016   9.872 -0.1797  0.9927 -0.3333
25239SOL    HW281810   4.153   9.103   9.935  0.7350 -0.0912 -0.3504
25240SOL     OW81811   9.504   1.981   3.071 -0.2261 -0.2797 -0.4336
25240SOL    HW181812   9.591   1.962   3.036  0.1201 -1.9196  1.1361
25240SOL    HW281813   9.445   1.923   3.024 -0.0272 -1.1539  0.3499
25241SOL     OW81814   1.896   0.924   0.778 -0.1508 -0.5410 -0.0883
25241SOL    HW181815   1.837   0.996   0.754 -0.4762 -1.1130 -1.0645
25241SOL    HW281816   1.983   0.955   0.752 -0.1062  0.0008  0.6650
25242SOL     OW81817   3.797   3.526   8.828  0.5906  0.1384  0.1204
25242SOL    HW181818   3.849   3.540   8.907  0.5373 -0.2290  0.2259
25242SOL    HW281819   3.810   3.605   8.776 -0.0259  0.7437  0.8616
25243SOL     OW81820   7.732   3.252   6.255  0.0251 -0.5197 -0.1578
25243SOL    HW181821   7.705   3.241   6.346 -0.6538 -0.8983 -0.3964
25243SOL    HW281822   7.688   3.332   6.227  0.3004 -0.3579 -0.1324
25244SOL     OW81823   5.041   2.727   3.887 -0.4583 -0.4147 -0.0224
25244SOL    HW181824   5.086   2.710   3.804  0.2655  0.2638  0.2180
25244SOL    HW281825   5.015   2.641   3.918 -0.5695 -0.6917 -0.8631
25245SOL     OW81826   0.235   9.286   7.632  0.6638 -0.0854  0.1176
25245SOL    HW181827   0.226   9.358   7.569  0.1120  0.2798  0.6100
25245SOL    HW281828   0.325   9.254   7.619 -0.0543 -1.4068 -2.3371
25246SOL     OW81829   7.168   3.692   3.521 -0.3412 -0.5450  0.2177
25246SOL    HW181830   7.210   3.699   3.434 -0.6679  0.2894  0.1202
25246SOL    HW281831   7.234   3.727   3.581 -0.1376 -1.0697  0.3053
25247SOL     OW81832   0.995   1.330   3.924 -0.2537 -0.1356 -0.0966
25247SOL    HW181833   0.964   1.242   3.944 -1.7155  0.4912  0.5274
25247SOL    HW281834   0.921   1.387   3.946  1.1280  1.3864  0.8206
25248SOL     OW81835   9.492   7.480   5.673 -0.2349  0.6340  0.5930
25248SOL    HW181836   9.463   7.567   5.698 -0.3130  0.4344  1.2259
25248SOL    HW281837   9.524   7.441   5.755  0.1104  0.1929  0.2546
25249SOL     OW81838   6.002   0.003   5.463 -0.1554 -0.4034 -0.1613
25249SOL    HW181839   6.054  -0.001   5.542  0.0898 -0.7312 -0.3396
25249SOL    HW281840   6.059   0.044   5.398 -0.3154 -0.2403 -0.1999
25250SOL     OW81841   3.203   5.644   7.193  0.3438 -0.3913  0.1107
25250SOL    HW181842   3.180   5.602   7.276  0.4717 -0.6486  0.0181
25250SOL    HW281843   3.276   5.702   7.215  0.8553 -0.9973  0.0462
25251SOL     OW81844   9.252   8.804   6.714  0.1226  0.0513  0.0872
25251SOL    HW181845   9.310   8.791   6.789 -1.7925  2.9186  2.3193
25251SOL    HW281846   9.289   8.878   6.667 -1.1857  1.4011  1.0847
25252SOL     OW81847   7.120  10.232   1.576  0.3861  0.3569 -0.6413
25252SOL    HW181848   7.099  10.155   1.523  0.7547 -0.1715 -0.0493
25252SOL    HW281849   7.200  10.267   1.537  0.7680 -0.1473 -0.3322
25253SOL     OW81850   0.947   9.752   7.441  0.2165  0.2408  0.7259
25253SOL    HW181851   0.907   9.709   7.366  1.0807 -1.9271  1.4430
25253SOL    HW281852   0.939   9.689   7.512  1.7645  1.1545  1.7789
25254SOL     OW81853   2.799   3.819   8.250  0.1036 -0.7421 -0.3322
25254SOL    HW181854   2.790   3.755   8.179 -2.8478 -2.3452  1.2998
25254SOL    HW281855   2.843   3.771   8.320 -1.3340 -0.7642  0.5915
25255SOL     OW81856   6.852   2.462   7.019  0.3897 -0.4778  0.1377
25255SOL    HW181857   6.804   2.536   7.055 -1.6723 -1.7208  0.0894
25255SOL    HW281858   6.859   2.480   6.925  1.1435  0.2724  0.3219
25256SOL     OW81859   4.690   3.604   0.386  0.0630 -0.3833 -0.0467
25256SOL    HW181860   4.668   3.565   0.471 -0.7818  1.5594  0.7028
25256SOL    HW281861   4.783   3.587   0.375 -0.3512 -3.0956 -0.1156
25257SOL     OW81862   5.173   9.667   7.485  0.4534 -0.1816  1.2614
25257SOL    HW181863   5.261   9.701   7.503  0.1795  1.9788 -0.9490
25257SOL    HW281864   5.115   9.736   7.517 -0.2724 -0.0570 -0.2591
25258SOL     OW81865   0.480   5.415   2.595 -0.3487 -0.1029 -0.3064
25258SOL    HW181866   0.425   5.484   2.634 -0.3828 -0.7389  0.8296
25258SOL    HW281867   0.426   5.377   2.526 -0.0230  1.5258 -1.5018
25259SOL     OW81868  10.035   1.793   1.123 -0.5466  0.0767 -0.0269
25259SOL    HW181869   9.979   1.810   1.047  0.2859  1.3319 -0.3973
25259SOL    HW281870   9.974   1.787   1.197 -1.1723  2.0906 -0.3200
25260SOL     OW81871   9.107  10.850  10.604 -0.6189 -0.4341  0.5884
25260SOL    HW181872   9.190  10.819  10.566  0.0438 -0.1590  1.7807
25260SOL    HW281873   9.057  10.771  10.620 -0.7053 -0.5890 -0.3772
25261SOL     OW81874   8.496   1.172   2.371  0.1536 -0.4666 -0.3285
25261SOL    HW181875   8.417   1.223   2.351  1.4856  1.8612  0.0888
25261SOL    HW281876   8.568   1.234   2.363  1.8395 -2.1889  0.6786
25262SOL     OW81877  10.346  10.220   7.800 -0.4804 -0.3716  0.6273
25262SOL    HW181878  10.266  10.181   7.765 -1.4787  0.9186  1.4273
25262SOL    HW281879  10.408  10.214   7.727 -1.3293 -1.2232 -0.0668
25263SOL     OW81880   1.753   7.321   6.710  0.2160  0.5394  0.1912
25263SOL    HW181881   1.847   7.339   6.717  0.8161 -1.9577 -0.3443
25263SOL    HW281882   1.746   7.260   6.636 -1.9046  1.0335 -0.0706
25264SOL     OW81883   6.244   1.676   3.567 -0.5954  0.0668 -0.3887
25264SOL    HW181884   6.159   1.721   3.565 -2.2469 -2.5770  1.8847
25264SOL    HW281885   6.221   1.583   3.569  2.4661 -0.7983 -1.0840
25265SOL     OW81886   8.396   7.594  10.612 -0.2999 -0.3929  0.3396
25265SOL    HW181887   8.413   7.611  10.519 -0.9414 -0.0307  0.2832
25265SOL    HW281888   8.482   7.588  10.652  0.0091 -1.3893 -0.4330
25266SOL     OW81889   3.126   4.099   3.240  0.6399 -0.1889 -0.1783
25266SOL    HW181890   3.032   4.099   3.261  0.1110 -2.0363 -2.1426
25266SOL    HW281891   3.161   4.026   3.291  1.1414  0.7544  0.8717
25267SOL     OW81892   5.128   2.752   4.576  0.1950  0.2482 -0.2612
25267SOL    HW181893   5.181   2.829   4.555  0.7267 -0.8117 -3.5006
25267SOL    HW281894   5.043   2.771   4.537  0.1968 -0.5748 -0.6889
25268SOL     OW81895   3.912   4.459   8.891 -0.3983  0.8719 -0.2254
25268SOL    HW181896   3.820   4.440   8.874 -0.1651  0.2392 -0.8815
25268SOL    HW281897   3.947   4.378   8.928 -0.2311  1.2947  0.5516
25269SOL     OW81898   5.573  10.714  10.383  0.2238  0.3491  0.4828
25269SOL    HW181899   5.597  10.795  10.428  1.8523  0.3800 -0.3665
25269SOL    HW281900   5.622  10.645  10.428  1.1982  0.2658 -0.6407
25270SOL     OW81901   7.440   7.360   5.849  0.0897 -0.5246  0.2847
25270SOL    HW181902   7.503   7.316   5.906 -0.0401 -0.3232  0.5833
25270SOL    HW281903   7.368   7.385   5.907  0.4610  0.6724  0.2542
25271SOL     OW81904   2.402   1.979   0.056  0.4015 -0.0835  0.3146
25271SOL    HW181905   2.451   2.061   0.059  0.8833 -0.3881  0.7488
25271SOL    HW281906   2.468   1.910   0.061 -0.0224 -0.5010  0.2947
25272SOL     OW81907   4.152   7.423   0.657 -0.2703 -0.9777 -0.0341
25272SOL    HW181908   4.191   7.487   0.597  1.7247 -1.9839  0.1392
25272SOL    HW281909   4.064   7.407   0.621 -0.0141  0.2473 -1.2792
25273SOL     OW81910   4.629   3.675   4.860  0.0410 -0.5395 -0.7344
25273SOL    HW181911   4.704   3.697   4.803 -0.2548  0.5467 -0.7284
25273SOL    HW281912   4.597   3.592   4.826  0.1626 -0.1408 -1.8746
25274SOL     OW81913   3.124   2.227   5.054  0.2537 -0.1641 -0.1596
25274SOL    HW181914   3.042   2.264   5.022  0.0629 -1.6545 -1.4866
25274SOL    HW281915   3.191   2.262   4.995  0.6876  1.2982  1.1024
25275SOL     OW81916   8.633  10.588   0.582 -0.1949 -0.6228  0.2528
25275SOL    HW181917   8.576  10.550   0.515 -0.9174  0.4382  0.2424
25275SOL    HW281918   8.592  10.562   0.665 -0.8507  0.3470  0.2429
25276SOL     OW81919   0.714  10.704   4.734 -0.0064 -0.7127  0.1221
25276SOL    HW181920   0.636  10.731   4.783  0.0265 -0.9637  0.3148
25276SOL    HW281921   0.785  10.757   4.770 -0.1634 -0.1604 -0.3609
25277SOL     OW81922   9.477   4.159   7.455 -0.6697 -0.0081 -0.7426
25277SOL    HW181923   9.564   4.122   7.440 -0.3747  0.2899  0.1525
25277SOL    HW281924   9.489   4.253   7.440 -0.3157  0.3281  1.4184
25278SOL     OW81925   1.003   2.307   2.316 -0.2016 -0.3359  0.1350
25278SOL    HW181926   0.933   2.245   2.333  0.3306 -0.6123  1.4367
25278SOL    HW281927   1.002   2.366   2.391 -2.0287  2.5943 -1.9861
25279SOL     OW81928   3.941   2.519   4.790 -0.1475  0.7784 -0.3838
25279SOL    HW181929   3.973   2.432   4.813 -0.4833  1.1492  1.6431
25279SOL    HW281930   3.881   2.504   4.717 -2.3652 -1.1340  1.6546
25280SOL     OW81931   4.315  10.108   5.779 -0.7733  0.3278  0.5740
25280SOL    HW181932   4.395  10.100   5.830 -0.9786 -0.3669  0.7926
25280SOL    HW281933   4.345  10.123   5.690 -0.3818  3.7369  1.1432
25281SOL     OW81934   7.716   4.406  10.406  0.5915  0.4704 -0.3985
25281SOL    HW181935   7.739   4.438  10.319  2.9315  0.0405 -0.0071
25281SOL    HW281936   7.722   4.484  10.462  3.0322  0.0965 -0.0128
25282SOL     OW81937   9.613  10.323   5.655 -0.4823 -0.4459  0.3001
25282SOL    HW181938   9.681  10.337   5.722  0.4305 -1.3110 -0.4059
25282SOL    HW281939   9.576  10.237   5.677 -1.4247  0.0514  0.7217
25283SOL     OW81940   7.104   5.202   8.553 -0.0616  0.2050  0.2611
25283SOL    HW181941   7.107   5.255   8.473 -1.1504  0.5299  0.4238
25283SOL    HW281942   7.166   5.246   8.612 -0.3183  0.8037  0.0952
25284SOL     OW81943   2.001   2.982   8.010  0.1679  0.1027 -0.9674
25284SOL    HW181944   2.093   2.956   8.007 -0.1811 -1.2330 -1.1056
25284SOL    HW281945   1.991   3.027   8.093  0.6450 -1.0623 -0.2575
25285SOL     OW81946   4.216   5.002   6.075  1.0703  0.0861 -0.1434
25285SOL    HW181947   4.275   5.078   6.084  0.5818  0.3582  0.8721
25285SOL    HW281948   4.237   4.967   5.988  0.4235  2.1469 -1.2211
25286SOL     OW81949   2.235   6.405   3.445  0.4731 -0.3001 -0.5491
25286SOL    HW181950   2.184   6.449   3.513  1.6270 -0.1608  0.2478
25286SOL    HW281951   2.325   6.429   3.464  0.9098 -1.1568 -1.4859
25287SOL     OW81952   0.111   8.075   6.258 -0.5131  0.4032  0.0489
25287SOL    HW181953   0.085   8.147   6.315 -0.5189  1.3799 -1.1585
25287SOL    HW281954   0.034   8.058   6.204  0.4161  1.5509 -1.7426
25288SOL     OW81955   7.853   9.973   9.042  0.3006  0.3833  0.8113
25288SOL    HW181956   7.763   9.992   9.066 -0.3790  1.7814 -2.2652
25288SOL    HW281957   7.895  10.059   9.036  0.9606 -0.0030 -0.6637
25289SOL     OW81958   0.555   7.040  10.180 -0.1104  0.5839  0.0124
25289SOL    HW181959   0.551   7.133  10.158 -0.5637  0.7351  0.6779
25289SOL    HW281960   0.491   7.030  10.251  0.0049 -0.2154  0.0106
25290SOL     OW81961   0.949   7.816   9.577  0.6949  1.1882 -0.0346
25290SOL    HW181962   0.879   7.863   9.532  1.6126  2.1624 -0.4831
25290SOL    HW281963   0.912   7.729   9.596 -0.0278  1.0696 -1.8351
25291SOL     OW81964   3.585   9.608   6.093 -0.3412  0.1968 -0.0208
25291SOL    HW181965   3.590   9.700   6.120  1.7323 -0.0478  0.5847
25291SOL    HW281966   3.548   9.611   6.005  0.9076  1.7598 -0.5496
25292SOL     OW81967   1.882   7.767   1.136 -0.0956  0.5184  0.2478
25292SOL    HW181968   1.902   7.684   1.095 -1.9380 -0.5564  1.3568
25292SOL    HW281969   1.819   7.809   1.076 -2.3571 -0.8058  1.5331
25293SOL     OW81970   1.851   8.282  10.634 -0.2945  0.1725  0.3218
25293SOL    HW181971   1.898   8.221  10.577  0.5088  1.3874 -0.3601
25293SOL    HW281972   1.765   8.291  10.594 -0.3402 -0.3341  0.2998
25294SOL     OW81973  10.409   8.759   8.076  0.6078  0.3514  0.2083
25294SOL    HW181974  10.421   8.854   8.080  0.0397  0.3982  3.6135
25294SOL    HW281975  10.384   8.734   8.165 -1.4710 -2.7299 -1.0557
25295SOL     OW81976   9.480   1.903   5.948 -0.5244  0.1468  0.3621
25295SOL    HW181977   9.521   1.987   5.971  1.4107 -0.4977 -0.5731
25295SOL    HW281978   9.452   1.914   5.857 -0.1082 -0.2727  0.1826
25296SOL     OW81979   2.239   9.231   6.068 -0.2989 -0.2912 -0.0400
25296SOL    HW181980   2.181   9.271   6.133  0.4742 -1.0021  1.1382
25296SOL    HW281981   2.323   9.222   6.114 -0.1314 -2.1805 -0.6297
25297SOL     OW81982   9.133   0.631   2.080  0.2599  0.1993 -0.2824
25297SOL    HW181983   9.131   0.540   2.108 -0.3397 -0.3654 -2.0070
25297SOL    HW281984   9.061   0.672   2.128 -2.0488 -1.2005 -2.2864
25298SOL     OW81985   4.366   0.665   5.134 -0.0470 -0.1565  0.5133
25298SOL    HW181986   4.287   0.720   5.140 -0.9435 -1.4182  0.5592
25298SOL    HW281987   4.395   0.655   5.225 -0.2236 -0.2523  0.5590
25299SOL     OW81988   1.765   7.598   2.816 -0.5597 -0.5973  0.3134
25299SOL    HW181989   1.683   7.552   2.836 -0.5651  0.1016  2.0777
25299SOL    HW281990   1.831   7.553   2.870  0.0914 -0.6806 -0.5355
25300SOL     OW81991   5.280   4.997   3.018  0.4041 -0.1631 -0.2535
25300SOL    HW181992   5.355   5.057   3.024 -1.9196  2.8475  0.9163
25300SOL    HW281993   5.283   4.948   3.100  0.3421  1.0002  0.4784
25301SOL     OW81994   9.734   5.960   4.835 -0.3956  0.2346 -0.2798
25301SOL    HW181995   9.677   5.886   4.857  0.2242 -0.4015 -0.7459
25301SOL    HW281996   9.680   6.016   4.779 -1.7824  1.5618  2.2325
25302SOL     OW81997   1.249   8.530   1.260  0.0712 -0.7231  0.3062
25302SOL    HW181998   1.218   8.479   1.335 -1.4331  0.1903  0.3598
25302SOL    HW281999   1.233   8.621   1.286  0.4656 -0.3458 -0.7349
25303SOL     OW82000   0.222   1.569   5.758  0.7243 -0.5196 -0.0135
25303SOL    HW182001   0.244   1.501   5.823  0.3940 -1.1486 -0.5462
25303SOL    HW282002   0.134   1.546   5.730  0.6468  0.0905 -0.2657
25304SOL     OW82003   2.886   1.253   2.321  0.1661 -0.0569  0.0212
25304SOL    HW182004   2.874   1.269   2.415  2.0786  0.5835  0.2071
25304SOL    HW282005   2.838   1.172   2.304  1.0602 -1.0632  1.9068
25305SOL     OW82006   0.389   5.337   9.001 -0.1137 -0.2872 -0.0472
25305SOL    HW182007   0.411   5.247   9.024 -0.5465 -0.7064 -1.1962
25305SOL    HW282008   0.458   5.364   8.940 -1.3521 -0.7760 -1.7637
25306SOL     OW82009   1.010   8.479   8.807 -0.1674  0.3017 -0.4389
25306SOL    HW182010   0.960   8.560   8.805 -0.9388 -0.1092  1.2112
25306SOL    HW282011   0.963   8.421   8.747 -1.1651  0.2102  0.4191
25307SOL     OW82012   9.462   6.221   8.771  0.4770  0.1292  0.0117
25307SOL    HW182013   9.548   6.223   8.811 -0.4398  0.9314  2.1034
25307SOL    HW282014   9.416   6.151   8.817 -0.6578  1.1757  0.5425
25308SOL     OW82015   0.322  10.057   8.951  0.2744 -0.1713  0.4365
25308SOL    HW182016   0.380  10.004   9.004  1.1098 -0.8351 -1.0760
25308SOL    HW282017   0.262   9.995   8.910  1.2087 -0.0076 -1.2882
25309SOL     OW82018   5.759   9.372   4.435  0.2564  0.1894  0.3942
25309SOL    HW182019   5.706   9.406   4.363 -0.2107  0.6015  0.9295
25309SOL    HW282020   5.800   9.294   4.399 -1.0370 -0.3795  0.1012
25310SOL     OW82021   8.913   9.119   2.428  0.2457 -0.0865 -0.2734
25310SOL    HW182022   8.965   9.057   2.377  2.1020 -1.0235  2.5046
25310SOL    HW282023   8.823   9.090   2.416  0.7122 -0.9318 -2.0538
25311SOL     OW82024   2.366   0.560  10.684 -0.1565 -0.4126  0.6255
25311SOL    HW182025   2.433   0.516  10.631 -0.7381  0.2779 -0.7139
25311SOL    HW282026   2.415   0.597  10.758  1.2222  1.2351 -1.0095
25312SOL     OW82027   0.164  10.766   2.740  0.4332  0.1310  0.0600
25312SOL    HW182028   0.147  10.697   2.804  0.9442 -0.8350 -0.8134
25312SOL    HW282029   0.081  10.774   2.692  0.7133 -0.6963 -0.5836
25313SOL     OW82030   5.190   6.135   7.443  0.0798 -0.0635 -0.2149
25313SOL    HW182031   5.277   6.107   7.472  1.0530  1.7080 -1.2647
25313SOL    HW282032   5.158   6.192   7.513 -0.9771 -1.9383  0.9121
25314SOL     OW82033   9.458   2.513   9.388 -0.7949 -0.4750 -0.3151
25314SOL    HW182034   9.473   2.420   9.401  1.0348 -0.2461 -0.5595
25314SOL    HW282035   9.523   2.556   9.444  0.4199  0.6171 -2.4531
25315SOL     OW82036   7.133   6.786  10.639 -0.9377  0.6294 -0.1406
25315SOL    HW182037   7.097   6.818  10.556 -1.1580 -4.5692 -2.4851
25315SOL    HW282038   7.059   6.789  10.700 -1.8606  1.2750 -1.2568
25316SOL     OW82039   4.167   9.302   8.353 -0.4570  0.1578  0.1186
25316SOL    HW182040   4.118   9.229   8.316  0.1493  0.2895 -0.9801
25316SOL    HW282041   4.192   9.356   8.278 -0.8879  1.5087  0.9092
25317SOL     OW82042   3.188   3.205   6.506 -0.3543 -0.2650 -0.0613
25317SOL    HW182043   3.175   3.299   6.507  2.6842  0.3228 -1.7856
25317SOL    HW282044   3.153   3.176   6.421 -1.9924 -0.8862  0.7854
25318SOL     OW82045   5.279   6.937   6.806  0.1185  0.0601  0.4563
25318SOL    HW182046   5.214   6.885   6.758  1.0962  0.2983 -1.1815
25318SOL    HW282047   5.362   6.920   6.761  0.9946  0.7094  1.7618
25319SOL     OW82048   0.070   5.814   9.415 -0.2812  0.1575 -0.6182
25319SOL    HW182049   0.158   5.811   9.378 -0.1906 -0.2344 -0.3674
25319SOL    HW282050   0.066   5.740   9.475  0.0718  1.5890  1.2579
25320SOL     OW82051   8.924   7.034   9.178 -0.2078 -0.5600 -0.2502
25320SOL    HW182052   8.884   7.116   9.207 -1.3560 -0.4635 -1.9993
25320SOL    HW282053   9.016   7.057   9.163 -0.6790  0.6172 -1.4590
25321SOL     OW82054   3.484   3.114   3.626  0.1723 -0.1738 -0.3194
25321SOL    HW182055   3.410   3.147   3.575 -2.3272 -2.3134  1.6308
25321SOL    HW282056   3.500   3.026   3.591  2.3500  0.5017 -1.1701
25322SOL     OW82057   9.833   8.529   4.349 -0.1659 -0.2098  0.0274
25322SOL    HW182058   9.858   8.569   4.432  0.1859 -1.7921  0.7136
25322SOL    HW282059   9.799   8.602   4.297  1.4708  1.1751  0.7956
25323SOL     OW82060   4.614   9.970   8.770 -0.4363  0.4808 -0.0980
25323SOL    HW182061   4.571  10.054   8.756  0.8800  1.4289  1.2016
25323SOL    HW282062   4.650   9.976   8.859 -3.1100 -2.7329  1.4163
25324SOL     OW82063   6.106   8.771   6.016 -0.1375 -0.1950 -0.0359
25324SOL    HW182064   6.024   8.815   5.993  0.3466 -0.3496 -2.3415
25324SOL    HW282065   6.174   8.834   5.994  0.4399 -0.9022 -0.3375
25325SOL     OW82066  10.343   6.526   5.652 -0.4773  0.1861 -0.3958
25325SOL    HW182067  10.379   6.552   5.567 -0.9545  0.2887 -0.5702
25325SOL    HW282068  10.347   6.430   5.651  1.6456  0.2211  0.4068
25326SOL     OW82069   4.556   6.882  10.231 -0.5207  0.2798 -0.3742
25326SOL    HW182070   4.471   6.925  10.227 -0.8368 -0.4159 -1.5237
25326SOL    HW282071   4.573   6.854  10.141  0.4686 -0.4533  0.0281
25327SOL     OW82072   3.914   2.379   5.565  0.1671 -0.4732 -0.2644
25327SOL    HW182073   3.861   2.368   5.486  0.7697 -1.1928 -0.5767
25327SOL    HW282074   3.888   2.465   5.599 -1.0185 -0.7085 -0.5338
25328SOL     OW82075   2.481   3.566   3.941  0.0401  0.1302 -0.2873
25328SOL    HW182076   2.468   3.658   3.919  1.4673 -0.0834 -2.4602
25328SOL    HW282077   2.565   3.544   3.900  0.4382 -1.7957  1.3798
25329SOL     OW82078   1.440   9.107   1.421  0.1748 -0.3847 -0.3397
25329SOL    HW182079   1.505   9.045   1.387  0.0919 -0.2631 -0.7235
25329SOL    HW282080   1.408   9.066   1.502  0.0300 -0.9063 -0.6549
25330SOL     OW82081   0.841   7.885   6.164  0.0614  0.3984  0.4924
25330SOL    HW182082   0.834   7.949   6.093  1.6120  1.1010  0.9307
25330SOL    HW282083   0.927   7.845   6.151 -0.4865 -0.9178  0.8004
25331SOL     OW82084   7.857   5.761   1.075 -0.2983  0.3416 -0.1813
25331SOL    HW182085   7.839   5.703   1.149 -0.5046 -0.4641 -0.8365
25331SOL    HW282086   7.911   5.831   1.111  1.0094 -0.9220  0.3947
25332SOL     OW82087   5.378   8.502   7.302  0.2636 -0.3630  0.3925
25332SOL    HW182088   5.300   8.558   7.303  0.2045 -0.4489  0.6919
25332SOL    HW282089   5.344   8.414   7.290  0.2825 -0.4452  0.8918
25333SOL     OW82090   0.546   3.375   1.268 -0.2850  0.6953 -0.3198
25333SOL    HW182091   0.487   3.434   1.315  1.0134  1.8906 -0.1515
25333SOL    HW282092   0.585   3.320   1.336 -0.1104  0.8828 -0.2703
25334SOL     OW82093   2.054   0.064   3.444 -0.7080  0.1666  0.3610
25334SOL    HW182094   2.125   0.089   3.384 -0.5426 -0.8985  0.1018
25334SOL    HW282095   1.988   0.133   3.432 -0.3589  0.3639 -0.4952
25335SOL     OW82096   2.025   2.625   4.631  0.1738  0.0228 -0.2729
25335SOL    HW182097   1.984   2.686   4.692  0.4983 -0.4577  0.4423
25335SOL    HW282098   2.036   2.675   4.550 -0.6140  0.5512 -0.0624
25336SOL     OW82099   4.069   8.936   9.190 -0.2740  0.5532  0.1312
25336SOL    HW182100   4.131   8.892   9.131 -1.4876  0.1676 -0.8951
25336SOL    HW282101   4.120   9.006   9.230  0.8576  0.1782 -0.6037
25337SOL     OW82102   0.173   9.695   7.682  0.2677  0.4653 -0.0860
25337SOL    HW182103   0.172   9.747   7.762  0.4990 -0.2168  0.3599
25337SOL    HW282104   0.189   9.760   7.613  0.8974  0.9533  0.4970
25338SOL     OW82105   5.923   5.353   1.212  0.2507 -0.4350 -0.2338
25338SOL    HW182106   5.962   5.418   1.271  3.5640 -2.0986 -0.3662
25338SOL    HW282107   5.941   5.269   1.253 -1.2378 -1.4622 -1.5469
25339SOL     OW82108   9.842   4.070  10.730  0.5279 -0.5632  0.0057
25339SOL    HW182109   9.793   4.151  10.716  1.1602 -0.2932 -0.7321
25339SOL    HW282110   9.919   4.097  10.780  0.6717 -0.7345 -0.1231
25340SOL     OW82111   4.895   8.200   2.663 -0.4454  0.4120 -0.6345
25340SOL    HW182112   4.933   8.288   2.663 -0.9522  0.6331 -0.2791
25340SOL    HW282113   4.913   8.166   2.575  0.8811  0.3721 -0.3602
25341SOL     OW82114  10.825   0.034   4.088 -0.1899  0.8105  0.7827
25341SOL    HW182115  10.811   0.128   4.092 -2.9344  0.5997 -1.0596
25341SOL    HW282116  10.747  -0.003   4.130  0.6073 -0.6651  1.0413
25342SOL     OW82117   2.499   4.299   8.419 -0.1412 -0.2285 -0.1182
25342SOL    HW182118   2.408   4.270   8.414 -0.4736  0.9278 -1.2300
25342SOL    HW282119   2.531   4.292   8.329  0.3280  1.0540 -0.0695
25343SOL     OW82120   5.214   9.880   8.630 -0.2066  0.4911 -0.2753
25343SOL    HW182121   5.145   9.824   8.595 -1.4417  1.3631  0.6792
25343SOL    HW282122   5.226   9.949   8.565  0.6843 -0.3379 -1.0281
25344SOL     OW82123   7.602   9.619   7.100 -0.2064 -0.7295  0.4399
25344SOL    HW182124   7.525   9.589   7.149 -2.4321  2.9230 -0.4091
25344SOL    HW282125   7.616   9.708   7.130  1.1876  0.0715 -2.2850
25345SOL     OW82126   3.212   0.779   4.418  0.0275 -0.4222  1.0509
25345SOL    HW182127   3.170   0.805   4.500 -1.7000  3.3544 -0.7743
25345SOL    HW282128   3.290   0.835   4.412 -0.3466  0.0081 -0.2002
25346SOL     OW82129   8.289   4.184  10.510 -0.6281  0.0586 -0.2428
25346SOL    HW182130   8.287   4.253  10.444 -2.1815 -1.5580 -2.0135
25346SOL    HW282131   8.370   4.137  10.493  0.2328  1.1280  0.7071
25347SOL     OW82132   7.608   7.269   7.858 -0.0336  0.5607 -0.2812
25347SOL    HW182133   7.551   7.250   7.783 -1.9347  1.2615  0.9207
25347SOL    HW282134   7.673   7.331   7.823 -0.0606 -0.1479 -1.6511
25348SOL     OW82135   5.178   5.327   4.399  0.0148  0.2293 -0.4457
25348SOL    HW182136   5.247   5.309   4.334 -0.1617 -0.8855 -0.3546
25348SOL    HW282137   5.102   5.353   4.347  0.0657 -0.0227 -0.6487
25349SOL     OW82138   8.710   5.262   4.852  0.0762  0.3504  0.1415
25349SOL    HW182139   8.698   5.342   4.802 -0.4890 -0.5724 -1.2674
25349SOL    HW282140   8.789   5.221   4.815  0.6277  0.4511  1.1525
25350SOL     OW82141   5.719   2.304   0.813  0.2117 -0.2563 -0.3005
25350SOL    HW182142   5.748   2.374   0.755 -2.0043  0.9285 -0.1008
25350SOL    HW282143   5.623   2.308   0.809  0.0165 -2.1561  1.0755
25351SOL     OW82144   9.847   5.374   9.580 -0.2521  0.3825  0.3515
25351SOL    HW182145   9.884   5.413   9.501 -0.1480 -0.8349 -0.2187
25351SOL    HW282146   9.847   5.280   9.563 -1.0823  0.1642  1.4358
25352SOL     OW82147  10.816   7.142   0.688 -0.1412 -0.3031  0.3121
25352SOL    HW182148  10.763   7.169   0.762 -1.4485 -1.0477 -0.3090
25352SOL    HW282149  10.809   7.214   0.626 -0.2293 -0.2897  0.3370
25353SOL     OW82150   1.990   7.949   6.860 -0.0671 -0.3857  0.4848
25353SOL    HW182151   1.909   7.908   6.830  0.0415 -0.3938  0.1974
25353SOL    HW282152   1.964   8.004   6.933 -0.6611  1.0801 -0.7749
25354SOL     OW82153   7.807   2.328   1.734  0.2867  0.1640 -0.3526
25354SOL    HW182154   7.713   2.308   1.730  0.4341 -1.3786  1.7722
25354SOL    HW282155   7.822   2.352   1.826  2.1360 -0.7100 -0.3764
25355SOL     OW82156   1.490   8.806   8.147 -0.3833 -0.0112  0.1970
25355SOL    HW182157   1.462   8.716   8.131 -0.7091 -0.3597  2.4296
25355SOL    HW282158   1.408   8.856   8.149 -0.4627 -0.1632  1.6869
25356SOL     OW82159  10.113   4.981   9.216  0.3220  0.0754 -0.4007
25356SOL    HW182160  10.048   4.915   9.242  1.1965 -0.8008 -0.3432
25356SOL    HW282161  10.178   4.931   9.167  0.1318  1.2212 -1.8751
25357SOL     OW82162   6.034  10.887   8.486 -0.4099 -0.0043  0.7487
25357SOL    HW182163   5.975  10.890   8.561 -1.8948 -1.5337 -0.2857
25357SOL    HW282164   5.978  10.901   8.410  0.2615 -2.6575 -0.3696
25358SOL     OW82165   6.158   7.243   5.534 -0.0731 -0.1499 -0.1466
25358SOL    HW182166   6.230   7.280   5.585 -1.0051  1.2954  0.1850
25358SOL    HW282167   6.102   7.201   5.599 -0.3822  0.1987 -0.1843
25359SOL     OW82168   8.230   4.919  10.053 -0.1209  0.3707 -0.2747
25359SOL    HW182169   8.232   4.838  10.104  1.3526  1.2045  1.0532
25359SOL    HW282170   8.241   4.989  10.117  3.9282  1.3796 -1.7277
25360SOL     OW82171   7.374   0.551   1.625 -0.0171 -0.4302 -0.5223
25360SOL    HW182172   7.330   0.477   1.668 -1.5853  0.0560 -1.2090
25360SOL    HW282173   7.466   0.542   1.650 -0.4628 -1.5962  0.8381
25361SOL     OW82174   4.635   6.030   5.664 -0.2843 -0.0909  0.0576
25361SOL    HW182175   4.728   6.038   5.683 -0.1598  1.3854 -0.9873
25361SOL    HW282176   4.603   5.966   5.727  1.1438  0.4849  1.4221
25362SOL     OW82177   9.957   7.194   8.565 -0.0705  0.2004 -0.6244
25362SOL    HW182178   9.925   7.284   8.559 -0.1949  0.4673  2.3609
25362SOL    HW282179  10.051   7.201   8.548  0.1502  1.1504  0.8138
25363SOL     OW82180   1.872   7.237   9.825  0.2538  0.1570  0.6828
25363SOL    HW182181   1.791   7.277   9.855  0.1903 -0.2247  1.0347
25363SOL    HW282182   1.845   7.155   9.784  0.4228  0.2338  0.4160
25364SOL     OW82183   0.903   4.951   5.136 -0.3545  0.2790 -0.1914
25364SOL    HW182184   0.847   4.883   5.100  0.5228 -0.8338  0.4778
25364SOL    HW282185   0.923   5.008   5.062  0.4288 -1.2744 -1.2052
25365SOL     OW82186   7.198   9.351   7.087  0.3028  0.1428 -0.3336
25365SOL    HW182187   7.120   9.326   7.136  0.6539 -2.0509 -0.8219
25365SOL    HW282188   7.264   9.367   7.155 -0.0960  0.3353  0.0168
25366SOL     OW82189   6.546  10.878   7.413 -0.0830  0.3363  0.3387
25366SOL    HW182190   6.481  10.873   7.343  1.4138 -0.9025 -1.0591
25366SOL    HW282191   6.580  10.789   7.420  2.8982  1.2981 -0.4752
25367SOL     OW82192   8.892   2.394   2.184  0.3134 -0.4022 -0.2597
25367SOL    HW182193   8.835   2.471   2.178  0.9234  0.1961  1.0810
25367SOL    HW282194   8.937   2.405   2.268  0.8662 -1.9209 -0.3355
25368SOL     OW82195   0.430  10.751   7.367 -0.4842  0.0404 -0.0127
25368SOL    HW182196   0.357  10.810   7.386  0.4195  0.6735  1.7071
25368SOL    HW282197   0.507  10.807   7.369  0.1453 -0.7596 -1.0304
25369SOL     OW82198   7.980   2.009  10.377 -0.5315  0.5762  0.1089
25369SOL    HW182199   7.955   2.100  10.363  0.2685  0.9847  1.2717
25369SOL    HW282200   8.040   1.989  10.306 -0.0807  1.2082  0.3071
25370SOL     OW82201  10.116   6.093  10.519 -0.4289  0.1993 -0.7342
25370SOL    HW182202  10.173   6.026  10.558 -0.7710  1.2946  1.8670
25370SOL    HW282203  10.164   6.175  10.531 -1.8935  0.9619  0.1566
25371SOL     OW82204   3.190   2.670   6.970  0.0819  0.3318 -0.4059
25371SOL    HW182205   3.269   2.724   6.961  0.9852 -0.8616  0.0402
25371SOL    HW282206   3.189   2.617   6.890  0.2810 -0.3407  0.0333
25372SOL     OW82207   7.335   7.538   9.629 -0.3472 -0.0519 -0.2206
25372SOL    HW182208   7.404   7.493   9.676  2.3060  2.3428 -1.5370
25372SOL    HW282209   7.337   7.500   9.541 -0.7558 -0.0099 -0.2503
25373SOL     OW82210   6.155   4.505   3.072  0.3899 -0.0701  0.2777
25373SOL    HW182211   6.137   4.413   3.053 -1.2185  0.8067 -3.1011
25373SOL    HW282212   6.215   4.502   3.147  2.0910 -3.9154 -0.9679
25374SOL     OW82213   2.949   8.431   8.815  0.1902  0.0114 -0.3538
25374SOL    HW182214   2.986   8.390   8.737  0.7479 -1.8708  0.8409
25374SOL    HW282215   2.860   8.396   8.821 -0.2568  1.0438 -0.7500
25375SOL     OW82216   6.138   3.303   1.631 -0.3272  0.2178 -1.1136
25375SOL    HW182217   6.069   3.368   1.618  0.3057  0.9042 -1.1394
25375SOL    HW282218   6.210   3.352   1.672 -0.8373 -1.0666  1.5054
25376SOL     OW82219   3.623   4.904   5.248  0.0783 -0.0706 -0.9245
25376SOL    HW182220   3.665   4.834   5.197 -1.2198 -1.5719 -0.0513
25376SOL    HW282221   3.530   4.880   5.248 -0.2807  1.2292  0.0964
25377SOL     OW82222   2.704   8.763   7.678  0.3335 -0.2550  0.2671
25377SOL    HW182223   2.638   8.778   7.611 -0.7166 -2.4287  0.7182
25377SOL    HW282224   2.655   8.727   7.752  1.7660 -0.0219  1.3657
25378SOL     OW82225   7.064   1.367   6.927  0.3930 -0.2270  0.0653
25378SOL    HW182226   6.974   1.385   6.954  0.9594 -1.2657  2.9627
25378SOL    HW282227   7.116   1.434   6.972  1.1439  0.2442 -1.4210
25379SOL     OW82228   4.998   4.655   1.780 -0.2987 -0.1672 -0.3154
25379SOL    HW182229   5.048   4.718   1.728  1.4511 -0.8959  0.4106
25379SOL    HW282230   5.022   4.676   1.871  0.2631 -1.7969 -0.0584
25380SOL     OW82231   8.392   1.181   7.851  0.0005 -0.2269  0.3017
25380SOL    HW182232   8.419   1.114   7.914 -0.1554  1.1591  1.9201
25380SOL    HW282233   8.368   1.132   7.772  3.6979 -1.8001 -0.0367
25381SOL     OW82234   4.075   9.378   4.968  1.1097 -0.1878  0.0171
25381SOL    HW182235   4.009   9.384   4.899 -1.7539 -0.4535  2.5024
25381SOL    HW282236   4.069   9.463   5.013  1.9984 -0.4899  0.7283
25382SOL     OW82237   5.424   5.511   7.050 -0.4496  0.7818  0.1909
25382SOL    HW182238   5.491   5.534   6.985  0.3597 -0.0027  0.7232
25382SOL    HW282239   5.472   5.505   7.132 -0.6262 -2.4034  0.1848
25383SOL     OW82240   9.667   7.854   5.750 -0.0631  0.0207  0.0857
25383SOL    HW182241   9.736   7.788   5.745 -0.0503  0.1242 -2.5310
25383SOL    HW282242   9.588   7.804   5.770  0.1161 -0.6496 -0.8419
25384SOL     OW82243   6.545   5.543   4.226 -0.2794 -0.3379 -0.3513
25384SOL    HW182244   6.484   5.546   4.152  0.6734  0.2343 -1.1365
25384SOL    HW282245   6.628   5.575   4.190  0.4319 -0.8971  0.7477
25385SOL     OW82246   6.285   7.404  10.144  0.0811  0.1010 -0.3525
25385SOL    HW182247   6.328   7.323  10.115 -0.4294 -0.6347  0.8593
25385SOL    HW282248   6.300   7.407  10.239  1.7658  2.4606 -0.6077
25386SOL     OW82249   0.814   3.552   5.856  0.1894 -0.3484  0.0001
25386SOL    HW182250   0.752   3.574   5.925  0.9075 -1.6093  1.0954
25386SOL    HW282251   0.781   3.599   5.779 -2.0901 -0.9286  0.5351
25387SOL     OW82252   5.951   4.877   8.868  0.7959 -0.1179 -0.1570
25387SOL    HW182253   6.001   4.909   8.792  0.6093  1.7250  0.4431
25387SOL    HW282254   5.948   4.952   8.928  2.1105 -1.9330  2.3202
25388SOL     OW82255   5.619  10.050   6.800  0.3292  0.1651  0.6304
25388SOL    HW182256   5.660  10.058   6.886 -0.1229 -0.1239  0.8778
25388SOL    HW282257   5.531  10.086   6.812 -0.4350 -1.6980  0.8113
25389SOL     OW82258   9.504   1.979   3.823 -0.1774 -0.4103 -0.2174
25389SOL    HW182259   9.458   1.972   3.907 -0.4555 -0.1907 -0.3498
25389SOL    HW282260   9.576   1.917   3.830  0.8857  0.8722  0.8852
25390SOL     OW82261   4.218   9.812   1.926 -0.5245  0.0628 -0.1999
25390SOL    HW182262   4.158   9.749   1.965  1.0552 -0.6660  1.1736
25390SOL    HW282263   4.273   9.761   1.867  0.0483  0.3422  0.0784
25391SOL     OW82264   5.622  10.606   6.271  0.3228  0.0572  0.1502
25391SOL    HW182265   5.673  10.679   6.307 -0.1708  0.3100  0.3519
25391SOL    HW282266   5.555  10.590   6.337 -0.7406  0.6700 -0.7523
25392SOL     OW82267   3.232   8.418   3.484  0.0090 -0.4171 -0.2514
25392SOL    HW182268   3.152   8.377   3.516 -0.4690  0.6474 -0.0491
25392SOL    HW282269   3.301   8.384   3.542 -0.4466 -0.5404  0.2231
25393SOL     OW82270   2.374   0.762   3.560  0.2504 -0.2239 -0.3931
25393SOL    HW182271   2.462   0.725   3.550  1.0237  1.4824 -0.3339
25393SOL    HW282272   2.352   0.749   3.652  0.3351 -0.8612 -0.4591
25394SOL     OW82273   9.067   2.268   2.023 -0.1683 -0.2068 -0.2114
25394SOL    HW182274   9.095   2.195   2.079  0.8260 -0.7817 -1.3993
25394SOL    HW282275   9.000   2.313   2.074  0.1941 -1.1218  1.1395
25395SOL     OW82276  10.148   4.997   0.629  0.2651 -0.0167 -0.1740
25395SOL    HW182277  10.218   4.933   0.616  0.3438 -0.0162  0.2191
25395SOL    HW282278  10.067   4.945   0.625  0.3260 -0.1345  0.0940
25396SOL     OW82279   8.883   0.702  10.701  0.0183 -0.0257  0.1184
25396SOL    HW182280   8.831   0.697  10.780  0.0596 -1.5667  0.0788
25396SOL    HW282281   8.971   0.675  10.728  0.0294 -0.5738 -0.4406
25397SOL     OW82282   4.752   7.967   0.766 -0.7246 -0.1639 -0.1970
25397SOL    HW182283   4.687   8.033   0.742 -2.5746 -1.8866 -0.1597
25397SOL    HW282284   4.759   7.973   0.861  0.6839  1.3367 -0.3639
25398SOL     OW82285   3.341   1.250   9.275  0.3110  0.1676  0.6494
25398SOL    HW182286   3.279   1.321   9.260 -0.2380 -0.0948  1.6443
25398SOL    HW282287   3.287   1.176   9.302  0.8285 -0.7926 -0.8383
25399SOL     OW82288   4.298   9.423   7.320 -0.2128  0.3184  0.2236
25399SOL    HW182289   4.271   9.514   7.310  2.1504  1.0524 -0.0614
25399SOL    HW282290   4.331   9.417   7.410 -0.4220 -0.2684  0.2657
25400SOL     OW82291   8.227   5.516   8.511 -0.5156 -0.4309  0.2163
25400SOL    HW182292   8.253   5.424   8.518  2.4424  0.4085  1.6890
25400SOL    HW282293   8.192   5.537   8.597  0.4956  0.2417  0.4776
25401SOL     OW82294   3.608   2.922   4.698 -1.0067 -0.4380  0.1679
25401SOL    HW182295   3.687   2.881   4.734 -0.0766  1.8684  0.9269
25401SOL    HW282296   3.559   2.952   4.775 -2.5862 -1.6309 -0.3001
25402SOL     OW82297   9.276   8.771   3.204  0.5132 -0.1948 -0.5199
25402SOL    HW182298   9.301   8.812   3.287  0.9619  0.6270 -1.0517
25402SOL    HW282299   9.192   8.730   3.223  0.6253 -0.0564  0.3577
25403SOL     OW82300   5.289   2.943  10.364 -0.2829 -0.1337 -0.3048
25403SOL    HW182301   5.324   3.017  10.314  0.1695 -1.4597 -2.0676
25403SOL    HW282302   5.363   2.912  10.416  0.0977 -0.5400 -1.0724
25404SOL     OW82303   9.828   0.022   7.604 -0.2695  0.1868 -0.0675
25404SOL    HW182304   9.887   0.051   7.534 -0.9831 -0.1076 -0.8079
25404SOL    HW282305   9.761   0.090   7.608  0.1177  0.5318  0.7863
25405SOL     OW82306   5.243  10.782   8.785 -0.2047 -0.1017  0.8120
25405SOL    HW182307   5.184  10.795   8.859 -0.0045 -0.6610  1.0788
25405SOL    HW282308   5.263  10.689   8.786 -0.6067 -0.2143 -0.2678
25406SOL     OW82309   3.975   1.209   9.649 -0.5575  0.4497  0.1042
25406SOL    HW182310   3.936   1.239   9.568 -2.0345 -1.1667  0.1499
25406SOL    HW282311   4.058   1.171   9.623 -1.4181 -0.8756 -0.8239
25407SOL     OW82312   9.651   0.831   7.015  0.4239  0.6937 -0.3848
25407SOL    HW182313   9.736   0.806   6.980  0.5526  0.6968 -0.0784
25407SOL    HW282314   9.602   0.748   7.020  0.5587  0.6278 -0.1556
25408SOL     OW82315   0.365   2.928   3.607 -0.1706 -0.2414  0.2455
25408SOL    HW182316   0.416   2.914   3.527  0.9920 -0.6521  1.0324
25408SOL    HW282317   0.368   3.023   3.621  1.8013 -0.3752  1.1384
25409SOL     OW82318   3.666   3.306   6.016 -0.4691  0.0448 -0.8420
25409SOL    HW182319   3.725   3.267   5.952  1.3784  0.9052  0.2725
25409SOL    HW282320   3.710   3.387   6.044 -1.2305 -0.2558  1.4305
25410SOL     OW82321   6.899   7.913   8.372 -0.4009  0.5153 -0.4300
25410SOL    HW182322   6.869   7.822   8.367  0.7679  0.1560 -1.2592
25410SOL    HW282323   6.922   7.925   8.464 -0.0329 -0.2104 -0.4221
25411SOL     OW82324   8.453   9.156   4.131  0.0964 -0.3153  0.4061
25411SOL    HW182325   8.369   9.196   4.110  0.9717  1.7257  0.5047
25411SOL    HW282326   8.516   9.202   4.075  1.1465 -1.9264  0.1921
25412SOL     OW82327   8.090   6.841   0.014  0.6360 -0.1978 -0.3625
25412SOL    HW182328   8.107   6.924   0.059 -0.2126  0.4873 -1.2582
25412SOL    HW282329   8.156   6.838  -0.056  0.7643 -0.3560 -0.2353
25413SOL     OW82330   7.053   1.978   1.679 -0.0112  0.1037 -0.6736
25413SOL    HW182331   7.020   1.931   1.602  1.8160  0.0595 -1.4841
25413SOL    HW282332   7.094   1.910   1.733 -2.5061 -0.1058  1.1183
25414SOL     OW82333   7.359   6.424   7.201 -0.2227 -0.3162  0.3717
25414SOL    HW182334   7.446   6.426   7.161 -0.6901 -0.0303 -0.6460
25414SOL    HW282335   7.376   6.403   7.293  0.8587 -1.1830  0.0035
25415SOL     OW82336   1.187   9.978   5.260  0.4177 -0.6293 -0.5596
25415SOL    HW182337   1.144   9.898   5.229  0.5787 -1.7870  1.9810
25415SOL    HW282338   1.269   9.947   5.298  0.4134  0.7036  0.5985
25416SOL     OW82339   8.811   2.553   5.653 -1.0116  0.6268  0.2949
25416SOL    HW182340   8.759   2.519   5.726 -2.6202 -0.0115 -1.0521
25416SOL    HW282341   8.777   2.641   5.639  1.0372  1.7457  1.8377
25417SOL     OW82342   7.018  10.219   9.375  0.0020  0.1333  0.3557
25417SOL    HW182343   6.924  10.238   9.382 -0.0765 -0.7225  2.6299
25417SOL    HW282344   7.022  10.126   9.353  0.3256  0.2274  0.0019
25418SOL     OW82345   9.304   9.079   0.286 -0.3014  0.2839  0.2372
25418SOL    HW182346   9.261   9.132   0.352 -2.7333 -2.7248  1.3256
25418SOL    HW282347   9.243   9.077   0.212  1.4186  1.8446 -1.3392
25419SOL     OW82348  10.761   9.630   5.580  0.2646  0.2519  0.3094
25419SOL    HW182349  10.742   9.699   5.517 -1.7714  0.6179  1.2647
25419SOL    HW282350  10.752   9.548   5.531 -2.9377  0.4485  0.4144
25420SOL     OW82351   5.376   7.188   4.453  0.1175  0.9471 -0.1397
25420SOL    HW182352   5.384   7.219   4.543 -1.5240  0.2205  0.2899
25420SOL    HW282353   5.463   7.201   4.415  1.1921  0.1599  1.9019
25421SOL     OW82354   5.479   1.071   5.556 -0.2419  0.4365 -0.7195
25421SOL    HW182355   5.530   1.135   5.605  0.2133 -0.8251  0.5120
25421SOL    HW282356   5.544   1.016   5.513 -0.4361 -1.7454  1.5846
25422SOL     OW82357   6.783   6.619   8.173  0.3275 -0.0266 -0.6540
25422SOL    HW182358   6.776   6.526   8.195 -0.3181  0.2853  0.5139
25422SOL    HW282359   6.705   6.638   8.121  1.3599 -0.5280 -2.4984
25423SOL     OW82360   3.718   3.685   2.303 -0.7114 -0.7691 -0.1290
25423SOL    HW182361   3.663   3.608   2.319 -0.4969 -0.5681  1.7701
25423SOL    HW282362   3.725   3.728   2.388 -1.4148  1.7885 -1.2864
25424SOL     OW82363  10.206   4.383   3.085  0.8912 -0.2228 -0.0261
25424SOL    HW182364  10.185   4.468   3.045  0.1429 -0.7009 -0.6647
25424SOL    HW282365  10.151   4.380   3.163  0.6794 -0.2652 -0.1783
25425SOL     OW82366   7.538   9.413   4.005 -0.0127  0.3502 -0.4119
25425SOL    HW182367   7.576   9.501   4.007 -0.8739  0.7485 -0.7623
25425SOL    HW282368   7.476   9.416   3.932  0.7795 -0.9074 -1.1722
25426SOL     OW82369   3.035   2.449   3.388 -0.7436 -0.1671 -0.2614
25426SOL    HW182370   3.039   2.368   3.439 -0.9602 -0.7361 -1.1337
25426SOL    HW282371   3.063   2.517   3.449  3.4779 -1.3758 -0.5345
25427SOL     OW82372   5.921   0.629   5.184  0.5151  0.5307  0.1205
25427SOL    HW182373   5.944   0.659   5.097  0.5133 -0.2676 -0.1669
25427SOL    HW282374   6.003   0.630   5.233  0.6865  0.1350 -0.1546
25428SOL     OW82375   3.531   3.493   9.000 -0.0396 -0.0784 -0.0012
25428SOL    HW182376   3.565   3.479   9.089 -1.3400 -0.8678  0.3958
25428SOL    HW282377   3.610   3.498   8.945  0.7698 -0.0046  1.1302
25429SOL     OW82378   8.535   3.995   7.134 -0.3704  0.4222  0.1473
25429SOL    HW182379   8.466   4.058   7.155 -0.1583  0.6396  0.1945
25429SOL    HW282380   8.615   4.034   7.169  0.2730  1.5370 -2.3501
25430SOL     OW82381   2.271   3.578   1.045 -0.0156  0.1339  0.2205
25430SOL    HW182382   2.262   3.486   1.069 -0.8466  0.3429  0.7564
25430SOL    HW282383   2.195   3.621   1.084  1.6735  1.5175  2.2277
25431SOL     OW82384  10.183   1.397   5.780  0.0850 -0.6534 -0.2453
25431SOL    HW182385  10.159   1.390   5.872 -1.9759  0.8286 -0.6088
25431SOL    HW282386  10.272   1.432   5.781  0.2306 -0.9978  1.1697
25432SOL     OW82387   0.739   3.770   6.125  0.3381 -0.0041  0.5705
25432SOL    HW182388   0.722   3.861   6.146  1.2981 -0.1124  1.9697
25432SOL    HW282389   0.834   3.766   6.113  0.0631 -0.3122 -2.2578
25433SOL     OW82390   9.398   5.859   6.911  0.2789  0.4547 -0.7291
25433SOL    HW182391   9.447   5.819   6.983  0.8661  0.1278 -1.3001
25433SOL    HW282392   9.444   5.942   6.894  0.6543  0.1352 -1.2830
25434SOL     OW82393   5.509   3.756   0.264  0.3752  0.0282 -0.1792
25434SOL    HW182394   5.544   3.737   0.177  0.9384 -0.2400  0.0981
25434SOL    HW282395   5.547   3.840   0.288 -1.0158  0.8825 -0.8258
25435SOL     OW82396   4.492   9.545   4.349  0.3119  0.1141  0.3538
25435SOL    HW182397   4.502   9.640   4.356  1.7283 -0.0186  0.4435
25435SOL    HW282398   4.418   9.533   4.290  0.1054  1.2816  0.3538
25436SOL     OW82399   5.249   9.030   6.450 -0.4482 -0.8464 -0.5531
25436SOL    HW182400   5.194   8.951   6.453 -1.0248 -0.4375  1.2263
25436SOL    HW282401   5.188   9.101   6.469  0.8249 -0.5181  3.0804
25437SOL     OW82402   0.241   8.962   1.352  0.1033  0.4926  0.2394
25437SOL    HW182403   0.169   8.960   1.414 -0.5263 -0.2678 -0.4864
25437SOL    HW282404   0.317   8.989   1.403 -0.4570  0.1480  1.2727
25438SOL     OW82405   9.193   4.256   0.419  0.6069 -0.1719 -0.0006
25438SOL    HW182406   9.163   4.171   0.386 -0.2152 -0.8008  2.1536
25438SOL    HW282407   9.113   4.300   0.448  1.2851  0.0258  1.7150
25439SOL     OW82408   9.785   1.222   9.041  0.2387 -0.1567  0.3703
25439SOL    HW182409   9.746   1.168   8.972 -1.4060  0.6505  0.6309
25439SOL    HW282410   9.803   1.306   8.999  1.4068 -0.3875  0.3584
25440SOL     OW82411   8.588   8.776   7.534 -0.1862  0.0123 -0.3845
25440SOL    HW182412   8.654   8.707   7.543  0.8292  1.0366  0.3376
25440SOL    HW282413   8.513   8.745   7.584  1.1118  0.4096  1.9773
25441SOL     OW82414   5.704   6.991   3.693 -0.0193  0.6136 -0.2713
25441SOL    HW182415   5.701   6.900   3.664  0.1152  1.0365 -1.7081
25441SOL    HW282416   5.616   7.008   3.727 -0.0163 -0.0757  0.0939
25442SOL     OW82417   2.805   0.899   6.807  0.3374 -0.0084  0.2764
25442SOL    HW182418   2.721   0.856   6.792 -0.3022  0.6640  1.7602
25442SOL    HW282419   2.788   0.992   6.792  1.6610 -0.1146 -2.6953
25443SOL     OW82420  10.916   6.773   9.122 -0.5367 -0.2657  0.6908
25443SOL    HW182421  10.986   6.733   9.173 -0.9313 -0.0248  1.4377
25443SOL    HW282422  10.838   6.764   9.176 -0.7513  0.9914  0.6279
25444SOL     OW82423   2.754   4.597   4.909  0.1744  0.0298  0.5289
25444SOL    HW182424   2.782   4.604   4.818  0.4656 -0.4984  0.5759
25444SOL    HW282425   2.662   4.625   4.908  0.7569  2.1175  0.4266
25445SOL     OW82426  10.448   6.598   0.507 -0.1132 -0.0809  0.6822
25445SOL    HW182427  10.388   6.624   0.438 -0.8181 -0.2786  1.2123
25445SOL    HW282428  10.523   6.559   0.461  0.1525  1.2337 -0.0303
25446SOL     OW82429   1.901   2.738   4.869 -0.6105 -0.3140 -0.0461
25446SOL    HW182430   1.827   2.701   4.917  0.0956 -1.1542  0.4209
25446SOL    HW282431   1.949   2.790   4.934  0.4758 -1.6383  0.2524
25447SOL     OW82432   8.208   7.712   5.376 -0.3626  0.1813  0.0755
25447SOL    HW182433   8.195   7.618   5.359 -3.6965  0.2142  1.6734
25447SOL    HW282434   8.166   7.755   5.301 -0.6129  0.3676  0.3215
25448SOL     OW82435   6.919   0.785   5.705 -0.2379  0.3598  0.0282
25448SOL    HW182436   6.993   0.742   5.746 -0.4637 -0.3099 -0.2427
25448SOL    HW282437   6.865   0.816   5.777  0.7470  1.6668  0.2356
25449SOL     OW82438   9.482   6.009   0.170 -0.1005 -0.3825  0.2615
25449SOL    HW182439   9.445   6.066   0.103  1.6147 -0.5001 -0.8352
25449SOL    HW282440   9.408   5.957   0.201 -1.5218  1.7334  0.6132
25450SOL     OW82441   8.001   9.309   9.828 -0.5201  0.4266  0.2954
25450SOL    HW182442   7.912   9.302   9.794 -0.1141  1.0386 -0.9620
25450SOL    HW282443   8.006   9.398   9.864 -1.1094 -0.3789  2.5825
25451SOL     OW82444   4.455   2.400   3.923 -0.2230  0.0625  0.4822
25451SOL    HW182445   4.444   2.492   3.899  1.8085  0.0803 -0.6227
25451SOL    HW282446   4.416   2.393   4.011  1.0421  2.3644  1.3123
25452SOL     OW82447   2.746   2.905   5.165  0.0219  0.6454  0.4649
25452SOL    HW182448   2.795   2.985   5.182  0.7043  0.1185  1.0321
25452SOL    HW282449   2.728   2.869   5.252 -0.8233  0.5049  0.2351
25453SOL     OW82450   9.901   4.771   9.228 -0.0310 -0.5075 -0.0060
25453SOL    HW182451   9.923   4.705   9.163 -2.3533 -4.1104  2.4832
25453SOL    HW282452   9.914   4.727   9.312 -0.7039  2.6168  1.9087
25454SOL     OW82453   7.366   1.255   1.847 -0.3533 -0.5503  0.4430
25454SOL    HW182454   7.451   1.241   1.806 -0.9510 -0.7668 -0.7901
25454SOL    HW282455   7.346   1.172   1.891  0.1944 -0.4006  0.9748
25455SOL     OW82456   5.062   0.440   0.406  0.1044  0.2283 -0.6210
25455SOL    HW182457   5.018   0.519   0.438 -1.1761 -0.4173 -0.6769
25455SOL    HW282458   5.031   0.430   0.316  1.6762  0.6312 -1.2332
25456SOL     OW82459   4.132   8.775   1.332 -0.3555  0.4784  0.1188
25456SOL    HW182460   4.143   8.732   1.247  0.7049  0.1685  0.4042
25456SOL    HW282461   4.038   8.767   1.351 -0.6277  0.6364 -1.0586
25457SOL     OW82462   1.713   5.373   8.102  0.7402 -0.2297  0.3138
25457SOL    HW182463   1.672   5.456   8.079  1.3600 -0.1166 -0.4382
25457SOL    HW282464   1.642   5.319   8.135  0.0961  0.1616 -0.4114
25458SOL     OW82465   7.589   4.346   5.796 -0.2509 -0.2636 -0.0320
25458SOL    HW182466   7.546   4.264   5.775  1.3336 -0.7743 -1.5566
25458SOL    HW282467   7.597   4.391   5.711  0.3437  0.7350  0.5286
25459SOL     OW82468   7.235   5.549   4.760 -0.7653  0.6812  0.5621
25459SOL    HW182469   7.330   5.539   4.746 -0.3900  4.2239 -0.4168
25459SOL    HW282470   7.216   5.492   4.834  2.1274 -0.1621  0.8052
25460SOL     OW82471   7.118   7.963   5.694 -0.1560  0.2870  0.0995
25460SOL    HW182472   7.075   8.048   5.698  0.2549  0.4806  0.4431
25460SOL    HW282473   7.204   7.981   5.656  0.3130  0.1898  1.0802
25461SOL     OW82474   9.611   2.505   4.382  0.1989 -0.2136  0.3237
25461SOL    HW182475   9.655   2.470   4.461 -0.0859 -1.5731 -0.0949
25461SOL    HW282476   9.683   2.541   4.330  0.5598 -0.5301  0.5906
25462SOL     OW82477   0.869  10.666   8.780  0.0785  0.2171  0.6788
25462SOL    HW182478   0.948  10.612   8.779  1.2849  1.8896  1.1015
25462SOL    HW282479   0.805  10.617   8.728  1.8285 -0.5478 -0.8581
25463SOL     OW82480   8.946   0.098   5.637 -0.0962  0.4226  0.0605
25463SOL    HW182481   8.958   0.178   5.688  0.1815  0.4163  0.0058
25463SOL    HW282482   8.863   0.111   5.591 -0.8140  0.0422  1.2128
25464SOL     OW82483   5.644   1.782   1.982  0.2172  0.3146 -0.1149
25464SOL    HW182484   5.680   1.772   2.071 -0.5229  1.8662  0.4042
25464SOL    HW282485   5.592   1.863   1.987  0.0921  0.3726 -1.9520
25465SOL     OW82486   3.755   3.679   8.140  0.3417 -0.5695  0.2215
25465SOL    HW182487   3.755   3.664   8.046  0.6986 -0.0850  0.1448
25465SOL    HW282488   3.700   3.609   8.175 -0.9155  0.0433 -0.4666
25466SOL     OW82489   9.573   9.050   3.495 -0.5816 -0.0475  0.4017
25466SOL    HW182490   9.623   9.031   3.574  0.6317  1.5746  0.0736
25466SOL    HW282491   9.597   8.981   3.434 -1.5051 -1.3024  1.3994
25467SOL     OW82492   2.356   9.945   6.132 -0.0350 -0.2918 -0.3074
25467SOL    HW182493   2.296   9.966   6.203 -1.3149 -1.6477 -0.9288
25467SOL    HW282494   2.345   9.851   6.118  1.1723 -0.3005 -1.4170
25468SOL     OW82495   8.078   6.696   9.936  0.7084 -0.2565  0.0904
25468SOL    HW182496   8.042   6.698   9.848 -1.2375  0.1854  0.8345
25468SOL    HW282497   8.048   6.613   9.973  1.2693 -0.3137  0.4284
25469SOL     OW82498   2.162   8.911   8.787  0.0828 -0.0256  0.4081
25469SOL    HW182499   2.091   8.872   8.737  2.0824 -2.0917 -1.0005
25469SOL    HW282500   2.185   8.845   8.852  1.1857  0.3097  0.3726
25470SOL     OW82501   9.180   6.638   5.588 -0.0483 -0.2269 -0.1340
25470SOL    HW182502   9.223   6.668   5.509  0.2417 -1.4996 -0.4922
25470SOL    HW282503   9.104   6.588   5.556  0.0202 -0.6715  0.3830
25471SOL     OW82504   9.269   7.211   6.297  0.6621  0.2487  0.0701
25471SOL    HW182505   9.226   7.179   6.376  1.9962 -0.3768  0.5779
25471SOL    HW282506   9.249   7.304   6.295  1.1547  0.4178  1.5427
25472SOL     OW82507   5.746   7.578   2.566 -0.0691  0.0898 -0.0801
25472SOL    HW182508   5.745   7.503   2.506 -0.2962 -0.8235  1.0227
25472SOL    HW282509   5.817   7.558   2.627 -0.2700  0.6770  0.3472
25473SOL     OW82510   8.571   0.893   5.504 -0.3738  0.2454 -0.1194
25473SOL    HW182511   8.587   0.814   5.452 -1.2995  0.2452 -0.4271
25473SOL    HW282512   8.586   0.965   5.442  0.4538  0.3161  0.1560
25474SOL     OW82513   2.270   8.907   7.848  0.2506 -0.3104  0.6321
25474SOL    HW182514   2.236   8.833   7.898 -1.6655  0.8880  1.2065
25474SOL    HW282515   2.231   8.897   7.761  0.5984 -0.3896  0.4851
25475SOL     OW82516   0.834   8.481   0.208 -0.4020  0.6795  0.3534
25475SOL    HW182517   0.918   8.520   0.182  0.3678  1.1441  3.1761
25475SOL    HW282518   0.847   8.387   0.195 -0.2513  0.8793 -1.1867
25476SOL     OW82519   1.455   2.533   1.433  0.4967  0.0472  0.5732
25476SOL    HW182520   1.371   2.542   1.479  0.3230 -1.2263  0.5534
25476SOL    HW282521   1.442   2.578   1.350  0.5991  1.8233  1.4631
25477SOL     OW82522   1.851   1.849   0.087 -0.2845 -0.2626  0.3337
25477SOL    HW182523   1.842   1.935   0.128  4.3440  0.8330 -0.3351
25477SOL    HW282524   1.855   1.868  -0.007  2.2752 -0.8457  0.2464
25478SOL     OW82525   1.476   4.332   3.366 -0.3449 -0.0651 -0.5315
25478SOL    HW182526   1.544   4.368   3.309 -1.7059  1.3212 -1.3392
25478SOL    HW282527   1.504   4.354   3.455  0.1084  0.7703 -0.8757
25479SOL     OW82528   4.094   3.497   5.695 -0.6024 -0.0098 -0.0106
25479SOL    HW182529   4.042   3.566   5.737 -0.0380  0.2132  0.3321
25479SOL    HW282530   4.092   3.424   5.757 -0.1476  0.1557  0.2015
25480SOL     OW82531   8.026   3.240   5.534 -0.0776 -0.4068 -0.4937
25480SOL    HW182532   8.116   3.268   5.516 -0.0103 -0.8244 -0.8199
25480SOL    HW282533   8.022   3.151   5.501 -0.2595 -0.8357  0.6580
25481SOL     OW82534   2.320   4.002   8.113  0.2247 -0.7778  0.2195
25481SOL    HW182535   2.293   3.993   8.205 -0.3329 -2.8094 -0.0784
25481SOL    HW282536   2.365   3.919   8.094 -1.0183 -1.0485 -1.7454
25482SOL     OW82537   9.204   3.873   6.873  0.1127 -0.0646  0.3397
25482SOL    HW182538   9.273   3.924   6.916  0.9111 -1.0964  0.3194
25482SOL    HW282539   9.190   3.798   6.931 -1.2028  0.2741  0.4834
25483SOL     OW82540   1.219  10.587   4.868  0.2701  0.5827  0.1665
25483SOL    HW182541   1.259  10.503   4.846 -0.0916  0.5740 -0.4953
25483SOL    HW282542   1.212  10.587   4.963 -1.8106 -1.1234  0.0759
25484SOL     OW82543   7.393   9.258   8.052  0.1980  0.1784  0.1109
25484SOL    HW182544   7.405   9.326   7.986  0.1426 -0.0138 -0.0978
25484SOL    HW282545   7.466   9.269   8.113 -0.6137  1.3810  0.9130
25485SOL     OW82546   6.463   5.037   7.521 -0.4379  0.1990 -0.6493
25485SOL    HW182547   6.519   5.107   7.556 -0.5137 -0.5422  1.0564
25485SOL    HW282548   6.461   4.971   7.590 -1.0132 -1.1475 -1.9058
25486SOL     OW82549   6.278   8.277   9.854  0.1514  0.1134 -0.8475
25486SOL    HW182550   6.227   8.326   9.790  1.1702  0.3845 -1.4918
25486SOL    HW282551   6.240   8.189   9.853 -1.0727  0.6249 -0.3915
25487SOL     OW82552   8.544   2.208   0.824 -0.1757  0.3279 -0.2708
25487SOL    HW182553   8.590   2.292   0.822 -0.0504  0.2979  0.8238
25487SOL    HW282554   8.452   2.231   0.833 -0.4945  0.3999 -2.8302
25488SOL     OW82555   0.266   8.102   7.422  0.1165 -0.3942  0.4375
25488SOL    HW182556   0.336   8.150   7.377 -0.1363 -0.3150  0.1244
25488SOL    HW282557   0.250   8.026   7.365 -2.7860  1.5757 -1.6693
25489SOL     OW82558  10.463   7.368   8.111 -0.2119  0.2807  0.7721
25489SOL    HW182559  10.546   7.356   8.066 -0.2625  0.1123  0.7229
25489SOL    HW282560  10.423   7.281   8.111 -0.6165  0.4622  0.3509
25490SOL     OW82561   7.469   6.842  10.120 -0.1007  0.0175 -0.4947
25490SOL    HW182562   7.547   6.787  10.126 -0.2676 -0.0611  1.6604
25490SOL    HW282563   7.397   6.784  10.144 -0.3624  0.9349  1.1324
25491SOL     OW82564   2.015   6.337   1.492  0.0887  0.0300 -0.4301
25491SOL    HW182565   1.986   6.422   1.523 -1.6147  0.3643 -2.6341
25491SOL    HW282566   2.004   6.279   1.567  1.4751  1.7341  1.1736
25492SOL     OW82567   9.972   7.087   5.555  0.1812  0.3560  0.7841
25492SOL    HW182568  10.012   7.157   5.607 -1.3493  1.0315  1.1272
25492SOL    HW282569  10.018   7.008   5.582  1.7079  1.1655  0.6659
25493SOL     OW82570   7.241  10.843   5.770 -0.0956  0.1823  0.2559
25493SOL    HW182571   7.275  10.753   5.776  1.1389  0.5066 -1.1895
25493SOL    HW282572   7.236  10.873   5.861 -1.5796 -1.6826  0.8603
25494SOL     OW82573   3.993  10.074   5.729 -0.0609  0.3436  0.4037
25494SOL    HW182574   4.018  10.165   5.746 -0.0549  0.7042 -1.3349
25494SOL    HW282575   4.031  10.025   5.802  0.7987  1.6070  0.8473
25495SOL     OW82576   1.968   9.004   9.830  0.1040  0.8248 -0.1195
25495SOL    HW182577   1.896   9.066   9.821 -0.5402  0.5022  2.1775
25495SOL    HW282578   1.933   8.932   9.882  1.3301 -0.6853 -1.2706
25496SOL     OW82579   9.189   3.290   2.939 -0.1070  0.5151 -0.4100
25496SOL    HW182580   9.167   3.314   2.849  1.2139  1.3144 -0.5331
25496SOL    HW282581   9.249   3.216   2.930 -0.2710  0.3498 -0.1631
25497SOL     OW82582   6.603  10.295   1.371 -0.4205  0.0639  0.7020
25497SOL    HW182583   6.636  10.217   1.415 -0.1040  1.2459  2.7136
25497SOL    HW282584   6.530  10.265   1.318  0.7812 -1.8415  0.0371
25498SOL     OW82585   5.867  10.352   4.690  0.2467  0.0018 -0.7178
25498SOL    HW182586   5.834  10.432   4.648  1.6052  1.1042  0.2294
25498SOL    HW282587   5.936  10.382   4.749 -0.9652 -1.5711  1.6693
25499SOL     OW82588   4.442   3.143   0.151 -0.0706  0.1971 -0.7094
25499SOL    HW182589   4.429   3.091   0.072  0.0070 -0.6779 -0.1569
25499SOL    HW282590   4.479   3.082   0.214 -0.2106  0.8672  0.0345
25500SOL     OW82591   9.138   5.298   4.916  0.5188  0.4567 -0.6025
25500SOL    HW182592   9.224   5.297   4.958  0.7237 -0.8091 -0.9835
25500SOL    HW282593   9.076   5.300   4.989  0.8528  1.9032 -0.3316
25501SOL     OW82594   8.639   5.092   6.015  0.0250  0.2138  0.0233
25501SOL    HW182595   8.597   5.159   5.961  0.1015  1.7327  1.7259
25501SOL    HW282596   8.566   5.049   6.060  0.0616  0.4100  0.2778
25502SOL     OW82597   2.593   0.835   1.162 -0.1917 -0.0447  0.7755
25502SOL    HW182598   2.602   0.818   1.256  0.6908  1.3586  0.9816
25502SOL    HW282599   2.678   0.870   1.136 -0.9724  1.2452 -0.1553
25503SOL     OW82600   7.769   2.117   3.177 -0.3809  0.0913  0.0712
25503SOL    HW182601   7.725   2.195   3.143 -0.7053 -0.2501 -0.3006
25503SOL    HW282602   7.861   2.143   3.186 -0.6546  0.8356  0.9329
25504SOL     OW82603   8.708   8.832   3.182 -0.0630  0.1911 -0.6897
25504SOL    HW182604   8.716   8.805   3.273  0.1076 -0.4693 -0.8892
25504SOL    HW282605   8.764   8.909   3.174  0.2631 -0.0094 -0.3418
25505SOL     OW82606   2.861   1.366   9.812  0.0586 -0.0531 -0.4693
25505SOL    HW182607   2.858   1.430   9.741  0.2068  0.8339  0.3114
25505SOL    HW282608   2.898   1.414   9.886  0.7614 -1.2193 -0.0466
25506SOL     OW82609   6.160   1.474   7.255  0.7732 -0.0289 -0.4285
25506SOL    HW182610   6.202   1.397   7.217  0.5578 -1.5606  2.1778
25506SOL    HW282611   6.230   1.520   7.300  0.1719 -1.5633  2.3168
25507SOL     OW82612   4.351   5.643   4.161 -0.0445 -0.0120  0.1355
25507SOL    HW182613   4.342   5.738   4.167  4.5755  0.5492  1.1843
25507SOL    HW282614   4.308   5.609   4.240 -1.8708  1.0594 -0.3269
25508SOL     OW82615   5.920   9.603   1.132 -0.2734  0.3401 -0.3398
25508SOL    HW182616   5.871   9.650   1.064 -2.4160  2.0033  2.1318
25508SOL    HW282617   5.867   9.526   1.151  1.1729 -1.0284 -1.5917
25509SOL     OW82618   2.295   1.564   7.204 -0.6131 -0.0370 -0.2676
25509SOL    HW182619   2.245   1.494   7.164 -0.6854 -0.4070  0.4480
25509SOL    HW282620   2.230   1.612   7.256 -0.1946 -0.6923  0.8940
25510SOL     OW82621   5.040   1.385   5.628 -0.0111  0.4061 -0.0674
25510SOL    HW182622   5.110   1.408   5.566 -0.6800 -0.5495 -1.2316
25510SOL    HW282623   4.994   1.467   5.644  0.7666  0.8571 -0.0681
25511SOL     OW82624   6.069  10.031   5.760  0.1222  0.6135  0.3417
25511SOL    HW182625   6.041  10.121   5.778 -0.2396  0.2629  1.6234
25511SOL    HW282626   6.000   9.976   5.797  0.8421 -0.2075  0.5037
25512SOL     OW82627   1.393   6.536   0.430  0.1740 -0.5511  0.2545
25512SOL    HW182628   1.464   6.538   0.366 -0.4534  1.3038 -0.4571
25512SOL    HW282629   1.357   6.447   0.424  2.1122 -1.3866  0.3242
25513SOL     OW82630  10.195   8.857   2.906 -0.6971  0.0945 -0.2197
25513SOL    HW182631  10.166   8.778   2.951 -0.3593 -1.0934 -1.9816
25513SOL    HW282632  10.238   8.825   2.827  1.4301  1.9620  0.0849
25514SOL     OW82633   6.216  10.793   2.871 -0.3147  0.0959 -0.2303
25514SOL    HW182634   6.168  10.804   2.953  0.6278  0.4667  0.2926
25514SOL    HW282635   6.301  10.835   2.887  0.9016 -2.1416 -0.4973
25515SOL     OW82636   2.196   4.463   5.882  0.0330  0.2227 -0.5036
25515SOL    HW182637   2.281   4.467   5.838  2.5469  0.1136  3.7568
25515SOL    HW282638   2.139   4.519   5.830  3.6194  2.9519 -1.9325
25516SOL     OW82639   2.098   9.270   7.613  0.0355  0.0788  0.6363
25516SOL    HW182640   2.159   9.288   7.541 -0.4948 -0.2992  0.0780
25516SOL    HW282641   2.125   9.329   7.683  2.3998 -1.5263  1.2155
25517SOL     OW82642   4.850  10.045   0.684  0.0356  0.3783 -0.5203
25517SOL    HW182643   4.807   9.960   0.691  0.3090  0.1797 -1.1721
25517SOL    HW282644   4.941  10.028   0.707  0.6430 -0.0144 -2.9407
25518SOL     OW82645   6.229   7.642   9.754  0.3346 -0.1053 -0.0988
25518SOL    HW182646   6.150   7.634   9.700 -0.4846  0.2245  0.9968
25518SOL    HW282647   6.296   7.675   9.695  0.2768 -2.4660 -1.5903
25519SOL     OW82648   1.134   0.637   6.083 -0.1436 -0.0233  0.1227
25519SOL    HW182649   1.042   0.662   6.071  0.2159  0.7661 -1.2325
25519SOL    HW282650   1.139   0.549   6.046 -0.1784  0.2872 -0.6399
25520SOL     OW82651   9.577   0.514   9.052 -0.1588 -0.6079  0.3272
25520SOL    HW182652   9.600   0.607   9.060  0.2596 -0.5662 -1.0717
25520SOL    HW282653   9.632   0.482   8.981 -1.3686 -1.5682 -0.2155
25521SOL     OW82654   9.607   8.033   0.347 -0.0578 -0.5396  0.1978
25521SOL    HW182655   9.661   8.065   0.275  0.1283 -2.8985 -0.7962
25521SOL    HW282656   9.523   8.077   0.336  0.4847  0.3930 -0.4152
25522SOL     OW82657   1.031   3.422   8.300 -0.3147  0.5540  0.0185
25522SOL    HW182658   1.046   3.496   8.358 -1.6348 -0.1596  1.3459
25522SOL    HW282659   0.957   3.449   8.245  0.8521  1.1798 -1.3028
25523SOL     OW82660   2.048   9.821   7.165  0.1919 -0.0086  0.2415
25523SOL    HW182661   2.037   9.743   7.220 -0.6924 -1.1685 -1.4987
25523SOL    HW282662   1.979   9.881   7.193  0.2669 -0.2299  0.9272
25524SOL     OW82663  10.758   2.897   2.384 -0.1459 -0.4667  0.0704
25524SOL    HW182664  10.690   2.843   2.343  0.4226 -1.6570  0.6602
25524SOL    HW282665  10.760   2.977   2.331 -3.1703  0.3728  0.9970
25525SOL     OW82666   0.392   3.189   3.605  0.2248 -0.2360 -0.0648
25525SOL    HW182667   0.301   3.194   3.633  0.4619 -1.4021  0.9916
25525SOL    HW282668   0.397   3.249   3.530 -1.2317  0.3772  0.2883
25526SOL     OW82669   9.807   8.702   2.359 -0.1729 -0.3522  0.0158
25526SOL    HW182670   9.784   8.613   2.330  1.6939 -0.6593 -0.6728
25526SOL    HW282671   9.890   8.692   2.405  0.2486  1.0686 -0.3638
25527SOL     OW82672   5.180   9.907   0.197  0.3100  0.2722  0.6425
25527SOL    HW182673   5.259   9.911   0.143  0.2166  1.9879  0.5802
25527SOL    HW282674   5.110   9.885   0.136  0.7632 -1.6813  0.7695
25528SOL     OW82675   3.464   0.140   5.145 -0.1001 -0.9171 -0.0119
25528SOL    HW182676   3.437   0.103   5.061  0.3345 -0.1786 -0.4852
25528SOL    HW282677   3.559   0.129   5.146 -0.1770 -1.6059  0.7246
25529SOL     OW82678   3.762   7.765  10.226 -0.2095  0.3598 -0.0854
25529SOL    HW182679   3.788   7.675  10.245 -2.3851 -0.0386  1.3545
25529SOL    HW282680   3.705   7.757  10.150 -2.8733  0.0112  1.8219
25530SOL     OW82681   2.916  10.303   8.979  0.5392 -0.1983  0.2866
25530SOL    HW182682   2.858  10.288   8.905  0.8097 -0.2001  0.0711
25530SOL    HW282683   2.867  10.272   9.055 -0.5241  1.5487  0.3747
25531SOL     OW82684   3.517   9.135   9.505  0.2821 -0.1469  0.2069
25531SOL    HW182685   3.512   9.124   9.410  0.4082  1.0372  0.0490
25531SOL    HW282686   3.557   9.221   9.517  1.4348 -0.7972  1.3412
25532SOL     OW82687   4.396   5.524   5.493 -0.1136  0.2424 -1.2654
25532SOL    HW182688   4.331   5.509   5.562  0.1230  1.6246 -0.7271
25532SOL    HW282689   4.426   5.614   5.506  0.6745  0.1965 -2.5577
25533SOL     OW82690   3.200   3.117   3.258  0.5917  0.0879  0.1591
25533SOL    HW182691   3.156   3.052   3.204 -0.4963  2.1323 -1.5904
25533SOL    HW282692   3.128   3.161   3.304  1.3205 -0.0304  1.4643
25534SOL     OW82693   8.964   0.142   6.385 -0.3546 -0.2844  0.4155
25534SOL    HW182694   8.887   0.085   6.391 -0.2463 -0.3561  1.2904
25534SOL    HW282695   8.958   0.182   6.298 -1.0495 -0.7569  0.2399
25535SOL     OW82696   2.711   6.384  10.114  0.0155  0.2461 -0.0217
25535SOL    HW182697   2.687   6.476  10.125  0.8876  0.4101  0.6311
25535SOL    HW282698   2.628   6.339  10.101 -0.4783  1.0435  0.3065
25536SOL     OW82699   6.206   8.591   8.011 -0.3321 -0.4594 -0.1133
25536SOL    HW182700   6.149   8.524   7.974  0.7175 -0.9168 -0.9528
25536SOL    HW282701   6.254   8.546   8.081 -0.3605 -0.3134  0.0014
25537SOL     OW82702   0.812   3.502   5.485 -0.0883  0.0235  0.1398
25537SOL    HW182703   0.798   3.419   5.530 -2.1470  0.7416  0.9675
25537SOL    HW282704   0.724   3.528   5.456  0.3599  2.2811  0.6351
25538SOL     OW82705   0.978   5.392   6.553 -0.7402  0.2496 -0.1394
25538SOL    HW182706   0.952   5.478   6.586 -3.5836 -0.5675  0.0448
25538SOL    HW282707   0.927   5.381   6.472  0.6403 -0.7186 -0.9171
25539SOL     OW82708   4.331   7.199   7.131  0.2099  0.1870  0.1352
25539SOL    HW182709   4.312   7.115   7.174  0.6624 -0.3201 -0.6297
25539SOL    HW282710   4.396   7.240   7.187  0.5885 -0.3437  0.0963
25540SOL     OW82711   8.888   1.116   2.820  0.3799 -0.4107  0.7072
25540SOL    HW182712   8.806   1.157   2.792  0.4356 -0.5758  0.2973
25540SOL    HW282713   8.940   1.189   2.856  0.3459 -0.1798  0.2895
25541SOL     OW82714   3.735   8.619   9.746  0.4949  0.1875 -0.1333
25541SOL    HW182715   3.689   8.591   9.825 -0.3046  1.7638  0.0133
25541SOL    HW282716   3.815   8.660   9.778  0.2140  0.7460 -0.1303
25542SOL     OW82717  10.019   1.998   4.134  0.2830 -0.7163 -0.2088
25542SOL    HW182718  10.003   2.016   4.227 -1.4491 -0.1341 -0.5752
25542SOL    HW282719  10.029   2.085   4.095  2.2525 -1.0002 -0.3946
25543SOL     OW82720   3.735   9.847   6.773  0.3823 -0.1004  0.1323
25543SOL    HW182721   3.753   9.772   6.829 -1.9997 -1.6788 -1.0709
25543SOL    HW282722   3.820   9.868   6.733  1.1746 -1.9433  0.7472
25544SOL     OW82723   5.184   2.235  10.824  0.8409  0.3954 -0.6578
25544SOL    HW182724   5.117   2.303  10.834  1.1101  0.5118  0.5909
25544SOL    HW282725   5.177   2.184  10.905  0.2343 -1.4518 -1.8293
25545SOL     OW82726   4.183   3.096   2.380 -0.2340  0.5335 -0.3156
25545SOL    HW182727   4.136   3.059   2.455  0.8603 -1.4029 -0.5123
25545SOL    HW282728   4.238   3.024   2.348  2.7708  2.5632 -0.1873
25546SOL     OW82729   9.835   4.681   8.116  0.4074 -0.1024  0.5237
25546SOL    HW182730   9.865   4.691   8.206 -1.4157  0.7809  1.0804
25546SOL    HW282731   9.744   4.652   8.123 -0.8605  3.0244 -0.8749
25547SOL     OW82732   2.230   2.630   8.033 -0.0325 -0.1400 -0.8229
25547SOL    HW182733   2.295   2.560   8.036  3.1047  2.5497 -0.1883
25547SOL    HW282734   2.181   2.620   8.114  0.1869 -1.6814 -0.8393
25548SOL     OW82735   3.122   3.197   5.023  0.0650  0.0326  0.4499
25548SOL    HW182736   3.154   3.202   4.933 -0.1637 -0.4994  0.3356
25548SOL    HW282737   3.200   3.203   5.077  0.3266 -0.8631  0.1825
25549SOL     OW82738   2.080   7.445   8.813 -0.3954 -0.1788 -0.0606
25549SOL    HW182739   2.028   7.367   8.798  1.0505 -1.1645 -0.1679
25549SOL    HW282740   2.159   7.413   8.856 -0.4435  1.4337  1.3230
25550SOL     OW82741   1.131   7.619   1.550 -0.3611 -0.2512 -0.0601
25550SOL    HW182742   1.145   7.583   1.463  2.3215  1.6339 -0.5415
25550SOL    HW282743   1.103   7.710   1.535 -1.8572 -0.4915  1.0695
25551SOL     OW82744   2.478   6.448   1.208  0.0142  0.0927  0.4201
25551SOL    HW182745   2.528   6.410   1.280  0.4961  0.5848  0.3489
25551SOL    HW282746   2.543   6.494   1.155 -0.7656  2.4040  1.3702
25552SOL     OW82747   1.193   9.005   3.732 -0.2150  0.1045 -0.2002
25552SOL    HW182748   1.178   9.091   3.691  1.5798  0.1128 -0.9395
25552SOL    HW282749   1.263   9.022   3.795  1.1139 -1.0487 -1.3091
25553SOL     OW82750   9.389   2.191   4.622 -0.1969  0.6492 -0.0165
25553SOL    HW182751   9.316   2.146   4.580  0.7713 -1.0327  0.0117
25553SOL    HW282752   9.377   2.283   4.599 -1.8450  0.2980 -0.7028
25554SOL     OW82753  10.511   8.233   0.220 -0.2236 -0.2624 -0.0781
25554SOL    HW182754  10.521   8.308   0.161 -2.0060 -0.6761 -0.9645
25554SOL    HW282755  10.570   8.166   0.183 -0.8281 -0.2884 -1.0235
25555SOL     OW82756   3.038   7.862   2.459  0.3009 -0.8411  0.1629
25555SOL    HW182757   3.061   7.897   2.373 -0.0858 -0.5072  0.1910
25555SOL    HW282758   2.949   7.894   2.475  0.7735  0.0476  1.1704
25556SOL     OW82759  10.069   2.845   8.870 -0.1678 -0.5324  0.0680
25556SOL    HW182760  10.026   2.801   8.796  0.9229 -0.7727 -0.4366
25556SOL    HW282761  10.033   2.802   8.947 -2.2324  0.5259 -0.2278
25557SOL     OW82762   5.297   5.298   8.380  0.2539  0.2251  0.6442
25557SOL    HW182763   5.334   5.215   8.409 -0.9938 -0.3783  0.5913
25557SOL    HW282764   5.346   5.319   8.300 -0.8669 -1.6446 -0.6388
25558SOL     OW82765   3.001   0.447   1.133  0.1044  0.4661  0.4151
25558SOL    HW182766   2.985   0.404   1.217 -1.7317  2.2903  1.0979
25558SOL    HW282767   3.094   0.471   1.136  0.2772 -0.2480  1.5596
25559SOL     OW82768   3.572   8.197   5.026  0.4490  0.2168  0.0427
25559SOL    HW182769   3.652   8.148   5.003  0.0177 -0.8620  0.7515
25559SOL    HW282770   3.507   8.129   5.044 -0.7911  1.0918 -1.0357
25560SOL     OW82771   0.766   6.955   8.142  0.1787 -1.0102 -0.3064
25560SOL    HW182772   0.769   6.939   8.048  0.6610 -0.2625 -0.4255
25560SOL    HW282773   0.857   6.944   8.171 -0.1419 -2.3604  0.2786
25561SOL     OW82774   0.407   1.782  10.100 -0.7326  0.4291  0.2615
25561SOL    HW182775   0.408   1.833  10.181  0.8727  0.4412  0.2765
25561SOL    HW282776   0.500   1.771  10.079 -1.1283  0.1529 -1.4083
25562SOL     OW82777   9.637   9.556   3.142 -0.0897  0.2419  0.3581
25562SOL    HW182778   9.614   9.502   3.217 -1.7307  0.6032  0.1606
25562SOL    HW282779   9.713   9.606   3.170  0.7753 -1.3403  0.9272
25563SOL     OW82780   4.463   1.601   4.108  0.1569 -0.0439  0.5836
25563SOL    HW182781   4.454   1.682   4.159 -0.0035  0.9158 -0.8861
25563SOL    HW282782   4.545   1.613   4.059  0.6146 -1.1989  1.0304
25564SOL     OW82783   3.522   6.914   3.283 -0.1315  0.1059  0.0413
25564SOL    HW182784   3.440   6.915   3.233 -1.7449 -0.2529  2.4769
25564SOL    HW282785   3.527   6.825   3.319  0.6800  0.4913  0.9257
25565SOL     OW82786  10.771   3.207   2.559 -0.2645  0.0387  0.5468
25565SOL    HW182787  10.817   3.249   2.487 -0.0010 -0.4084  0.4483
25565SOL    HW282788  10.824   3.130   2.580 -1.9017 -1.5597 -0.7995
25566SOL     OW82789   1.944   2.382   8.257 -0.1184 -0.6236 -0.3376
25566SOL    HW182790   1.911   2.297   8.285  0.7909 -1.5079 -1.8123
25566SOL    HW282791   2.014   2.402   8.319 -0.8849 -0.5226  0.5204
25567SOL     OW82792   8.897  10.254  10.665  0.2761 -0.6488 -0.5902
25567SOL    HW182793   8.942  10.226  10.745 -1.6605  0.1718  0.8504
25567SOL    HW282794   8.924  10.345  10.654 -1.4720  0.0660  0.6733
25568SOL     OW82795   9.754   6.452   9.358 -0.0284 -0.6054 -0.1709
25568SOL    HW182796   9.701   6.420   9.431  3.2924 -1.4486  2.0989
25568SOL    HW282797   9.750   6.382   9.293 -0.1324 -1.5443  0.8079
25569SOL     OW82798  10.382   7.248   6.617  0.3944 -0.0869  0.2668
25569SOL    HW182799  10.367   7.253   6.711 -0.1732 -2.0535  0.3329
25569SOL    HW282800  10.296   7.230   6.579  0.7902 -0.4555 -0.4952
25570SOL     OW82801   7.223   9.599   1.557 -0.0495 -0.0650 -0.0520
25570SOL    HW182802   7.290   9.532   1.572 -2.9028 -2.8413  1.6200
25570SOL    HW282803   7.236   9.662   1.627  1.7111  0.3564 -0.7030
25571SOL     OW82804   6.936   9.702   7.016 -0.0678  0.0094  0.2368
25571SOL    HW182805   6.921   9.614   6.982 -2.0903  0.4947 -0.2711
25571SOL    HW282806   7.028   9.702   7.042  0.5198 -1.6534 -1.5288
25572SOL     OW82807   9.442   4.900  10.650 -0.5991 -0.0120  0.0634
25572SOL    HW182808   9.400   4.981  10.678  0.0537  0.5833 -0.6599
25572SOL    HW282809   9.453   4.909  10.556  0.4683 -0.4741  0.1267
25573SOL     OW82810   2.239   7.524   7.434 -0.2445 -0.7793  0.4085
25573SOL    HW182811   2.240   7.466   7.511 -1.2136 -2.5930 -0.8705
25573SOL    HW282812   2.146   7.534   7.414  0.0132 -0.6271 -0.7298
25574SOL     OW82813   7.078   8.159   1.812  0.0911 -0.5632  0.1839
25574SOL    HW182814   7.001   8.121   1.852  0.0028 -0.1041  0.4603
25574SOL    HW282815   7.082   8.120   1.725 -0.8833 -0.0203 -0.1140
25575SOL     OW82816   7.262   6.832   3.584  0.3196  0.5375 -0.0163
25575SOL    HW182817   7.286   6.898   3.650  1.7153  1.3833 -1.3030
25575SOL    HW282818   7.193   6.873   3.533  1.4799  1.2186 -1.0830
25576SOL     OW82819   3.742   9.752   1.664  0.3770  0.3279 -0.4135
25576SOL    HW182820   3.743   9.657   1.655  2.6164  0.3283 -0.6531
25576SOL    HW282821   3.699   9.783   1.584 -1.8763 -0.4682  0.4022
25577SOL     OW82822   5.544   9.094   2.882  0.2201 -0.3864  0.7519
25577SOL    HW182823   5.506   9.100   2.794  0.1959  0.6243  0.8231
25577SOL    HW282824   5.521   9.177   2.924 -0.9026 -1.3721  2.1930
25578SOL     OW82825   0.488   8.552   0.527  0.0455 -0.1982  0.0863
25578SOL    HW182826   0.528   8.470   0.557 -1.1686 -0.6609  0.5039
25578SOL    HW282827   0.560   8.615   0.529  0.9319 -1.1666  0.0839
25579SOL     OW82828   1.884   4.002   2.692 -0.1561  0.3181  0.3828
25579SOL    HW182829   1.794   4.007   2.725 -0.5376  0.9128 -0.6871
25579SOL    HW282830   1.939   4.021   2.768 -0.9522  0.2306  0.9880
25580SOL     OW82831   3.815   3.667   7.874 -0.3712 -0.1500 -0.1417
25580SOL    HW182832   3.857   3.715   7.803  0.2835 -1.5379 -0.7450
25580SOL    HW282833   3.824   3.575   7.848  1.5241 -0.8530  2.5784
25581SOL     OW82834   2.925   0.026   8.027  0.8187  0.1370 -0.4928
25581SOL    HW182835   2.939  -0.061   8.065 -1.5181 -0.0650  0.0643
25581SOL    HW282836   2.943   0.014   7.933  0.8457 -0.8672 -0.3740
25582SOL     OW82837   2.149   0.002   8.887 -0.1226  0.2399 -0.1756
25582SOL    HW182838   2.222   0.013   8.827 -0.7304  2.4546 -0.6011
25582SOL    HW282839   2.075  -0.021   8.832 -0.6846  2.2902 -0.3551
25583SOL     OW82840   7.855   1.364   2.608  0.2508  0.1533 -0.1595
25583SOL    HW182841   7.827   1.432   2.669  2.1297  1.0115 -0.1764
25583SOL    HW282842   7.829   1.396   2.522 -0.2538  0.0970 -0.0302
25584SOL     OW82843   2.405   3.873   7.207 -0.4002 -0.2207 -0.0277
25584SOL    HW182844   2.317   3.840   7.190 -0.7989 -0.2617  1.9095
25584SOL    HW282845   2.398   3.968   7.199 -0.5691 -0.2408 -0.1056
25585SOL     OW82846   9.380   9.716   3.950  0.2706  0.7374 -0.9308
25585SOL    HW182847   9.395   9.700   3.857 -0.2665 -1.2438 -0.7376
25585SOL    HW282848   9.443   9.660   3.994  0.8965  2.0840 -0.0772
25586SOL     OW82849  10.746   0.164   5.874  0.0052  0.1084  0.0279
25586SOL    HW182850  10.815   0.191   5.813  0.7700 -1.4711  0.1450
25586SOL    HW282851  10.668   0.155   5.820  0.2264  0.5476 -0.3671
25587SOL     OW82852   0.139   0.328   3.075 -0.4724  0.5380  0.8034
25587SOL    HW182853   0.233   0.316   3.086 -0.2799  1.2337 -0.0077
25587SOL    HW282854   0.121   0.299   2.986 -0.8257  1.4781  0.5572
25588SOL     OW82855   2.806   0.538   7.496 -0.2739  0.0010  0.3833
25588SOL    HW182856   2.790   0.619   7.446  1.5414  0.1191 -0.0693
25588SOL    HW282857   2.736   0.537   7.561 -1.5495  0.8710 -0.8879
25589SOL     OW82858  10.236   1.039   5.390  0.3013  0.0737  0.0582
25589SOL    HW182859  10.186   1.106   5.435  1.5526  0.4568  0.9343
25589SOL    HW282860  10.177   1.006   5.322 -0.6860  1.3427  0.2701
25590SOL     OW82861   6.193   5.106  10.280 -0.4876 -0.6782  0.3155
25590SOL    HW182862   6.250   5.127  10.206  0.0559  0.8842  1.1273
25590SOL    HW282863   6.212   5.015  10.300 -0.4280 -1.0538 -1.2603
25591SOL     OW82864   7.624   4.602   9.884 -0.0768 -0.1010 -0.1563
25591SOL    HW182865   7.529   4.595   9.899  0.0551 -0.1817  0.6792
25591SOL    HW282866   7.661   4.527   9.930  0.3035 -0.7574 -1.4883
25592SOL     OW82867   2.826   3.360   1.607  0.7002  0.5382 -0.2419
25592SOL    HW182868   2.753   3.383   1.665 -0.3645 -0.5021 -1.1075
25592SOL    HW282869   2.847   3.270   1.631  1.7047  0.8298 -0.0142
25593SOL     OW82870   4.017   9.984   1.441  0.3656 -0.4254 -0.0031
25593SOL    HW182871   4.062  10.068   1.454  0.3334 -0.3256 -0.5132
25593SOL    HW282872   3.976   9.966   1.525 -0.8164  0.7842 -0.2672
25594SOL     OW82873   9.187   3.868   2.285 -0.4213 -0.1505 -0.1491
25594SOL    HW182874   9.206   3.806   2.355 -0.3723  0.9473  0.8400
25594SOL    HW282875   9.269   3.875   2.236  0.0412  0.2808  0.6702
25595SOL     OW82876   9.059   2.403   2.393  0.0360 -0.0698  0.6121
25595SOL    HW182877   9.043   2.332   2.456 -0.8997  0.3127  0.8223
25595SOL    HW282878   9.152   2.422   2.402  0.3118 -1.2851  0.5329
25596SOL     OW82879   3.761   5.821   2.318  0.5445 -0.3395 -0.0831
25596SOL    HW182880   3.759   5.779   2.404  1.0131 -2.3814 -1.0078
25596SOL    HW282881   3.669   5.821   2.290  0.3081  0.8777  0.6367
25597SOL     OW82882   7.840   2.311   1.391  0.0427 -0.2172  0.0635
25597SOL    HW182883   7.758   2.301   1.439 -0.2071 -1.2768 -0.5601
25597SOL    HW282884   7.814   2.341   1.304  0.2020 -1.6781 -0.5101
25598SOL     OW82885   5.238  10.338   5.854 -0.1734  0.2182  0.1793
25598SOL    HW182886   5.254  10.281   5.779  1.3147  0.7083  0.0925
25598SOL    HW282887   5.244  10.427   5.819 -0.2834  0.4429  0.7178
25599SOL     OW82888   1.258   5.696  10.711 -0.5984 -0.2242  0.2823
25599SOL    HW182889   1.334   5.719  10.764 -0.2643  0.9466 -0.6718
25599SOL    HW282890   1.232   5.609  10.743 -0.2759  0.3302  2.1860
25600SOL     OW82891   6.176   4.753   1.696  0.5448  0.1078 -0.2256
25600SOL    HW182892   6.150   4.762   1.605 -0.5382  2.6262  0.2352
25600SOL    HW282893   6.095   4.728   1.741  0.8435 -0.1427  0.1832
25601SOL     OW82894   2.706   0.025   6.609  0.0772 -0.2209  0.1584
25601SOL    HW182895   2.689  -0.041   6.542 -0.0983  1.1368 -1.1810
25601SOL    HW282896   2.785   0.070   6.579 -0.5959  1.0841  0.2925
25602SOL     OW82897   6.526   0.277   8.200 -0.4146 -0.2458 -0.3161
25602SOL    HW182898   6.461   0.333   8.242  0.3938 -0.2219  0.9754
25602SOL    HW282899   6.534   0.311   8.111 -4.2001 -2.0148 -1.5197
25603SOL     OW82900   6.797   2.976   6.540 -0.3336  0.3493 -0.0769
25603SOL    HW182901   6.736   2.995   6.611  0.8544  1.5597  0.6745
25603SOL    HW282902   6.757   2.904   6.492 -1.2399 -0.4110  1.7315
25604SOL     OW82903   3.670   9.571   8.972 -0.1576  0.9133 -0.8824
25604SOL    HW182904   3.659   9.599   9.063  1.0943  0.3155 -0.5240
25604SOL    HW282905   3.585   9.588   8.932 -0.7380  1.1918  0.3952
25605SOL     OW82906   9.411   0.600   0.391 -0.0515 -0.4610  0.5083
25605SOL    HW182907   9.325   0.560   0.403 -0.2914 -0.2296 -0.3964
25605SOL    HW282908   9.393   0.688   0.358  0.4984 -1.7243 -3.8004
25606SOL     OW82909   1.778   7.666   0.419 -0.0127 -0.4876 -0.2415
25606SOL    HW182910   1.853   7.613   0.391  0.0761  0.3255 -1.6706
25606SOL    HW282911   1.704   7.629   0.371 -0.1837 -0.1227 -0.2576
25607SOL     OW82912   9.635   3.218   6.954 -0.5428  0.0108 -0.5298
25607SOL    HW182913   9.571   3.209   6.884 -0.1205 -0.1347 -0.9029
25607SOL    HW282914   9.717   3.188   6.915 -0.0691  1.0262 -0.3365
25608SOL     OW82915   7.447   3.709   6.017  0.3668  0.1476 -0.7207
25608SOL    HW182916   7.387   3.721   5.943 -1.6642 -0.6283  0.6955
25608SOL    HW282917   7.446   3.615   6.033  0.4132  0.3514  0.5600
25609SOL     OW82918   4.161   1.555   3.878 -0.1305  0.0646  0.3072
25609SOL    HW182919   4.117   1.640   3.875  0.9624  0.6618  0.8039
25609SOL    HW282920   4.094   1.493   3.849 -0.6301  1.2054 -1.1096
25610SOL     OW82921   0.414   7.890   4.043 -0.3135 -0.0367 -0.3455
25610SOL    HW182922   0.378   7.931   3.964  1.2316  0.2360 -0.9515
25610SOL    HW282923   0.432   7.800   4.017  0.0349  0.0075 -0.2635
25611SOL     OW82924   5.511   3.341   6.919  0.9725 -0.3852 -0.0056
25611SOL    HW182925   5.459   3.285   6.860 -0.4463  0.9650 -0.0930
25611SOL    HW282926   5.585   3.370   6.866 -0.3005  0.8397 -1.1893
25612SOL     OW82927   7.633   7.828  10.243 -0.0974  0.5547 -0.1560
25612SOL    HW182928   7.675   7.791  10.165 -1.0094  0.9416 -0.8407
25612SOL    HW282929   7.567   7.764  10.267  0.9533 -0.1315  1.0208
25613SOL     OW82930   5.132   9.837   9.793  0.3325  0.0242 -0.3498
25613SOL    HW182931   5.181   9.769   9.746 -0.4705 -1.1498  0.4575
25613SOL    HW282932   5.055   9.791   9.827 -1.0297  1.6890 -1.0813
25614SOL     OW82933   4.976   0.634   9.686  0.9486  0.8209 -0.2402
25614SOL    HW182934   4.905   0.625   9.623  0.4642 -0.4253  0.4460
25614SOL    HW282935   5.053   0.655   9.633  0.5171  0.0000 -1.2276
25615SOL     OW82936   7.022   7.915   7.655 -0.2085 -0.2062  0.8307
25615SOL    HW182937   6.967   7.993   7.659  0.0436  0.0073  0.2490
25615SOL    HW282938   6.968   7.850   7.612 -0.1261 -0.0980  0.5620
25616SOL     OW82939  10.097   0.479   1.256  0.1165  0.4228  0.0697
25616SOL    HW182940  10.132   0.568   1.258 -2.7344  1.6752  2.4656
25616SOL    HW282941  10.171   0.424   1.281  2.0136  2.0420 -1.6536
25617SOL     OW82942   5.363   0.220   4.398  0.5973 -0.4692  0.5189
25617SOL    HW182943   5.301   0.208   4.326  1.3947 -0.8314 -0.1313
25617SOL    HW282944   5.322   0.284   4.455  0.1896  0.2531 -0.5487
25618SOL     OW82945   1.267   0.656   9.107  0.4584 -0.6128 -0.2318
25618SOL    HW182946   1.257   0.615   9.193  0.0431 -0.2997 -0.1253
25618SOL    HW282947   1.182   0.697   9.090  0.2875 -1.3256 -1.1386
25619SOL     OW82948   0.165   6.384   5.046  0.1009  0.2700 -0.0457
25619SOL    HW182949   0.091   6.340   5.088 -0.2728  0.1475 -0.8204
25619SOL    HW282950   0.200   6.441   5.114 -0.4660  0.0395  0.4521
25620SOL     OW82951  10.274   6.391   0.549 -0.1772  0.0243 -0.0896
25620SOL    HW182952  10.252   6.376   0.641  0.9371  1.4222  0.4283
25620SOL    HW282953  10.348   6.451   0.551 -0.4652  0.4954 -1.9181
25621SOL     OW82954   8.677   3.073   9.096 -0.1801  0.3400  0.2510
25621SOL    HW182955   8.622   3.073   9.018 -0.4027  2.2659  0.3497
25621SOL    HW282956   8.754   3.022   9.071  0.4406  2.1268 -1.7886
25622SOL     OW82957   7.475   1.667   2.279 -0.2163 -0.3307 -0.1149
25622SOL    HW182958   7.494   1.748   2.231 -0.7983 -0.0746  0.0677
25622SOL    HW282959   7.485   1.598   2.215  0.0005 -0.0856 -0.3481
25623SOL     OW82960   8.520   2.081   0.052  0.5383 -0.1242  0.6880
25623SOL    HW182961   8.526   2.096   0.147  1.0932 -0.4642  0.7090
25623SOL    HW282962   8.427   2.089   0.033  0.2831 -1.0210  1.4346
25624SOL     OW82963   1.962   3.419   9.704  0.1182  0.1660 -0.1386
25624SOL    HW182964   1.965   3.446   9.612  0.1828 -0.3920 -0.2995
25624SOL    HW282965   1.901   3.481   9.744  0.9500  1.1177 -0.3145
25625SOL     OW82966   1.027   7.393   1.640  0.0847  0.5414 -0.1259
25625SOL    HW182967   1.059   7.478   1.610  1.1949  0.3006  0.3153
25625SOL    HW282968   1.070   7.330   1.583 -0.2995  0.2404 -0.0861
25626SOL     OW82969   0.005  10.046   8.869  0.1132 -0.0029  0.5155
25626SOL    HW182970  -0.041  10.037   8.785  1.5554  0.0138 -0.3139
25626SOL    HW282971   0.040   9.958   8.887  1.1958  0.3543  0.2394
25627SOL     OW82972   7.249  10.545   4.381 -0.2047  0.1605  0.2331
25627SOL    HW182973   7.254  10.453   4.407 -1.7066 -0.2365 -0.7676
25627SOL    HW282974   7.276  10.545   4.289  0.2529  0.8142  0.3578
25628SOL     OW82975   0.137   9.717  10.250  0.2729 -0.1664  0.9178
25628SOL    HW182976   0.074   9.714  10.179  0.5339 -1.4032  0.7071
25628SOL    HW282977   0.088   9.752  10.325 -0.3436 -0.0492  0.4626
25629SOL     OW82978   4.170   5.633   3.381  0.6012  0.6064  0.3545
25629SOL    HW182979   4.134   5.546   3.397  1.6454  0.4637  2.0425
25629SOL    HW282980   4.239   5.619   3.316  0.4387  0.2572  0.2541
25630SOL     OW82981  10.814   5.476   9.502  0.1371  0.2711  0.1665
25630SOL    HW182982  10.762   5.539   9.452  0.3988  0.3793  0.0288
25630SOL    HW282983  10.757   5.450   9.574 -0.2565  0.0971 -0.1972
25631SOL     OW82984   3.536   0.457   0.147 -0.7070 -0.1224  0.1772
25631SOL    HW182985   3.490   0.386   0.192  0.6554 -0.8598  0.4638
25631SOL    HW282986   3.477   0.483   0.077 -1.7131 -0.7851  0.7590
25632SOL     OW82987   7.939   7.464  10.841  0.3509  0.1440 -0.4492
25632SOL    HW182988   7.898   7.434  10.923  2.0163 -1.4288 -0.1303
25632SOL    HW282989   8.003   7.529  10.869 -0.2312  0.8276 -0.6926
25633SOL     OW82990   9.773   7.435   9.433  0.0969  0.1743 -0.4211
25633SOL    HW182991   9.848   7.465   9.484  0.3882  0.9533 -1.2689
25633SOL    HW282992   9.708   7.410   9.498  0.8685  0.0727  0.3243
25634SOL     OW82993   8.436   2.650   4.632  0.0938 -0.3333 -0.1377
25634SOL    HW182994   8.460   2.594   4.705  0.4658 -0.0359 -0.0272
25634SOL    HW282995   8.449   2.739   4.665 -0.5707 -0.1745 -0.2794
25635SOL     OW82996   1.047   9.731   5.239  0.5797  0.0846  0.5478
25635SOL    HW182997   1.034   9.727   5.334 -3.0076 -0.7121  0.1828
25635SOL    HW282998   1.077   9.643   5.216  2.5133  0.5821  0.9718
25636SOL     OW82999   0.262   8.706   2.038  0.6773  0.5767 -0.6854
25636SOL    HW183000   0.234   8.782   1.987  1.9073  1.6840  0.2242
25636SOL    HW283001   0.350   8.686   2.005  0.7735  0.2064 -0.2153
25637SOL     OW83002   3.922   7.098   0.736  0.1983  0.3659 -0.0543
25637SOL    HW183003   3.905   7.073   0.646  0.2856  0.0140  0.0261
25637SOL    HW283004   4.012   7.131   0.736 -0.0100  0.9429 -0.2137
25638SOL     OW83005   3.504  10.512   6.037 -0.4308  0.1695 -0.2616
25638SOL    HW183006   3.485  10.564   5.959 -2.3969  1.0817  0.7691
25638SOL    HW283007   3.420  10.477   6.064 -0.2829  1.8468  2.7907
25639SOL     OW83008   7.845   9.428   4.469  0.6598 -0.2386 -0.2976
25639SOL    HW183009   7.848   9.438   4.374 -0.4443  0.2469 -0.2949
25639SOL    HW283010   7.752   9.414   4.489  0.2252  3.6272  1.0921
25640SOL     OW83011  10.397  10.449   9.794  0.6210 -0.2684  0.1555
25640SOL    HW183012  10.483  10.454   9.836  0.5690  1.1393  0.1354
25640SOL    HW283013  10.380  10.355   9.786  1.7680 -0.5652  0.9389
25641SOL     OW83014   8.627   7.624   0.505 -0.4592 -0.0985 -0.5264
25641SOL    HW183015   8.643   7.559   0.574 -1.5216  0.2772  0.1026
25641SOL    HW283016   8.699   7.611   0.443 -0.4328 -1.6158 -0.2283
25642SOL     OW83017   6.889   4.359   0.504  0.1879 -0.3600  0.3223
25642SOL    HW183018   6.918   4.377   0.415 -1.1414  0.0468 -0.0404
25642SOL    HW283019   6.804   4.315   0.494  0.5348 -1.3247  1.3621
25643SOL     OW83020  10.911   9.445   0.513 -0.1893 -0.5353 -0.4585
25643SOL    HW183021  10.897   9.364   0.463  2.1871 -1.7657  0.7096
25643SOL    HW283022  10.895   9.419   0.604  1.2365  0.1147 -0.0033
25644SOL     OW83023   2.957  10.582   7.373 -0.3907  0.2781 -0.6190
25644SOL    HW183024   2.885  10.563   7.312 -1.5870  0.9254  0.5392
25644SOL    HW283025   3.036  10.564   7.323 -1.3011 -3.5023 -1.0311
25645SOL     OW83026   4.067   8.277   4.676 -0.2380  0.0994 -0.0594
25645SOL    HW183027   4.161   8.266   4.691  0.0188  0.7444 -1.0442
25645SOL    HW283028   4.054   8.248   4.585 -0.6151  1.8903 -0.6135
25646SOL     OW83029   3.817   3.832   1.123 -0.4413 -0.6096  0.3511
25646SOL    HW183030   3.771   3.806   1.043 -0.9987  0.6039  0.2676
25646SOL    HW283031   3.833   3.925   1.113  1.1220 -0.8032  0.8536
25647SOL     OW83032   2.623   5.705   0.765  0.8215 -0.3890  0.0401
25647SOL    HW183033   2.553   5.705   0.830 -0.2124  0.9636 -1.0158
25647SOL    HW283034   2.698   5.743   0.811 -0.2882  1.8782  0.0962
25648SOL     OW83035   0.421   5.351   7.296 -0.1767 -0.1968 -0.1387
25648SOL    HW183036   0.337   5.304   7.299 -0.2720 -0.0213 -0.0436
25648SOL    HW283037   0.486   5.286   7.320 -0.3315 -0.2234  0.2081
25649SOL     OW83038   3.290   3.636   6.254  0.1342  0.6425  0.2508
25649SOL    HW183039   3.366   3.673   6.210  0.1013 -0.5686 -0.9043
25649SOL    HW283040   3.326   3.568   6.311 -0.0669  0.0035 -0.3682
25650SOL     OW83041   2.839   7.686   4.801  0.2627  0.3383  0.1899
25650SOL    HW183042   2.884   7.769   4.816 -0.5984  0.5813  1.7087
25650SOL    HW283043   2.766   7.687   4.863  0.3089 -1.6159  0.3498
25651SOL     OW83044   3.724   7.174   9.766 -0.1880  0.4956 -0.4606
25651SOL    HW183045   3.644   7.121   9.766  2.1922 -3.6862  2.7555
25651SOL    HW283046   3.697   7.257   9.805 -3.0568 -0.4989 -0.0709
25652SOL     OW83047   8.316   0.859   2.887 -0.2632  0.5193 -0.0809
25652SOL    HW183048   8.258   0.920   2.933 -0.0367  0.3516  0.4291
25652SOL    HW283049   8.380   0.915   2.842 -0.5113  0.6834 -0.2313
25653SOL     OW83050   4.091  10.397   8.497 -0.0688 -0.2975 -0.6857
25653SOL    HW183051   4.064  10.338   8.567 -0.2998 -0.0252 -0.5408
25653SOL    HW283052   4.009  10.436   8.465  0.2195  1.7834  0.8592
25654SOL     OW83053   1.014   8.027   0.730  0.2067  0.3813  0.4305
25654SOL    HW183054   1.028   8.116   0.761  0.7635  2.4460 -4.6634
25654SOL    HW283055   0.939   8.034   0.671  1.9772 -1.6817 -2.3648
25655SOL     OW83056  10.295   8.559   1.623 -0.1897  0.3389 -1.0277
25655SOL    HW183057  10.340   8.540   1.541 -0.2687  0.9541 -1.2140
25655SOL    HW283058  10.274   8.473   1.659  2.5427 -0.0542 -0.1283
25656SOL     OW83059   6.503   4.843   9.515 -0.9974 -0.4845  0.2972
25656SOL    HW183060   6.593   4.840   9.482 -0.4658  0.6655  1.5136
25656SOL    HW283061   6.450   4.808   9.444  0.4477 -1.5452 -0.3125
25657SOL     OW83062   5.033   3.583   3.904 -0.0307  0.0400 -0.4751
25657SOL    HW183063   4.978   3.638   3.849 -0.0001 -1.6751 -2.3520
25657SOL    HW283064   4.972   3.541   3.965 -1.2218 -2.7763 -3.3069
25658SOL     OW83065   3.863   7.808   9.421 -0.7319 -0.0198  0.1414
25658SOL    HW183066   3.806   7.762   9.482 -1.1884  1.9536  1.2884
25658SOL    HW283067   3.945   7.821   9.469 -0.0973 -0.8774 -0.6880
25659SOL     OW83068   8.485   9.108   6.586  0.1855  0.0136 -0.4563
25659SOL    HW183069   8.569   9.143   6.556  0.0513 -1.0830 -2.2916
25659SOL    HW283070   8.437   9.184   6.618  1.2482  0.9119 -0.9394
25660SOL     OW83071   8.100   3.242   5.083 -0.1484 -0.1512  0.5958
25660SOL    HW183072   8.042   3.318   5.089  0.5625  0.3994  0.6486
25660SOL    HW283073   8.132   3.230   5.172  1.7477  1.1119  0.1402
25661SOL     OW83074   8.085   7.829   4.404  0.4648 -0.2283 -0.0472
25661SOL    HW183075   8.167   7.867   4.433 -0.6647  1.0265  1.6742
25661SOL    HW283076   8.059   7.769   4.474 -1.3794  1.4489  0.8247
25662SOL     OW83077   6.040   9.981   6.887 -0.9189  0.8915 -0.3104
25662SOL    HW183078   5.964   9.927   6.906  0.6663 -1.4438 -0.1939
25662SOL    HW283079   6.010  10.043   6.820 -2.6465 -0.5981 -0.9698
25663SOL     OW83080   4.476   9.350   9.740  0.2898 -0.0300 -0.2882
25663SOL    HW183081   4.380   9.353   9.738  0.3034  3.1928 -0.7612
25663SOL    HW283082   4.504   9.416   9.677  2.8718 -1.1450 -0.4346
25664SOL     OW83083   8.057   4.593   0.303 -0.0593  0.3656 -0.2574
25664SOL    HW183084   8.138   4.622   0.345 -0.4443  0.6600  0.2927
25664SOL    HW283085   8.041   4.506   0.340  0.7226 -0.2855 -1.3864
25665SOL     OW83086   8.758   1.633   0.272 -0.6766  0.4992  0.4588
25665SOL    HW183087   8.800   1.599   0.193 -1.5349 -0.9605  0.6067
25665SOL    HW283088   8.831   1.668   0.324  0.1719 -0.5440  0.0092
25666SOL     OW83089   8.238   5.922   6.627 -0.2424  0.2733  0.0797
25666SOL    HW183090   8.244   5.830   6.653  0.6287  0.1496 -0.5339
25666SOL    HW283091   8.312   5.965   6.671  0.4740  0.3097 -1.1045
25667SOL     OW83092   6.198   6.438   8.188 -0.3520 -0.2807 -0.1036
25667SOL    HW183093   6.269   6.381   8.218 -0.5003 -0.3012  0.2150
25667SOL    HW283094   6.241   6.503   8.133 -0.2673 -1.0922 -1.0269
25668SOL     OW83095   0.702   7.534   4.418 -0.0423 -0.1628 -0.1475
25668SOL    HW183096   0.749   7.594   4.359 -1.2331 -1.0228 -2.0859
25668SOL    HW283097   0.621   7.581   4.440  0.9916  0.7151  1.9877
25669SOL     OW83098   1.903   3.892   7.397  0.0631  0.3404 -0.7977
25669SOL    HW183099   1.991   3.901   7.433 -0.7446 -1.3816  1.8995
25669SOL    HW283100   1.882   3.799   7.406 -2.2340  0.7883 -0.8207
25670SOL     OW83101   9.355   1.258   9.749  0.2513  0.6015 -0.5906
25670SOL    HW183102   9.431   1.315   9.741  1.0792 -0.6006 -1.8486
25670SOL    HW283103   9.281   1.317   9.753  1.2670  1.8473  1.4383
25671SOL     OW83104  10.900   9.884   3.075 -0.1469  0.2620  0.1978
25671SOL    HW183105  10.977   9.853   3.027 -0.1642 -0.4313  0.6021
25671SOL    HW283106  10.866   9.805   3.118 -0.7381  0.6769  0.4984
25672SOL     OW83107   6.477   2.791   5.633  0.9439  0.5140 -0.0495
25672SOL    HW183108   6.529   2.749   5.702  0.1881  0.4941  0.5133
25672SOL    HW283109   6.389   2.756   5.644  1.0939 -0.6007 -1.9421
25673SOL     OW83110   7.125   5.366   4.944  0.1029  0.2926 -0.0000
25673SOL    HW183111   7.190   5.407   5.001  1.4923  0.4768 -1.6465
25673SOL    HW283112   7.150   5.274   4.942 -0.9248 -0.0265  0.9366
25674SOL     OW83113   0.202   8.734   3.718 -0.7293  0.2342 -0.0263
25674SOL    HW183114   0.278   8.677   3.705 -0.3806  0.7710 -0.3648
25674SOL    HW283115   0.126   8.676   3.706 -0.4299 -0.8569  2.5516
25675SOL     OW83116   6.584   1.179   6.082  0.2500 -0.1856  0.1682
25675SOL    HW183117   6.535   1.140   6.154 -0.3240  1.5814  0.7850
25675SOL    HW283118   6.529   1.164   6.005 -1.1925  1.5166  0.8045
25676SOL     OW83119   3.379   3.202   1.467 -0.3226  0.3670  0.4250
25676SOL    HW183120   3.325   3.267   1.422  0.2310 -0.9617 -2.4134
25676SOL    HW283121   3.320   3.127   1.477 -0.2489  0.4325  1.4155
25677SOL     OW83122   6.052   6.886   1.857  0.4620 -0.4158  0.2231
25677SOL    HW183123   6.050   6.922   1.946  0.3434  0.4931 -0.1369
25677SOL    HW283124   5.999   6.806   1.863 -0.6107  0.3053  0.6887
25678SOL     OW83125   5.455   3.822   8.457  0.3788  0.6606 -0.5741
25678SOL    HW183126   5.382   3.884   8.465 -0.0277  0.1995 -0.6237
25678SOL    HW283127   5.412   3.737   8.450  0.9294  0.3860 -0.6115
25679SOL     OW83128   4.318  10.767   1.888 -0.2427  0.1592 -0.1254
25679SOL    HW183129   4.227  10.795   1.872  0.0418  0.2114 -1.9305
25679SOL    HW283130   4.356  10.837   1.940 -1.1163  0.3628  0.2578
25680SOL     OW83131   2.291   0.797   0.716  0.2985  0.0423 -0.6501
25680SOL    HW183132   2.231   0.725   0.696 -0.5627  0.9083 -1.3069
25680SOL    HW283133   2.248   0.874   0.679  1.9155  0.6699 -1.3164
25681SOL     OW83134   5.009   6.661   6.415 -0.3319 -0.0167  0.3229
25681SOL    HW183135   4.966   6.687   6.333 -0.5683  0.7329  0.6768
25681SOL    HW283136   4.954   6.590   6.449  0.7935 -1.6593 -1.0824
25682SOL     OW83137   3.966   8.404   9.500 -0.1131 -0.2011 -0.4883
25682SOL    HW183138   3.951   8.393   9.594 -0.6715  1.5960 -0.3303
25682SOL    HW283139   4.061   8.401   9.491 -0.0984 -2.7268 -0.2371
25683SOL     OW83140   1.957   2.913   0.309  0.0696  0.5787 -0.1943
25683SOL    HW183141   2.022   2.966   0.262  0.5825 -0.4613 -0.6962
25683SOL    HW283142   1.984   2.918   0.401 -0.4473  1.9410 -0.1007
25684SOL     OW83143   7.663   5.188   5.024  0.0154 -0.3081  0.0714
25684SOL    HW183144   7.656   5.277   4.988  0.0551  0.0368  0.8887
25684SOL    HW283145   7.655   5.131   4.948 -1.5628  0.3480 -0.2951
25685SOL     OW83146   2.472   8.646   3.424 -0.4607  0.7143 -0.0252
25685SOL    HW183147   2.499   8.727   3.466  1.9577 -0.7224  1.4451
25685SOL    HW283148   2.525   8.642   3.344 -0.3039  0.4239  0.0920
25686SOL     OW83149   6.660   2.204   7.599 -0.4172 -0.6104 -0.2590
25686SOL    HW183150   6.627   2.150   7.527 -2.9208  0.9277 -0.3844
25686SOL    HW283151   6.701   2.279   7.555 -0.9008 -0.2473 -0.0956
25687SOL     OW83152   4.697   0.538   7.402  0.2073 -0.0532 -0.5844
25687SOL    HW183153   4.765   0.496   7.454  0.2545 -0.7253 -1.1788
25687SOL    HW283154   4.722   0.521   7.311 -0.7053 -0.2295 -0.8103
25688SOL     OW83155   7.453   9.064   2.559  0.8883 -0.1579 -0.3389
25688SOL    HW183156   7.459   9.045   2.652 -1.9395 -0.3665 -0.0859
25688SOL    HW283157   7.396   8.995   2.524  1.1281  0.4398 -2.0175
25689SOL     OW83158   0.028   0.482   8.884  0.4016 -0.1405 -0.3599
25689SOL    HW183159   0.085   0.421   8.929  0.3792  0.2504  0.2121
25689SOL    HW283160  -0.038   0.427   8.841 -0.3780 -0.4797  1.1944
25690SOL     OW83161   3.775   6.097   1.239  0.2019 -1.1142  0.0402
25690SOL    HW183162   3.801   6.009   1.211  2.6852  0.5256 -3.4882
25690SOL    HW283163   3.849   6.129   1.291 -0.1268 -0.6167  0.2159
25691SOL     OW83164  10.213   0.720   6.354 -0.6675  0.6596  0.0451
25691SOL    HW183165  10.260   0.742   6.434  1.2576  2.1292 -1.4152
25691SOL    HW283166  10.231   0.627   6.340 -0.7257  0.4758  1.0851
25692SOL     OW83167   0.250   2.410   8.176 -0.4032 -0.3425 -0.0047
25692SOL    HW183168   0.196   2.480   8.212  1.7725  1.9293 -0.8868
25692SOL    HW283169   0.315   2.455   8.122  0.8425 -3.1043 -0.9912
25693SOL     OW83170   1.795   9.644   9.520 -0.2732  0.1857  0.6827
25693SOL    HW183171   1.733   9.702   9.564 -1.7053 -1.2274  0.6109
25693SOL    HW283172   1.740   9.582   9.472  1.1984 -1.4438  1.0210
25694SOL     OW83173  10.518   8.249   6.138  0.0324  0.0896  0.1990
25694SOL    HW183174  10.583   8.236   6.069  0.2695 -0.3189  0.4996
25694SOL    HW283175  10.528   8.341   6.163  3.1384 -0.7767  2.8641
25695SOL     OW83176   7.064   9.305   5.430 -0.0470  0.3288 -0.2572
25695SOL    HW183177   7.004   9.313   5.355 -0.3018  0.9085  0.0006
25695SOL    HW283178   7.139   9.360   5.406  0.8198 -1.1011 -0.9778
25696SOL     OW83179  10.305  10.228  10.612  0.0072 -0.4290  0.2573
25696SOL    HW183180  10.345  10.233  10.699  1.7668 -2.7735 -0.3392
25696SOL    HW283181  10.377  10.242  10.551 -0.9186 -0.3490 -0.8560
25697SOL     OW83182   3.210   4.058   3.729 -0.5066 -0.4017  0.0261
25697SOL    HW183183   3.239   4.145   3.757  1.4085 -0.5083 -1.4536
25697SOL    HW283184   3.263   3.997   3.780 -0.2853 -0.6632 -0.5155
25698SOL     OW83185   0.739   0.745   8.830 -0.0161  0.0498 -0.0160
25698SOL    HW183186   0.732   0.831   8.789 -0.3670  0.4103  0.7874
25698SOL    HW283187   0.706   0.684   8.763  2.2391  0.2661 -1.4366
25699SOL     OW83188   5.951   7.501   4.830 -0.1945  0.1600  0.2001
25699SOL    HW183189   5.950   7.558   4.754 -0.8252 -0.1338 -0.0258
25699SOL    HW283190   5.968   7.414   4.795  3.3395  0.4770  0.7895
25700SOL     OW83191   1.165   7.930   2.049  0.2093 -0.6688  0.0275
25700SOL    HW183192   1.098   7.955   2.113  0.4353 -1.3044  0.5301
25700SOL    HW283193   1.151   7.988   1.975  0.4960  0.6747  1.0015
25701SOL     OW83194   2.164   7.969   0.786 -0.0147  0.1363  0.7927
25701SOL    HW183195   2.149   7.875   0.797  0.9279 -0.3867 -1.6588
25701SOL    HW283196   2.259   7.978   0.787 -0.0687  0.8882 -0.0145
25702SOL     OW83197   9.982   2.253   2.632 -0.1261 -0.1899  0.2798
25702SOL    HW183198   9.907   2.251   2.572  1.7040 -1.7108 -2.1364
25702SOL    HW283199  10.020   2.340   2.620 -0.3563 -0.1271 -0.0081
25703SOL     OW83200   7.403   2.207  10.700  0.2080  0.2664 -0.3031
25703SOL    HW183201   7.383   2.297  10.729  0.5572  0.2916 -0.1429
25703SOL    HW283202   7.327   2.183  10.647 -0.7859 -0.0412  1.2013
25704SOL     OW83203  10.478   0.008  10.699 -0.0112 -0.0409 -0.5263
25704SOL    HW183204  10.413   0.077  10.691  0.7866  0.5278 -2.9464
25704SOL    HW283205  10.430  -0.073  10.681 -0.4883  0.1209  0.0025
25705SOL     OW83206   2.359   6.250   4.343 -0.3798 -0.1157  0.0359
25705SOL    HW183207   2.316   6.210   4.267  0.7266 -0.5110 -0.4106
25705SOL    HW283208   2.445   6.277   4.309  0.0170 -0.0395  1.0806
25706SOL     OW83209  10.317   3.605   2.799  0.3699  0.1679  0.0918
25706SOL    HW183210  10.268   3.682   2.828 -1.0959 -0.8792  0.5069
25706SOL    HW283211  10.298   3.598   2.706  0.1392  0.0536  0.1469
25707SOL     OW83212   0.360  10.047   7.931 -0.1427 -0.1985 -0.1464
25707SOL    HW183213   0.354   9.952   7.945 -2.5305 -0.2056 -0.9054
25707SOL    HW283214   0.427  10.057   7.863  1.9015 -1.0961  1.5963
25708SOL     OW83215   6.674   0.852   4.623  0.0183  0.6947  0.6022
25708SOL    HW183216   6.684   0.798   4.545  2.3080 -0.1119  1.3665
25708SOL    HW283217   6.704   0.797   4.695 -1.9152  1.4411  2.1060
25709SOL     OW83218   8.934   7.985   4.727  0.2023 -0.7333  0.2949
25709SOL    HW183219   8.938   8.044   4.652  0.7036 -1.3045 -0.1430
25709SOL    HW283220   8.900   7.903   4.692 -0.5259 -0.7008  0.9036
25710SOL     OW83221   9.672   9.324   1.021  0.1101  0.2685  0.3869
25710SOL    HW183222   9.698   9.348   0.932  1.0225 -2.3742 -0.1530
25710SOL    HW283223   9.741   9.360   1.076  1.5897 -1.1507 -0.4161
25711SOL     OW83224  10.131   0.264   8.305 -0.4701 -0.0831 -0.7971
25711SOL    HW183225  10.221   0.294   8.317 -0.4112 -0.6270  0.1734
25711SOL    HW283226  10.084   0.298   8.381 -1.4124  1.3706 -1.9784
25712SOL     OW83227   6.359   9.024   6.598  0.0381 -0.0318  0.1261
25712SOL    HW183228   6.297   9.093   6.622  1.0072  0.6352  0.7881
25712SOL    HW283229   6.393   9.051   6.512 -0.5169 -0.3620 -0.2045
25713SOL     OW83230   5.553   6.862   6.762  0.1720  0.0121 -0.9331
25713SOL    HW183231   5.568   6.948   6.725  0.9742  0.5717  0.6307
25713SOL    HW283232   5.636   6.816   6.752  0.6938  0.4751  0.8648
25714SOL     OW83233   5.535   7.605   5.347  0.0467 -0.1944  0.3183
25714SOL    HW183234   5.512   7.534   5.407  3.3744 -0.8213  1.0455
25714SOL    HW283235   5.624   7.629   5.371  0.4552  1.5657 -2.4828
25715SOL     OW83236   4.187  10.118   0.830 -0.6523 -0.2493 -0.4260
25715SOL    HW183237   4.130  10.056   0.874  0.0965  0.3265  1.4463
25715SOL    HW283238   4.141  10.202   0.836  0.8796  0.4881  2.2801
25716SOL     OW83239   9.399   2.529  10.494  0.3507 -0.3181 -0.1606
25716SOL    HW183240   9.330   2.552  10.431  0.9285 -0.3824 -0.8347
25716SOL    HW283241   9.358   2.540  10.580  0.2495  2.1832 -0.4573
25717SOL     OW83242   9.325  10.861   1.467 -0.2825  0.4820  0.0878
25717SOL    HW183243   9.284  10.940   1.431  0.1916  0.5771 -0.2551
25717SOL    HW283244   9.419  10.877   1.458 -0.1734  0.1294  0.5694
25718SOL     OW83245   3.310  10.644   9.375  0.5662 -0.6730  0.1217
25718SOL    HW183246   3.340  10.724   9.418  1.0536 -0.7466 -0.0717
25718SOL    HW283247   3.383  10.582   9.385  0.7325 -0.6634 -0.8802
25719SOL     OW83248   4.857   3.738   0.856 -0.1856  0.2137 -0.4438
25719SOL    HW183249   4.941   3.692   0.852 -0.8180 -1.0355  0.2369
25719SOL    HW283250   4.793   3.670   0.876 -1.7151  0.7385 -3.0951
25720SOL     OW83251   0.783   0.372   2.048  0.0191 -0.4659 -0.6268
25720SOL    HW183252   0.860   0.317   2.064  0.7710  1.1232  1.9178
25720SOL    HW283253   0.712   0.311   2.033  1.2111 -2.0912  0.0039
25721SOL     OW83254   8.824   7.202   4.224 -0.0456 -0.1612  0.2433
25721SOL    HW183255   8.761   7.199   4.296  0.3201  0.7121  0.6202
25721SOL    HW283256   8.790   7.269   4.165 -1.5384 -2.4030 -1.5899
25722SOL     OW83257   4.659   0.061   5.694 -0.2052 -0.4935 -0.1567
25722SOL    HW183258   4.628   0.087   5.781 -0.6319  0.4114 -0.5632
25722SOL    HW283259   4.597  -0.005   5.664  0.0699 -0.9681  0.3163
25723SOL     OW83260   5.094   0.612  10.143  0.2834 -1.0051  0.0303
25723SOL    HW183261   5.031   0.684  10.143 -1.1715 -2.2307  0.3305
25723SOL    HW283262   5.095   0.580  10.233  1.3939 -0.9701  0.0418
25724SOL     OW83263   9.037   7.269  10.193 -0.0200  0.1688 -0.7975
25724SOL    HW183264   9.111   7.212  10.176 -1.1655 -1.3349 -0.9122
25724SOL    HW283265   8.998   7.285  10.108  0.7149  1.7729 -0.8640
25725SOL     OW83266   1.140  10.133   3.142  0.0245 -0.1949  0.2801
25725SOL    HW183267   1.131  10.063   3.206  0.6940 -1.0416 -0.5440
25725SOL    HW283268   1.073  10.114   3.076  0.1547 -0.0117  0.0931
25726SOL     OW83269   5.538  10.367   2.535  0.0645 -0.1161  0.0137
25726SOL    HW183270   5.548  10.279   2.570  2.3337  1.2532  3.2809
25726SOL    HW283271   5.566  10.359   2.444  2.3637 -2.4181  0.8003
25727SOL     OW83272  10.134   9.069   2.606 -0.3980 -0.2458 -0.0279
25727SOL    HW183273  10.229   9.082   2.603 -0.4349 -0.0830 -1.4846
25727SOL    HW283274  10.105   9.127   2.676  0.6268 -0.7679  0.8723
25728SOL     OW83275   0.360   0.506   6.625  0.0767  0.1789 -0.6141
25728SOL    HW183276   0.367   0.412   6.607 -0.7017  0.0737 -0.3877
25728SOL    HW283277   0.268   0.520   6.646  0.4495  0.7455  0.7796
25729SOL     OW83278   4.256   3.720   2.182 -0.4755  0.4656 -0.1042
25729SOL    HW183279   4.220   3.645   2.230 -0.3155 -0.7101 -1.7402
25729SOL    HW283280   4.240   3.795   2.239 -3.4226 -0.3415  0.3007
25730SOL     OW83281   0.266   6.334   8.897  0.6924 -0.3124 -0.3499
25730SOL    HW183282   0.288   6.243   8.919  0.8702 -0.2270 -0.1714
25730SOL    HW283283   0.186   6.352   8.946  1.7812  0.2913  1.2879
25731SOL     OW83284   9.544   9.618  10.867  0.8281 -0.1069  0.2749
25731SOL    HW183285   9.593   9.641  10.788  1.3452  0.3062  0.7037
25731SOL    HW283286   9.572   9.529  10.888  0.9679 -0.0818  0.1926
25732SOL     OW83287   6.724   0.636   7.996 -0.3360 -0.3169 -0.1644
25732SOL    HW183288   6.696   0.690   8.070  1.5577  1.6995 -0.8093
25732SOL    HW283289   6.649   0.638   7.936 -1.5351 -1.2028  1.2208
25733SOL     OW83290   5.389   9.883   1.525  0.0771 -0.5505  0.1474
25733SOL    HW183291   5.380   9.921   1.438 -0.1162  0.6359  0.6590
25733SOL    HW283292   5.303   9.846   1.544 -0.5970  1.1673  0.6916
25734SOL     OW83293   6.616   4.563   7.656  0.6053 -0.2531  0.2622
25734SOL    HW183294   6.658   4.505   7.592 -0.8781 -1.8808  0.7159
25734SOL    HW283295   6.584   4.637   7.603  2.6913  0.3303 -0.2902
25735SOL     OW83296   5.059   3.101   8.025 -0.0487 -0.0571 -0.0532
25735SOL    HW183297   5.011   3.022   8.002  1.8203 -2.0887  2.4120
25735SOL    HW283298   5.097   3.131   7.942 -2.1210 -0.7231 -1.3257
25736SOL     OW83299   2.296   7.650   3.047 -0.3378  0.1206  0.5819
25736SOL    HW183300   2.376   7.643   3.099  0.4815  1.8408 -0.4023
25736SOL    HW283301   2.288   7.564   3.005  0.2572 -0.5101  1.6975
25737SOL     OW83302   0.250   3.688   6.133 -0.4376 -0.5608  0.4519
25737SOL    HW183303   0.175   3.632   6.115  0.0675 -1.0996  0.0049
25737SOL    HW283304   0.253   3.748   6.059  0.5489 -1.6048 -0.3846
25738SOL     OW83305   9.467   6.056   9.359 -0.0732 -0.3183  0.2271
25738SOL    HW183306   9.393   6.083   9.414  0.0495  0.2612  0.1065
25738SOL    HW283307   9.539   6.044   9.420 -0.2784 -0.9482  0.3544
25739SOL     OW83308   1.294   2.988   4.486 -0.0440 -0.0569 -0.0702
25739SOL    HW183309   1.329   2.980   4.574 -2.5665  1.5191  1.2060
25739SOL    HW283310   1.245   3.070   4.488 -0.3264 -0.0702 -2.9095
25740SOL     OW83311   8.384  10.797   8.870  0.1634  0.1214 -0.2801
25740SOL    HW183312   8.415  10.886   8.889  2.5827 -0.6923 -0.1275
25740SOL    HW283313   8.374  10.795   8.775  0.2258  0.5057 -0.2990
25741SOL     OW83314   5.481   0.878   2.393  0.4820  0.4436  0.3191
25741SOL    HW183315   5.478   0.845   2.483  1.1222 -2.4670 -0.6218
25741SOL    HW283316   5.574   0.881   2.372  0.3030  0.0643 -0.5791
25742SOL     OW83317   0.936   4.414   7.458  0.8836  0.3767  0.3494
25742SOL    HW183318   0.866   4.471   7.490  0.3337  0.8972 -1.6598
25742SOL    HW283319   0.985   4.468   7.397  0.7821 -1.0525 -1.0641
25743SOL     OW83320  10.728   4.983   7.886 -0.0390  0.3044  0.2540
25743SOL    HW183321  10.652   4.927   7.875 -1.0577  1.5250  0.8398
25743SOL    HW283322  10.735   4.998   7.980  0.9519  0.1925  0.2150
25744SOL     OW83323   4.148  10.311   7.512 -0.0436  0.8611  0.5580
25744SOL    HW183324   4.087  10.272   7.575 -0.4218  0.7223  0.1082
25744SOL    HW283325   4.233  10.309   7.556  0.4220 -2.4347 -0.2368
25745SOL     OW83326   6.215   0.840   1.578 -0.0609 -0.5116 -0.2367
25745SOL    HW183327   6.204   0.782   1.502 -1.7046  0.1206 -0.5388
25745SOL    HW283328   6.306   0.869   1.574 -0.0429 -0.7131 -1.8191
25746SOL     OW83329   4.525   9.469   8.887  0.2452 -0.6158  0.0471
25746SOL    HW183330   4.457   9.434   8.830 -0.4257  0.9925 -0.1859
25746SOL    HW283331   4.478   9.526   8.948  1.3522  0.3399  0.0376
25747SOL     OW83332   7.668   3.855   6.778 -0.0161  1.0864 -0.3552
25747SOL    HW183333   7.712   3.871   6.694  0.8627  0.8105  0.0400
25747SOL    HW283334   7.683   3.936   6.828 -0.4018  1.1877 -0.3994
25748SOL     OW83335   5.270   3.067  10.096 -0.2157  0.3778 -0.0297
25748SOL    HW183336   5.359   3.085  10.064 -0.8566  2.2785 -0.8740
25748SOL    HW283337   5.213   3.086  10.021 -1.3153 -1.7343  0.1881
25749SOL     OW83338  10.243   9.339   9.193  0.1250 -0.0905 -0.1741
25749SOL    HW183339  10.265   9.247   9.178  1.0214 -0.2065  1.5752
25749SOL    HW283340  10.156   9.349   9.154  0.1176 -1.6026 -0.6263
25750SOL     OW83341   1.304   0.797   1.095 -0.0318 -0.0304  0.4294
25750SOL    HW183342   1.238   0.761   1.154  0.4422  0.4777  1.2882
25750SOL    HW283343   1.259   0.804   1.011 -0.9834  0.0086  0.9227
25751SOL     OW83344   7.530   7.438   5.225  0.1296  0.2934  0.2155
25751SOL    HW183345   7.536   7.516   5.169 -0.9073 -1.2199 -2.1769
25751SOL    HW283346   7.509   7.472   5.312 -1.0172  2.6418 -0.9025
25752SOL     OW83347   4.625   3.291   0.392  0.0466 -0.7358 -0.1730
25752SOL    HW183348   4.621   3.205   0.434 -0.4363 -0.3379  0.6258
25752SOL    HW283349   4.537   3.327   0.403  0.0745 -0.3939 -1.0533
25753SOL     OW83350   2.815   4.083   8.335  0.3152  0.0513 -0.0400
25753SOL    HW183351   2.788   3.993   8.321  0.5423 -0.0688  0.2758
25753SOL    HW283352   2.857   4.083   8.421 -0.8927  0.7299  0.5673
25754SOL     OW83353   4.816   5.511   2.639 -0.1354  0.2540 -0.1967
25754SOL    HW183354   4.827   5.581   2.703  0.7865 -0.0707  0.0168
25754SOL    HW283355   4.738   5.535   2.590 -1.1803  0.2690  1.3705
25755SOL     OW83356  10.882   5.128   0.765  0.1485  0.2518 -0.0959
25755SOL    HW183357  10.907   5.090   0.850 -0.1277  2.4803  1.0756
25755SOL    HW283358  10.954   5.106   0.707  0.5960 -0.9069  0.8471
25756SOL     OW83359   8.593   0.324   9.964  0.2927 -0.6579  0.0053
25756SOL    HW183360   8.599   0.282   9.878  0.3788  0.1404 -0.3895
25756SOL    HW283361   8.683   0.327   9.996  0.7671  1.8658 -1.2905
25757SOL     OW83362   3.592   2.146   3.703  0.1011  0.7609 -0.3746
25757SOL    HW183363   3.656   2.211   3.735  0.9210  0.4589 -1.3530
25757SOL    HW283364   3.602   2.072   3.763 -1.3280  1.7409  1.1795
25758SOL     OW83365   2.892  10.421   3.264 -0.0665  0.1133 -0.5692
25758SOL    HW183366   2.889  10.512   3.293 -0.2080 -0.0212 -0.1586
25758SOL    HW283367   2.819  10.379   3.309  0.9061 -0.5531  0.4358
25759SOL     OW83368   6.832   5.732   0.271  0.6240  0.0957 -0.4379
25759SOL    HW183369   6.739   5.755   0.269  0.7658  0.6421 -1.0452
25759SOL    HW283370   6.841   5.677   0.349 -0.2727 -0.2729 -0.5850
25760SOL     OW83371   8.655   1.358   3.872 -0.1853  0.1631 -0.1960
25760SOL    HW183372   8.566   1.373   3.903 -0.5681  1.1445 -1.6485
25760SOL    HW283373   8.666   1.263   3.877 -0.8581  0.1330  1.1294
25761SOL     OW83374  10.597   7.991   2.842 -0.0313 -0.3104 -0.8707
25761SOL    HW183375  10.599   8.079   2.803  0.2935 -0.1721 -0.5492
25761SOL    HW283376  10.639   7.935   2.777  1.3808  0.0800 -0.3467
25762SOL     OW83377   8.820   3.070   5.848 -0.0277 -0.3623 -0.0457
25762SOL    HW183378   8.804   3.021   5.929  1.2323  0.5910  0.8234
25762SOL    HW283379   8.890   3.021   5.804 -0.5490 -0.7504 -0.4470
25763SOL     OW83380   7.154   1.786   7.712  0.0832 -0.3712  0.3895
25763SOL    HW183381   7.223   1.848   7.733  0.2951 -0.8362  1.1079
25763SOL    HW283382   7.083   1.808   7.773 -0.4497  0.1539 -0.3909
25764SOL     OW83383   1.906   8.273   4.375 -0.3784 -0.5503 -0.0476
25764SOL    HW183384   1.963   8.197   4.380 -0.6373 -0.8441 -1.1881
25764SOL    HW283385   1.967   8.347   4.367 -0.1070 -0.5205  1.8818
25765SOL     OW83386   4.550   2.645   0.286  0.0453  0.4854 -0.6220
25765SOL    HW183387   4.537   2.681   0.199 -2.0860  2.0546  0.2477
25765SOL    HW283388   4.521   2.554   0.279 -0.9364  0.8364 -1.3729
25766SOL     OW83389   6.250  10.406   8.026 -0.0330  0.4094  0.4355
25766SOL    HW183390   6.229  10.480   7.970  1.1463  0.9360  0.6581
25766SOL    HW283391   6.167  10.358   8.036 -0.2916  0.3808 -1.5962
25767SOL     OW83392   2.585   8.312   9.418  0.2815 -0.4402 -0.3752
25767SOL    HW183393   2.496   8.331   9.449  0.6994  0.4463  0.3432
25767SOL    HW283394   2.582   8.221   9.390 -0.7615 -0.5265 -0.0181
25768SOL     OW83395   1.783   5.482   4.282  0.0427 -0.6872 -0.6048
25768SOL    HW183396   1.757   5.484   4.190 -1.6750  1.8586 -0.1674
25768SOL    HW283397   1.829   5.565   4.296 -1.9528  0.1937  1.3384
25769SOL     OW83398   2.419   3.834   2.662 -0.2031 -0.0734 -0.0942
25769SOL    HW183399   2.432   3.854   2.754 -0.4083  2.0773 -0.4935
25769SOL    HW283400   2.359   3.901   2.630  0.2857 -0.4423 -1.9233
25770SOL     OW83401   2.814   6.485   8.123 -0.7863 -0.1814  0.3485
25770SOL    HW183402   2.837   6.452   8.036 -2.3965 -2.8486  0.8423
25770SOL    HW283403   2.742   6.546   8.108  1.1267  2.0747 -0.4057
25771SOL     OW83404   9.313   2.889   8.206 -0.2211  0.2476  0.4084
25771SOL    HW183405   9.328   2.859   8.117  0.8430  0.4419  0.5139
25771SOL    HW283406   9.308   2.809   8.258  0.9402  0.1741  0.4338
25772SOL     OW83407   9.675   0.273  10.244 -0.4720  0.2236  0.0822
25772SOL    HW183408   9.603   0.212  10.229 -0.9855  0.2532  2.1471
25772SOL    HW283409   9.718   0.242  10.323 -1.1650  2.8331  1.6181
25773SOL     OW83410   1.752   2.592  10.468  0.5049 -0.1243 -0.5919
25773SOL    HW183411   1.802   2.660  10.423  0.0641 -0.1089 -1.0705
25773SOL    HW283412   1.796   2.511  10.445 -0.5490 -0.2723 -2.2647
25774SOL     OW83413   7.644   0.747   7.085 -0.3076  0.5062  0.0849
25774SOL    HW183414   7.619   0.687   7.015 -0.8625  1.2049 -0.3203
25774SOL    HW283415   7.707   0.806   7.045 -0.9779  1.2003  0.0389
25775SOL     OW83416   6.205   3.603   1.951 -0.3920  0.1815  0.8599
25775SOL    HW183417   6.266   3.557   2.009 -0.0549  0.1728  0.5072
25775SOL    HW283418   6.197   3.691   1.988 -0.5453  0.0342  1.1814
25776SOL     OW83419   2.362   0.866   6.091 -0.1436  0.5695 -0.3892
25776SOL    HW183420   2.433   0.838   6.033  0.2439 -0.4041  0.5256
25776SOL    HW283421   2.369   0.808   6.167 -0.4691  1.9755  0.7579
25777SOL     OW83422   6.703   2.233  10.333  0.0548 -0.0704 -0.1289
25777SOL    HW183423   6.787   2.273  10.309 -1.1414  1.9449 -1.2423
25777SOL    HW283424   6.695   2.157  10.275  0.8931 -0.0153 -0.3319
25778SOL     OW83425  10.872   0.100   8.077  0.2600 -0.2090 -0.9600
25778SOL    HW183426  10.891   0.009   8.099  0.4810 -0.6485 -2.7696
25778SOL    HW283427  10.788   0.096   8.030 -0.3963  0.7063  0.0923
25779SOL     OW83428   6.258   1.808   7.414  0.3064 -0.6596 -0.4246
25779SOL    HW183429   6.291   1.821   7.502 -1.1046  2.7470 -0.2395
25779SOL    HW283430   6.293   1.723   7.387  2.8987 -0.6467  2.4021
25780SOL     OW83431   9.778   5.589   5.386  0.2529  0.0305  0.0606
25780SOL    HW183432   9.823   5.506   5.401 -1.8770 -1.1211  0.5312
25780SOL    HW283433   9.743   5.613   5.472  2.3275  2.4058  0.3270
25781SOL     OW83434   1.717   6.782   0.645  0.5358 -0.1856  0.2296
25781SOL    HW183435   1.716   6.701   0.696 -1.7200  0.8633  2.0031
25781SOL    HW283436   1.787   6.834   0.684 -0.3635  0.1079  1.5099
25782SOL     OW83437   2.138  10.303   3.611 -0.4280  0.1752  0.1827
25782SOL    HW183438   2.168  10.296   3.702 -1.0595  1.7530  0.5497
25782SOL    HW283439   2.217  10.326   3.562 -0.0574 -0.8100  0.3011
25783SOL     OW83440   0.882   8.022   5.694  0.3699 -0.3488  0.3101
25783SOL    HW183441   0.845   8.109   5.678  0.5721 -0.2702  0.2624
25783SOL    HW283442   0.885   7.981   5.608  0.9532 -0.1284  0.2219
25784SOL     OW83443   4.797   7.292   9.554  0.1777 -0.3073  0.0425
25784SOL    HW183444   4.841   7.283   9.639  0.1553 -1.8180 -0.0709
25784SOL    HW283445   4.818   7.211   9.508 -0.4068  0.1823 -1.1214
25785SOL     OW83446   8.771   8.651   7.149  0.0845 -0.3319  0.1696
25785SOL    HW183447   8.685   8.685   7.175  0.8764  1.5562  0.4779
25785SOL    HW283448   8.803   8.606   7.227  0.0631  0.4194  0.6261
25786SOL     OW83449   7.740   3.704  10.037 -0.2237  0.1792 -0.1512
25786SOL    HW183450   7.732   3.682  10.130  0.6893 -1.5330 -0.4346
25786SOL    HW283451   7.835   3.709  10.022 -0.3633  0.3333 -1.0155
25787SOL     OW83452   9.671   1.979   7.645 -0.2054  0.6235  0.6659
25787SOL    HW183453   9.582   1.958   7.615 -0.5475  2.1328  0.5711
25787SOL    HW283454   9.670   1.955   7.738 -1.0127  1.4948  0.8960
25788SOL     OW83455   4.499  10.177   3.571  0.2845 -0.4092  0.0346
25788SOL    HW183456   4.558  10.228   3.516  0.4672  1.3083  1.7371
25788SOL    HW283457   4.555  10.137   3.637 -0.0331 -1.7953 -0.4901
25789SOL     OW83458   7.133  10.151   7.390 -0.0153  0.0775  0.0468
25789SOL    HW183459   7.042  10.169   7.367 -0.2347 -0.9708  0.0339
25789SOL    HW283460   7.138  10.055   7.395  1.0614  0.1244  0.1458
25790SOL     OW83461   2.628  10.853   3.819  0.1515  0.1721  0.1637
25790SOL    HW183462   2.643  10.930   3.764  1.7469 -0.0362  0.2721
25790SOL    HW283463   2.714  10.811   3.826  0.1118  0.3667  3.0620
25791SOL     OW83464   6.180   7.052   8.595  0.0667  0.1566 -0.0448
25791SOL    HW183465   6.233   7.049   8.674 -0.8090 -0.6169  0.5376
25791SOL    HW283466   6.229   7.107   8.535 -0.1783  2.5172  1.7492
25792SOL     OW83467   8.670   6.620   3.110 -0.0045 -0.0006  0.2569
25792SOL    HW183468   8.621   6.566   3.048 -0.5428 -0.7361  1.2843
25792SOL    HW283469   8.750   6.645   3.063 -1.2283  1.0221 -1.3684
25793SOL     OW83470   2.828   5.396   6.280  0.4837  0.2133  0.1951
25793SOL    HW183471   2.779   5.471   6.244 -0.3830 -0.2766  0.3223
25793SOL    HW283472   2.850   5.424   6.369 -0.9525 -0.1467  0.6967
25794SOL     OW83473   1.736   4.929   7.678 -0.0052  0.2942  0.5760
25794SOL    HW183474   1.723   4.904   7.769  0.4538  0.4272  0.6772
25794SOL    HW283475   1.667   4.995   7.661 -0.8393 -0.5765  0.4777
25795SOL     OW83476   2.538   9.936   5.559  0.2173 -0.3879 -0.2495
25795SOL    HW183477   2.599   9.918   5.631 -0.3059  1.2931  0.6745
25795SOL    HW283478   2.589   9.987   5.497  0.4771 -1.2586 -0.7640
25796SOL     OW83479   4.422   0.968   1.693  0.0487  0.1198  0.2857
25796SOL    HW183480   4.468   0.994   1.773 -0.6376 -0.5581  0.9152
25796SOL    HW283481   4.405   1.051   1.648  1.5844  0.4125  0.1858
25797SOL     OW83482   9.959   4.667   6.544 -0.4754 -0.1514  0.3292
25797SOL    HW183483   9.990   4.752   6.512  0.3560 -0.1712  1.0577
25797SOL    HW283484  10.023   4.605   6.510 -0.1657 -0.2921  1.1549
25798SOL     OW83485   8.542  10.463   2.901  0.0945  0.2445 -0.5132
25798SOL    HW183486   8.620  10.415   2.874 -0.6313 -1.2849 -0.0324
25798SOL    HW283487   8.563  10.496   2.988  0.3637  0.1908 -0.5577
25799SOL     OW83488  10.295   0.378   2.607 -0.2261 -0.4582 -0.0227
25799SOL    HW183489  10.211   0.420   2.624 -1.2390 -2.2821 -0.3119
25799SOL    HW283490  10.299   0.368   2.512  1.1659  1.1969 -0.1974
25800SOL     OW83491   3.364   2.795   5.794  0.1032 -0.5415 -0.6212
25800SOL    HW183492   3.269   2.788   5.790  0.0674 -0.6967  0.2958
25800SOL    HW283493   3.383   2.885   5.766 -0.3690 -0.2728 -0.0798
25801SOL     OW83494   2.529   0.835   8.123 -0.3017  0.1100  0.0386
25801SOL    HW183495   2.565   0.875   8.202 -2.5870  2.6921 -0.1239
25801SOL    HW283496   2.467   0.770   8.155  0.7180 -0.7765  0.2954
25802SOL     OW83497   2.001   5.980   4.572 -0.1373  0.2095  0.3984
25802SOL    HW183498   1.960   5.896   4.552 -0.8337  0.0732  2.1988
25802SOL    HW283499   1.966   6.040   4.506 -0.5007 -0.6775 -0.2267
25803SOL     OW83500   7.109   3.959   7.897 -0.0740 -0.2828  0.3826
25803SOL    HW183501   7.133   3.922   7.982 -0.0989 -0.7473  0.1947
25803SOL    HW283502   7.063   3.887   7.853 -0.3835  0.0753  0.1212
25804SOL     OW83503   0.674   8.707   7.910 -0.3779 -0.3445 -0.6583
25804SOL    HW183504   0.580   8.696   7.922 -0.3689 -0.4563 -0.6847
25804SOL    HW283505   0.710   8.703   7.999 -0.6194  1.9743 -0.4106
25805SOL     OW83506   5.568   7.662   6.113  0.1521 -0.4617 -0.0318
25805SOL    HW183507   5.497   7.726   6.120  1.1831  0.6701  0.1819
25805SOL    HW283508   5.525   7.584   6.078 -1.2931  0.0497  0.5155
25806SOL     OW83509   1.133   2.063   2.501 -0.3484  0.1094  0.2676
25806SOL    HW183510   1.089   1.981   2.526 -0.1356  0.0049  0.3010
25806SOL    HW283511   1.083   2.131   2.547 -0.7488  0.0325 -0.0457
25807SOL     OW83512   8.334  10.837   8.439  0.0363 -0.0156 -0.0823
25807SOL    HW183513   8.355  10.930   8.441  0.9140 -0.1721 -1.2751
25807SOL    HW283514   8.250  10.831   8.484  1.1856  0.9874  2.3471
25808SOL     OW83515   5.904   7.762   2.907  0.3179 -0.8326 -0.1676
25808SOL    HW183516   5.979   7.753   2.848 -1.3203  0.3989 -2.5417
25808SOL    HW283517   5.854   7.681   2.894  1.4207 -1.9278  1.8557
25809SOL     OW83518   5.619   4.377   9.104 -0.4349 -0.5796 -0.0471
25809SOL    HW183519   5.530   4.343   9.109 -0.7149 -0.0432 -1.0781
25809SOL    HW283520   5.610   4.471   9.118 -0.2559 -0.2822 -1.6875
25810SOL     OW83521   1.684   4.917   9.546 -0.2662  0.3058 -0.1717
25810SOL    HW183522   1.693   4.940   9.639  0.5683 -1.3918  0.2048
25810SOL    HW283523   1.764   4.951   9.505  0.0990 -0.2620  0.0454
25811SOL     OW83524  10.596  10.126   4.507  0.0459  0.0499 -0.1278
25811SOL    HW183525  10.662  10.150   4.572  0.1153 -1.0554  0.2344
25811SOL    HW283526  10.647  10.099   4.430 -0.0331  1.0567 -0.5533
25812SOL     OW83527   5.918   7.168   3.809  0.7022  0.1023  0.1900
25812SOL    HW183528   5.824   7.161   3.826  0.6375 -2.8636 -0.7959
25812SOL    HW283529   5.958   7.105   3.869  1.8473 -0.0224 -0.6757
25813SOL     OW83530   1.145   7.509   6.841 -0.0321 -0.2191  0.0359
25813SOL    HW183531   1.064   7.460   6.827  0.5882 -1.1522 -0.3498
25813SOL    HW283532   1.214   7.447   6.822  0.7942  1.0916 -1.5293
25814SOL     OW83533   2.185   3.090   6.701  0.0562 -0.1360  0.7419
25814SOL    HW183534   2.273   3.080   6.663 -0.9323  0.7018 -2.0071
25814SOL    HW283535   2.201   3.121   6.790  2.5474 -0.0533  0.3391
25815SOL     OW83536  10.593   1.693   8.373  0.0277  0.2531  0.4599
25815SOL    HW183537  10.664   1.643   8.332  0.7143  0.1430  1.7292
25815SOL    HW283538  10.537   1.626   8.413  0.9390  0.4292  2.1473
25816SOL     OW83539   2.302   1.094   5.674  0.6534 -0.8688  0.2856
25816SOL    HW183540   2.330   1.054   5.757 -0.6136 -0.3475  0.9990
25816SOL    HW283541   2.284   1.185   5.697  1.1122 -0.5025 -0.7666
25817SOL     OW83542   9.377  10.624  10.706  0.3663 -0.2351 -0.2711
25817SOL    HW183543   9.305  10.579  10.750  1.0041 -1.5047 -0.4951
25817SOL    HW283544   9.342  10.646  10.620 -0.8808  2.2313  0.7588
25818SOL     OW83545   9.716   9.528  10.347  0.3805 -0.1814  0.2393
25818SOL    HW183546   9.792   9.579  10.319  0.5318 -1.7813 -2.7229
25818SOL    HW283547   9.686   9.484  10.267 -1.9856 -1.7942  1.8686
25819SOL     OW83548   5.373  10.919   3.074  0.0041  0.1607  0.3128
25819SOL    HW183549   5.321  10.933   2.995 -0.1393 -2.2421 -0.0848
25819SOL    HW283550   5.443  10.859   3.047 -0.2050 -0.9445  2.0529
25820SOL     OW83551   6.128   9.094   5.079 -0.1494 -0.1695 -0.6728
25820SOL    HW183552   6.195   9.137   5.026  0.2752  0.7724  0.5563
25820SOL    HW283553   6.120   9.150   5.156 -0.2739 -1.8134  0.5621
25821SOL     OW83554   9.556   4.350  10.413  0.9782 -0.6328  0.2347
25821SOL    HW183555   9.494   4.406  10.460 -1.7165 -1.4064 -2.1366
25821SOL    HW283556   9.613   4.411  10.366 -0.8074  0.1970 -0.9532
25822SOL     OW83557   3.829   1.922   4.014  0.3128  0.0602  0.5556
25822SOL    HW183558   3.745   1.947   3.974  0.6295  1.1057  0.5022
25822SOL    HW283559   3.805   1.862   4.084 -0.7350  2.2230  2.1519
25823SOL     OW83560   2.114   0.559   0.674  0.0113 -0.2726  0.2920
25823SOL    HW183561   2.076   0.580   0.759 -0.4258  0.5604 -0.0941
25823SOL    HW283562   2.104   0.464   0.667 -2.3773 -0.0816  0.0750
25824SOL     OW83563   0.172   2.335   4.266 -0.2981  0.0001  1.3722
25824SOL    HW183564   0.252   2.294   4.233 -0.5354 -1.4933  2.5611
25824SOL    HW283565   0.113   2.263   4.285 -1.6552  1.0357  1.2784
25825SOL     OW83566   6.380   6.232  10.223  0.1271 -0.2462 -0.1076
25825SOL    HW183567   6.470   6.212  10.247  0.3205 -0.3532 -0.9132
25825SOL    HW283568   6.331   6.152  10.245  0.6097 -1.0176 -1.7231
25826SOL     OW83569   2.031   7.569   1.505  0.3804 -0.5623 -0.2616
25826SOL    HW183570   1.952   7.594   1.553 -0.1234 -1.4319 -0.6149
25826SOL    HW283571   2.001   7.504   1.442  1.3371 -0.6988 -0.5927
25827SOL     OW83572   1.020   1.181   8.416 -0.1175 -0.0184  0.1951
25827SOL    HW183573   1.024   1.258   8.472  0.2883  1.1038 -1.3193
25827SOL    HW283574   0.939   1.191   8.366  0.4272 -0.0377 -0.7202
25828SOL     OW83575   1.656   3.534   9.430 -0.5616  0.7944 -0.2592
25828SOL    HW183576   1.608   3.588   9.493  0.7296  0.6399  0.9158
25828SOL    HW283577   1.596   3.523   9.357 -2.8726 -0.4856  1.6642
25829SOL     OW83578   7.220  10.597   1.408 -0.1579 -0.4574  0.5724
25829SOL    HW183579   7.214  10.520   1.351 -0.2860 -0.6700  0.8684
25829SOL    HW283580   7.136  10.600   1.453 -0.1652 -0.1187  0.5349
25830SOL     OW83581   9.489   4.756   9.711 -0.2226 -0.0940  0.5118
25830SOL    HW183582   9.551   4.825   9.733 -0.7281  0.0477  1.5611
25830SOL    HW283583   9.438   4.792   9.638  0.7925 -0.1465 -0.2409
25831SOL     OW83584   3.086   2.362   0.558  1.0812 -0.1240 -0.0587
25831SOL    HW183585   3.168   2.411   0.570  1.1710  0.0780 -1.3443
25831SOL    HW283586   3.099   2.282   0.608  1.2197  0.8152  1.4962
25832SOL     OW83587   6.506   9.917   1.372 -0.7630 -0.2790 -0.0246
25832SOL    HW183588   6.504   9.937   1.278 -1.4645  0.5024  0.1514
25832SOL    HW283589   6.419   9.941   1.404 -0.0417  0.9851  1.1179
25833SOL     OW83590   8.983   8.902   6.653 -0.1734  0.2485  0.5995
25833SOL    HW183591   8.959   8.809   6.660 -0.0968  0.2412  0.7947
25833SOL    HW283592   9.078   8.902   6.663 -0.2627  0.4326  1.5545
25834SOL     OW83593   9.210   2.319   4.945  0.0577  0.0283 -0.5560
25834SOL    HW183594   9.150   2.308   4.871 -0.1824 -0.0036 -0.3619
25834SOL    HW283595   9.159   2.369   5.009  0.0216 -0.5305 -0.1365
25835SOL     OW83596   0.030   0.406   2.436 -0.2483 -0.3680 -0.3296
25835SOL    HW183597   0.041   0.350   2.360 -2.4763  1.1398 -1.8852
25835SOL    HW283598   0.019   0.345   2.509  0.5768 -1.8648 -1.3998
25836SOL     OW83599  10.661  10.303   5.399 -0.5966 -0.1321  0.6073
25836SOL    HW183600  10.735  10.352   5.364 -0.2868 -1.2449 -0.3565
25836SOL    HW283601  10.618  10.364   5.459 -0.0098  1.1704 -0.2515
25837SOL     OW83602   4.243   8.262   9.881 -0.1075  0.4020  0.1429
25837SOL    HW183603   4.170   8.323   9.871  1.1660  1.7720 -1.5695
25837SOL    HW283604   4.298   8.301   9.949 -0.0580  0.3577  0.1281
25838SOL     OW83605   1.035   6.672   5.243 -0.0363 -0.5959 -0.2362
25838SOL    HW183606   1.066   6.756   5.210 -1.1687 -0.2196 -0.4158
25838SOL    HW283607   1.106   6.639   5.298  0.6508  0.2050 -0.6238
25839SOL     OW83608   9.493   0.697   8.309  0.2668 -0.4246 -0.0337
25839SOL    HW183609   9.512   0.684   8.402  0.7196 -2.1878 -0.3386
25839SOL    HW283610   9.411   0.746   8.308 -1.3850 -2.9754  1.3168
25840SOL     OW83611   0.463   2.931   0.720  0.0454 -0.3552  0.2357
25840SOL    HW183612   0.503   2.908   0.636  0.0246 -0.1039  0.1561
25840SOL    HW283613   0.536   2.939   0.781 -0.0495 -2.2072  0.6562
25841SOL     OW83614   6.703   8.895   6.255  0.1660 -0.5669 -0.2316
25841SOL    HW183615   6.718   8.869   6.345 -0.3637 -0.8949 -0.2361
25841SOL    HW283616   6.708   8.814   6.205  0.9318 -0.3236 -0.5626
25842SOL     OW83617   1.777   9.908   3.783 -0.4076  0.1725  0.4715
25842SOL    HW183618   1.687   9.883   3.764 -0.1430 -1.4307  1.2180
25842SOL    HW283619   1.797   9.976   3.718 -1.0807 -1.7262 -1.8725
25843SOL     OW83620   6.184   9.701   4.182  0.7166  0.1665  0.4301
25843SOL    HW183621   6.243   9.663   4.117  1.8065 -0.0893  1.5203
25843SOL    HW283622   6.187   9.795   4.166  2.1023  0.2447  0.9785
25844SOL     OW83623   5.072   9.314   0.559  0.1380 -0.0896 -0.2243
25844SOL    HW183624   5.112   9.379   0.501 -0.5363  0.6007  0.0533
25844SOL    HW283625   5.010   9.267   0.503  1.9543 -1.7993 -0.8841
25845SOL     OW83626   1.156   7.748   3.842 -0.0613 -0.4496  0.5294
25845SOL    HW183627   1.234   7.802   3.853 -0.5546  0.0880  1.4465
25845SOL    HW283628   1.088   7.792   3.893 -1.4073 -0.0240 -1.5049
25846SOL     OW83629  10.432   1.786   0.329 -0.2437  0.2347 -0.0554
25846SOL    HW183630  10.382   1.781   0.247  0.8780 -0.6497 -0.7139
25846SOL    HW283631  10.387   1.726   0.388 -1.2549  1.1201  0.1166
25847SOL     OW83632   7.578   1.941   3.011  0.0003  0.0507 -0.4404
25847SOL    HW183633   7.486   1.968   3.012  0.2981  1.2091  1.8645
25847SOL    HW283634   7.615   1.977   3.091  2.6379  0.0975 -1.5744
25848SOL     OW83635   8.021   6.310   6.738  0.2527 -0.2012  0.3383
25848SOL    HW183636   8.035   6.223   6.699 -0.8254 -0.9903  1.6177
25848SOL    HW283637   7.940   6.341   6.698  0.9604  0.5298 -0.5854
25849SOL     OW83638   7.028   1.732   6.159 -0.0149  0.6372 -0.4000
25849SOL    HW183639   7.099   1.701   6.215 -0.0232 -0.0389 -0.7481
25849SOL    HW283640   7.006   1.656   6.105 -1.3041  0.7064  0.0112
25850SOL     OW83641   4.451   3.882   4.029 -0.3018  0.3858  0.2269
25850SOL    HW183642   4.480   3.954   4.085  0.4749  1.4651 -1.4720
25850SOL    HW283643   4.373   3.915   3.985 -0.1223  0.0848 -0.3296
25851SOL     OW83644   9.087   4.179   0.037  0.5230 -0.5149 -0.0289
25851SOL    HW183645   9.174   4.142   0.051  0.6825 -0.4334 -0.7572
25851SOL    HW283646   9.029   4.125   0.089  0.9925 -0.6659  0.3442
25852SOL     OW83647   5.677   1.756   3.379 -0.0240 -0.0613  0.3260
25852SOL    HW183648   5.593   1.718   3.352  0.9815 -2.8253  0.8416
25852SOL    HW283649   5.728   1.762   3.299  0.1604 -0.7608  0.3870
25853SOL     OW83650   0.519  10.812   7.669 -0.0860 -0.4724 -0.6132
25853SOL    HW183651   0.564  10.757   7.734 -1.0179 -0.0572  0.4112
25853SOL    HW283652   0.574  10.806   7.591  0.6587 -1.6000 -0.0324
25854SOL     OW83653   6.350   4.144   2.009 -0.1111  0.2951 -0.2932
25854SOL    HW183654   6.416   4.210   1.990  1.5727 -0.9408  0.9562
25854SOL    HW283655   6.370   4.115   2.099 -2.2176 -0.2862  0.0514
25855SOL     OW83656   7.309   9.072   7.591  0.2235 -0.2791 -0.2012
25855SOL    HW183657   7.383   9.129   7.609 -0.0956  0.1776 -0.3120
25855SOL    HW283658   7.305   9.068   7.495  0.0411 -0.2110 -0.1974
25856SOL     OW83659  10.303   1.226   8.107 -0.2506 -0.4254 -0.5063
25856SOL    HW183660  10.383   1.241   8.158 -0.1994 -0.3453 -0.6104
25856SOL    HW283661  10.271   1.314   8.085 -1.9317 -0.3159  1.9528
25857SOL     OW83662   3.591  10.564   9.120  0.6776 -0.2722  0.1549
25857SOL    HW183663   3.603  10.538   9.212  0.3788 -1.7367 -0.1992
25857SOL    HW283664   3.664  10.524   9.074  0.6769  0.2374 -0.3030
25858SOL     OW83665   2.156   4.628   6.486 -0.1100 -0.2229  0.1863
25858SOL    HW183666   2.122   4.593   6.568 -0.9271  0.7564  0.2791
25858SOL    HW283667   2.240   4.668   6.511 -1.1805  1.6969  0.9548
25859SOL     OW83668   0.175   8.233   3.919 -0.0899  0.1518  0.8610
25859SOL    HW183669   0.149   8.151   3.961  0.1187 -0.8541 -0.8433
25859SOL    HW283670   0.265   8.218   3.890 -0.7807  0.0344 -1.4901
25860SOL     OW83671   1.855   8.930   6.950  0.3959 -0.7287  0.4537
25860SOL    HW183672   1.801   8.997   6.992  1.2631  0.5641 -0.3957
25860SOL    HW283673   1.805   8.849   6.959 -2.4379  0.6219 -1.5517
25861SOL     OW83674   9.869   6.473   6.337  0.8035  0.2859 -0.2026
25861SOL    HW183675   9.868   6.538   6.408 -0.0773  1.5673 -1.3288
25861SOL    HW283676   9.777   6.455   6.320  1.0159 -0.1750 -0.8930
25862SOL     OW83677   6.377   2.766   5.150 -0.2740  0.0542 -0.0370
25862SOL    HW183678   6.301   2.751   5.206 -0.7004 -4.3075 -1.4596
25862SOL    HW283679   6.442   2.703   5.180  1.9701  2.0034 -0.4710
25863SOL     OW83680   4.096   4.841   9.105  0.2605  0.2439  0.0605
25863SOL    HW183681   4.041   4.904   9.058  1.0936 -0.7320 -2.3811
25863SOL    HW283682   4.132   4.891   9.179 -0.2023  2.2170 -0.9809
25864SOL     OW83683   6.335   9.147   2.597 -0.0353  0.2545  0.1355
25864SOL    HW183684   6.353   9.061   2.637 -0.4162 -0.0840 -0.4079
25864SOL    HW283685   6.249   9.171   2.630 -1.3593 -1.0439 -2.1243
25865SOL     OW83686   4.667   4.935   2.060 -0.5109  0.6697 -0.5456
25865SOL    HW183687   4.634   4.864   2.005 -0.2192  1.4867 -1.8173
25865SOL    HW283688   4.632   4.917   2.147 -1.0130 -0.6403 -1.0014
25866SOL     OW83689   4.266   8.549   6.597  0.3421 -0.1304  0.2252
25866SOL    HW183690   4.240   8.528   6.686 -0.6323 -0.8076 -0.2051
25866SOL    HW283691   4.302   8.467   6.562  1.1399  0.2484  0.1339
25867SOL     OW83692   0.686  10.331  10.618 -0.6771 -0.4837 -0.0367
25867SOL    HW183693   0.680  10.267  10.689  1.7958 -0.0597  0.6495
25867SOL    HW283694   0.627  10.402  10.646 -0.0307 -0.4867  1.4596
25868SOL     OW83695   0.756   7.681   9.959 -0.0728  0.1551 -0.6909
25868SOL    HW183696   0.814   7.617   9.918 -0.9147  0.2323 -2.0848
25868SOL    HW283697   0.681   7.630   9.989 -0.5544  0.4237 -1.4271
25869SOL     OW83698   0.775   6.578   6.695  0.2319 -0.5138  0.0754
25869SOL    HW183699   0.729   6.654   6.660  1.5056  0.1034 -0.3082
25869SOL    HW283700   0.705   6.516   6.716 -0.7823  0.4585 -0.3041
25870SOL     OW83701   2.319   1.327   9.388 -0.7209  0.5045 -0.1671
25870SOL    HW183702   2.228   1.311   9.414 -0.0208  0.5385  2.6190
25870SOL    HW283703   2.371   1.292   9.460  1.4018  2.3442 -0.6851
25871SOL     OW83704   3.999   5.028   5.772 -0.1228 -0.6674  0.3075
25871SOL    HW183705   4.043   5.003   5.691  0.0225 -0.2180  0.2458
25871SOL    HW283706   4.023   4.959   5.834  1.4468  0.0509  0.5359
25872SOL     OW83707   5.329   3.401   3.734  0.2311 -0.0084 -0.6415
25872SOL    HW183708   5.242   3.362   3.725  0.6120 -1.1612  0.2920
25872SOL    HW283709   5.341   3.410   3.828  1.7601 -1.4605 -0.6503
25873SOL     OW83710   9.389   5.904   9.173  0.1750  0.4482  0.3186
25873SOL    HW183711   9.431   5.959   9.239 -0.6696  1.3682  0.1214
25873SOL    HW283712   9.456   5.840   9.148  1.7927  2.3798 -0.6016
25874SOL     OW83713   7.756   2.437   6.899  0.6097  0.2735 -0.3100
25874SOL    HW183714   7.737   2.373   6.968 -0.0225  0.0310 -0.7011
25874SOL    HW283715   7.703   2.513   6.921 -0.3168 -0.1463 -1.0208
25875SOL     OW83716   1.985   8.445   9.802  0.4326 -0.3760  0.5881
25875SOL    HW183717   2.008   8.499   9.726 -0.9829 -0.2786  0.2053
25875SOL    HW283718   1.890   8.450   9.807  0.3255 -2.2568  0.9801
25876SOL     OW83719   1.505   9.226   8.109 -0.2251 -0.0086 -0.4394
25876SOL    HW183720   1.451   9.154   8.077 -0.4643  0.9512 -2.3262
25876SOL    HW283721   1.595   9.199   8.089 -0.1478 -0.5825  0.5943
25877SOL     OW83722   8.061   7.096   9.252 -0.3577  0.5028 -0.4728
25877SOL    HW183723   8.008   7.039   9.196  1.0665  0.2429 -1.6183
25877SOL    HW283724   8.140   7.045   9.271 -0.2935  1.0394  0.8447
25878SOL     OW83725   3.713   9.549   2.643  0.1047 -0.0308 -0.2085
25878SOL    HW183726   3.695   9.479   2.580  0.4537 -1.2746  1.0276
25878SOL    HW283727   3.737   9.503   2.723 -1.3605  1.4922  1.1683
25879SOL     OW83728   2.124   9.000  10.826 -0.0024 -0.1897  0.3486
25879SOL    HW183729   2.115   8.905  10.829  0.1184 -0.2571 -1.0626
25879SOL    HW283730   2.054   9.032  10.883 -0.1671 -1.1167  0.6780
25880SOL     OW83731   7.576   5.632   9.760 -0.4368  0.0238  0.1818
25880SOL    HW183732   7.564   5.719   9.722  1.3279 -0.1517 -0.9088
25880SOL    HW283733   7.538   5.638   9.848  1.0004  2.3529  0.7183
25881SOL     OW83734   7.655   9.457   0.882  0.0693 -0.1910 -0.7281
25881SOL    HW183735   7.742   9.433   0.851  0.0192 -1.9719  0.3567
25881SOL    HW283736   7.651   9.422   0.971 -1.3653  0.8279 -0.3619
25882SOL     OW83737   4.673   8.660   0.422 -0.1279 -0.3979  0.3578
25882SOL    HW183738   4.755   8.622   0.453 -0.6501 -1.0485  0.9777
25882SOL    HW283739   4.682   8.754   0.437 -0.0578 -0.6148  1.7890
25883SOL     OW83740   7.385   0.366   9.848  0.2760 -0.1618  0.1474
25883SOL    HW183741   7.375   0.318   9.930  0.9376  0.8165  0.8342
25883SOL    HW283742   7.365   0.302   9.780  0.8654 -1.3348  1.0269
25884SOL     OW83743   1.859   5.935   2.126  0.7143  0.1177  0.8170
25884SOL    HW183744   1.766   5.938   2.152  0.2613 -0.3267 -0.6498
25884SOL    HW283745   1.873   5.844   2.100  0.8316  0.6951 -1.3649
25885SOL     OW83746   2.756   7.342   8.455  0.0792 -0.6401 -0.5928
25885SOL    HW183747   2.768   7.401   8.529 -1.7966 -1.1227  0.1357
25885SOL    HW283748   2.823   7.275   8.467  1.2201  0.4420 -0.5881
25886SOL     OW83749   0.356   8.298   8.231  0.2399  0.0561  0.3194
25886SOL    HW183750   0.362   8.204   8.214  2.2262  0.0090  0.9803
25886SOL    HW283751   0.411   8.338   8.164 -0.6096  0.7695  0.0304
25887SOL     OW83752   8.869   9.426   6.768  0.0300  0.6511 -0.1127
25887SOL    HW183753   8.950   9.404   6.814 -0.2117 -0.5933 -0.2436
25887SOL    HW283754   8.805   9.364   6.802 -0.6295  0.9802 -0.7272
25888SOL     OW83755   7.774   6.019   1.715  0.1530 -0.1330 -0.3801
25888SOL    HW183756   7.818   6.061   1.641  0.2139  0.4242 -0.0366
25888SOL    HW283757   7.754   6.092   1.775  0.2812 -0.6039  0.2406
25889SOL     OW83758   3.181   0.068   0.886  0.2618 -0.0635  0.0148
25889SOL    HW183759   3.212   0.016   0.812 -0.3088 -1.0367  0.4392
25889SOL    HW283760   3.100   0.025   0.913  0.1319  0.6551  0.8073
25890SOL     OW83761   1.813   7.608   7.127  0.0621 -0.0502 -0.2436
25890SOL    HW183762   1.718   7.604   7.118 -0.2284  3.6499 -0.5641
25890SOL    HW283763   1.829   7.691   7.173  3.1013 -1.2818  1.1608
25891SOL     OW83764  10.255   7.409   9.858 -0.6746 -0.7415  0.4518
25891SOL    HW183765  10.266   7.476   9.926  2.5488 -1.3004  0.6340
25891SOL    HW283766  10.246   7.459   9.777  0.1343 -0.0592  0.7673
25892SOL     OW83767   1.408   0.031   4.599 -0.3951 -0.2538  0.1683
25892SOL    HW183768   1.438  -0.027   4.669  0.1024  1.3666  1.3677
25892SOL    HW283769   1.446  -0.006   4.519  1.6318 -0.4288  1.1499
25893SOL     OW83770  10.875  10.709   9.077  0.0200 -0.2826  0.2324
25893SOL    HW183771  10.804  10.704   9.142  1.9403  0.5556  2.5263
25893SOL    HW283772  10.890  10.803   9.066 -1.0887 -0.3426 -2.4839
25894SOL     OW83773   3.555   7.782   6.343 -0.0315 -0.3567  0.8127
25894SOL    HW183774   3.621   7.815   6.282  0.2370  0.2938  1.4391
25894SOL    HW283775   3.532   7.696   6.310  0.3001 -0.1172 -0.0606
25895SOL     OW83776   4.014   2.922   7.754 -0.6983  0.5856  0.4140
25895SOL    HW183777   4.094   2.907   7.806 -0.1746  1.5540 -0.0805
25895SOL    HW283778   4.002   2.840   7.706 -0.1037  0.3616  0.6281
25896SOL     OW83779   1.680   1.338   2.873  0.3686  0.6287 -0.4019
25896SOL    HW183780   1.623   1.357   2.798  2.5154 -1.1793 -2.6424
25896SOL    HW283781   1.759   1.390   2.857  0.4138  1.1237  1.2820
25897SOL     OW83782   3.052  10.486   4.745  0.0432  0.2916 -0.1445
25897SOL    HW183783   3.077  10.577   4.759 -0.8885  0.3866  1.0640
25897SOL    HW283784   2.975  10.491   4.688 -1.4726  0.4448  1.8248
25898SOL     OW83785   7.321   9.248   6.863 -0.2227 -0.0111  0.0129
25898SOL    HW183786   7.322   9.299   6.782  3.3068 -1.5218 -1.0960
25898SOL    HW283787   7.296   9.311   6.931 -1.3622  1.7804 -1.9460
25899SOL     OW83788   7.552   8.553   3.223 -0.9127  0.1057  0.1262
25899SOL    HW183789   7.475   8.517   3.267 -0.2347  0.1644  1.4070
25899SOL    HW283790   7.620   8.488   3.238 -0.3561  0.6989  0.2113
25900SOL     OW83791   6.930   7.672   5.558 -0.0201 -0.2597 -0.1989
25900SOL    HW183792   6.896   7.752   5.597 -1.6832 -0.9008 -0.2486
25900SOL    HW283793   7.019   7.664   5.593 -0.0556  1.2634  0.2912
25901SOL     OW83794   5.023   2.985   6.149  0.2057  0.2534  0.6251
25901SOL    HW183795   5.060   3.064   6.109 -0.5986  0.8876  1.1063
25901SOL    HW283796   5.095   2.949   6.202  0.3812  1.0272  0.9252
25902SOL     OW83797  10.405   2.497   7.661 -0.0658 -0.1465  0.1611
25902SOL    HW183798  10.340   2.563   7.685 -2.4517 -2.6403  1.0060
25902SOL    HW283799  10.372   2.460   7.579  1.5624  0.0411 -0.6233
25903SOL     OW83800   4.976  10.108   5.574 -0.1526  0.0918  1.1942
25903SOL    HW183801   4.929  10.181   5.534  1.2796  0.1760 -0.4291
25903SOL    HW283802   4.907  10.051   5.607 -1.3833  0.6080 -0.3555
25904SOL     OW83803   0.965   2.703   4.354 -0.6026 -0.1118  0.3438
25904SOL    HW183804   0.914   2.629   4.321 -0.2004 -0.3230  0.1892
25904SOL    HW283805   0.913   2.737   4.427 -0.1928 -1.3410  1.2458
25905SOL     OW83806   3.255  10.864   0.668 -0.3328  0.3081  0.0465
25905SOL    HW183807   3.331  10.814   0.636  0.8769  0.5485  2.3072
25905SOL    HW283808   3.180  10.807   0.651  0.6173 -0.9011 -0.2831
25906SOL     OW83809  10.326   8.345  10.345  0.4096 -0.2714 -0.5985
25906SOL    HW183810  10.323   8.424  10.291 -1.0734  1.6473  2.0522
25906SOL    HW283811  10.291   8.276  10.289  1.7943  0.8631 -3.0193
25907SOL     OW83812   1.488  10.200   7.479  0.3109 -0.4582  0.0011
25907SOL    HW183813   1.498  10.260   7.552  1.2045 -2.0900  1.3044
25907SOL    HW283814   1.410  10.230   7.433  0.4014  1.3076  0.9353
25908SOL     OW83815  10.355   4.608   9.350  0.7436  0.0584 -0.4663
25908SOL    HW183816  10.328   4.684   9.297  1.1781  0.4816 -0.0854
25908SOL    HW283817  10.450   4.607   9.344  1.0065  1.5945  2.2908
25909SOL     OW83818   6.346   9.709  10.684  0.1813 -0.1479  0.4587
25909SOL    HW183819   6.413   9.672  10.627 -0.0309 -0.3011  0.3045
25909SOL    HW283820   6.394   9.757  10.751  0.4161  1.3845 -0.7415
25910SOL     OW83821  10.743   2.597   7.581 -0.2801 -0.2872 -0.3803
25910SOL    HW183822  10.830   2.604   7.619 -1.0626  0.7959  1.3597
25910SOL    HW283823  10.706   2.518   7.620 -1.4244  1.3202  2.0437
25911SOL     OW83824   1.379   6.056   9.627 -0.0264 -0.3926  0.5395
25911SOL    HW183825   1.473   6.035   9.623 -0.1460 -0.8846  0.1731
25911SOL    HW283826   1.336   5.971   9.618 -0.5237 -0.0421 -0.4303
25912SOL     OW83827   3.908   5.671   1.593 -0.3255 -0.4285  0.1899
25912SOL    HW183828   3.995   5.633   1.579 -0.0670  0.3729 -0.4371
25912SOL    HW283829   3.898   5.671   1.688  0.4051 -0.4271  0.2738
25913SOL     OW83830   1.777   7.488   4.259 -0.2830  0.0590 -0.2214
25913SOL    HW183831   1.687   7.462   4.280  0.1678 -0.5690  1.0245
25913SOL    HW283832   1.795   7.561   4.318 -0.4973  1.2794 -1.5996
25914SOL     OW83833   3.850   0.303   9.249  0.2093  0.4022  0.1428
25914SOL    HW183834   3.810   0.251   9.179 -2.3196  1.9377  0.3448
25914SOL    HW283835   3.898   0.238   9.302 -1.1517 -1.4066 -0.7247
25915SOL     OW83836   8.807   3.941   0.624 -0.0850 -0.0736 -0.4366
25915SOL    HW183837   8.861   3.871   0.661 -1.4909 -0.4530  1.0416
25915SOL    HW283838   8.859   4.020   0.637  1.2739 -0.7324 -1.5919
25916SOL     OW83839   0.846   3.007  10.206  0.1945  0.2589 -0.5030
25916SOL    HW183840   0.838   3.102  10.196 -1.8580  0.0990 -0.8281
25916SOL    HW283841   0.827   2.991  10.299  0.1015  0.1304 -0.5443
25917SOL     OW83842   4.696   4.584   3.802 -0.3716 -0.2821 -0.1530
25917SOL    HW183843   4.643   4.547   3.731 -0.5917 -1.6402  0.6849
25917SOL    HW283844   4.731   4.508   3.847  1.2629  0.5889  0.0989
25918SOL     OW83845   8.852   9.323   7.580 -0.4318  0.6053  0.1463
25918SOL    HW183846   8.782   9.345   7.641  0.6335  1.7572  1.0132
25918SOL    HW283847   8.891   9.407   7.557  1.3400 -0.0686  0.5315
25919SOL     OW83848  10.208   7.293   2.171 -0.4296  0.4963 -0.3378
25919SOL    HW183849  10.133   7.330   2.124 -1.0469 -0.3242 -0.0319
25919SOL    HW283850  10.204   7.199   2.151  0.6690  0.4708 -0.5101
25920SOL     OW83851   1.696   2.385   8.975 -0.4743 -0.3662  0.1621
25920SOL    HW183852   1.726   2.301   9.008 -0.9368 -0.6176 -0.0442
25920SOL    HW283853   1.665   2.432   9.053 -3.2784 -1.6560 -0.0407
25921SOL     OW83854   6.408   2.960   6.353 -0.1049 -0.3511  0.9050
25921SOL    HW183855   6.343   2.946   6.284 -1.1268 -0.9565  1.9440
25921SOL    HW283856   6.481   3.003   6.309 -1.1838  0.3048 -0.3267
25922SOL     OW83857   5.265   2.127  10.030  0.6712 -0.1925 -0.3578
25922SOL    HW183858   5.181   2.098   9.996 -0.0977  0.1059  1.1744
25922SOL    HW283859   5.299   2.187   9.964 -1.4713  1.6021  0.0653
25923SOL     OW83860   3.076   6.304   3.911 -0.0091  0.1035 -0.5000
25923SOL    HW183861   3.094   6.217   3.876 -0.4534  0.3345 -1.3428
25923SOL    HW283862   3.103   6.364   3.842  0.9876  0.6867  0.3649
25924SOL     OW83863   5.680   1.333   3.102 -0.1575 -0.0031 -0.3399
25924SOL    HW183864   5.613   1.265   3.091  0.9315 -1.2750  0.5913
25924SOL    HW283865   5.666   1.367   3.190 -1.1003  1.4956 -1.0160
25925SOL     OW83866   9.777  10.313   3.184 -0.4122  0.4294 -0.3894
25925SOL    HW183867   9.755  10.288   3.094 -2.4209  1.0119 -0.1194
25925SOL    HW283868   9.693  10.339   3.222  0.0507 -1.5214  2.2182
25926SOL     OW83869   3.205   6.605   2.601 -0.3508 -0.0305 -0.2959
25926SOL    HW183870   3.184   6.514   2.579 -0.3979 -0.2586  0.6553
25926SOL    HW283871   3.281   6.626   2.546 -1.1992 -0.1709 -1.5637
25927SOL     OW83872   9.875   6.191  10.219  0.3422 -0.2657 -0.4446
25927SOL    HW183873   9.802   6.132  10.200 -0.4925  0.3328  0.7678
25927SOL    HW283874   9.912   6.211  10.134 -2.1538  0.9995 -1.3377
25928SOL     OW83875  10.200   5.316   9.508 -0.5956 -0.1745  0.0160
25928SOL    HW183876  10.250   5.393   9.480 -0.8924  0.1263  0.2941
25928SOL    HW283877  10.238   5.243   9.459 -0.6408  0.2254 -0.6244
25929SOL     OW83878  10.896  10.038   5.392 -0.5596  0.1095 -0.4165
25929SOL    HW183879  10.839  10.102   5.433  0.7999  0.4479  1.0453
25929SOL    HW283880  10.909  10.071   5.303 -2.3955  0.1321 -0.7104
25930SOL     OW83881   7.488   0.765   5.883 -0.5137 -0.7134 -0.0251
25930SOL    HW183882   7.443   0.824   5.822 -0.3488  0.3283  0.8236
25930SOL    HW283883   7.581   0.785   5.873 -0.4257 -1.1008 -0.0053
25931SOL     OW83884   2.529   8.670   7.866  0.2121  0.3677 -0.0507
25931SOL    HW183885   2.447   8.710   7.894  0.0651  0.6108 -0.8087
25931SOL    HW283886   2.521   8.578   7.889 -0.0027  0.5145  0.4706
25932SOL     OW83887   9.491  10.767   9.351  0.4749  0.1995  0.5537
25932SOL    HW183888   9.416  10.826   9.356 -1.6430 -2.3859  1.4971
25932SOL    HW283889   9.526  10.779   9.263 -2.2193  0.1904 -0.6075
25933SOL     OW83890   6.593   9.355   2.400  0.4365 -0.1192 -0.0561
25933SOL    HW183891   6.677   9.312   2.418  0.7407  0.3413 -0.3352
25933SOL    HW283892   6.544   9.292   2.348  1.9851  0.8948 -2.9596
25934SOL     OW83893   6.913   9.665   1.518  0.3081  0.5123  0.0150
25934SOL    HW183894   6.826   9.637   1.547 -0.3996  2.0288 -0.5197
25934SOL    HW283895   6.924   9.625   1.432 -0.1350  0.7981 -0.1804
25935SOL     OW83896   9.114   2.620   0.936  0.2481  0.7652 -0.4288
25935SOL    HW183897   9.175   2.691   0.920  0.9572  0.0973 -0.7751
25935SOL    HW283898   9.142   2.583   1.020  1.9146 -1.0703 -1.6838
25936SOL     OW83899   2.216   1.213   3.490  0.0486  0.2446 -0.1918
25936SOL    HW183900   2.168   1.278   3.541 -0.2286 -0.0199 -0.1082
25936SOL    HW283901   2.308   1.230   3.510  0.0157  0.9726 -0.6147
25937SOL     OW83902   9.596   1.157   4.274  0.0841 -0.4338  0.5064
25937SOL    HW183903   9.578   1.073   4.230 -1.1011  0.5949 -1.0918
25937SOL    HW283904   9.685   1.147   4.308  0.7619 -1.6311 -1.4028
25938SOL     OW83905   2.086   2.494   4.990  0.9145  0.8752  0.2558
25938SOL    HW183906   2.108   2.451   4.907 -1.9720  0.4570 -0.4079
25938SOL    HW283907   2.069   2.585   4.966  0.6935  0.8990  0.4990
25939SOL     OW83908   8.292   9.936   3.405  0.0798  0.4305 -0.0151
25939SOL    HW183909   8.367   9.995   3.410  0.3218  0.2212 -0.9513
25939SOL    HW283910   8.330   9.848   3.399 -0.2505  0.2932 -0.1439
25940SOL     OW83911   9.326   6.142   6.600  0.6409  0.1721 -0.4059
25940SOL    HW183912   9.276   6.154   6.520  0.1840  0.3750 -0.0914
25940SOL    HW283913   9.312   6.050   6.624  0.6588  0.1515 -0.4728
25941SOL     OW83914   8.087  10.294   6.044 -0.3125 -0.3128 -0.1521
25941SOL    HW183915   8.165  10.333   6.083 -0.8449 -1.4778  2.2831
25941SOL    HW283916   8.120  10.240   5.973  0.9984  0.0126  0.1826
25942SOL     OW83917  10.799   8.777   2.140 -0.0044 -0.1457 -0.1392
25942SOL    HW183918  10.758   8.861   2.120  0.4566 -0.4493 -2.6325
25942SOL    HW283919  10.730   8.724   2.179 -0.1925  1.4694  1.8946
25943SOL     OW83920  10.099   0.002   3.503  0.2752  0.8277  0.0008
25943SOL    HW183921  10.153   0.058   3.447  1.7152 -1.0178 -0.5339
25943SOL    HW283922  10.103   0.044   3.589  1.6571  1.3410 -0.2861
25944SOL     OW83923   8.741   1.729   8.054 -0.4776 -0.0573  0.1734
25944SOL    HW183924   8.749   1.634   8.044 -0.3974 -0.2850  1.9819
25944SOL    HW283925   8.648   1.746   8.043 -0.4316 -0.2713 -0.6145
25945SOL     OW83926   2.447   6.737   7.291  0.2000  0.4290  0.7125
25945SOL    HW183927   2.494   6.803   7.342  0.6753  0.3389  0.3947
25945SOL    HW283928   2.450   6.658   7.345  1.5440  0.0625  0.1438
25946SOL     OW83929   9.225   0.707   6.305 -0.8500  0.2769  0.1308
25946SOL    HW183930   9.146   0.736   6.351 -1.6373  0.8209 -1.4691
25946SOL    HW283931   9.290   0.694   6.374 -2.0780  0.6663  1.4096
25947SOL     OW83932   4.758   5.245   1.536  0.0678 -0.5868 -0.0356
25947SOL    HW183933   4.663   5.234   1.529  0.2932 -4.2187  0.7941
25947SOL    HW283934   4.770   5.335   1.566 -3.1271 -0.2880  0.6537
25948SOL     OW83935   3.826  10.143   8.385 -0.1918 -0.1273 -0.5344
25948SOL    HW183936   3.896  10.150   8.320  0.6658 -0.0235  0.3757
25948SOL    HW283937   3.747  10.172   8.339  0.3686 -0.1963 -1.5605
25949SOL     OW83938   2.884   3.882   3.012 -0.0079 -0.1900 -0.2034
25949SOL    HW183939   2.969   3.910   3.047 -0.9511  1.0257  1.2559
25949SOL    HW283940   2.884   3.914   2.922  0.4191  1.4021  0.3200
25950SOL     OW83941   2.593   4.424   1.264 -0.2483 -0.4250  0.1863
25950SOL    HW183942   2.508   4.380   1.267 -0.6193  0.2674  0.0684
25950SOL    HW283943   2.656   4.359   1.296 -0.6125 -1.4305 -1.0955
25951SOL     OW83944   6.813   2.743   2.061 -0.4356  0.7128  0.3113
25951SOL    HW183945   6.888   2.797   2.085 -0.5762  0.7218  0.7499
25951SOL    HW283946   6.832   2.712   1.973  0.0251  0.8141  0.3750
25952SOL     OW83947   5.139   7.944   8.628 -0.0631 -0.3281  0.3522
25952SOL    HW183948   5.186   7.883   8.685 -1.4404 -1.0536  0.7571
25952SOL    HW283949   5.049   7.910   8.625 -0.9675  1.8597  0.8553
25953SOL     OW83950   7.066   2.714   5.896 -0.6522 -0.3405 -0.3215
25953SOL    HW183951   7.158   2.696   5.878 -1.0267 -1.7768 -1.0014
25953SOL    HW283952   7.060   2.723   5.991  0.1681 -0.3596 -0.2670
25954SOL     OW83953   4.100  10.222   9.307 -0.1167  0.2860  0.0112
25954SOL    HW183954   4.007  10.238   9.323 -0.8490 -0.9000 -2.4576
25954SOL    HW283955   4.135  10.307   9.279 -1.1523  0.2173 -1.6445
25955SOL     OW83956   5.535   5.277   2.333 -0.6354 -0.0729 -0.2418
25955SOL    HW183957   5.578   5.192   2.333 -0.8163 -0.1777 -1.1877
25955SOL    HW283958   5.490   5.282   2.417 -1.0543 -1.1415 -0.3925
25956SOL     OW83959   3.631   4.813   8.904 -0.1547 -0.8658  0.0396
25956SOL    HW183960   3.659   4.901   8.929 -3.3600 -0.2244  2.0543
25956SOL    HW283961   3.666   4.801   8.816  1.4067  1.9236  0.1413
25957SOL     OW83962  10.908   7.798  10.296  0.3450  0.4895  0.1054
25957SOL    HW183963  10.968   7.732  10.332  0.2025  1.0174  1.3752
25957SOL    HW283964  10.822   7.771  10.328  0.0341  0.3296 -0.8341
25958SOL     OW83965   4.365   8.122   8.452 -0.0621 -0.4733  1.0163
25958SOL    HW183966   4.319   8.206   8.451  1.4980  0.4180  1.3188
25958SOL    HW283967   4.391   8.108   8.361  0.3465 -0.2324  1.0927
25959SOL     OW83968   6.492   6.968   2.847  0.1026 -0.2516  0.0048
25959SOL    HW183969   6.453   7.052   2.820  0.4922  0.2819  1.0397
25959SOL    HW283970   6.541   6.989   2.927 -0.1122 -1.5425  0.5018
25960SOL     OW83971   0.466   8.853  10.811 -0.3724  0.1908  0.2044
25960SOL    HW183972   0.444   8.818  10.898  2.0107 -1.5988  0.2063
25960SOL    HW283973   0.520   8.930  10.829 -1.0413  0.6439  0.2830
25961SOL     OW83974   9.043   0.616   8.644  0.2315 -0.1058 -0.3104
25961SOL    HW183975   9.033   0.527   8.676 -1.3607  0.9224  2.3976
25961SOL    HW283976   9.125   0.647   8.684 -0.3463  0.2959  0.6080
25962SOL     OW83977   4.856   2.706   4.820  0.5771 -0.6376  0.3819
25962SOL    HW183978   4.824   2.646   4.752  0.7601 -0.4831  0.1607
25962SOL    HW283979   4.950   2.713   4.804  0.0890  3.0145 -2.3220
25963SOL     OW83980   9.747   0.188   3.020 -0.2033 -0.4687 -0.0832
25963SOL    HW183981   9.836   0.198   2.986  0.3326 -1.8857  0.7693
25963SOL    HW283982   9.716   0.106   2.981 -0.5567 -0.7572  0.7752
25964SOL     OW83983   7.688  10.230   8.659 -0.5323  0.2105 -0.0466
25964SOL    HW183984   7.697  10.286   8.582 -1.9017  0.4452 -0.0582
25964SOL    HW283985   7.683  10.292   8.732  1.7973 -0.0264  0.4023
25965SOL     OW83986   1.895   4.992   4.418 -0.0511 -0.6020  0.0438
25965SOL    HW183987   1.847   4.950   4.490  1.2106 -2.0473  0.0848
25965SOL    HW283988   1.925   4.919   4.364  0.0706  0.4076 -1.2921
25966SOL     OW83989  10.317   4.456   5.036  0.3289  0.7248  0.2718
25966SOL    HW183990  10.357   4.515   5.100 -0.0382  0.9491  0.2997
25966SOL    HW283991  10.231   4.494   5.019 -0.5405 -0.6131  1.4337
25967SOL     OW83992   8.403   3.830   3.857 -0.5783  0.0614 -0.2207
25967SOL    HW183993   8.311   3.845   3.881 -1.1426 -2.1725 -0.7023
25967SOL    HW283994   8.403   3.742   3.817  1.7942 -0.0403 -0.1305
25968SOL     OW83995   0.765   5.794   1.100  0.1185 -0.3922 -0.3330
25968SOL    HW183996   0.694   5.741   1.136 -0.2872  0.1565 -0.3014
25968SOL    HW283997   0.772   5.868   1.160  0.6484 -0.3884 -0.3971
25969SOL     OW83998   2.342   2.014   5.988 -0.2555 -0.4302  0.0080
25969SOL    HW183999   2.319   2.022   5.896 -2.4727 -0.8518  0.4825
25969SOL    HW284000   2.376   1.924   5.997 -0.2777 -0.4726 -0.3431
25970SOL     OW84001   4.513   1.569   1.325  0.7045  0.5587 -0.4294
25970SOL    HW184002   4.475   1.636   1.383  1.5651  1.1363 -0.5035
25970SOL    HW284003   4.547   1.503   1.385  0.6607  0.6381 -0.3154
25971SOL     OW84004   0.983  10.436   0.277 -0.3497  0.5087 -0.6235
25971SOL    HW184005   1.064  10.422   0.325 -1.7616 -0.7450  1.5567
25971SOL    HW284006   0.951  10.521   0.306 -0.3027  0.5747 -0.7620
25972SOL     OW84007  10.077   8.405   1.093  0.0424 -0.2278 -0.0764
25972SOL    HW184008   9.994   8.383   1.135  0.3213 -0.9979  0.0889
25972SOL    HW284009  10.121   8.321   1.081  0.8272  0.1760 -0.1020
25973SOL     OW84010   8.638   2.537   7.060 -0.3507 -0.2131 -0.2848
25973SOL    HW184011   8.590   2.496   7.131 -0.2132  0.5599  0.2709
25973SOL    HW284012   8.574   2.546   6.990 -1.4344  1.9795  0.8968
25974SOL     OW84013   9.186   5.402   7.894 -0.5316  0.5444 -0.0659
25974SOL    HW184014   9.194   5.449   7.977  1.4197  1.8045 -0.8944
25974SOL    HW284015   9.275   5.403   7.857 -1.1809 -0.6842 -1.7993
25975SOL     OW84016   6.464   0.219   2.802 -0.0520 -0.4636  0.2067
25975SOL    HW184017   6.419   0.269   2.869 -2.4159 -3.5157  1.0910
25975SOL    HW284018   6.537   0.177   2.848  0.4831  0.2517  0.0185
25976SOL     OW84019   8.389   3.534   9.909 -0.2509 -0.6478  0.4120
25976SOL    HW184020   8.336   3.531   9.989 -0.5134 -4.0270  0.2766
25976SOL    HW284021   8.478   3.552   9.939 -0.4817 -1.0577  1.3758
25977SOL     OW84022   2.901   7.799   1.222  0.2160 -0.6011  0.2706
25977SOL    HW184023   2.894   7.893   1.237  1.8718 -0.7553  2.5917
25977SOL    HW284024   2.914   7.791   1.127 -0.0481  1.4882  0.0053
25978SOL     OW84025   1.090   8.855   6.505  0.0173  0.2986 -0.0520
25978SOL    HW184026   1.079   8.817   6.592  1.8645 -1.7517 -0.6033
25978SOL    HW284027   1.005   8.845   6.463  0.2575 -3.1129 -0.0084
25979SOL     OW84028  10.693   4.531   6.109 -0.2109 -0.1222 -0.0918
25979SOL    HW184029  10.635   4.582   6.166 -0.7590 -2.0356  1.1739
25979SOL    HW284030  10.769   4.512   6.164 -0.5094 -1.5581 -0.1399
25980SOL     OW84031   4.063   3.699   1.041 -0.8173  0.4213  0.0127
25980SOL    HW184032   4.075   3.684   1.134  0.7967  0.3534 -0.1870
25980SOL    HW284033   3.971   3.724   1.033 -1.0209  0.2790  1.5910
25981SOL     OW84034   1.941   0.982   3.084 -0.4636 -0.5693 -0.1170
25981SOL    HW184035   1.864   1.017   3.039 -0.3258 -0.3817 -0.2081
25981SOL    HW284036   1.918   0.983   3.177 -0.5004 -0.3425 -0.1288
25982SOL     OW84037   8.158   7.798   6.684  0.7483  0.5273 -0.0808
25982SOL    HW184038   8.189   7.794   6.775  0.9888 -1.0439 -0.2045
25982SOL    HW284039   8.177   7.711   6.648 -1.6523  0.2360 -0.8671
25983SOL     OW84040   6.136  10.132   2.881 -0.4901  0.0889  0.0394
25983SOL    HW184041   6.074  10.204   2.871 -0.6174  0.2959  2.0093
25983SOL    HW284042   6.221  10.174   2.894 -0.2623 -0.1613 -0.5838
25984SOL     OW84043   5.043   8.580  10.131 -0.0939  0.2260  0.1479
25984SOL    HW184044   5.100   8.628  10.191  1.6622 -1.4511 -0.0896
25984SOL    HW284045   4.960   8.628  10.133  1.6774  3.6323 -0.5424
25985SOL     OW84046   6.780   8.419   2.908 -0.0160 -0.2097  0.3809
25985SOL    HW184047   6.713   8.394   2.844 -0.8807  2.8430 -0.1060
25985SOL    HW284048   6.731   8.436   2.989  0.3483  0.5084  0.4658
25986SOL     OW84049   1.096   1.717   6.310  0.1077  0.0306  0.0661
25986SOL    HW184050   1.122   1.634   6.270 -0.1481  0.5795 -1.2999
25986SOL    HW284051   1.026   1.750   6.254 -1.6308 -0.0399  2.0571
25987SOL     OW84052   4.498   8.808  10.323 -0.1507  0.1767  0.3655
25987SOL    HW184053   4.466   8.881  10.376  0.5597  1.4497 -0.8941
25987SOL    HW284054   4.493   8.840  10.233  1.2370 -0.9122 -0.1261
25988SOL     OW84055   5.403   0.888   0.684  0.0629 -0.0757 -0.0182
25988SOL    HW184056   5.339   0.943   0.728  1.1262  1.0052  0.2226
25988SOL    HW284057   5.395   0.803   0.726 -0.0318  0.5141  1.1912
25989SOL     OW84058   7.412   6.479   9.412  0.0446  0.0627 -0.3224
25989SOL    HW184059   7.453   6.392   9.414  1.1348  0.5294 -1.5933
25989SOL    HW284060   7.331   6.466   9.364 -0.7115 -0.5909  1.0534
25990SOL     OW84061   5.254   0.279   0.029 -0.3244  0.3494 -0.5997
25990SOL    HW184062   5.308   0.219   0.080 -0.4373 -0.1043 -1.0040
25990SOL    HW284063   5.167   0.272   0.067 -0.3801  0.1067 -0.7678
25991SOL     OW84064   1.352   0.797   5.984 -0.1870  0.1711  0.3256
25991SOL    HW184065   1.280   0.771   6.041 -0.6990  1.7425  0.4389
25991SOL    HW284066   1.390   0.714   5.955 -2.3204 -0.7216 -0.1122
25992SOL     OW84067   7.839   3.901   9.826  0.2346  0.2102  0.1878
25992SOL    HW184068   7.841   3.819   9.875  0.8678  1.1441  1.7777
25992SOL    HW284069   7.928   3.909   9.790  0.3811  0.5408  0.6211
25993SOL     OW84070   1.545   7.815   8.132  0.5876  0.0455 -0.1278
25993SOL    HW184071   1.518   7.896   8.174  2.1404  0.4606  0.1309
25993SOL    HW284072   1.498   7.815   8.048 -0.1618  0.7286  0.2801
25994SOL     OW84073   7.504   9.757  10.067 -0.4320 -0.0135 -0.5069
25994SOL    HW184074   7.430   9.783  10.012 -0.9140  0.9698  0.5813
25994SOL    HW284075   7.567   9.721  10.005 -1.0956  0.7490 -1.6738
25995SOL     OW84076   2.116   8.484   8.158  0.3181  0.0247  0.4305
25995SOL    HW184077   2.066   8.442   8.227 -2.5259 -0.2186 -1.5886
25995SOL    HW284078   2.150   8.412   8.105 -2.0544  0.0561 -1.3325
25996SOL     OW84079   2.450   6.063   2.492 -0.3789 -0.3368 -0.4903
25996SOL    HW184080   2.451   6.157   2.471  1.7370 -0.2334 -0.1583
25996SOL    HW284081   2.407   6.022   2.417 -0.3402  0.7885 -1.1591
25997SOL     OW84082   7.603   1.872   2.472  0.3084  0.1471 -0.3692
25997SOL    HW184083   7.678   1.819   2.501  0.5957  1.1022  0.6778
25997SOL    HW284084   7.618   1.882   2.378  0.2779 -1.5543 -0.5974
25998SOL     OW84085   4.971   6.504   1.085 -0.3238 -0.5601  0.0206
25998SOL    HW184086   5.025   6.530   1.010 -1.3808  2.0805  0.0672
25998SOL    HW284087   5.017   6.429   1.123  3.0268  1.2133 -0.2280
25999SOL     OW84088   3.677   7.041   0.848  0.1349  0.0422 -0.4030
25999SOL    HW184089   3.633   7.123   0.868 -0.5961  0.2600 -2.5907
25999SOL    HW284090   3.761   7.067   0.811  1.2449 -0.3217  1.7416
26000SOL     OW84091   8.399   7.083   4.731  0.2720  0.6645 -0.6744
26000SOL    HW184092   8.440   7.154   4.781  1.1260  0.3279 -0.8886
26000SOL    HW284093   8.319   7.123   4.695 -0.4625  0.8629  1.0709
26001SOL     OW84094   9.465   6.262  10.491  0.1278 -0.1161  0.2793
26001SOL    HW184095   9.525   6.336  10.501  0.8991 -0.7223  0.1859
26001SOL    HW284096   9.381   6.297  10.521  0.2771  1.0603 -0.5780
26002SOL     OW84097   2.224   3.810  10.415 -0.0366  0.3973 -0.4141
26002SOL    HW184098   2.166   3.753  10.466 -0.8915 -1.2688 -3.0364
26002SOL    HW284099   2.164   3.861  10.360  0.8608  1.9308 -0.0134
26003SOL     OW84100  10.784   4.402   7.469 -0.1383 -0.5228 -0.0383
26003SOL    HW184101  10.842   4.479   7.465 -0.3042 -0.4328 -3.6760
26003SOL    HW284102  10.843   4.330   7.490  0.6076  0.0927  0.0484
26004SOL     OW84103  10.064   2.247   8.269  0.1983  0.1358  0.1320
26004SOL    HW184104  10.122   2.323   8.266 -0.8114  1.0152  1.6206
26004SOL    HW284105   9.984   2.275   8.223  0.3335 -0.5197 -0.5270
26005SOL     OW84106   6.280   1.850   9.027 -0.3987 -0.2920 -0.2322
26005SOL    HW184107   6.310   1.791   9.096 -0.6774 -0.6776 -0.4400
26005SOL    HW284108   6.188   1.866   9.048  0.3947  2.7038  1.7325
26006SOL     OW84109   0.527   6.339   9.982  0.6023  0.1568  0.3177
26006SOL    HW184110   0.498   6.381   9.900 -0.9936 -0.0532  0.7418
26006SOL    HW284111   0.571   6.259   9.953 -0.5643 -0.2736 -0.3409
26007SOL     OW84112   5.054   1.274   9.821  0.2754  0.7373 -0.5486
26007SOL    HW184113   5.009   1.347   9.865 -0.6508  0.7544 -1.4813
26007SOL    HW284114   5.125   1.316   9.772 -0.1488  0.9977 -0.9456
26008SOL     OW84115   2.174   0.486   7.683  0.3032 -0.1697  0.6942
26008SOL    HW184116   2.248   0.544   7.668 -1.5235  2.0192 -0.5730
26008SOL    HW284117   2.109   0.513   7.618 -1.1217 -2.9202  0.8253
26009SOL     OW84118   8.791  10.897   9.321  0.4602 -0.7558  0.0405
26009SOL    HW184119   8.832  10.977   9.285 -2.2598  1.6762  1.8728
26009SOL    HW284120   8.744  10.859   9.246  0.0580  0.6354 -0.4549
26010SOL     OW84121   2.068   0.130   2.750  0.0988  0.2979 -0.1919
26010SOL    HW184122   2.099   0.119   2.660  0.6674 -0.4218  0.0872
26010SOL    HW284123   1.996   0.067   2.758  0.1360  0.2676 -0.0973
26011SOL     OW84124   4.721   8.937   1.759 -0.6804 -0.6867 -0.3021
26011SOL    HW184125   4.635   8.915   1.794 -1.1047  0.6517 -0.4484
26011SOL    HW284126   4.703   8.991   1.682  0.2405  1.8261  1.1191
26012SOL     OW84127   3.958   9.689   0.782 -0.1876 -0.3582  0.3299
26012SOL    HW184128   3.921   9.698   0.694 -1.5066  0.6397  0.9543
26012SOL    HW284129   3.882   9.674   0.838  0.1907  2.3941  1.7450
26013SOL     OW84130   5.896   5.026   8.041  0.6576 -0.0802  0.6274
26013SOL    HW184131   5.879   5.108   7.994  1.0362 -1.0812 -1.3660
26013SOL    HW284132   5.988   5.006   8.023  0.1328 -1.7877 -0.3900
26014SOL     OW84133   7.192   4.070   6.647 -0.0307 -0.1491 -0.3418
26014SOL    HW184134   7.241   4.032   6.574 -0.3801 -0.9864 -0.1494
26014SOL    HW284135   7.101   4.068   6.619 -0.0618  0.5329 -0.3136
26015SOL     OW84136   0.017   4.216   7.579 -0.4234  0.0524 -0.0420
26015SOL    HW184137   0.094   4.167   7.552  1.1915  1.8513  1.0230
26015SOL    HW284138   0.004   4.191   7.671  0.6871  1.8232  0.6493
26016SOL     OW84139   5.415   8.243   5.656  0.0302 -0.2626  0.5254
26016SOL    HW184140   5.370   8.216   5.736 -1.5388  1.3391  0.2455
26016SOL    HW284141   5.395   8.337   5.648  0.1478 -0.3760 -1.7296
26017SOL     OW84142   2.204   3.561   4.357  0.2400 -0.0178  0.2737
26017SOL    HW184143   2.288   3.594   4.388  0.7669 -0.0636 -1.0771
26017SOL    HW284144   2.215   3.548   4.263 -1.9539  2.0914 -0.3817
26018SOL     OW84145  10.066   9.192   5.735 -0.4398 -0.0633 -0.4460
26018SOL    HW184146  10.018   9.116   5.768 -1.1674  0.5117 -0.1564
26018SOL    HW284147  10.087   9.170   5.645 -0.9149 -0.4809 -0.4601
26019SOL     OW84148   6.073   2.141   1.499  0.1091  0.5146  0.3305
26019SOL    HW184149   6.143   2.204   1.514  1.3919 -1.0883  1.5026
26019SOL    HW284150   6.039   2.122   1.587  1.0847 -1.8133  0.2806
26020SOL     OW84151   4.396   8.496   8.738 -0.4943  0.4311 -0.4429
26020SOL    HW184152   4.370   8.581   8.703 -0.3843  0.5791 -0.1701
26020SOL    HW284153   4.314   8.447   8.745 -1.1050  1.6900  2.6148
26021SOL     OW84154   8.162   2.589   4.640 -0.4610 -0.2109  0.1193
26021SOL    HW184155   8.195   2.501   4.659 -0.0958  0.3607  2.4077
26021SOL    HW284156   8.239   2.637   4.610 -0.4971 -0.4446 -0.3595
26022SOL     OW84157   2.036   7.731   3.077  0.4813 -0.5258 -0.5568
26022SOL    HW184158   2.129   7.709   3.069  0.3244 -0.7404 -2.0581
26022SOL    HW284159   2.029   7.820   3.041  0.6664  1.1151  3.0038
26023SOL     OW84160   5.357   6.186   8.020  0.3792  0.1167 -0.1968
26023SOL    HW184161   5.308   6.127   7.963  0.6141 -0.2065 -0.0628
26023SOL    HW284162   5.448   6.179   7.991  0.7632 -1.2665  1.2442
26024SOL     OW84163   9.679   9.397   8.564 -0.0381 -0.4502 -0.0440
26024SOL    HW184164   9.592   9.433   8.582 -0.1160 -1.1119  1.0597
26024SOL    HW284165   9.662   9.307   8.536  0.2867 -0.6924  0.5071
26025SOL     OW84166   4.924   4.001   2.177  0.0220  0.6288 -0.7466
26025SOL    HW184167   4.929   3.991   2.082  1.4828  0.3558 -0.6570
26025SOL    HW284168   4.968   3.923   2.211  0.6526  1.3608  0.1386
26026SOL     OW84169   2.400   2.800   9.471 -0.3699 -0.2317 -0.3553
26026SOL    HW184170   2.351   2.864   9.524 -0.5771  1.2869 -2.2600
26026SOL    HW284171   2.483   2.789   9.518 -0.2940  1.5268  0.0281
26027SOL     OW84172   9.173  10.643   1.511 -0.4854 -0.6897 -0.0646
26027SOL    HW184173   9.231  10.708   1.471 -0.9987 -0.3496 -0.2524
26027SOL    HW284174   9.191  10.651   1.605  1.4331 -2.1629 -0.2482
26028SOL     OW84175   3.481   5.409   9.254  0.0111 -0.2098  0.2394
26028SOL    HW184176   3.405   5.405   9.197  0.1678 -3.0328  0.0876
26028SOL    HW284177   3.461   5.348   9.326  1.4367  0.2718  1.0977
26029SOL     OW84178   5.847   8.414   0.617 -0.4401 -0.5787  0.1757
26029SOL    HW184179   5.834   8.343   0.554  0.8201 -0.3020 -0.4224
26029SOL    HW284180   5.941   8.418   0.630 -0.2442  2.1884 -1.2618
26030SOL     OW84181   3.351   4.771   2.693 -0.2070  0.3576  0.6298
26030SOL    HW184182   3.266   4.807   2.719  0.4578  0.3018  3.1686
26030SOL    HW284183   3.332   4.717   2.617 -2.4338  0.3966  1.0801
26031SOL     OW84184   4.833  10.761  10.839 -0.3079  0.4228 -0.4941
26031SOL    HW184185   4.908  10.793  10.888 -0.5048 -0.4670  0.4277
26031SOL    HW284186   4.839  10.804  10.754  1.1753  0.4513 -0.3866
26032SOL     OW84187   2.412   7.329   1.877  0.1206 -0.1972 -0.0637
26032SOL    HW184188   2.342   7.283   1.923 -0.7241  0.7176 -0.4105
26032SOL    HW284189   2.470   7.361   1.947  0.5816 -1.5179  0.1964
26033SOL     OW84190   0.173   6.405   2.762  0.2705 -0.3540  0.3448
26033SOL    HW184191   0.175   6.355   2.680 -2.3609  0.6936 -0.4363
26033SOL    HW284192   0.210   6.344   2.827 -0.0636 -2.2062 -1.1026
26034SOL     OW84193   9.295   5.153   5.865  0.4372 -0.0367 -0.2242
26034SOL    HW184194   9.376   5.204   5.860  1.5464 -1.1814  3.1753
26034SOL    HW284195   9.322   5.064   5.843  0.7235 -0.8122  2.7248
26035SOL     OW84196   6.122   5.297   4.318  0.8911 -0.1319  0.0759
26035SOL    HW184197   6.168   5.314   4.400  0.1732 -1.3245  0.7653
26035SOL    HW284198   6.047   5.244   4.344 -0.3204  0.9277 -1.1449
26036SOL     OW84199   3.101   2.249   2.669 -0.3748  0.1527 -0.3550
26036SOL    HW184200   3.077   2.310   2.738 -1.6636 -1.6551  0.8743
26036SOL    HW284201   3.056   2.168   2.691 -0.2440 -0.7197 -2.9382
26037SOL     OW84202   3.631   9.054   7.161  0.5411 -0.0431  0.4116
26037SOL    HW184203   3.594   8.970   7.188  0.0801 -0.1352 -0.4964
26037SOL    HW284204   3.608   9.114   7.231  1.4474 -0.8050  1.4060
26038SOL     OW84205   9.668   6.074   8.877 -0.0982 -0.2694  0.1437
26038SOL    HW184206   9.747   6.072   8.823 -0.3380  0.9810 -0.2831
26038SOL    HW284207   9.640   5.982   8.882  2.2074 -0.9828  1.5811
26039SOL     OW84208  10.655   9.950   1.138  0.9228  0.1136 -0.0258
26039SOL    HW184209  10.673   9.976   1.048  2.1349  1.5104  0.5712
26039SOL    HW284210  10.699  10.017   1.191  1.1740 -1.2781  1.6007
26040SOL     OW84211   5.046   8.088   5.662 -0.0652  0.1355 -0.4826
26040SOL    HW184212   5.067   7.996   5.645  0.3388  0.2593 -0.6760
26040SOL    HW284213   4.969   8.085   5.719  1.5249 -0.3962  1.7832
26041SOL     OW84214   0.572   3.578   5.386 -0.2654  0.6995  0.0068
26041SOL    HW184215   0.563   3.650   5.325  1.1922  0.1270 -0.9348
26041SOL    HW284216   0.524   3.505   5.345 -2.0573  1.1624  1.1283
26042SOL     OW84217  10.057   0.301   8.043 -0.3288 -0.0208 -0.3341
26042SOL    HW184218  10.038   0.207   8.040  0.9727 -0.4012  1.6435
26042SOL    HW284219  10.089   0.316   8.132  1.3382  1.9267 -1.1933
26043SOL     OW84220   8.264   0.552  10.609 -0.1679 -0.1862 -0.0057
26043SOL    HW184221   8.306   0.618  10.664  1.4208 -1.4743  0.3635
26043SOL    HW284222   8.333   0.521  10.551 -1.3356 -0.2676 -1.4360
26044SOL     OW84223   6.735   8.739   5.851 -0.0585  0.2340 -0.2965
26044SOL    HW184224   6.766   8.816   5.898  0.8827 -0.7475  0.7408
26044SOL    HW284225   6.795   8.669   5.876 -0.0024 -0.5358 -2.3450
26045SOL     OW84226   4.209   1.656   7.034  0.3533  0.1954 -0.3525
26045SOL    HW184227   4.158   1.734   7.013  1.5308  1.3547  0.8897
26045SOL    HW284228   4.143   1.588   7.050 -0.7676  1.3315  0.0062
26046SOL     OW84229   8.728   6.939   5.848  0.1994  0.4207  0.2060
26046SOL    HW184230   8.668   6.944   5.773  0.9600 -1.3474 -0.5764
26046SOL    HW284231   8.687   6.994   5.915 -2.2982 -0.6545 -0.3226
26047SOL     OW84232   7.130   3.203   2.582 -0.1393 -0.7141 -0.4238
26047SOL    HW184233   7.193   3.133   2.602  0.2226 -0.2713  0.0102
26047SOL    HW284234   7.069   3.202   2.656  0.3338 -0.0491 -0.0187
26048SOL     OW84235   4.876   4.096   4.674  0.4529 -0.7260  0.2637
26048SOL    HW184236   4.923   4.100   4.590  1.1014 -0.7049  0.6240
26048SOL    HW284237   4.940   4.125   4.739  0.0277 -0.9732  0.8002
26049SOL     OW84238   5.894   5.500   9.282 -0.1648 -0.2105 -0.1080
26049SOL    HW184239   5.888   5.456   9.367 -1.0475 -2.3978 -1.2153
26049SOL    HW284240   5.927   5.588   9.302 -0.1705 -0.7240  2.4493
26050SOL     OW84241   6.528  10.755   1.350 -0.4881  0.0932 -0.2813
26050SOL    HW184242   6.550  10.715   1.434  0.5078  0.4384 -0.3641
26050SOL    HW284243   6.498  10.843   1.372  2.1648  1.1144 -0.4030
26051SOL     OW84244   1.367   4.687   6.098  0.4302 -0.1849  0.2602
26051SOL    HW184245   1.325   4.686   6.185 -0.7325 -1.6919 -0.2674
26051SOL    HW284246   1.319   4.755   6.050  0.6402  0.1965  0.5749
26052SOL     OW84247   5.426   5.022  10.836 -0.2174  0.0963  0.2727
26052SOL    HW184248   5.421   5.109  10.796 -0.7360  0.4402  1.0700
26052SOL    HW284249   5.473   4.969  10.771 -1.0969  0.6115 -0.8340
26053SOL     OW84250   5.982   0.932   6.996  0.3008 -0.0776  0.5640
26053SOL    HW184251   6.023   0.889   7.071 -0.5817 -1.6370  0.2078
26053SOL    HW284252   6.054   0.948   6.935  0.4199 -3.4434 -0.3767
26054SOL     OW84253   5.394  10.007   7.390  0.2605  0.1661  0.3483
26054SOL    HW184254   5.390   9.971   7.302 -1.4202 -0.5433  0.6642
26054SOL    HW284255   5.403  10.101   7.378  2.4568 -0.1058 -0.5214
26055SOL     OW84256  10.678   2.100   7.809 -0.2921 -0.4810  0.0783
26055SOL    HW184257  10.613   2.091   7.878 -1.8398  2.1103 -0.9001
26055SOL    HW284258  10.653   2.180   7.762  2.9698  0.0346 -1.0585
26056SOL     OW84259   1.326   8.708   3.391  0.0267  0.6067 -0.1197
26056SOL    HW184260   1.348   8.710   3.484 -1.1480 -0.0642  0.2020
26056SOL    HW284261   1.265   8.781   3.379  0.6176  1.0484 -0.4985
26057SOL     OW84262   0.378   6.863   0.378 -0.2221 -0.7859  0.1067
26057SOL    HW184263   0.390   6.782   0.329 -1.8557 -1.2406  0.4068
26057SOL    HW284264   0.368   6.835   0.469  0.5916 -0.1214  0.4212
26058SOL     OW84265   3.096   3.228   9.568 -0.4266 -0.1033 -0.2415
26058SOL    HW184266   3.041   3.294   9.526 -1.6637  0.1734  1.7344
26058SOL    HW284267   3.140   3.274   9.639  1.1626 -0.6990 -0.7883
26059SOL     OW84268   2.125   6.975   9.985 -0.1987 -0.3232  0.6644
26059SOL    HW184269   2.139   6.895  10.035 -0.9040 -0.2835  0.9365
26059SOL    HW284270   2.209   7.021   9.990  0.3427 -1.2331  0.1532
26060SOL     OW84271   0.573   8.397   5.188 -0.8512 -0.5777 -0.4256
26060SOL    HW184272   0.611   8.368   5.271 -1.4981  0.5071  0.2734
26060SOL    HW284273   0.479   8.383   5.198 -0.8628 -1.2348 -1.3180
26061SOL     OW84274   4.680   0.073   6.389  0.1441  0.1522  0.2078
26061SOL    HW184275   4.652   0.027   6.468  0.5447 -0.4665  0.0011
26061SOL    HW284276   4.606   0.129   6.366 -0.7444 -1.0825 -0.0573
26062SOL     OW84277   7.900   9.098   6.103  0.2252 -0.5245 -0.0550
26062SOL    HW184278   7.911   9.019   6.155  1.9344 -0.6367 -0.5320
26062SOL    HW284279   7.987   9.138   6.100 -0.4032  0.8759 -0.6107
26063SOL     OW84280   9.679   9.643  10.648  0.0345 -0.0949 -0.2640
26063SOL    HW184281   9.665   9.577  10.581  0.8892 -0.0484 -0.4992
26063SOL    HW284282   9.774   9.653  10.653  0.0003 -0.2256  1.0763
26064SOL     OW84283   5.473   6.796   7.552 -0.0746  0.3235  0.1010
26064SOL    HW184284   5.390   6.806   7.505  0.3240 -0.9939 -0.9627
26064SOL    HW284285   5.480   6.875   7.605 -2.1732  0.3180  0.4874
26065SOL     OW84286   1.812   9.122   2.713  0.2474  0.1551  0.0948
26065SOL    HW184287   1.754   9.152   2.783 -0.6808 -2.3728  0.5244
26065SOL    HW284288   1.896   9.106   2.756 -0.1479 -0.8072  0.5329
26066SOL     OW84289   9.328   6.457   8.768  0.4009  0.2105 -0.1726
26066SOL    HW184290   9.383   6.381   8.749  1.3006  0.8087  0.0002
26066SOL    HW284291   9.365   6.495   8.848 -0.0213  0.8404 -0.2659
26067SOL     OW84292   1.504  10.338   7.714  0.1237 -0.1228  0.2438
26067SOL    HW184293   1.559  10.309   7.786  0.5192  0.2941  0.1126
26067SOL    HW284294   1.523  10.431   7.705 -2.1912  0.5849  1.6366
26068SOL     OW84295   4.969   9.584   8.170 -0.2828  0.5804 -0.1639
26068SOL    HW184296   4.924   9.654   8.124  0.6888  0.6962 -0.9903
26068SOL    HW284297   5.041   9.627   8.216  1.6504 -0.0140 -2.3843
26069SOL     OW84298   2.762   8.344  10.670 -0.7400  0.0146  0.0167
26069SOL    HW184299   2.755   8.289  10.592 -0.3999  0.0079 -0.0082
26069SOL    HW284300   2.797   8.286  10.737 -1.8532 -0.2207  0.4213
26070SOL     OW84301   5.643   0.198   0.356  0.1883 -0.9126 -0.0711
26070SOL    HW184302   5.658   0.117   0.405  0.9283 -0.2605  0.8101
26070SOL    HW284303   5.597   0.256   0.417 -2.0279 -1.2634 -1.2767
26071SOL     OW84304   9.641   1.300   6.325 -0.1389 -0.1449 -0.3263
26071SOL    HW184305   9.712   1.359   6.351 -1.0114 -0.0849  2.2427
26071SOL    HW284306   9.685   1.226   6.285  1.3232  0.3092  0.3536
26072SOL     OW84307   5.659   3.738   6.820 -0.3115 -0.6419  0.1501
26072SOL    HW184308   5.678   3.825   6.855 -0.6493 -0.2671 -0.5907
26072SOL    HW284309   5.720   3.728   6.747 -0.3596 -0.9782  0.1533
26073SOL     OW84310   5.415   3.152   6.066  0.3131  0.4007  0.1617
26073SOL    HW184311   5.470   3.126   5.993  1.8978  2.8022  0.4009
26073SOL    HW284312   5.349   3.210   6.028 -1.5289 -1.5782  0.0670
26074SOL     OW84313   9.351   2.355   8.256  0.3557 -0.4604 -0.1646
26074SOL    HW184314   9.309   2.406   8.187 -0.3750 -2.4098 -1.2370
26074SOL    HW284315   9.349   2.265   8.224 -1.1796 -1.6718  2.8926
26075SOL     OW84316   2.484   1.445   2.815  0.0725 -0.1195  1.0313
26075SOL    HW184317   2.510   1.387   2.887  1.3124  0.9826  1.5143
26075SOL    HW284318   2.481   1.387   2.739  1.4120 -0.8281  1.4710
26076SOL     OW84319   4.381   1.948   6.426  0.1631 -0.6442  0.2729
26076SOL    HW184320   4.317   1.992   6.483  0.0013 -0.8442  0.2465
26076SOL    HW284321   4.448   2.014   6.410  0.5760 -0.8155  1.2719
26077SOL     OW84322   8.494   7.389   9.745  0.4173  0.0329 -0.1087
26077SOL    HW184323   8.432   7.451   9.782  1.7376  2.6654 -1.9814
26077SOL    HW284324   8.442   7.333   9.687 -0.6348  0.0649  0.7838
26078SOL     OW84325   7.578   1.284   6.142  0.0756  0.4864  0.4812
26078SOL    HW184326   7.567   1.306   6.234 -1.9172  0.5890  0.2529
26078SOL    HW284327   7.567   1.189   6.139 -1.5696  0.6565  0.1703
26079SOL     OW84328   9.580  10.410   5.995  0.4904  0.4880  0.1585
26079SOL    HW184329   9.589  10.459   6.076 -1.3519  0.9377  0.1348
26079SOL    HW284330   9.526  10.466   5.939  0.5610 -0.4254 -0.8615
26080SOL     OW84331   9.770   0.945   5.250  0.3490 -0.1964 -0.0859
26080SOL    HW184332   9.740   0.915   5.164 -1.5020 -1.1169  0.8242
26080SOL    HW284333   9.741   0.876   5.311  1.1343  0.6872  1.3437
26081SOL     OW84334   1.176  10.111   8.333  0.2701 -0.7288  0.0991
26081SOL    HW184335   1.171  10.020   8.363  1.0108 -0.5399  0.8095
26081SOL    HW284336   1.170  10.163   8.413 -0.5641 -0.1243 -0.3363
26082SOL     OW84337   6.299   0.321   4.036 -0.3944 -0.0974  0.0046
26082SOL    HW184338   6.250   0.290   4.112  0.0492  1.0531  0.7795
26082SOL    HW284339   6.388   0.289   4.050 -0.4979 -0.6322 -0.4919
26083SOL     OW84340   2.784   1.368   3.485 -0.7492  0.3579 -0.1850
26083SOL    HW184341   2.824   1.454   3.474  2.2603 -1.0131 -0.6979
26083SOL    HW284342   2.801   1.345   3.577 -2.0418  0.4848  0.1142
26084SOL     OW84343   2.198   1.269  10.806  0.8576 -0.2328  0.2783
26084SOL    HW184344   2.232   1.326  10.875  0.5815  0.9950 -0.5577
26084SOL    HW284345   2.109   1.302  10.791  0.6893 -0.9053 -0.2142
26085SOL     OW84346   9.732   0.952  10.507  0.0152  0.1377 -0.1615
26085SOL    HW184347   9.693   0.916  10.586 -1.3936  0.8477 -0.4949
26085SOL    HW284348   9.685   1.034  10.493  0.3131  0.0746 -1.6735
26086SOL     OW84349   8.356   7.603   4.829  0.0082 -0.6710  0.0522
26086SOL    HW184350   8.389   7.693   4.836 -0.7704 -0.2212 -1.4859
26086SOL    HW284351   8.287   7.598   4.896  1.0245 -0.6166  1.1363
26087SOL     OW84352   4.855   2.238   2.707  0.3258 -0.3472  0.0430
26087SOL    HW184353   4.885   2.184   2.780  0.0527 -1.8731 -0.9312
26087SOL    HW284354   4.760   2.226   2.706  0.1852  0.6789  0.2001
26088SOL     OW84355   7.326   1.916   2.383 -0.0688 -0.1708  0.0145
26088SOL    HW184356   7.292   2.006   2.387 -0.2933 -0.1327 -1.8044
26088SOL    HW284357   7.403   1.917   2.439  1.0622  1.7053 -1.4583
26089SOL     OW84358  10.864   0.344   3.696  0.0125 -0.0728  0.4529
26089SOL    HW184359  10.921   0.267   3.704 -1.1443 -1.1155 -0.7068
26089SOL    HW284360  10.920   0.412   3.659  1.2433 -0.0820  2.1467
26090SOL     OW84361   7.818   2.438   3.743  0.2882  0.1303  0.1409
26090SOL    HW184362   7.784   2.383   3.813  1.4482 -0.5638  0.1800
26090SOL    HW284363   7.783   2.525   3.762 -0.3195 -0.2777  0.9463
26091SOL     OW84364   1.464   6.730   8.515 -0.2418 -0.2455 -0.2890
26091SOL    HW184365   1.387   6.675   8.505  1.5508 -3.0843  0.5241
26091SOL    HW284366   1.514   6.690   8.586  2.2779  1.1359 -1.1578
26092SOL     OW84367   1.266   8.678   3.889  0.0697  0.0591  0.0344
26092SOL    HW184368   1.223   8.601   3.852 -0.4333 -0.4980  1.7040
26092SOL    HW284369   1.301   8.725   3.813  0.0496 -1.6007 -1.0356
26093SOL     OW84370   4.932   0.060   1.894 -0.2233  0.0639 -0.0649
26093SOL    HW184371   4.849   0.032   1.855  0.1885 -0.5627 -0.5149
26093SOL    HW284372   4.925   0.033   1.986  0.8559 -3.3050 -0.8157
26094SOL     OW84373   4.867   3.576   9.162  0.5773 -0.5635 -0.2485
26094SOL    HW184374   4.852   3.661   9.120 -0.9673 -0.4796  0.3906
26094SOL    HW284375   4.782   3.532   9.158  0.6486 -0.9967  1.7343
26095SOL     OW84376   4.063   5.380   7.227 -0.0262  0.0713  0.8550
26095SOL    HW184377   4.038   5.465   7.192  4.7614  0.4144 -2.6613
26095SOL    HW284378   4.043   5.318   7.156  0.8881 -0.9224  1.4343
26096SOL     OW84379   8.767   8.769   5.881  0.0676  0.4107  0.2110
26096SOL    HW184380   8.803   8.779   5.793  0.6662  1.8386  0.5993
26096SOL    HW284381   8.838   8.795   5.939 -0.5540  0.1670  1.0919
26097SOL     OW84382   5.312   7.311   2.792  0.5083  0.0813 -0.1059
26097SOL    HW184383   5.325   7.396   2.833 -1.1574  0.6421 -0.6813
26097SOL    HW284384   5.220   7.289   2.808  1.0058 -1.8494  0.4392
26098SOL     OW84385   4.732   7.099   7.769 -0.4846  0.4130 -0.0809
26098SOL    HW184386   4.797   7.144   7.823 -0.4690  1.9846 -1.3516
26098SOL    HW284387   4.649   7.140   7.791 -0.6112  0.4204 -0.5502
26099SOL     OW84388   6.313   4.640   7.787 -0.1577  0.3462  0.3929
26099SOL    HW184389   6.372   4.579   7.832  0.8620 -1.2347 -2.7794
26099SOL    HW284390   6.247   4.583   7.746 -1.6780  1.7789  0.7747
26100SOL     OW84391   1.678   6.363   7.217  0.4258  0.0304 -0.7587
26100SOL    HW184392   1.669   6.313   7.136  0.4277  0.5524 -1.0879
26100SOL    HW284393   1.757   6.329   7.258  0.9485  0.3940 -1.4388
26101SOL     OW84394   8.121   0.624   3.151  0.6002  0.0815  0.0843
26101SOL    HW184395   8.086   0.535   3.161 -0.2902  0.1503 -1.8753
26101SOL    HW284396   8.215   0.615   3.167  0.1460 -0.6128  2.8317
26102SOL     OW84397   5.895   7.711   0.666 -0.6504 -0.0551 -0.5959
26102SOL    HW184398   5.862   7.622   0.676 -0.3453 -0.1663 -0.5913
26102SOL    HW284399   5.816   7.764   0.654 -0.7799 -0.5281 -2.1362
26103SOL     OW84400   8.229   3.656   0.714 -0.1744 -0.1910  0.2345
26103SOL    HW184401   8.221   3.649   0.809  0.0056 -1.9974  0.1518
26103SOL    HW284402   8.323   3.648   0.697 -0.1085  1.0448 -0.0542
26104SOL     OW84403  10.894   7.027   5.198  0.0429 -0.0542  0.4112
26104SOL    HW184404  10.845   6.980   5.266 -0.9145  1.0837  0.5502
26104SOL    HW284405  10.835   7.030   5.123  1.0140 -1.1085 -0.4281
26105SOL     OW84406   4.787   9.311   9.419 -0.2944  0.1631 -0.2805
26105SOL    HW184407   4.726   9.371   9.462 -0.8907  0.1968 -1.1454
26105SOL    HW284408   4.869   9.359   9.416  0.1285 -0.2932  1.8892
26106SOL     OW84409   3.043   0.024   6.058  0.9291  0.7224 -0.1101
26106SOL    HW184410   2.981  -0.048   6.050  0.9039  0.7644 -0.2979
26106SOL    HW284411   3.060   0.032   6.152  1.8013 -0.2693 -0.1615
26107SOL     OW84412   6.572   0.045   8.991 -0.3087 -0.6311  0.1351
26107SOL    HW184413   6.508  -0.025   9.004 -0.2342 -0.7150  0.0460
26107SOL    HW284414   6.574   0.059   8.896 -3.1701  2.1034  0.2663
26108SOL     OW84415   7.901   7.188   1.637 -0.4567  0.7908  0.1270
26108SOL    HW184416   7.928   7.100   1.665 -0.5572  0.7929  0.2372
26108SOL    HW284417   7.823   7.173   1.583  2.1365  0.3998 -3.9071
26109SOL     OW84418   8.765   1.896  10.192 -0.5084  0.1295 -0.3163
26109SOL    HW184419   8.785   1.812  10.151  0.3998  0.0152  0.3492
26109SOL    HW284420   8.714   1.873  10.270 -1.5236  0.2990 -0.9100
26110SOL     OW84421  10.777   7.485   1.488 -0.2485  0.4184  0.0563
26110SOL    HW184422  10.846   7.503   1.424  1.4379  0.8916  1.8915
26110SOL    HW284423  10.748   7.571   1.517  1.4156  0.3141  2.2937
26111SOL     OW84424   1.515   5.918   5.939  0.1130  0.3606 -0.9618
26111SOL    HW184425   1.462   5.888   6.014  1.3620 -0.9814 -0.5718
26111SOL    HW284426   1.595   5.952   5.979  0.3407  0.6299 -1.6429
26112SOL     OW84427   6.601   0.717   8.471 -0.1902 -0.5541  0.4268
26112SOL    HW184428   6.680   0.764   8.497 -0.2290  1.4115 -2.5362
26112SOL    HW284429   6.529   0.767   8.508 -0.1457 -0.1820  0.0087
26113SOL     OW84430   6.420   4.492   5.370 -0.1354 -0.3563  0.3618
26113SOL    HW184431   6.358   4.558   5.337 -0.4498 -1.0083 -0.3962
26113SOL    HW284432   6.499   4.541   5.389  0.6352 -0.0817 -2.8679
26114SOL     OW84433  10.720  10.790   4.714 -0.0260 -0.1748  0.3536
26114SOL    HW184434  10.728  10.711   4.660 -1.0964 -1.2571  1.6867
26114SOL    HW284435  10.688  10.857   4.654 -0.1827 -1.0624 -0.5861
26115SOL     OW84436   8.316   1.656   0.609 -0.0377 -0.3522 -0.4971
26115SOL    HW184437   8.370   1.732   0.630 -0.9761 -0.0497  1.0667
26115SOL    HW284438   8.375   1.581   0.618  0.4980  0.0766 -0.3871
26116SOL     OW84439  10.713   2.920   5.406 -0.0272 -0.3139  0.1573
26116SOL    HW184440  10.683   2.990   5.464  0.6255  0.2891 -0.2124
26116SOL    HW284441  10.716   2.961   5.320  0.8172 -0.6572  0.0186
26117SOL     OW84442   4.469   7.617   6.669  0.1602  0.2918 -0.2066
26117SOL    HW184443   4.405   7.562   6.622 -0.8906  2.7239 -1.8411
26117SOL    HW284444   4.451   7.601   6.761 -0.0377 -2.1184 -0.6056
26118SOL     OW84445   6.055   3.551  10.172  0.4646 -0.3694 -0.7280
26118SOL    HW184446   6.142   3.517  10.194  1.2610  2.2102  0.5819
26118SOL    HW284447   6.005   3.542  10.253 -0.3124 -1.2625 -1.2960
26119SOL     OW84448   3.406   2.012   7.154  0.4637  0.1477  0.2803
26119SOL    HW184449   3.458   2.061   7.218  1.1430  0.5846 -0.5900
26119SOL    HW284450   3.448   2.029   7.070 -0.1244 -0.8117 -0.2320
26120SOL     OW84451   8.280  10.107  10.447  0.1166 -0.2851 -0.7088
26120SOL    HW184452   8.210  10.107  10.382 -1.0305  2.1794  0.3683
26120SOL    HW284453   8.300  10.200  10.459 -0.2240 -0.5411  2.9157
26121SOL     OW84454   3.842   3.487   3.330  0.4308 -0.6988  1.0513
26121SOL    HW184455   3.821   3.398   3.361 -1.2147 -0.3076  1.1467
26121SOL    HW284456   3.854   3.477   3.235 -1.0838 -0.8353  0.8489
26122SOL     OW84457   9.331   5.048   8.097  0.0867  0.1105  0.0238
26122SOL    HW184458   9.265   5.081   8.036 -0.7767 -0.9544  0.3619
26122SOL    HW284459   9.301   5.079   8.183  1.0651  1.2375 -0.0155
26123SOL     OW84460   8.712   8.012   2.522  0.2788 -0.0649 -0.2529
26123SOL    HW184461   8.785   8.073   2.531 -0.1459  0.3515  0.3758
26123SOL    HW284462   8.700   8.003   2.427 -1.1068  2.5712 -0.4131
26124SOL     OW84463  10.069   2.501   7.104 -0.2095 -0.1079 -0.5506
26124SOL    HW184464  10.039   2.428   7.049 -1.9978 -0.3326  0.6232
26124SOL    HW284465  10.015   2.575   7.077 -1.7420 -0.4368  1.4055
26125SOL     OW84466   3.037   6.626   4.910  0.1003  0.4961  0.7766
26125SOL    HW184467   3.035   6.702   4.969  1.9797 -0.7150  2.5474
26125SOL    HW284468   2.989   6.558   4.957  0.1661  0.0020  0.1418
26126SOL     OW84469   3.190   9.326   3.458 -0.5264 -0.8428 -0.3275
26126SOL    HW184470   3.135   9.373   3.395  0.3652  0.3746 -0.2324
26126SOL    HW284471   3.278   9.330   3.421 -0.1151 -0.7800  0.6238
26127SOL     OW84472   5.718   9.753   3.843  0.2908  0.1287  0.5000
26127SOL    HW184473   5.800   9.790   3.873 -0.6787  2.9424 -0.0128
26127SOL    HW284474   5.743   9.687   3.778  2.1419  1.7845 -0.5504
26128SOL     OW84475   7.620   9.081   6.024  0.4125  0.2260  0.2224
26128SOL    HW184476   7.610   9.096   6.118  0.0919 -1.9790  0.5908
26128SOL    HW284477   7.678   9.005   6.017  2.3148  1.7256 -1.4627
26129SOL     OW84478   9.699   0.774   9.524  0.6368  0.4842  0.3055
26129SOL    HW184479   9.719   0.806   9.612 -1.9631  2.0426  0.4500
26129SOL    HW284480   9.706   0.851   9.468 -0.7097  0.2253 -0.2721
26130SOL     OW84481   3.341  10.556   9.769 -0.5009 -0.0223  0.5117
26130SOL    HW184482   3.246  10.546   9.769 -0.4012 -1.2759 -0.9684
26130SOL    HW284483   3.375  10.471   9.742  0.9222  1.1275 -1.6013
26131SOL     OW84484   8.650   4.371  10.714 -0.2980  0.3619 -0.3748
26131SOL    HW184485   8.655   4.377  10.619 -0.2828 -0.1562 -0.4047
26131SOL    HW284486   8.658   4.278  10.734  0.4844  0.5339  0.1837
26132SOL     OW84487   0.338   2.586   9.849  0.2238 -0.1215  0.6311
26132SOL    HW184488   0.356   2.509   9.795  0.9871 -0.4660  1.3559
26132SOL    HW284489   0.328   2.658   9.787 -0.3364 -0.7716 -0.0457
26133SOL     OW84490   5.601  10.740   0.966  0.0117  0.0406 -0.1791
26133SOL    HW184491   5.566  10.661   1.007 -1.1005  0.0796 -1.0055
26133SOL    HW284492   5.553  10.811   1.009  1.2893  0.3288  0.8463
26134SOL     OW84493   5.373   4.676   0.538  0.0957  0.1020 -0.1594
26134SOL    HW184494   5.450   4.654   0.589 -1.0299 -1.3384  1.0044
26134SOL    HW284495   5.366   4.605   0.473 -0.4056  0.0336 -0.0407
26135SOL     OW84496   7.572   6.998   3.030  0.1192 -0.4370 -0.6227
26135SOL    HW184497   7.480   7.020   3.044  0.0434 -0.4788 -1.0545
26135SOL    HW284498   7.591   7.027   2.941  0.4807 -0.5760 -0.5937
26136SOL     OW84499   0.612   9.126   6.860  0.5928  0.2041 -0.2568
26136SOL    HW184500   0.642   9.186   6.792 -0.9477  0.4316 -0.7685
26136SOL    HW284501   0.537   9.171   6.900  0.5878 -0.5629  0.6221
26137SOL     OW84502   6.583  10.573   6.682  0.7377 -0.3387 -0.1684
26137SOL    HW184503   6.613  10.611   6.765  1.0001 -0.8794 -0.0118
26137SOL    HW284504   6.604  10.480   6.690 -2.5350 -1.1216  0.6709
26138SOL     OW84505   6.479   4.464   2.037  0.3102 -0.1372 -0.4105
26138SOL    HW184506   6.469   4.469   2.132 -0.6488  2.5919 -0.5798
26138SOL    HW284507   6.397   4.499   2.002  1.4472  0.9048 -2.1851
26139SOL     OW84508   4.808   3.635   8.222 -0.7529  0.0520  0.1403
26139SOL    HW184509   4.812   3.637   8.127  0.7935  1.3995  0.1944
26139SOL    HW284510   4.769   3.719   8.246  2.0623  1.3221  0.7251
26140SOL     OW84511   7.777   7.202   3.132 -0.3743 -0.5726  0.8379
26140SOL    HW184512   7.741   7.117   3.105 -0.6740  0.6501 -3.2441
26140SOL    HW284513   7.859   7.210   3.083 -0.0887  1.2970  1.5270
26141SOL     OW84514   2.058   8.048   6.611 -0.4955  0.4945  0.6213
26141SOL    HW184515   2.012   8.025   6.691  0.5524  0.0788  1.1241
26141SOL    HW284516   2.090   7.965   6.577  0.2121  0.8124  0.4978
26142SOL     OW84517   8.573   8.139  10.274  0.0109 -0.3343  0.5060
26142SOL    HW184518   8.502   8.091  10.316  0.2391  0.4158  1.8237
26142SOL    HW284519   8.611   8.077  10.212 -0.8217 -1.2410  0.8758
26143SOL     OW84520   8.155   3.282   0.898 -0.3747 -0.4510 -0.1411
26143SOL    HW184521   8.109   3.205   0.863  1.0322 -1.4266  0.0669
26143SOL    HW284522   8.242   3.249   0.920 -0.0895  0.9727  0.9733
26144SOL     OW84523   6.675   5.162  10.791  0.2151 -0.7588 -0.3324
26144SOL    HW184524   6.638   5.249  10.809  2.7520  0.7149 -1.5863
26144SOL    HW284525   6.770   5.177  10.791  0.7169 -3.5164 -0.8465
26145SOL     OW84526   1.191  10.823   7.701 -1.1889  0.4363 -0.0850
26145SOL    HW184527   1.151  10.902   7.738 -0.3824  0.2247  1.3234
26145SOL    HW284528   1.262  10.802   7.762 -0.4221 -0.5153 -1.2636
26146SOL     OW84529   5.791  10.428   5.525 -0.0952  0.2249 -0.7984
26146SOL    HW184530   5.730  10.364   5.563 -1.1867  1.1467 -0.9257
26146SOL    HW284531   5.775  10.423   5.431  1.9652 -1.4124 -1.1395
26147SOL     OW84532   6.747   9.540   3.177 -0.2281 -0.6586  0.4762
26147SOL    HW184533   6.836   9.509   3.187 -0.4995 -1.2166  1.2702
26147SOL    HW284534   6.729   9.533   3.084  0.8243  0.2463  0.1778
26148SOL     OW84535  10.791   8.610   8.226  0.3020 -0.2710  0.2059
26148SOL    HW184536  10.839   8.542   8.273  1.1441 -0.0674 -0.3387
26148SOL    HW284537  10.838   8.619   8.143  0.6009  1.3963  0.5170
26149SOL     OW84538   4.547   2.866   1.338  0.2021 -0.2407  0.8129
26149SOL    HW184539   4.585   2.803   1.399  2.8360  0.6230  0.1922
26149SOL    HW284540   4.603   2.943   1.345  0.0468  0.2181 -1.9909
26150SOL     OW84541   3.128   8.431   0.691  0.3038 -0.0619  0.6539
26150SOL    HW184542   3.172   8.502   0.644  1.1992 -0.4603  0.8801
26150SOL    HW284543   3.085   8.474   0.765  0.5858  0.2848  0.6188
26151SOL     OW84544   6.752   6.817   9.108 -0.3837 -0.3259 -0.0537
26151SOL    HW184545   6.798   6.733   9.117 -0.0404 -0.2028 -0.5833
26151SOL    HW284546   6.822   6.881   9.097 -0.6513  0.0049  0.1660
26152SOL     OW84547   7.052   1.067   0.946  0.0728 -0.0287  0.2537
26152SOL    HW184548   7.080   0.976   0.954 -1.0869 -0.3750  0.6154
26152SOL    HW284549   7.051   1.100   1.036 -0.7733 -0.0731  0.2698
26153SOL     OW84550   7.294   2.224   7.499  0.0096  0.3530 -0.1045
26153SOL    HW184551   7.352   2.149   7.514  1.7693  1.5214 -0.6610
26153SOL    HW284552   7.210   2.198   7.535  1.3764 -0.7005  2.5634
26154SOL     OW84553  10.036   8.103   9.444  0.5463 -0.2484 -0.2802
26154SOL    HW184554  10.027   8.030   9.505 -1.0884 -0.6578 -0.9746
26154SOL    HW284555  10.123   8.139   9.463  0.7928 -1.4583  1.0598
26155SOL     OW84556   6.816   5.215   1.555  0.4959 -0.5574 -0.3004
26155SOL    HW184557   6.893   5.260   1.591 -0.7324  0.3267  1.3494
26155SOL    HW284558   6.780   5.277   1.491 -1.5041  1.2531  2.3498
26156SOL     OW84559   3.304   6.673   4.319 -0.1232 -0.2494 -0.0259
26156SOL    HW184560   3.384   6.625   4.297  1.2318  2.3181 -1.2029
26156SOL    HW284561   3.241   6.605   4.341  2.3544 -2.4225  1.0052
26157SOL     OW84562   1.184   1.366   7.559  0.2039  0.5976  0.0196
26157SOL    HW184563   1.152   1.285   7.520  0.2325  1.3863 -1.7390
26157SOL    HW284564   1.113   1.429   7.548  0.1566  0.8286  1.4220
26158SOL     OW84565   6.911   2.964  10.443 -0.4452  0.0884  0.0484
26158SOL    HW184566   6.969   3.038  10.459 -0.0208 -0.6121  1.9977
26158SOL    HW284567   6.850   2.995  10.375 -0.2285  2.1806  0.7459
26159SOL     OW84568  10.090   2.960   3.981  0.7388 -0.4257  0.4473
26159SOL    HW184569  10.135   2.882   3.948 -0.9016 -1.1258 -0.2460
26159SOL    HW284570  10.093   3.021   3.908  0.1606 -0.6483  0.2376
26160SOL     OW84571   9.548   1.112   4.901 -0.3401  0.6019 -0.0526
26160SOL    HW184572   9.619   1.133   4.841  0.4078 -0.4952  0.4234
26160SOL    HW284573   9.559   1.173   4.974 -0.0858  0.6399 -0.1243
26161SOL     OW84574   1.991   7.458  10.530 -0.1724  0.5524 -0.2272
26161SOL    HW184575   1.951   7.455  10.444 -0.2211  0.1655 -0.1920
26161SOL    HW284576   2.065   7.398  10.524 -2.3263 -2.4906  1.0832
26162SOL     OW84577   7.744   4.265   0.938  0.4514 -0.0332  0.2983
26162SOL    HW184578   7.751   4.191   0.998 -2.2191 -1.1981 -0.6454
26162SOL    HW284579   7.668   4.313   0.968 -0.5299 -0.2531 -1.6499
26163SOL     OW84580   8.068   2.562   2.233 -0.5831 -0.2261 -0.4725
26163SOL    HW184581   8.061   2.499   2.305 -0.6106 -0.4895 -0.7033
26163SOL    HW284582   7.988   2.614   2.238  0.0980  0.7672  0.6217
26164SOL     OW84583   1.861   0.904   9.003 -0.1201  0.5104  0.0453
26164SOL    HW184584   1.818   0.841   9.061  0.5755 -0.0748 -0.0663
26164SOL    HW284585   1.929   0.944   9.056  0.4087  0.0958 -0.3050
26165SOL     OW84586   7.677   5.070   6.275  0.7148  0.0577 -0.3753
26165SOL    HW184587   7.752   5.122   6.247  0.7967  0.6686  0.9204
26165SOL    HW284588   7.655   5.017   6.198  1.9161  0.5018 -1.0550
26166SOL     OW84589   3.600   7.438   8.390 -0.2013 -0.9301 -0.4487
26166SOL    HW184590   3.537   7.448   8.461 -0.4594 -1.1258 -0.6517
26166SOL    HW284591   3.547   7.433   8.311  0.1206  1.1835 -0.8822
26167SOL     OW84592   0.717   4.561   0.214 -0.3218  0.3280 -0.3757
26167SOL    HW184593   0.811   4.577   0.211 -0.0112 -1.3182 -0.7024
26167SOL    HW284594   0.700   4.533   0.304 -0.1844 -0.8661 -0.6935
26168SOL     OW84595  10.586  10.768   0.157  0.4723 -0.0873 -0.0415
26168SOL    HW184596  10.567  10.759   0.251 -1.0898  1.2578 -0.1830
26168SOL    HW284597  10.652  10.838   0.153  0.3462  0.0370  0.0394
26169SOL     OW84598   4.334   8.189   2.744  0.1562  0.7649 -0.0125
26169SOL    HW184599   4.401   8.234   2.693  0.3623  0.6994  0.2005
26169SOL    HW284600   4.252   8.230   2.717  0.2917  0.9176 -0.1941
26170SOL     OW84601   6.993   1.829   9.854  0.4378  0.3009 -0.1261
26170SOL    HW184602   6.936   1.866   9.921  1.0213 -0.7454  0.9865
26170SOL    HW284603   6.976   1.735   9.858 -0.0281  0.2716 -1.9550
26171SOL     OW84604   1.709   8.198   9.924 -0.3213  0.0242 -0.1897
26171SOL    HW184605   1.724   8.272   9.866  0.6181 -0.5842 -0.7351
26171SOL    HW284606   1.716   8.236  10.012  0.2195  0.5696 -0.4585
26172SOL     OW84607   6.687  10.376   3.654  0.1346 -0.5012 -0.4329
26172SOL    HW184608   6.743  10.454   3.660 -0.6566  0.2222 -2.0010
26172SOL    HW284609   6.610  10.398   3.706 -0.3863  0.0488 -1.4213
26173SOL     OW84610   1.127   9.342   2.258  0.5183 -0.3681  0.0247
26173SOL    HW184611   1.216   9.307   2.270  0.3602 -0.7083  0.2208
26173SOL    HW284612   1.083   9.325   2.341 -0.8919 -3.6303 -1.2388
26174SOL     OW84613   9.779   8.658   0.385  0.0712  0.0513  0.4201
26174SOL    HW184614   9.830   8.703   0.452 -0.5804 -1.2474  1.8520
26174SOL    HW284615   9.738   8.728   0.335  0.5278  1.0518  1.4022
26175SOL     OW84616   8.545   7.168   3.216  0.4388 -0.1551  0.5245
26175SOL    HW184617   8.510   7.085   3.248 -0.2608 -0.3076 -0.5794
26175SOL    HW284618   8.571   7.215   3.295 -1.0617 -0.5852  1.3149
26176SOL     OW84619   7.012   3.551   1.810 -0.6489  0.6543  0.2334
26176SOL    HW184620   7.091   3.550   1.755  0.0442 -1.0452  1.1734
26176SOL    HW284621   7.028   3.621   1.873  0.0638  0.4097  0.3316
26177SOL     OW84622   9.513   3.677   7.914  0.0751 -0.8130 -0.6919
26177SOL    HW184623   9.600   3.676   7.954 -0.3077 -1.2102  0.1584
26177SOL    HW284624   9.500   3.588   7.881 -0.3431 -0.9913 -0.0600
26178SOL     OW84625   4.188   8.085   6.620 -0.9471 -0.3432  0.4100
26178SOL    HW184626   4.246   8.037   6.679 -0.4022  0.1135  0.2567
26178SOL    HW284627   4.103   8.042   6.629 -0.2187 -2.1480 -0.6296
26179SOL     OW84628  10.484   0.135   3.628  0.1783 -0.1964  0.3616
26179SOL    HW184629  10.493   0.129   3.723  0.7525  0.0777  0.3309
26179SOL    HW284630  10.534   0.214   3.604  0.5304 -0.5869 -0.2280
26180SOL     OW84631   9.898   2.734   7.750 -0.4559 -0.1293  0.2796
26180SOL    HW184632   9.806   2.757   7.737 -0.3521  0.6516  0.8436
26180SOL    HW284633   9.905   2.716   7.844  0.2288  1.0893  0.4802
26181SOL     OW84634   6.711   8.416   7.305 -0.3666 -0.0126  0.0079
26181SOL    HW184635   6.803   8.392   7.313 -0.5739 -1.1107 -0.6965
26181SOL    HW284636   6.663   8.335   7.325 -1.2234  0.7427  1.1974
26182SOL     OW84637   7.916  10.258  10.707  0.8262  0.1859 -0.3772
26182SOL    HW184638   7.947  10.300  10.626  1.2756  0.2089 -0.1979
26182SOL    HW284639   7.821  10.262  10.701  0.8514  1.3868 -0.2893
26183SOL     OW84640   3.148   5.228   2.391 -0.1428  0.8563 -0.4236
26183SOL    HW184641   3.065   5.182   2.392  0.9626 -1.2609  1.4042
26183SOL    HW284642   3.161   5.258   2.481  0.3782  2.5322 -1.0205
26184SOL     OW84643   9.405   0.198   5.810 -0.3872 -0.1580  0.0718
26184SOL    HW184644   9.358   0.276   5.783 -0.0283  0.0502  0.0418
26184SOL    HW284645   9.437   0.218   5.898  0.5040  0.0981 -0.2947
26185SOL     OW84646   1.635   9.377   3.268 -0.4001  0.0400 -0.3028
26185SOL    HW184647   1.626   9.293   3.222 -2.0348 -0.6462  1.1518
26185SOL    HW284648   1.701   9.425   3.218 -0.3123 -1.6251 -1.8847
26186SOL     OW84649   4.971   2.457   1.867 -0.6159 -0.1396 -0.1196
26186SOL    HW184650   4.972   2.420   1.956  3.0908  0.3586  0.2338
26186SOL    HW284651   5.025   2.396   1.816 -0.4697  0.9709 -1.3325
26187SOL     OW84652   5.377   6.282   4.263  0.3676  0.2367  0.0067
26187SOL    HW184653   5.442   6.251   4.200  3.2777  3.6398  0.9843
26187SOL    HW284654   5.317   6.336   4.210 -1.7182 -2.6502 -0.8397
26188SOL     OW84655   2.781   9.471   4.388 -0.1306 -0.3144 -0.1587
26188SOL    HW184656   2.798   9.457   4.481  0.9714  0.4689 -0.2245
26188SOL    HW284657   2.858   9.436   4.344 -0.5930 -0.5775 -0.7803
26189SOL     OW84658   8.931   3.903   1.003 -0.0147 -0.1462 -0.0444
26189SOL    HW184659   9.026   3.897   1.011  0.0305 -0.6816 -0.9298
26189SOL    HW284660   8.916   3.985   0.956  0.0903 -0.7300 -1.1279
26190SOL     OW84661   5.812   1.464   4.446 -1.1528  0.3653  0.1834
26190SOL    HW184662   5.749   1.441   4.377 -0.9820 -1.5770  0.6067
26190SOL    HW284663   5.823   1.559   4.438 -1.7849  0.3141 -1.8978
26191SOL     OW84664   5.327   5.791   1.304  0.1942  0.3353 -0.4757
26191SOL    HW184665   5.260   5.859   1.313  0.0453  0.0106  1.1055
26191SOL    HW284666   5.311   5.732   1.377  3.4600  1.3238  1.1848
26192SOL     OW84667  10.400   5.356   0.419 -0.0398  0.2510 -0.4353
26192SOL    HW184668  10.395   5.281   0.479 -1.2884 -0.3811 -1.2833
26192SOL    HW284669  10.458   5.327   0.349 -0.4420  0.0934 -0.7112
26193SOL     OW84670   6.902   6.190   7.697  0.6787 -0.2857  0.2576
26193SOL    HW184671   6.816   6.158   7.724  0.1751  0.5067 -0.3484
26193SOL    HW284672   6.923   6.141   7.618  0.5150 -0.0593  0.0738
26194SOL     OW84673  10.899   2.217   5.167  0.5254 -0.1278  0.2513
26194SOL    HW184674  10.978   2.272   5.174  0.1676  0.5992 -0.9795
26194SOL    HW284675  10.828   2.280   5.152 -0.5784 -0.6405  2.8246
26195SOL     OW84676   2.729   5.624   8.398  0.0121  0.1962  0.4425
26195SOL    HW184677   2.712   5.530   8.392 -1.9435  0.4198  1.5162
26195SOL    HW284678   2.765   5.648   8.312 -2.8148 -0.9149 -1.1698
26196SOL     OW84679   6.794   0.376  10.815 -0.2272  0.4894  0.2470
26196SOL    HW184680   6.755   0.410  10.895 -0.3074  0.8491  0.0600
26196SOL    HW284681   6.772   0.283  10.814 -1.0385  0.6735  0.1727
26197SOL     OW84682   8.339   8.235  10.079  0.6273  0.8766  0.2642
26197SOL    HW184683   8.404   8.301  10.103  0.0516  1.3949  0.4301
26197SOL    HW284684   8.255   8.276  10.099  0.2635 -0.0038  0.6149
26198SOL     OW84685   7.459   4.998   6.950  0.6027 -0.1053  0.2183
26198SOL    HW184686   7.471   4.907   6.923  1.3173 -0.1311  0.5995
26198SOL    HW284687   7.368   5.001   6.981  0.7176 -0.8183  0.6625
26199SOL     OW84688   4.829   4.887   4.756  0.1818  0.0336  0.1368
26199SOL    HW184689   4.888   4.812   4.756  1.6300  1.0578  2.4262
26199SOL    HW284690   4.774   4.874   4.834 -0.5588  0.6137 -0.2796
26200SOL     OW84691   0.078   7.997   2.808  0.0867  0.2443 -0.4427
26200SOL    HW184692   0.011   8.014   2.874 -2.1396 -0.6728 -2.3155
26200SOL    HW284693   0.155   8.043   2.840 -1.5963  1.9359  1.5098
26201SOL     OW84694   9.732   0.297   5.117  0.2279 -0.2154  0.1724
26201SOL    HW184695   9.689   0.349   5.050  2.0123  1.3896  0.1869
26201SOL    HW284696   9.661   0.251   5.162 -1.1309 -0.0765 -1.7439
26202SOL     OW84697   9.116   2.982   1.758  0.4487 -0.1196 -0.0794
26202SOL    HW184698   9.077   2.897   1.780 -1.8914  0.4638 -1.5521
26202SOL    HW284699   9.115   3.030   1.841 -0.9877 -0.5574  0.2022
26203SOL     OW84700   0.472   5.838   6.119  0.0696  0.0650  0.3739
26203SOL    HW184701   0.438   5.864   6.204  1.7260  0.1916  1.0465
26203SOL    HW284702   0.565   5.821   6.135  0.1652 -1.0656 -1.1673
26204SOL     OW84703  10.884   2.053   3.450 -0.2956 -0.2141  1.1830
26204SOL    HW184704  10.949   2.005   3.398 -0.5003  0.4472  0.2814
26204SOL    HW284705  10.819   2.082   3.385 -1.2602 -0.4839  2.0045
26205SOL     OW84706   8.900  10.813   5.868  0.3321  0.3035 -0.1751
26205SOL    HW184707   8.849  10.887   5.836 -0.7290 -0.5572 -0.5305
26205SOL    HW284708   8.990  10.832   5.840 -0.2098  0.5948 -1.8625
26206SOL     OW84709   9.908   1.496   1.324 -0.4799  0.5340 -0.1116
26206SOL    HW184710   9.864   1.440   1.389 -1.3245 -0.2927 -1.3577
26206SOL    HW284711   9.982   1.534   1.372  0.1676 -1.6897  0.7810
26207SOL     OW84712   8.613   0.311  10.882 -0.1703  0.4192  0.2027
26207SOL    HW184713   8.701   0.281  10.858 -0.9443 -1.2059 -0.7643
26207SOL    HW284714   8.588   0.372  10.813  0.0350  0.5737  0.2649
26208SOL     OW84715   4.552   9.132   4.901  0.4658  0.1992 -0.5412
26208SOL    HW184716   4.639   9.093   4.913  0.1212 -0.7797 -1.0908
26208SOL    HW284717   4.500   9.095   4.973  0.4428  0.6190 -0.3381
26209SOL     OW84718   8.551   7.445   9.034 -0.9302  0.2435 -0.1619
26209SOL    HW184719   8.592   7.519   9.078  0.5542  0.0927 -1.2225
26209SOL    HW284720   8.568   7.371   9.092  1.6926 -0.1014 -1.2419
26210SOL     OW84721   2.936   7.612   7.774  0.4224  0.0632  0.2871
26210SOL    HW184722   2.945   7.706   7.758  0.2749  0.5643  2.7516
26210SOL    HW284723   2.963   7.571   7.692  2.2900  2.1815 -0.2630
26211SOL     OW84724   8.991   3.466   8.300  0.2715  0.0962  0.2292
26211SOL    HW184725   8.995   3.487   8.394 -0.3078 -0.2312  0.3311
26211SOL    HW284726   8.910   3.417   8.290 -0.9046  2.1247 -0.8314
26212SOL     OW84727   4.141   5.454   9.043  0.6637  0.4432 -0.8310
26212SOL    HW184728   4.176   5.518   9.105  3.1172 -0.0335 -1.5900
26212SOL    HW284729   4.123   5.377   9.096  2.9087 -0.0208 -0.6213
26213SOL     OW84730   2.427   8.182   1.111  0.1474  0.4361 -0.3291
26213SOL    HW184731   2.459   8.201   1.199 -1.6833 -1.6331  0.8690
26213SOL    HW284732   2.344   8.228   1.105 -0.6241 -0.9071 -0.2510
26214SOL     OW84733   8.094   2.639  10.631  0.0904 -0.1448  0.2213
26214SOL    HW184734   8.075   2.703  10.699 -2.4512  0.1205 -0.6412
26214SOL    HW284735   8.021   2.577  10.634  0.7362 -1.0428 -1.2172
26215SOL     OW84736   2.964   5.448   4.157 -0.0837 -0.2796  0.0581
26215SOL    HW184737   2.960   5.510   4.230 -0.5144  0.8591 -0.9054
26215SOL    HW284738   2.880   5.403   4.159 -1.9056  2.7196 -2.2190
26216SOL     OW84739   4.740   9.856   7.900 -0.0305 -0.0721 -0.2249
26216SOL    HW184740   4.666   9.818   7.949  0.0538  0.2287  0.1388
26216SOL    HW284741   4.740   9.808   7.817 -1.0417  0.3686 -0.4974
26217SOL     OW84742   0.114   6.599   5.701  0.1528 -0.1746  0.3839
26217SOL    HW184743   0.115   6.503   5.702 -0.2915 -0.1825  1.6123
26217SOL    HW284744   0.029   6.623   5.738  0.4624  0.6973  0.5562
26218SOL     OW84745   3.446   5.430   6.574  0.4312  0.2009  0.0450
26218SOL    HW184746   3.440   5.500   6.509 -2.6144 -0.3420 -0.3856
26218SOL    HW284747   3.496   5.361   6.531 -0.9199  0.1430 -1.5246
26219SOL     OW84748   8.263   6.644   1.016 -0.0004  0.0948 -0.3306
26219SOL    HW184749   8.236   6.709   0.952 -0.8517 -0.9022 -1.0193
26219SOL    HW284750   8.213   6.665   1.095  0.3131  0.7350 -0.2995
26220SOL     OW84751  10.711   8.183   5.925  0.0800 -0.5290  0.1345
26220SOL    HW184752  10.772   8.115   5.951  0.6334 -0.1797 -0.2182
26220SOL    HW284753  10.681   8.157   5.837  1.6114  0.5282 -0.7489
26221SOL     OW84754   0.756   8.754   4.702  0.2879  0.4093 -0.6071
26221SOL    HW184755   0.797   8.797   4.627  0.3506  0.4604 -0.5440
26221SOL    HW284756   0.812   8.679   4.720  2.1286  2.1093  1.3518
26222SOL     OW84757   2.952   5.685   2.912 -0.5637  0.6377  0.3640
26222SOL    HW184758   3.036   5.672   2.956 -0.3231 -1.1036 -0.5120
26222SOL    HW284759   2.974   5.727   2.829 -0.4940 -0.1749 -0.0376
26223SOL     OW84760   9.517   2.949   8.946  0.7913 -0.2742 -0.3744
26223SOL    HW184761   9.507   3.041   8.972  0.7535 -0.7126  1.3205
26223SOL    HW284762   9.557   2.952   8.860 -0.2968  1.3445 -0.8630
26224SOL     OW84763   8.431   6.269   6.544 -0.0157 -0.2181 -0.3333
26224SOL    HW184764   8.526   6.280   6.540  0.0020 -0.5060 -0.8012
26224SOL    HW284765   8.415   6.228   6.630  0.1345  1.1475  0.3683
26225SOL     OW84766   0.054   9.556   3.639 -0.5397 -0.0732 -0.3102
26225SOL    HW184767   0.041   9.467   3.606  0.4243  0.5744 -2.5536
26225SOL    HW284768   0.129   9.549   3.698 -1.1424 -0.9176  0.3843
26226SOL     OW84769   0.491   0.144   7.553  0.3700  0.2437 -0.2537
26226SOL    HW184770   0.567   0.183   7.597  0.3985 -1.5304  1.3886
26226SOL    HW284771   0.486   0.055   7.588 -0.5464 -0.7745 -2.7831
26227SOL     OW84772   0.398   0.276   6.872  0.1515  0.5401  0.0830
26227SOL    HW184773   0.473   0.326   6.839 -1.2074  1.1430 -2.3168
26227SOL    HW284774   0.412   0.187   6.841  0.1993  0.5005  0.2172
26228SOL     OW84775   6.854   1.965   3.231  0.3572 -0.4105 -0.4726
26228SOL    HW184776   6.830   2.057   3.233  2.1040  0.0795 -0.3624
26228SOL    HW284777   6.939   1.961   3.274 -0.9686 -2.5219  2.2861
26229SOL     OW84778   8.146   8.820   5.424 -0.5282  0.2144  0.5684
26229SOL    HW184779   8.067   8.808   5.371 -1.5237  0.4076  1.9347
26229SOL    HW284780   8.152   8.740   5.476 -0.5884  0.7406  1.4126
26230SOL     OW84781   4.448   6.811   5.544 -0.5545 -0.1355  0.1764
26230SOL    HW184782   4.536   6.781   5.520 -1.2136 -2.1618  0.1079
26230SOL    HW284783   4.449   6.813   5.640 -0.1396  0.8482  0.1606
26231SOL     OW84784   4.080   6.213   1.324 -0.1619 -0.4563 -0.3978
26231SOL    HW184785   4.130   6.144   1.368 -0.1725  0.7819  1.6986
26231SOL    HW284786   4.139   6.288   1.325 -0.4941 -0.1637 -1.8257
26232SOL     OW84787   8.670   7.965  10.096  0.1675  0.4444 -0.1778
26232SOL    HW184788   8.705   7.893  10.148  2.2576 -0.1929 -2.2884
26232SOL    HW284789   8.746   8.016  10.069 -0.9098  1.3713 -1.6730
26233SOL     OW84790   1.621   9.906   5.714  0.2495  1.1599 -0.0882
26233SOL    HW184791   1.687   9.974   5.696 -0.1363  1.4807 -0.3123
26233SOL    HW284792   1.577   9.893   5.631  0.6880  0.2203 -0.1826
26234SOL     OW84793   9.978   0.495   0.700  0.3416 -0.2857  0.2081
26234SOL    HW184794  10.002   0.585   0.722 -0.7512  0.0014  0.3230
26234SOL    HW284795   9.914   0.471   0.768 -0.6142 -0.5457 -0.7606
26235SOL     OW84796   2.420   0.902   1.791 -0.8503  0.5386  0.2528
26235SOL    HW184797   2.378   0.971   1.739 -2.9749 -1.1968 -0.4562
26235SOL    HW284798   2.503   0.941   1.818  0.0395  1.9005 -3.7133
26236SOL     OW84799   9.039  10.055   2.430 -0.4095 -0.2802  0.4616
26236SOL    HW184800   9.099  10.098   2.369 -1.7125  0.3879 -0.3985
26236SOL    HW284801   9.057   9.961   2.420  0.4869 -0.0880  0.2245
26237SOL     OW84802  10.884   4.584   8.981 -0.4071 -0.2420  0.2597
26237SOL    HW184803  10.871   4.668   8.936  0.3292 -0.6805 -0.8305
26237SOL    HW284804  10.942   4.605   9.054  0.3038  0.1022 -0.3830
26238SOL     OW84805   2.279   3.116   5.511  0.0921 -0.2888  0.2487
26238SOL    HW184806   2.351   3.180   5.510 -0.8809  1.2212  4.6530
26238SOL    HW284807   2.205   3.162   5.472  0.3023 -0.0467  0.1314
26239SOL     OW84808   8.330   1.095   4.125  0.1562 -0.3309 -0.4181
26239SOL    HW184809   8.239   1.125   4.124 -0.0359 -0.7353  1.2468
26239SOL    HW284810   8.340   1.045   4.044 -0.2452  2.0280 -2.0225
26240SOL     OW84811   9.259  10.588   9.423 -0.4009  0.0687 -0.2802
26240SOL    HW184812   9.251  10.663   9.483  1.4255  0.8534 -0.9604
26240SOL    HW284813   9.343  10.601   9.380 -0.2080 -2.2249 -0.6691
26241SOL     OW84814   3.753   4.085   8.520 -0.0290  0.3601 -0.5658
26241SOL    HW184815   3.687   4.124   8.577 -0.0377 -0.3428 -0.0858
26241SOL    HW284816   3.703   4.031   8.459  0.0437  0.4384 -0.6944
26242SOL     OW84817   4.438   6.420   1.216  0.0579 -0.4789  0.6367
26242SOL    HW184818   4.456   6.435   1.123  0.9316 -1.6253  0.5922
26242SOL    HW284819   4.473   6.332   1.233  1.4568  0.3683  2.4610
26243SOL     OW84820   8.170   7.540   2.540 -0.0116  0.6044 -0.8858
26243SOL    HW184821   8.133   7.566   2.456 -0.2392  0.3668 -0.8622
26243SOL    HW284822   8.201   7.451   2.526  2.6703  1.5576 -1.5715
26244SOL     OW84823   8.190   6.782   5.015  0.2572 -0.7970  0.4667
26244SOL    HW184824   8.112   6.728   5.032 -1.0408  0.7191 -0.3080
26244SOL    HW284825   8.166   6.869   5.048  0.1211  0.6467 -2.9720
26245SOL     OW84826   7.440   2.985   9.820  0.3030  0.0496 -0.1736
26245SOL    HW184827   7.449   2.917   9.753 -1.6287 -2.2045  1.6885
26245SOL    HW284828   7.368   2.956   9.875 -0.4751  3.5318  0.9455
26246SOL     OW84829   2.400   1.785   4.700  0.1117 -0.6123 -0.5390
26246SOL    HW184830   2.457   1.711   4.718 -0.5276 -0.9217  0.2796
26246SOL    HW284831   2.338   1.752   4.635  1.0729 -0.1571 -1.7315
26247SOL     OW84832   6.853   2.355   2.698 -0.4404 -0.1365 -0.3431
26247SOL    HW184833   6.920   2.379   2.635 -0.2308 -0.4507 -0.2432
26247SOL    HW284834   6.802   2.435   2.711  1.5814  0.9670  1.6725
26248SOL     OW84835   0.245   1.407   3.260 -0.3127  0.0996  0.3755
26248SOL    HW184836   0.162   1.366   3.285 -0.2144 -0.0790  0.4097
26248SOL    HW284837   0.219   1.480   3.204 -0.4107 -1.1792 -1.3279
26249SOL     OW84838   5.812   2.163   7.476 -0.1831 -0.3336 -0.1293
26249SOL    HW184839   5.850   2.250   7.469  0.4061 -0.5339  0.4939
26249SOL    HW284840   5.720   2.175   7.453  0.3212  0.0731 -2.1262
26250SOL     OW84841   9.605   5.300   6.932  0.0076  0.2383  0.7123
26250SOL    HW184842   9.568   5.383   6.903 -0.9948 -0.1383  0.8545
26250SOL    HW284843   9.698   5.306   6.910 -0.3230  0.7977 -0.6807
26251SOL     OW84844   0.932   8.561   3.600  0.6558  0.3726 -0.4229
26251SOL    HW184845   0.992   8.532   3.531  0.4862  0.4283 -0.5917
26251SOL    HW284846   0.959   8.510   3.677 -0.5685 -1.3215 -1.0673
26252SOL     OW84847  10.896   0.311   5.224 -0.4627  0.0933  0.1411
26252SOL    HW184848  10.916   0.372   5.296 -0.9105  0.2293  0.1510
26252SOL    HW284849  10.982   0.291   5.186 -0.2003 -0.0787  0.7923
26253SOL     OW84850   7.009   2.848   6.844  0.1756  0.0406 -0.6260
26253SOL    HW184851   7.097   2.818   6.823  0.4066  0.9328 -0.9462
26253SOL    HW284852   7.008   2.856   6.940  1.3437  2.6707 -0.7603
26254SOL     OW84853   6.985   5.675  10.323  0.1626 -0.1113 -0.0613
26254SOL    HW184854   6.917   5.721  10.372 -0.3694 -1.2809  0.3418
26254SOL    HW284855   7.067   5.715  10.351 -0.3687  1.8273 -1.0937
26255SOL     OW84856   5.126   4.117   0.630  0.2363  0.1789 -0.2677
26255SOL    HW184857   5.099   4.206   0.651  0.3638 -0.2135  1.7880
26255SOL    HW284858   5.062   4.061   0.675 -0.2248 -0.7922 -2.0489
26256SOL     OW84859   5.147   4.560   8.966 -0.5164  0.8207 -0.2921
26256SOL    HW184860   5.114   4.650   8.971 -0.7217  0.6709  1.8059
26256SOL    HW284861   5.069   4.505   8.971 -0.3810  0.4974 -1.4365
26257SOL     OW84862   5.515   9.335   4.619 -0.5709 -0.1689  0.3025
26257SOL    HW184863   5.438   9.390   4.605 -0.7584 -0.7323 -0.9376
26257SOL    HW284864   5.587   9.383   4.577 -0.6096 -0.5613 -0.2105
26258SOL     OW84865   5.356   0.534   0.093 -0.0297 -0.0722  0.1991
26258SOL    HW184866   5.359   0.528   0.189 -2.2984  0.1897  0.3373
26258SOL    HW284867   5.341   0.444   0.064 -0.6810  0.0393  0.1818
26259SOL     OW84868   8.897   6.570   4.881  0.8378 -0.0655 -0.0532
26259SOL    HW184869   8.924   6.552   4.790 -1.1191  0.2912 -0.7528
26259SOL    HW284870   8.939   6.653   4.902  1.7989 -0.4460 -0.4138
26260SOL     OW84871   5.880   6.832   9.085  0.0416  0.1044 -0.1565
26260SOL    HW184872   5.951   6.887   9.120  1.3042 -0.1374 -2.1725
26260SOL    HW284873   5.904   6.817   8.994 -1.4285 -1.9495 -0.2770
26261SOL     OW84874   5.252   8.131   2.018  0.6080 -0.3789 -0.0439
26261SOL    HW184875   5.167   8.139   2.061 -0.3495  0.9923 -2.0436
26261SOL    HW284876   5.297   8.212   2.039 -0.2388  0.7401 -2.2364
26262SOL     OW84877   4.196   7.995   9.967 -0.2179  0.0587 -0.0993
26262SOL    HW184878   4.171   8.085   9.988  0.0831 -0.1371  1.1614
26262SOL    HW284879   4.174   7.945  10.046  1.7384 -0.5633  0.1164
26263SOL     OW84880   9.900   9.466   8.718 -0.4956 -0.3844  0.7290
26263SOL    HW184881   9.966   9.411   8.676 -0.2995  0.1812  0.2774
26263SOL    HW284882   9.822   9.457   8.663 -0.5410 -0.4039  0.7949
26264SOL     OW84883   1.880   9.904   0.148  0.5926 -0.7586  0.1334
26264SOL    HW184884   1.834   9.986   0.129  1.5675 -0.0960  0.5201
26264SOL    HW284885   1.825   9.860   0.212  1.6199  1.1835  2.5094
26265SOL     OW84886   5.979   6.386   8.550 -0.1660  0.1202 -0.4071
26265SOL    HW184887   6.066   6.394   8.589 -0.2450  0.8553 -0.3744
26265SOL    HW284888   5.947   6.301   8.581  0.2475  0.1720  0.1727
26266SOL     OW84889   2.332   5.178   3.722 -0.2142  0.9361 -0.9089
26266SOL    HW184890   2.240   5.155   3.736 -0.0462  0.7429 -0.0779
26266SOL    HW284891   2.366   5.196   3.809  1.3042 -1.8644 -0.7970
26267SOL     OW84892   3.049   0.931   1.898 -0.3013 -0.1399  0.3443
26267SOL    HW184893   2.966   0.964   1.863 -0.1882 -0.3959 -0.1728
26267SOL    HW284894   3.075   0.862   1.837  1.8528  1.9752 -1.3382
26268SOL     OW84895   9.995   8.137   3.916  0.6575  0.1051 -0.2433
26268SOL    HW184896   9.932   8.158   3.846  0.1999 -1.3163 -0.2898
26268SOL    HW284897   9.952   8.167   3.996  0.8823  1.1048 -0.4766
26269SOL     OW84898   6.877  10.400   9.134 -0.3287  0.0542  0.5080
26269SOL    HW184899   6.860  10.393   9.228 -2.2114 -0.3424  0.1836
26269SOL    HW284900   6.845  10.487   9.111  0.9390  0.5013  0.3598
26270SOL     OW84901   0.503   7.712   4.455 -0.0958 -0.5517  0.0325
26270SOL    HW184902   0.437   7.681   4.517 -0.0775  0.7158  0.7138
26270SOL    HW284903   0.470   7.685   4.369 -1.3690 -0.1645  0.3891
26271SOL     OW84904   4.828   6.743   2.391 -0.1091  0.1876 -0.7466
26271SOL    HW184905   4.821   6.779   2.479  1.3525 -0.2680 -0.4268
26271SOL    HW284906   4.822   6.820   2.334  1.9441  0.8777 -0.1047
26272SOL     OW84907   1.246   8.963   8.125  0.2854  0.4449 -0.1118
26272SOL    HW184908   1.174   9.004   8.172  0.1887  1.8376 -1.3888
26272SOL    HW284909   1.210   8.944   8.038  1.4989  1.4691 -0.8829
26273SOL     OW84910   4.419   6.426   8.087 -0.1842 -0.3865 -0.2865
26273SOL    HW184911   4.435   6.332   8.100 -1.4983 -0.4721  0.9532
26273SOL    HW284912   4.323   6.434   8.086 -0.1754  0.6228 -3.0650
26274SOL     OW84913   0.502   4.583   6.951  0.0666 -0.2992 -0.3180
26274SOL    HW184914   0.567   4.597   6.883 -0.9968  0.6610 -1.1770
26274SOL    HW284915   0.464   4.497   6.931  0.0513 -0.2050 -0.7029
26275SOL     OW84916   7.312   3.289  10.128 -0.3021 -0.1338 -0.5952
26275SOL    HW184917   7.248   3.356  10.103 -1.3596 -1.3356 -1.2179
26275SOL    HW284918   7.260   3.223  10.174  1.1946  0.8811  2.8871
26276SOL     OW84919   4.080   1.234   8.367  0.2845 -0.4401  0.0046
26276SOL    HW184920   4.165   1.265   8.334 -0.3824  0.8954 -0.5153
26276SOL    HW284921   4.017   1.264   8.302 -0.7162 -0.5328  0.9082
26277SOL     OW84922   2.570   0.474  10.104 -0.2388 -0.2699 -0.0042
26277SOL    HW184923   2.497   0.482  10.165  1.0982  1.2101  1.5267
26277SOL    HW284924   2.602   0.384  10.116 -0.2597 -0.1332  1.2090
26278SOL     OW84925   8.299   3.263   0.547  0.3426  0.3191  0.3545
26278SOL    HW184926   8.233   3.195   0.527  1.1376 -0.2726 -0.3349
26278SOL    HW284927   8.248   3.344   0.551 -0.3119  0.0567 -1.3376
26279SOL     OW84928   1.755   4.602   6.730 -0.4198  0.1567 -0.3108
26279SOL    HW184929   1.772   4.648   6.812 -1.1173 -0.5873  0.2619
26279SOL    HW284930   1.712   4.521   6.756  0.3677 -0.6158 -1.3377
26280SOL     OW84931   4.632  10.669   5.760 -0.3401  0.1566  0.4777
26280SOL    HW184932   4.547  10.643   5.796 -0.8935  0.9993 -0.1934
26280SOL    HW284933   4.662  10.592   5.712 -1.3361  0.2613 -0.3585
26281SOL     OW84934   3.231   3.931   8.270 -0.8176  0.0457  0.7079
26281SOL    HW184935   3.182   3.877   8.208  1.0637  0.5910 -1.3830
26281SOL    HW284936   3.242   3.874   8.346 -3.8800 -0.3727  0.9744
26282SOL     OW84937   6.191   1.396   8.984  0.0331 -0.6918 -0.0058
26282SOL    HW184938   6.140   1.439   9.053  0.3304 -1.8260  0.9708
26282SOL    HW284939   6.211   1.465   8.922  0.4307  0.5585  1.4559
26283SOL     OW84940   7.897   2.787   0.381  0.2751 -0.0984 -0.0783
26283SOL    HW184941   7.901   2.728   0.305  0.0420  1.1253 -1.0755
26283SOL    HW284942   7.817   2.761   0.427  0.1154 -0.4817 -0.5610
26284SOL     OW84943   5.953  10.091   0.759  0.2004  0.1747 -0.1648
26284SOL    HW184944   5.905  10.082   0.676 -0.1042  0.8380 -0.0689
26284SOL    HW284945   5.966  10.186   0.769  0.3602  0.0911  0.4704
26285SOL     OW84946   6.682  10.770   9.999 -0.2048 -0.0971 -0.8503
26285SOL    HW184947   6.704  10.832  10.069 -0.1212 -0.1362 -0.8424
26285SOL    HW284948   6.729  10.690  10.022  0.4037  0.1165 -1.3354
26286SOL     OW84949   4.474   1.932  10.662  0.8816 -0.6766 -0.1129
26286SOL    HW184950   4.515   1.903  10.743  1.1614 -0.3979 -0.1541
26286SOL    HW284951   4.511   2.018  10.646 -0.4208 -0.0121  0.3488
26287SOL     OW84952   6.060   7.659   8.454  0.0388  0.4323 -0.0457
26287SOL    HW184953   6.072   7.721   8.381 -0.1125  1.3423  0.6833
26287SOL    HW284954   6.129   7.681   8.516  0.8728 -1.0893 -0.3866
26288SOL     OW84955   3.197  10.526   2.031 -0.0631 -0.0683 -0.1303
26288SOL    HW184956   3.144  10.586   2.084 -0.9277 -0.4131 -0.5742
26288SOL    HW284957   3.136  10.456   2.007  0.0940  0.3870 -2.0910
26289SOL     OW84958   8.803   8.071   7.654  0.2448 -0.7164  0.9301
26289SOL    HW184959   8.847   8.153   7.630  1.0714 -1.3873  0.0766
26289SOL    HW284960   8.836   8.052   7.742  0.9515 -0.7253  0.6696
26290SOL     OW84961   0.313   4.860   0.645 -0.1781 -0.1363  0.8992
26290SOL    HW184962   0.341   4.777   0.606 -1.7214 -0.1208 -0.3310
26290SOL    HW284963   0.386   4.920   0.628 -0.1059 -0.5833 -0.5219
26291SOL     OW84964  10.465   0.552   3.397  0.0320 -0.7888 -0.0996
26291SOL    HW184965  10.421   0.627   3.356 -2.6739 -1.8285  0.6894
26291SOL    HW284966  10.445   0.478   3.339 -0.0814 -1.4579  0.7734
26292SOL     OW84967   2.002   7.495   7.804  0.0592 -0.2074 -0.6495
26292SOL    HW184968   1.959   7.492   7.889  1.5615 -1.4677  0.1237
26292SOL    HW284969   1.944   7.446   7.746 -0.0290 -1.0786  0.1479
26293SOL     OW84970   8.898   4.031   7.822  0.1164  0.5635  0.1494
26293SOL    HW184971   8.893   4.094   7.893 -0.0180 -0.7334  1.3453
26293SOL    HW284972   8.811   4.034   7.781  0.0586  1.0326  0.3049
26294SOL     OW84973   0.885   5.785   8.761 -0.1648 -0.3347  0.2474
26294SOL    HW184974   0.927   5.864   8.726  3.3147 -1.1604  2.0692
26294SOL    HW284975   0.839   5.815   8.840  0.3183  0.0384  0.3921
26295SOL     OW84976   7.199   1.786   1.192  0.3510 -0.0642  0.3809
26295SOL    HW184977   7.228   1.776   1.101  0.4079 -0.0912  0.4022
26295SOL    HW284978   7.122   1.730   1.199 -1.1013  1.7250 -0.3167
26296SOL     OW84979   6.088   7.167   3.531 -0.1201  0.5916  0.5162
26296SOL    HW184980   6.082   7.214   3.448 -0.4284  0.6486  0.5704
26296SOL    HW284981   6.182   7.163   3.549  0.0356 -0.3100 -0.3506
26297SOL     OW84982   4.363   1.605   0.608  0.2576  0.3204 -0.0830
26297SOL    HW184983   4.373   1.569   0.696 -0.5551 -0.7219 -0.4088
26297SOL    HW284984   4.420   1.683   0.608  0.0763  0.4844  1.4339
26298SOL     OW84985   4.486   5.937   7.192 -0.1943 -0.3457 -0.1167
26298SOL    HW184986   4.482   6.010   7.253  0.2564 -0.6348  0.2727
26298SOL    HW284987   4.447   5.864   7.240  0.1421 -0.5681 -0.1807
26299SOL     OW84988   9.838   1.787   0.934  0.6382  0.1729  0.2877
26299SOL    HW184989   9.812   1.695   0.935 -0.5118  0.4754  0.0440
26299SOL    HW284990   9.886   1.798   0.852 -3.3282  0.7913 -2.2434
26300SOL     OW84991   2.768   4.943   9.669 -0.3190  0.3553 -0.3056
26300SOL    HW184992   2.860   4.958   9.644 -0.2633  0.4160 -0.0620
26300SOL    HW284993   2.756   4.848   9.658 -0.0400  0.2483  0.2888
26301SOL     OW84994   9.083   5.502  10.773  0.0925 -0.0771  0.1371
26301SOL    HW184995   9.160   5.464  10.730 -0.2884 -0.2865 -0.3735
26301SOL    HW284996   9.061   5.579  10.720 -1.9708 -1.7878 -1.7328
26302SOL     OW84997   4.212   6.462   1.072 -0.3470 -0.3359 -0.3304
26302SOL    HW184998   4.240   6.389   1.017 -2.9604 -2.2303  0.6617
26302SOL    HW284999   4.258   6.447   1.155  1.1024  0.6935 -0.9030
26303SOL     OW85000   2.894  10.642   4.971 -0.1466  0.0376  0.3150
26303SOL    HW185001   2.926  10.681   5.052 -0.4850  0.9521  0.0133
26303SOL    HW285002   2.951  10.677   4.903 -2.4674  2.7635 -0.4248
26304SOL     OW85003   4.440   6.834   4.084 -0.2766  0.3608  0.0672
26304SOL    HW185004   4.509   6.893   4.113  1.6175 -1.9473  0.5491
26304SOL    HW285005   4.411   6.790   4.165 -2.3947  1.2707 -0.1147
26305SOL     OW85006   4.573   3.164   0.802 -0.0435  0.0421 -0.2693
26305SOL    HW185007   4.508   3.144   0.870 -0.2377 -0.0418 -0.4773
26305SOL    HW285008   4.531   3.136   0.720  0.0337  0.5020 -0.4657
26306SOL     OW85009   7.593   3.551   7.411  0.3467  0.2132 -0.3900
26306SOL    HW185010   7.509   3.590   7.386 -1.6506 -1.0763  3.4751
26306SOL    HW285011   7.644   3.623   7.448  0.1200  0.6266 -0.8793
26307SOL     OW85012   2.093   9.962  10.837  0.1551 -0.2267 -0.4240
26307SOL    HW185013   2.164   9.938  10.898  0.1710 -0.8794 -0.6935
26307SOL    HW285014   2.102   9.900  10.765 -2.1226 -1.8690  0.6072
26308SOL     OW85015   8.472   2.713   9.274  0.1790 -0.1537  0.4203
26308SOL    HW185016   8.430   2.704   9.188 -2.3290 -0.8645  1.6208
26308SOL    HW285017   8.525   2.634   9.283  0.2676 -0.1950 -0.3770
26309SOL     OW85018   8.908   6.772   6.423  0.1397 -0.1376  0.4429
26309SOL    HW185019   8.851   6.704   6.389  1.4308 -1.2099  0.3516
26309SOL    HW285020   8.956   6.804   6.346 -1.0119  1.4628  0.3448
26310SOL     OW85021   0.988   8.577   9.396 -0.0414  0.3412  0.0784
26310SOL    HW185022   1.055   8.559   9.463  0.2352 -0.2983 -0.3517
26310SOL    HW285023   0.966   8.669   9.408  2.1645  1.0722 -0.8388
26311SOL     OW85024   4.367   5.377   1.914  0.8389  0.4316 -0.3715
26311SOL    HW185025   4.420   5.331   1.979 -0.1849  0.5125  0.5329
26311SOL    HW285026   4.307   5.310   1.880 -0.1016  0.8933  0.3576
26312SOL     OW85027   0.140   2.711   4.121  0.0289  0.2502 -0.0593
26312SOL    HW185028   0.154   2.772   4.048 -1.3387  0.5994 -0.0499
26312SOL    HW285029   0.057   2.737   4.159  0.4089 -0.3489  1.2420
26313SOL     OW85030   1.040  10.831   8.307  0.2478 -0.0960 -0.6273
26313SOL    HW185031   0.946  10.825   8.291 -0.1424  1.4671  0.8221
26313SOL    HW285032   1.051  10.911   8.358  2.3092 -0.5379 -0.2885
26314SOL     OW85033  10.892   9.172   0.379 -0.0740  0.1064 -0.3068
26314SOL    HW185034  10.840   9.104   0.336  1.7380 -1.1890 -0.5455
26314SOL    HW285035  10.955   9.125   0.433  0.2768  1.6449  0.7021
26315SOL     OW85036   8.735   2.421   2.644  0.1049 -0.1289 -0.5987
26315SOL    HW185037   8.669   2.455   2.704  1.4161 -0.2373  0.9755
26315SOL    HW285038   8.818   2.439   2.687  1.0524 -1.1185 -1.9332
26316SOL     OW85039   6.689   2.925  10.597 -0.1026  0.3766 -0.8088
26316SOL    HW185040   6.777   2.941  10.563 -0.0888  1.2736 -0.3883
26316SOL    HW285041   6.660   2.845  10.553  1.3977 -0.6533 -0.0030
26317SOL     OW85042   6.966   2.903   7.108 -0.2969 -0.2899  0.0060
26317SOL    HW185043   6.953   2.997   7.123 -0.1717 -0.3366  0.4314
26317SOL    HW285044   7.023   2.875   7.179  1.5656 -0.2364 -1.3980
26318SOL     OW85045   9.883   2.335   3.572  0.1824  0.1679 -0.3731
26318SOL    HW185046   9.957   2.357   3.516  0.2753 -0.9450 -0.7189
26318SOL    HW285047   9.823   2.286   3.515 -1.7441  2.6324 -0.6089
26319SOL     OW85048   1.489   0.189  10.710 -0.0185  0.0306 -0.3433
26319SOL    HW185049   1.454   0.211  10.624 -0.6138 -1.0027 -0.3714
26319SOL    HW285050   1.429   0.231  10.772 -0.5187 -0.5774 -0.4117
26320SOL     OW85051   7.442   7.419   8.858  0.2932 -0.3821  0.2712
26320SOL    HW185052   7.380   7.484   8.826 -0.3965 -0.5373  1.2189
26320SOL    HW285053   7.410   7.336   8.822  0.1666 -0.4093  0.4414
26321SOL     OW85054   0.788  10.134   5.920 -0.1243  0.6290 -0.2567
26321SOL    HW185055   0.716  10.193   5.940 -0.9875 -0.5975  0.3988
26321SOL    HW285056   0.866  10.188   5.923 -1.1176  2.3751 -2.6203
26322SOL     OW85057  10.222   9.675   3.707 -0.3892 -0.0377 -0.8230
26322SOL    HW185058  10.139   9.686   3.753 -0.1140  0.1942 -0.3746
26322SOL    HW285059  10.285   9.726   3.758  0.6137 -2.3643  0.4368
26323SOL     OW85060   1.915   0.862   3.659  0.1047 -0.4319  0.1103
26323SOL    HW185061   1.895   0.784   3.607 -0.6711  1.2909 -2.3170
26323SOL    HW285062   2.009   0.876   3.647  0.1123 -0.6021 -0.0279
26324SOL     OW85063  10.350   0.927   8.289 -0.6496  0.4588 -0.1737
26324SOL    HW185064  10.290   0.983   8.339 -1.5031 -0.3891 -0.2219
26324SOL    HW285065  10.433   0.932   8.337 -1.8159 -1.4528  2.2230
26325SOL     OW85066   8.044   5.330   4.548  0.0421  0.1914 -0.1638
26325SOL    HW185067   8.123   5.372   4.581 -0.2541 -0.0657  0.9263
26325SOL    HW285068   7.998   5.400   4.501  0.1823  0.7504  0.5060
26326SOL     OW85069   5.633   8.591   2.357  0.5246  0.3615 -0.9955
26326SOL    HW185070   5.647   8.523   2.292 -0.4364 -1.7200  0.8742
26326SOL    HW285071   5.706   8.580   2.418  0.5294  1.2383 -0.8306
26327SOL     OW85072   9.445   4.698   6.046 -0.1300 -0.1122 -0.0740
26327SOL    HW185073   9.519   4.693   6.107 -0.1626 -0.6597 -0.0711
26327SOL    HW285074   9.414   4.608   6.039 -2.6349  0.4739  2.1416
26328SOL     OW85075   4.456   3.178   5.873  0.7326  0.1098  0.0836
26328SOL    HW185076   4.404   3.196   5.951  2.5723  1.7898  1.0311
26328SOL    HW285077   4.455   3.260   5.824  0.9692 -0.4070 -0.8084
26329SOL     OW85078   6.969   1.889   8.839 -1.2838  0.0481  0.5744
26329SOL    HW185079   6.955   1.796   8.859 -2.2910  0.1934  0.5983
26329SOL    HW285080   7.049   1.890   8.787 -1.7585 -0.9423 -0.2161
26330SOL     OW85081   8.940   4.891   0.791  1.0276 -0.5490 -0.1296
26330SOL    HW185082   8.898   4.915   0.873  2.5432 -1.0635  0.8409
26330SOL    HW285083   8.868   4.879   0.729 -0.0757  1.1090  0.7578
26331SOL     OW85084   5.083   4.504   0.456 -0.1046 -0.2854 -0.2703
26331SOL    HW185085   5.029   4.458   0.520 -0.5204  1.1543  0.4731
26331SOL    HW285086   5.066   4.597   0.474 -0.5699  0.1806 -2.7292
26332SOL     OW85087   8.647   6.851   0.547 -0.0491  0.5212 -0.0542
26332SOL    HW185088   8.631   6.908   0.471 -1.7573 -0.7469 -0.7012
26332SOL    HW285089   8.599   6.893   0.618  1.6086  1.7485  0.3937
26333SOL     OW85090   7.051   5.057   1.067 -0.4650 -0.0826 -1.1956
26333SOL    HW185091   7.083   4.970   1.094 -0.6651 -0.0885 -0.9812
26333SOL    HW285092   7.033   5.103   1.148  1.7666  0.9792 -1.2183
26334SOL     OW85093   9.507   4.651   6.495  0.1573  0.2243 -0.0823
26334SOL    HW185094   9.457   4.705   6.556  2.6790  0.1715  2.2202
26334SOL    HW285095   9.501   4.697   6.411 -0.6419  2.1909  0.9907
26335SOL     OW85096   4.644   6.216   3.355  1.0854 -0.3777  0.0565
26335SOL    HW185097   4.732   6.180   3.348  0.8869 -1.1850  1.3933
26335SOL    HW285098   4.586   6.143   3.337  0.6745  0.0683 -0.4757
26336SOL     OW85099   1.432   3.195   9.939  0.0287  0.2959 -0.3776
26336SOL    HW185100   1.455   3.200   9.846 -2.0806  0.8657 -0.9390
26336SOL    HW285101   1.413   3.102   9.953 -1.1890  0.4256 -0.9807
26337SOL     OW85102   3.739   7.189   7.094 -0.4563  0.7395 -0.0916
26337SOL    HW185103   3.670   7.223   7.036 -2.2149 -1.5140  0.5582
26337SOL    HW285104   3.792   7.133   7.037 -0.3553  0.8783 -0.1378
26338SOL     OW85105   7.547  10.438   3.096  0.3550  0.0029 -0.1848
26338SOL    HW185106   7.534  10.506   3.162 -0.2675  0.2670 -0.5698
26338SOL    HW285107   7.595  10.369   3.142  0.6441  0.5290  0.3174
26339SOL     OW85108   9.685   1.863   9.380  0.4216 -0.3741 -0.1997
26339SOL    HW185109   9.650   1.920   9.448  0.5635 -0.1205 -0.3386
26339SOL    HW285110   9.776   1.848   9.406  0.1960 -1.0874  0.1962
26340SOL     OW85111   2.024   8.979   1.489 -0.2279 -0.2977 -0.3296
26340SOL    HW185112   2.091   8.979   1.422  0.9904 -1.1981  0.8330
26340SOL    HW285113   1.989   8.889   1.489 -2.0758  0.3609 -1.4907
26341SOL     OW85114   7.268   8.109   2.349 -0.7105 -0.4431  0.6476
26341SOL    HW185115   7.251   8.075   2.261 -0.1121  0.7915  0.0207
26341SOL    HW285116   7.361   8.094   2.363 -0.6954 -0.1625  0.8565
26342SOL     OW85117   6.100   3.908   3.263 -0.3668 -0.0497 -0.4579
26342SOL    HW185118   6.142   3.825   3.286  0.1113 -1.3290 -4.9491
26342SOL    HW285119   6.030   3.883   3.202 -1.9502  2.7072  0.0652
26343SOL     OW85120  10.304   6.806  10.642 -0.3482 -0.2312  0.3710
26343SOL    HW185121  10.322   6.721  10.684 -1.5032  1.1505  4.0376
26343SOL    HW285122  10.214   6.798  10.611  0.0750 -0.8050 -0.8090
26344SOL     OW85123   5.952   6.690   1.231  0.1527 -0.4151  1.1238
26344SOL    HW185124   6.035   6.733   1.211  0.2832 -0.4549  1.5673
26344SOL    HW285125   5.973   6.627   1.300 -0.4115  0.2257  1.8995
26345SOL     OW85126   8.555   7.393   7.924  0.2422 -0.0558  0.2617
26345SOL    HW185127   8.584   7.484   7.923 -3.3380  1.2501  0.3432
26345SOL    HW285128   8.547   7.369   7.832 -0.1321  0.2218  0.2186
26346SOL     OW85129   1.239   3.793   3.216 -0.3360  0.1709  0.4170
26346SOL    HW185130   1.158   3.749   3.242  0.1973 -0.2207  1.4704
26346SOL    HW285131   1.210   3.879   3.184 -1.2687 -0.4390 -0.4561
26347SOL     OW85132   4.117   7.237  10.316 -0.2793 -0.3907 -0.0031
26347SOL    HW185133   4.070   7.162  10.280 -2.5048 -0.1490  2.1502
26347SOL    HW285134   4.104   7.231  10.410  1.2920  1.5611  0.4092
26348SOL     OW85135   2.602   3.729   5.879  0.0044  0.2016 -0.3750
26348SOL    HW185136   2.668   3.736   5.948  0.9942  0.3392 -1.3033
26348SOL    HW285137   2.597   3.817   5.842 -0.0834 -0.0065 -0.8669
26349SOL     OW85138   6.773   8.063   7.213 -0.0199  0.0578  0.5572
26349SOL    HW185139   6.777   8.102   7.126  0.5733  0.5665  0.8073
26349SOL    HW285140   6.680   8.046   7.227 -0.1541  0.2692 -0.0435
26350SOL     OW85141   5.817   0.631   7.773  0.0778 -0.3773 -0.7458
26350SOL    HW185142   5.732   0.647   7.814  0.4342 -0.3760  0.0074
26350SOL    HW285143   5.810   0.543   7.735  0.3752 -1.1840  0.9931
26351SOL     OW85144  10.232  10.757   2.384  0.2870  0.2178  0.3291
26351SOL    HW185145  10.230  10.665   2.361 -0.5947  0.5512 -0.9991
26351SOL    HW285146  10.312  10.767   2.436  0.5851 -1.2092  0.1684
26352SOL     OW85147   3.425   3.156   2.189  0.2486 -0.7262 -0.2519
26352SOL    HW185148   3.520   3.149   2.203  0.3560 -0.0012 -0.5451
26352SOL    HW285149   3.387   3.134   2.273  0.7602  0.6693  0.3820
26353SOL     OW85150   7.957   4.322   7.461 -0.1494 -0.2852 -0.0957
26353SOL    HW185151   8.004   4.338   7.543  0.0209 -1.9789  0.1857
26353SOL    HW285152   8.024   4.286   7.402 -0.2223  1.1182 -1.0707
26354SOL     OW85153   0.678   6.933   0.688 -0.4634  0.1814  0.4049
26354SOL    HW185154   0.693   6.873   0.615 -1.7087 -0.2351  0.4782
26354SOL    HW285155   0.591   6.969   0.672  0.1771  1.8397  0.4752
26355SOL     OW85156   6.920   5.017   8.427  0.1977 -0.1133  0.4002
26355SOL    HW185157   6.987   5.056   8.483  0.7801 -0.2659 -0.1675
26355SOL    HW285158   6.848   4.996   8.486  0.4368  0.5455  0.9340
26356SOL     OW85159   9.823   8.408   3.325  0.3530 -0.0232  0.0467
26356SOL    HW185160   9.850   8.351   3.253 -1.4447 -0.3198 -0.4559
26356SOL    HW285161   9.749   8.363   3.366 -0.5976  1.5236  0.1504
26357SOL     OW85162   8.844   6.896   7.842  0.3454 -0.1130  0.4061
26357SOL    HW185163   8.754   6.926   7.844  0.1860 -0.6083  1.3914
26357SOL    HW285164   8.862   6.866   7.932  1.3722 -0.3404  0.1444
26358SOL     OW85165   7.165   6.952   9.376 -0.5242 -0.2696  0.1732
26358SOL    HW185166   7.135   6.862   9.363  0.9819 -0.7310 -0.3869
26358SOL    HW285167   7.088   7.006   9.357 -1.4564 -1.4266  0.5214
26359SOL     OW85168   2.902   0.806   6.448  0.4928 -0.6793  0.0360
26359SOL    HW185169   2.958   0.872   6.406 -0.9109  1.0829  0.8223
26359SOL    HW285170   2.947   0.786   6.530 -1.3448  3.0539  2.1941
26360SOL     OW85171   8.420   5.077   5.591  0.4690 -0.2670 -0.7827
26360SOL    HW185172   8.489   5.034   5.643  0.0291  0.1092  0.1451
26360SOL    HW285173   8.434   5.171   5.605 -0.1937 -0.1844 -0.6176
26361SOL     OW85174   6.801   6.781   0.310 -0.0676 -0.4134 -0.5463
26361SOL    HW185175   6.766   6.719   0.246  1.7542 -0.5548 -1.4652
26361SOL    HW285176   6.833   6.855   0.258  1.1890 -0.3950  0.2029
26362SOL     OW85177   2.723   0.453   1.183  0.3506 -0.5283  0.2120
26362SOL    HW185178   2.666   0.480   1.111  0.0518 -0.0099  0.6260
26362SOL    HW285179   2.801   0.508   1.175  0.8073 -1.2553 -0.3688
26363SOL     OW85180   6.637   5.635   5.129  0.6888  0.1682  0.1873
26363SOL    HW185181   6.666   5.725   5.140  0.1255  0.4328 -0.3700
26363SOL    HW285182   6.567   5.641   5.064  0.2478 -0.5971  0.5800
26364SOL     OW85183   1.785   4.856   1.269  0.1148 -0.7172 -0.4217
26364SOL    HW185184   1.704   4.836   1.224 -1.0541 -0.4920  1.4510
26364SOL    HW285185   1.800   4.781   1.327 -1.0973  0.9577  2.2958
26365SOL     OW85186   0.365   9.319   6.731 -0.0957  0.4017 -0.3614
26365SOL    HW185187   0.447   9.359   6.761 -0.0261  0.8399 -1.1287
26365SOL    HW285188   0.323   9.387   6.679 -1.2896  0.4306  0.5995
26366SOL     OW85189  10.863   2.307   7.080  0.0263 -0.2113  0.6652
26366SOL    HW185190  10.882   2.374   7.015 -0.2113  0.6592  1.4745
26366SOL    HW285191  10.880   2.349   7.164  0.9285 -1.5082  1.1585
26367SOL     OW85192   5.599   8.453   6.348  0.1539 -0.0537  0.0948
26367SOL    HW185193   5.645   8.502   6.280 -1.8575  1.4114 -0.3328
26367SOL    HW285194   5.666   8.432   6.413  1.2876  2.6238 -0.0968
26368SOL     OW85195   7.401   3.161   4.977  0.5534 -0.4793  0.4162
26368SOL    HW185196   7.414   3.220   5.051  1.0778 -1.2507  0.9543
26368SOL    HW285197   7.436   3.077   5.007  2.6783 -0.3308 -1.4022
26369SOL     OW85198   7.364   9.153   3.000 -0.1869  0.3047  0.2792
26369SOL    HW185199   7.292   9.187   2.945 -0.1423 -1.0501 -0.6575
26369SOL    HW285200   7.343   9.185   3.088 -1.9849 -0.1087  0.0512
26370SOL     OW85201   3.643  10.421   2.599 -0.8795  0.1091 -0.1202
26370SOL    HW185202   3.611  10.471   2.674  0.7788  1.8562 -0.4848
26370SOL    HW285203   3.630  10.479   2.524 -0.9387 -0.9231 -0.9296
26371SOL     OW85204   2.007   0.994   2.603  0.4219 -0.0155 -0.1078
26371SOL    HW185205   1.988   1.035   2.688  0.0969 -0.0526 -0.1629
26371SOL    HW285206   1.956   0.913   2.603 -1.2880  0.9962 -1.1930
26372SOL     OW85207   6.274   4.374   1.154  0.0408 -0.0912 -0.2884
26372SOL    HW185208   6.179   4.366   1.160  0.1042 -0.2305  0.8178
26372SOL    HW285209   6.298   4.432   1.227  0.7495  0.4745 -0.9408
26373SOL     OW85210   5.132   9.639   7.107  0.4424 -0.2373 -0.5470
26373SOL    HW185211   5.148   9.617   7.015 -0.6799 -0.5572 -0.6860
26373SOL    HW285212   5.210   9.608   7.153  0.7903 -0.5440 -1.3225
26374SOL     OW85213  10.661   0.504  10.366  0.7386 -0.4897 -0.1431
26374SOL    HW185214  10.687   0.535  10.279 -1.2303  0.1070 -0.5745
26374SOL    HW285215  10.627   0.416  10.350 -0.1881 -0.1485 -0.0991
26375SOL     OW85216  10.095   4.869   6.398 -0.0111 -0.0450  0.4738
26375SOL    HW185217  10.070   4.829   6.314 -0.2837  0.2776  0.4000
26375SOL    HW285218  10.174   4.822   6.424 -1.3602 -1.9373  1.3417
26376SOL     OW85219   2.409   8.476   0.170 -0.1343  0.1162 -0.0019
26376SOL    HW185220   2.419   8.571   0.165 -0.5949  0.1025 -1.7153
26376SOL    HW285221   2.401   8.448   0.079  0.8728 -1.6772  0.4258
26377SOL     OW85222  10.250   1.667   3.560 -0.0189  0.7688  0.3931
26377SOL    HW185223  10.303   1.645   3.637 -0.0044 -1.6616 -0.2522
26377SOL    HW285224  10.300   1.736   3.516  1.8979 -0.4266  0.5782
26378SOL     OW85225   9.005   7.449   4.146 -0.0725  0.0897 -0.2592
26378SOL    HW185226   9.035   7.539   4.130 -0.1921 -0.0459 -1.3064
26378SOL    HW285227   9.019   7.404   4.063 -0.7743 -0.6464  0.0075
26379SOL     OW85228   3.691   1.067   0.076  0.1305 -0.2564 -0.2954
26379SOL    HW185229   3.688   1.044  -0.017 -0.6145  0.1100 -0.3696
26379SOL    HW285230   3.626   1.010   0.117 -1.0113  0.9771 -0.3305
26380SOL     OW85231   9.087   8.202  10.165  0.0910  0.6509 -0.5406
26380SOL    HW185232   9.047   8.287  10.183 -0.4101  0.4026 -0.4797
26380SOL    HW285233   9.110   8.168  10.251 -1.2405 -0.0156 -0.4272
26381SOL     OW85234   1.679   2.673   2.846  0.1524 -0.2424  0.4649
26381SOL    HW185235   1.757   2.632   2.808 -0.5916 -0.4417 -0.8994
26381SOL    HW285236   1.701   2.684   2.939  1.3173 -1.4541  0.3676
26382SOL     OW85237   1.465   8.664   4.083  0.0714  0.0644 -0.1813
26382SOL    HW185238   1.392   8.664   4.020  0.7018 -1.1137 -0.9605
26382SOL    HW285239   1.538   8.703   4.035  0.2408  0.2719  0.2385
26383SOL     OW85240   1.011   5.989   6.141  0.2238 -0.0996 -0.3318
26383SOL    HW185241   1.072   6.015   6.210  0.1616 -1.3199  0.2120
26383SOL    HW285242   0.982   5.901   6.167 -2.6522  0.8534  0.0360
26384SOL     OW85243   8.767   9.745   8.011  0.0642  0.2306  0.6452
26384SOL    HW185244   8.714   9.802   8.067 -0.4927 -0.0054  0.3547
26384SOL    HW285245   8.846   9.729   8.063  0.5715  1.8665  0.4289
26385SOL     OW85246   6.925   5.592   8.381  0.7102  0.1786 -0.2950
26385SOL    HW185247   6.945   5.582   8.473 -1.7819  1.4617  0.4875
26385SOL    HW285248   6.877   5.675   8.376  2.0332  0.9080 -2.9816
26386SOL     OW85249   6.421   4.670   3.356 -0.6200  0.8213  0.0062
26386SOL    HW185250   6.386   4.580   3.356  0.4825  0.3631  1.5333
26386SOL    HW285251   6.424   4.694   3.448  1.5190  1.4489 -0.1915
26387SOL     OW85252   3.648   4.248   4.857  0.2685 -0.4634 -0.4401
26387SOL    HW185253   3.676   4.158   4.840 -0.3294 -1.3463  2.6678
26387SOL    HW285254   3.730   4.296   4.870  0.6260 -0.3041 -2.8509
26388SOL     OW85255   2.709  10.332   7.107  0.7974 -0.5189  0.4092
26388SOL    HW185256   2.630  10.370   7.068  0.2932 -0.4505  1.4643
26388SOL    HW285257   2.702  10.238   7.092  1.0987 -0.3981 -0.5223
26389SOL     OW85258   1.941   2.645   2.767 -0.4710 -0.4744  0.0149
26389SOL    HW185259   1.981   2.611   2.846 -0.0536 -0.1028 -0.0372
26389SOL    HW285260   2.003   2.624   2.697 -0.4775 -0.1254 -0.1004
26390SOL     OW85261   7.074   6.885   7.020 -0.1928  0.8572  0.0810
26390SOL    HW185262   7.063   6.796   7.052  2.2114 -0.1705 -1.6401
26390SOL    HW285263   6.994   6.903   6.971 -1.9857  0.8362  2.7640
26391SOL     OW85264  10.381   6.277  10.604 -0.4972 -0.5246 -0.2103
26391SOL    HW185265  10.354   6.359  10.643  0.3585 -0.0017 -0.6878
26391SOL    HW285266  10.405   6.221  10.678 -0.3325 -0.0800  0.0719
26392SOL     OW85267   9.380   4.073   9.397  0.1894 -0.3754 -0.8577
26392SOL    HW185268   9.450   4.106   9.452  0.0620  0.7875 -1.3609
26392SOL    HW285269   9.367   4.141   9.331 -2.6544  0.3382  0.2854
26393SOL     OW85270   4.614   2.077   5.901  0.1668  0.3570 -0.5555
26393SOL    HW185271   4.586   2.091   5.811  0.1709  0.1105 -0.5945
26393SOL    HW285272   4.571   2.147   5.950 -1.9895 -1.0488 -0.3234
26394SOL     OW85273   2.569   0.778   6.793  0.1685  0.2211 -0.5358
26394SOL    HW185274   2.518   0.833   6.853 -0.4809 -1.6809  0.7650
26394SOL    HW285275   2.504   0.734   6.739 -0.0388 -3.7094  2.3996
26395SOL     OW85276   1.479   1.741   4.486 -0.2243  0.3485 -0.4103
26395SOL    HW185277   1.433   1.778   4.561  0.9867  1.3767 -0.1339
26395SOL    HW285278   1.541   1.678   4.523 -0.1221  0.3269 -0.6119
26396SOL     OW85279   3.483   9.162   9.941 -0.7272  0.9119 -0.2079
26396SOL    HW185280   3.556   9.224   9.938  0.8628 -0.9251 -1.5086
26396SOL    HW285281   3.405   9.216   9.928  0.4098  2.8677  0.7107
26397SOL     OW85282   5.098   5.505   2.240  0.2587  0.3457 -0.6380
26397SOL    HW185283   5.118   5.467   2.155  0.5879  1.5687 -1.1264
26397SOL    HW285284   5.016   5.463   2.267  1.0412 -1.3238 -0.7382
26398SOL     OW85285   8.089  10.917   7.099  0.4402 -0.2132  0.2128
26398SOL    HW185286   8.124  10.893   7.013 -0.7227  0.9016 -0.5985
26398SOL    HW285287   8.099  10.837   7.152 -0.1947 -1.3954 -1.3876
26399SOL     OW85288   7.492   9.670   1.829 -0.6466 -0.3667  0.2777
26399SOL    HW185289   7.420   9.733   1.822 -0.9104 -0.7668 -0.8724
26399SOL    HW285290   7.505   9.639   1.739  1.1491 -0.1109  0.4199
26400SOL     OW85291   0.884   7.248   6.851  1.0028 -0.0538  0.1066
26400SOL    HW185292   0.905   7.274   6.762  0.3449 -0.4479 -0.1646
26400SOL    HW285293   0.792   7.222   6.849  0.8587  0.3445  0.9940
26401SOL     OW85294   0.840   1.936   1.679 -0.1804  0.0016  0.2153
26401SOL    HW185295   0.783   1.891   1.741  0.5237 -3.4972 -1.4150
26401SOL    HW285296   0.841   1.879   1.602  2.2194  2.0432 -1.4321
26402SOL     OW85297   3.819   1.688   8.651  0.0642  0.6442  0.3227
26402SOL    HW185298   3.861   1.745   8.587  0.4855 -0.8926 -0.8387
26402SOL    HW285299   3.788   1.613   8.599 -1.6779  0.4405  1.5699
26403SOL     OW85300   2.093   4.679   0.237 -0.4691 -0.1398  0.2956
26403SOL    HW185301   2.100   4.583   0.230  0.2305 -0.0851  0.0858
26403SOL    HW285302   2.109   4.698   0.329 -0.6347 -0.2261  0.3426
26404SOL     OW85303   6.373   1.854   7.680  0.0652  0.1127  0.5685
26404SOL    HW185304   6.371   1.921   7.748 -0.1896  2.2840 -1.4449
26404SOL    HW285305   6.466   1.845   7.658  0.2009 -0.9622  1.4911
26405SOL     OW85306  10.111   9.967   5.655 -0.2269  0.3131  0.5949
26405SOL    HW185307  10.119   9.872   5.669 -0.4856  0.3188  0.7837
26405SOL    HW285308  10.091   9.975   5.562  0.3750  0.2142  0.4501
26406SOL     OW85309   2.201   0.807   1.528 -0.0073 -0.4553 -0.1879
26406SOL    HW185310   2.280   0.758   1.551 -0.2705 -0.2561  1.2172
26406SOL    HW285311   2.130   0.743   1.539 -0.3132  0.0989  1.2999
26407SOL     OW85312   6.369  10.017   2.486 -0.0311  0.3345  0.3159
26407SOL    HW185313   6.320  10.073   2.546 -0.0500 -1.1536  1.7434
26407SOL    HW285314   6.360   9.929   2.522 -0.3782 -0.7075 -2.0989
26408SOL     OW85315   1.417   1.041   7.339 -0.1796 -0.0336 -0.0347
26408SOL    HW185316   1.452   1.122   7.375  0.0287 -1.1078  2.3790
26408SOL    HW285317   1.335   1.026   7.386 -0.5976 -0.8642 -0.9710
26409SOL     OW85318   0.197   2.780   9.658 -0.0870  0.7565 -0.4355
26409SOL    HW185319   0.186   2.825   9.574 -1.0855  2.8499  0.7617
26409SOL    HW285320   0.156   2.837   9.722  2.6537  0.3487  1.8545
26410SOL     OW85321   0.072  10.363   2.430 -0.2160  0.3384  0.4852
26410SOL    HW185322   0.097  10.345   2.339 -3.6994  0.1220 -0.5745
26410SOL    HW285323   0.109  10.289   2.480  2.2301  0.7537 -0.5669
26411SOL     OW85324   5.771   0.213   2.325 -0.8947  0.0596 -0.4244
26411SOL    HW185325   5.679   0.239   2.333 -1.3497 -0.1781 -3.5293
26411SOL    HW285326   5.793   0.231   2.233  1.7548 -1.2190 -0.1349
26412SOL     OW85327   1.463   0.360   6.127  0.3569  0.5515  0.3812
26412SOL    HW185328   1.412   0.399   6.056  1.3355  0.0571 -0.6224
26412SOL    HW285329   1.423   0.394   6.207 -0.4277  1.5536 -0.4143
26413SOL     OW85330   0.536   7.212   7.500 -0.5352 -0.5640  0.6232
26413SOL    HW185331   0.449   7.171   7.495 -1.5015  1.4864 -0.8539
26413SOL    HW285332   0.597   7.139   7.490 -2.1562 -1.6563 -2.5623
26414SOL     OW85333   8.083   0.257   5.931 -0.0663  0.0142  0.0969
26414SOL    HW185334   8.030   0.191   5.885 -1.7006  1.8865 -0.8600
26414SOL    HW285335   8.066   0.338   5.884  1.8767  1.1617  1.2424
26415SOL     OW85336   4.583   5.060   6.111 -0.7882  0.2077 -0.3887
26415SOL    HW185337   4.538   5.143   6.096 -1.7666 -0.3952 -0.8781
26415SOL    HW285338   4.548   5.001   6.044 -0.3870 -0.7034  0.1825
26416SOL     OW85339   3.796   1.851   2.802  0.0742 -0.0568  0.2240
26416SOL    HW185340   3.857   1.778   2.816  1.0648  0.7643  0.3866
26416SOL    HW285341   3.715   1.824   2.845  1.6153  0.5436  3.9472
26417SOL     OW85342   8.245   6.172   9.515 -0.2830  0.2281  0.1362
26417SOL    HW185343   8.223   6.241   9.578  1.0204  0.0374  0.8410
26417SOL    HW285344   8.334   6.192   9.487 -1.1047  0.7639 -2.3105
26418SOL     OW85345   8.468   4.195   6.343  0.1649 -0.0078  0.0316
26418SOL    HW185346   8.527   4.139   6.392  0.0733  1.6695  2.2332
26418SOL    HW285347   8.388   4.143   6.333  0.6934 -0.9134  0.4252
26419SOL     OW85348   5.025   6.136   4.647 -0.5383  0.2152 -0.2237
26419SOL    HW185349   5.011   6.051   4.688  0.6307 -0.0852 -0.4209
26419SOL    HW285350   5.022   6.199   4.719  0.3313 -0.1861  0.1723
26420SOL     OW85351  10.665   6.716   9.292 -0.1043 -0.1462  0.1851
26420SOL    HW185352  10.648   6.713   9.386  0.3469 -0.1228  0.2721
26420SOL    HW285353  10.646   6.807   9.268 -0.6129 -0.2531  0.1728
26421SOL     OW85354   1.345   9.215  10.625  0.2933  0.3543  0.1206
26421SOL    HW185355   1.261   9.230  10.669 -0.0324 -1.2301  0.1042
26421SOL    HW285356   1.410   9.249  10.687 -0.3025  0.6275  0.6116
26422SOL     OW85357   3.818   6.987   4.671  0.0193 -0.4207  0.2142
26422SOL    HW185358   3.872   6.913   4.697  1.5419 -0.0152 -1.6365
26422SOL    HW285359   3.807   6.978   4.577  0.3165  1.7094 -0.0909
26423SOL     OW85360   5.737   2.584  10.228 -0.2516 -0.1737 -0.1744
26423SOL    HW185361   5.791   2.538  10.164 -1.2086 -0.0481 -1.1088
26423SOL    HW285362   5.682   2.642  10.175  0.1099  1.1860  0.8934
26424SOL     OW85363   1.072   7.629   0.091 -0.7194  0.2910 -0.0531
26424SOL    HW185364   1.024   7.551   0.064 -1.3259  0.2926  0.9423
26424SOL    HW285365   1.003   7.692   0.116 -0.3268 -0.4474  3.5137
26425SOL     OW85366   5.966   9.537   3.444  0.0848 -0.1369 -0.9991
26425SOL    HW185367   5.919   9.558   3.363 -1.3080 -0.4658 -0.3059
26425SOL    HW285368   5.900   9.496   3.500  1.0390  0.0311  0.2910
26426SOL     OW85369   1.019   3.892   0.737 -0.2405  0.3907 -0.0861
26426SOL    HW185370   0.980   3.863   0.819  1.7881 -3.2676 -0.2141
26426SOL    HW285371   1.071   3.969   0.761 -0.9714  0.3692  1.6929
26427SOL     OW85372   0.131  10.271   3.539 -0.5454 -0.2081  0.0331
26427SOL    HW185373   0.161  10.294   3.451 -0.0761  0.2862  0.3159
26427SOL    HW285374   0.158  10.345   3.593  0.4799 -1.1569  0.8710
26428SOL     OW85375   7.568   9.979   9.709  0.3963  0.0917 -0.1645
26428SOL    HW185376   7.610  10.021   9.634 -0.4856  1.3249  0.0067
26428SOL    HW285377   7.599  10.030   9.785  1.0294 -0.9397  0.2853
26429SOL     OW85378   5.890   1.341   8.734  0.0222  0.1719  0.1043
26429SOL    HW185379   5.874   1.273   8.799 -2.3441 -0.4245 -1.0037
26429SOL    HW285380   5.803   1.368   8.705  0.9088 -0.3862 -3.6267
26430SOL     OW85381   1.633   3.323   3.512  0.2984  0.1292 -0.4794
26430SOL    HW185382   1.626   3.322   3.607 -1.7743  0.9632 -0.5643
26430SOL    HW285383   1.715   3.279   3.493  0.3009 -0.8928  1.6590
26431SOL     OW85384   9.130   5.126   0.448 -0.7512  0.3046  0.2222
26431SOL    HW185385   9.127   5.127   0.544 -1.4717 -3.8642  0.4468
26431SOL    HW285386   9.049   5.082   0.422  0.3046 -0.4106 -2.1348
26432SOL     OW85387   1.761   5.750   5.221 -0.5862  0.2311  0.1754
26432SOL    HW185388   1.731   5.685   5.284 -0.3571  0.0850  0.1358
26432SOL    HW285389   1.852   5.726   5.203 -0.7348  0.0924 -0.4302
26433SOL     OW85390   8.295   0.708   8.362  0.3479  0.2599 -0.4115
26433SOL    HW185391   8.377   0.662   8.343 -0.5134 -1.1966 -0.7540
26433SOL    HW285392   8.233   0.639   8.385 -0.9010  1.2913 -0.5392
26434SOL     OW85393   5.628  10.027   9.878  0.6108 -0.2898 -0.3179
26434SOL    HW185394   5.644   9.940   9.915  2.3108 -0.5583 -1.5668
26434SOL    HW285395   5.598  10.011   9.789 -0.6870  0.4021 -0.0305
26435SOL     OW85396   4.967   0.125   6.003  0.9946 -0.3145 -0.5948
26435SOL    HW185397   4.942   0.179   6.078 -0.2605 -0.1756 -1.0880
26435SOL    HW285398   4.951   0.035   6.032 -1.9980 -0.1849 -1.4753
26436SOL     OW85399   4.684   9.580   3.216 -0.3011  0.0757  0.2457
26436SOL    HW185400   4.693   9.666   3.259 -0.3820  0.0151  0.3835
26436SOL    HW285401   4.653   9.601   3.128 -0.5329  0.1743  0.3502
26437SOL     OW85402   6.955   4.505   8.634  0.4110 -0.4774 -0.1237
26437SOL    HW185403   6.902   4.431   8.663 -2.2928  0.8887 -1.2827
26437SOL    HW285404   7.013   4.468   8.567  0.6645 -1.9137  0.8341
26438SOL     OW85405   2.505   5.219   0.182 -0.5000 -0.2971 -0.8772
26438SOL    HW185406   2.448   5.217   0.258 -1.2964 -1.7880 -1.4787
26438SOL    HW285407   2.526   5.312   0.170  0.1227 -0.0725  1.4778
26439SOL     OW85408  10.383   5.946   7.553  0.2063  0.3262 -0.7755
26439SOL    HW185409  10.325   5.870   7.559  1.8229 -0.8523  0.9480
26439SOL    HW285410  10.332   6.010   7.503 -1.8212 -1.2985 -0.9597
26440SOL     OW85411  10.652   7.772  10.421 -0.0456 -0.4488 -0.5358
26440SOL    HW185412  10.572   7.825  10.430  0.8848  0.8963  0.2918
26440SOL    HW285413  10.636   7.696  10.476 -0.1262  0.6658  1.0755
26441SOL     OW85414   0.027   9.459   5.749  0.6069  0.0219  0.1749
26441SOL    HW185415   0.057   9.420   5.667  0.7029  1.2119 -0.3697
26441SOL    HW285416  -0.021   9.538   5.723  0.8295  0.5461  1.2684
26442SOL     OW85417   9.560   1.355   0.144  0.3557 -0.0361 -0.5796
26442SOL    HW185418   9.580   1.353   0.237 -0.3725  3.3796 -0.2192
26442SOL    HW285419   9.468   1.380   0.140  1.1062  3.0099 -2.0826
26443SOL     OW85420   0.052   9.027   4.399  0.3057 -0.5294 -0.3148
26443SOL    HW185421   0.078   9.069   4.317  1.2723 -2.8630 -1.3050
26443SOL    HW285422   0.128   9.040   4.457 -0.0989  0.5184  0.0082
26444SOL     OW85423   4.378   4.699   3.802 -0.9068 -0.4791  0.3082
26444SOL    HW185424   4.396   4.769   3.739  1.3359 -0.3838  0.9864
26444SOL    HW285425   4.431   4.625   3.772  0.2327 -0.4197  2.0423
26445SOL     OW85426   4.322   0.195   1.242 -0.0316  0.2238  0.4999
26445SOL    HW185427   4.341   0.122   1.302  0.4298  1.3940  1.8244
26445SOL    HW285428   4.320   0.272   1.298 -3.4639  0.9285 -0.3873
26446SOL     OW85429   1.832   5.462   0.914  0.1119  0.1518 -0.3965
26446SOL    HW185430   1.804   5.547   0.947 -1.8739 -0.0110 -1.5075
26446SOL    HW285431   1.884   5.425   0.985 -1.7376  0.9417  1.4982
26447SOL     OW85432   7.322   6.328   4.006 -0.3655 -0.3419  0.3215
26447SOL    HW185433   7.244   6.316   4.060 -1.1052 -0.1122 -0.6716
26447SOL    HW285434   7.355   6.240   3.991 -0.8879 -0.4997  0.0927
26448SOL     OW85435   4.838   3.231   8.980  0.5576  0.5323  0.1112
26448SOL    HW185436   4.752   3.189   8.986  0.7990 -0.1646 -1.0597
26448SOL    HW285437   4.823   3.311   8.931  0.3971  1.0029  0.8989
26449SOL     OW85438   7.660  10.911   9.951  0.6830 -0.0901  0.1894
26449SOL    HW185439   7.755  10.925   9.955  0.9121 -1.1369 -1.0708
26449SOL    HW285440   7.623  10.986   9.998  2.1679 -0.5691  2.2707
26450SOL     OW85441   1.678  10.524   3.291  0.3701  0.5948  0.2015
26450SOL    HW185442   1.750  10.468   3.319  0.2921  0.4433  0.1017
26450SOL    HW285443   1.615  10.521   3.363 -1.3520 -2.3932 -1.1995
26451SOL     OW85444   2.049   4.137   6.139 -0.0499  1.1527 -0.4693
26451SOL    HW185445   2.013   4.095   6.216  0.1789  1.1537 -0.3605
26451SOL    HW285446   2.025   4.079   6.066  0.6965  0.5724 -0.2603
26452SOL     OW85447   6.714   6.254  10.312 -0.1657 -0.5837 -0.3408
26452SOL    HW185448   6.717   6.281  10.220 -0.1613  0.9137  0.0635
26452SOL    HW285449   6.781   6.307  10.355 -0.2095 -1.2185  0.5417
26453SOL     OW85450   5.925   4.421   7.858 -0.9409 -0.4191 -0.7017
26453SOL    HW185451   5.927   4.517   7.857 -1.3221 -0.3784  0.7344
26453SOL    HW285452   5.888   4.397   7.773 -0.9641  0.7086 -1.0243
26454SOL     OW85453  10.443   2.611   7.239 -0.4840  0.1834 -0.0036
26454SOL    HW185454  10.508   2.542   7.231 -0.0158  0.5471  0.5829
26454SOL    HW285455  10.398   2.612   7.155  0.7878  0.4402 -0.7021
26455SOL     OW85456   0.036   5.026   7.382  0.4649 -0.6887 -0.1015
26455SOL    HW185457  -0.015   5.005   7.304 -0.3895  0.2624  0.1984
26455SOL    HW285458  -0.011   4.985   7.454  0.4679 -0.3399  0.1006
26456SOL     OW85459   6.204  10.528   0.197 -0.6774  0.4355 -0.4380
26456SOL    HW185460   6.158  10.523   0.114  2.2559 -0.1544 -2.1527
26456SOL    HW285461   6.269  10.458   0.193  1.5248  2.2589  1.0667
26457SOL     OW85462   8.185   7.280   0.291  0.0078 -0.3865  0.2079
26457SOL    HW185463   8.268   7.320   0.262  0.1372  0.4877  1.6999
26457SOL    HW285464   8.141   7.349   0.341 -1.6770 -0.8202 -0.6102
26458SOL     OW85465   9.969   8.803   3.699  0.2108 -0.0380 -0.1828
26458SOL    HW185466   9.903   8.734   3.712 -0.4777  0.6844  0.2730
26458SOL    HW285467  10.035   8.786   3.767 -0.5667  0.4433  0.7171
26459SOL     OW85468   5.678   0.415   8.482 -0.6437 -0.2959 -0.1681
26459SOL    HW185469   5.653   0.502   8.515 -1.3589 -0.5776  0.0567
26459SOL    HW285470   5.612   0.356   8.519 -0.2054 -0.9261 -0.3793
26460SOL     OW85471   3.388   4.888   6.657  0.8020 -0.1843 -0.2340
26460SOL    HW185472   3.433   4.962   6.699 -1.1580  1.5575 -1.0388
26460SOL    HW285473   3.338   4.847   6.727 -0.6769  1.3277 -0.3354
26461SOL     OW85474  10.185   3.866   0.369  0.0738  0.0980 -0.1149
26461SOL    HW185475  10.103   3.888   0.325  0.5711  0.9437 -0.6395
26461SOL    HW285476  10.177   3.908   0.455  0.6739  1.7241 -0.8133
26462SOL     OW85477   1.708   8.375   5.167  0.0060 -0.1257 -0.2721
26462SOL    HW185478   1.655   8.452   5.188 -1.4684 -0.9226 -0.9400
26462SOL    HW285479   1.684   8.311   5.233  1.5643  0.0861  0.5583
26463SOL     OW85480   6.255   2.347   6.514 -0.0187  0.1893  0.0449
26463SOL    HW185481   6.252   2.391   6.429  1.7755  1.6028  0.6356
26463SOL    HW285482   6.322   2.280   6.503  2.5060  2.3347  1.0632
26464SOL     OW85483   0.644   4.131   6.806 -0.4292  0.2659 -0.4662
26464SOL    HW185484   0.632   4.088   6.891  0.8619  0.4276 -0.1830
26464SOL    HW285485   0.577   4.092   6.750  0.6864 -2.1443 -0.2419
26465SOL     OW85486   0.826   3.282   2.343  0.5547 -0.6578  0.1434
26465SOL    HW185487   0.779   3.265   2.425  1.7209 -1.0080  0.7704
26465SOL    HW285488   0.793   3.217   2.282 -0.9386  0.1398  0.0674
26466SOL     OW85489   2.250   2.599   1.158 -0.2172 -0.2557 -0.3709
26466SOL    HW185490   2.183   2.623   1.222  0.3153 -2.2463  1.0149
26466SOL    HW285491   2.299   2.528   1.200  1.2257 -0.4927 -2.3320
26467SOL     OW85492   5.922   1.415   6.832  0.3827  0.1133 -0.0947
26467SOL    HW185493   5.944   1.436   6.741 -0.3742  0.8755 -0.1182
26467SOL    HW285494   5.832   1.381   6.828  0.7260 -0.8978  0.2493
26468SOL     OW85495   1.428   8.478   9.753  0.2852  0.4480 -0.4712
26468SOL    HW185496   1.388   8.543   9.696 -0.3549 -0.3305 -0.9318
26468SOL    HW285497   1.421   8.396   9.704  1.3176  0.0777 -0.0145
26469SOL     OW85498   5.981   9.734  10.763  0.0920  0.2315 -0.1342
26469SOL    HW185499   5.976   9.640  10.781  1.0214  0.3785  1.0236
26469SOL    HW285500   6.036   9.741  10.685 -0.6300 -0.2133 -0.6970
26470SOL     OW85501  10.080   4.454   6.427  0.3597  0.2560  0.8113
26470SOL    HW185502  10.052   4.381   6.483 -0.0295  0.1108  0.4351
26470SOL    HW285503  10.122   4.411   6.352  3.6522  0.4747  2.3506
26471SOL     OW85504   0.728   0.357   9.719  0.1067  0.3196  0.1156
26471SOL    HW185505   0.787   0.363   9.795  0.3880 -1.5555  0.0982
26471SOL    HW285506   0.662   0.293   9.746 -0.6246  0.7203 -0.7048
26472SOL     OW85507   4.136   0.450   2.696 -0.1620 -0.3928 -0.1642
26472SOL    HW185508   4.138   0.426   2.604 -1.7466  0.9047 -0.5807
26472SOL    HW285509   4.120   0.545   2.696  2.2061  0.1140  1.4297
26473SOL     OW85510   9.015   3.911   1.581 -0.8221  0.0109  0.4329
26473SOL    HW185511   8.941   3.964   1.611 -0.4553  0.1339  1.1338
26473SOL    HW285512   9.039   3.857   1.656  0.7422  1.0310  0.7171
26474SOL     OW85513   0.607   2.413   0.100 -0.4419  0.0980 -0.1720
26474SOL    HW185514   0.561   2.341   0.059 -0.8760 -0.2284  0.8567
26474SOL    HW285515   0.623   2.475   0.029 -0.4668 -0.7950 -0.9733
26475SOL     OW85516   7.502   2.331   8.062 -0.3418 -0.2328  0.0256
26475SOL    HW185517   7.564   2.264   8.034 -1.1077 -1.1949  0.5783
26475SOL    HW285518   7.496   2.391   7.988 -1.3210 -1.9880 -1.3924
26476SOL     OW85519   5.546  10.910   3.454  0.1669 -0.1888 -0.1236
26476SOL    HW185520   5.530  10.937   3.544 -2.0100  0.9651 -0.7893
26476SOL    HW285521   5.495  10.830   3.443  1.3238 -0.9637 -0.0534
26477SOL     OW85522  10.440   7.040  10.571 -0.1123  0.2842  0.3606
26477SOL    HW185523  10.508   7.007  10.512  1.4632 -0.7841  2.6440
26477SOL    HW285524  10.387   6.963  10.591 -1.4275  0.8981 -0.5588
26478SOL     OW85525   9.693  10.728   5.383  0.1368 -0.6046 -0.5106
26478SOL    HW185526   9.608  10.683   5.388  0.6683 -1.6327 -0.4216
26478SOL    HW285527   9.744  10.676   5.321  0.5653  0.2587 -0.9081
26479SOL     OW85528   0.243   9.412  10.551  0.2727 -0.3543 -0.0974
26479SOL    HW185529   0.217   9.504  10.556  1.0536 -0.1406  0.1853
26479SOL    HW285530   0.160   9.364  10.544 -0.1170  0.3905 -0.6685
26480SOL     OW85531   8.037   7.011   5.848  0.0544 -0.0338  0.2136
26480SOL    HW185532   7.987   6.982   5.771 -0.7715  1.1483  0.2907
26480SOL    HW285533   7.971   7.030   5.914  0.7291 -0.4581  1.0294
26481SOL     OW85534   2.383   3.918   9.211 -0.6007 -0.6189  0.0154
26481SOL    HW185535   2.365   3.993   9.154 -0.1211 -1.3508 -1.1349
26481SOL    HW285536   2.364   3.950   9.299  0.5030  1.1437 -0.3453
26482SOL     OW85537   7.451   8.061   4.655  0.3341 -0.5827  0.3366
26482SOL    HW185538   7.469   8.076   4.562 -0.3767 -2.2591 -0.1074
26482SOL    HW285539   7.395   8.135   4.680 -1.7688 -1.4829 -1.3400
26483SOL     OW85540  10.068   8.619   1.844 -0.4009 -0.0469  0.2623
26483SOL    HW185541  10.136   8.675   1.806  0.5172 -0.3880  1.3321
26483SOL    HW285542  10.004   8.608   1.774  0.8594 -0.0546 -0.9493
26484SOL     OW85543   8.561  10.487   1.656 -0.5480  0.4532 -0.6805
26484SOL    HW185544   8.538  10.550   1.587  1.4996  0.8939 -1.0384
26484SOL    HW285545   8.519  10.522   1.734 -1.0267  1.2148 -1.2542
26485SOL     OW85546   8.432   5.580   0.530  0.1561 -0.3454 -0.0105
26485SOL    HW185547   8.381   5.511   0.574  0.6349 -1.4031 -1.0544
26485SOL    HW285548   8.366   5.633   0.486 -0.0746 -2.5497 -2.5617
26486SOL     OW85549   0.742   4.096   0.364  0.3547  0.0978  0.0625
26486SOL    HW185550   0.819   4.139   0.400  0.6829 -0.7574  0.4178
26486SOL    HW285551   0.769   4.005   0.350 -1.1865 -0.7844  2.2197
26487SOL     OW85552   1.501   2.546  10.823 -0.6977 -0.2371 -0.4634
26487SOL    HW185553   1.524   2.481  10.757  1.4215 -0.8028  0.7352
26487SOL    HW285554   1.481   2.495  10.901 -0.5412  0.5005  0.0666
26488SOL     OW85555   3.884   4.130   3.409  0.3491 -0.0824 -0.2553
26488SOL    HW185556   3.824   4.140   3.483 -0.8778  0.8499 -1.3185
26488SOL    HW285557   3.957   4.080   3.444 -1.6648 -2.5472  0.7911
26489SOL     OW85558   1.594   8.307   8.294  0.0951 -0.6969 -0.4010
26489SOL    HW185559   1.611   8.400   8.275  2.8086 -1.1714 -0.6243
26489SOL    HW285560   1.577   8.305   8.388 -2.0748  0.2257 -0.7039
26490SOL     OW85561   5.653   5.087   1.842  0.0401  0.0133  0.0181
26490SOL    HW185562   5.633   4.998   1.872 -0.1385 -0.2608 -0.8681
26490SOL    HW285563   5.567   5.125   1.822  0.1767 -0.0151 -0.6641
26491SOL     OW85564   1.969   8.986   6.498 -0.3185  0.4328  0.1713
26491SOL    HW185565   1.915   8.908   6.494 -1.9581  1.5676 -1.1730
26491SOL    HW285566   2.031   8.976   6.426 -0.3396  0.2452  0.1787
26492SOL     OW85567   2.895  10.478   8.537 -0.3649  0.0756  0.2093
26492SOL    HW185568   2.936  10.533   8.604  1.3191  1.2200 -1.6496
26492SOL    HW285569   2.862  10.540   8.472 -0.1707 -1.0203 -0.9884
26493SOL     OW85570   7.451   7.615   9.055 -0.0040 -0.0828  0.8297
26493SOL    HW185571   7.451   7.535   9.002  0.4989  1.3088 -1.4031
26493SOL    HW285572   7.541   7.622   9.088 -0.3028 -0.9239  1.8787
26494SOL     OW85573   3.273   7.775   9.307  0.5696  0.2418  0.2354
26494SOL    HW185574   3.194   7.724   9.290  0.4141 -0.0633  1.6779
26494SOL    HW285575   3.248   7.865   9.287  0.3207 -0.0333 -0.7288
26495SOL     OW85576   8.100   1.564   4.698 -0.2216 -0.4486 -0.3279
26495SOL    HW185577   8.072   1.646   4.740 -1.1941 -1.2519  0.6495
26495SOL    HW285578   8.136   1.592   4.614 -1.7153  0.8946 -0.5826
26496SOL     OW85579   6.115   0.649   9.784  0.1760  0.1915  0.1161
26496SOL    HW185580   6.056   0.725   9.792  0.9893  0.7754  0.8271
26496SOL    HW285581   6.144   0.651   9.693 -2.7738 -1.5756 -0.9879
26497SOL     OW85582   2.150   1.528   7.528 -0.2616  0.1971 -0.1502
26497SOL    HW185583   2.086   1.492   7.590 -0.1941  0.3395  0.0045
26497SOL    HW285584   2.224   1.553   7.583  1.4164 -3.1294 -0.6798
26498SOL     OW85585   0.432   8.058   7.075 -0.1522  0.3091  0.1505
26498SOL    HW185586   0.501   7.997   7.101 -0.5905  0.1910  1.0719
26498SOL    HW285587   0.475   8.143   7.074 -0.3713  0.5330  2.5914
26499SOL     OW85588   8.427   1.903   8.969 -0.1538  0.1939  0.0552
26499SOL    HW185589   8.489   1.830   8.965 -0.4378 -0.0150 -1.1740
26499SOL    HW285590   8.386   1.903   8.882 -0.2865  1.7102  0.1030
26500SOL     OW85591   1.235   4.789   9.838  0.3711 -0.9794  0.0728
26500SOL    HW185592   1.225   4.809   9.931 -0.3298  0.6034 -0.3165
26500SOL    HW285593   1.330   4.784   9.825  0.4729 -2.5363  1.0978
26501SOL     OW85594   6.960   2.854   9.670  0.2052 -1.1273  0.0407
26501SOL    HW185595   6.865   2.856   9.659  0.2782 -1.0425 -0.6021
26501SOL    HW285596   6.979   2.764   9.694 -0.0652 -1.0765  0.4645
26502SOL     OW85597   3.465   7.694   9.527  0.1366  0.2767 -0.0383
26502SOL    HW185598   3.411   7.710   9.449  0.3499  1.6390  0.0795
26502SOL    HW285599   3.407   7.710   9.601 -0.1810 -1.4091  0.1239
26503SOL     OW85600   5.772   8.472   8.582 -0.3952  0.0026  0.2761
26503SOL    HW185601   5.827   8.473   8.503 -1.4227  1.2722 -0.4543
26503SOL    HW285602   5.835   8.469   8.655  0.5651 -1.4007 -0.5620
26504SOL     OW85603   4.157   4.832   4.757  0.0957  0.5145 -0.4778
26504SOL    HW185604   4.250   4.809   4.756  0.4782  1.8684 -2.1909
26504SOL    HW285605   4.117   4.771   4.695 -0.8275 -2.0993  2.4198
26505SOL     OW85606   1.150   0.340   3.375  0.0161 -0.6260  0.5581
26505SOL    HW185607   1.145   0.343   3.470 -0.9482 -0.4892  0.5128
26505SOL    HW285608   1.147   0.431   3.347  0.3205 -0.6636  0.3992
26506SOL     OW85609   4.318   1.104  10.033 -0.2802 -0.1154 -0.0198
26506SOL    HW185610   4.323   1.008  10.030 -0.6801 -0.1204 -0.6266
26506SOL    HW285611   4.385   1.133   9.971 -1.8108 -0.0539 -1.7249
26507SOL     OW85612   0.175   2.260   3.907  0.1056  0.1065  0.0835
26507SOL    HW185613   0.163   2.226   3.818  0.0827  2.5528 -0.9397
26507SOL    HW285614   0.253   2.216   3.939  1.2913  0.5794 -1.9545
26508SOL     OW85615   1.367   7.136   2.379  0.7126  0.2615  0.1366
26508SOL    HW185616   1.278   7.105   2.368  1.6006 -2.7895  0.8039
26508SOL    HW285617   1.399   7.149   2.290 -0.2916  1.2649 -0.1101
26509SOL     OW85618   7.218   3.357   7.984 -0.3755 -0.5490  0.5726
26509SOL    HW185619   7.250   3.329   7.899 -0.2293 -2.2007  1.1302
26509SOL    HW285620   7.138   3.407   7.965 -1.0661 -1.9792 -0.4816
26510SOL     OW85621   0.261   7.800   6.453  0.1141 -0.0900 -0.1124
26510SOL    HW185622   0.257   7.730   6.387 -0.0720 -0.1722 -0.0138
26510SOL    HW285623   0.352   7.797   6.485 -0.4521 -1.7944  1.5088
26511SOL     OW85624   3.711   7.260   7.502 -0.3919 -0.1542 -0.7884
26511SOL    HW185625   3.761   7.340   7.490  1.9789 -1.5534 -0.9636
26511SOL    HW285626   3.641   7.265   7.437 -0.5204  1.8748 -0.5659
26512SOL     OW85627   1.015   2.782   1.699  0.0072  0.4791 -0.3967
26512SOL    HW185628   0.986   2.858   1.750  0.7606  0.6879 -0.2648
26512SOL    HW285629   0.999   2.707   1.756  1.1063  0.7374  0.2885
26513SOL     OW85630   3.103   9.545   5.203  0.4165  0.3555 -0.2606
26513SOL    HW185631   3.059   9.623   5.170 -2.4565 -1.4355 -1.0003
26513SOL    HW285632   3.136   9.501   5.124  0.5519  0.0064 -0.0113
26514SOL     OW85633   4.551   8.730   5.716 -0.1811 -0.0955 -0.3125
26514SOL    HW185634   4.560   8.688   5.631  0.2737 -1.5608  0.4283
26514SOL    HW285635   4.457   8.730   5.733 -0.5778  2.6686 -1.9577
26515SOL     OW85636   8.299   3.865   8.298  0.3620  0.2029 -0.2611
26515SOL    HW185637   8.250   3.947   8.305 -0.3850 -0.0954 -1.6306
26515SOL    HW285638   8.363   3.881   8.228  0.6592 -0.1671 -0.0785
26516SOL     OW85639   2.504   1.807   8.144  0.6784  0.1046 -0.3429
26516SOL    HW185640   2.470   1.775   8.060  0.5977  0.3843 -0.4208
26516SOL    HW285641   2.498   1.903   8.136  1.1701  0.1471 -0.2261
26517SOL     OW85642   7.601  10.913   8.352  0.0593 -0.3630  0.6135
26517SOL    HW185643   7.616  11.008   8.350  1.0276 -0.5089  0.5433
26517SOL    HW285644   7.578  10.891   8.262  0.4170 -0.2759  0.4978
26518SOL     OW85645   5.683   1.230   5.632 -0.0425 -0.3858 -0.2391
26518SOL    HW185646   5.737   1.305   5.609 -0.0648 -0.1376  0.4931
26518SOL    HW285647   5.703   1.213   5.724 -0.0946 -1.2284 -0.3707
26519SOL     OW85648   0.037   3.111   7.952 -0.2168 -0.0107  0.0731
26519SOL    HW185649  -0.045   3.091   7.906 -0.3274  3.1423 -1.3871
26519SOL    HW285650   0.094   3.147   7.884  1.2313  0.8023  1.6423
26520SOL     OW85651   7.026   0.499  10.719  0.4069 -0.2729 -0.9313
26520SOL    HW185652   7.055   0.551  10.794  0.4556  0.6572 -1.5761
26520SOL    HW285653   6.940   0.466  10.745 -0.1827  1.1418 -0.9512
26521SOL     OW85654   0.193   9.468   2.380  0.0655  0.1367  0.1626
26521SOL    HW185655   0.250   9.519   2.437  0.5302  1.8618 -1.7157
26521SOL    HW285656   0.152   9.533   2.323 -0.9981 -1.4169 -0.9239
26522SOL     OW85657  10.504   3.227   7.494 -0.4130  0.3827  0.1662
26522SOL    HW185658  10.579   3.274   7.532 -0.1639 -2.0542  3.1367
26522SOL    HW285659  10.540   3.142   7.469 -1.7721 -0.0631 -0.3437
26523SOL     OW85660   0.724   4.426   4.220 -0.1110  0.6471  0.0616
26523SOL    HW185661   0.810   4.389   4.203 -0.1407  0.8184 -0.4962
26523SOL    HW285662   0.667   4.384   4.155 -0.3443  0.9067  0.0941
26524SOL     OW85663   6.090   0.776   7.165 -0.1049  0.1468  0.2747
26524SOL    HW185664   6.072   0.730   7.083 -0.9373  1.2164 -0.1562
26524SOL    HW285665   6.045   0.724   7.232  0.3378 -0.5693  0.0301
26525SOL     OW85666   5.080   4.257   2.282 -0.4814  0.7007 -0.3140
26525SOL    HW185667   5.053   4.177   2.236 -2.5728  0.5862  0.9718
26525SOL    HW285668   5.003   4.282   2.332  1.5682  0.8564  3.0579
26526SOL     OW85669   3.105   8.933   4.710 -0.5414  0.3063 -0.4856
26526SOL    HW185670   3.029   8.884   4.743  0.1749  0.5229  1.6766
26526SOL    HW285671   3.172   8.866   4.694 -1.2353  0.0749 -2.7484
26527SOL     OW85672  10.025   7.254   9.129  0.3838 -0.0844  0.5576
26527SOL    HW185673   9.966   7.322   9.097  2.1875  1.6283  0.6615
26527SOL    HW285674  10.054   7.209   9.050 -1.2412 -1.1591  0.5302
26528SOL     OW85675   5.778   0.948  10.731 -0.3296  0.7781  0.0236
26528SOL    HW185676   5.846   0.892  10.694  1.1609  2.1140  0.6109
26528SOL    HW285677   5.742   0.993  10.654 -0.3321  0.2992 -0.2628
26529SOL     OW85678   1.622   6.429   9.132  0.2424 -0.1194  0.2993
26529SOL    HW185679   1.683   6.465   9.068 -0.5383 -0.2896 -0.5605
26529SOL    HW285680   1.675   6.414   9.210  0.7499  2.3111  0.5094
26530SOL     OW85681   1.503   3.717   0.109  0.2761  0.0426  0.6643
26530SOL    HW185682   1.534   3.708   0.018  0.5802  0.9047  0.6710
26530SOL    HW285683   1.456   3.800   0.110  0.5238  0.1834  1.3614
26531SOL     OW85684   8.741   6.884   3.291  0.0710  0.5352  0.3404
26531SOL    HW185685   8.748   6.792   3.269 -0.3882  0.1343  1.7729
26531SOL    HW285686   8.818   6.925   3.249 -0.1747 -0.3188 -1.0071
26532SOL     OW85687   3.941   4.660   5.602 -0.3317 -0.2081 -0.1010
26532SOL    HW185688   3.852   4.694   5.612 -0.0729  1.3330 -2.3501
26532SOL    HW285689   3.994   4.738   5.584  1.2831 -1.2354  0.0248
26533SOL     OW85690   7.775  10.110   2.066  0.4171 -0.2828  0.2125
26533SOL    HW185691   7.840  10.087   2.131  1.3785  1.4626 -0.0874
26533SOL    HW285692   7.815  10.086   1.982  1.0796  1.5463 -0.0382
26534SOL     OW85693   8.608   8.692   6.550 -0.1389 -0.1142  0.1392
26534SOL    HW185694   8.590   8.607   6.510 -2.9825  0.6560 -0.4208
26534SOL    HW285695   8.685   8.725   6.503 -1.6312 -0.5015 -2.7942
26535SOL     OW85696   4.449   9.656   7.650  0.2979  0.5023  0.8224
26535SOL    HW185697   4.525   9.622   7.697  1.2986 -0.3667 -1.3241
26535SOL    HW285698   4.479   9.736   7.608 -0.8841  1.8493  2.3686
26536SOL     OW85699   2.203   9.957   3.192 -0.6142  0.9850 -0.0163
26536SOL    HW185700   2.187   9.955   3.098  2.0000  1.1891 -0.5403
26536SOL    HW285701   2.182   9.868   3.222  2.2430 -0.3477 -1.5673
26537SOL     OW85702   0.513   1.709   8.007 -0.4798  0.4732 -0.1099
26537SOL    HW185703   0.595   1.742   7.972 -0.3676  0.8484  0.4967
26537SOL    HW285704   0.467   1.674   7.931 -0.4720  1.7373 -0.7073
26538SOL     OW85705   8.506  10.480   4.464 -0.0140  0.2776  0.1443
26538SOL    HW185706   8.530  10.390   4.488 -0.6686  0.6223  2.3167
26538SOL    HW285707   8.515  10.482   4.369  1.3130 -1.6948  0.1517
26539SOL     OW85708   7.584   7.967   8.405 -0.3251  0.2597  0.7263
26539SOL    HW185709   7.496   8.002   8.413  0.0404  1.0665  1.3595
26539SOL    HW285710   7.572   7.872   8.408 -1.3378  0.2765 -1.1605
26540SOL     OW85711   4.561   4.092   2.202 -0.1142  0.7878  0.5929
26540SOL    HW185712   4.602   4.031   2.263  0.5543  1.7028  1.1020
26540SOL    HW285713   4.490   4.043   2.162  1.3452 -0.7960 -0.1618
26541SOL     OW85714   3.133   5.853   7.046 -0.4235  0.1180 -0.3044
26541SOL    HW185715   3.156   5.772   7.090  1.5968  0.8398  0.0897
26541SOL    HW285716   3.170   5.922   7.102  0.7374  1.1407 -2.2314
26542SOL     OW85717   9.596   8.555   1.300  0.6023 -0.2917  0.4877
26542SOL    HW185718   9.617   8.512   1.217 -0.6335 -0.3844  0.2122
26542SOL    HW285719   9.558   8.639   1.275  2.8210  0.9417  1.0210
26543SOL     OW85720   4.105   9.797   9.145 -0.3671  0.8005  0.2305
26543SOL    HW185721   4.067   9.799   9.058  0.6727  0.7053 -0.2355
26543SOL    HW285722   4.186   9.748   9.135 -0.0777  1.0569  1.1896
26544SOL     OW85723   3.509   7.366   6.882  1.0042 -0.3686  0.0793
26544SOL    HW185724   3.549   7.451   6.899 -1.2029  0.6830  0.3579
26544SOL    HW285725   3.522   7.352   6.788  0.0985  1.0377 -0.2880
26545SOL     OW85726   2.250   8.167   9.959 -0.0497  0.0273 -0.2393
26545SOL    HW185727   2.210   8.095   9.911 -2.0834  0.1831  1.0846
26545SOL    HW285728   2.227   8.246   9.910 -1.3678  0.1078  0.4731
26546SOL     OW85729   3.035   1.097   6.457  0.4375  0.0013  0.7124
26546SOL    HW185730   3.119   1.143   6.457  0.6557 -0.3904  1.4316
26546SOL    HW285731   2.988   1.134   6.382  0.6689  1.2685  1.1680
26547SOL     OW85732   0.312   6.886   6.497 -0.1364 -0.6291 -0.5720
26547SOL    HW185733   0.335   6.793   6.493  1.9930 -0.2519  1.0451
26547SOL    HW285734   0.384   6.930   6.453 -0.6187  0.3344 -0.4227
26548SOL     OW85735   3.562  10.082   8.462 -0.0294  0.1446 -0.3947
26548SOL    HW185736   3.486  10.119   8.507 -1.3113 -1.5179 -1.1052
26548SOL    HW285737   3.566  10.130   8.379 -0.7028 -0.1739 -0.6225
26549SOL     OW85738   4.783   3.914   2.988 -0.1881 -0.0757 -0.0062
26549SOL    HW185739   4.835   3.836   3.008 -0.6940 -0.1485  1.0700
26549SOL    HW285740   4.824   3.951   2.910  1.9176  0.2750  1.2082
26550SOL     OW85741  10.670   6.933   3.828  0.0427 -0.2133 -0.0700
26550SOL    HW185742  10.618   6.884   3.892  0.5150  2.4409  2.5629
26550SOL    HW285743  10.757   6.894   3.832  0.6420  1.1445  2.6260
26551SOL     OW85744   3.510  10.296   1.572 -0.2547 -0.3604 -0.5313
26551SOL    HW185745   3.570  10.225   1.593 -1.3500 -1.2069 -0.1543
26551SOL    HW285746   3.488  10.335   1.657  0.6951  0.7481 -0.7737
26552SOL     OW85747   6.279   2.841   6.125  0.3742  0.0475 -0.3465
26552SOL    HW185748   6.319   2.755   6.116  1.9152  0.9056 -2.7862
26552SOL    HW285749   6.187   2.828   6.101  1.3339 -0.4347 -4.4623
26553SOL     OW85750   8.942   9.777   7.017 -0.0434 -0.3501 -0.2759
26553SOL    HW185751   9.003   9.773   7.090 -0.5524  2.9966  0.4784
26553SOL    HW285752   8.998   9.779   6.939  0.8039  1.2295  0.3274
26554SOL     OW85753   7.536   7.367   6.615  0.1922 -0.2387  0.1288
26554SOL    HW185754   7.444   7.339   6.615  0.1054 -0.0362  1.8164
26554SOL    HW285755   7.576   7.316   6.544 -1.5252  0.8252 -1.7109
26555SOL     OW85756   7.181   8.863  10.731  0.0325 -0.2340 -0.5238
26555SOL    HW185757   7.228   8.916  10.666 -0.6305 -0.0063 -0.8265
26555SOL    HW285758   7.250   8.819  10.780  0.5700  0.3081 -0.7798
26556SOL     OW85759   9.811   6.614   9.640 -0.0829 -0.3355  0.1746
26556SOL    HW185760   9.871   6.590   9.711 -2.0435  0.0886  2.0976
26556SOL    HW285761   9.830   6.707   9.623  0.3348 -0.4130  0.2142
26557SOL     OW85762   1.491   8.899   0.991  0.0774  0.5167  0.2660
26557SOL    HW185763   1.531   8.893   0.904 -2.0819  1.3514 -0.8555
26557SOL    HW285764   1.502   8.991   1.016 -3.1302  1.4097 -1.1721
26558SOL     OW85765   3.621   7.412   3.809 -0.2788 -0.2065 -0.1746
26558SOL    HW185766   3.602   7.326   3.770 -0.8171  0.3838 -1.2618
26558SOL    HW285767   3.685   7.452   3.750 -0.5762  0.4272 -0.0733
26559SOL     OW85768   0.633   8.804   9.631  0.1699  0.1353 -0.2343
26559SOL    HW185769   0.584   8.842   9.558 -3.9158 -1.4707  1.3584
26559SOL    HW285770   0.629   8.872   9.700 -0.9941 -0.4359  0.2919
26560SOL     OW85771   6.331   0.988   3.384  0.1025 -0.3949 -0.1793
26560SOL    HW185772   6.360   0.907   3.343  0.6626 -0.9200  1.1856
26560SOL    HW285773   6.406   1.016   3.437 -0.4861  0.3958  0.2509
26561SOL     OW85774   2.544   3.617   1.103 -0.0685 -0.3926 -0.1995
26561SOL    HW185775   2.455   3.616   1.069 -0.4349 -2.0000  0.6829
26561SOL    HW285776   2.599   3.600   1.028 -0.2638  2.6124 -1.1640
26562SOL     OW85777   8.167   5.414   9.338 -0.5722  0.5787  0.4040
26562SOL    HW185778   8.088   5.380   9.295 -0.2549  1.1646 -0.6710
26562SOL    HW285779   8.147   5.505   9.356 -0.2318  0.6626  0.3620
26563SOL     OW85780   4.806   2.537   4.624 -0.0826  0.2790 -0.1193
26563SOL    HW185781   4.723   2.505   4.659 -0.4479 -0.1986 -1.3464
26563SOL    HW285782   4.863   2.461   4.624 -0.3868  0.0157 -1.3729
26564SOL     OW85783   4.071   0.299   1.954  0.9909  0.0079  0.2420
26564SOL    HW185784   4.042   0.362   2.020  0.8032 -0.2954  0.4518
26564SOL    HW285785   3.997   0.238   1.944  0.7728  0.3987 -0.6888
26565SOL     OW85786   0.629   7.667   7.516 -0.0518 -0.2641 -0.1453
26565SOL    HW185787   0.539   7.683   7.490 -0.7443  1.3780  2.8301
26565SOL    HW285788   0.629   7.579   7.552 -0.5048 -0.2646 -0.1460
26566SOL     OW85789   7.009   6.986   2.379  0.3437  1.0036  0.0813
26566SOL    HW185790   6.967   6.902   2.398  0.7050  0.2028 -2.3702
26566SOL    HW285791   7.080   6.991   2.443  1.3541 -1.4035 -0.7020
26567SOL     OW85792   3.352   4.927   0.156  0.4947 -0.4012 -0.1613
26567SOL    HW185793   3.265   4.911   0.195  0.1151 -0.4843 -1.0245
26567SOL    HW285794   3.413   4.896   0.223 -0.1702 -2.3592 -0.3955
26568SOL     OW85795   8.210   8.067   8.117  0.7274  0.1814  0.6532
26568SOL    HW185796   8.249   8.126   8.181  2.0089  1.4022 -1.1419
26568SOL    HW285797   8.144   8.120   8.072 -0.3496 -0.7369  1.1171
26569SOL     OW85798   6.991   0.671   1.820 -0.3035 -0.2244  0.8055
26569SOL    HW185799   7.086   0.678   1.815 -0.3724 -0.2625 -1.6691
26569SOL    HW285800   6.974   0.583   1.853  0.5773 -1.2602 -1.3297
26570SOL     OW85801   0.492   3.511   7.788  0.3211 -0.0510  0.4281
26570SOL    HW185802   0.549   3.438   7.812 -0.3022 -0.5200  0.5406
26570SOL    HW285803   0.514   3.581   7.849  2.3784  0.6167 -0.9863
26571SOL     OW85804  10.562   8.513   8.321  0.2153  0.1620 -0.2799
26571SOL    HW185805  10.605   8.436   8.357 -0.0177 -0.1080 -0.5666
26571SOL    HW285806  10.624   8.548   8.257  0.8840  0.9881  0.7844
26572SOL     OW85807   2.484   1.070   0.671 -0.5515  0.1098  0.2057
26572SOL    HW185808   2.402   1.077   0.721 -1.4248 -2.3292 -0.7158
26572SOL    HW285809   2.550   1.046   0.736 -1.1280 -0.4289  0.6102
26573SOL     OW85810   2.678   6.607   1.065  0.1487  0.3871  0.3771
26573SOL    HW185811   2.632   6.691   1.066 -0.8242 -0.1241  0.2900
26573SOL    HW285812   2.747   6.618   1.000 -0.2994  0.9542 -0.0139
26574SOL     OW85813   5.480   7.162   6.745 -0.4905  0.0169  0.1941
26574SOL    HW185814   5.476   7.231   6.679  0.3282 -0.8815 -0.8405
26574SOL    HW285815   5.565   7.174   6.788 -1.1431  0.7730  1.2991
26575SOL     OW85816   5.348   2.065   8.573 -0.1623 -0.2248  0.0216
26575SOL    HW185817   5.423   2.008   8.556  0.8974  1.4042 -1.0311
26575SOL    HW285818   5.333   2.057   8.667  0.2292 -1.8685 -0.0182
26576SOL     OW85819   1.406   1.234   9.516  0.4297  0.6717  0.2256
26576SOL    HW185820   1.421   1.153   9.564  0.3615 -0.4755 -1.6360
26576SOL    HW285821   1.314   1.230   9.489  1.4528 -0.7465 -3.5318
26577SOL     OW85822   8.287   7.569   2.185 -0.0439 -0.5105 -0.1750
26577SOL    HW185823   8.202   7.547   2.223 -1.0462  0.6593 -1.6341
26577SOL    HW285824   8.319   7.487   2.149 -0.3680 -1.0346  0.6836
26578SOL     OW85825   2.934  10.542   9.261  0.3471 -0.6280  0.1132
26578SOL    HW185826   2.993  10.471   9.286 -0.4822 -0.5202  2.6054
26578SOL    HW285827   2.855  10.497   9.228 -0.0229 -0.8881  1.3114
26579SOL     OW85828   7.252   1.361   3.195 -0.1760  0.7440  0.3191
26579SOL    HW185829   7.167   1.394   3.165 -0.0051  1.1100  0.2409
26579SOL    HW285830   7.233   1.324   3.282 -0.9044 -1.3774 -0.6845
26580SOL     OW85831   5.364   9.953   1.261  0.2631  0.8303 -0.2706
26580SOL    HW185832   5.287   9.912   1.221  0.8169 -0.1072 -0.4087
26580SOL    HW285833   5.428   9.958   1.190  0.3115  1.6601 -0.1696
26581SOL     OW85834   7.311   5.419   5.147 -0.4123 -0.0955  0.0110
26581SOL    HW185835   7.264   5.476   5.209 -0.3892 -0.2468  0.1663
26581SOL    HW285836   7.400   5.454   5.146 -0.9206  1.3124 -1.6101
26582SOL     OW85837  10.262   9.717   1.228 -0.1631  0.1810  0.5681
26582SOL    HW185838  10.215   9.714   1.311 -0.4502 -0.2929  0.3915
26582SOL    HW285839  10.272   9.626   1.202 -0.2469  0.3305 -0.0125
26583SOL     OW85840   6.297   0.224   1.701 -0.1446 -0.2179 -0.5592
26583SOL    HW185841   6.218   0.276   1.715  1.0112  1.4529  0.1132
26583SOL    HW285842   6.335   0.260   1.620 -0.2064 -1.2311 -1.0637
26584SOL     OW85843   1.397   9.614   5.391  0.4046 -0.7344 -0.2594
26584SOL    HW185844   1.440   9.578   5.313  1.8658  1.3793 -0.5425
26584SOL    HW285845   1.435   9.564   5.464 -1.2822 -3.0137 -0.8453
26585SOL     OW85846   3.481   7.537   4.773 -0.0757  0.4548  0.1543
26585SOL    HW185847   3.569   7.546   4.810 -0.0936 -0.7681  0.5629
26585SOL    HW285848   3.474   7.608   4.709  0.3133  2.0278  1.7872
26586SOL     OW85849   2.279   8.522  10.047  0.2726  0.2431 -0.0105
26586SOL    HW185850   2.195   8.496  10.083 -0.3531  1.0585 -0.8439
26586SOL    HW285851   2.308   8.595  10.103  0.1120  0.3951 -0.1267
26587SOL     OW85852   3.488   9.938   9.170  0.4555 -0.1399 -0.2333
26587SOL    HW185853   3.561   9.899   9.219  0.4658  0.8647  0.5959
26587SOL    HW285854   3.487   9.891   9.087  3.2422  0.9968 -1.0492
26588SOL     OW85855   6.059   5.939   4.707  0.2127  0.1149 -0.3716
26588SOL    HW185856   6.119   6.006   4.738  1.2310  0.0578 -2.0896
26588SOL    HW285857   6.116   5.868   4.676 -0.7984 -0.7884 -0.2201
26589SOL     OW85858   5.408   5.411   5.365  0.1306  0.4749 -0.6420
26589SOL    HW185859   5.411   5.366   5.449 -0.5934 -0.3535 -1.0553
26589SOL    HW285860   5.362   5.493   5.383  1.4545  1.0754  0.1091
26590SOL     OW85861   9.154   5.061   0.734  0.1484  0.1835 -0.2073
26590SOL    HW185862   9.221   5.023   0.792 -0.4846  0.8915  1.0253
26590SOL    HW285863   9.080   5.002   0.741 -0.0438  0.4431 -0.0285
26591SOL     OW85864   4.876   1.613   0.179  0.3343 -0.5300 -0.1753
26591SOL    HW185865   4.905   1.562   0.254 -0.0651 -1.5741 -0.7103
26591SOL    HW285866   4.823   1.552   0.127 -0.6817  0.6050 -0.5225
26592SOL     OW85867   1.128   1.294   0.052 -0.1557  0.5092 -0.0972
26592SOL    HW185868   1.177   1.286  -0.030  0.5747  0.1666  0.3583
26592SOL    HW285869   1.042   1.328   0.025  0.3333  1.1554 -0.9090
26593SOL     OW85870   6.587   8.652   3.269  0.3321 -0.3002  0.8333
26593SOL    HW185871   6.569   8.732   3.319  2.0134 -0.2690  1.4336
26593SOL    HW285872   6.541   8.583   3.318 -0.7788  0.2127  0.5430
26594SOL     OW85873   2.773   6.950   5.562 -0.3894 -0.1639 -0.0841
26594SOL    HW185874   2.843   6.948   5.627 -1.9544  1.3145  1.7612
26594SOL    HW285875   2.756   7.043   5.548 -1.3510 -0.4863 -1.1962
26595SOL     OW85876   0.810   5.002  10.513  0.2812  0.5389 -0.8768
26595SOL    HW185877   0.784   5.035  10.598  1.7385 -0.7162  0.1250
26595SOL    HW285878   0.808   4.907  10.523  2.1340  0.3758 -1.6668
26596SOL     OW85879  10.866   0.743   3.315  0.0996  0.3846 -0.2902
26596SOL    HW185880  10.867   0.650   3.295  0.4503  0.5668 -1.1502
26596SOL    HW285881  10.837   0.748   3.406  0.8647 -0.6012  0.0127
26597SOL     OW85882   6.758   1.291  10.659 -0.2892 -0.3838 -0.4246
26597SOL    HW185883   6.850   1.273  10.677 -0.3865 -1.3029 -0.7863
26597SOL    HW285884   6.712   1.213  10.690 -1.1621  0.8063  1.4394
26598SOL     OW85885   9.771   3.293   3.120 -0.4318 -0.0360 -0.1833
26598SOL    HW185886   9.838   3.344   3.165  0.4897 -0.7014 -0.7581
26598SOL    HW285887   9.784   3.204   3.152 -0.9364 -0.2007 -0.4300
26599SOL     OW85888   5.649   4.917   3.076  0.3523  0.0990  0.2308
26599SOL    HW185889   5.601   4.996   3.051  1.4331  0.2807 -1.3967
26599SOL    HW285890   5.741   4.941   3.067  0.7033 -1.4908 -0.8639
26600SOL     OW85891   9.459   1.082   0.182 -0.1173 -0.0981 -0.0040
26600SOL    HW185892   9.442   1.085   0.088  0.8915  0.4509 -0.1893
26600SOL    HW285893   9.479   1.173   0.205  0.2205 -0.3225  0.6170
26601SOL     OW85894   7.691   8.026   5.908  0.5548  0.2701 -0.8283
26601SOL    HW185895   7.691   8.002   6.000  0.0038 -0.9154 -1.1283
26601SOL    HW285896   7.782   8.015   5.880  0.2738 -1.9031 -1.0457
26602SOL     OW85897   4.285   0.195  10.865  0.0460 -0.1968 -0.1580
26602SOL    HW185898   4.330   0.223  10.785 -1.5293  2.4480 -0.2406
26602SOL    HW285899   4.196   0.175  10.837  0.0275 -1.3047  0.6338
26603SOL     OW85900   2.257   2.194   0.487 -0.3937 -0.3416  0.1437
26603SOL    HW185901   2.208   2.112   0.478 -2.1235  0.6433  0.0323
26603SOL    HW285902   2.192   2.257   0.520  0.8490  1.0202  0.1138
26604SOL     OW85903   6.180   5.771   9.882  0.2390 -0.9175  0.1718
26604SOL    HW185904   6.205   5.817   9.803  0.8251 -1.8708 -0.2245
26604SOL    HW285905   6.109   5.713   9.855 -0.5165 -0.2484  0.6684
26605SOL     OW85906   6.215   9.015   6.316  0.2142 -0.0868 -0.3834
26605SOL    HW185907   6.250   9.076   6.252 -0.0804 -0.6999 -1.1511
26605SOL    HW285908   6.124   9.041   6.328  0.4221  0.3810  0.2307
26606SOL     OW85909   1.379   8.625   9.993  0.2096 -0.5906  0.5183
26606SOL    HW185910   1.351   8.555  10.052 -0.2448 -1.3986 -0.6050
26606SOL    HW285911   1.371   8.586   9.906  1.5332  0.3348 -0.0406
26607SOL     OW85912   4.472   8.608   1.107  0.1593  0.1671 -0.3402
26607SOL    HW185913   4.427   8.606   1.191  1.1138  0.8967  0.2151
26607SOL    HW285914   4.444   8.691   1.067 -1.1360 -0.6761 -1.2473
26608SOL     OW85915   3.445   4.541   0.092 -0.1115  0.6351  0.6220
26608SOL    HW185916   3.406   4.472   0.146 -0.4576 -0.7861 -1.3158
26608SOL    HW285917   3.382   4.553   0.021  0.3486  2.4072  0.4679
26609SOL     OW85918   0.599   3.806  10.235 -0.1919 -0.2117  0.5762
26609SOL    HW185919   0.610   3.815  10.140 -1.5968 -1.3658  0.2749
26609SOL    HW285920   0.576   3.894  10.265 -0.9629 -0.0963 -0.3413
26610SOL     OW85921   7.309   4.566   9.377  0.1853  0.0616  0.0720
26610SOL    HW185922   7.391   4.523   9.352 -0.3405 -1.1051  0.2610
26610SOL    HW285923   7.257   4.566   9.298  0.1151  0.2012  0.1181
26611SOL     OW85924  10.517   9.314  10.618 -0.2641  0.0127 -0.1420
26611SOL    HW185925  10.520   9.221  10.599  1.2973 -0.3025  1.4823
26611SOL    HW285926  10.423   9.333  10.627 -0.5560 -1.8035  1.2878
26612SOL     OW85927   1.103   2.673   7.147 -0.0384 -0.9846 -0.0664
26612SOL    HW185928   1.165   2.737   7.112 -2.2418  1.0466 -0.5153
26612SOL    HW285929   1.098   2.606   7.080  2.5804 -1.9331  0.5624
26613SOL     OW85930   4.113   2.218   5.174  0.2713 -0.1350 -0.5869
26613SOL    HW185931   4.146   2.211   5.084  0.3561 -0.0077 -0.5645
26613SOL    HW285932   4.029   2.172   5.171  0.5263 -0.6098 -0.6036
26614SOL     OW85933   9.209   8.553   0.026  0.0214  0.1419  0.0798
26614SOL    HW185934   9.194   8.484   0.091  0.0747  0.2619  0.2196
26614SOL    HW285935   9.207   8.507  -0.058  0.5605 -0.1127  0.2054
26615SOL     OW85936   9.116   2.187  10.585 -0.2061 -0.4570 -1.1017
26615SOL    HW185937   9.168   2.124  10.536  1.8467  0.0200  0.3438
26615SOL    HW285938   9.122   2.157  10.676  0.3960  1.5043 -0.4543
26616SOL     OW85939  10.731   7.811   2.317  0.3249  0.0713  0.0430
26616SOL    HW185940  10.758   7.764   2.238 -0.2915 -0.9931  0.4606
26616SOL    HW285941  10.667   7.875   2.285 -1.0883 -1.3767 -0.1465
26617SOL     OW85942   1.107   4.267   3.941  0.7581  0.0671  0.1203
26617SOL    HW185943   1.017   4.236   3.947  0.3708  1.1985  0.3959
26617SOL    HW285944   1.148   4.210   3.877 -0.6918  0.7345 -1.4844
26618SOL     OW85945   7.522   9.430   8.242 -0.1074  0.3398 -0.0623
26618SOL    HW185946   7.510   9.502   8.180  0.2373  0.7678  0.3591
26618SOL    HW285947   7.450   9.440   8.304 -0.2535  0.1181 -0.1959
26619SOL     OW85948   1.489   5.579   8.427 -0.4114  0.9365 -0.4063
26619SOL    HW185949   1.561   5.619   8.379  0.1615 -0.8434 -1.1210
26619SOL    HW285950   1.441   5.529   8.362 -1.2510  0.6747  0.3878
26620SOL     OW85951   4.016   6.174  10.310 -0.4609 -0.4158 -0.0483
26620SOL    HW185952   3.950   6.141  10.371 -0.4794 -0.9481 -0.3487
26620SOL    HW285953   3.981   6.258  10.280  0.2464  0.5962  1.7881
26621SOL     OW85954   7.518   0.772   0.439 -0.4632 -0.9057  0.1765
26621SOL    HW185955   7.528   0.680   0.463  0.3386 -0.8573  0.0439
26621SOL    HW285956   7.568   0.820   0.505 -0.0600 -0.6353 -0.3136
26622SOL     OW85957   6.762   5.187   0.163 -0.5052 -0.4187  0.2893
26622SOL    HW185958   6.770   5.279   0.189  0.2125 -0.7785  1.4346
26622SOL    HW285959   6.833   5.174   0.100 -0.6776 -0.1738  0.0382
26623SOL     OW85960   1.971   1.682   5.351 -0.0905 -0.2170  0.6551
26623SOL    HW185961   2.025   1.759   5.334  1.1502 -1.1482  0.3232
26623SOL    HW285962   1.943   1.653   5.264  0.8493 -1.1263  0.6429
26624SOL     OW85963   6.144   8.096   4.003 -0.2311  0.3640 -0.4329
26624SOL    HW185964   6.235   8.114   3.981  0.4629 -0.9921  1.1077
26624SOL    HW285965   6.099   8.094   3.918  1.7927 -2.1300 -1.6087
26625SOL     OW85966   1.100   7.198   5.353 -0.1402 -0.1023 -0.3548
26625SOL    HW185967   1.103   7.182   5.447 -1.9892  1.4546  0.0362
26625SOL    HW285968   1.047   7.126   5.318  1.5637 -1.3801 -0.4537
26626SOL     OW85969   1.952   2.334   3.935 -0.7036 -0.4543 -0.4080
26626SOL    HW185970   1.903   2.276   3.992 -0.0820 -1.8244 -1.1994
26626SOL    HW285971   2.031   2.357   3.985 -0.8060 -0.5388 -0.2083
26627SOL     OW85972   8.502   8.640  10.336 -0.3694 -0.6226 -0.2044
26627SOL    HW185973   8.461   8.591  10.407 -0.9347 -2.2800 -1.5896
26627SOL    HW285974   8.461   8.726  10.339  0.8009 -0.0620  2.4500
26628SOL     OW85975   7.445   7.523   9.336 -0.0863  0.1508 -0.2388
26628SOL    HW185976   7.383   7.522   9.263 -0.7299 -0.7722  0.3002
26628SOL    HW285977   7.517   7.467   9.307  0.4286  1.0691 -0.7875
26629SOL     OW85978  10.153   0.429  10.880 -0.5489 -0.0875  0.0804
26629SOL    HW185979  10.092   0.502  10.879 -0.9156 -0.3428 -2.4590
26629SOL    HW285980  10.174   0.413  10.788  0.8437 -2.0895  0.6636
26630SOL     OW85981   5.250   7.570   8.636  0.0675  0.5237 -0.2399
26630SOL    HW185982   5.256   7.648   8.691  3.5249 -0.0631  0.4186
26630SOL    HW285983   5.278   7.600   8.549 -0.4367  0.3848 -0.4538
26631SOL     OW85984   3.089   6.118   4.382  0.2177  0.4710 -0.0715
26631SOL    HW185985   3.160   6.058   4.359 -0.3133 -1.0761  2.0053
26631SOL    HW285986   3.132   6.189   4.429  0.5012 -0.0179  0.4168
26632SOL     OW85987   0.027   0.554   7.840  0.1193 -0.2211 -0.2026
26632SOL    HW185988  -0.003   0.475   7.796 -1.5908 -0.3483  1.0768
26632SOL    HW285989  -0.054   0.598   7.868  1.0600 -0.2719  2.9511
26633SOL     OW85990   3.844   3.123   4.547 -0.0531  0.1709  0.0481
26633SOL    HW185991   3.820   3.068   4.622  0.1354  0.5954  0.4311
26633SOL    HW285992   3.811   3.076   4.471  0.2363 -0.5512  0.3515
26634SOL     OW85993   9.492   0.011   8.905 -0.2373 -0.1631 -0.1430
26634SOL    HW185994   9.509   0.053   8.821 -0.4636  0.9676  0.3557
26634SOL    HW285995   9.406  -0.030   8.895 -0.1284 -0.2900 -0.5562
26635SOL     OW85996   0.732   7.244   0.258  0.1683  0.1829  0.0107
26635SOL    HW185997   0.736   7.267   0.165  1.5734 -1.6827 -0.4586
26635SOL    HW285998   0.822   7.259   0.289  0.4050 -1.7419  0.3646
26636SOL     OW85999   5.619   5.511  10.113 -0.6083  0.1492 -0.4544
26636SOL    HW186000   5.575   5.448  10.056  0.4146 -0.1615 -0.9099
26636SOL    HW286001   5.712   5.491  10.105 -0.3676  0.8242  0.4697
26637SOL     OW86002   7.603   4.490   1.045 -0.2499 -0.6899 -0.5851
26637SOL    HW186003   7.510   4.495   1.024 -0.6465 -0.6916  1.0098
26637SOL    HW286004   7.641   4.569   1.007 -1.3262  0.4424  0.5921
26638SOL     OW86005   5.124   9.616   0.109  0.7069 -0.2641  0.1768
26638SOL    HW186006   5.194   9.667   0.150 -0.6999  0.1654  2.2128
26638SOL    HW286007   5.127   9.531   0.153  0.2085 -0.3734  0.0123
26639SOL     OW86008   2.366   5.034   2.788  0.6469 -0.3109 -0.2162
26639SOL    HW186009   2.329   4.954   2.751 -1.0706  0.3000  0.0910
26639SOL    HW286010   2.388   5.088   2.712 -0.1213 -0.2473 -0.3990
26640SOL     OW86011   2.350   2.522   8.480  0.6089  0.5348  0.8405
26640SOL    HW186012   2.383   2.479   8.401 -0.6882 -0.0821  0.6204
26640SOL    HW286013   2.393   2.476   8.552 -0.0813 -0.5549  0.5706
26641SOL     OW86014   0.035   9.662   4.211 -0.1853  0.2393  0.3581
26641SOL    HW186015   0.026   9.677   4.116 -1.5355  0.8140  0.5561
26641SOL    HW286016   0.128   9.642   4.223  0.3511  1.7494 -0.8896
26642SOL     OW86017   1.486   0.741   6.843 -0.1139  0.2863 -0.1891
26642SOL    HW186018   1.560   0.800   6.858  2.3018 -1.4316 -3.7236
26642SOL    HW286019   1.453   0.765   6.756 -1.6956 -1.0187 -0.0076
26643SOL     OW86020   4.125   6.117   7.980  0.5869  0.0130 -0.2672
26643SOL    HW186021   4.177   6.105   7.900  1.2897  2.0973 -0.1888
26643SOL    HW286022   4.114   6.028   8.014 -0.6354 -1.0976 -3.1677
26644SOL     OW86023   5.519   3.855   1.367  0.0655 -0.4667 -0.3563
26644SOL    HW186024   5.600   3.868   1.316  0.9144  0.2965  1.1025
26644SOL    HW286025   5.545   3.798   1.439  0.1481  2.1114  1.8281
26645SOL     OW86026  10.031  10.807   8.160 -0.2950  0.0525  0.0697
26645SOL    HW186027  10.050  10.835   8.070  2.5994 -0.0489  0.5326
26645SOL    HW286028  10.091  10.733   8.174 -0.2114  0.4807  2.2697
26646SOL     OW86029   8.989   2.017   7.481 -0.0674 -0.0301  0.4059
26646SOL    HW186030   8.912   2.052   7.437  0.0076  0.2293  0.4772
26646SOL    HW286031   9.023   1.950   7.421  2.0066  2.6245 -1.6038
26647SOL     OW86032   4.589   9.794   6.435 -0.0934 -0.4604  0.4222
26647SOL    HW186033   4.552   9.709   6.412 -0.6580 -0.1675  0.2352
26647SOL    HW286034   4.661   9.773   6.495  0.9436 -1.1862 -1.0069
26648SOL     OW86035   0.508   5.047   7.607  0.3050  0.2335 -0.0950
26648SOL    HW186036   0.519   5.089   7.692  1.1392  1.0013 -0.5705
26648SOL    HW286037   0.560   4.967   7.613 -0.7744 -0.4364  0.5909
26649SOL     OW86038   0.727   3.351   7.355  0.6887 -0.1403  0.1023
26649SOL    HW186039   0.643   3.352   7.401  0.0070 -2.2942 -0.9331
26649SOL    HW286040   0.738   3.259   7.329  2.6214  0.3925 -1.1389
26650SOL     OW86041   5.663   4.297   3.842 -0.0821  0.0666 -0.3432
26650SOL    HW186042   5.695   4.375   3.797 -2.2283  2.1818  1.5254
26650SOL    HW286043   5.718   4.288   3.919 -0.1416  0.0261 -0.3050
26651SOL     OW86044   3.645   8.073   7.422  0.4688  1.0744 -0.2421
26651SOL    HW186045   3.578   8.140   7.408 -1.8086 -0.8308  0.8236
26651SOL    HW286046   3.668   8.044   7.334 -0.0128  1.8602 -0.6442
26652SOL     OW86047  10.178   1.488   0.740 -0.2890 -0.2054 -0.1807
26652SOL    HW186048  10.249   1.497   0.803 -0.6889 -0.9632  0.3905
26652SOL    HW286049  10.220   1.461   0.659 -0.0187 -1.7275  0.4412
26653SOL     OW86050   1.698   1.371   5.549 -0.1224  0.6419 -0.0597
26653SOL    HW186051   1.778   1.391   5.598 -0.8791  0.2734  1.3942
26653SOL    HW286052   1.634   1.435   5.581 -0.2628  1.3631 -1.6910
26654SOL     OW86053   9.073   7.448   0.446  0.6039  0.1445 -0.2689
26654SOL    HW186054   9.099   7.357   0.460 -0.0986  0.0894  0.7646
26654SOL    HW286055   9.139   7.499   0.493 -0.2893  0.0576  1.1434
26655SOL     OW86056   3.755   6.772   3.862 -0.0765 -0.8451 -0.1285
26655SOL    HW186057   3.689   6.782   3.930  0.5799  1.1534  0.2723
26655SOL    HW286058   3.839   6.770   3.908  0.3003 -0.6976 -0.7823
26656SOL     OW86059   6.285   2.096  10.273  0.0290 -0.3726 -0.4253
26656SOL    HW186060   6.251   2.029  10.214 -0.2236 -0.4054 -0.2466
26656SOL    HW286061   6.364   2.057  10.311  0.0744 -0.4328 -0.5819
26657SOL     OW86062  10.596   3.316   6.282  0.0080  1.0246  0.1723
26657SOL    HW186063  10.601   3.240   6.341 -2.1667  1.3406  0.8643
26657SOL    HW286064  10.613   3.391   6.338 -2.5841  1.3699  0.6336
26658SOL     OW86065  10.649   6.431   5.324 -0.3775 -0.1158  0.4094
26658SOL    HW186066  10.723   6.372   5.340 -0.3694 -0.1613  0.2089
26658SOL    HW286067  10.583   6.376   5.281  0.2771  0.3976 -1.3428
26659SOL     OW86068   5.547   8.837   1.062  0.3839 -0.2836  0.0265
26659SOL    HW186069   5.640   8.819   1.071  0.3957  0.1778  1.0080
26659SOL    HW286070   5.517   8.855   1.152 -0.8878 -1.5519 -0.0932
26660SOL     OW86071   7.403   6.081   3.861  0.2268  0.4551 -0.1470
26660SOL    HW186072   7.366   6.142   3.797 -1.4550  0.4827  0.7964
26660SOL    HW286073   7.395   5.995   3.820 -0.0306  0.5627 -0.3247
26661SOL     OW86074   0.447   3.103   7.705 -0.6006 -0.1571 -0.1404
26661SOL    HW186075   0.513   3.152   7.754 -2.0477  0.8603  0.8775
26661SOL    HW286076   0.479   3.013   7.704  0.3793  0.1494  1.0729
26662SOL     OW86077   7.700   6.219  10.280  0.5796  0.1860 -0.2975
26662SOL    HW186078   7.760   6.205  10.207  0.4837  1.4532 -0.6476
26662SOL    HW286079   7.670   6.132  10.304  2.5139 -0.4870 -0.1384
26663SOL     OW86080   4.295   2.940   6.718  0.0579 -0.1119 -0.1135
26663SOL    HW186081   4.375   2.890   6.735  0.3271  0.1618 -0.5465
26663SOL    HW286082   4.323   3.032   6.725  0.0981  0.0173 -1.5683
26664SOL     OW86083   7.448  10.350   8.115  0.2349 -0.5567  0.1996
26664SOL    HW186084   7.470  10.393   8.198  0.8403  1.3873 -0.8980
26664SOL    HW286085   7.419  10.422   8.058  1.3981 -1.5702 -1.7751
26665SOL     OW86086   7.427   1.930   8.034 -0.3381 -0.0115  0.1686
26665SOL    HW186087   7.349   1.925   8.089  0.3782 -0.2626  1.1992
26665SOL    HW286088   7.396   1.965   7.951 -1.2624  1.6705  1.1590
26666SOL     OW86089   7.588  10.084   6.172  0.2213  0.1476 -0.6138
26666SOL    HW186090   7.644  10.155   6.204 -1.8035  1.9311 -0.7962
26666SOL    HW286091   7.556  10.042   6.252  2.0025 -1.1174 -0.5097
26667SOL     OW86092   3.626   1.217   9.528  0.0022 -0.4129 -0.0359
26667SOL    HW186093   3.612   1.134   9.483 -0.1712 -1.4206  1.7667
26667SOL    HW286094   3.692   1.197   9.595  0.6550  1.1429 -0.1686
26668SOL     OW86095   9.626   9.118   7.430  0.3572 -0.3449  0.1524
26668SOL    HW186096   9.651   9.068   7.351  1.6115  0.8990 -0.2871
26668SOL    HW286097   9.670   9.072   7.502  2.2430  0.5310 -0.3538
26669SOL     OW86098   4.414   9.208   1.782  0.3919  0.1374  0.2017
26669SOL    HW186099   4.478   9.151   1.825  0.7094 -0.8303 -1.4612
26669SOL    HW286100   4.468   9.267   1.728 -0.0679 -0.3638 -0.8342
26670SOL     OW86101   8.443   3.055   0.416  0.0900  0.6833  0.1256
26670SOL    HW186102   8.398   3.004   0.483 -0.7317  0.9086 -0.2374
26670SOL    HW286103   8.399   3.140   0.417  0.8292  1.0655  0.0847
26671SOL     OW86104   5.121   4.498   1.480 -0.4393 -0.1652 -0.1497
26671SOL    HW186105   5.134   4.464   1.568  0.7106 -1.3173 -0.7223
26671SOL    HW286106   5.036   4.463   1.453 -0.9383  0.4526  0.6035
26672SOL     OW86107   5.684   5.716   2.145  0.3765 -0.5000 -0.0670
26672SOL    HW186108   5.757   5.778   2.141 -1.6598  1.9281 -1.9213
26672SOL    HW286109   5.713   5.642   2.091  2.1048 -0.4185  0.6730
26673SOL     OW86110   4.104   7.769   0.142  0.2441  0.1926  0.3458
26673SOL    HW186111   4.094   7.766   0.238 -1.0129  1.5474  0.2904
26673SOL    HW286112   4.196   7.748   0.127  0.1837 -1.3392  1.7546
26674SOL     OW86113  10.111   4.936   2.193  0.4337 -0.3244 -0.1688
26674SOL    HW186114  10.088   4.844   2.207 -0.1484  0.1051  2.1414
26674SOL    HW286115  10.033   4.975   2.153  0.3680 -0.6500 -0.3601
26675SOL     OW86116   5.902  10.318  10.746 -0.4617 -0.4700 -0.1553
26675SOL    HW186117   5.870  10.326  10.656 -1.0784 -1.0830  0.0028
26675SOL    HW286118   5.931  10.227  10.753  1.2806  0.0464 -0.2638
26676SOL     OW86119   2.678   0.170   0.523  0.0994 -0.1020  0.2712
26676SOL    HW186120   2.769   0.164   0.552  0.0474 -0.1960  0.4172
26676SOL    HW286121   2.683   0.203   0.433  0.2070  1.5731  0.8584
26677SOL     OW86122   8.707   7.566   3.148  0.4343 -0.2541 -0.0609
26677SOL    HW186123   8.744   7.651   3.124  1.0992 -1.1275 -2.3248
26677SOL    HW286124   8.691   7.573   3.243 -1.2292  3.0298 -0.4335
26678SOL     OW86125   3.859   3.817   5.614 -0.0039 -0.4718 -0.3170
26678SOL    HW186126   3.783   3.874   5.616  0.1443 -0.2835  0.0807
26678SOL    HW286127   3.920   3.860   5.554 -0.6218 -1.1619 -1.4625
26679SOL     OW86128   2.719   0.656  10.677  0.0847 -0.4164 -0.1166
26679SOL    HW186129   2.719   0.752  10.672  0.8128 -0.4346 -0.5555
26679SOL    HW286130   2.751   0.627  10.592 -1.3337 -1.0937 -0.4483
26680SOL     OW86131   2.153   7.124  10.292 -0.2910  0.0082 -0.0985
26680SOL    HW186132   2.083   7.065  10.321  0.2464 -0.2710  0.6380
26680SOL    HW286133   2.230   7.069  10.285  0.2542  0.6512  0.7359
26681SOL     OW86134   0.031   2.807   3.182 -0.2289 -0.0992 -0.0081
26681SOL    HW186135  -0.054   2.766   3.198  0.0237 -1.3538 -1.6335
26681SOL    HW286136   0.083   2.739   3.140  1.4555  0.7790  0.5571
26682SOL     OW86137   7.113   5.736  10.064  0.5225  0.8921 -0.5018
26682SOL    HW186138   7.086   5.679  10.136 -1.0173  0.0728 -1.6662
26682SOL    HW286139   7.209   5.737  10.069  0.5912 -1.3551 -0.1023
26683SOL     OW86140   2.122   0.495   7.263 -0.1913 -0.0649 -1.0135
26683SOL    HW186141   2.090   0.516   7.351  0.6778  1.1835 -0.9687
26683SOL    HW286142   2.186   0.425   7.277 -1.5888 -1.3797 -0.9211
26684SOL     OW86143  10.730   7.807   4.765  0.4056 -0.2320  0.1737
26684SOL    HW186144  10.713   7.891   4.724 -3.2200  0.1104  1.8937
26684SOL    HW286145  10.702   7.819   4.856  0.3232 -3.1060  0.6317
26685SOL     OW86146   2.526   2.515   9.611 -0.4570  0.6385 -0.1204
26685SOL    HW186147   2.477   2.439   9.580 -0.1192  0.5944 -0.5553
26685SOL    HW286148   2.524   2.507   9.707 -0.4394  0.0926 -0.1602
26686SOL     OW86149   0.757  10.522   5.666 -0.3689 -0.5455 -0.3936
26686SOL    HW186150   0.744  10.437   5.626 -3.2141 -1.8469  2.8015
26686SOL    HW286151   0.757  10.584   5.593 -0.4371 -3.0501 -2.6472
26687SOL     OW86152   8.797   5.000  10.595 -0.1280 -0.1074  0.0781
26687SOL    HW186153   8.718   4.965  10.637 -0.0362 -0.8971 -0.4007
26687SOL    HW286154   8.791   4.971  10.504 -0.6937  2.1986 -0.6925
26688SOL     OW86155   5.320   5.450   0.129 -0.0348 -0.0569 -0.3440
26688SOL    HW186156   5.242   5.410   0.090  0.4477  0.2070 -1.6263
26688SOL    HW286157   5.390   5.432   0.067  0.8783 -0.0280  0.6486
26689SOL     OW86158   8.660   6.874   2.212  0.0240 -0.0742 -0.5157
26689SOL    HW186159   8.633   6.785   2.185 -0.7276 -0.1263  0.3670
26689SOL    HW286160   8.615   6.931   2.150  0.5341 -0.3082 -1.1088
26690SOL     OW86161   3.241   9.350   2.383  0.0690 -0.2494 -0.5917
26690SOL    HW186162   3.273   9.404   2.455  0.0278 -0.9441 -0.0458
26690SOL    HW286163   3.213   9.269   2.424 -0.3886 -0.4779 -1.3375
26691SOL     OW86164   9.189   8.788   0.177  0.2835  0.5981 -0.1147
26691SOL    HW186165   9.188   8.724   0.106  0.8161 -0.9840  1.2199
26691SOL    HW286166   9.105   8.775   0.222  1.5555 -1.4357  1.9602
26692SOL     OW86167   2.654   6.531   5.633 -0.2629 -0.3485  0.2130
26692SOL    HW186168   2.740   6.491   5.628  0.5991  1.3106  1.2000
26692SOL    HW286169   2.659   6.593   5.706 -2.8177 -1.4257  1.4377
26693SOL     OW86170   3.425   4.984   4.629 -0.2531  0.3509 -0.1618
26693SOL    HW186171   3.503   5.022   4.671  0.1289 -0.0277 -0.5093
26693SOL    HW286172   3.445   4.890   4.622 -0.9749  0.1640  0.2402
26694SOL     OW86173   3.034   3.748   0.017  0.1012  0.1632 -0.5716
26694SOL    HW186174   3.114   3.762   0.068 -0.5555  1.5414  0.1460
26694SOL    HW286175   3.001   3.664   0.048  1.1679 -0.3490 -0.7584
26695SOL     OW86176   5.180   5.551   8.295 -0.2468  0.3975 -0.1493
26695SOL    HW186177   5.252   5.614   8.291 -0.2090  0.3255 -0.7615
26695SOL    HW286178   5.216   5.475   8.340 -0.4708  1.0362  1.1695
26696SOL     OW86179   0.628   3.758   8.548 -0.4868  0.0041 -0.4689
26696SOL    HW186180   0.542   3.751   8.589  0.5141 -0.7417  1.6895
26696SOL    HW286181   0.680   3.688   8.589  1.2875  0.7470 -1.3136
26697SOL     OW86182   5.909   8.948   3.131 -0.0886  0.2756 -0.6215
26697SOL    HW186183   5.822   8.909   3.135  0.5625 -1.4090 -1.6451
26697SOL    HW286184   5.947   8.934   3.218  1.0171 -3.7947 -1.5341
26698SOL     OW86185   6.734   3.548   6.550 -0.9478 -0.1623 -0.1165
26698SOL    HW186186   6.770   3.537   6.638 -2.2075 -0.8225  0.3543
26698SOL    HW286187   6.802   3.594   6.502  0.4007 -1.1085  0.7787
26699SOL     OW86188   7.900   5.864   4.307 -0.1240 -0.0272 -0.0457
26699SOL    HW186189   7.825   5.921   4.327  1.6919  2.6414 -0.3653
26699SOL    HW286190   7.938   5.845   4.393 -0.4435 -0.3887  0.0214
26700SOL     OW86191  10.209   9.341   1.680  0.4167  0.3481  0.0162
26700SOL    HW186192  10.161   9.410   1.724 -0.7803 -1.1118  1.1159
26700SOL    HW286193  10.165   9.330   1.596 -0.2103  0.0488  0.3833
26701SOL     OW86194   9.009  10.805   1.305  0.2626  0.0977  0.0255
26701SOL    HW186195   9.007  10.777   1.397 -1.1415  0.1008  0.0180
26701SOL    HW286196   9.029  10.899   1.309 -0.2307  0.1927  0.3621
26702SOL     OW86197   1.349   6.762   6.064  0.1124 -0.3470  0.2180
26702SOL    HW186198   1.277   6.795   6.011 -1.0424 -1.7746  0.8239
26702SOL    HW286199   1.417   6.828   6.056 -1.0195  0.7368 -0.8902
26703SOL     OW86200   3.857   9.770   3.360 -0.1677  0.3140 -0.3585
26703SOL    HW186201   3.875   9.691   3.410 -0.5462 -1.2299 -2.5111
26703SOL    HW286202   3.928   9.830   3.382 -0.1113 -0.4111  1.6492
26704SOL     OW86203   2.070   2.578   7.624 -0.9455  0.0666  0.1090
26704SOL    HW186204   2.090   2.655   7.571  2.2588 -0.8521 -0.1841
26704SOL    HW286205   2.074   2.611   7.714 -1.0652  0.5346 -0.0510
26705SOL     OW86206   7.838   9.262   2.784  0.3335  0.2726 -0.1524
26705SOL    HW186207   7.808   9.190   2.840  1.0820  0.1806  0.1450
26705SOL    HW286208   7.869   9.328   2.846  1.1767  0.1674 -0.4587
26706SOL     OW86209   9.837   2.392   2.198  0.3265  0.1831 -0.0997
26706SOL    HW186210   9.883   2.313   2.170 -0.0159 -0.2120  0.4345
26706SOL    HW286211   9.898   2.463   2.179  0.0283 -0.0275 -2.0294
26707SOL     OW86212   8.746   5.750  10.882  0.0331  0.1040  0.0847
26707SOL    HW186213   8.797   5.826  10.909 -1.5255  1.0416  0.5592
26707SOL    HW286214   8.656   5.782  10.879 -0.9064 -2.1066  1.8124
26708SOL     OW86215  10.082   0.745   3.190 -0.1822  0.4268  0.0186
26708SOL    HW186216  10.096   0.654   3.162 -0.0007  0.2971  0.5137
26708SOL    HW286217   9.989   0.761   3.172 -0.1233  0.2706 -0.4278
26709SOL     OW86218   0.413   1.225   9.200 -0.1199 -0.1608 -0.0321
26709SOL    HW186219   0.454   1.165   9.261 -1.8713 -1.2677  0.1403
26709SOL    HW286220   0.335   1.178   9.169  0.1318  0.8041 -2.2878
26710SOL     OW86221   5.581   2.053   4.907 -0.2723 -0.7361  0.2251
26710SOL    HW186222   5.612   1.978   4.856  2.2663 -0.6203  1.4563
26710SOL    HW286223   5.490   2.033   4.926  0.1720 -3.2433  0.0068
26711SOL     OW86224   1.755   3.620   9.076  0.0031  0.1264  0.0468
26711SOL    HW186225   1.795   3.697   9.114  0.3219 -0.6432  1.3184
26711SOL    HW286226   1.677   3.604   9.129 -0.4121 -0.0549 -0.6056
26712SOL     OW86227   9.298   6.618   7.740  0.6223  0.7702  0.0581
26712SOL    HW186228   9.209   6.593   7.715  1.3542 -1.6526 -0.3935
26712SOL    HW286229   9.304   6.711   7.717 -0.9276  0.3476 -2.4739
26713SOL     OW86230   6.676   5.403   5.984 -0.7000 -0.0400  0.0380
26713SOL    HW186231   6.612   5.333   5.991 -1.1294  0.2728 -0.7198
26713SOL    HW286232   6.757   5.359   5.957 -0.3023 -0.5743  1.9768
26714SOL     OW86233   9.020  10.215   7.088 -0.1281 -0.0664 -0.0108
26714SOL    HW186234   8.939  10.265   7.097 -0.0523  0.1691 -0.5782
26714SOL    HW286235   9.004  10.134   7.136 -0.5662  0.1346  0.1871
26715SOL     OW86236   5.375   5.485   3.251  0.4208  0.2763 -0.3687
26715SOL    HW186237   5.394   5.444   3.335 -0.2764 -0.9897 -0.7924
26715SOL    HW286238   5.281   5.502   3.254  0.1810 -0.7435 -1.2622
26716SOL     OW86239   1.351   8.039   5.187 -0.0505 -0.2258  0.2252
26716SOL    HW186240   1.432   8.051   5.137  0.8399 -1.8020  1.1708
26716SOL    HW286241   1.289   8.002   5.124  0.4946 -0.5538 -0.1287
26717SOL     OW86242   6.797   2.101   1.336 -0.5598  0.0654 -0.0821
26717SOL    HW186243   6.706   2.112   1.363 -0.1100  1.1731  1.0958
26717SOL    HW286244   6.798   2.126   1.243 -1.1842  1.6469  0.3070
26718SOL     OW86245   5.625   0.754   4.187 -0.0196 -0.1224 -0.1031
26718SOL    HW186246   5.552   0.700   4.215 -0.0948  0.0416  0.0192
26718SOL    HW286247   5.594   0.796   4.106 -0.0302 -0.1140 -0.0948
26719SOL     OW86248   4.742   9.137   4.061  0.5289 -0.0375 -0.1857
26719SOL    HW186249   4.761   9.231   4.055  1.5161 -0.2616 -0.7830
26719SOL    HW286250   4.683   9.130   4.136 -0.8212  1.2359 -1.0597
26720SOL     OW86251   9.894   1.141   1.080 -0.3723  0.1563 -0.1697
26720SOL    HW186252   9.832   1.159   1.150 -0.2026  2.8996 -0.6068
26720SOL    HW286253   9.855   1.179   1.002  1.3383  1.0278 -0.6658
26721SOL     OW86254   4.631   0.698   8.529 -0.5530 -0.6893  0.1378
26721SOL    HW186255   4.587   0.771   8.572  0.7658 -0.1770  0.6570
26721SOL    HW286256   4.608   0.621   8.582 -0.8131 -0.4298  0.4038
26722SOL     OW86257   5.095   0.755   5.425 -0.2653  0.1785  0.2752
26722SOL    HW186258   5.018   0.700   5.442 -0.8491  0.5172 -1.0968
26722SOL    HW286259   5.156   0.733   5.495 -1.8553  0.3846  1.8120
26723SOL     OW86260   1.858   2.250   8.727 -0.0940 -0.4321  0.1038
26723SOL    HW186261   1.815   2.318   8.778  0.0574 -1.0602  1.1050
26723SOL    HW286262   1.856   2.282   8.637 -1.6562  0.0454  0.2893
26724SOL     OW86263   5.158   2.858   2.693 -0.2392  0.4708 -0.1446
26724SOL    HW186264   5.145   2.948   2.724 -3.3454  0.3338 -0.7160
26724SOL    HW286265   5.174   2.867   2.599  2.2492  0.5073  0.2269
26725SOL     OW86266   3.636   7.828  10.785  0.3954  0.1243 -0.1965
26725SOL    HW186267   3.718   7.806  10.741  0.4257 -0.6069  0.2047
26725SOL    HW286268   3.598   7.897  10.732  1.9542  1.5113  0.3907
26726SOL     OW86269   5.740   7.809   5.213 -0.4765 -0.2114 -0.0971
26726SOL    HW186270   5.815   7.775   5.165  1.0223  1.4751  0.9373
26726SOL    HW286271   5.666   7.794   5.154  0.3584 -3.1804 -0.5905
26727SOL     OW86272   8.823   8.822   4.661  0.0802 -0.1157  0.1593
26727SOL    HW186273   8.824   8.864   4.575 -0.8034  0.0888  0.2460
26727SOL    HW286274   8.804   8.892   4.723  2.0682  0.0079  0.7006
26728SOL     OW86275  10.321   1.683   2.722 -0.2969  0.3882  0.5817
26728SOL    HW186276  10.324   1.759   2.781  1.2197  1.2967 -0.5853
26728SOL    HW286277  10.238   1.693   2.675 -0.6914  0.6155  1.2967
26729SOL     OW86278   1.521  10.318   1.909 -0.5309 -0.3555  0.8500
26729SOL    HW186279   1.589  10.252   1.924  0.6920  1.1271  2.2451
26729SOL    HW286280   1.516  10.367   1.991 -1.7848  0.9365  0.0645
26730SOL     OW86281   9.588   0.008   2.195  0.3256  0.5989  0.1226
26730SOL    HW186282   9.680   0.027   2.212  0.7532  1.4656 -2.6509
26730SOL    HW286283   9.585  -0.018   2.103 -1.9146 -1.6981  0.7243
26731SOL     OW86284   9.027   6.413   3.841 -1.0387 -0.2356 -0.0069
26731SOL    HW186285   9.080   6.483   3.802 -1.6817 -0.2134 -0.8580
26731SOL    HW286286   9.091   6.350   3.874 -0.4227  1.0193  1.3079
26732SOL     OW86287   6.797   6.861   6.928 -0.2272  0.1288 -0.3095
26732SOL    HW186288   6.764   6.811   6.853 -0.2014  1.3041 -1.1417
26732SOL    HW286289   6.718   6.894   6.970 -0.2236 -0.0715 -0.1456
26733SOL     OW86290   2.144   3.657   4.827 -0.1986 -0.2078  0.0006
26733SOL    HW186291   2.103   3.738   4.857  1.4507  1.1211 -1.2340
26733SOL    HW286292   2.109   3.643   4.739  1.7781  0.8353 -0.9892
26734SOL     OW86293   6.388   4.062   2.289 -0.2240  0.2455 -0.1938
26734SOL    HW186294   6.366   4.111   2.369  1.4979  0.1502  0.3625
26734SOL    HW286295   6.421   3.979   2.321  2.0884  0.8309 -0.8996
26735SOL     OW86296   1.123   3.364   0.466  0.3193  0.6064 -0.2502
26735SOL    HW186297   1.203   3.311   0.471 -0.0630  0.1130  1.1548
26735SOL    HW286298   1.116   3.389   0.374  0.8890 -1.2224 -0.8292
26736SOL     OW86299   7.179   5.364  10.700  0.2176 -0.2296  0.3787
26736SOL    HW186300   7.235   5.295  10.663  1.5346  0.8273  0.2997
26736SOL    HW286301   7.148   5.328  10.783  0.1148 -1.2643 -0.0865
26737SOL     OW86302   3.088   8.258   7.638  0.0379 -0.9372 -0.6630
26737SOL    HW186303   3.002   8.243   7.597 -0.6348  2.2411 -0.6877
26737SOL    HW286304   3.071   8.322   7.707  1.9874 -2.4582  1.3822
26738SOL     OW86305   3.581   2.215   9.143  0.0060 -0.4319  0.7089
26738SOL    HW186306   3.595   2.149   9.075  0.0419  0.3729 -0.1018
26738SOL    HW286307   3.549   2.292   9.095 -1.7581 -0.4223  1.8445
26739SOL     OW86308   1.556   0.666  10.483  0.0729  0.3760  0.1273
26739SOL    HW186309   1.483   0.708  10.531  1.4269  2.3321  0.6133
26739SOL    HW286310   1.621   0.649  10.551  0.4304 -0.5813 -0.4419
26740SOL     OW86311   3.980   6.201   9.946  0.4359  0.2325  0.3381
26740SOL    HW186312   4.018   6.244   9.870 -0.6098 -0.7735 -0.8111
26740SOL    HW286313   3.998   6.260  10.019 -1.2988  2.8724 -1.2108
26741SOL     OW86314   6.083   1.559   8.380  0.1350 -0.4030  0.2066
26741SOL    HW186315   6.152   1.492   8.376  1.9724  1.3777  0.0996
26741SOL    HW286316   6.097   1.603   8.463 -1.0938 -0.1968  0.3138
26742SOL     OW86317   9.302   6.482   8.025 -0.2901  0.5538  0.6694
26742SOL    HW186318   9.376   6.533   7.992 -0.4772  0.6177  0.3401
26742SOL    HW286319   9.310   6.397   7.983 -0.3356  0.5226  0.7238
26743SOL     OW86320   0.279   1.499  10.208  0.4343 -0.1833 -0.3028
26743SOL    HW186321   0.252   1.535  10.293 -0.8472 -0.7490 -0.4487
26743SOL    HW286322   0.285   1.575  10.150  0.1334  0.0695 -0.0042
26744SOL     OW86323   0.908   8.493   1.636  0.1125  0.1957  0.2433
26744SOL    HW186324   0.912   8.455   1.724 -2.6156  0.7230  0.6961
26744SOL    HW286325   0.854   8.572   1.647  0.8967  1.0682 -1.6801
26745SOL     OW86326  10.356   9.416   7.879 -0.4502 -0.0423  1.1229
26745SOL    HW186327  10.301   9.355   7.829  0.6497 -0.9067  0.9384
26745SOL    HW286328  10.313   9.501   7.868 -1.0660 -0.4771 -0.0276
26746SOL     OW86329   3.534   5.114   4.213 -0.0578 -0.2728 -0.4075
26746SOL    HW186330   3.473   5.106   4.140 -2.1401 -0.2114  1.2129
26746SOL    HW286331   3.478   5.112   4.291  1.7401  2.5937  1.1380
26747SOL     OW86332   0.271  10.272   8.785  0.1735 -0.1883 -0.0987
26747SOL    HW186333   0.319  10.189   8.785 -1.1840 -0.9982  0.7329
26747SOL    HW286334   0.187  10.251   8.824 -0.2047  1.5929  0.1050
26748SOL     OW86335   7.921  10.243   9.054 -0.1663 -0.1873  0.5005
26748SOL    HW186336   7.901  10.274   9.142 -0.1562  0.7928  0.1682
26748SOL    HW286337   7.860  10.289   8.997  0.0820 -0.5187 -0.0464
26749SOL     OW86338   1.055   7.423   1.922  0.1753 -0.1749  0.2606
26749SOL    HW186339   1.023   7.362   1.856  0.3993 -0.8685  0.7788
26749SOL    HW286340   1.029   7.509   1.890 -1.5948 -0.6528  0.3122
26750SOL     OW86341   5.721   8.018   9.008  0.4828 -0.4916  0.0014
26750SOL    HW186342   5.646   8.041   8.953  0.8835 -0.8503 -0.7048
26750SOL    HW286343   5.780   7.971   8.950  1.9255  1.0283  0.1700
26751SOL     OW86344   9.449   6.691   6.076 -0.2116  0.3152 -0.3351
26751SOL    HW186345   9.497   6.635   6.015 -1.3874 -0.0571 -0.9531
26751SOL    HW286346   9.462   6.780   6.044  1.4013  0.4073  0.4668
26752SOL     OW86347   8.054   0.066   3.117 -0.4511  0.0250 -0.2372
26752SOL    HW186348   7.978   0.089   3.171 -3.2014 -1.6973 -3.0821
26752SOL    HW286349   8.053   0.129   3.046  0.0841 -0.7354 -0.9349
26753SOL     OW86350   8.685   0.788   9.488 -0.2356  0.0274 -0.3463
26753SOL    HW186351   8.703   0.694   9.487  0.6571  0.1868 -0.4526
26753SOL    HW286352   8.675   0.810   9.580  0.4516 -0.0220 -0.2519
26754SOL     OW86353   0.833  10.836   6.892 -0.3066 -0.2280  0.8203
26754SOL    HW186354   0.925  10.840   6.918 -0.1893  0.6902  0.3046
26754SOL    HW286355   0.829  10.761   6.832  0.0584 -0.4203  1.0374
26755SOL     OW86356   5.423   7.506   7.592 -0.1297  0.6038  0.4994
26755SOL    HW186357   5.517   7.519   7.578 -0.0325  0.1530  0.7364
26755SOL    HW286358   5.400   7.568   7.661 -0.1271  1.1147  0.0561
26756SOL     OW86359   9.537   7.534  10.564 -0.5455 -0.3615 -0.3240
26756SOL    HW186360   9.552   7.444  10.593 -0.0242 -0.5133 -1.0284
26756SOL    HW286361   9.623   7.565  10.536 -0.5939  0.5999  0.5374
26757SOL     OW86362   4.676   1.003   9.360  0.2803 -0.2502 -0.0768
26757SOL    HW186363   4.590   0.981   9.326  0.2826  0.2051 -0.3902
26757SOL    HW286364   4.688   1.095   9.335  0.7624 -0.2492  0.1574
26758SOL     OW86365   1.523   9.674   8.772 -0.2721  0.2478  0.1715
26758SOL    HW186366   1.606   9.715   8.797 -1.4088  2.0248  1.3036
26758SOL    HW286367   1.539   9.580   8.780  1.5955  0.5423  0.4425
26759SOL     OW86368   6.478   7.895   5.156  0.3869 -0.2784  0.2971
26759SOL    HW186369   6.416   7.824   5.172  1.4151 -1.1937  0.3019
26759SOL    HW286370   6.457   7.924   5.067 -0.1356 -0.4860  0.3468
26760SOL     OW86371   5.615   9.224   6.241 -0.4714 -0.4309 -0.1129
26760SOL    HW186372   5.669   9.272   6.304 -0.0458 -0.0443 -0.7553
26760SOL    HW286373   5.539   9.281   6.227 -0.3465 -0.3026 -0.2822
26761SOL     OW86374  10.544   0.571  10.838  0.8603  0.2302 -0.4500
26761SOL    HW186375  10.594   0.622  10.775  1.0956  0.3437 -0.1697
26761SOL    HW286376  10.457   0.562  10.798  1.2812 -0.5032 -1.2278
26762SOL     OW86377   9.460   6.328   5.853  0.0112  0.0154 -0.5442
26762SOL    HW186378   9.522   6.398   5.833 -2.0257  1.6304 -1.4948
26762SOL    HW286379   9.375   6.361   5.824 -0.9750 -3.1137 -1.6899
26763SOL     OW86380  10.744   1.184   1.677 -0.3377  0.5425 -0.1411
26763SOL    HW186381  10.680   1.155   1.742  0.5033  0.3074  0.5953
26763SOL    HW286382  10.695   1.244   1.620 -1.0013  1.0463  0.9340
26764SOL     OW86383   1.179   3.918   3.940  0.0802 -0.0439 -0.0951
26764SOL    HW186384   1.248   3.981   3.920  0.6404 -0.3696  0.7664
26764SOL    HW286385   1.110   3.970   3.982 -0.5046  0.3961 -1.5367
26765SOL     OW86386   8.396   5.045   7.205 -0.4727 -0.2797  0.2485
26765SOL    HW186387   8.484   5.023   7.174 -0.6781 -1.2605  0.3337
26765SOL    HW286388   8.406   5.049   7.300 -0.2493  0.8769  0.1842
26766SOL     OW86389   9.046   4.388   8.486  0.4602 -0.4353  0.1434
26766SOL    HW186390   9.033   4.296   8.462  0.3289 -0.1679 -0.8589
26766SOL    HW286391   9.074   4.430   8.404  2.3332  0.0631  0.9810
26767SOL     OW86392   0.124   0.544   4.948 -0.2057  0.3834 -1.0234
26767SOL    HW186393   0.114   0.626   4.997  0.9192  0.5707 -1.0807
26767SOL    HW286394   0.036   0.508   4.944 -0.2680 -0.0467  1.8470
26768SOL     OW86395   6.122   6.041   9.349  0.0337  0.0326  0.1362
26768SOL    HW186396   6.057   5.998   9.404  1.3646  0.6512  2.3228
26768SOL    HW286397   6.077   6.118   9.314 -1.0862 -0.8280 -0.3571
26769SOL     OW86398   2.914   5.087   4.420 -0.5038  0.0061 -0.0964
26769SOL    HW186399   2.836   5.116   4.466 -1.2296 -1.6018 -0.2423
26769SOL    HW286400   2.886   5.076   4.329 -0.3284 -1.2853 -0.0157
26770SOL     OW86401   2.297   1.225   7.968 -0.0882  0.2858  0.0356
26770SOL    HW186402   2.383   1.259   7.944  0.4024 -0.2800  0.9566
26770SOL    HW286403   2.303   1.131   7.951  0.0627 -0.0329  1.7029
26771SOL     OW86404   5.624   5.571   6.508  0.5074 -0.3051  0.1378
26771SOL    HW186405   5.672   5.647   6.475  0.0843 -0.3122 -0.5090
26771SOL    HW286406   5.687   5.524   6.561  0.4827  1.0751  1.4598
26772SOL     OW86407   6.391   5.329  10.567  0.2761 -0.1381 -0.1121
26772SOL    HW186408   6.421   5.418  10.580 -0.2388 -0.2029  1.8077
26772SOL    HW286409   6.311   5.338  10.515 -1.0925  0.7832  2.0192
26773SOL     OW86410   3.849   4.267  10.793  0.0615 -0.1892  0.3471
26773SOL    HW186411   3.763   4.228  10.776  0.4279 -0.7449 -0.2858
26773SOL    HW286412   3.900   4.248  10.714  0.3142  1.4525  0.0935
26774SOL     OW86413   4.277   2.403   4.652  0.1431  0.1935 -0.6115
26774SOL    HW186414   4.216   2.369   4.718  0.0868 -1.2079 -1.3481
26774SOL    HW286415   4.246   2.366   4.570 -0.4755  2.8154 -1.6553
26775SOL     OW86416   4.764   4.885   7.444 -0.2035 -0.2007 -0.3811
26775SOL    HW186417   4.732   4.867   7.532  1.7743 -0.0395  0.4140
26775SOL    HW286418   4.844   4.833   7.436  0.0202  0.3179 -1.8314
26776SOL     OW86419   0.186   9.129   8.488 -0.0512  0.2543  0.0774
26776SOL    HW186420   0.192   9.055   8.548  0.7264  0.1138 -0.1634
26776SOL    HW286421   0.107   9.112   8.437 -2.0315  1.5003  2.5127
26777SOL     OW86422   9.409   7.112   4.160 -0.7225  0.0058  0.1428
26777SOL    HW186423   9.320   7.136   4.185 -1.2119 -0.2854 -1.2043
26777SOL    HW286424   9.402   7.090   4.067  0.6051 -0.7951  0.2065
26778SOL     OW86425   4.501   9.290   2.252  0.0868  0.1083  0.1209
26778SOL    HW186426   4.527   9.208   2.294  1.1442 -0.3230 -1.3023
26778SOL    HW286427   4.523   9.278   2.159 -1.1807  1.4227 -0.3990
26779SOL     OW86428   8.882   4.097   0.224 -0.7578 -0.6474  0.0953
26779SOL    HW186429   8.928   4.015   0.245  1.3987  0.3443 -0.5249
26779SOL    HW286430   8.837   4.120   0.305  1.6524 -0.5602  1.4980
26780SOL     OW86431   7.663   8.092   4.877  0.1657 -0.2538 -1.4659
26780SOL    HW186432   7.737   8.144   4.846  1.0906 -1.1493 -0.8484
26780SOL    HW286433   7.604   8.086   4.802  0.9015  0.1691 -2.0879
26781SOL     OW86434   8.536   7.743   8.659 -0.1046  0.1091 -0.6422
26781SOL    HW186435   8.518   7.818   8.715  1.7110  1.2827 -1.5568
26781SOL    HW286436   8.452   7.720   8.621 -0.4012  2.9803 -1.9223
26782SOL     OW86437   5.828   1.955   9.478 -0.0297 -0.5416 -0.0965
26782SOL    HW186438   5.833   1.918   9.390 -1.4482  0.7701 -0.7630
26782SOL    HW286439   5.735   1.959   9.498  0.0704  2.0682  0.1714
26783SOL     OW86440   2.527   5.209   0.956 -0.3066  0.6681 -0.4496
26783SOL    HW186441   2.471   5.203   1.033 -1.6166 -0.0758 -1.4185
26783SOL    HW286442   2.588   5.135   0.966 -0.9649  0.1090 -0.4990
26784SOL     OW86443   7.990   7.220  10.198 -0.0226 -0.2370  0.1943
26784SOL    HW186444   7.896   7.206  10.210 -0.2709  0.6750 -0.6085
26784SOL    HW286445   8.007   7.305  10.239  0.4453 -0.3735  0.2914
26785SOL     OW86446   4.597  10.227   3.289 -0.4570  0.0844  0.1346
26785SOL    HW186447   4.687  10.205   3.314 -0.2828  0.8407  0.2007
26785SOL    HW286448   4.567  10.151   3.240 -0.1675 -0.6482  1.0730
26786SOL     OW86449   8.895   6.956   0.744  0.2778  0.0948  0.2049
26786SOL    HW186450   8.913   7.022   0.676  2.1144 -1.8767 -1.3393
26786SOL    HW286451   8.801   6.938   0.735  0.5792 -0.5846 -2.3314
26787SOL     OW86452   2.721   2.204   6.199  0.3893 -0.2721 -0.6037
26787SOL    HW186453   2.776   2.196   6.121 -0.1902 -1.7998 -0.8826
26787SOL    HW286454   2.632   2.214   6.164  0.0285 -1.7390 -0.1746
26788SOL     OW86455   6.347   6.939   0.286  0.0598 -0.1154  0.4699
26788SOL    HW186456   6.397   7.020   0.292 -1.7460  1.0382  0.8756
26788SOL    HW286457   6.340   6.909   0.377  0.3753 -0.5128  0.3657
26789SOL     OW86458   6.982   7.066   6.508  0.0571 -0.2693  0.1863
26789SOL    HW186459   6.961   7.067   6.601  0.3968 -0.5220  0.2695
26789SOL    HW286460   7.070   7.029   6.504 -0.7359 -2.1888 -0.4010
26790SOL     OW86461   5.897   0.528   9.132  0.2542 -0.1999 -0.2838
26790SOL    HW186462   5.945   0.448   9.151 -0.0396  0.0155  1.4857
26790SOL    HW286463   5.935   0.560   9.050  1.6569 -1.1452 -0.0285
26791SOL     OW86464   0.720   0.594   0.649  0.0101 -0.2299  0.3285
26791SOL    HW186465   0.656   0.567   0.715 -0.9786  0.8739 -0.1564
26791SOL    HW286466   0.720   0.522   0.585 -0.9272 -0.1316  0.2109
26792SOL     OW86467   2.354   1.853   2.338  0.7758  0.1160  0.3905
26792SOL    HW186468   2.398   1.772   2.362  1.9417  1.0855  1.6687
26792SOL    HW286469   2.420   1.904   2.292 -0.0376  0.2476 -0.6773
26793SOL     OW86470   7.823   2.157   4.631  0.3023  0.2008  0.1900
26793SOL    HW186471   7.831   2.079   4.686 -2.6430 -0.6436 -0.4089
26793SOL    HW286472   7.849   2.127   4.544  2.1594  0.7787  0.4989
26794SOL     OW86473   5.817   4.336   8.360  0.3478 -0.1642  0.1434
26794SOL    HW186474   5.745   4.322   8.421  2.1188 -1.3323  2.1020
26794SOL    HW286475   5.784   4.305   8.276 -2.3685  1.9983  0.2463
26795SOL     OW86476   3.643   0.531   6.421  0.8367 -0.3430 -0.2056
26795SOL    HW186477   3.712   0.483   6.375 -0.2521 -2.9482  0.7388
26795SOL    HW286478   3.562   0.508   6.376  0.3375  1.4303 -0.3170
26796SOL     OW86479   2.497   7.367  10.719 -0.2077  0.1231  0.0380
26796SOL    HW186480   2.456   7.443  10.678 -0.4332 -0.5067 -0.9257
26796SOL    HW286481   2.451   7.292  10.682  1.2411 -0.5659 -0.4423
26797SOL     OW86482   2.422   4.690   9.784  0.3242 -0.5522 -0.0521
26797SOL    HW186483   2.445   4.750   9.713  0.8799 -1.6686 -0.8528
26797SOL    HW286484   2.498   4.692   9.842  0.1082 -0.0749  0.2237
26798SOL     OW86485   2.925   4.577   0.564 -0.0650  0.4349 -0.3023
26798SOL    HW186486   2.893   4.595   0.475 -2.7400 -0.2923  0.4179
26798SOL    HW286487   2.957   4.486   0.559 -1.4141 -0.0665 -0.2698
26799SOL     OW86488   7.284   3.156   1.465 -0.4981 -0.0382  0.4857
26799SOL    HW186489   7.307   3.248   1.451 -2.3025  0.0440 -3.1023
26799SOL    HW286490   7.352   3.108   1.418 -0.2635 -0.5153  1.2970
26800SOL     OW86491   4.885   1.116   2.896 -0.1109  0.0489 -0.5983
26800SOL    HW186492   4.862   1.104   2.988  0.2109  0.7129 -0.4232
26800SOL    HW286493   4.973   1.080   2.888  0.4709  1.3473 -0.2897
26801SOL     OW86494   4.031   5.758   4.236  0.1648  0.0486 -0.4542
26801SOL    HW186495   4.078   5.812   4.173  0.2299 -0.0898 -0.5242
26801SOL    HW286496   4.064   5.786   4.321 -0.4980  0.7966 -0.4265
26802SOL     OW86497   8.567   7.867   2.243  0.8335  0.0677 -0.0895
26802SOL    HW186498   8.602   7.956   2.249  0.8147 -0.0106  3.0386
26802SOL    HW286499   8.472   7.878   2.234  0.7803  0.4173  0.7790
26803SOL     OW86500   3.677   7.419  10.003 -0.5856 -0.6541  0.2074
26803SOL    HW186501   3.620   7.461  10.068 -0.9105  1.0371 -1.0899
26803SOL    HW286502   3.632   7.433   9.920  1.3071  0.0224 -0.7678
26804SOL     OW86503   0.058   3.302   7.105  0.1571  0.2095 -0.4758
26804SOL    HW186504   0.026   3.298   7.015 -0.9305 -0.3256 -0.0879
26804SOL    HW286505   0.108   3.383   7.109 -0.6194  0.7559 -1.3013
26805SOL     OW86506   1.503   0.426   4.404 -0.1231  0.5317  0.4542
26805SOL    HW186507   1.480   0.477   4.481 -0.2061 -0.6354  1.2347
26805SOL    HW286508   1.598   0.429   4.401 -0.1405  0.9311  0.3628
26806SOL     OW86509   4.341   3.162   1.465  0.5140  0.0163 -0.6741
26806SOL    HW186510   4.339   3.145   1.559  1.2818  1.2859 -0.4041
26806SOL    HW286511   4.303   3.083   1.426 -0.0895 -0.4155  0.7011
26807SOL     OW86512   1.063   8.507   8.370  0.6303  0.3092 -0.7762
26807SOL    HW186513   1.134   8.565   8.340  1.4413 -0.8576 -1.2197
26807SOL    HW286514   1.081   8.493   8.463  1.5861 -0.7628 -1.1005
26808SOL     OW86515   3.886   0.609   3.597  0.7514  0.0539  0.3394
26808SOL    HW186516   3.892   0.530   3.543  0.3715 -1.0142  1.7855
26808SOL    HW286517   3.971   0.652   3.587  0.3499  0.4638 -1.8873
26809SOL     OW86518   1.162   5.887   0.561  0.0294  0.3703  0.8335
26809SOL    HW186519   1.185   5.841   0.642 -0.9177 -0.8287  0.4384
26809SOL    HW286520   1.091   5.945   0.586 -0.0661  0.2141  0.9256
26810SOL     OW86521   4.259   2.018   6.001  0.4509 -0.9557  0.2389
26810SOL    HW186522   4.301   1.935   6.021  0.4648 -0.8256  0.7540
26810SOL    HW286523   4.273   2.072   6.079 -2.3271 -1.5422  1.2677
26811SOL     OW86524   7.949   2.331   9.265  0.6255 -0.4019  0.1290
26811SOL    HW186525   7.864   2.306   9.303  1.5082 -3.1192  0.5694
26811SOL    HW286526   8.001   2.360   9.339  1.2754 -2.5403  0.5946
26812SOL     OW86527   2.162   4.700   7.999 -0.0122  0.0750  0.3087
26812SOL    HW186528   2.199   4.625   8.046  0.0967  0.7195  1.2777
26812SOL    HW286529   2.182   4.682   7.907 -0.1605 -1.1756  0.5034
26813SOL     OW86530   7.908   0.682  10.679  0.0284 -0.1640 -0.1027
26813SOL    HW186531   7.952   0.659  10.760  1.3219  0.7167 -0.5282
26813SOL    HW286532   7.930   0.611  10.619 -0.6178 -0.6223  0.1855
26814SOL     OW86533   3.626   4.216   3.313 -0.8511  0.0258  0.3256
26814SOL    HW186534   3.707   4.167   3.328  0.1940  1.4285 -0.4951
26814SOL    HW286535   3.595   4.185   3.228 -1.3821 -0.7635  0.7981
26815SOL     OW86536   9.790   0.054   8.994 -0.1491  0.3236  0.0691
26815SOL    HW186537   9.755   0.101   8.919  0.1769 -0.0092 -0.2932
26815SOL    HW286538   9.849  -0.012   8.957  2.8663  2.4314  0.7295
26816SOL     OW86539   5.859   0.802   4.101 -0.2378 -0.3694 -0.0027
26816SOL    HW186540   5.919   0.764   4.164 -1.2368 -1.2672  0.4350
26816SOL    HW286541   5.772   0.790   4.139 -0.6721  6.2447  2.4771
26817SOL     OW86542   4.180   9.236   3.940  0.1058  0.0338 -0.1222
26817SOL    HW186543   4.260   9.190   3.918  0.7030  2.2045 -3.1202
26817SOL    HW286544   4.191   9.261   4.032  1.8990 -1.4147  0.1210
26818SOL     OW86545   3.813   4.201  10.525  0.7968 -0.0962  0.1989
26818SOL    HW186546   3.887   4.186  10.467  0.7182 -0.3120  0.1560
26818SOL    HW286547   3.736   4.198  10.468  0.6775 -0.8206  0.3956
26819SOL     OW86548   4.113   9.681   5.124  0.3606  0.2283 -0.0919
26819SOL    HW186549   4.020   9.702   5.111 -0.0006 -1.2007  0.0176
26819SOL    HW286550   4.155   9.708   5.042  0.0853  1.9690  0.2819
26820SOL     OW86551   5.739   8.895   0.199 -0.2352  0.3081 -0.4783
26820SOL    HW186552   5.740   8.935   0.286 -2.3332  1.1076 -0.7771
26820SOL    HW286553   5.689   8.814   0.210  0.8779 -0.4280 -0.6440
26821SOL     OW86554   4.998   5.194  10.209 -0.0754 -0.5635  0.2951
26821SOL    HW186555   4.948   5.272  10.236 -0.4713 -0.7841  0.2068
26821SOL    HW286556   4.932   5.135  10.173  0.5171  0.0240 -1.9184
26822SOL     OW86557   6.642   1.902   7.638 -0.1939 -0.1761 -0.0081
26822SOL    HW186558   6.667   1.925   7.728 -1.2021 -1.1989  0.5654
26822SOL    HW286559   6.703   1.951   7.583  0.0560  0.9478  1.2146
26823SOL     OW86560   0.759   9.365   2.541  0.1395 -0.1579 -0.6618
26823SOL    HW186561   0.789   9.449   2.506 -2.0225  2.2492  2.5553
26823SOL    HW286562   0.666   9.361   2.516 -0.8403  0.5286  2.3914
26824SOL     OW86563   9.177   5.096   2.111 -0.7521 -0.5471  0.0238
26824SOL    HW186564   9.198   5.138   2.028 -0.8726  0.1311  0.3290
26824SOL    HW286565   9.220   5.151   2.177  3.4582 -3.5408  0.2281
26825SOL     OW86566  10.718  10.926   7.602 -0.0075 -0.1498 -0.5178
26825SOL    HW186567  10.794  10.963   7.557 -0.1520  1.1750  0.2629
26825SOL    HW286568  10.647  10.986   7.582  0.2442  1.4259  2.6126
26826SOL     OW86569   0.403   7.528   7.824  0.1315 -0.0134  0.5549
26826SOL    HW186570   0.471   7.503   7.762  0.1666 -0.8731  0.9164
26826SOL    HW286571   0.364   7.445   7.851 -0.3437  0.3947  1.1615
26827SOL     OW86572   2.036   4.586   5.706 -0.0714  0.1833  0.2574
26827SOL    HW186573   2.028   4.500   5.664 -1.2754  1.0765 -1.4608
26827SOL    HW286574   1.970   4.640   5.664 -1.7664  1.0806  3.6644
26828SOL     OW86575   9.067   1.210   1.461  0.9832  0.1107 -0.8137
26828SOL    HW186576   8.976   1.181   1.464  1.0958 -0.2096 -0.2523
26828SOL    HW286577   9.069   1.288   1.517  1.2630 -0.5179  0.0799
26829SOL     OW86578   1.131   4.248   2.173 -0.1719 -0.3230  0.0882
26829SOL    HW186579   1.123   4.178   2.108 -2.1998  1.6242 -1.9726
26829SOL    HW286580   1.209   4.297   2.147  1.1717 -1.6721  1.4518
26830SOL     OW86581   6.413   1.648   1.463 -0.2542 -0.4124 -0.5445
26830SOL    HW186582   6.465   1.701   1.403 -0.2479  1.0670  0.6999
26830SOL    HW286583   6.469   1.636   1.539 -0.2778 -2.2153 -0.7596
26831SOL     OW86584   8.784   7.343   4.598 -0.4858 -0.2262 -0.5824
26831SOL    HW186585   8.719   7.302   4.541 -1.8264  0.4002  0.4467
26831SOL    HW286586   8.787   7.288   4.675  0.8564 -0.7185 -0.9610
26832SOL     OW86587   0.672   1.882   3.099 -0.7435 -0.3430 -0.1428
26832SOL    HW186588   0.582   1.905   3.078  0.1030  1.8395 -1.7820
26832SOL    HW286589   0.702   1.830   3.025 -0.0629  0.7750 -0.6909
26833SOL     OW86590   5.315   0.901   3.829  0.0303  0.3186 -0.2114
26833SOL    HW186591   5.226   0.879   3.858 -0.2541  1.9323  0.2352
26833SOL    HW286592   5.361   0.922   3.910  0.9440 -0.8164 -0.4059
26834SOL     OW86593   1.885   5.789   7.460 -0.0781 -0.3496 -0.0243
26834SOL    HW186594   1.839   5.779   7.543  1.0520 -1.5081  0.4947
26834SOL    HW286595   1.816   5.803   7.395 -0.9855  0.4313  1.0774
26835SOL     OW86596   0.604   4.790   5.921  0.3926  0.4617 -0.3565
26835SOL    HW186597   0.549   4.777   5.844  1.0684  1.2682 -1.0022
26835SOL    HW286598   0.625   4.701   5.950 -0.3330  0.1469 -0.7650
26836SOL     OW86599   5.166   3.059   5.731 -0.2065 -0.5592  0.6655
26836SOL    HW186600   5.130   2.992   5.790 -2.6377  0.4503  0.4652
26836SOL    HW286601   5.122   3.042   5.647 -0.5704  1.0022  0.5107
26837SOL     OW86602   1.134   8.637   0.901 -0.0097 -1.0263  0.4068
26837SOL    HW186603   1.071   8.689   0.950  1.5498  1.4950 -0.0973
26837SOL    HW286604   1.207   8.624   0.962  0.7632 -0.2566 -0.3348
26838SOL     OW86605   6.982   0.473   7.590  0.1023  0.3402 -0.6582
26838SOL    HW186606   6.967   0.440   7.501  1.3893 -0.6307 -0.5453
26838SOL    HW286607   6.932   0.414   7.646 -0.6628  0.9174 -0.7227
26839SOL     OW86608   9.629   8.168   9.069  0.5369  0.2653 -0.3234
26839SOL    HW186609   9.548   8.128   9.100  0.1852  0.2024 -1.2754
26839SOL    HW286610   9.646   8.239   9.131  0.6165 -0.7063  0.7863
26840SOL     OW86611   0.428   1.601   6.228 -0.6869 -0.1822 -0.0700
26840SOL    HW186612   0.430   1.634   6.318 -1.4595  0.9272 -0.4381
26840SOL    HW286613   0.480   1.663   6.178 -2.1594  0.5465 -0.7721
26841SOL     OW86614   6.334   3.612   7.182  0.1436  0.0854  0.0358
26841SOL    HW186615   6.425   3.630   7.161  0.0347  0.6036  0.0103
26841SOL    HW286616   6.285   3.637   7.104  0.1447 -1.9211 -0.6721
26842SOL     OW86617   9.396   8.022  10.908 -0.2347 -0.1575  0.3211
26842SOL    HW186618   9.315   7.970  10.902  0.1551 -0.7188 -0.2076
26842SOL    HW286619   9.465   7.957  10.919  0.6021 -0.0475 -3.0399
26843SOL     OW86620   4.202  10.667   5.213  0.2231  0.4000 -0.0070
26843SOL    HW186621   4.281  10.648   5.162  0.9867  1.4122  0.7447
26843SOL    HW286622   4.186  10.587   5.263  0.2095 -0.1518 -0.8723
26844SOL     OW86623   7.795   5.551   6.595  0.0138  0.1273  0.0642
26844SOL    HW186624   7.797   5.604   6.515  1.2351 -1.1692 -0.8005
26844SOL    HW286625   7.886   5.544   6.621 -0.1412 -1.4058  0.2457
26845SOL     OW86626   6.734   0.600   4.472  0.0922  0.1408  0.5704
26845SOL    HW186627   6.751   0.572   4.562  1.9373 -0.0923  0.1900
26845SOL    HW286628   6.643   0.574   4.456 -0.1848 -0.0858  2.2497
26846SOL     OW86629   9.910   7.044   9.249  0.4165 -0.2378 -0.3333
26846SOL    HW186630   9.961   7.112   9.205  1.6972 -1.1302 -0.2734
26846SOL    HW286631   9.835   7.092   9.287  0.1589  0.8005 -2.0193
26847SOL     OW86632   0.168   3.780   6.529 -0.2265  0.1269  0.0244
26847SOL    HW186633   0.103   3.715   6.502  0.5590 -0.4870 -0.4565
26847SOL    HW286634   0.203   3.746   6.611  1.6346 -1.1922 -1.2250
26848SOL     OW86635   3.631   2.610   2.200  0.2776 -0.0713  0.0876
26848SOL    HW186636   3.539   2.588   2.183  0.5197 -0.5514 -0.6388
26848SOL    HW286637   3.667   2.532   2.241  0.4572 -0.0310  0.0062
26849SOL     OW86638   8.737   6.551   9.899 -0.0135 -0.0269  0.3745
26849SOL    HW186639   8.832   6.561   9.894 -0.0904  0.4941 -0.2997
26849SOL    HW286640   8.714   6.572   9.989  0.4993 -0.0528  0.5090
26850SOL     OW86641   2.191   4.085   0.419  0.3073 -0.4522 -0.0415
26850SOL    HW186642   2.150   4.169   0.438 -0.2003 -0.0134 -2.6951
26850SOL    HW286643   2.160   4.026   0.488 -1.1278  0.9966  0.5973
26851SOL     OW86644   0.026   3.387   2.739 -0.2932 -0.2011 -0.8075
26851SOL    HW186645   0.105   3.334   2.742 -0.4816 -0.7985 -3.5927
26851SOL    HW286646  -0.042   3.328   2.706 -1.4303  0.7883 -0.3311
26852SOL     OW86647   5.445   8.048   2.668 -0.5590 -0.3743  0.2519
26852SOL    HW186648   5.433   8.022   2.577  0.0696  1.3939 -0.3839
26852SOL    HW286649   5.512   7.988   2.702  1.1118  0.5378 -1.2580
26853SOL     OW86650   5.461   6.513   6.025 -0.0242  0.2005 -0.4614
26853SOL    HW186651   5.407   6.569   6.082 -1.0926  0.2686 -1.5086
26853SOL    HW286652   5.400   6.479   5.960  0.9965 -0.6422 -1.0102
26854SOL     OW86653   6.382   2.342   2.679 -0.0941 -0.3736  0.0357
26854SOL    HW186654   6.325   2.324   2.754 -1.4552  0.2419 -0.8185
26854SOL    HW286655   6.348   2.423   2.641  1.1919 -0.1393 -0.6745
26855SOL     OW86656   2.235   8.460   5.976 -0.1629 -0.5645 -0.7143
26855SOL    HW186657   2.177   8.512   6.032 -1.1332 -0.1548 -2.0718
26855SOL    HW286658   2.259   8.385   6.031 -1.0875 -0.1819  0.2466
26856SOL     OW86659   9.834   2.242   3.141  0.5079  0.0765 -0.3740
26856SOL    HW186660   9.785   2.323   3.123 -0.7166 -1.2082 -3.3034
26856SOL    HW286661   9.890   2.230   3.065  2.9753 -0.3283  1.3931
26857SOL     OW86662   2.970   6.995   4.127  0.3241  0.1032 -0.3512
26857SOL    HW186663   2.918   7.040   4.194 -0.1319  1.6092 -1.6663
26857SOL    HW286664   3.056   6.984   4.168 -0.7870 -1.9484  1.6523
26858SOL     OW86665   2.020   8.399   7.069 -0.2651 -0.3442 -0.1753
26858SOL    HW186666   2.112   8.373   7.074 -0.7523 -2.2664 -0.4769
26858SOL    HW286667   1.992   8.373   6.982 -0.5989  2.1612 -0.8884
26859SOL     OW86668   1.438   7.495   8.473 -0.0535 -0.1132  0.1822
26859SOL    HW186669   1.484   7.438   8.535 -0.7697  0.6460  1.4724
26859SOL    HW286670   1.495   7.499   8.397  2.9163  2.0294  2.2595
26860SOL     OW86671   7.262   9.709   5.226 -0.4046 -0.0765  0.0759
26860SOL    HW186672   7.174   9.737   5.199  0.3519  2.6843  0.1015
26860SOL    HW286673   7.273   9.622   5.188 -2.9128 -0.2516 -0.4184
26861SOL     OW86674   9.287   4.644   9.323  0.6337 -0.0585 -0.0943
26861SOL    HW186675   9.321   4.599   9.246 -1.1441  0.8404 -1.4616
26861SOL    HW286676   9.358   4.704   9.349  1.8989 -1.5465  0.0425
26862SOL     OW86677   3.444   0.797   6.780 -0.1959  0.3771 -0.9527
26862SOL    HW186678   3.488   0.801   6.865  1.6117 -0.7525 -1.7680
26862SOL    HW286679   3.421   0.887   6.760 -0.9102  0.6355  0.8342
26863SOL     OW86680   6.922   5.392   6.848  0.0824  0.2719  0.4636
26863SOL    HW186681   6.965   5.308   6.831  1.3072  1.0242 -0.3893
26863SOL    HW286682   6.879   5.413   6.765  0.5080  0.8768  0.3899
26864SOL     OW86683   6.326   6.099   7.934 -0.3036  0.1557 -0.1869
26864SOL    HW186684   6.375   6.037   7.881  0.4552  0.1997  0.4357
26864SOL    HW286685   6.271   6.045   7.990 -1.2797  0.1168 -1.1712
26865SOL     OW86686   3.845   3.177   2.885  0.5469  0.0588  0.1315
26865SOL    HW186687   3.930   3.139   2.908  0.3476 -0.6215 -0.2136
26865SOL    HW286688   3.795   3.103   2.849  0.5688  0.8866 -1.7115
26866SOL     OW86689   4.253  10.051   4.744 -0.2397  0.3735  0.1829
26866SOL    HW186690   4.220  10.124   4.692  0.3269  0.1551 -0.4983
26866SOL    HW286691   4.289   9.990   4.679 -0.1958 -0.2486  0.7825
26867SOL     OW86692   6.504   6.695   2.833 -0.2076 -0.4197  0.0864
26867SOL    HW186693   6.487   6.786   2.855 -0.2215 -0.1149 -1.1115
26867SOL    HW286694   6.452   6.679   2.754 -0.0694 -1.4086  0.1823
26868SOL     OW86695   3.505   1.367   8.738 -0.3006 -0.2756  0.3676
26868SOL    HW186696   3.519   1.335   8.827 -0.8925  0.2628  0.6631
26868SOL    HW286697   3.424   1.418   8.744 -1.0218 -1.2509 -0.7368
26869SOL     OW86698   1.329   6.750   1.129 -0.2732  0.2133 -0.0398
26869SOL    HW186699   1.260   6.683   1.129 -0.3504  0.2926 -0.0886
26869SOL    HW286700   1.283   6.833   1.138 -0.1247  0.2179  0.7578
26870SOL     OW86701   8.707   7.052   6.739  0.1157  0.1061  0.1102
26870SOL    HW186702   8.734   7.089   6.655  4.1550  1.0108  1.5613
26870SOL    HW286703   8.677   7.127   6.790  0.8936  0.1382  0.5344
26871SOL     OW86704  10.825   9.942   7.516  0.1434 -0.0016 -0.0236
26871SOL    HW186705  10.838   9.918   7.607  0.6910 -0.0513 -0.1085
26871SOL    HW286706  10.905   9.911   7.472 -0.1407 -0.0280 -0.5239
26872SOL     OW86707   0.388   7.665   5.954  0.4092  0.0975  0.1998
26872SOL    HW186708   0.340   7.596   5.908  3.2179 -1.4817 -0.5740
26872SOL    HW286709   0.366   7.651   6.047 -2.7763  1.3044 -0.2275
26873SOL     OW86710   2.894   1.304   4.263 -0.1740  0.4404  0.0109
26873SOL    HW186711   2.953   1.338   4.330 -0.7052  1.7057 -0.1255
26873SOL    HW286712   2.851   1.229   4.304 -0.2572  0.9991  0.9763
26874SOL     OW86713   0.941   3.488   1.121 -0.3342 -0.0038 -0.3979
26874SOL    HW186714   0.949   3.401   1.159  1.2902  1.1601  2.1660
26874SOL    HW286715   0.863   3.526   1.162 -0.4910  0.1218 -0.7965
26875SOL     OW86716   5.690  10.839   4.702  0.4960 -0.4183 -0.3537
26875SOL    HW186717   5.656  10.888   4.627 -0.5508 -0.2698  0.1930
26875SOL    HW286718   5.665  10.891   4.778 -0.3479 -1.6148  0.2250
26876SOL     OW86719   1.159   4.161   9.998 -0.4604 -0.0891  0.3660
26876SOL    HW186720   1.203   4.232  10.045 -1.3449  0.1579  0.8384
26876SOL    HW286721   1.206   4.154   9.915  0.0616  0.5927  0.6006
26877SOL     OW86722   3.114   9.475   1.572 -0.8230 -0.3516  0.2137
26877SOL    HW186723   3.152   9.413   1.634  2.1284  0.3424 -0.7212
26877SOL    HW286724   3.082   9.547   1.627  2.9135  0.8768  1.0836
26878SOL     OW86725   8.779   6.663   0.933  0.4687  0.2140 -0.1126
26878SOL    HW186726   8.690   6.696   0.943  0.2990 -0.4252  0.5620
26878SOL    HW286727   8.769   6.579   0.887  0.7574  0.3104 -0.3576
26879SOL     OW86728  10.166   6.583   4.928 -0.0828 -0.5091 -1.3914
26879SOL    HW186729  10.196   6.577   5.018  1.2298  0.7679 -1.7099
26879SOL    HW286730  10.169   6.676   4.907 -0.3220 -0.7842 -2.7685
26880SOL     OW86731   4.051   1.247   9.110 -0.1202  0.0096  0.3788
26880SOL    HW186732   3.976   1.244   9.051 -0.6224  2.6401  0.7237
26880SOL    HW286733   4.120   1.199   9.064 -2.2760 -3.6196  0.6218
26881SOL     OW86734   7.242   6.453   0.490 -0.6204  0.0664  0.1870
26881SOL    HW186735   7.303   6.380   0.502 -1.9794 -1.1405 -0.0860
26881SOL    HW286736   7.264   6.488   0.404 -0.3927 -0.4298  0.0386
26882SOL     OW86737   4.738   1.764   8.738 -0.5947  0.6718  0.2044
26882SOL    HW186738   4.689   1.685   8.716 -1.0135  0.5390  1.5249
26882SOL    HW286739   4.732   1.818   8.660 -1.5558  0.0128 -0.2004
26883SOL     OW86740   2.611   3.927   5.491 -0.0628 -0.1105 -0.4239
26883SOL    HW186741   2.537   3.976   5.453 -0.0585  0.5107  0.3474
26883SOL    HW286742   2.631   3.973   5.572  1.1758 -0.2862 -0.6127
26884SOL     OW86743   1.688  10.406   6.048  0.6022 -0.4838  0.2850
26884SOL    HW186744   1.718  10.478   5.993  1.4696  0.2721  1.6750
26884SOL    HW286745   1.761  10.344   6.050  1.1805  0.1861  1.6948
26885SOL     OW86746   0.684  10.683   6.397 -0.0560  0.7031  0.1959
26885SOL    HW186747   0.772  10.678   6.435  0.2074 -1.4172 -0.5531
26885SOL    HW286748   0.690  10.749   6.329  1.3962 -0.4453 -0.8436
26886SOL     OW86749   8.401   9.625  10.456  0.2800  0.1350  0.0896
26886SOL    HW186750   8.450   9.550  10.423  0.2532  0.4889 -0.7691
26886SOL    HW286751   8.447   9.702  10.422 -1.5465  0.4811 -1.8074
26887SOL     OW86752   6.953   8.568   6.882 -0.4091  0.0950  0.0809
26887SOL    HW186753   6.890   8.640   6.877 -0.5852 -0.0748 -0.1514
26887SOL    HW286754   6.939   8.518   6.802 -0.8502 -0.6674  0.6260
26888SOL     OW86755   4.515   8.090   6.267 -0.2729  0.0164 -0.2344
26888SOL    HW186756   4.483   8.020   6.324 -1.9828  0.0130 -1.1375
26888SOL    HW286757   4.587   8.050   6.219 -1.6732 -1.4180 -1.2640
26889SOL     OW86758   2.491   0.947   1.410 -0.2325 -0.3339 -0.0291
26889SOL    HW186759   2.565   1.006   1.422 -1.0012  0.2053  2.5240
26889SOL    HW286760   2.425   1.000   1.364 -0.1470  0.1317  0.3853
26890SOL     OW86761   7.358   7.871   9.181 -0.0236 -0.7299 -0.2777
26890SOL    HW186762   7.276   7.873   9.132 -0.0857  0.0392 -0.1415
26890SOL    HW286763   7.416   7.815   9.129 -0.4977 -0.9499 -0.5747
26891SOL     OW86764   8.038   0.713   2.368  0.0600  0.3392 -0.8657
26891SOL    HW186765   7.989   0.766   2.431 -0.1873 -0.9343  0.0617
26891SOL    HW286766   8.097   0.661   2.422  0.0984 -0.5325 -1.7260
26892SOL     OW86767   5.742   9.814   5.067  0.6835  0.0715 -0.0373
26892SOL    HW186768   5.808   9.778   5.008  1.0045  0.3331  0.1631
26892SOL    HW286769   5.792   9.857   5.137  0.3043  0.8266 -0.2235
26893SOL     OW86770   9.361   6.744   5.400  0.2736  0.2648 -0.6484
26893SOL    HW186771   9.371   6.775   5.310  1.2633  0.4383 -0.4839
26893SOL    HW286772   9.436   6.686   5.414 -0.6601 -0.9320 -0.4123
26894SOL     OW86773   7.406   4.583   6.337 -0.2677  0.1310 -0.2870
26894SOL    HW186774   7.496   4.570   6.306  0.8344  1.1633  2.1363
26894SOL    HW286775   7.417   4.619   6.425 -3.0670  1.7374 -0.4768
26895SOL     OW86776   4.299   5.929   8.879  0.4844 -0.0171  0.0590
26895SOL    HW186777   4.230   5.866   8.901  1.2210 -0.4804  1.1095
26895SOL    HW286778   4.359   5.881   8.822 -0.2022  0.4868 -1.1313
26896SOL     OW86779   6.443   4.886   7.769 -0.3828  0.1331 -0.0276
26896SOL    HW186780   6.404   4.800   7.785 -1.0631  0.3208 -0.6484
26896SOL    HW286781   6.535   4.875   7.791 -0.7545 -0.3420  1.3819
26897SOL     OW86782   5.358   1.017   7.700 -0.2665  0.1617  0.6480
26897SOL    HW186783   5.356   0.979   7.613  0.7715 -0.1215  0.7384
26897SOL    HW286784   5.425   1.085   7.696  0.8171 -0.8097  1.5912
26898SOL     OW86785   9.629   7.223   6.887  0.7194  0.5097 -0.6519
26898SOL    HW186786   9.614   7.299   6.832  1.0309 -1.2951 -3.4029
26898SOL    HW286787   9.723   7.207   6.881  0.6909  0.0119  0.0676
26899SOL     OW86788   1.593   0.822   2.810  0.5100 -0.1000 -0.4069
26899SOL    HW186789   1.499   0.837   2.824  0.1068 -0.4619 -2.4663
26899SOL    HW286790   1.604   0.822   2.715  2.5045 -0.7337 -0.2273
26900SOL     OW86791   9.911   0.385   2.894  0.1366 -0.0645 -0.3595
26900SOL    HW186792   9.936   0.446   2.825  0.6880 -0.7523 -0.7775
26900SOL    HW286793   9.815   0.389   2.897  0.0186 -0.8949 -1.9807
26901SOL     OW86794   4.349   9.676   9.824 -0.2009 -0.7938  0.1940
26901SOL    HW186795   4.392   9.688   9.739 -1.4184 -0.2310 -0.3642
26901SOL    HW286796   4.262   9.644   9.802 -0.4066 -1.0052  1.2696
26902SOL     OW86797   3.702   1.433   0.979 -0.2014  0.7067  0.5573
26902SOL    HW186798   3.780   1.474   0.940  1.3820 -1.0129  1.7521
26902SOL    HW286799   3.722   1.426   1.072 -0.4689 -2.4345  0.4802
26903SOL     OW86800   7.737   6.957   1.844 -0.0329 -0.0922  0.6024
26903SOL    HW186801   7.749   6.880   1.788  1.3774  0.3994  0.1986
26903SOL    HW286802   7.659   7.000   1.809  0.5223 -0.0785 -0.6461
26904SOL     OW86803   2.056   1.280   1.308  0.3328 -0.1622  0.3253
26904SOL    HW186804   1.964   1.276   1.333 -0.2806 -0.7064 -1.7609
26904SOL    HW286805   2.066   1.211   1.243  2.5772 -1.0073  1.4555
26905SOL     OW86806  10.014   7.393   9.575  0.4170 -0.1886 -0.4619
26905SOL    HW186807  10.074   7.387   9.501  1.1279  0.2937  0.0628
26905SOL    HW286808  10.063   7.440   9.642 -0.1803 -0.7028  0.3532
26906SOL     OW86809   4.918   9.870   2.555  0.1984 -0.0034 -0.8143
26906SOL    HW186810   4.916   9.945   2.613  1.7810 -0.5496  0.0093
26906SOL    HW286811   4.921   9.794   2.613  0.5099 -0.6208 -1.6036
26907SOL     OW86812   4.988   0.521  10.666 -0.0054  0.0091 -0.0373
26907SOL    HW186813   4.919   0.513  10.731  1.9261  0.0695  2.1872
26907SOL    HW286814   5.022   0.432  10.656  1.7143  0.4193  1.5094
26908SOL     OW86815   0.495   8.392   8.014 -0.3784  0.0878 -0.1330
26908SOL    HW186816   0.578   8.378   7.968 -0.2637  0.8266 -0.1735
26908SOL    HW286817   0.433   8.414   7.945 -0.6763 -0.7126 -0.1291
26909SOL     OW86818   9.953   8.306   7.907 -0.6040  0.3100 -0.0619
26909SOL    HW186819  10.035   8.270   7.940 -0.9955 -0.1987  0.3746
26909SOL    HW286820   9.969   8.400   7.900  0.7938 -0.0018 -2.2085
26910SOL     OW86821   8.807   8.395   9.999 -0.2227  0.2821  0.5188
26910SOL    HW186822   8.875   8.358   9.942 -0.0165  1.4566 -0.0311
26910SOL    HW286823   8.856   8.446  10.064 -0.4926 -0.4833  1.3255
26911SOL     OW86824   9.768   0.441   0.858 -0.3687 -0.2187  0.4688
26911SOL    HW186825   9.796   0.431   0.949  1.4499  1.8490  0.2045
26911SOL    HW286826   9.684   0.485   0.864 -0.6709 -0.8507  1.1416
26912SOL     OW86827   3.708   5.359   0.634 -0.0725  0.2062  0.2681
26912SOL    HW186828   3.641   5.320   0.577 -0.2920  1.9304 -0.7073
26912SOL    HW286829   3.661   5.378   0.716  0.1026 -1.7356  0.8674
26913SOL     OW86830   5.071   8.479   8.384 -0.0031 -0.1476 -0.1806
26913SOL    HW186831   5.078   8.557   8.328 -0.3978 -0.0283 -0.0625
26913SOL    HW286832   5.060   8.407   8.323 -0.8588  0.0314 -0.2471
26914SOL     OW86833   8.058  10.400   1.419 -0.6536  0.2082  0.4037
26914SOL    HW186834   8.106  10.468   1.467  0.6042 -0.0783 -0.4124
26914SOL    HW286835   8.073  10.320   1.469 -0.2587  0.1146  0.1375
26915SOL     OW86836  10.788   3.529   3.652 -0.1600  0.3829  0.7224
26915SOL    HW186837  10.881   3.510   3.645  0.2074  1.2089  2.6743
26915SOL    HW286838  10.760   3.481   3.730 -0.9788  1.5097  1.1411
26916SOL     OW86839   0.640   9.614   6.068 -0.3262  0.4813  1.0577
26916SOL    HW186840   0.570   9.558   6.035  1.7699 -1.5764 -0.2206
26916SOL    HW286841   0.670   9.662   5.990  1.1183 -0.3881  1.0271
26917SOL     OW86842   8.278   7.963   4.544 -0.4177 -0.1294  0.1813
26917SOL    HW186843   8.329   8.030   4.497 -2.2085  2.1434  1.2902
26917SOL    HW286844   8.317   7.880   4.516  2.5874  1.3554 -0.5085
26918SOL     OW86845   9.382   2.381   0.411  0.4432 -0.7765  0.1255
26918SOL    HW186846   9.426   2.440   0.472 -0.4292 -0.9417  0.9467
26918SOL    HW286847   9.314   2.434   0.370 -0.4202 -1.1931  0.9513
26919SOL     OW86848   6.265   5.761   4.456  0.0473 -0.3470 -0.6372
26919SOL    HW186849   6.287   5.836   4.401 -1.7871  0.7648  0.0459
26919SOL    HW286850   6.254   5.689   4.394  1.5495 -0.0244 -1.3329
26920SOL     OW86851   1.952   4.593   9.309  0.3735  0.0583  0.2124
26920SOL    HW186852   1.928   4.552   9.392 -1.0767 -0.7410 -0.5607
26920SOL    HW286853   1.991   4.523   9.258  1.2184  0.5343  0.1898
26921SOL     OW86854   7.832   0.540   2.562  0.1516 -0.0239  0.0256
26921SOL    HW186855   7.927   0.526   2.563 -0.0201 -1.4776 -1.0113
26921SOL    HW286856   7.822   0.634   2.545  1.3907  0.3077  0.9648
26922SOL     OW86857   9.095   2.790   9.055  0.4417  0.0702  0.1787
26922SOL    HW186858   9.073   2.844   8.979  0.0814 -0.6393 -0.2297
26922SOL    HW286859   9.186   2.765   9.040  0.4463  0.1336  0.0981
26923SOL     OW86860   9.205  10.222   5.008  0.4766 -0.4436 -0.3523
26923SOL    HW186861   9.263  10.161   4.964 -0.2366 -0.1136 -1.7960
26923SOL    HW286862   9.224  10.307   4.968  0.5434  0.0625  0.7163
26924SOL     OW86863   3.109   0.881   5.043 -0.2227 -0.2114  0.4901
26924SOL    HW186864   3.087   0.962   5.089  2.1411 -1.0526  3.4018
26924SOL    HW286865   3.164   0.909   4.970  0.1508  0.8892  1.1707
26925SOL     OW86866   1.821   9.953  10.694  0.5009 -0.3961 -0.2007
26925SOL    HW186867   1.865   9.949  10.609 -0.1273 -0.7889 -0.5154
26925SOL    HW286868   1.888   9.925  10.757  0.7065 -0.9894 -0.6696
26926SOL     OW86869   5.376   4.449   1.394  0.1071  0.4382 -0.3331
26926SOL    HW186870   5.387   4.370   1.447  0.4027  1.7335  1.6534
26926SOL    HW286871   5.284   4.472   1.403  0.6444  2.0785  1.8846
26927SOL     OW86872  10.688   6.797   6.541  0.2780 -0.2895 -0.3101
26927SOL    HW186873  10.697   6.764   6.452 -0.0977 -0.9186 -0.1161
26927SOL    HW286874  10.625   6.739   6.583 -0.0179  0.3722  0.1877
26928SOL     OW86875   1.630   7.113   5.150 -0.0702 -0.4273 -0.5521
26928SOL    HW186876   1.589   7.174   5.212  0.2199 -1.8783  1.1673
26928SOL    HW286877   1.575   7.117   5.072 -1.4770  0.2300  0.4330
26929SOL     OW86878   0.021   6.039   7.967  0.0344  0.1286 -0.0396
26929SOL    HW186879   0.111   6.062   7.944 -0.0177 -0.5602 -0.9978
26929SOL    HW286880  -0.007   5.979   7.897 -1.3422  0.7317 -0.0376
26930SOL     OW86881   1.001   0.267   5.723 -0.1265  0.2993 -0.4694
26930SOL    HW186882   0.916   0.299   5.755  0.3658  0.6452  0.5557
26930SOL    HW286883   0.992   0.265   5.628 -1.4984 -0.2897 -0.3451
26931SOL     OW86884   8.319   0.604   7.989  0.1841  0.0240  0.0788
26931SOL    HW186885   8.260   0.534   8.019  0.2616 -0.1930 -0.2630
26931SOL    HW286886   8.398   0.593   8.041 -0.1469  0.4389  0.6779
26932SOL     OW86887   4.707   1.221   7.321 -0.6394 -0.2198  0.2398
26932SOL    HW186888   4.766   1.292   7.295 -0.4309 -1.1944 -2.3495
26932SOL    HW286889   4.762   1.162   7.373  0.5470 -0.6968 -1.4437
26933SOL     OW86890   1.645  10.732   9.790 -0.2724  0.1773 -0.0353
26933SOL    HW186891   1.727  10.716   9.745  0.1744  1.2178  0.3934
26933SOL    HW286892   1.659  10.812   9.840 -1.3140 -0.0092  0.6003
26934SOL     OW86893   1.906   5.495   7.581 -0.2790 -0.6130 -0.0570
26934SOL    HW186894   1.886   5.525   7.493 -0.1969 -0.0745  0.1012
26934SOL    HW286895   1.983   5.547   7.607  0.1209 -1.2572  0.0736
26935SOL     OW86896   3.134   9.949   1.558 -0.2006  0.5656  0.5402
26935SOL    HW186897   3.228   9.945   1.541 -0.5140  2.6183 -2.7428
26935SOL    HW286898   3.122  10.030   1.608 -0.3940  2.9876 -3.0207
26936SOL     OW86899   1.868   0.239   8.892  0.2661 -0.2375  0.2383
26936SOL    HW186900   1.805   0.245   8.963  0.7687  2.8954  0.5637
26936SOL    HW286901   1.817   0.211   8.815 -1.0733  0.2075  0.9460
26937SOL     OW86902   0.270   9.010   7.669 -0.3652  0.0986  0.1648
26937SOL    HW186903   0.354   9.002   7.715 -0.1925 -0.2247 -0.1944
26937SOL    HW286904   0.254   9.104   7.665  0.6647  0.2535 -0.9668
26938SOL     OW86905   2.786   2.473   9.514  0.2720 -0.0511 -0.1376
26938SOL    HW186906   2.777   2.400   9.576  0.1419  0.0586 -0.0255
26938SOL    HW286907   2.706   2.525   9.527  1.0500  0.9584  0.8960
26939SOL     OW86908   5.583   1.156   4.571  0.2003 -0.3565  0.5152
26939SOL    HW186909   5.670   1.193   4.588  0.7366 -1.2287 -0.2680
26939SOL    HW286910   5.599   1.084   4.510 -0.9179 -1.3758  1.3842
26940SOL     OW86911   1.859   6.476   1.832 -0.2518 -0.0348  0.2096
26940SOL    HW186912   1.888   6.536   1.900 -1.8985 -0.4160  1.3002
26940SOL    HW286913   1.764   6.488   1.827 -0.5088 -1.8385 -0.2169
26941SOL     OW86914   3.740   4.915   4.324 -0.4867 -0.2643  0.0569
26941SOL    HW186915   3.692   4.884   4.401 -3.1019 -3.1153 -2.4675
26941SOL    HW286916   3.690   4.990   4.293 -0.6705 -0.4214 -0.0283
26942SOL     OW86917   8.092   6.834   8.464  0.2655 -0.3616  0.0013
26942SOL    HW186918   8.146   6.908   8.436  1.0514 -0.5778  0.8718
26942SOL    HW286919   8.021   6.874   8.515  0.4557 -0.1716  0.1226
26943SOL     OW86920   4.560   8.500   6.062 -0.5453  0.1258  0.4334
26943SOL    HW186921   4.615   8.442   6.115 -0.7978 -0.6882 -0.1735
26943SOL    HW286922   4.622   8.562   6.022 -0.2260  0.0431  0.7975
26944SOL     OW86923   0.348   1.189   1.388  0.2343  0.2056  0.5250
26944SOL    HW186924   0.389   1.158   1.468 -0.2231 -1.3060  0.1944
26944SOL    HW286925   0.420   1.191   1.324 -0.0508 -2.0136  0.0622
26945SOL     OW86926   2.375   6.389   6.739  0.6124  0.3174 -0.0616
26945SOL    HW186927   2.321   6.329   6.688  1.0390 -0.0714 -0.0639
26945SOL    HW286928   2.314   6.456   6.770 -0.0124 -0.5633  0.6389
26946SOL     OW86929   7.565   7.202   0.930  0.5662 -0.0202 -0.3410
26946SOL    HW186930   7.588   7.270   0.867  1.0999  0.2196  0.0973
26946SOL    HW286931   7.470   7.198   0.928  0.6184 -1.1861 -2.3669
26947SOL     OW86932   0.081   7.782   1.992 -0.6236  0.1432  0.1255
26947SOL    HW186933   0.079   7.872   2.026  2.7427 -0.1985  1.5827
26947SOL    HW286934   0.138   7.787   1.915 -1.0474 -0.6305 -0.2474
26948SOL     OW86935   4.514   6.472   9.966 -0.0264  0.1800  0.0136
26948SOL    HW186936   4.594   6.523   9.980 -0.4392  0.3970  1.9361
26948SOL    HW286937   4.443   6.533   9.986 -0.5734 -0.7163  0.9032
26949SOL     OW86938   7.020  10.296   4.289 -0.3320 -0.2699 -0.0076
26949SOL    HW186939   7.047  10.298   4.197  2.7803  0.2131  0.7959
26949SOL    HW286940   7.070  10.223   4.327 -2.0567 -0.8712  1.1914
26950SOL     OW86941   4.663   7.438   7.579 -0.1468 -0.0264  0.4015
26950SOL    HW186942   4.756   7.414   7.571 -0.1913  0.2000 -1.2463
26950SOL    HW286943   4.618   7.373   7.525 -0.8000  0.6502  0.1208
26951SOL     OW86944   8.030   7.546   2.270 -0.0204  0.1036  0.6733
26951SOL    HW186945   7.997   7.464   2.234 -2.1258  0.0756  2.4647
26951SOL    HW286946   7.967   7.612   2.242  0.8472  0.8851  0.4876
26952SOL     OW86947   7.044   2.892   5.649 -0.1709 -0.3170 -0.0041
26952SOL    HW186948   7.127   2.858   5.614  0.0006  0.6817 -0.6184
26952SOL    HW286949   7.026   2.837   5.725  1.8682  0.3904  1.0969
26953SOL     OW86950   6.502   0.603   4.876  0.4486 -0.1870  0.4311
26953SOL    HW186951   6.533   0.693   4.882 -1.5760  0.5382  0.8513
26953SOL    HW286952   6.557   0.562   4.809  0.7817  1.6317 -0.4469
26954SOL     OW86953   0.143   3.338   3.470 -0.1498  0.6454 -0.1383
26954SOL    HW186954   0.146   3.328   3.375  2.2302  0.4460 -0.1160
26954SOL    HW286955   0.068   3.286   3.498 -0.1854 -0.2689 -1.8047
26955SOL     OW86956   7.054   3.174   5.729  0.3281  0.3684  0.3034
26955SOL    HW186957   6.969   3.176   5.772 -0.1487  0.0438 -0.6005
26955SOL    HW286958   7.071   3.081   5.712  0.8242  0.4348  0.4044
26956SOL     OW86959   4.625   2.154   6.376  0.3924  0.3434  0.2994
26956SOL    HW186960   4.644   2.070   6.333 -1.4845  0.7777 -1.5157
26956SOL    HW286961   4.611   2.215   6.305 -1.5719  1.4251  1.5191
26957SOL     OW86962   1.751   4.667   9.147 -0.3336 -0.3572  0.4644
26957SOL    HW186963   1.706   4.752   9.144  0.6297  0.1762  0.8186
26957SOL    HW286964   1.811   4.674   9.221  0.6281 -0.9114 -0.2364
26958SOL     OW86965   7.135   2.897   9.382 -0.1010 -0.2025 -0.3843
26958SOL    HW186966   7.068   2.828   9.377 -1.9432  1.5640 -1.2013
26958SOL    HW286967   7.143   2.915   9.476  1.0745 -2.0915 -0.0733
26959SOL     OW86968   6.830   6.095   2.897  0.1581 -0.2278  0.2035
26959SOL    HW186969   6.811   6.069   2.807 -2.0618 -0.7607  0.7758
26959SOL    HW286970   6.893   6.029   2.928  0.5767 -0.3158 -0.7830
26960SOL     OW86971   0.351  10.683   3.658 -0.5190  0.1020  0.5101
26960SOL    HW186972   0.299  10.607   3.684  0.7962 -1.2525 -0.6362
26960SOL    HW286973   0.401  10.653   3.582  0.2332  2.0501  0.1848
26961SOL     OW86974   6.575   5.981   4.448 -0.3168 -0.2043  0.1846
26961SOL    HW186975   6.496   6.018   4.488  0.9636  1.5549  1.2271
26961SOL    HW286976   6.595   5.905   4.503 -1.6032 -1.0812 -0.4918
26962SOL     OW86977   5.911  10.683   3.839  0.0527 -0.0808  0.5957
26962SOL    HW186978   5.851  10.709   3.909  0.2349 -1.0577  1.1422
26962SOL    HW286979   5.981  10.635   3.885  1.0344  0.6743 -0.0696
26963SOL     OW86980   4.653   0.550   4.463  0.3268  0.6018 -0.0270
26963SOL    HW186981   4.567   0.566   4.502 -0.3739  2.9798 -2.2467
26963SOL    HW286982   4.714   0.551   4.537 -1.3358  0.8371  1.3958
26964SOL     OW86983   2.291   9.957   4.101  0.3540 -0.0492 -0.3622
26964SOL    HW186984   2.200   9.975   4.123  0.3011 -1.4673  0.6961
26964SOL    HW286985   2.288   9.930   4.009 -0.4305 -0.8450 -0.1221
26965SOL     OW86986   7.820   8.529   5.927  0.0135 -0.2723 -1.2929
26965SOL    HW186987   7.904   8.564   5.956  0.5398 -1.8988 -0.7208
26965SOL    HW286988   7.798   8.462   5.993 -0.6894 -1.3266 -2.5577
26966SOL     OW86989   9.916   2.970   3.135  0.6569 -0.4107  0.3525
26966SOL    HW186990   9.985   3.013   3.186  0.5690  0.5923 -0.3443
26966SOL    HW286991   9.946   2.975   3.044 -0.1602 -0.2798  0.0810
26967SOL     OW86992   7.731   9.285   9.775 -0.4363 -0.1496 -0.5809
26967SOL    HW186993   7.687   9.323   9.851 -1.4517  3.0284 -2.5437
26967SOL    HW286994   7.747   9.193   9.799 -1.3884  0.5022  3.0769
26968SOL     OW86995   5.085   8.095   0.336 -0.5317  0.1340  0.5836
26968SOL    HW186996   5.089   8.184   0.370 -0.9688  0.1542  0.5794
26968SOL    HW286997   5.116   8.103   0.245  1.7600 -0.0995  1.2703
26969SOL     OW86998   4.897  10.785   5.481 -0.1912 -0.2003 -0.0476
26969SOL    HW186999   4.927  10.764   5.569 -0.0239 -0.6070 -0.1988
26969SOL    HW287000   4.957  10.738   5.423 -0.3071  0.0549 -0.3773
26970SOL     OW87001   4.858   1.102  10.730  0.1392  0.1620  0.5297
26970SOL    HW187002   4.864   1.138  10.819 -1.0146  2.5396 -0.2567
26970SOL    HW287003   4.768   1.120  10.703  0.8400  0.7751 -1.6068
26971SOL     OW87004   0.032   1.219   9.413  0.2055 -0.4896  0.2995
26971SOL    HW187005  -0.008   1.149   9.465  0.7370 -1.0279 -0.0045
26971SOL    HW287006   0.065   1.175   9.335  0.2221  0.1655 -0.0745
26972SOL     OW87007   0.210   2.790   2.940  0.1679  0.2863  0.0579
26972SOL    HW187008   0.189   2.701   2.969 -1.2379  0.6647  0.2485
26972SOL    HW287009   0.133   2.817   2.889  0.7056  1.2917 -0.2352
26973SOL     OW87010   9.557   9.242   1.641 -0.2053  0.2172 -0.2792
26973SOL    HW187011   9.515   9.190   1.709 -0.7753  2.1541  0.9373
26973SOL    HW287012   9.486   9.293   1.603  0.8324  3.5462  1.7999
26974SOL     OW87013   1.233   5.160   6.010 -0.4557 -0.4079 -0.0813
26974SOL    HW187014   1.167   5.230   6.008 -1.1296 -1.0340 -1.8771
26974SOL    HW287015   1.211   5.109   6.088 -2.2158 -0.6864 -0.7126
26975SOL     OW87016  10.903   1.612   1.309 -0.0549 -0.4300 -0.0036
26975SOL    HW187017  10.989   1.569   1.316  0.9998  0.9832 -2.7538
26975SOL    HW287018  10.885   1.614   1.215 -1.9181  1.5755  0.3290
26976SOL     OW87019   8.680   1.811   2.013 -0.1834  0.4706  0.0090
26976SOL    HW187020   8.735   1.745   1.971  0.2731  1.1475 -0.4785
26976SOL    HW287021   8.721   1.827   2.098 -2.0018 -2.0835  1.5213
26977SOL     OW87022   5.794   7.864   3.176 -0.5563 -0.3172 -0.4414
26977SOL    HW187023   5.877   7.816   3.176  0.4576  1.3591 -0.0590
26977SOL    HW287024   5.742   7.823   3.107 -0.2964 -2.8176  0.7249
26978SOL     OW87025   1.100   3.209   4.755  0.4876  0.0879 -0.0054
26978SOL    HW187026   1.062   3.143   4.697 -0.0356 -0.6076  1.1049
26978SOL    HW287027   1.193   3.211   4.731  0.0202  0.9793 -1.9493
26979SOL     OW87028   0.244   6.383   5.894  0.6590 -0.0573  0.6803
26979SOL    HW187029   0.263   6.348   5.807  0.3600 -0.7040  0.8667
26979SOL    HW287030   0.201   6.311   5.940 -1.6776  1.1023  0.4823
26980SOL     OW87031   2.934   5.730   6.888  0.1035  0.2012 -0.2710
26980SOL    HW187032   2.865   5.702   6.949 -1.7871  1.8992 -1.5016
26980SOL    HW287033   3.003   5.764   6.945 -0.1144 -1.3042  1.0005
26981SOL     OW87034   2.353   4.362   5.576 -0.2629 -0.1022 -0.4677
26981SOL    HW187035   2.282   4.308   5.610 -0.3639  0.1226 -0.3153
26981SOL    HW287036   2.422   4.300   5.552 -0.2587 -0.2797 -0.0053
26982SOL     OW87037   4.557   4.376   9.999 -0.8049 -0.3850  0.5117
26982SOL    HW187038   4.570   4.468   9.978 -1.4245 -0.4709 -0.2608
26982SOL    HW287039   4.490   4.346   9.939 -1.4141 -1.0662  1.4954
26983SOL     OW87040   2.773   1.999   8.837  0.5188  0.0053  0.0844
26983SOL    HW187041   2.762   2.034   8.748  1.3676  1.8194  0.6571
26983SOL    HW287042   2.696   2.029   8.884 -0.2804 -1.5378 -0.1610
26984SOL     OW87043   3.314   2.798   5.293 -0.1909 -0.3688 -0.4439
26984SOL    HW187044   3.249   2.858   5.330  1.5967  1.3624  0.0062
26984SOL    HW287045   3.264   2.747   5.229 -2.5017 -0.7651  1.5273
26985SOL     OW87046  10.411   8.501   3.168 -0.3325  0.2673 -0.0207
26985SOL    HW187047  10.416   8.473   3.076  0.0771  0.5933 -0.1047
26985SOL    HW287048  10.363   8.431   3.212  0.9133 -0.7097 -0.1564
26986SOL     OW87049   6.621   0.324  10.568  0.3528 -0.3121 -0.3245
26986SOL    HW187050   6.706   0.345  10.530  0.1010 -0.0902 -0.7822
26986SOL    HW287051   6.580   0.410  10.583  1.2205 -0.2911  2.3142
26987SOL     OW87052   0.336   4.256  10.557  0.1730  0.4860 -0.0001
26987SOL    HW187053   0.431   4.260  10.560  0.5004 -3.2321  3.0134
26987SOL    HW287054   0.317   4.179  10.503 -1.0121  0.4648  0.4055
26988SOL     OW87055   1.382   8.264  10.831  0.1975  0.5086  0.1191
26988SOL    HW187056   1.438   8.206  10.883  0.5896 -0.8994 -1.7377
26988SOL    HW287057   1.351   8.209  10.759 -1.5171  1.9644 -0.3284
26989SOL     OW87058   8.567   6.543   7.678  0.0904 -0.0556 -0.1269
26989SOL    HW187059   8.496   6.498   7.632  0.5453  0.0001 -0.8991
26989SOL    HW287060   8.530   6.562   7.764 -0.2412 -1.5492  0.0927
26990SOL     OW87061   4.809   5.381   9.374  0.1962  0.2488  0.3469
26990SOL    HW187062   4.736   5.321   9.387  0.6531 -0.4104 -0.0686
26990SOL    HW287063   4.877   5.350   9.435  0.2075  0.7364  0.5908
26991SOL     OW87064   8.189   9.482   8.872 -0.2821 -0.5069 -0.4584
26991SOL    HW187065   8.125   9.522   8.813  0.5383 -0.5366 -1.3885
26991SOL    HW287066   8.176   9.388   8.861  0.3854 -0.5148 -1.1577
26992SOL     OW87067   3.983   6.849   5.616  0.6398  0.0277 -0.2762
26992SOL    HW187068   3.906   6.888   5.576  0.4634  0.5459  0.5412
26992SOL    HW287069   4.053   6.860   5.552  0.9803  3.0760  0.4717
26993SOL     OW87070   9.478   7.228   0.850 -0.2794 -0.0987  0.3746
26993SOL    HW187071   9.479   7.225   0.945 -0.6075 -0.9418  0.3662
26993SOL    HW287072   9.533   7.153   0.823  0.2139  0.4237 -0.0991
26994SOL     OW87073   6.087   6.539   3.973  0.8304  0.8274 -0.1762
26994SOL    HW187074   6.064   6.459   4.020  2.2131  1.5600  1.8518
26994SOL    HW287075   6.107   6.509   3.884  0.8559 -0.9939  0.3945
26995SOL     OW87076   0.201   3.110  10.254  0.0844 -0.3484  0.6866
26995SOL    HW187077   0.146   3.126  10.177 -0.0231  0.1224  0.8559
26995SOL    HW287078   0.281   3.159  10.237  0.2125 -0.5530  0.7033
26996SOL     OW87079  10.559   7.028   8.954 -0.2599  0.2823  0.3624
26996SOL    HW187080  10.637   6.976   8.936  0.8477  1.4569  1.5213
26996SOL    HW287081  10.551   7.085   8.878  0.1291  0.2779  0.3161
26997SOL     OW87082  10.310   5.416   8.584 -0.2918  0.0933  0.3844
26997SOL    HW187083  10.332   5.412   8.491 -2.4551 -1.3607 -0.1387
26997SOL    HW287084  10.216   5.435   8.585 -0.7681 -2.0408  2.1866
26998SOL     OW87085   8.480   2.618   3.372 -0.1785  0.1304 -0.1237
26998SOL    HW187086   8.392   2.584   3.357 -0.7048  1.3164  0.1251
26998SOL    HW287087   8.531   2.586   3.298 -0.7702 -0.6965 -0.1957
26999SOL     OW87088   5.786   9.530   1.935 -0.0624 -0.0382 -0.4382
26999SOL    HW187089   5.744   9.483   2.007  2.2852 -0.8436  0.4916
26999SOL    HW287090   5.742   9.498   1.856 -3.2058  1.4109  0.5442
27000SOL     OW87091   1.366   1.885   7.910 -0.6278 -0.2634 -0.3791
27000SOL    HW187092   1.443   1.904   7.964 -1.7456  0.3281  1.1002
27000SOL    HW287093   1.331   1.972   7.888 -0.7035 -0.5236 -1.2847
27001SOL     OW87094   9.293   3.632   1.652  0.5829  0.1634  0.3275
27001SOL    HW187095   9.200   3.618   1.673  0.2904  3.5687  2.0630
27001SOL    HW287096   9.340   3.582   1.718 -0.0903  0.3239  0.9455
27002SOL     OW87097   4.831   6.233  10.563 -0.3307  0.2734 -0.1951
27002SOL    HW187098   4.838   6.150  10.516 -1.5454 -0.2678  0.5478
27002SOL    HW287099   4.758   6.221  10.623  1.2547  0.8839  1.9749
27003SOL     OW87100   1.547   7.240   8.771  0.0412 -0.5407  0.6156
27003SOL    HW187101   1.485   7.211   8.704 -0.8634  0.5793  0.9270
27003SOL    HW287102   1.604   7.302   8.726  0.6329 -1.1894  0.4521
27004SOL     OW87103   2.036   9.608   6.171  0.0926 -0.1911 -0.6341
27004SOL    HW187104   1.971   9.574   6.232  0.1689  0.3221 -0.2566
27004SOL    HW287105   1.986   9.624   6.090 -1.0539  3.1395  0.5342
27005SOL     OW87106   1.349   2.556   5.139 -0.0209 -0.0671 -0.5867
27005SOL    HW187107   1.314   2.587   5.055  2.1439  0.2586 -1.4387
27005SOL    HW287108   1.333   2.627   5.200 -2.3368 -0.6254 -0.4814
27006SOL     OW87109   4.516   3.643   0.600 -0.8117 -0.2326  0.0192
27006SOL    HW187110   4.494   3.644   0.507 -0.6150  0.1492 -0.0291
27006SOL    HW287111   4.434   3.624   0.645 -0.4508 -2.9674 -0.3365
27007SOL     OW87112   9.363   9.421   5.011  0.4139  0.2096 -0.1325
27007SOL    HW187113   9.315   9.460   5.084  0.3495 -0.8950  0.4489
27007SOL    HW287114   9.344   9.327   5.018  1.1819 -0.0261 -0.9997
27008SOL     OW87115   3.941   9.661   1.450 -0.3555  0.6769  0.9154
27008SOL    HW187116   3.898   9.743   1.424 -0.9080  0.1738  0.2042
27008SOL    HW287117   4.012   9.651   1.387 -0.9809  0.0518  0.2805
27009SOL     OW87118   2.717   7.457   5.374 -0.2333  0.0529  0.4663
27009SOL    HW187119   2.625   7.434   5.378 -0.3746  0.5791  0.3121
27009SOL    HW287120   2.739   7.452   5.281 -0.4834  1.3248  0.3103
27010SOL     OW87121   6.158  10.764   9.316 -0.0505 -0.4360  0.2215
27010SOL    HW187122   6.083  10.766   9.376  0.4501 -0.1513  0.8571
27010SOL    HW287123   6.124  10.722   9.237 -1.1096  0.4181  0.1881
27011SOL     OW87124   0.398   0.448   0.313  0.2748  0.1217  0.2042
27011SOL    HW187125   0.481   0.421   0.273 -0.8594 -2.1323 -0.8531
27011SOL    HW287126   0.395   0.399   0.395  0.5049  1.1540  0.8469
27012SOL     OW87127   2.900   1.163   6.229  0.9658 -0.0151 -0.3418
27012SOL    HW187128   2.916   1.070   6.210 -0.5242 -0.3916  0.0849
27012SOL    HW287129   2.954   1.210   6.166  1.1040 -1.1805 -1.1334
27013SOL     OW87130   8.429   2.788   1.207  0.2929 -0.1059  0.2292
27013SOL    HW187131   8.386   2.717   1.256  2.4513 -0.6658  1.4053
27013SOL    HW287132   8.467   2.745   1.131  2.9196 -0.5954  1.7206
27014SOL     OW87133   8.343   4.782   7.075  0.1055 -0.0076 -0.4952
27014SOL    HW187134   8.422   4.730   7.063  0.6391  0.2892  1.4610
27014SOL    HW287135   8.367   4.849   7.139 -1.4411  0.7333 -0.6357
27015SOL     OW87136   6.690   3.293   7.500 -0.2424  0.5058  0.3208
27015SOL    HW187137   6.636   3.366   7.530  0.9378  1.1286  0.9943
27015SOL    HW287138   6.771   3.300   7.550  0.7390 -0.0266 -1.1156
27016SOL     OW87139   3.515   9.695   5.561 -0.2383 -0.1142  0.6037
27016SOL    HW187140   3.596   9.722   5.517 -0.3208 -1.6737 -0.5799
27016SOL    HW287141   3.450   9.761   5.535 -0.9378 -2.1706 -3.7871
27017SOL     OW87142   2.597   7.758  10.270 -0.4841  0.1875 -0.3061
27017SOL    HW187143   2.649   7.835  10.294  0.3889 -0.4237 -0.1895
27017SOL    HW287144   2.509   7.778  10.303  0.1050  0.4515  1.1980
27018SOL     OW87145  10.155   4.675   8.809 -0.5854 -0.2203  0.1947
27018SOL    HW187146  10.064   4.653   8.787 -0.8381 -1.5069  2.2638
27018SOL    HW287147  10.184   4.602   8.863  2.1821 -0.5451 -1.5242
27019SOL     OW87148   1.260   7.169   4.689  0.0597  0.6673  0.9631
27019SOL    HW187149   1.349   7.134   4.680 -0.2938 -0.2822  1.0231
27019SOL    HW287150   1.272   7.260   4.715  1.0214  0.8211  0.0081
27020SOL     OW87151   5.281   7.695   2.691 -0.0585 -0.7354 -0.2843
27020SOL    HW187152   5.332   7.631   2.641 -0.1790 -0.9734 -0.1045
27020SOL    HW287153   5.284   7.662   2.781  1.5909  0.5748  0.1831
27021SOL     OW87154   2.735   2.226   3.009  0.2771 -0.7196 -0.0651
27021SOL    HW187155   2.761   2.305   2.961 -0.2308 -0.1738  0.5353
27021SOL    HW287156   2.717   2.161   2.941 -1.6031  0.3811 -0.7019
27022SOL     OW87157  10.358   2.943   3.164 -0.3654 -0.4207 -0.5423
27022SOL    HW187158  10.440   2.975   3.203 -1.0066  0.9176 -0.2273
27022SOL    HW287159  10.294   3.011   3.184 -1.2847 -0.8578 -1.8439
27023SOL     OW87160   7.856   6.059   6.128 -0.2730 -0.1289  1.1640
27023SOL    HW187161   7.791   6.042   6.060 -0.5149  0.9284  1.1121
27023SOL    HW287162   7.939   6.027   6.091 -0.5131 -0.1506  0.6381
27024SOL     OW87163   6.375   4.099   4.486  0.0350  0.1510 -0.4154
27024SOL    HW187164   6.372   4.017   4.535 -3.7159 -1.2479 -2.5108
27024SOL    HW287165   6.325   4.160   4.539  0.5139  0.2475 -0.0779
27025SOL     OW87166   1.338   1.825   0.907 -0.1002  0.6948  0.2905
27025SOL    HW187167   1.345   1.851   0.815 -2.5308  2.2666  0.4625
27025SOL    HW287168   1.340   1.730   0.905  0.4863  0.7019 -1.3140
27026SOL     OW87169  10.612   9.461   2.158  0.1982  0.2223  0.5372
27026SOL    HW187170  10.580   9.463   2.068  0.6909 -0.8565  0.3319
27026SOL    HW287171  10.706   9.447   2.150  0.5729  2.0076  1.1778
27027SOL     OW87172   0.063   7.858   7.278  0.3845  0.0484 -0.4612
27027SOL    HW187173   0.025   7.849   7.365 -3.3020 -0.7267 -1.9866
27027SOL    HW287174   0.022   7.937   7.242 -0.3433 -1.1516 -2.4248
27028SOL     OW87175   0.063   6.824   7.166  0.1727  0.2620  0.2688
27028SOL    HW187176  -0.032   6.838   7.171  0.2538  0.5044  1.2344
27028SOL    HW287177   0.074   6.767   7.089 -1.1732 -3.2195  2.3959
27029SOL     OW87178   1.255   6.038   9.937  0.3291  0.5414  0.7523
27029SOL    HW187179   1.258   6.075   9.849  0.5681  0.0026  0.5252
27029SOL    HW287180   1.180   6.079   9.978  0.1507  0.7196  0.2584
27030SOL     OW87181   5.726   0.980   3.270  0.0530 -0.1312 -0.2662
27030SOL    HW187182   5.761   0.998   3.183  0.5348  0.2477 -0.0040
27030SOL    HW287183   5.692   0.891   3.264  1.5435 -0.7275 -0.4066
27031SOL     OW87184   0.842   1.855   3.313  0.8561 -0.4774  0.1729
27031SOL    HW187185   0.904   1.785   3.293  2.4371  0.8912 -0.0239
27031SOL    HW287186   0.791   1.866   3.233  2.3555  0.2681 -0.7285
27032SOL     OW87187   1.800   3.178   9.959  0.1761 -0.1464  0.3832
27032SOL    HW187188   1.750   3.115   9.907 -1.4649 -0.1372  1.8487
27032SOL    HW287189   1.771   3.264   9.926 -0.7314 -0.1436  1.1231
27033SOL     OW87190   5.292   6.950   2.022 -0.4627  0.1835  0.3182
27033SOL    HW187191   5.317   6.970   2.112  0.0681  0.3614  0.1387
27033SOL    HW287192   5.235   6.874   2.029 -0.8642  0.5264  0.8488
27034SOL     OW87193   7.149   9.025   7.813 -0.2827 -0.2679  0.5915
27034SOL    HW187194   7.115   8.937   7.828  1.5717 -1.1325 -0.0264
27034SOL    HW287195   7.198   9.018   7.732 -0.3428  1.4313  0.3783
27035SOL     OW87196   5.585   6.520   7.719  0.3964 -0.2461  0.6805
27035SOL    HW187197   5.489   6.519   7.716  0.3661 -1.1958  1.3799
27035SOL    HW287198   5.610   6.429   7.707  1.1436 -0.2283  1.9436
27036SOL     OW87199   6.547   9.044   3.114  1.0021  0.4287  0.6177
27036SOL    HW187200   6.571   8.958   3.080 -0.7326  0.0674  0.2423
27036SOL    HW287201   6.609   9.060   3.185  0.1721 -1.9818  1.9610
27037SOL     OW87202  10.172   1.362   1.761  0.5502 -0.4317  0.1783
27037SOL    HW187203  10.222   1.351   1.842  0.8611 -1.3542 -0.1252
27037SOL    HW287204  10.156   1.273   1.730 -1.5040 -0.1788  0.3742
27038SOL     OW87205   5.870   5.401   9.521 -0.0046  0.4690 -0.0521
27038SOL    HW187206   5.820   5.415   9.602  1.4888  0.8029  0.8586
27038SOL    HW287207   5.852   5.311   9.496  1.2662 -0.3982  1.9532
27039SOL     OW87208   6.605   2.282   2.507  0.0591  0.2359  0.0378
27039SOL    HW187209   6.685   2.289   2.559  0.2721  0.7234 -0.3460
27039SOL    HW287210   6.535   2.305   2.567  0.2585  0.3398  0.2334
27040SOL     OW87211   9.986   8.773   4.985 -0.4811  0.8372  0.0969
27040SOL    HW187212  10.062   8.788   4.929  1.2245 -3.0121  1.0226
27040SOL    HW287213   9.996   8.835   5.057  1.9271  0.3918  0.2302
27041SOL     OW87214   1.364   2.324   7.236  0.0642  0.2568 -0.0752
27041SOL    HW187215   1.332   2.404   7.279  1.7653 -0.3637  2.5826
27041SOL    HW287216   1.321   2.253   7.283  0.0159 -0.4644 -1.1719
27042SOL     OW87217   9.091  10.036   9.215 -0.3463  0.3011 -0.1327
27042SOL    HW187218   9.168   9.980   9.206 -0.9898 -0.4735 -0.9632
27042SOL    HW287219   9.078  10.073   9.128 -0.2680  1.3176  0.2724
27043SOL     OW87220   9.448   4.885   0.351  0.7307  0.2233 -0.1572
27043SOL    HW187221   9.478   4.949   0.415  2.3254  0.0368 -0.6840
27043SOL    HW287222   9.430   4.806   0.402  1.9713  0.0836  0.0906
27044SOL     OW87223   3.936   2.715   5.379 -0.0746  0.2026 -0.2849
27044SOL    HW187224   3.906   2.677   5.461  1.7724 -1.3335 -0.2833
27044SOL    HW287225   3.885   2.670   5.311  0.1529 -0.2946 -0.1238
27045SOL     OW87226   9.131   5.740   5.259  0.6470 -0.1488  0.7625
27045SOL    HW187227   9.089   5.820   5.291 -1.7573 -1.0355  0.0777
27045SOL    HW287228   9.206   5.728   5.317  2.1329  3.4221 -0.1162
27046SOL     OW87229   9.999   3.435   3.080  0.2060 -0.4366  0.1673
27046SOL    HW187230  10.030   3.346   3.062  0.6254 -0.1246 -0.7412
27046SOL    HW287231  10.079   3.484   3.100  0.2741  0.2253 -1.5411
27047SOL     OW87232   7.821   1.331   5.707 -0.1794  0.2432  0.5768
27047SOL    HW187233   7.889   1.275   5.670  0.8755  1.3140  0.8194
27047SOL    HW287234   7.748   1.324   5.645  0.0434 -1.1267  0.4447
27048SOL     OW87235   3.230   5.041   4.189  0.0015 -0.0032 -0.8067
27048SOL    HW187236   3.296   5.033   4.120  2.7149  1.8118  1.3416
27048SOL    HW287237   3.268   5.104   4.251 -2.8777 -0.4554  1.6468
27049SOL     OW87238   5.095   9.620   4.110  0.5165 -0.3643 -0.6077
27049SOL    HW187239   5.118   9.552   4.175  0.1091  0.8201  0.8324
27049SOL    HW287240   5.000   9.623   4.112  0.5411  1.8760  1.1825
27050SOL     OW87241   8.018   1.002   9.415  0.3916  0.5614 -0.2318
27050SOL    HW187242   7.939   1.055   9.401  1.8056  3.3849  1.4111
27050SOL    HW287243   8.072   1.019   9.338  0.0569 -0.0932 -0.6157
27051SOL     OW87244   2.996   2.980   1.961 -0.1360 -0.0714  0.2136
27051SOL    HW187245   2.923   2.934   2.001 -0.1937  0.3583  0.6195
27051SOL    HW287246   3.050   3.008   2.036  1.4595 -2.0100 -0.1241
27052SOL     OW87247   6.608   3.489   2.678  0.1684  0.1328 -0.6787
27052SOL    HW187248   6.677   3.424   2.669 -1.6579 -2.2930  1.3264
27052SOL    HW287249   6.620   3.525   2.766 -0.7759  0.0783 -0.5141
27053SOL     OW87250   7.045   5.146   9.872  0.2954  0.0737 -0.1464
27053SOL    HW187251   7.137   5.143   9.846  0.0409 -0.3337 -1.0159
27053SOL    HW287252   7.034   5.072   9.931  0.3461 -0.3270 -0.6387
27054SOL     OW87253   5.618   0.417   3.344  0.3550  0.3961  0.9098
27054SOL    HW187254   5.604   0.370   3.426 -2.0478  1.8069  1.4268
27054SOL    HW287255   5.613   0.350   3.276 -0.3021 -0.4573  1.7786
27055SOL     OW87256   7.792   8.537   8.101 -0.2517  0.0853  0.7660
27055SOL    HW187257   7.812   8.462   8.044  0.7056  1.8480 -1.3582
27055SOL    HW287258   7.696   8.538   8.106 -0.3567 -0.3059 -0.6147
27056SOL     OW87259   8.922   7.833   5.428  0.3958  0.2036  0.5613
27056SOL    HW187260   8.941   7.924   5.449  0.5421  0.1779  0.5434
27056SOL    HW287261   8.950   7.823   5.337 -1.0454  0.5481  0.0504
27057SOL     OW87262   0.133   7.590   9.047  0.3931 -1.0362 -0.2999
27057SOL    HW187263   0.170   7.665   9.002  2.3636 -1.8880 -0.1983
27057SOL    HW287264   0.105   7.531   8.977 -1.5378 -0.1103 -0.3880
27058SOL     OW87265   2.091   5.142   8.069 -0.0708  0.4371 -0.5609
27058SOL    HW187266   1.999   5.133   8.044 -0.8303  1.8986  1.4304
27058SOL    HW287267   2.122   5.218   8.020 -0.3307  0.7635 -0.2221
27059SOL     OW87268   1.975   5.787   0.929  0.3090  0.0743  0.4066
27059SOL    HW187269   1.912   5.734   0.978  0.2981  1.3903  1.8804
27059SOL    HW287270   1.928   5.869   0.911  1.7363  1.2998  2.0085
27060SOL     OW87271   2.473   0.012   3.412 -0.6423 -0.1105 -0.3989
27060SOL    HW187272   2.418  -0.003   3.489 -1.6666 -0.5661 -1.1963
27060SOL    HW287273   2.439  -0.048   3.346 -0.2156  0.7356 -1.4168
27061SOL     OW87274   0.751   9.780   5.643 -0.3749 -0.0193  0.2395
27061SOL    HW187275   0.751   9.820   5.730 -0.0371  0.0695  0.1991
27061SOL    HW287276   0.669   9.809   5.603  0.1568  1.1733 -0.0340
27062SOL     OW87277   4.826   5.592   8.852 -0.2628  0.4078 -0.7484
27062SOL    HW187278   4.781   5.525   8.903 -0.8545 -0.0995 -1.8952
27062SOL    HW287279   4.795   5.578   8.762  0.0073  1.8869 -1.0907
27063SOL     OW87280   4.049   5.224   7.705 -0.1827 -0.3257  1.0573
27063SOL    HW187281   4.046   5.320   7.708 -0.7671 -0.2843 -0.3684
27063SOL    HW287282   3.982   5.199   7.641  0.9459 -1.6136  0.3197
27064SOL     OW87283   1.323   4.554   7.765  0.4252  0.3690 -0.0606
27064SOL    HW187284   1.367   4.480   7.722  0.6071 -0.1338  0.9642
27064SOL    HW287285   1.359   4.555   7.854 -0.7900  0.6611  0.4477
27065SOL     OW87286   3.308   7.403   2.380 -0.1214 -0.0734 -0.1917
27065SOL    HW187287   3.386   7.457   2.369  0.6563 -1.0451  0.3958
27065SOL    HW287288   3.332   7.318   2.343 -0.4756 -0.7461  1.0550
27066SOL     OW87289   8.311   3.295   8.521  0.0810  0.0396  0.3396
27066SOL    HW187290   8.404   3.271   8.514  0.1152  0.4515 -0.6570
27066SOL    HW287291   8.264   3.214   8.500  0.2127  0.0641 -0.0558
27067SOL     OW87292   4.550   8.568  10.833  0.3451 -0.3202 -0.6105
27067SOL    HW187293   4.547   8.473  10.824 -0.0182 -0.2120 -1.7813
27067SOL    HW287294   4.611   8.597  10.765  0.1489  0.3076 -0.5303
27068SOL     OW87295   5.475   9.054   3.255  0.1476 -0.2233 -0.1395
27068SOL    HW187296   5.400   9.061   3.314  0.2820 -0.4248  0.0548
27068SOL    HW287297   5.544   9.106   3.297  0.4079 -0.7886  0.1422
27069SOL     OW87298   9.229   2.150   8.696  0.1201 -0.1117  0.1613
27069SOL    HW187299   9.190   2.103   8.769 -1.2587  1.4492  0.5052
27069SOL    HW287300   9.171   2.132   8.622  0.2719  0.0591 -0.0020
27070SOL     OW87301  10.060   2.310   9.073  0.0735  0.2280 -0.4836
27070SOL    HW187302  10.074   2.384   9.132  1.3328  0.0138 -0.5008
27070SOL    HW287303  10.139   2.306   9.020 -1.0969  0.5341 -2.3606
27071SOL     OW87304   5.258   6.668   4.462  0.5878  0.6868 -0.4549
27071SOL    HW187305   5.279   6.704   4.548 -3.3698  0.2771  0.8840
27071SOL    HW287306   5.245   6.575   4.478 -1.2475  0.7758 -1.1882
27072SOL     OW87307   1.089   8.194  10.893  0.4348  0.5003 -0.8854
27072SOL    HW187308   1.042   8.276  10.876  1.0453  0.9248 -0.5652
27072SOL    HW287309   1.175   8.222  10.925  0.6356 -0.2678 -0.7376
27073SOL     OW87310   2.591   6.980  10.773  0.5030 -0.3641 -0.4894
27073SOL    HW187311   2.636   7.006  10.853  0.6795 -1.9728 -0.0373
27073SOL    HW287312   2.509   6.941  10.802 -0.7527  1.5765 -1.2661
27074SOL     OW87313   9.355   6.444   7.372  0.4388 -0.3910  0.2822
27074SOL    HW187314   9.445   6.424   7.348  0.4434  1.6552 -1.6705
27074SOL    HW287315   9.302   6.410   7.300 -0.1530  0.3861  0.3363
27075SOL     OW87316  10.742   8.206   6.687 -0.2956 -0.1393 -0.0652
27075SOL    HW187317  10.676   8.177   6.750  0.1966 -0.0684  0.4830
27075SOL    HW287318  10.776   8.288   6.723 -0.7008  0.4217 -0.9153
27076SOL     OW87319   0.752   9.616   3.837  0.5593 -0.0934 -0.5517
27076SOL    HW187320   0.840   9.639   3.806  0.1047 -1.5034 -3.1772
27076SOL    HW287321   0.704   9.698   3.834  1.5831  0.5727  0.3168
27077SOL     OW87322  10.853   2.447   4.176  0.4978 -0.4942 -0.5405
27077SOL    HW187323  10.913   2.413   4.243  0.6100  2.2696  0.9079
27077SOL    HW287324  10.907   2.458   4.098  0.8648 -1.8224 -0.4979
27078SOL     OW87325   8.706   8.105   2.219  0.3017 -0.5092  0.1519
27078SOL    HW187326   8.783   8.117   2.163 -0.6039  0.5154 -0.9567
27078SOL    HW287327   8.699   8.187   2.268 -0.0956 -0.5782  0.2185
27079SOL     OW87328   2.201   0.885   2.172 -0.8342  0.2487  0.7248
27079SOL    HW187329   2.160   0.800   2.155  0.4454 -0.1791 -0.3470
27079SOL    HW287330   2.163   0.913   2.255 -1.3954 -1.2972  1.0272
27080SOL     OW87331   5.395   2.491   2.992 -0.1380  0.5289 -0.5289
27080SOL    HW187332   5.471   2.476   2.936 -0.9589 -1.0540 -1.2893
27080SOL    HW287333   5.385   2.409   3.041  0.6632  1.9170  2.1612
27081SOL     OW87334   1.462   1.594   5.135 -0.6671 -0.0775 -0.0524
27081SOL    HW187335   1.408   1.623   5.209 -0.6570 -2.1028  0.8113
27081SOL    HW287336   1.549   1.583   5.172 -0.3617  0.1851 -0.6911
27082SOL     OW87337   4.164   6.018  10.640  0.2089  0.5102  0.3734
27082SOL    HW187338   4.229   5.961  10.683  0.3272  2.3879  2.9066
27082SOL    HW287339   4.217   6.084  10.595  0.0674  0.7267  0.5256
27083SOL     OW87340   3.510   2.640   7.423  0.5731 -0.0940 -0.0266
27083SOL    HW187341   3.459   2.611   7.498 -0.0101 -0.4615 -0.5593
27083SOL    HW287342   3.560   2.715   7.456 -1.4452  1.2437  0.1086
27084SOL     OW87343   7.166   7.187   0.485 -0.4109 -0.2499 -0.0671
27084SOL    HW187344   7.128   7.260   0.535 -0.2853  0.5402 -1.0868
27084SOL    HW287345   7.217   7.138   0.549 -2.0063 -0.5362  1.0437
27085SOL     OW87346   3.514   0.878   5.762  0.2551 -0.1327  0.0522
27085SOL    HW187347   3.596   0.832   5.744 -0.4654 -1.0423 -1.1144
27085SOL    HW287348   3.510   0.883   5.857  0.6648 -2.0098  0.2181
27086SOL     OW87349  10.398   9.042   5.904 -0.5398 -0.3022  0.4595
27086SOL    HW187350  10.488   9.028   5.874 -0.1744 -1.9211  2.1498
27086SOL    HW287351  10.344   8.999   5.837 -0.2041  1.6545 -1.1746
27087SOL     OW87352   9.326   9.768   9.205  0.2529 -0.4108  0.1533
27087SOL    HW187353   9.315   9.675   9.224  2.6529 -0.6710  0.5434
27087SOL    HW287354   9.306   9.812   9.288 -0.5495 -0.5773  0.0593
27088SOL     OW87355   0.301   3.694   8.973 -0.0115 -0.0629  0.3792
27088SOL    HW187356   0.229   3.644   9.011 -1.1528  0.7096 -0.6662
27088SOL    HW287357   0.286   3.784   9.003  0.4924  0.1140  0.1142
27089SOL     OW87358   3.106   9.625  10.427  0.4252 -0.0611 -0.1622
27089SOL    HW187359   3.137   9.576  10.503 -0.3240  0.0771  0.2392
27089SOL    HW287360   3.186   9.651  10.382  0.8394 -1.7214 -0.4368
27090SOL     OW87361   5.417  10.292   0.985  0.2607  0.0780 -0.7515
27090SOL    HW187362   5.354  10.309   1.055 -0.1161  0.4662 -1.1743
27090SOL    HW287363   5.501  10.319   1.022 -0.1157  1.5293 -0.8764
27091SOL     OW87364   7.266   3.180   0.748 -0.6922 -0.2381 -0.2215
27091SOL    HW187365   7.338   3.195   0.810 -1.0273 -1.3848  0.4890
27091SOL    HW287366   7.269   3.255   0.689  1.5529 -0.5955 -0.6651
27092SOL     OW87367   4.221   3.722   8.551 -0.4228 -0.1083  0.0222
27092SOL    HW187368   4.143   3.758   8.507  0.0365  2.1012  0.8682
27092SOL    HW287369   4.292   3.738   8.490 -0.2723  0.0686  0.2420
27093SOL     OW87370   9.059   5.533  10.157 -0.0096 -0.5050 -0.0018
27093SOL    HW187371   9.035   5.553  10.248  1.4609 -0.1758  0.3391
27093SOL    HW287372   9.053   5.437  10.152 -0.6270 -0.4891  0.2764
27094SOL     OW87373   6.601   8.641   7.871  0.4951  0.3354 -0.2581
27094SOL    HW187374   6.549   8.564   7.892 -1.0002  1.9917  2.5615
27094SOL    HW287375   6.625   8.628   7.779  0.6087 -3.5905  0.1361
27095SOL     OW87376   0.692   6.128   9.910  0.2974 -0.6374 -0.0335
27095SOL    HW187377   0.691   6.101   9.818 -0.5171 -1.8449  0.2965
27095SOL    HW287378   0.761   6.075   9.950  2.9991  2.2171 -0.5178
27096SOL     OW87379   4.296   1.538   5.514 -0.7624  0.2087 -0.2502
27096SOL    HW187380   4.338   1.603   5.457  1.1744 -0.3451  0.4405
27096SOL    HW287381   4.278   1.464   5.456 -0.4442  0.3195 -0.4959
27097SOL     OW87382  10.531   9.115   3.249 -0.0383 -0.1761 -0.6331
27097SOL    HW187383  10.477   9.177   3.298 -0.4231  0.3039 -1.6401
27097SOL    HW287384  10.543   9.042   3.309 -2.2415 -0.5420 -0.5531
27098SOL     OW87385   7.365   9.721   9.080 -0.2076 -0.2689 -0.3107
27098SOL    HW187386   7.277   9.691   9.102 -0.4319 -0.7898 -1.8204
27098SOL    HW287387   7.405   9.741   9.165 -2.6770  2.7399  0.3344
27099SOL     OW87388   9.790  10.745   5.658  0.5662 -0.0048  0.0738
27099SOL    HW187389   9.727  10.812   5.686  0.7628 -0.5879  2.1100
27099SOL    HW287390   9.779  10.739   5.564  0.7191  3.0705 -0.2535
27100SOL     OW87391   4.327   9.586   6.998  0.3310 -0.2972  0.4018
27100SOL    HW187392   4.256   9.590   7.062 -0.7618 -0.2973 -0.7608
27100SOL    HW287393   4.379   9.665   7.015 -0.4411  0.1507  0.7363
27101SOL     OW87394   3.309   1.096   3.569  0.2962  0.1510  0.2475
27101SOL    HW187395   3.321   1.015   3.520  0.7411 -0.9895  2.1139
27101SOL    HW287396   3.392   1.109   3.615  0.2964  1.7868 -0.1531
27102SOL     OW87397   8.076   2.255   8.347 -0.2633 -0.0610 -0.2571
27102SOL    HW187398   8.060   2.287   8.435  0.3997 -0.2999 -0.0388
27102SOL    HW287399   8.146   2.313   8.313  0.1873 -0.5924 -0.2507
27103SOL     OW87400   6.262   2.112   7.438 -0.3613  0.3301  0.0497
27103SOL    HW187401   6.357   2.117   7.452 -0.5657  0.0523  1.7171
27103SOL    HW287402   6.248   2.022   7.408 -0.2556 -0.1932  1.4776
27104SOL     OW87403   0.487  10.470   8.822  0.5657 -0.5895  0.6072
27104SOL    HW187404   0.411  10.413   8.812  0.7943 -0.7685 -0.1017
27104SOL    HW287405   0.549  10.419   8.874  0.1990 -0.4340  1.2080
27105SOL     OW87406   0.303   9.837   3.058 -0.0671  0.1611 -0.4180
27105SOL    HW187407   0.374   9.774   3.070 -1.0223 -0.6392  1.7357
27105SOL    HW287408   0.311   9.896   3.133  0.0835  1.9333 -1.7690
27106SOL     OW87409   3.195   5.246   6.313  0.1509 -0.2288 -0.4160
27106SOL    HW187410   3.170   5.208   6.397  0.6825 -2.3390 -1.1363
27106SOL    HW287411   3.126   5.310   6.293 -0.2580 -0.0722  1.3419
27107SOL     OW87412   8.716   7.847   1.762 -0.3012  0.2147 -0.0123
27107SOL    HW187413   8.804   7.864   1.730 -0.3169  0.1099 -0.1080
27107SOL    HW287414   8.670   7.930   1.750 -0.0182  0.4844  0.6872
27108SOL     OW87415   2.131   8.544   2.082 -0.0819 -0.6616 -0.6114
27108SOL    HW187416   2.226   8.557   2.079 -0.0057 -1.0533 -0.1117
27108SOL    HW287417   2.121   8.451   2.102 -0.5607 -0.4867 -0.0284
27109SOL     OW87418   3.404   4.830   5.765  0.0543  0.3573 -0.4794
27109SOL    HW187419   3.319   4.872   5.749 -0.0701  0.5338  0.5648
27109SOL    HW287420   3.422   4.846   5.858  0.7088 -0.6310 -0.4159
27110SOL     OW87421   3.501   8.123   9.822 -0.0094  0.2863  0.3049
27110SOL    HW187422   3.589   8.149   9.798  0.8333 -2.3478  0.1601
27110SOL    HW287423   3.452   8.126   9.740 -0.2038  2.1035  0.4519
27111SOL     OW87424   4.109   5.221   2.267  0.3776 -0.3401 -0.4285
27111SOL    HW187425   4.105   5.128   2.244 -1.4683 -1.2039  2.8215
27111SOL    HW287426   4.201   5.236   2.291  0.7526 -1.2133 -1.2528
27112SOL     OW87427   2.985   7.558   2.744 -0.2989 -0.2150 -0.2925
27112SOL    HW187428   3.031   7.628   2.698 -1.1442 -0.0508 -0.9059
27112SOL    HW287429   2.901   7.550   2.699 -0.3465 -1.4192 -0.0373
27113SOL     OW87430   0.705   4.567   7.571  0.5500  0.1692  0.1265
27113SOL    HW187431   0.611   4.557   7.554  0.7483 -0.9803 -0.3698
27113SOL    HW287432   0.718   4.532   7.659  0.3945  1.0997  0.5328
27114SOL     OW87433   7.503   1.729   7.342  0.8570 -0.2637  0.0388
27114SOL    HW187434   7.503   1.790   7.417 -1.4485 -0.4811  0.2820
27114SOL    HW287435   7.465   1.649   7.377  1.1195 -0.8631 -1.0276
27115SOL     OW87436   0.409   3.933   6.630 -0.0017 -0.5686 -0.0991
27115SOL    HW187437   0.456   3.890   6.559  0.8294 -1.3539  0.8937
27115SOL    HW287438   0.372   3.861   6.681  2.6846 -0.3415  2.4825
27116SOL     OW87439   1.580   0.605   9.787  0.3287  0.2906  0.1528
27116SOL    HW187440   1.631   0.668   9.837 -1.0192  1.8880 -0.3848
27116SOL    HW287441   1.565   0.533   9.848  1.3867  0.7408  0.9914
27117SOL     OW87442   5.249   0.215   7.245  0.2458  0.5897  0.0356
27117SOL    HW187443   5.281   0.265   7.170  0.7131 -0.3402 -0.3895
27117SOL    HW287444   5.244   0.125   7.215  1.7618 -0.0379  1.4995
27118SOL     OW87445   5.964   1.805   5.772 -0.5309  0.5795  0.2547
27118SOL    HW187446   5.899   1.874   5.760 -0.3582  0.5979 -0.7084
27118SOL    HW287447   6.009   1.827   5.854 -1.2691  0.9443  0.5649
27119SOL     OW87448   0.303   0.908   4.180  0.1986  0.4754 -0.0452
27119SOL    HW187449   0.261   0.994   4.187  0.4548  0.8392 -2.1567
27119SOL    HW287450   0.272   0.860   4.256 -0.3899  2.2508  0.9026
27120SOL     OW87451   0.938   6.689   6.011 -0.3221 -0.0408 -0.4892
27120SOL    HW187452   1.010   6.747   5.986  0.4530 -0.9812 -0.4943
27120SOL    HW287453   0.900   6.730   6.089 -0.7480  1.2496 -1.3431
27121SOL     OW87454   3.627   7.849   3.677  0.0310 -0.0928 -0.3443
27121SOL    HW187455   3.666   7.904   3.745 -0.0173 -0.7247  0.2013
27121SOL    HW287456   3.701   7.808   3.634  0.0913  0.7079 -1.0331
27122SOL     OW87457   8.663   3.986   9.779 -0.3573 -0.2180 -0.2784
27122SOL    HW187458   8.586   3.932   9.761 -0.4285 -0.0811 -0.3843
27122SOL    HW287459   8.631   4.054   9.838 -0.3180 -0.1592 -0.3254
27123SOL     OW87460   8.040   0.434   4.195  0.0639  0.1188 -0.1609
27123SOL    HW187461   8.123   0.461   4.235 -0.7253 -1.9049  3.2097
27123SOL    HW287462   8.002   0.516   4.162  0.9975  2.0504  3.0682
27124SOL     OW87463  10.079   1.421  10.555 -0.6435 -0.4314  0.1728
27124SOL    HW187464  10.146   1.385  10.497 -1.7163 -0.4102 -1.1145
27124SOL    HW287465  10.091   1.374  10.637  1.0712 -0.2746  0.0335
27125SOL     OW87466   9.372   0.876   0.348 -0.6695 -1.1358 -0.2362
27125SOL    HW187467   9.431   0.894   0.421  0.0470 -1.1117 -0.8165
27125SOL    HW287468   9.409   0.924   0.274 -0.0639 -3.0229 -1.2224
27126SOL     OW87469   5.267   3.771   2.155  0.0996  0.4527  0.2654
27126SOL    HW187470   5.295   3.732   2.238 -0.4265 -0.0070  0.2262
27126SOL    HW287471   5.172   3.759   2.153  0.4203 -3.0021 -2.1169
27127SOL     OW87472   3.484   5.398   8.237  0.1660 -0.1925 -0.9745
27127SOL    HW187473   3.410   5.429   8.287 -0.1535 -0.2746 -1.3890
27127SOL    HW287474   3.453   5.317   8.196  0.5699 -0.3705 -0.9352
27128SOL     OW87475   4.911   4.024   6.174 -0.3592  1.1230 -0.0754
27128SOL    HW187476   4.963   4.001   6.098  0.7634  0.0718  0.9764
27128SOL    HW287477   4.832   4.066   6.138 -0.0245  0.3174 -1.8054
27129SOL     OW87478   5.973   6.505   2.592  0.4060 -0.3237 -0.3550
27129SOL    HW187479   5.948   6.427   2.543 -1.9898 -0.6298  1.1602
27129SOL    HW287480   6.006   6.472   2.676  0.8838  0.2646 -0.3057
27130SOL     OW87481   0.021  10.020   6.330  0.0609  0.0704 -0.4620
27130SOL    HW187482   0.035   9.930   6.358  0.8693  0.2409 -0.2978
27130SOL    HW287483   0.000  10.014   6.236  0.5285 -0.2547 -0.5447
27131SOL     OW87484   2.936   3.244   7.089 -0.3322 -0.0298 -0.6793
27131SOL    HW187485   2.919   3.204   7.003 -0.4933  0.3154 -0.8100
27131SOL    HW287486   2.890   3.327   7.086 -0.0718  0.1272 -0.3712
27132SOL     OW87487   8.367   6.045   7.875  0.2476  0.2004 -0.2885
27132SOL    HW187488   8.410   6.090   7.948  0.2105  1.1310 -0.8235
27132SOL    HW287489   8.274   6.063   7.887 -0.3016 -3.2389  1.8498
27133SOL     OW87490   8.453   1.192   0.548  0.1376 -0.5561  0.4549
27133SOL    HW187491   8.364   1.162   0.529 -0.2074  1.0624 -0.6838
27133SOL    HW287492   8.507   1.146   0.484 -0.2718  0.5118 -0.7017
27134SOL     OW87493   6.891   4.868   0.711  0.2536 -0.1529  0.0507
27134SOL    HW187494   6.801   4.838   0.698  0.5265 -0.5833 -1.0341
27134SOL    HW287495   6.890   4.961   0.687  0.2624 -0.3765 -0.8791
27135SOL     OW87496   0.768   0.448   7.250 -0.0154  0.2974  0.1761
27135SOL    HW187497   0.689   0.434   7.303  0.0752 -0.0425  0.2260
27135SOL    HW287498   0.750   0.527   7.200  0.9559  2.2348  2.6849
27136SOL     OW87499   5.805  10.003   0.516  0.0677 -0.0169  0.0859
27136SOL    HW187500   5.710   9.999   0.524  0.0032  0.7323 -0.1584
27136SOL    HW287501   5.825   9.951   0.439 -0.0040 -1.2582  0.8707
27137SOL     OW87502   7.737   7.182  10.297  0.0231  0.2306 -0.1749
27137SOL    HW187503   7.653   7.144  10.270  0.3044 -0.4780 -0.0840
27137SOL    HW287504   7.740   7.169  10.392  0.5931 -0.5146 -0.2833
27138SOL     OW87505   6.936   4.674   5.415  0.3353  0.6644 -0.3077
27138SOL    HW187506   6.878   4.598   5.417  0.8066  0.2988 -0.5410
27138SOL    HW287507   6.949   4.697   5.508  0.7514  0.0314 -0.2040
27139SOL     OW87508   3.473   6.337   1.809  0.3731 -0.6427  0.3022
27139SOL    HW187509   3.432   6.423   1.817  2.0188  0.1134  1.3773
27139SOL    HW287510   3.471   6.317   1.716 -2.0500 -0.5128  0.2653
27140SOL     OW87511   9.874   0.832  10.146 -0.3097  0.5997 -0.1943
27140SOL    HW187512   9.958   0.857  10.106 -1.4023  1.1432 -2.3284
27140SOL    HW287513   9.894   0.820  10.238  1.7156  2.7512 -0.2396
27141SOL     OW87514   1.609   6.735   6.302 -0.3731 -0.0939 -0.4863
27141SOL    HW187515   1.674   6.748   6.234 -1.5631 -0.3319 -1.7027
27141SOL    HW287516   1.545   6.674   6.264 -1.5242  0.4454  0.5005
27142SOL     OW87517   7.098  10.423   8.283  0.0874  0.5911  0.3280
27142SOL    HW187518   7.127  10.419   8.192  0.4163 -0.1500  0.4492
27142SOL    HW287519   7.084  10.516   8.301  0.2794  0.7628 -0.3990
27143SOL     OW87520   8.279   8.190   4.905 -0.1586  0.4248 -0.0442
27143SOL    HW187521   8.282   8.106   4.950 -1.2374  0.3587 -0.0657
27143SOL    HW287522   8.361   8.233   4.929  0.7068 -0.8798 -0.5533
27144SOL     OW87523   1.038  10.236   8.899  0.3234  0.1697  0.1153
27144SOL    HW187524   1.028  10.158   8.954  0.8862 -0.1305 -0.1993
27144SOL    HW287525   1.100  10.291   8.947  0.4144  0.1400  0.0314
27145SOL     OW87526   3.289   6.739   3.064 -0.0657  0.0136  0.2707
27145SOL    HW187527   3.208   6.789   3.062  0.1049  0.3078  0.7660
27145SOL    HW287528   3.350   6.789   3.010  0.2072  0.5245  1.0386
27146SOL     OW87529   7.525   2.142   5.192 -0.0303 -0.5214 -0.2534
27146SOL    HW187530   7.617   2.116   5.192 -0.0131 -0.4888 -1.0861
27146SOL    HW287531   7.525   2.233   5.164 -0.3022 -0.4670 -0.0862
27147SOL     OW87532   1.180   8.872   2.300  0.2320 -0.4436 -0.0349
27147SOL    HW187533   1.103   8.913   2.260  0.2810 -0.3313 -0.0152
27147SOL    HW287534   1.174   8.896   2.393  0.9012  0.5242 -0.2309
27148SOL     OW87535   3.041   5.600   4.389  0.6725  0.1577 -0.5200
27148SOL    HW187536   2.980   5.650   4.443 -1.3043 -1.5140 -1.0598
27148SOL    HW287537   3.059   5.521   4.441  0.8635 -0.2335 -1.1755
27149SOL     OW87538  10.011   7.761   1.861 -0.2601 -0.1725  0.1895
27149SOL    HW187539   9.925   7.770   1.902 -2.0325  0.0904 -3.2374
27149SOL    HW287540  10.003   7.682   1.807  2.1796 -0.9367  0.8548
27150SOL     OW87541   9.678   5.210   8.800 -0.1772 -0.3583  0.1238
27150SOL    HW187542   9.756   5.265   8.799  2.3067 -3.6217  1.1612
27150SOL    HW287543   9.652   5.206   8.892 -0.0195 -1.2940  0.1336
27151SOL     OW87544   9.754   6.241   7.708 -0.0526 -0.2437  0.6251
27151SOL    HW187545   9.774   6.149   7.722 -2.2798 -0.4905  3.0163
27151SOL    HW287546   9.673   6.241   7.658  0.1562  0.4409  0.2746
27152SOL     OW87547   4.591   7.038   9.831  0.2084 -0.1735  0.1130
27152SOL    HW187548   4.663   7.098   9.810  1.3037 -1.3804  0.2196
27152SOL    HW287549   4.586   6.980   9.755 -1.2879  0.4402 -0.2916
27153SOL     OW87550   6.234   5.664   7.453  0.0190 -0.1806  0.1330
27153SOL    HW187551   6.229   5.748   7.499  1.1799  0.4903 -0.9160
27153SOL    HW287552   6.326   5.656   7.428  0.4380 -2.8208  2.0983
27154SOL     OW87553   9.299   8.848  10.162 -0.6824 -0.3782  0.0610
27154SOL    HW187554   9.322   8.913  10.096 -2.0862 -2.5673 -2.8025
27154SOL    HW287555   9.373   8.787  10.163 -0.9105 -0.6565  0.1037
27155SOL     OW87556   3.621   6.007   9.349 -0.6536  0.7235  0.0393
27155SOL    HW187557   3.613   5.947   9.275  3.1014  0.4572 -0.3701
27155SOL    HW287558   3.619   5.950   9.426 -1.8358  0.6773 -0.0136
27156SOL     OW87559   4.251   4.882   8.632 -0.0442 -0.0633  0.5456
27156SOL    HW187560   4.305   4.872   8.554 -0.0425 -3.2024  0.8083
27156SOL    HW287561   4.162   4.892   8.599  0.2572  1.7212  0.1685
27157SOL     OW87562   1.197   4.894   9.389 -0.1161 -0.3898 -0.3478
27157SOL    HW187563   1.284   4.919   9.418  0.1729 -0.7271 -0.8992
27157SOL    HW287564   1.178   4.812   9.436  0.3768 -0.9693 -1.1417
27158SOL     OW87565   6.544   8.826   0.050  0.5422 -0.1520  0.3195
27158SOL    HW187566   6.634   8.830   0.082  0.4606 -0.6154  0.6176
27158SOL    HW287567   6.543   8.753  -0.011  0.5611  0.3755 -0.3205
27159SOL     OW87568   4.323   5.690   0.860 -0.5336  0.1272 -0.2388
27159SOL    HW187569   4.317   5.646   0.776  0.9815 -0.2816 -0.1669
27159SOL    HW287570   4.243   5.743   0.866 -1.4093 -1.0387 -1.2238
27160SOL     OW87571   2.779   0.547   1.711 -0.6154  0.0508  0.3404
27160SOL    HW187572   2.831   0.603   1.654 -0.5743 -1.2676 -0.9693
27160SOL    HW287573   2.774   0.464   1.665 -0.8557 -0.9706  2.1347
27161SOL     OW87574   9.518   1.025   1.968 -0.1438 -0.2154 -1.0218
27161SOL    HW187575   9.471   1.081   1.908  1.0950  0.7042 -1.1763
27161SOL    HW287576   9.451   0.970   2.008 -1.1383  0.0440 -2.2849
27162SOL     OW87577  10.596   4.016  10.448 -0.2256 -0.2922 -0.0588
27162SOL    HW187578  10.504   4.018  10.473 -0.8048 -2.2776 -1.7347
27162SOL    HW287579  10.599   3.959  10.372  2.3901 -0.1394 -0.1711
27163SOL     OW87580   0.709   2.561   8.120  0.3631 -0.2135  0.2571
27163SOL    HW187581   0.714   2.656   8.108 -0.1231 -0.2720 -0.4693
27163SOL    HW287582   0.800   2.532   8.123  0.5634 -0.0435 -2.2898
27164SOL     OW87583   6.098   0.155  10.647 -0.0587 -0.8084  0.0305
27164SOL    HW187584   6.026   0.093  10.657 -2.3029  1.3362 -1.5687
27164SOL    HW287585   6.126   0.146  10.556 -0.0271  0.0971 -0.0636
27165SOL     OW87586   7.493   7.069   7.985 -0.1003  0.2195  0.3437
27165SOL    HW187587   7.409   7.101   8.017 -1.0394  0.0062 -1.7450
27165SOL    HW287588   7.540   7.147   7.958 -1.1319  0.1573 -1.8347
27166SOL     OW87589   9.687   9.691   2.014  0.2696 -0.5195  0.5846
27166SOL    HW187590   9.774   9.732   2.019 -0.5687  1.5270 -0.5931
27166SOL    HW287591   9.680   9.659   1.924 -1.1683  1.7727 -0.1919
27167SOL     OW87592   2.583   5.900  10.813 -0.3311  0.1552 -0.5679
27167SOL    HW187593   2.581   5.870  10.903  0.4631  1.6188 -0.0255
27167SOL    HW287594   2.668   5.873  10.780 -0.0577  0.8111 -0.4224
27168SOL     OW87595   7.378  10.095   0.664 -0.0704 -0.4343  0.4261
27168SOL    HW187596   7.366  10.012   0.620 -0.8204  0.0720 -0.3419
27168SOL    HW287597   7.416  10.153   0.598 -0.5275  0.1313  0.6464
27169SOL     OW87598   4.965   9.202   8.548 -0.0524 -0.1103 -0.1238
27169SOL    HW187599   4.962   9.205   8.452  0.1790  0.4275 -0.1140
27169SOL    HW287600   5.038   9.259   8.572 -1.1110  1.0412  0.4492
27170SOL     OW87601   5.498   6.995   7.192 -0.0261 -0.0594  0.1313
27170SOL    HW187602   5.587   7.011   7.159 -0.1851  0.6341  0.0358
27170SOL    HW287603   5.469   6.918   7.144 -0.9629  1.9513 -2.8182
27171SOL     OW87604   8.431   7.500   6.256  0.2109  0.4933  0.2965
27171SOL    HW187605   8.516   7.500   6.299 -0.8700 -0.2400  2.5949
27171SOL    HW287606   8.406   7.592   6.252  0.4536  0.5971  1.0222
27172SOL     OW87607   2.715   8.501   2.785 -0.2992 -0.7992 -0.3451
27172SOL    HW187608   2.649   8.433   2.775  0.1325 -1.5395  1.5269
27172SOL    HW287609   2.798   8.457   2.764 -0.3624  0.5332 -4.4575
27173SOL     OW87610   2.117   9.453   7.052 -0.2802  0.2699  0.6614
27173SOL    HW187611   2.135   9.544   7.027  2.6646 -0.8558 -2.0993
27173SOL    HW287612   2.192   9.428   7.105 -1.6853 -0.2728  2.4645
27174SOL     OW87613   8.483   6.588   7.924  0.1152  0.3710  0.2306
27174SOL    HW187614   8.533   6.661   7.961 -1.1035  0.0199  2.7543
27174SOL    HW287615   8.484   6.521   7.992  1.4264 -2.1886 -2.1100
27175SOL     OW87616   6.630   2.445   9.574  0.4845  0.0735  0.1531
27175SOL    HW187617   6.660   2.419   9.661 -1.4382 -0.6548  0.6479
27175SOL    HW287618   6.654   2.372   9.517 -0.5246 -0.6221  0.5913
27176SOL     OW87619   9.035   9.893   3.317  0.6857 -0.5461  0.4450
27176SOL    HW187620   9.071   9.878   3.404  1.2380 -2.2551 -0.0470
27176SOL    HW287621   9.096   9.850   3.257  1.2581  2.0239 -0.9988
27177SOL     OW87622   2.187  10.365   3.993 -0.1416  0.2163 -0.4597
27177SOL    HW187623   2.261  10.313   3.963 -0.6725  1.0050 -3.4684
27177SOL    HW287624   2.112  10.329   3.946 -0.8052  2.4976 -1.3050
27178SOL     OW87625   4.753   5.221  10.858 -0.8255  0.0977 -0.7195
27178SOL    HW187626   4.805   5.283  10.910 -1.7873 -0.8680  1.4905
27178SOL    HW287627   4.799   5.138  10.867 -0.3198  0.1406 -2.5219
27179SOL     OW87628   1.493   2.952   6.240  0.1834 -0.2752  0.2090
27179SOL    HW187629   1.433   3.025   6.224  3.2838  2.1631 -1.5960
27179SOL    HW287630   1.516   2.960   6.333  1.0126  1.6342 -0.1024
27180SOL     OW87631   5.866   4.720   6.786  0.0784  0.1537 -0.6164
27180SOL    HW187632   5.925   4.773   6.839 -0.0358 -0.0765 -0.2558
27180SOL    HW287633   5.822   4.783   6.729 -3.0250  1.0683  2.5084
27181SOL     OW87634   0.317   9.802   1.513  0.5444  0.4663 -0.7529
27181SOL    HW187635   0.260   9.880   1.509 -0.4766 -0.2116 -0.0263
27181SOL    HW287636   0.369   9.815   1.592 -0.8118 -0.3438  0.3097
27182SOL     OW87637   1.952   6.457   0.734  0.2235 -0.2352  0.2958
27182SOL    HW187638   1.924   6.374   0.695 -1.1038 -0.0019  0.7031
27182SOL    HW287639   1.894   6.469   0.810 -0.9801  2.0011 -0.8716
27183SOL     OW87640   8.448   6.751   1.775  1.4005  0.0589 -0.2654
27183SOL    HW187641   8.518   6.701   1.732  1.5610  0.6752 -0.7348
27183SOL    HW287642   8.420   6.695   1.848  0.0280 -1.7396 -2.0561
27184SOL     OW87643   3.976   6.636   9.364 -0.1533 -0.4032 -0.0206
27184SOL    HW187644   3.984   6.609   9.272 -2.0311 -1.0522 -0.0544
27184SOL    HW287645   4.042   6.705   9.375 -0.2191  0.0508 -2.0069
27185SOL     OW87646   4.527   6.730  10.695  0.0988  0.2687 -0.1024
27185SOL    HW187647   4.477   6.801  10.655 -0.0853  0.7886  1.0290
27185SOL    HW287648   4.541   6.758  10.785 -1.5115 -1.8722  0.9030
27186SOL     OW87649   4.920   6.000   9.311 -0.3481 -0.0682  0.4008
27186SOL    HW187650   4.968   5.922   9.341  0.4148 -0.6409 -2.0629
27186SOL    HW287651   4.838   5.965   9.276 -0.3741  0.3276  0.0627
27187SOL     OW87652  10.478   3.989   8.382 -0.5417 -0.7657  0.1021
27187SOL    HW187653  10.411   4.049   8.415 -0.0949 -0.5456  0.6282
27187SOL    HW287654  10.432   3.934   8.319 -0.8324  0.5052 -0.8339
27188SOL     OW87655   8.498   1.728   3.575 -0.4651  0.2988  0.0206
27188SOL    HW187656   8.576   1.688   3.537  0.3052  0.0806  1.7398
27188SOL    HW287657   8.454   1.770   3.501 -1.1681 -3.3668 -1.8842
27189SOL     OW87658   1.686   3.465   2.381 -0.0560  0.3213 -0.1188
27189SOL    HW187659   1.647   3.503   2.302 -2.1041  0.3029  0.8219
27189SOL    HW287660   1.700   3.373   2.359 -1.2165  0.1658 -0.2732
27190SOL     OW87661   6.733   2.628   8.640 -0.0938 -0.6748 -0.5907
27190SOL    HW187662   6.694   2.622   8.727  0.0905  1.4490 -0.2994
27190SOL    HW287663   6.666   2.594   8.581 -1.6976  1.1161  0.0805
27191SOL     OW87664   9.716   2.708   2.864 -0.0441  0.1469 -0.6566
27191SOL    HW187665   9.775   2.719   2.789  0.2119  1.8550 -0.2289
27191SOL    HW287666   9.738   2.621   2.898  2.5357  0.8819 -0.2650
27192SOL     OW87667   2.067  10.770   7.488 -0.5433 -0.0403  0.0557
27192SOL    HW187668   2.065  10.861   7.518 -0.8804 -0.6040  1.8840
27192SOL    HW287669   2.116  10.773   7.406 -1.6157  1.9511 -0.5706
27193SOL     OW87670   2.550   1.425   5.653 -0.1203  0.8623 -0.1156
27193SOL    HW187671   2.543   1.514   5.687 -0.0212  1.1924 -0.9445
27193SOL    HW287672   2.522   1.370   5.726 -0.6508  1.5959  0.2508
27194SOL     OW87673   5.125   1.879   6.344 -0.2355 -0.1429 -0.2086
27194SOL    HW187674   5.047   1.857   6.293  0.6089  0.0613 -1.6451
27194SOL    HW287675   5.183   1.804   6.332  1.1201  1.1088 -1.9798
27195SOL     OW87676   7.146   3.723  10.762  0.3480 -0.0249 -0.3251
27195SOL    HW187677   7.119   3.658  10.826  0.8055 -1.7647 -1.8225
27195SOL    HW287678   7.176   3.797  10.815 -3.4222  0.4973  1.4474
27196SOL     OW87679   2.221   9.475   1.765 -0.3273 -0.1745  0.8202
27196SOL    HW187680   2.144   9.420   1.783 -1.2329  1.0234  0.6990
27196SOL    HW287681   2.194   9.530   1.692  0.8326 -0.0692  0.4561
27197SOL     OW87682   6.401   4.582   6.300 -0.7278 -0.0030  1.1346
27197SOL    HW187683   6.307   4.568   6.301 -0.6454 -0.7499  0.1945
27197SOL    HW287684   6.415   4.647   6.232 -0.4126 -1.3958 -0.1837
27198SOL     OW87685   5.451   1.892  10.851 -0.0639  1.1018  0.2293
27198SOL    HW187686   5.456   1.892  10.947 -1.7737 -1.7338  0.4348
27198SOL    HW287687   5.363   1.859  10.832  1.0643 -0.7169 -2.3139
27199SOL     OW87688   0.583   3.048   6.869 -0.0187  0.3093 -0.0563
27199SOL    HW187689   0.658   3.013   6.821 -0.2085 -2.2190  1.2931
27199SOL    HW287690   0.615   3.128   6.909  1.8873 -0.5319  0.1957
27200SOL     OW87691  10.709   0.394   0.196  0.0834 -0.1917 -0.1946
27200SOL    HW187692  10.675   0.472   0.239 -0.2144 -0.2462 -0.3258
27200SOL    HW287693  10.632   0.338   0.185 -0.4299  0.9676 -3.3726
27201SOL     OW87694   8.214   2.738   9.371  0.5837  0.0371  0.4922
27201SOL    HW187695   8.213   2.668   9.306  0.3267  0.5988 -0.1119
27201SOL    HW287696   8.277   2.708   9.437 -1.4376 -2.0238  1.6505
27202SOL     OW87697   8.511   4.561   7.038  0.1902 -0.3403  0.5232
27202SOL    HW187698   8.459   4.540   6.961 -0.0150  0.4410  0.4420
27202SOL    HW287699   8.602   4.553   7.009  0.1145 -0.2946  0.2718
27203SOL     OW87700   5.492   0.587   6.002 -0.2599 -0.0198  0.0144
27203SOL    HW187701   5.409   0.566   6.044  0.2348 -2.5642 -0.1311
27203SOL    HW287702   5.496   0.683   6.002 -0.9559  0.2048  4.4466
27204SOL     OW87703   8.981   1.601   3.021 -0.8759 -0.3670 -0.3200
27204SOL    HW187704   8.893   1.638   3.016 -0.8018 -0.2387 -0.7809
27204SOL    HW287705   9.034   1.659   2.966 -0.5871 -0.6752 -0.3690
27205SOL     OW87706   4.303   1.684   3.133  0.1596  0.0991  0.1456
27205SOL    HW187707   4.358   1.761   3.117 -1.9583  2.0380  1.4996
27205SOL    HW287708   4.339   1.643   3.211  0.5119  0.5253  0.2060
27206SOL     OW87709   0.038   3.375   6.526  0.3834  0.2317  0.0397
27206SOL    HW187710   0.108   3.426   6.487 -0.5678  0.3053 -1.7031
27206SOL    HW287711   0.006   3.320   6.454 -2.1734  1.1324  0.3685
27207SOL     OW87712   5.733   3.836   3.418  0.0192  0.4182 -0.5673
27207SOL    HW187713   5.751   3.927   3.395 -0.6728  0.7242  0.0474
27207SOL    HW287714   5.665   3.842   3.486 -1.3420 -0.6049 -1.7717
27208SOL     OW87715   0.566   7.793   5.007  0.8633  0.2082  0.2448
27208SOL    HW187716   0.502   7.753   5.067  0.4020 -0.9176 -0.9591
27208SOL    HW287717   0.522   7.792   4.922  2.3983 -0.3520 -0.5643
27209SOL     OW87718   5.331   2.582   2.356 -0.1659  0.0936  0.1548
27209SOL    HW187719   5.414   2.605   2.315  0.7936 -3.5484 -0.2837
27209SOL    HW287720   5.342   2.605   2.448  1.6643 -0.9910  0.2431
27210SOL     OW87721   7.032   8.645   1.096  0.1405 -0.1224  0.4496
27210SOL    HW187722   7.084   8.707   1.044  3.1302 -0.8027  2.3371
27210SOL    HW287723   6.959   8.697   1.130  1.5316  1.9269  0.4911
27211SOL     OW87724  10.311   9.378   6.767  0.1390 -0.1370 -0.2135
27211SOL    HW187725  10.366   9.451   6.738  1.1887 -1.3686 -1.4623
27211SOL    HW287726  10.325   9.310   6.701 -1.4555 -1.1784  0.4626
27212SOL     OW87727   6.057   2.103   4.508  0.1345  0.2898  0.3372
27212SOL    HW187728   6.009   2.103   4.425 -1.6364 -0.8969  1.3120
27212SOL    HW287729   6.084   2.012   4.519  0.3339  0.4390  1.0849
27213SOL     OW87730   6.750   5.395   1.368  0.1475  0.2633 -0.3527
27213SOL    HW187731   6.786   5.428   1.285 -1.1417  2.0569 -0.2457
27213SOL    HW287732   6.670   5.446   1.382 -1.9007 -2.8025 -0.0123
27214SOL     OW87733   5.492   8.443   7.740 -0.7463 -0.0167  0.5005
27214SOL    HW187734   5.425   8.508   7.765 -0.1469  1.2597 -1.0762
27214SOL    HW287735   5.529   8.476   7.659 -0.2608 -2.2660 -0.2615
27215SOL     OW87736   1.045   8.308   4.493  0.0277 -0.4871 -0.0363
27215SOL    HW187737   1.133   8.312   4.456 -0.3266 -1.9754 -1.1514
27215SOL    HW287738   1.027   8.397   4.522  1.6640 -0.0233 -0.3419
27216SOL     OW87739   0.748   8.746   2.447  0.0481  0.3761 -0.4122
27216SOL    HW187740   0.713   8.758   2.359 -0.8287 -1.3673 -0.3517
27216SOL    HW287741   0.673   8.761   2.505  0.1301 -0.3713 -0.0977
27217SOL     OW87742   0.025   7.326   1.679  0.2916  0.0434  0.1452
27217SOL    HW187743  -0.036   7.382   1.631  2.8592  1.2295 -1.9537
27217SOL    HW287744   0.060   7.383   1.748 -0.8626 -0.6273  1.3304
27218SOL     OW87745   0.950   3.669   2.546  0.0135 -0.0742 -0.1269
27218SOL    HW187746   1.027   3.725   2.557  0.5761 -0.9810  0.7728
27218SOL    HW287747   0.950   3.645   2.454  1.3951 -0.8506  0.0478
27219SOL     OW87748   7.580   1.713   5.108  0.0306 -0.0925 -0.4465
27219SOL    HW187749   7.516   1.752   5.049  0.3935 -0.0921 -0.8472
27219SOL    HW287750   7.607   1.785   5.165  0.0309  0.0223 -0.5911
27220SOL     OW87751   5.506   3.019   0.649  0.3900 -0.5807 -1.0253
27220SOL    HW187752   5.509   3.071   0.729 -0.6916  0.6054 -1.7100
27220SOL    HW287753   5.466   2.936   0.675  1.1090 -0.6549 -0.1254
27221SOL     OW87754  10.107   5.147   3.550  0.4650  0.0519  0.3464
27221SOL    HW187755  10.027   5.188   3.516  1.9934  1.1194 -2.2504
27221SOL    HW287756  10.098   5.055   3.524  1.2509  0.6955 -2.6023
27222SOL     OW87757   4.958  10.533   9.014  0.1183  0.1056  0.3622
27222SOL    HW187758   4.993  10.471   9.078 -0.2314  0.4328  0.8827
27222SOL    HW287759   4.992  10.503   8.930  0.9955 -0.0471  0.7536
27223SOL     OW87760   5.957   8.725   5.600  0.8606  0.2502 -0.1002
27223SOL    HW187761   5.892   8.777   5.646 -0.4797 -1.2155 -0.2350
27223SOL    HW287762   5.991   8.783   5.531 -1.9296  0.4181 -1.4629
27224SOL     OW87763   0.859   7.528   6.208 -0.8021 -0.0471 -0.1113
27224SOL    HW187764   0.928   7.594   6.214  0.2961 -0.9091 -2.3058
27224SOL    HW287765   0.785   7.575   6.170 -1.2368  0.6782  1.4987
27225SOL     OW87766   2.034   7.981   4.277 -0.0167  0.8232 -0.3047
27225SOL    HW187767   2.125   7.969   4.306 -0.0746 -0.6373 -0.6436
27225SOL    HW287768   1.984   7.991   4.357  0.2886  0.3829 -0.0518
27226SOL     OW87769   8.502   7.606   5.445  0.1521  0.3228 -0.0953
27226SOL    HW187770   8.544   7.600   5.359  0.9907  0.4077  0.2955
27226SOL    HW287771   8.469   7.695   5.449  1.2999  0.7534  0.1879
27227SOL     OW87772   7.789   1.125   7.506  0.6918 -0.1350  0.2273
27227SOL    HW187773   7.742   1.199   7.543  0.7405  0.4124 -0.7648
27227SOL    HW287774   7.882   1.148   7.516  0.8426 -1.5541  2.8796
27228SOL     OW87775   2.336   8.823   5.150  0.1054 -0.2311  0.0503
27228SOL    HW187776   2.272   8.795   5.084  0.5870 -0.8264 -0.1749
27228SOL    HW287777   2.403   8.869   5.101  0.4470 -0.6420  0.1281
27229SOL     OW87778   6.387   7.365   5.663 -0.0986 -0.0559  0.2889
27229SOL    HW187779   6.374   7.447   5.711 -1.8025  0.6547 -1.2597
27229SOL    HW287780   6.445   7.389   5.590 -0.5330 -0.2273 -0.1173
27230SOL     OW87781  10.656  10.190   9.745 -0.1263 -0.2350  0.1123
27230SOL    HW187782  10.579  10.178   9.688 -0.1833 -0.5562  0.2560
27230SOL    HW287783  10.699  10.268   9.710  1.6041 -2.1286 -2.4213
27231SOL     OW87784  10.096   3.098   9.657  0.5488 -0.1829  0.3180
27231SOL    HW187785  10.186   3.129   9.649  0.5020  0.2565  1.3543
27231SOL    HW287786  10.076   3.105   9.750 -1.1994  1.5458 -0.1335
27232SOL     OW87787   0.321   9.059   0.205  0.9495  0.0931 -0.1496
27232SOL    HW187788   0.363   8.976   0.226  1.4277  0.4298  0.2407
27232SOL    HW287789   0.241   9.034   0.159  0.6075 -0.6241  0.7826
27233SOL     OW87790   5.874   8.784   8.605 -0.0765 -0.0058 -0.4173
27233SOL    HW187791   5.850   8.857   8.548  3.0032  2.0322  0.6924
27233SOL    HW287792   5.942   8.737   8.556 -0.3668 -0.7472 -0.1242
27234SOL     OW87793   9.779   9.187  10.470 -0.1587 -0.3559  0.4890
27234SOL    HW187794   9.771   9.129  10.545  0.0247 -0.3977  0.4752
27234SOL    HW287795   9.807   9.271  10.506 -1.8956  0.1819  0.7054
27235SOL     OW87796   5.323   2.647   2.632 -0.1620  0.1582  0.0771
27235SOL    HW187797   5.286   2.576   2.685 -2.1692 -0.4849 -2.0046
27235SOL    HW287798   5.262   2.719   2.642 -1.1413 -0.2973 -1.9787
27236SOL     OW87799   0.111   9.004   9.422  0.2747 -0.7967 -0.2891
27236SOL    HW187800   0.038   9.008   9.361  0.9894 -0.7585 -1.1736
27236SOL    HW287801   0.099   9.080   9.479  0.5433  0.2300 -1.5286
27237SOL     OW87802   0.437   3.223  10.133 -0.0038 -0.1412  0.0119
27237SOL    HW187803   0.428   3.318  10.138 -2.2138 -0.2636 -0.5939
27237SOL    HW287804   0.420   3.202  10.041  2.4227 -1.0055 -0.3052
27238SOL     OW87805   6.113   7.865   3.374  0.3366  0.3580  0.7067
27238SOL    HW187806   6.141   7.868   3.283 -0.4272  1.2935  0.4878
27238SOL    HW287807   6.166   7.795   3.413 -0.1691 -0.8910 -0.7260
27239SOL     OW87808   0.345   2.657   6.813 -0.1102 -0.1330  0.1769
27239SOL    HW187809   0.312   2.683   6.899  1.3270  0.7517  0.4838
27239SOL    HW287810   0.265   2.648   6.759 -1.1123 -1.7778  1.8317
27240SOL     OW87811   0.346  10.308   5.730  0.6611  0.1262  0.2336
27240SOL    HW187812   0.309  10.385   5.686 -0.2768  0.0866  0.9317
27240SOL    HW287813   0.302  10.234   5.689  0.7119  0.0186  0.3749
27241SOL     OW87814   7.678   1.148   4.959 -0.1736 -0.5476 -0.3709
27241SOL    HW187815   7.759   1.154   4.908  0.7865  2.3150  1.2457
27241SOL    HW287816   7.625   1.222   4.929 -2.2280 -2.3174 -1.3297
27242SOL     OW87817   5.222   9.915   7.806 -0.5345  0.1756 -0.6284
27242SOL    HW187818   5.139   9.889   7.845 -0.1102  0.4455  0.4945
27242SOL    HW287819   5.276   9.836   7.809 -0.3842  0.2891 -0.3545
27243SOL     OW87820   9.745   2.726   2.030 -0.4588 -0.0626 -0.2370
27243SOL    HW187821   9.793   2.693   1.954 -0.7867  1.5643 -1.1734
27243SOL    HW287822   9.703   2.806   2.000  0.3450  1.2627  1.9643
27244SOL     OW87823   5.771   3.184   0.044  0.1070 -0.0506  0.4300
27244SOL    HW187824   5.809   3.103   0.077 -0.4046 -0.1183  0.8565
27244SOL    HW287825   5.807   3.193  -0.044  1.2251 -0.0325  0.8752
27245SOL     OW87826   1.063   1.355   6.880 -0.3019  0.6226  0.2956
27245SOL    HW187827   1.017   1.351   6.964 -0.4286  0.2579  0.2084
27245SOL    HW287828   1.047   1.444   6.848 -1.5148  0.2881 -0.0581
27246SOL     OW87829   6.860   5.222   0.574 -0.1625  0.3299 -0.5349
27246SOL    HW187830   6.887   5.187   0.659  0.0879 -2.3189 -1.6003
27246SOL    HW287831   6.777   5.267   0.592 -0.5734 -0.9421  0.9837
27247SOL     OW87832   1.988   5.274   0.577 -0.3449 -0.5252  0.4402
27247SOL    HW187833   2.020   5.252   0.490  1.7312 -2.7581  1.6461
27247SOL    HW287834   1.920   5.340   0.562 -0.5195 -1.3013 -2.8658
27248SOL     OW87835   6.082   3.478   7.434  0.0143 -0.0934  0.1385
27248SOL    HW187836   6.104   3.570   7.423  0.3022 -0.1758  0.0238
27248SOL    HW287837   6.095   3.439   7.348 -0.4467 -0.1710  0.1010
27249SOL     OW87838   9.773   0.604   0.511 -0.0371 -0.1105  0.2931
27249SOL    HW187839   9.826   0.527   0.489 -1.8717 -1.2675 -0.3152
27249SOL    HW287840   9.745   0.589   0.601 -0.1414 -0.0000  0.2797
27250SOL     OW87841   6.867   0.141   5.478 -0.3719  0.1395  0.2817
27250SOL    HW187842   6.935   0.170   5.417 -0.5566  0.0671  0.0402
27250SOL    HW287843   6.870   0.045   5.473 -0.6260  0.1378  0.1192
27251SOL     OW87844   4.140  10.313   7.222 -0.1593  0.7244  0.0591
27251SOL    HW187845   4.106  10.397   7.193 -0.0281  1.0877  0.9201
27251SOL    HW287846   4.126  10.313   7.317  1.7169  0.6468  0.3700
27252SOL     OW87847   3.683   3.670   7.331  0.9774  0.2818  0.3313
27252SOL    HW187848   3.603   3.620   7.350  1.4537 -0.4216  0.5075
27252SOL    HW287849   3.652   3.746   7.281 -0.1303  1.3778  2.5169
27253SOL     OW87850   4.875   5.098   3.546  0.3236  0.7783 -0.3612
27253SOL    HW187851   4.809   5.031   3.556 -1.3576  2.0341 -2.2563
27253SOL    HW287852   4.872   5.148   3.627  0.3993 -0.3709  0.3644
27254SOL     OW87853   2.396   8.759   6.219 -0.0920 -0.4436 -0.1262
27254SOL    HW187854   2.341   8.803   6.284  1.0871  0.1603  0.5003
27254SOL    HW287855   2.423   8.828   6.158  1.5060 -0.2987  0.6786
27255SOL     OW87856   1.168   1.078   9.791 -0.2482 -0.3064 -0.0865
27255SOL    HW187857   1.084   1.122   9.781 -0.8485 -1.9003 -3.6324
27255SOL    HW287858   1.225   1.121   9.727  1.2770 -0.1956  1.2755
27256SOL     OW87859   5.286   6.119   0.929  0.1791  0.2911  0.1119
27256SOL    HW187860   5.311   6.191   0.987 -0.1073  0.4942 -0.0122
27256SOL    HW287861   5.230   6.160   0.862 -0.3956 -0.1230  0.3241
27257SOL     OW87862   0.419   0.280  10.326  0.2370  0.1157 -0.5395
27257SOL    HW187863   0.513   0.265  10.321  0.0705 -0.4640 -2.3560
27257SOL    HW287864   0.380   0.195  10.307 -0.6610  0.7905 -1.8254
27258SOL     OW87865   1.425   1.503   4.892  0.5091  0.0642  0.3571
27258SOL    HW187866   1.351   1.443   4.906 -1.0032  1.8131  0.1651
27258SOL    HW287867   1.448   1.533   4.980  1.6023 -1.1333  0.5044
27259SOL     OW87868   0.687   2.823   5.093 -0.1279 -0.3343 -0.0888
27259SOL    HW187869   0.613   2.884   5.086 -0.4254 -0.7707 -0.8299
27259SOL    HW287870   0.678   2.783   5.179  0.0669  0.6600  0.4088
27260SOL     OW87871   7.661   0.056   7.207 -0.0182 -0.2288 -0.3815
27260SOL    HW187872   7.599   0.058   7.281 -1.3207  1.4216 -1.4411
27260SOL    HW287873   7.621  -0.004   7.144 -0.9884  1.4035 -1.3814
27261SOL     OW87874   2.978   3.389   8.459  0.1824 -0.8318  0.0058
27261SOL    HW187875   3.016   3.351   8.538 -0.2788 -0.4380  0.4229
27261SOL    HW287876   2.910   3.327   8.432 -0.5881 -0.3110  0.7017
27262SOL     OW87877  10.254   9.236   2.046 -0.2870  0.1033  0.0273
27262SOL    HW187878  10.266   9.246   2.140 -1.2548  0.5554  0.1154
27262SOL    HW287879  10.172   9.187   2.037 -0.0876 -0.1331 -0.5797
27263SOL     OW87880   1.648   1.383   4.119 -0.1606 -0.0999 -0.0798
27263SOL    HW187881   1.577   1.407   4.060  0.7544 -0.7231 -1.4867
27263SOL    HW287882   1.611   1.314   4.174 -1.0887  0.6352  0.2523
27264SOL     OW87883   2.673  10.862   0.892  0.1516  0.3809 -0.4116
27264SOL    HW187884   2.584  10.896   0.891  0.1856  0.6012  1.0610
27264SOL    HW287885   2.669  10.781   0.842 -0.2995  1.6600 -2.5425
27265SOL     OW87886   5.551   0.699   8.838 -0.0067 -0.2753 -0.0909
27265SOL    HW187887   5.536   0.778   8.890  1.5427  0.1622 -0.2675
27265SOL    HW287888   5.580   0.633   8.900 -0.0081 -0.3157 -0.1330
27266SOL     OW87889   3.841   8.467   8.136  0.2416 -0.0475 -0.1559
27266SOL    HW187890   3.858   8.391   8.080  1.3829  1.8296 -2.5559
27266SOL    HW287891   3.901   8.456   8.210  0.1226 -1.6255 -0.2531
27267SOL     OW87892   5.439   5.846   3.268  0.5227 -0.5442 -0.4976
27267SOL    HW187893   5.391   5.862   3.349 -1.0944  1.1037 -1.7094
27267SOL    HW287894   5.503   5.779   3.292 -0.8384 -1.1671  1.7633
27268SOL     OW87895  10.646   1.930   7.590  0.2627 -0.0413 -0.1030
27268SOL    HW187896  10.559   1.938   7.551  0.5129 -0.3169 -0.7350
27268SOL    HW287897  10.647   1.994   7.661  0.1573  1.2391 -1.2236
27269SOL     OW87898   9.475   1.549   7.165  0.1528  0.3988 -0.5098
27269SOL    HW187899   9.390   1.540   7.208  0.5349  0.7415  0.3495
27269SOL    HW287900   9.537   1.557   7.237  0.8958  0.3232 -1.1311
27270SOL     OW87901   5.375   3.341   5.514 -0.3110  0.2564 -0.1926
27270SOL    HW187902   5.378   3.294   5.431 -1.0461  1.5089 -0.9758
27270SOL    HW287903   5.283   3.337   5.540  0.1690 -1.5620  1.4765
27271SOL     OW87904   1.832   0.113   1.097 -0.0491 -0.4342 -0.4130
27271SOL    HW187905   1.902   0.093   1.035  1.5459  1.2610  0.7383
27271SOL    HW287906   1.862   0.075   1.180 -0.4982  0.2853  0.0923
27272SOL     OW87907   2.950   8.345   2.709  0.1461  0.0190  0.4166
27272SOL    HW187908   2.952   8.262   2.757 -0.1865  0.3822  1.0708
27272SOL    HW287909   3.031   8.346   2.659  0.0602 -0.7912  0.2478
27273SOL     OW87910   1.925   8.576  10.430 -0.1143 -0.2453 -0.2999
27273SOL    HW187911   2.014   8.541  10.437 -0.7645 -2.0972 -0.6439
27273SOL    HW287912   1.904   8.609  10.517  0.8909  0.1884 -0.2139
27274SOL     OW87913  10.422   3.740   0.418  0.1583  0.0193 -0.1502
27274SOL    HW187914  10.343   3.771   0.372  0.5879 -0.2291 -1.0821
27274SOL    HW287915  10.418   3.782   0.503 -1.3018 -0.4710  0.0431
27275SOL     OW87916   8.016   4.826  10.281  0.3052  0.2274  0.5894
27275SOL    HW187917   7.930   4.864  10.296  1.1106  1.7799  1.5791
27275SOL    HW287918   8.076   4.901  10.287  1.6466 -0.6702 -0.9536
27276SOL     OW87919   2.102   2.299   9.122 -0.2064  0.3775 -0.1169
27276SOL    HW187920   2.133   2.211   9.143 -1.2727  0.1861  0.7375
27276SOL    HW287921   2.010   2.287   9.098 -0.6492  1.3678  1.0102
27277SOL     OW87922   2.487   3.254   2.152 -0.3614 -0.2416  0.1146
27277SOL    HW187923   2.562   3.214   2.195 -0.0917  0.1302 -0.0102
27277SOL    HW287924   2.513   3.344   2.136 -0.7352 -0.1790 -0.1665
27278SOL     OW87925   3.466   1.932   5.640  0.3802 -0.1927 -0.4725
27278SOL    HW187926   3.540   1.993   5.637 -0.1448  0.4327 -0.7770
27278SOL    HW287927   3.396   1.976   5.593 -0.0351 -1.0035 -0.6364
27279SOL     OW87928   2.309   5.442   5.665  0.1333 -0.0771  0.2685
27279SOL    HW187929   2.342   5.490   5.588 -0.6236  0.0938  0.0370
27279SOL    HW287930   2.265   5.509   5.717 -2.0147 -0.6874 -0.6614
27280SOL     OW87931   3.138   3.791   6.849 -0.0336 -0.0029 -0.2480
27280SOL    HW187932   3.168   3.785   6.758  0.0326  1.2847 -0.3339
27280SOL    HW287933   3.046   3.767   6.846 -0.4057  1.4379 -0.9083
27281SOL     OW87934   6.076   0.109   7.238  0.1616 -0.0418  0.4360
27281SOL    HW187935   6.027   0.074   7.163  1.7041  0.5189 -0.8901
27281SOL    HW287936   6.040   0.197   7.251  0.3497  0.1184 -0.1050
27282SOL     OW87937   3.612   5.974   3.629 -0.4672 -0.4126  0.2609
27282SOL    HW187938   3.675   6.025   3.681 -1.2131 -0.5457  1.3326
27282SOL    HW287939   3.540   6.035   3.612 -0.9585 -0.8349  0.7887
27283SOL     OW87940   8.895   9.694   1.795  0.5879 -0.2365 -0.3094
27283SOL    HW187941   8.914   9.770   1.740 -0.1700 -1.3821 -2.2724
27283SOL    HW287942   8.962   9.630   1.772  0.7073 -0.4856  0.6891
27284SOL     OW87943   2.202   0.953   7.565  0.1871  0.4211  0.3561
27284SOL    HW187944   2.183   0.869   7.606 -0.3902  0.2652 -0.2165
27284SOL    HW287945   2.135   1.013   7.600  0.9239  0.7864  1.1794
27285SOL     OW87946   6.899   9.446   8.475  0.4292  0.1896  0.4673
27285SOL    HW187947   6.927   9.361   8.443 -0.1979 -0.2604  1.0682
27285SOL    HW287948   6.886   9.498   8.396  1.7308  0.0375  0.1327
27286SOL     OW87949   0.330   7.829   7.876  0.3172 -0.0075 -0.1681
27286SOL    HW187950   0.349   7.898   7.812  1.8542 -0.2276  0.0341
27286SOL    HW287951   0.367   7.750   7.837  0.9159 -0.2154  0.8042
27287SOL     OW87952   5.680   0.714   1.048  0.1515 -0.1502  0.3805
27287SOL    HW187953   5.670   0.807   1.028  0.7514 -0.1076  0.2674
27287SOL    HW287954   5.647   0.705   1.137  1.6983  0.4918  1.0391
27288SOL     OW87955   5.459   6.670   2.563 -0.1551  0.4107  0.0793
27288SOL    HW187956   5.470   6.598   2.500  2.6281  1.4657 -0.7771
27288SOL    HW287957   5.523   6.652   2.632 -1.4509  0.6032  1.3962
27289SOL     OW87958   7.814   6.754   1.296 -0.1012 -0.5279 -0.2257
27289SOL    HW187959   7.738   6.695   1.294 -1.1525  0.7967 -0.7688
27289SOL    HW287960   7.800   6.809   1.373 -1.1518  1.5138 -1.7874
27290SOL     OW87961   9.335  10.090   0.351  0.4599 -0.0831 -0.1367
27290SOL    HW187962   9.335  10.068   0.444  0.4734 -0.1636 -0.1553
27290SOL    HW287963   9.420  10.060   0.319  0.2398 -0.5503 -0.2904
27291SOL     OW87964   4.215   5.176   9.731 -0.1055 -0.0483  0.5656
27291SOL    HW187965   4.291   5.211   9.777  1.1928  0.0461 -1.5039
27291SOL    HW287966   4.189   5.099   9.782  1.0435  0.2240  1.6172
27292SOL     OW87967  10.266   7.557   9.564  0.4511 -0.0980  0.8197
27292SOL    HW187968  10.311   7.629   9.609  1.2665 -0.2550  0.2768
27292SOL    HW287969  10.214   7.600   9.497 -0.0515  0.0725  1.3178
27293SOL     OW87970   9.889   7.566   2.293 -0.0976 -0.3540 -0.2861
27293SOL    HW187971   9.949   7.591   2.222  0.1783 -1.5216 -0.4709
27293SOL    HW287972   9.811   7.532   2.248 -0.7300  0.6965 -0.0383
27294SOL     OW87973   5.102   0.047   0.263  0.4077  0.5879  0.0821
27294SOL    HW187974   5.084   0.054   0.357 -1.5752 -0.6188 -0.1516
27294SOL    HW287975   5.152  -0.034   0.255 -0.4593  0.0363  0.0197
27295SOL     OW87976   2.141   1.867   8.624 -0.0060 -0.2726  0.3011
27295SOL    HW187977   2.124   1.772   8.623  0.2076 -0.3159  0.6054
27295SOL    HW287978   2.199   1.882   8.550 -1.3059 -0.1321 -0.7310
27296SOL     OW87979   4.128   0.508   4.846  0.4297  0.0152  0.3206
27296SOL    HW187980   4.175   0.510   4.762 -1.9799  0.3668 -1.1217
27296SOL    HW287981   4.150   0.592   4.887  3.0150 -0.8668  0.9431
27297SOL     OW87982   0.227   6.901   9.653 -0.2686 -0.6501 -0.2187
27297SOL    HW187983   0.262   6.943   9.574 -2.6724  0.4185 -0.7903
27297SOL    HW287984   0.278   6.939   9.724 -0.2409  0.8555 -0.9995
27298SOL     OW87985   8.481   0.734   3.691  0.7143 -0.3199 -0.1078
27298SOL    HW187986   8.390   0.750   3.716  1.4819 -0.1610  3.0128
27298SOL    HW287987   8.475   0.669   3.620 -1.8057 -0.5779  0.2415
27299SOL     OW87988   5.337   4.360   1.786 -0.0875 -0.2556 -0.4545
27299SOL    HW187989   5.242   4.365   1.795 -0.0490 -0.9674  0.5227
27299SOL    HW287990   5.351   4.294   1.718 -0.3095  1.8349 -2.6520
27300SOL     OW87991   3.848   8.854   1.112 -0.4121 -0.1998  0.1398
27300SOL    HW187992   3.832   8.778   1.057 -0.5871 -0.7984  1.0004
27300SOL    HW287993   3.842   8.821   1.201  0.2188  0.6788  0.5255
27301SOL     OW87994   6.605   6.491   9.068  0.5911 -0.2771  0.1582
27301SOL    HW187995   6.625   6.443   8.987 -0.2132 -1.2936  0.5431
27301SOL    HW287996   6.676   6.468   9.128 -0.3056 -1.8082  0.6670
27302SOL     OW87997   7.853  10.739   7.114 -0.1446  0.1153  0.3660
27302SOL    HW187998   7.768  10.782   7.126 -0.7050 -0.4806 -1.2339
27302SOL    HW287999   7.911  10.809   7.084 -0.6291  0.0975 -0.6290
27303SOL     OW88000   4.745   5.617   3.773  0.1107 -0.1933 -0.3018
27303SOL    HW188001   4.742   5.682   3.703  1.7353  0.4088  0.1400
27303SOL    HW288002   4.748   5.668   3.854  1.2206 -0.7865  0.0601
27304SOL     OW88003   8.549   9.842   3.283 -0.5167 -0.1392 -0.3760
27304SOL    HW188004   8.520   9.922   3.326 -1.0690 -0.9216  0.7725
27304SOL    HW288005   8.605   9.872   3.211 -2.6268  1.3535 -1.4817
27305SOL     OW88006   4.185   4.570  10.743  0.2490  0.0392  0.7729
27305SOL    HW188007   4.111   4.549  10.800  0.7068 -2.3684  0.5654
27305SOL    HW288008   4.148   4.569  10.655  0.2510  0.2832  0.7681
27306SOL     OW88009   1.334   8.996  10.456 -0.3982  0.0597 -0.2181
27306SOL    HW188010   1.308   9.069  10.512 -1.1134 -0.3371 -0.0192
27306SOL    HW288011   1.375   8.934  10.516 -0.4821 -0.0376 -0.2626
27307SOL     OW88012   4.974   8.780   7.982 -0.2936 -0.1386 -0.4651
27307SOL    HW188013   4.964   8.868   7.947 -1.1548 -0.0508 -0.0139
27307SOL    HW288014   4.903   8.730   7.942 -1.7036  0.1065  1.5843
27308SOL     OW88015   1.280   4.828   7.796  0.0075  0.3038  0.2355
27308SOL    HW188016   1.310   4.740   7.774  0.0517 -0.2115  2.1221
27308SOL    HW288017   1.194   4.835   7.756  0.9828  0.3463 -1.9803
27309SOL     OW88018   6.403   6.429   5.997 -0.3401  0.3349 -0.0438
27309SOL    HW188019   6.482   6.481   6.012 -1.9892  2.9523  0.1340
27309SOL    HW288020   6.383   6.443   5.904 -0.5951 -0.3129 -0.0895
27310SOL     OW88021   8.796   4.456   8.288 -0.0041  0.3239 -0.0518
27310SOL    HW188022   8.883   4.444   8.249  0.4796 -1.6666  1.5184
27310SOL    HW288023   8.798   4.546   8.322  0.9352  0.7652 -1.1876
27311SOL     OW88024   4.144   3.001   7.425  0.5518  0.5631  0.5096
27311SOL    HW188025   4.090   3.047   7.361 -1.2549 -1.2543  0.6105
27311SOL    HW288026   4.218   2.969   7.374 -0.2315  0.1988 -0.4410
27312SOL     OW88027   4.153   9.749   0.412 -0.1822 -0.2969 -0.2500
27312SOL    HW188028   4.235   9.705   0.391 -0.0962  0.1033 -0.7575
27312SOL    HW288029   4.169   9.790   0.497  0.1853 -0.1155 -0.4061
27313SOL     OW88030   1.676   8.449   5.876  0.0540  0.4057  0.1689
27313SOL    HW188031   1.581   8.455   5.883  0.0757  0.0685  0.9241
27313SOL    HW288032   1.708   8.531   5.915  0.0667  0.8419 -0.7309
27314SOL     OW88033   0.376   0.662   2.507  0.1460 -0.3853 -0.1715
27314SOL    HW188034   0.439   0.661   2.435  0.9698 -0.7002  0.5334
27314SOL    HW288035   0.398   0.741   2.557 -0.8388  0.1829 -0.6121
27315SOL     OW88036   4.434   8.155   1.939 -0.1625 -1.0054 -0.2881
27315SOL    HW188037   4.460   8.137   1.849 -0.0747  0.1709 -0.5093
27315SOL    HW288038   4.340   8.168   1.935  0.1035  1.2080 -0.6176
27316SOL     OW88039   0.067   0.995   0.437  0.0885  0.0315 -0.2016
27316SOL    HW188040   0.019   0.912   0.438 -0.9992  0.6448  1.0965
27316SOL    HW288041   0.125   0.990   0.513  1.7285 -0.4492 -1.4112
27317SOL     OW88042   2.378   2.308   5.619 -0.2408  0.1273 -0.0515
27317SOL    HW188043   2.422   2.294   5.535 -1.4683  1.3818 -0.9557
27317SOL    HW288044   2.448   2.308   5.684  1.0648  1.5421 -1.3833
27318SOL     OW88045   3.878   5.311   8.469  0.2481 -0.6598  0.0634
27318SOL    HW188046   3.810   5.376   8.481 -0.7332 -1.8023  0.9405
27318SOL    HW288047   3.960   5.359   8.481 -0.4352  0.4643  0.3702
27319SOL     OW88048   6.808   8.812   6.848 -0.8423 -1.0360 -0.4128
27319SOL    HW188049   6.794   8.856   6.932  3.6228 -0.2125  0.1349
27319SOL    HW288050   6.767   8.869   6.783 -1.4396  0.0921  0.9214
27320SOL     OW88051   7.053   3.883   6.403  0.8850  0.4316  0.1384
27320SOL    HW188052   6.962   3.913   6.401  0.8943  0.8429  2.4571
27320SOL    HW288053   7.057   3.812   6.339 -1.1494  0.2168  0.1857
27321SOL     OW88054   7.741   7.648  10.048  0.1577  0.0095  0.1834
27321SOL    HW188055   7.780   7.578  10.101  1.7700  1.0949  0.5244
27321SOL    HW288056   7.816   7.696  10.013 -0.7699  2.8773  1.7261
27322SOL     OW88057   5.049   4.170  10.438 -0.7743  0.4743 -0.1636
27322SOL    HW188058   5.063   4.264  10.447 -0.2199  0.4406 -0.6676
27322SOL    HW288059   4.963   4.155  10.478 -0.9811  1.2313 -0.3131
27323SOL     OW88060   6.980   2.117   8.576  0.0407 -0.0458 -0.1854
27323SOL    HW188061   7.023   2.066   8.644 -0.9695 -0.2204  0.3406
27323SOL    HW288062   6.918   2.172   8.623 -1.4348 -0.9245 -1.0213
27324SOL     OW88063   9.770   4.464   6.960  0.0465  0.4067 -0.3000
27324SOL    HW188064   9.832   4.400   6.925 -0.4183 -0.5671  0.5993
27324SOL    HW288065   9.747   4.430   7.046 -1.1516  1.1513 -0.3038
27325SOL     OW88066   2.046  10.855  10.771  0.3614 -0.1010 -0.4608
27325SOL    HW188067   2.136  10.884  10.786  1.3830 -1.9705 -2.5165
27325SOL    HW288068   2.001  10.933  10.739  0.8388  1.1983  1.7984
27326SOL     OW88069   4.813   6.617   5.764  0.1907  0.3115  0.7614
27326SOL    HW188070   4.887   6.626   5.824  0.4716  0.9754  0.3294
27326SOL    HW288071   4.810   6.524   5.744  0.3831  0.1500  1.4401
27327SOL     OW88072   3.439   2.804   6.847 -0.2246  0.2447  0.2532
27327SOL    HW188073   3.507   2.827   6.910  0.3025  1.8720 -0.8538
27327SOL    HW288074   3.451   2.866   6.775 -2.9060  0.6365  0.0449
27328SOL     OW88075  10.479   9.046  10.566  0.6870 -0.4258 -0.2178
27328SOL    HW188076  10.501   9.029  10.658 -0.4789 -0.4262  0.0770
27328SOL    HW288077  10.455   8.960  10.530  0.4519 -0.3183 -0.3227
27329SOL     OW88078   4.779   1.173  10.393  0.0526 -0.2687  0.3111
27329SOL    HW188079   4.840   1.105  10.422 -2.0302 -2.3263  0.2798
27329SOL    HW288080   4.733   1.200  10.473  0.7000  0.9710  0.2839
27330SOL     OW88081   7.349   3.773   3.716 -0.2217  0.2173  0.2549
27330SOL    HW188082   7.370   3.680   3.732 -1.2114  0.1769  1.5233
27330SOL    HW288083   7.431   3.811   3.684  0.1986 -1.0898 -0.2931
27331SOL     OW88084   2.576   6.210   5.407  0.7686 -0.3324 -0.1302
27331SOL    HW188085   2.536   6.230   5.492  1.0295  0.1385 -0.1118
27331SOL    HW288086   2.613   6.122   5.418  1.5688  0.0747  0.5396
27332SOL     OW88087   5.490   5.550   4.678 -0.9135 -0.1091  0.6345
27332SOL    HW188088   5.461   5.637   4.704 -1.9088 -0.6552  1.3736
27332SOL    HW288089   5.440   5.489   4.733  0.0867 -1.1406  0.4490
27333SOL     OW88090   7.044   6.730   3.992  0.5017 -0.3953 -0.7002
27333SOL    HW188091   7.088   6.644   3.993  0.2539 -0.5843  2.5064
27333SOL    HW288092   6.986   6.728   4.068 -1.9053  1.4973 -2.3552
27334SOL     OW88093   4.641   7.734   7.043  0.1508 -0.1726  0.7792
27334SOL    HW188094   4.736   7.742   7.029  0.1346 -1.2298 -0.0410
27334SOL    HW288095   4.616   7.658   6.992 -1.2407  0.3859  0.5982
27335SOL     OW88096  10.189  10.094   2.579 -0.4866  0.0663 -0.4011
27335SOL    HW188097  10.247  10.150   2.630 -0.7287  0.5087 -0.6054
27335SOL    HW288098  10.101  10.122   2.604 -0.6154  0.6171 -1.4035
27336SOL     OW88099   2.965   3.481   3.594 -0.0598  0.4909  0.0570
27336SOL    HW188100   2.920   3.542   3.653  2.2281  2.4555 -0.0982
27336SOL    HW288101   3.032   3.440   3.648 -0.0773 -0.1666 -0.4125
27337SOL     OW88102   2.605   2.275  10.155  0.0695  0.2172 -0.0577
27337SOL    HW188103   2.689   2.244  10.191 -0.7558 -3.1398 -0.7187
27337SOL    HW288104   2.539   2.226  10.204 -1.3908  0.8404 -1.3391
27338SOL     OW88105   2.858  10.113   4.295 -0.0348  0.3920 -0.1151
27338SOL    HW188106   2.810  10.177   4.348 -0.0104  1.2817 -1.1609
27338SOL    HW288107   2.936  10.159   4.265  2.2096 -1.3651  2.5235
27339SOL     OW88108   4.156   6.893   1.409 -0.1608  0.1286 -0.3104
27339SOL    HW188109   4.222   6.824   1.409  0.1099  0.3888 -0.4969
27339SOL    HW288110   4.076   6.849   1.380 -0.0744 -0.1867 -0.0725
27340SOL     OW88111   9.683   1.773   4.099 -0.0766  0.2445 -0.1055
27340SOL    HW188112   9.766   1.768   4.051 -0.7203  0.0130 -1.2313
27340SOL    HW288113   9.626   1.709   4.056 -0.6898  0.0254  0.9752
27341SOL     OW88114   7.000   1.533   0.833  0.4763  0.1936 -0.4828
27341SOL    HW188115   7.082   1.541   0.784  0.3173  0.1891 -0.7539
27341SOL    HW288116   6.932   1.529   0.766  0.3183 -0.6368 -0.2946
27342SOL     OW88117   1.206   9.871   2.404  0.7347 -0.1113  0.0323
27342SOL    HW188118   1.156   9.921   2.341 -0.8410  0.0371  1.3437
27342SOL    HW288119   1.185   9.779   2.385  2.2216 -0.2335 -1.2147
27343SOL     OW88120   2.743  10.361   9.257 -0.2381  0.4769 -0.3919
27343SOL    HW188121   2.698  10.390   9.337  0.4023  1.3130 -0.3252
27343SOL    HW288122   2.705  10.275   9.238 -1.7208  1.0604 -0.2217
27344SOL     OW88123   9.883   6.481   9.055  0.9320  0.1365  0.2953
27344SOL    HW188124   9.928   6.508   8.974 -1.1523  1.2096 -0.6084
27344SOL    HW288125   9.861   6.564   9.098  0.5941 -0.3722  1.1127
27345SOL     OW88126  10.276   7.511   0.958  0.8402 -0.0912 -0.0750
27345SOL    HW188127  10.271   7.426   1.002  0.3444 -1.0675 -1.9020
27345SOL    HW288128  10.193   7.519   0.911  2.1236 -0.1524 -2.5429
27346SOL     OW88129   0.054   5.946   6.124 -0.1248 -0.4477 -0.2865
27346SOL    HW188130   0.069   5.876   6.188 -3.5968 -0.3909  0.8070
27346SOL    HW288131   0.101   5.916   6.046 -0.6676 -3.5810  0.4233
27347SOL     OW88132   2.906   1.627   2.154 -0.1182 -0.4195 -0.5393
27347SOL    HW188133   2.954   1.664   2.080  1.1629  1.6374  1.1782
27347SOL    HW288134   2.948   1.543   2.171  0.7985 -0.0729 -1.0388
27348SOL     OW88135   4.834   5.825   6.291 -0.1731  0.4541 -0.1269
27348SOL    HW188136   4.787   5.786   6.217  0.3395  1.6174 -1.0972
27348SOL    HW288137   4.866   5.750   6.341  1.0831 -0.4454 -2.1188
27349SOL     OW88138   7.077   8.815   3.228  0.1022 -0.2453  0.3033
27349SOL    HW188139   7.001   8.767   3.193 -0.3862  1.1865 -0.6936
27349SOL    HW288140   7.078   8.793   3.321 -1.2127 -0.7229  0.2312
27350SOL     OW88141   0.898   5.551   8.012 -0.5085 -0.0810 -0.0203
27350SOL    HW188142   0.822   5.503   8.045  0.6215 -0.5623  2.1107
27350SOL    HW288143   0.898   5.633   8.061  1.1832 -0.7834  1.3070
27351SOL     OW88144   6.553   9.067  10.657 -0.3847 -0.4766  0.2213
27351SOL    HW188145   6.608   9.143  10.673 -0.1283  0.0196 -2.5138
27351SOL    HW288146   6.501   9.057  10.736  2.4506  0.0030  2.2910
27352SOL     OW88147   4.360   5.863   3.674 -1.2672  0.1635  0.5654
27352SOL    HW188148   4.300   5.881   3.601  0.9462  0.0046 -1.3936
27352SOL    HW288149   4.345   5.771   3.694 -2.2558  0.3346  0.7157
27353SOL     OW88150   1.536   3.552   2.169 -0.3435 -0.2968  0.2830
27353SOL    HW188151   1.513   3.631   2.121 -1.8329  0.1344  1.6299
27353SOL    HW288152   1.453   3.504   2.178  0.4126 -1.7057  0.0640
27354SOL     OW88153   7.214   2.744   0.021 -0.0802  0.1908 -0.2038
27354SOL    HW188154   7.189   2.739   0.113 -0.2679 -1.5924 -0.3048
27354SOL    HW288155   7.162   2.676  -0.022 -0.0770  1.0541 -1.6539
27355SOL     OW88156   3.979   7.191   7.952  0.5421 -0.2765  0.2664
27355SOL    HW188157   3.967   7.097   7.940  0.4255 -0.3686  1.0788
27355SOL    HW288158   3.936   7.211   8.035  0.4723  0.5133  0.0510
27356SOL     OW88159   2.069   3.976   0.191  0.0755 -0.2775 -0.3811
27356SOL    HW188160   2.082   4.045   0.126 -1.1180  0.0432 -0.3073
27356SOL    HW288161   2.099   4.014   0.274 -1.4678  0.5323 -0.1632
27357SOL     OW88162   0.271   5.592   7.930  0.1423  0.5364  0.3914
27357SOL    HW188163   0.326   5.659   7.970  0.1648  0.6673  0.1452
27357SOL    HW288164   0.230   5.547   8.004 -0.2303  1.1219  0.5424
27358SOL     OW88165   5.131   1.366   5.918  0.0415 -0.0479 -0.4365
27358SOL    HW188166   5.117   1.281   5.877  0.7448  0.4251 -1.7442
27358SOL    HW288167   5.206   1.354   5.975  1.6924  0.2057 -2.4349
27359SOL     OW88168   9.729   2.128   4.994 -0.2079 -0.2066  0.0943
27359SOL    HW188169   9.673   2.197   5.027 -0.3509 -0.3954  0.2507
27359SOL    HW288170   9.684   2.047   5.018  2.2845 -0.6222  4.3784
27360SOL     OW88171   4.977   2.071   8.301 -0.1591  0.2627 -0.1908
27360SOL    HW188172   5.016   2.141   8.355 -2.7522  1.1779  0.6833
27360SOL    HW288173   4.980   2.105   8.212  1.1964  0.1800 -0.2028
27361SOL     OW88174   2.700   4.555   2.242 -0.4533  0.0381 -0.0734
27361SOL    HW188175   2.633   4.517   2.300 -0.3591  1.3819  0.9847
27361SOL    HW288176   2.672   4.646   2.231  1.5335  0.8422  0.9617
27362SOL     OW88177   3.564   0.049   9.327  0.0126  0.3909  0.7988
27362SOL    HW188178   3.572   0.118   9.393  1.9337 -0.6211  1.7254
27362SOL    HW288179   3.598   0.088   9.247 -0.0420  0.9013  1.0186
27363SOL     OW88180   9.787   8.039   2.126  0.2657  0.3994  0.0611
27363SOL    HW188181   9.695   8.063   2.138 -0.8615 -3.1752 -0.1246
27363SOL    HW288182   9.825   8.043   2.213 -0.6987 -0.1919  0.5191
27364SOL     OW88183   8.174   7.995   9.187  0.1801 -0.0627  0.1065
27364SOL    HW188184   8.260   7.957   9.205  0.3397  0.9805  1.7572
27364SOL    HW288185   8.166   7.991   9.092  2.4970  0.7047 -0.1977
27365SOL     OW88186   3.680   8.223   0.739  0.3370 -0.0067 -0.2498
27365SOL    HW188187   3.768   8.184   0.730  0.9634  1.6145 -1.4911
27365SOL    HW288188   3.644   8.180   0.817  2.2678 -0.6452  0.3697
27366SOL     OW88189   9.289   8.246   5.795  0.3739  0.3671  0.3760
27366SOL    HW188190   9.245   8.258   5.711  1.0368  1.4865  0.1709
27366SOL    HW288191   9.327   8.158   5.790 -0.1666  0.1600 -0.2116
27367SOL     OW88192   8.426   2.265   7.722  0.6215  0.5446  0.1115
27367SOL    HW188193   8.340   2.276   7.680  0.2741  1.2401  0.9531
27367SOL    HW288194   8.407   2.273   7.816  1.4530 -0.4268  0.3713
27368SOL     OW88195   0.660   7.399   4.964  0.1428  1.0544 -0.0645
27368SOL    HW188196   0.690   7.455   4.892  4.5119 -2.4963 -1.4296
27368SOL    HW288197   0.590   7.347   4.925 -0.2879  1.8742 -0.4305
27369SOL     OW88198   3.860   7.950   1.116 -0.0244  0.0480  0.7045
27369SOL    HW188199   3.800   7.909   1.179  0.3289 -0.5227  0.6744
27369SOL    HW288200   3.870   8.040   1.148  0.5360 -0.3729  1.7606
27370SOL     OW88201   3.696   6.917   7.718 -0.2380  0.1639  0.0877
27370SOL    HW188202   3.744   6.908   7.801 -0.2263 -1.1787 -0.0445
27370SOL    HW288203   3.673   7.010   7.714 -1.0211  0.1142  2.0423
27371SOL     OW88204   3.938   6.131   8.926 -0.0860 -0.5582 -0.3986
27371SOL    HW188205   3.962   6.057   8.870 -1.4520 -0.6673 -0.8739
27371SOL    HW288206   3.915   6.090   9.010 -0.0212 -0.5960 -0.3989
27372SOL     OW88207   4.198   9.369   8.945 -0.1930 -0.3105  0.1972
27372SOL    HW188208   4.241   9.449   8.975 -2.0304  0.3720  1.2058
27372SOL    HW288209   4.110   9.398   8.920  0.2305 -1.4253 -2.9554
27373SOL     OW88210   3.852   2.458   9.532  0.1142  0.0087 -0.9986
27373SOL    HW188211   3.800   2.460   9.613  1.8592 -0.1941  0.1992
27373SOL    HW288212   3.795   2.414   9.469 -1.2787  0.0825  0.1331
27374SOL     OW88213   3.511   8.813   5.289 -0.2268 -0.0621 -0.1667
27374SOL    HW188214   3.584   8.756   5.267 -1.1144 -0.9251 -0.9609
27374SOL    HW288215   3.442   8.754   5.320 -1.5514  0.3969 -2.0278
27375SOL     OW88216  10.196  10.563   8.251 -0.1699  0.0627  0.1413
27375SOL    HW188217  10.216  10.471   8.234 -0.9538 -0.2430  0.8397
27375SOL    HW288218  10.185  10.568   8.346  0.5003  1.0126  0.1822
27376SOL     OW88219   7.345   7.011   6.402  0.3779  0.3032 -0.1827
27376SOL    HW188220   7.380   7.023   6.490 -2.6612  1.1790  1.0568
27376SOL    HW288221   7.340   6.916   6.391  0.7434  0.1815  0.6223
27377SOL     OW88222   2.389   5.414  10.306  0.0278 -0.4962  0.2226
27377SOL    HW188223   2.355   5.384  10.223 -0.3157 -1.6452  0.7633
27377SOL    HW288224   2.314   5.451  10.352 -0.3561 -2.2283  1.0562
27378SOL     OW88225  10.030   8.877   4.631  0.1833  0.1313  0.0631
27378SOL    HW188226  10.022   8.782   4.623 -0.9776  0.1994  0.2538
27378SOL    HW288227  10.018   8.910   4.542  0.4154  0.1078  0.0234
27379SOL     OW88228   6.616   6.444   8.794 -0.4257 -0.1365  0.7906
27379SOL    HW188229   6.660   6.471   8.713 -0.1256  0.1346  1.0404
27379SOL    HW288230   6.541   6.504   8.801 -0.8218 -0.5697  0.3891
27380SOL     OW88231   6.358   2.041   9.940 -0.5124  0.2708 -0.2484
27380SOL    HW188232   6.402   1.995  10.011 -1.4765  0.6964  0.6537
27380SOL    HW288233   6.275   1.995   9.929 -0.0788 -0.2104 -1.5728
27381SOL     OW88234   6.449  10.218   9.293  0.4688 -0.1782 -0.3222
27381SOL    HW188235   6.357  10.236   9.312  0.3878 -0.6200 -0.2771
27381SOL    HW288236   6.455  10.218   9.197 -0.0152 -2.1358 -0.4092
27382SOL     OW88237   8.904   3.732   6.721  0.2727  0.0597 -0.1057
27382SOL    HW188238   8.892   3.710   6.629  0.2229  0.6257 -0.2354
27382SOL    HW288239   8.874   3.822   6.729  0.4990  0.0945  0.4166
27383SOL     OW88240   3.081   2.012   0.805  0.1499  0.0076 -0.0636
27383SOL    HW188241   3.063   1.977   0.892 -3.5282 -1.0934 -1.0972
27383SOL    HW288242   3.094   2.106   0.819  0.7416 -0.3007  1.7360
27384SOL     OW88243   1.148  10.510  10.329 -0.5925 -0.3590  0.3331
27384SOL    HW188244   1.094  10.569  10.382 -0.3587  0.0796  0.0981
27384SOL    HW288245   1.102  10.505  10.245 -1.6714 -2.1062  0.9720
27385SOL     OW88246   3.872   0.730  10.060  0.2613  0.5768  0.5146
27385SOL    HW188247   3.944   0.792  10.062  1.0748 -0.1870 -1.8313
27385SOL    HW288248   3.911   0.648  10.031 -1.4094 -0.0637 -0.0687
27386SOL     OW88249  10.445   4.860  10.123  0.0857 -0.5303 -0.4450
27386SOL    HW188250  10.396   4.844  10.204  3.0359  1.0446  1.8851
27386SOL    HW288251  10.492   4.779  10.107 -0.7007 -0.9322 -0.7428
27387SOL     OW88252   9.046   2.730   1.819  0.1198 -0.0090 -0.0321
27387SOL    HW188253   8.990   2.652   1.827 -2.1877  1.3866 -1.4364
27387SOL    HW288254   9.095   2.716   1.739  0.0676 -0.2294 -0.0273
27388SOL     OW88255   6.631   2.294   4.488  0.2198 -0.3962 -0.1197
27388SOL    HW188256   6.651   2.237   4.413 -0.6408 -1.2483  0.2772
27388SOL    HW288257   6.536   2.300   4.489  0.2145 -0.4469  0.9385
27389SOL     OW88258   8.315   5.018   8.251 -0.4910 -0.1991 -0.2461
27389SOL    HW188259   8.283   4.970   8.328  0.6894  0.7496  0.8804
27389SOL    HW288260   8.363   4.952   8.200  3.5345  0.1182  2.6601
27390SOL     OW88261   5.597   5.471   7.294 -0.2115 -0.4361  0.4665
27390SOL    HW188262   5.674   5.523   7.273 -1.2384  1.0021  0.1661
27390SOL    HW288263   5.605   5.452   7.387  0.3608 -0.0612  0.4938
27391SOL     OW88264   6.464   8.889   2.393 -0.0002 -0.2985 -0.4374
27391SOL    HW188265   6.452   8.795   2.388  1.4828 -0.5250 -0.2910
27391SOL    HW288266   6.521   8.902   2.469 -1.2845  0.8531  0.3869
27392SOL     OW88267   5.119   3.071   1.348  0.4522  0.1169 -0.1614
27392SOL    HW188268   5.066   3.150   1.354  2.7835  1.7540  0.4328
27392SOL    HW288269   5.178   3.076   1.424 -1.0210 -3.6063  1.4777
27393SOL     OW88270   7.917   8.887   5.237 -0.5547 -0.1747 -0.4534
27393SOL    HW188271   7.854   8.856   5.172  0.1403  2.0691 -2.3204
27393SOL    HW288272   8.001   8.888   5.190  0.2208  0.3007  0.8880
27394SOL     OW88273   1.306   4.345  10.122 -0.0148  0.5036 -0.4383
27394SOL    HW188274   1.233   4.371  10.179 -1.0419 -0.8724 -1.0518
27394SOL    HW288275   1.354   4.426  10.106 -0.6943  1.2348  0.9825
27395SOL     OW88276   4.345   5.740   0.397 -0.4948  0.0426 -0.1655
27395SOL    HW188277   4.383   5.711   0.314  2.6271  1.0916  0.7449
27395SOL    HW288278   4.303   5.823   0.377  0.4429  0.4021 -0.6973
27396SOL     OW88279   6.260   0.518   0.554  0.0751 -0.1061  0.0439
27396SOL    HW188280   6.193   0.576   0.591  1.3338  1.4105  0.0915
27396SOL    HW288281   6.325   0.510   0.624  0.4731 -0.6313 -0.3784
27397SOL     OW88282   6.032   7.381   6.647 -0.0281  0.2565  0.8457
27397SOL    HW188283   6.025   7.362   6.554 -0.1790  0.5547  0.7944
27397SOL    HW288284   5.948   7.420   6.670  0.5291  1.5614  0.7734
27398SOL     OW88285   8.746   0.092  10.161 -0.2859  0.0572 -0.2234
27398SOL    HW188286   8.829   0.045  10.161 -0.4735 -0.3567 -1.8056
27398SOL    HW288287   8.770   0.183  10.141 -0.2568 -0.2691 -1.8400
27399SOL     OW88288   8.060   4.765   0.634  0.2973  0.1541 -0.3393
27399SOL    HW188289   8.144   4.803   0.612  0.2779  1.0031  0.9854
27399SOL    HW288290   7.997   4.810   0.577  0.6256  0.0840 -0.7605
27400SOL     OW88291   4.531   1.468   6.314  0.3784  0.2262 -0.2141
27400SOL    HW188292   4.516   1.410   6.239  0.6693 -1.5127  1.0307
27400SOL    HW288293   4.477   1.545   6.295  0.0156 -0.4016 -1.9337
27401SOL     OW88294   6.428   5.949   6.852 -0.4745  0.1006 -0.0353
27401SOL    HW188295   6.441   5.900   6.933 -3.4183 -1.2948 -0.2614
27401SOL    HW288296   6.359   6.013   6.873 -2.3191 -1.2174 -1.6770
27402SOL     OW88297   3.719   5.193   6.559 -0.6115  0.8229  0.3397
27402SOL    HW188298   3.748   5.103   6.542 -2.2678 -0.2343  2.5574
27402SOL    HW288299   3.796   5.247   6.541  0.9239 -1.1907  0.4375
27403SOL     OW88300   2.605   1.062   0.420  0.8576  0.6168  0.5416
27403SOL    HW188301   2.563   1.037   0.502 -0.3435 -1.0920 -0.5332
27403SOL    HW288302   2.675   0.999   0.408  1.7270  1.5138  0.7394
27404SOL     OW88303   1.676   8.966   9.729 -0.4586  0.0855 -0.1898
27404SOL    HW188304   1.670   8.984   9.823 -0.9275  0.6582 -0.3236
27404SOL    HW288305   1.585   8.965   9.699 -0.2696  0.7185 -0.7856
27405SOL     OW88306   6.498   0.619   7.817 -0.7982 -0.2308  0.1585
27405SOL    HW188307   6.409   0.621   7.783 -0.1599  2.1544 -1.6306
27405SOL    HW288308   6.554   0.614   7.740  0.6757 -1.3561  1.2282
27406SOL     OW88309   5.320   9.351   1.930 -0.2331 -0.1019  0.2251
27406SOL    HW188310   5.374   9.278   1.962  0.7260  0.8269  0.7905
27406SOL    HW288311   5.237   9.342   1.978 -0.0562 -0.7109  0.4295
27407SOL     OW88312   4.143   4.546   5.384  0.6501 -0.0748  0.2263
27407SOL    HW188313   4.216   4.512   5.437  0.0841  0.5386  1.4391
27407SOL    HW288314   4.079   4.575   5.449 -0.9024 -1.0690 -0.8165
27408SOL     OW88315   6.193   6.509   0.644 -0.1483 -0.0673 -0.6511
27408SOL    HW188316   6.203   6.584   0.703 -0.9499  0.0651 -0.6614
27408SOL    HW288317   6.200   6.546   0.556  2.2954 -0.4555 -0.6638
27409SOL     OW88318   0.730   8.302   6.523 -0.2265  0.4280  0.0017
27409SOL    HW188319   0.816   8.320   6.485  0.7682  0.4453  2.0789
27409SOL    HW288320   0.680   8.261   6.453  1.6970 -0.1889 -1.0818
27410SOL     OW88321   7.546  10.627   6.003  0.1960 -0.3592  0.6554
27410SOL    HW188322   7.555  10.652   6.095  0.6578 -0.2632  0.5891
27410SOL    HW288323   7.637  10.621   5.971  0.0493 -0.7775  0.3102
27411SOL     OW88324   1.612  10.647   1.880  0.3966 -0.3878 -0.0098
27411SOL    HW188325   1.607  10.665   1.787  1.5045 -0.5246 -0.1130
27411SOL    HW288326   1.627  10.733   1.921 -1.5600 -0.0971  0.2183
27412SOL     OW88327   2.687   3.461   8.856  0.0556 -0.0164  0.0794
27412SOL    HW188328   2.618   3.431   8.797  0.0353  0.9464 -0.4081
27412SOL    HW288329   2.671   3.414   8.938 -3.0235  2.2976  0.9985
27413SOL     OW88330   5.542   3.606   9.677 -0.1256 -0.2463  0.1054
27413SOL    HW188331   5.505   3.542   9.617 -2.9263  1.1109  0.1962
27413SOL    HW288332   5.542   3.688   9.627  0.7013  0.2476  0.8851
27414SOL     OW88333   2.175   1.306   7.120  0.0415 -0.3378 -0.4533
27414SOL    HW188334   2.085   1.334   7.100  0.2642  0.5944 -0.2325
27414SOL    HW288335   2.217   1.300   7.034  0.0595  0.2994 -0.4962
27415SOL     OW88336  10.742   3.473   2.037 -0.0452  0.1895  0.0028
27415SOL    HW188337  10.720   3.515   1.954  1.8014  1.4789  0.1000
27415SOL    HW288338  10.808   3.408   2.013  1.2895  1.2986  0.5492
27416SOL     OW88339   5.431   7.229   9.088 -0.1445  0.2069  0.1358
27416SOL    HW188340   5.393   7.210   9.002 -1.3784 -1.1270  0.9334
27416SOL    HW288341   5.429   7.324   9.094 -1.2404  0.2720 -0.8028
27417SOL     OW88342   8.998   9.769   5.245 -0.1206 -0.6753  0.2673
27417SOL    HW188343   8.964   9.855   5.223  1.7613 -0.0476 -0.3439
27417SOL    HW288344   8.989   9.763   5.340 -0.7573 -0.0326  0.2522
27418SOL     OW88345   6.024   8.062   3.760  0.0281  0.5911 -0.4402
27418SOL    HW188346   5.929   8.061   3.744  0.0244  0.7006 -0.4303
27418SOL    HW288347   6.063   8.066   3.673  0.0897 -1.6770 -0.5701
27419SOL     OW88348   5.113   4.904  10.730  0.1379  0.1088  0.3774
27419SOL    HW188349   5.160   4.826  10.702  0.6857  0.2922  0.7605
27419SOL    HW288350   5.165   4.977  10.695  0.3084  0.3208  1.0490
27420SOL     OW88351   1.612  10.796   5.384  0.0426 -0.0901  0.2192
27420SOL    HW188352   1.597  10.885   5.417 -0.4400  0.1455 -0.6306
27420SOL    HW288353   1.701  10.799   5.348 -0.3405  0.3352 -0.7183
27421SOL     OW88354   7.393   5.804   6.980  0.1498 -0.4316  0.2122
27421SOL    HW188355   7.454   5.851   7.037 -0.9489  1.8362 -0.3592
27421SOL    HW288356   7.431   5.812   6.892 -1.6126  2.4119 -0.4130
27422SOL     OW88357   7.230   0.896   2.358  0.0997  0.3126 -0.3210
27422SOL    HW188358   7.196   0.977   2.320  0.4847  1.1179  0.9867
27422SOL    HW288359   7.318   0.919   2.387  0.7954 -1.0139 -1.3020
27423SOL     OW88360   6.841   5.734   3.596 -0.2067 -0.2797  0.0553
27423SOL    HW188361   6.845   5.653   3.545 -2.1218 -0.6153  0.3404
27423SOL    HW288362   6.873   5.802   3.537  0.1161 -1.0537 -0.6728
27424SOL     OW88363   5.876   2.750   2.500  0.3486  0.5201 -0.2755
27424SOL    HW188364   5.895   2.768   2.408  1.7808 -0.6065 -0.2222
27424SOL    HW288365   5.822   2.672   2.499 -0.4193  1.0376 -0.1865
27425SOL     OW88366   7.319   3.168   2.824 -0.0215 -0.0442 -0.1882
27425SOL    HW188367   7.261   3.098   2.852 -0.2651  0.6598  1.1486
27425SOL    HW288368   7.405   3.128   2.817  0.1065 -0.2285  1.8671
27426SOL     OW88369   4.433  10.031   8.132 -0.7486 -0.3231  0.1395
27426SOL    HW188370   4.403  10.038   8.223  0.4757  0.4296  0.5208
27426SOL    HW288371   4.472  10.117   8.114 -0.7374 -0.5610 -1.0090
27427SOL     OW88372   0.983   9.764   0.351 -0.2996  0.7284 -0.3821
27427SOL    HW188373   0.994   9.670   0.362  0.5534  0.8664  0.0433
27427SOL    HW288374   1.014   9.783   0.263  2.0652  0.9620  0.4389
27428SOL     OW88375   8.155   7.432   5.428 -0.8284  0.5742  0.1135
27428SOL    HW188376   8.071   7.401   5.462 -1.1137  0.3183 -0.7913
27428SOL    HW288377   8.168   7.382   5.347 -0.0315  0.9558 -0.0060
27429SOL     OW88378   5.420  10.666   2.032  0.3232  0.0278  0.5231
27429SOL    HW188379   5.377  10.727   1.972 -0.0465  0.2348  0.9895
27429SOL    HW288380   5.386  10.689   2.119 -0.2042 -1.1615  0.6551
27430SOL     OW88381   7.030   7.740  10.414  0.3465 -0.4020 -0.0159
27430SOL    HW188382   6.972   7.727  10.489  1.1607 -1.3962  0.4684
27430SOL    HW288383   7.029   7.657  10.367  2.6254 -1.0669  0.9421
27431SOL     OW88384   7.565   0.367   0.901  0.1290  0.2266 -0.8995
27431SOL    HW188385   7.472   0.366   0.881 -0.3799  1.6589  1.1011
27431SOL    HW288386   7.570   0.340   0.993  1.6116  0.9226 -0.7480
27432SOL     OW88387   6.787   6.715   6.417 -0.1250  0.0486 -0.2164
27432SOL    HW188388   6.738   6.745   6.341 -1.5525 -0.3948  0.5010
27432SOL    HW288389   6.776   6.620   6.417  0.6633 -0.0503  0.0153
27433SOL     OW88390   3.844   9.714   3.910 -0.0340 -0.4270 -0.2240
27433SOL    HW188391   3.766   9.682   3.864 -0.5231  1.4360 -0.8018
27433SOL    HW288392   3.900   9.749   3.841 -0.6532  2.1636  0.4505
27434SOL     OW88393   6.998   4.024   7.553  0.3694  0.1687 -0.1620
27434SOL    HW188394   6.995   4.013   7.458  1.2852 -1.7920 -0.0063
27434SOL    HW288395   6.914   4.064   7.575 -1.0366 -1.8531 -1.5347
27435SOL     OW88396   9.069   4.646   0.752  0.2101  0.2286 -0.4545
27435SOL    HW188397   9.043   4.737   0.758 -0.9765 -0.1849  1.2842
27435SOL    HW288398   8.986   4.598   0.748  0.6947 -0.9295  1.8099
27436SOL     OW88399   4.560   2.294   2.868 -0.0375 -0.0306 -0.3545
27436SOL    HW188400   4.540   2.343   2.788 -1.0392  2.2874  1.1819
27436SOL    HW288401   4.529   2.351   2.939  1.5910 -1.5750  1.7333
27437SOL     OW88402   8.064   0.675   6.446  0.2365  0.2005  0.2644
27437SOL    HW188403   8.095   0.674   6.537 -0.8880  1.1021  0.6772
27437SOL    HW288404   7.976   0.712   6.451 -0.6449 -1.6180 -0.9685
27438SOL     OW88405   9.583   0.123   0.057  0.6696 -0.2744  0.1826
27438SOL    HW188406   9.557   0.068  -0.016 -0.8459  0.4455  0.1496
27438SOL    HW288407   9.677   0.109   0.065  1.0709  0.3213 -2.5011
27439SOL     OW88408   8.573   0.733   8.592  0.4102 -0.3004  0.0458
27439SOL    HW188409   8.558   0.805   8.531 -1.5258  0.2082  1.0429
27439SOL    HW288410   8.577   0.655   8.537 -2.3160  0.0078 -0.7139
27440SOL     OW88411   8.164   5.217   7.431 -0.1478 -0.2247  0.2934
27440SOL    HW188412   8.233   5.169   7.476 -0.4710  0.8670  2.0960
27440SOL    HW288413   8.204   5.302   7.411 -0.2363 -0.4473 -0.9141
27441SOL     OW88414   8.975   8.293   9.805  0.2669  0.4440 -0.3227
27441SOL    HW188415   9.036   8.219   9.798 -0.1870  0.0738 -0.4099
27441SOL    HW288416   8.996   8.349   9.731 -1.8151 -1.4209 -2.4548
27442SOL     OW88417   8.082  10.141   5.053 -0.6014 -0.2421 -0.2111
27442SOL    HW188418   7.994  10.104   5.047 -0.4912 -0.4710 -0.4071
27442SOL    HW288419   8.083  10.188   5.137  0.1383 -3.0128  1.4403
27443SOL     OW88420   0.058   3.455   2.213  0.1563  0.5742 -0.2184
27443SOL    HW188421  -0.012   3.507   2.175 -1.6631 -1.8919 -0.4808
27443SOL    HW288422   0.130   3.459   2.150 -0.6535  1.1802 -1.1108
27444SOL     OW88423   9.867   2.204   8.917 -0.0285  0.1722 -0.0460
27444SOL    HW188424   9.912   2.226   8.999 -0.7002  0.1416  0.3320
27444SOL    HW288425   9.870   2.285   8.866  0.5451  0.1417 -0.0708
27445SOL     OW88426   4.184   7.036   1.774  0.3313  0.3941  0.3686
27445SOL    HW188427   4.148   6.948   1.770  1.8095 -0.1752 -1.4313
27445SOL    HW288428   4.279   7.024   1.772  0.5762  2.0404 -1.8790
27446SOL     OW88429   7.006   4.555  10.073 -0.4267  0.3667 -0.2884
27446SOL    HW188430   7.006   4.507   9.991 -1.4061  0.2413 -0.2232
27446SOL    HW288431   6.976   4.643  10.050 -0.7584  0.3160 -0.0608
27447SOL     OW88432   5.847   7.577   9.672  0.3478  0.0512  0.0989
27447SOL    HW188433   5.926   7.551   9.624  0.1454  0.2406 -0.3456
27447SOL    HW288434   5.801   7.636   9.612  0.9593  1.7206  1.2021
27448SOL     OW88435   8.527   0.839   6.363 -0.1658  0.3559  0.5151
27448SOL    HW188436   8.600   0.847   6.301  0.1636 -1.4224  0.6122
27448SOL    HW288437   8.561   0.875   6.445  0.5392 -0.2358  0.4941
27449SOL     OW88438   5.717   5.893   3.175  0.2783 -0.2543  0.1432
27449SOL    HW188439   5.640   5.948   3.162 -0.0303 -0.7103  0.0115
27449SOL    HW288440   5.681   5.807   3.199  0.7616  0.1630  2.6794
27450SOL     OW88441   7.724   9.123   3.227  0.1623 -0.6454  0.1315
27450SOL    HW188442   7.773   9.143   3.307 -0.7653 -2.4101  1.2153
27450SOL    HW288443   7.680   9.040   3.246 -2.2351  0.2094 -1.2231
27451SOL     OW88444   6.042  10.528   3.255  0.7348 -0.1418 -0.0975
27451SOL    HW188445   5.972  10.468   3.281 -1.1445  2.3409  1.0144
27451SOL    HW288446   6.113  10.509   3.317  0.3792 -1.4641 -0.0563
27452SOL     OW88447   0.330   3.608   2.502 -0.3294  0.0282 -0.2011
27452SOL    HW188448   0.318   3.523   2.457 -0.2272  0.2371 -0.6332
27452SOL    HW288449   0.421   3.632   2.482  0.3181 -0.7444  1.6495
27453SOL     OW88450   5.709  10.148   4.799  0.1008 -0.3700  0.7563
27453SOL    HW188451   5.780  10.084   4.790 -0.0010 -0.5119  0.9421
27453SOL    HW288452   5.740  10.225   4.752 -0.3985 -1.0628 -0.7656
27454SOL     OW88453   1.819   4.489   7.349  0.0498 -0.5128 -0.0515
27454SOL    HW188454   1.814   4.584   7.351 -0.1614 -0.4913 -0.9225
27454SOL    HW288455   1.804   4.461   7.439 -1.1777  0.2176 -0.0179
27455SOL     OW88456   4.779   6.756   7.183 -0.2289  0.2444  0.1647
27455SOL    HW188457   4.833   6.793   7.253 -0.8342 -0.4960  1.0596
27455SOL    HW288458   4.841   6.724   7.118  0.3496  0.9072  0.3821
27456SOL     OW88459   9.967   5.695   0.351  0.2701  0.0295 -0.0216
27456SOL    HW188460   9.939   5.786   0.339  0.5425  0.0354 -0.6523
27456SOL    HW288461  10.013   5.696   0.435 -1.0155  0.1529  0.7115
27457SOL     OW88462   2.813  10.297   9.899  0.0321 -0.6263 -0.3761
27457SOL    HW188463   2.776  10.272   9.814  0.0801  0.7398 -0.8227
27457SOL    HW288464   2.739  10.297   9.959 -0.3383  0.1553 -0.8257
27458SOL     OW88465   1.762   6.606   4.482  0.1005  0.2272  0.1822
27458SOL    HW188466   1.787   6.665   4.553 -1.5342  0.4564  0.6114
27458SOL    HW288467   1.697   6.548   4.520 -1.6836  1.0906 -1.3762
27459SOL     OW88468   9.515   9.347   6.873  0.5107 -0.5500 -0.2246
27459SOL    HW188469   9.585   9.393   6.826  0.2488 -1.0583 -1.1470
27459SOL    HW288470   9.511   9.390   6.958  0.3608  1.0473 -1.0074
27460SOL     OW88471   5.317   2.624   1.638 -0.0886  0.3526  0.0394
27460SOL    HW188472   5.290   2.714   1.656  0.9912  0.6597  0.1506
27460SOL    HW288473   5.364   2.629   1.554  0.8463  0.0740  0.5331
27461SOL     OW88474   7.935   5.630  10.177  0.4176 -0.2539  0.2086
27461SOL    HW188475   7.899   5.615  10.089  0.6207  1.6248 -0.2308
27461SOL    HW288476   7.985   5.550  10.195 -0.2600 -1.0068 -1.0480
27462SOL     OW88477   9.146   2.431   6.570  0.0149 -0.0645 -0.0548
27462SOL    HW188478   9.179   2.505   6.520  0.7156 -0.3837 -0.0843
27462SOL    HW288479   9.062   2.409   6.529  1.0106 -0.9418 -1.7473
27463SOL     OW88480   5.335   8.025   2.280 -0.2083 -0.0429 -0.4733
27463SOL    HW188481   5.297   8.023   2.193 -0.2726 -1.0089 -0.4407
27463SOL    HW288482   5.277   7.970   2.333 -1.0407  1.7404  0.5655
27464SOL     OW88483   4.700   9.975   2.865  0.4723  0.3782  0.1170
27464SOL    HW188484   4.616  10.017   2.885  0.7611  0.8223  0.4366
27464SOL    HW288485   4.743   9.968   2.950  1.2516  1.2410 -0.1916
27465SOL     OW88486   1.277   7.698   2.857  0.1559  0.2997  0.1864
27465SOL    HW188487   1.251   7.664   2.943 -0.5427  0.8238  0.1965
27465SOL    HW288488   1.211   7.664   2.797  1.1046 -0.7390 -0.2902
27466SOL     OW88489   6.137   4.481   4.498 -0.3816 -0.0832 -0.0255
27466SOL    HW188490   6.175   4.536   4.567  2.8643 -0.6129 -1.2220
27466SOL    HW288491   6.134   4.394   4.537 -0.4341 -0.0247  0.1034
27467SOL     OW88492   2.246   3.628   5.881 -0.1888 -0.5315  0.4729
27467SOL    HW188493   2.305   3.581   5.939 -0.2337 -0.3452  0.6678
27467SOL    HW288494   2.299   3.647   5.803 -0.1008 -0.6893  0.4943
27468SOL     OW88495   2.115   9.975   1.395  0.4888 -0.3812  0.2359
27468SOL    HW188496   2.052   9.962   1.325  1.5177 -0.7288 -0.6417
27468SOL    HW288497   2.185   9.912   1.378  0.5154 -0.8545  1.8794
27469SOL     OW88498   5.561   4.559   8.622  0.1294  0.0658  0.3518
27469SOL    HW188499   5.522   4.621   8.684  0.1751  0.9070 -0.4412
27469SOL    HW288500   5.643   4.532   8.664 -0.7017 -0.8188  1.4955
27470SOL     OW88501   6.510   9.045   0.598 -0.4764 -0.5121 -0.3746
27470SOL    HW188502   6.557   8.987   0.658  2.0699  2.4826  0.7842
27470SOL    HW288503   6.570   9.057   0.525 -0.6639  1.0872 -0.2883
27471SOL     OW88504   4.968   6.945   2.202  0.5834  0.2609 -0.0641
27471SOL    HW188505   4.994   6.900   2.121 -0.2481  1.7657 -1.2098
27471SOL    HW288506   4.873   6.953   2.195  0.6210  1.3647  0.5583
27472SOL     OW88507  10.083   1.318   2.989 -0.0889 -0.2569 -0.0025
27472SOL    HW188508  10.134   1.345   2.912 -0.7809  0.0795 -0.3441
27472SOL    HW288509  10.126   1.238   3.019  0.8506  0.2014 -0.0847
27473SOL     OW88510   6.193   9.413   6.642  1.0006 -0.2023  0.7191
27473SOL    HW188511   6.187   9.320   6.662  0.5399 -0.3835 -0.2039
27473SOL    HW288512   6.108   9.449   6.667  0.3196 -0.4811 -1.0572
27474SOL     OW88513   5.207   9.485   1.042  0.3433 -0.2047 -0.0573
27474SOL    HW188514   5.166   9.426   0.979  0.4133 -0.5640  0.2381
27474SOL    HW288515   5.301   9.473   1.029  0.3579 -0.2082  0.0477
27475SOL     OW88516  10.527   5.571   9.138  0.5459  0.6548 -0.3907
27475SOL    HW188517  10.472   5.640   9.100 -0.0608  0.4960  0.1841
27475SOL    HW288518  10.564   5.526   9.062 -2.2122 -0.9357 -0.9551
27476SOL     OW88519   5.929   0.326   7.961 -0.3845 -0.4040 -0.1298
27476SOL    HW188520   5.942   0.263   7.890 -1.5915 -0.8199 -0.0250
27476SOL    HW288521   5.841   0.305   7.994  0.2933 -0.4834  1.7346
27477SOL     OW88522   0.941   1.208   2.882  0.4050  0.1142  0.4833
27477SOL    HW188523   0.923   1.185   2.791 -1.1881 -2.1015  1.2775
27477SOL    HW288524   1.033   1.184   2.894 -0.2020 -2.7612  0.2408
27478SOL     OW88525   6.019   1.543  10.103 -0.2879  0.0734 -0.1747
27478SOL    HW188526   5.985   1.530  10.014 -1.8906 -1.3976  0.5874
27478SOL    HW288527   5.968   1.616  10.137  0.9639  1.2523 -0.7150
27479SOL     OW88528   9.983   2.597  10.641  0.5338  0.5364  0.6580
27479SOL    HW188529   9.944   2.682  10.623  0.9535  0.6790  0.4077
27479SOL    HW288530   9.917   2.550  10.691  0.2611  0.9737  0.7103
27480SOL     OW88531   1.970   7.197   8.799  0.1547 -0.3654 -0.3494
27480SOL    HW188532   2.017   7.160   8.874  0.0457  0.2964  0.0538
27480SOL    HW288533   1.884   7.155   8.802  0.4495 -1.0027 -0.6337
27481SOL     OW88534   7.469   2.031   5.433  0.2008  0.2116  0.3941
27481SOL    HW188535   7.438   2.109   5.386 -0.3232  0.4581  1.1406
27481SOL    HW288536   7.431   1.958   5.384  0.0711  0.4460  0.1399
27482SOL     OW88537   5.640   9.387   0.619  0.3700  0.6392 -0.7195
27482SOL    HW188538   5.694   9.392   0.698 -0.2339  0.6500 -0.3070
27482SOL    HW288539   5.585   9.465   0.622 -1.3266 -0.5267  0.0796
27483SOL     OW88540   5.402   4.888   5.935  1.2688 -0.5196 -0.3566
27483SOL    HW188541   5.392   4.929   6.021  0.9493 -0.1647 -0.5595
27483SOL    HW288542   5.312   4.867   5.908  1.3316 -0.2034 -0.8105
27484SOL     OW88543   5.498   5.406   5.941  0.3661  0.2955  0.1335
27484SOL    HW188544   5.498   5.401   6.037  3.4246  1.0113  0.2719
27484SOL    HW288545   5.540   5.325   5.912 -1.4037 -0.3704 -0.7201
27485SOL     OW88546   6.838   8.161   3.511  0.5044 -0.5943  0.6316
27485SOL    HW188547   6.890   8.142   3.589  1.4045  0.8651  0.4115
27485SOL    HW288548   6.819   8.255   3.517 -1.3803 -0.9107  0.2560
27486SOL     OW88549   6.214  10.419   9.626 -0.1038  0.3331  0.1372
27486SOL    HW188550   6.272  10.343   9.613 -0.1756  0.3339 -0.2226
27486SOL    HW288551   6.237  10.479   9.555 -0.4733  0.3776  0.0515
27487SOL     OW88552   5.218   6.348   7.047 -0.4782  0.5603  0.0554
27487SOL    HW188553   5.155   6.362   6.977  1.7694  0.7580 -2.0610
27487SOL    HW288554   5.241   6.256   7.041  0.5027  0.8086 -0.2001
27488SOL     OW88555   4.256  10.790   8.257 -0.3145 -0.4039  0.5167
27488SOL    HW188556   4.207  10.759   8.333  0.0330 -0.2521  0.8005
27488SOL    HW288557   4.318  10.854   8.292 -1.8179  1.5624 -0.2018
27489SOL     OW88558   5.788   4.974   4.745 -0.5130  0.8135 -0.1003
27489SOL    HW188559   5.828   4.915   4.682  1.3313  1.1942  0.6567
27489SOL    HW288560   5.832   4.955   4.828  1.5247  4.3498 -0.1513
27490SOL     OW88561   7.561  10.608   4.063 -0.0701  0.2294  0.0310
27490SOL    HW188562   7.586  10.608   4.156  0.3255 -1.6662 -0.0343
27490SOL    HW288563   7.643  10.621   4.016  0.0159 -0.6712 -0.0789
27491SOL     OW88564   5.167   2.718   1.928  0.1365  0.2966 -0.5745
27491SOL    HW188565   5.168   2.623   1.937 -1.4671  0.3448  0.4581
27491SOL    HW288566   5.221   2.735   1.851  1.9672 -1.2945  0.2901
27492SOL     OW88567   9.798   2.569   1.122  0.2601  0.3905  0.3401
27492SOL    HW188568   9.795   2.565   1.026 -0.4071 -2.2287  0.4080
27492SOL    HW288569   9.850   2.493   1.148  0.1492  0.8749  2.0724
27493SOL     OW88570  10.230   7.530   9.127  0.3748 -0.3003  0.1260
27493SOL    HW188571  10.255   7.599   9.188  0.2561  0.6611 -0.8762
27493SOL    HW288572  10.171   7.573   9.065  0.6293 -1.1958 -0.7693
27494SOL     OW88573   7.499  10.751   2.057 -0.6216  0.8865  0.0832
27494SOL    HW188574   7.485  10.697   2.135  0.3305  0.8840  0.2671
27494SOL    HW288575   7.576  10.712   2.015  0.3444  2.3335  0.4428
27495SOL     OW88576   9.408   2.407   1.419  0.5218  0.4407  0.5692
27495SOL    HW188577   9.453   2.439   1.497  0.5878 -0.8223  1.0637
27495SOL    HW288578   9.315   2.413   1.441  0.5450 -0.0413  0.7897
27496SOL     OW88579   2.457  10.371   6.959 -0.4970 -0.2872 -0.4524
27496SOL    HW188580   2.423  10.378   6.870 -0.9639 -0.2547 -0.2741
27496SOL    HW288581   2.450  10.459   6.995 -1.2152 -0.4896 -0.0667
27497SOL     OW88582   5.042   7.817   2.740 -0.2750 -0.5519 -0.1517
27497SOL    HW188583   5.120   7.763   2.736 -0.0574 -0.2245 -0.3816
27497SOL    HW288584   5.009   7.818   2.650  0.1216  0.2736 -0.2967
27498SOL     OW88585   4.816   4.837   4.173  0.5218 -0.0649  0.1932
27498SOL    HW188586   4.791   4.843   4.080 -1.2246 -1.6732  0.4939
27498SOL    HW288587   4.741   4.795   4.215  0.7325  1.7304  2.5932
27499SOL     OW88588   6.587   3.699   7.129  0.3233 -0.1438  0.3130
27499SOL    HW188589   6.653   3.663   7.069 -0.8964 -2.0438  0.0017
27499SOL    HW288590   6.575   3.789   7.099  2.0640 -0.0367 -0.2128
27500SOL     OW88591   1.995  10.866   4.923 -0.5009  0.5314 -0.2485
27500SOL    HW188592   1.985  10.945   4.871  0.7554  0.6645 -0.3335
27500SOL    HW288593   2.090  10.859   4.937 -0.7605  0.2202  1.5828
27501SOL     OW88594   2.981   0.278   1.388 -0.0919 -0.2278 -0.1983
27501SOL    HW188595   3.049   0.298   1.452  1.9202  0.6861 -2.5156
27501SOL    HW288596   2.978   0.182   1.385  0.9946 -0.2775  0.0450
27502SOL     OW88597   3.531   5.179   5.724  0.0072 -0.1183  0.2817
27502SOL    HW188598   3.579   5.127   5.788 -1.2963 -0.9241  0.6429
27502SOL    HW288599   3.548   5.135   5.640 -0.4451 -0.6584  0.4697
27503SOL     OW88600   9.857   3.872   5.680 -0.0713  0.5432  0.0254
27503SOL    HW188601   9.903   3.789   5.668  1.5773  0.9741  2.5754
27503SOL    HW288602   9.770   3.847   5.711 -0.2810 -0.2325 -1.1202
27504SOL     OW88603   5.815   2.497   0.590 -0.3869 -0.4904  0.2656
27504SOL    HW188604   5.826   2.589   0.565 -2.5498 -0.6256 -1.4265
27504SOL    HW288605   5.724   2.490   0.618 -0.1534 -2.0579  0.7446
27505SOL     OW88606   8.326   7.345   2.740 -0.5632  0.2776 -0.0555
27505SOL    HW188607   8.271   7.313   2.668 -0.0071  0.8400 -0.7362
27505SOL    HW288608   8.388   7.405   2.699  1.3036 -1.1569  0.5120
27506SOL     OW88609   9.069   8.953   7.915  0.2207  0.5388 -0.0640
27506SOL    HW188610   8.985   8.959   7.961  0.8974  0.8550  1.1801
27506SOL    HW288611   9.116   9.031   7.941  0.9508  0.3044 -0.6620
27507SOL     OW88612   5.145   6.564   0.382 -0.2813  0.5501  0.3598
27507SOL    HW188613   5.141   6.616   0.303  3.9356  1.3211  0.3891
27507SOL    HW288614   5.135   6.627   0.454 -0.1411  0.5265  0.4017
27508SOL     OW88615   8.906   1.934   0.357  0.0654 -0.1790 -0.1081
27508SOL    HW188616   8.848   1.948   0.282 -0.1030 -0.3946 -0.0195
27508SOL    HW288617   8.967   1.867   0.328 -0.3827 -0.7131  0.1525
27509SOL     OW88618   8.281   9.777   0.842  0.3826 -0.0307 -0.3293
27509SOL    HW188619   8.285   9.684   0.864 -0.6817 -0.7553 -2.8067
27509SOL    HW288620   8.202   9.786   0.789  0.5103  2.2928 -0.2489
27510SOL     OW88621   1.850   4.536   3.402 -0.4867  0.0443 -0.5485
27510SOL    HW188622   1.920   4.601   3.391 -0.6778  0.1516 -1.1476
27510SOL    HW288623   1.800   4.540   3.320  0.5679 -2.1286 -1.3821
27511SOL     OW88624   0.654   0.972   4.907 -0.1802 -0.4911  0.0294
27511SOL    HW188625   0.676   0.879   4.904  1.4324 -0.1538  0.8370
27511SOL    HW288626   0.559   0.974   4.923 -0.0247 -1.9845  1.2454
27512SOL     OW88627   5.952   0.347   0.467  0.9738 -0.2098  0.4177
27512SOL    HW188628   5.906   0.379   0.389 -0.9891 -1.3271  1.0387
27512SOL    HW288629   5.947   0.252   0.460  1.9173 -0.3340  1.2836
27513SOL     OW88630   7.230   2.862   7.617 -0.0303 -0.3328 -0.0029
27513SOL    HW188631   7.153   2.856   7.674 -1.2952 -1.4016 -1.7250
27513SOL    HW288632   7.292   2.915   7.667 -2.4051  1.8837  0.8794
27514SOL     OW88633   1.017   1.175   1.875  0.3186  0.2996 -0.2442
27514SOL    HW188634   1.047   1.094   1.917 -0.1097 -1.1792 -2.6014
27514SOL    HW288635   1.071   1.181   1.796 -1.4580  0.8590 -1.4601
27515SOL     OW88636  10.401   7.979   0.662  0.2648  0.3000  0.3387
27515SOL    HW188637  10.423   8.071   0.675 -0.8055  0.3795  2.0859
27515SOL    HW288638  10.398   7.943   0.751 -2.2934 -0.6441 -0.0241
27516SOL     OW88639  10.503   2.604   5.153  0.0019  0.2059 -0.3890
27516SOL    HW188640  10.518   2.659   5.076 -0.9405 -0.9905 -1.4717
27516SOL    HW288641  10.427   2.644   5.195 -1.6093 -1.0235 -1.9838
27517SOL     OW88642   8.262  10.171   4.243  0.0889  0.1052  0.2387
27517SOL    HW188643   8.206  10.117   4.187 -0.0708  0.4543  0.0604
27517SOL    HW288644   8.244  10.261   4.215  0.8922  0.2085  0.0421
27518SOL     OW88645   3.696   4.754   6.006  0.0528 -0.1312 -0.2806
27518SOL    HW188646   3.607   4.731   6.032 -1.0290  1.0680 -2.6130
27518SOL    HW288647   3.748   4.676   6.023 -1.5586 -1.0502  0.5881
27519SOL     OW88648   9.557   7.317   7.520 -0.2620  0.2969 -0.1493
27519SOL    HW188649   9.569   7.408   7.492  0.8324  0.3816  0.5210
27519SOL    HW288650   9.639   7.273   7.495 -0.5185 -0.3492  0.1163
27520SOL     OW88651   1.350   6.409   9.466  0.4665  0.0857 -0.1110
27520SOL    HW188652   1.308   6.495   9.458  1.9944  0.9687  0.9053
27520SOL    HW288653   1.396   6.397   9.383  1.2475  0.8156  0.2098
27521SOL     OW88654   3.480   8.137   8.886  0.4039  0.4944  0.4301
27521SOL    HW188655   3.434   8.212   8.848 -0.1237  0.7334  1.4987
27521SOL    HW288656   3.571   8.149   8.860 -0.1414 -0.2266 -2.1159
27522SOL     OW88657   9.641   9.407   0.105  0.2872  0.1621 -0.1333
27522SOL    HW188658   9.556   9.371   0.132 -0.4329  1.6278 -0.3504
27522SOL    HW288659   9.693   9.407   0.185  0.4409 -1.6030 -0.1789
27523SOL     OW88660   9.061   9.805   2.362  0.4729 -0.3545  0.0438
27523SOL    HW188661   8.988   9.779   2.306  0.9568 -0.5834 -0.4896
27523SOL    HW288662   9.139   9.781   2.312  0.9753  2.3524 -0.6364
27524SOL     OW88663   9.944   4.150   7.629 -0.1108 -0.5629  0.3062
27524SOL    HW188664   9.925   4.244   7.640  0.1020 -0.1766 -2.0314
27524SOL    HW288665  10.038   4.143   7.645 -0.0080 -0.2434 -0.1217
27525SOL     OW88666   5.622   2.688   1.153 -0.1585 -0.5150 -0.1971
27525SOL    HW188667   5.677   2.649   1.221  0.0552 -1.3808 -0.8445
27525SOL    HW288668   5.679   2.692   1.075  0.1920  2.1292  0.0965
27526SOL     OW88669   2.590   3.449   8.202 -0.4966  0.3479  0.4338
27526SOL    HW188670   2.615   3.402   8.281  1.3090  0.7648  0.1431
27526SOL    HW288671   2.554   3.382   8.145  1.1932 -0.5694  0.3814
27527SOL     OW88672   8.483   0.437   6.308  0.4738 -0.0823  0.1975
27527SOL    HW188673   8.395   0.441   6.272  0.9391  2.5419 -0.9462
27527SOL    HW288674   8.518   0.353   6.279 -0.5929  0.1960 -2.0683
27528SOL     OW88675   8.238   8.859   6.121 -0.5431 -0.4809  0.0082
27528SOL    HW188676   8.151   8.833   6.151 -0.8779  0.5132 -0.0673
27528SOL    HW288677   8.293   8.784   6.141 -0.8697 -0.1390  2.5396
27529SOL     OW88678   9.806   2.111   3.911 -0.2177  0.2605 -0.4727
27529SOL    HW188679   9.771   2.109   4.000 -0.5939 -1.1553 -0.6259
27529SOL    HW288680   9.762   2.038   3.867  1.8510 -0.6731 -1.0979
27530SOL     OW88681   3.606   7.168   7.751 -0.6179  0.1569 -0.2439
27530SOL    HW188682   3.620   7.219   7.831  0.6216 -0.0808 -0.3000
27530SOL    HW288683   3.638   7.223   7.681  1.1315 -0.8275 -0.2679
27531SOL     OW88684   8.219   7.559   4.230 -0.6713  0.3351 -1.0234
27531SOL    HW188685   8.128   7.585   4.242 -0.4767 -0.1847  2.4172
27531SOL    HW288686   8.216   7.464   4.222 -0.3497  0.0947  1.2157
27532SOL     OW88687   7.094   5.932   7.664  0.3133 -0.2077  0.0556
27532SOL    HW188688   7.034   6.006   7.653  0.3875 -0.0949  0.4072
27532SOL    HW288689   7.145   5.953   7.743  0.0553 -0.8227  0.3927
27533SOL     OW88690   4.146   0.025   5.189 -0.0629 -0.0467  0.0450
27533SOL    HW188691   4.200  -0.051   5.167  1.0924  0.8684 -0.3790
27533SOL    HW288692   4.168   0.044   5.280  0.2989  0.2695 -0.1007
27534SOL     OW88693   4.570   5.450   5.857  0.5905 -0.0567  0.7341
27534SOL    HW188694   4.542   5.538   5.833 -1.5592 -0.1527  2.5234
27534SOL    HW288695   4.529   5.393   5.792 -0.1832  0.1029  1.0687
27535SOL     OW88696   9.480   1.401   2.503 -0.1477 -0.1918 -0.3095
27535SOL    HW188697   9.506   1.341   2.573  0.1662  1.2144  0.8219
27535SOL    HW288698   9.413   1.353   2.455 -0.0912 -1.3538  0.7047
27536SOL     OW88699   4.937   0.377   1.084 -0.5637 -0.4566 -0.1789
27536SOL    HW188700   4.902   0.431   1.155  3.0120  0.3517  1.1806
27536SOL    HW288701   4.982   0.305   1.128  1.4987 -0.0968 -1.5755
27537SOL     OW88702   3.403   1.548   3.418 -0.3244 -0.1285  0.1646
27537SOL    HW188703   3.431   1.460   3.392 -0.8055  0.3683 -2.2478
27537SOL    HW288704   3.324   1.534   3.471 -0.2503 -1.1384  0.0241
27538SOL     OW88705   2.717   7.522   6.125 -0.5667  0.0830 -0.4482
27538SOL    HW188706   2.643   7.508   6.066 -1.0670  0.8729 -0.0219
27538SOL    HW288707   2.701   7.608   6.164  0.1323 -0.1094  0.2944
27539SOL     OW88708   7.828   8.654   1.749  0.4540  0.2741  0.0248
27539SOL    HW188709   7.831   8.670   1.844 -0.0903  1.1156 -0.0963
27539SOL    HW288710   7.907   8.602   1.732  1.5942  1.7285  0.6452
27540SOL     OW88711   7.993   2.459   2.477  0.4902  0.2217  0.1908
27540SOL    HW188712   8.057   2.423   2.538  0.0320 -2.3513 -0.7411
27540SOL    HW288713   7.922   2.491   2.532  1.2945  0.5021  1.0942
27541SOL     OW88714   0.823   8.068   3.126 -0.2796 -0.1746  0.9000
27541SOL    HW188715   0.820   7.993   3.067 -1.6996 -0.1440  0.8869
27541SOL    HW288716   0.782   8.036   3.207 -1.4201  0.7088  0.7033
27542SOL     OW88717   3.654   7.111   3.425 -0.4886 -0.4321 -0.2470
27542SOL    HW188718   3.594   7.050   3.385  0.0514 -1.3431  0.2949
27542SOL    HW288719   3.718   7.056   3.471 -0.1145  0.5301  0.4342
27543SOL     OW88720   5.195   7.447   2.171  0.1746 -0.8186  0.1797
27543SOL    HW188721   5.286   7.432   2.147  0.0452 -1.2007 -0.0792
27543SOL    HW288722   5.145   7.417   2.095 -0.1919 -1.1213  0.5386
27544SOL     OW88723   7.689   1.324   5.463 -0.0309  0.1414 -0.7425
27544SOL    HW188724   7.684   1.411   5.424 -1.1751  0.0989 -0.7345
27544SOL    HW288725   7.725   1.269   5.394 -1.7442  0.1243 -1.6747
27545SOL     OW88726   3.079   5.931   8.809 -0.1916  0.4624  0.0472
27545SOL    HW188727   3.048   6.019   8.829  0.2565  0.8730 -1.0045
27545SOL    HW288728   3.018   5.898   8.743 -1.3760 -0.6973  1.6204
27546SOL     OW88729   7.681   8.820   0.922  0.8296  0.0093  0.0054
27546SOL    HW188730   7.672   8.857   0.834  1.0402 -0.6702 -0.3046
27546SOL    HW288731   7.654   8.729   0.912  1.9953 -0.3881  0.3851
27547SOL     OW88732   9.044   0.412   8.992 -0.0812 -0.4077  0.2000
27547SOL    HW188733   9.092   0.345   8.943 -1.8212 -1.1763 -0.5619
27547SOL    HW288734   8.972   0.436   8.934 -0.7744  0.5082  1.3946
27548SOL     OW88735   0.877   6.414   1.188  0.6738  0.1424  0.0928
27548SOL    HW188736   0.872   6.322   1.164 -0.5681 -0.4036  2.1393
27548SOL    HW288737   0.945   6.418   1.255  0.1397  0.5534  0.6222
27549SOL     OW88738   0.017   3.784   6.982  0.0187  0.4983 -0.3636
27549SOL    HW188739  -0.035   3.812   6.906  0.3785  0.5139 -0.6051
27549SOL    HW288740  -0.032   3.710   7.017 -0.0937  0.4174 -0.6807
27550SOL     OW88741   2.117  10.242   7.891  0.4638  0.9043 -0.1779
27550SOL    HW188742   2.210  10.217   7.891  0.1744 -0.2444 -0.4356
27550SOL    HW288743   2.085  10.215   7.977  0.1687  0.4655 -0.4207
27551SOL     OW88744   2.296  10.326  10.007 -0.0991 -0.3898 -0.7933
27551SOL    HW188745   2.216  10.342  10.057  1.6393  1.1872  1.7563
27551SOL    HW288746   2.325  10.239  10.035 -0.5929 -0.7271 -1.3004
27552SOL     OW88747   2.842   2.660   7.837  1.1366  0.4479 -0.1456
27552SOL    HW188748   2.755   2.684   7.807  1.2707 -0.0359 -0.9609
27552SOL    HW288749   2.868   2.731   7.895 -0.1994  0.1170  0.9245
27553SOL     OW88750   7.424   7.267   3.899  0.0124 -0.2069 -0.1662
27553SOL    HW188751   7.408   7.336   3.834  0.2302  1.0823  1.0790
27553SOL    HW288752   7.514   7.239   3.884 -0.1037 -0.2717 -0.7420
27554SOL     OW88753   6.234   0.849   3.601 -0.2386  1.0673  0.0634
27554SOL    HW188754   6.293   0.774   3.609 -1.6166 -0.1623 -0.7934
27554SOL    HW288755   6.265   0.895   3.522 -1.3830 -0.5147 -1.3647
27555SOL     OW88756   0.718  10.551   8.306  0.4693 -0.1228  0.3421
27555SOL    HW188757   0.810  10.534   8.288 -0.1818 -1.6985 -1.9249
27555SOL    HW288758   0.688  10.474   8.353  0.3145  0.4435  1.1881
27556SOL     OW88759   2.096   9.155   5.678  0.0457 -0.5077 -0.2890
27556SOL    HW188760   2.061   9.208   5.607 -0.4305 -1.9031 -1.1462
27556SOL    HW288761   2.164   9.102   5.637  1.1225  0.0442  0.7333
27557SOL     OW88762   4.941   0.893   1.248  0.4142 -0.6713  0.1621
27557SOL    HW188763   4.958   0.953   1.176 -0.2432 -0.9468 -0.2269
27557SOL    HW288764   5.011   0.828   1.243  0.1161 -0.9475 -0.5103
27558SOL     OW88765   3.642   1.250  10.728  0.3394  0.0799 -0.3356
27558SOL    HW188766   3.720   1.279  10.682 -0.0119 -1.2711 -1.8757
27558SOL    HW288767   3.640   1.155  10.715 -0.7117 -0.1275  1.0401
27559SOL     OW88768   5.735   8.929   7.796  0.2142  0.6278  0.1979
27559SOL    HW188769   5.823   8.948   7.829 -0.2223  2.3035  0.4912
27559SOL    HW288770   5.703   8.858   7.851  1.4336 -0.1201 -0.0286
27560SOL     OW88771   3.742   9.796   2.875  0.0155  0.0254 -0.4533
27560SOL    HW188772   3.742   9.701   2.885 -0.2015  0.1812  1.4527
27560SOL    HW288773   3.649   9.819   2.867 -0.1397  0.2398  1.5159
27561SOL     OW88774   7.776   8.848  10.464 -0.3304 -0.0965  0.4579
27561SOL    HW188775   7.696   8.877  10.420  1.5638  1.8237 -2.0440
27561SOL    HW288776   7.813   8.782  10.405  0.1908 -0.6197  1.3487
27562SOL     OW88777   9.113   4.176  10.372 -0.0344 -0.0525  0.3332
27562SOL    HW188778   9.037   4.123  10.350 -0.1680 -0.7463  2.2900
27562SOL    HW288779   9.182   4.113  10.391  0.4622  0.5236  0.4960
27563SOL     OW88780   0.180   9.071   3.641 -0.6640 -0.3809  0.1371
27563SOL    HW188781   0.191   8.978   3.657  1.6341  0.1674  2.4653
27563SOL    HW288782   0.220   9.086   3.555  0.7657 -1.2742  0.6197
27564SOL     OW88783  10.452   6.423   7.344  0.1610  0.0656 -0.3915
27564SOL    HW188784  10.507   6.412   7.265  2.7261  1.7234  1.0247
27564SOL    HW288785  10.443   6.517   7.354  2.2509  0.0618  2.7080
27565SOL     OW88786  10.816   4.324   9.092 -0.5818  0.7726  0.3949
27565SOL    HW188787  10.910   4.310   9.104 -0.4969  1.0356  0.0527
27565SOL    HW288788  10.810   4.403   9.038 -1.0076  0.9758  0.7299
27566SOL     OW88789   0.942   9.984   8.232  0.0009 -0.0110  0.0069
27566SOL    HW188790   0.978  10.056   8.283 -0.1774 -0.7118  1.1552
27566SOL    HW288791   0.887   9.936   8.293 -1.0177 -0.3095 -1.1136
27567SOL     OW88792   0.261  10.017   3.843  0.3503  0.1067 -0.0190
27567SOL    HW188793   0.267   9.922   3.846 -0.0942  0.0897  0.7989
27567SOL    HW288794   0.167  10.035   3.839  0.3640  0.5209  1.1390
27568SOL     OW88795   5.826   9.383   2.982  0.1493  0.2687  0.3842
27568SOL    HW188796   5.820   9.300   2.934  0.7316  0.5617 -0.2078
27568SOL    HW288797   5.758   9.438   2.944 -0.8889 -0.2500  1.4384
27569SOL     OW88798   7.878   8.729   4.229  0.0545  0.5089 -0.3178
27569SOL    HW188799   7.963   8.686   4.236  0.0692  0.5630 -0.1587
27569SOL    HW288800   7.814   8.659   4.242  0.0808  0.6104  0.3998
27570SOL     OW88801   5.052   6.820   7.011  0.1331  0.1523  0.8294
27570SOL    HW188802   5.075   6.745   6.957 -1.5403  1.0148 -1.1824
27570SOL    HW288803   5.075   6.896   6.958 -1.5462  1.0393  1.2945
27571SOL     OW88804   2.684   8.355   8.844  0.5299 -0.9515 -0.5510
27571SOL    HW188805   2.664   8.273   8.889  0.5462 -0.9233 -0.4923
27571SOL    HW288806   2.601   8.379   8.801 -0.4817  0.7293  2.1049
27572SOL     OW88807  10.395   7.680   1.464 -0.3862  0.3304 -0.0701
27572SOL    HW188808  10.387   7.689   1.559 -0.0988  1.2511 -0.1235
27572SOL    HW288809  10.346   7.754   1.429  1.6226  1.4749 -0.5696
27573SOL     OW88810   1.851   7.922   8.702  0.2954 -0.1011 -0.6706
27573SOL    HW188811   1.804   7.844   8.673 -0.1221 -0.2176  0.2767
27573SOL    HW288812   1.791   7.964   8.764  0.9776  0.3659 -0.3125
27574SOL     OW88813   0.046   7.043  10.342 -0.2639  0.5771 -0.0743
27574SOL    HW188814   0.051   7.128  10.299 -2.7880  1.0379  0.4406
27574SOL    HW288815   0.022   6.983  10.272 -1.2112  0.7731  0.0801
27575SOL     OW88816   2.275   5.425   7.403 -0.0611 -0.5764 -0.2097
27575SOL    HW188817   2.248   5.517   7.390  1.1175 -0.0364  0.9532
27575SOL    HW288818   2.277   5.389   7.314 -0.0371  0.6776 -0.7553
27576SOL     OW88819  10.897   0.333   7.682 -0.5511  0.0121 -0.7285
27576SOL    HW188820  10.948   0.281   7.744 -2.3183  0.0911  0.8644
27576SOL    HW288821  10.907   0.287   7.599  2.1408  0.0808 -0.5441
27577SOL     OW88822   4.100   9.600   7.824 -0.0826 -0.3106 -0.5988
27577SOL    HW188823   4.030   9.635   7.879 -0.6687 -0.6221 -1.1278
27577SOL    HW288824   4.058   9.531   7.774  0.3772  0.1215 -1.6084
27578SOL     OW88825   1.797   3.369   2.664 -0.4697  0.1700  0.4670
27578SOL    HW188826   1.792   3.399   2.573 -0.5250 -1.4526 -0.0943
27578SOL    HW288827   1.750   3.436   2.714 -0.3479  1.1414 -0.6755
27579SOL     OW88828   0.647   5.991   1.313 -0.0800 -0.4150 -0.5968
27579SOL    HW188829   0.634   6.085   1.304 -0.8115 -0.5620 -1.0960
27579SOL    HW288830   0.720   5.983   1.376 -1.6440  0.4431  1.4341
27580SOL     OW88831   8.956   4.648   7.837 -0.1102 -0.2511  0.0656
27580SOL    HW188832   8.885   4.687   7.888  1.0007 -0.4274  1.7918
27580SOL    HW288833   9.012   4.722   7.814 -0.4534 -0.2140 -0.7199
27581SOL     OW88834   3.143   7.984   8.235  0.3832  0.5626 -0.5400
27581SOL    HW188835   3.209   7.923   8.267 -0.1359  0.3057  0.0522
27581SOL    HW288836   3.194   8.051   8.188  0.9951 -0.0412 -0.7644
27582SOL     OW88837   7.074   8.833   1.373  0.2087 -0.7106  0.0285
27582SOL    HW188838   7.003   8.835   1.309 -0.8737  1.1229  1.1806
27582SOL    HW288839   7.154   8.843   1.322 -0.6166  0.6047 -1.0643
27583SOL     OW88840  10.819   1.547   2.165 -0.2189  0.2245 -0.5104
27583SOL    HW188841  10.911   1.558   2.186 -0.3366 -0.7440  0.5897
27583SOL    HW288842  10.784   1.494   2.237 -1.3175 -0.6435 -1.6500
27584SOL     OW88843   3.849   3.883   6.565 -0.4111  0.1128  0.8981
27584SOL    HW188844   3.785   3.812   6.560  0.5311 -0.6840 -0.3549
27584SOL    HW288845   3.931   3.839   6.587  0.8302  0.3246 -2.6742
27585SOL     OW88846  10.518   0.976   9.336  0.2606  0.0486  0.6435
27585SOL    HW188847  10.429   0.943   9.342 -0.2711  0.6213 -2.5028
27585SOL    HW288848  10.566   0.908   9.288  0.5980  1.2080 -0.7292
27586SOL     OW88849  10.415   0.161   7.316  0.1716  0.3680 -0.0970
27586SOL    HW188850  10.466   0.136   7.239  0.4433  1.0912 -0.1607
27586SOL    HW288851  10.416   0.257   7.315  0.8204  0.3875  1.2392
27587SOL     OW88852   3.556   0.807   7.025 -0.3282 -0.1259  0.3716
27587SOL    HW188853   3.600   0.879   7.069  0.8436 -0.5209 -0.1185
27587SOL    HW288854   3.553   0.737   7.091  2.1468 -1.0030 -0.3131
27588SOL     OW88855  10.300   4.379   0.766  0.5435  0.6518  0.3951
27588SOL    HW188856  10.296   4.440   0.840 -2.2634  2.7642 -1.3019
27588SOL    HW288857  10.351   4.424   0.699  0.0514  0.3277 -0.2070
27589SOL     OW88858   8.511   5.914  10.557 -0.1726 -0.5051  0.0679
27589SOL    HW188859   8.506   5.924  10.652  0.2435  0.4661 -0.0024
27589SOL    HW288860   8.593   5.867  10.542  0.2652  0.2102  0.1477
27590SOL     OW88861   9.410   4.634   0.175 -0.1905  0.2821  0.4789
27590SOL    HW188862   9.348   4.611   0.244 -0.1560  1.8066  1.0647
27590SOL    HW288863   9.379   4.586   0.098 -0.5241 -1.0476  1.4134
27591SOL     OW88864   5.783   5.849   3.511 -0.4450 -0.1949 -0.0613
27591SOL    HW188865   5.851   5.874   3.449 -1.2124  0.4739 -0.6618
27591SOL    HW288866   5.800   5.901   3.589  0.8342 -1.4187  0.5093
27592SOL     OW88867   7.231   2.586   0.356 -0.4903  0.2371 -0.0032
27592SOL    HW188868   7.196   2.661   0.307  0.3531  1.5987  1.4081
27592SOL    HW288869   7.324   2.583   0.332 -0.5441 -0.4458 -0.1396
27593SOL     OW88870   1.238   1.088   2.042 -0.7928  0.7913  0.2844
27593SOL    HW188871   1.261   1.145   1.969  1.0062 -1.1460 -0.7518
27593SOL    HW288872   1.321   1.065   2.083 -1.6529  0.6556  2.0618
27594SOL     OW88873   5.847   0.953   7.804  0.3702 -0.2812  0.6559
27594SOL    HW188874   5.834   0.869   7.761 -0.7115  0.6148 -0.8611
27594SOL    HW288875   5.778   1.009   7.770  1.8981  1.6440  0.5127
27595SOL     OW88876   2.038   3.362   3.095 -0.5618 -0.2197 -0.1342
27595SOL    HW188877   2.105   3.314   3.045  0.3930  0.2976  0.6294
27595SOL    HW288878   1.971   3.381   3.030  0.0836 -0.6273 -0.9589
27596SOL     OW88879   3.553   4.243   0.344 -0.2275  0.2418 -0.0662
27596SOL    HW188880   3.556   4.213   0.435  0.3220 -0.8013 -0.4129
27596SOL    HW288881   3.605   4.324   0.344 -1.0209  0.7639  0.7214
27597SOL     OW88882   5.258   2.350   2.482  0.3913 -0.0204  0.1808
27597SOL    HW188883   5.266   2.426   2.424  0.0458  0.8385  1.2160
27597SOL    HW288884   5.177   2.366   2.531  1.3289 -0.0428  1.8275
27598SOL     OW88885  10.425   1.499   0.845  0.2061  0.0924  0.3299
27598SOL    HW188886  10.481   1.551   0.902  2.2452 -1.3894 -0.1884
27598SOL    HW288887  10.424   1.412   0.885 -1.1907 -0.1001 -0.0592
27599SOL     OW88888   7.491   0.668  10.181  0.1833  0.0258 -0.1028
27599SOL    HW188889   7.459   0.650  10.092 -1.3429 -1.9291  0.7434
27599SOL    HW288890   7.546   0.592  10.202  1.8555  1.2459  0.0829
27600SOL     OW88891   7.580   8.671   2.969 -0.3575 -0.7575 -0.6971
27600SOL    HW188892   7.499   8.721   2.959  2.1503  3.8572 -0.9224
27600SOL    HW288893   7.582   8.648   3.062 -2.0393 -1.2987 -0.7616
27601SOL     OW88894   1.730   6.970   2.595  0.5653  0.0549  0.0816
27601SOL    HW188895   1.720   7.047   2.651  2.0315 -0.2177  0.7814
27601SOL    HW288896   1.644   6.928   2.595  0.1476  0.8859  0.9037
27602SOL     OW88897   5.520  10.066   2.420 -0.5081  0.1209  0.6038
27602SOL    HW188898   5.524  10.003   2.348 -2.2853  1.7802 -1.0601
27602SOL    HW288899   5.454  10.029   2.480 -0.5110 -0.2771  0.3603
27603SOL     OW88900   2.932   7.340   4.158  0.4937  0.0320 -0.0006
27603SOL    HW188901   3.009   7.327   4.102  0.5034 -0.4970  0.1282
27603SOL    HW288902   2.920   7.255   4.201  0.6993  0.5332  1.0651
27604SOL     OW88903   2.658   4.253   2.750 -0.2327  0.4786  0.4864
27604SOL    HW188904   2.579   4.251   2.805  0.0244  0.7047  0.8671
27604SOL    HW288905   2.730   4.243   2.812 -0.0137 -1.9670 -0.0429
27605SOL     OW88906   8.685   9.321   1.590 -0.2149  0.3286  0.4628
27605SOL    HW188907   8.720   9.381   1.524  1.9691 -2.1091 -0.7693
27605SOL    HW288908   8.756   9.313   1.655 -0.7317 -0.3689  0.9551
27606SOL     OW88909   5.690   9.616   2.275 -0.0196  0.2379  0.3081
27606SOL    HW188910   5.774   9.661   2.268 -0.1909  0.9789  2.3096
27606SOL    HW288911   5.706   9.528   2.242  1.2888  0.6533 -0.1989
27607SOL     OW88912  10.138   3.796   9.713  0.0931  0.9869  0.4736
27607SOL    HW188913  10.121   3.701   9.715  2.3300  0.4913 -0.6577
27607SOL    HW288914  10.132   3.822   9.805 -0.8287 -0.2063  0.7808
27608SOL     OW88915   4.071   9.151   7.999 -0.0280  0.1435  0.0295
27608SOL    HW188916   4.100   9.066   8.032  0.2130 -0.6673 -2.1124
27608SOL    HW288917   4.151   9.203   7.990  0.2894 -0.6156 -1.8551
27609SOL     OW88918   3.496   3.623   5.907  0.4832 -0.8240  0.1247
27609SOL    HW188919   3.438   3.689   5.870  0.5720 -0.1739  1.0887
27609SOL    HW288920   3.438   3.553   5.937  0.1557 -0.1367  1.1699
27610SOL     OW88921   6.455   6.642   1.204 -0.2143  0.6589 -0.2206
27610SOL    HW188922   6.465   6.695   1.283 -2.6658 -0.7951  1.1957
27610SOL    HW288923   6.543   6.606   1.189  0.5611  1.8344  1.1824
27611SOL     OW88924   6.803   4.165   3.570 -0.3509 -0.5943 -0.2096
27611SOL    HW188925   6.778   4.151   3.661 -0.3472 -0.4772 -0.1902
27611SOL    HW288926   6.767   4.251   3.549  0.2567 -0.3115 -0.1043
27612SOL     OW88927   1.128   7.256   6.363 -0.4789  0.2855 -0.0045
27612SOL    HW188928   1.082   7.272   6.281 -0.9221 -1.3802 -0.1163
27612SOL    HW288929   1.205   7.312   6.358 -0.9285  0.8433 -1.1693
27613SOL     OW88930   9.957   9.156   9.689  0.2825 -0.5750 -0.1081
27613SOL    HW188931  10.015   9.195   9.624  1.1391 -1.3214  0.1949
27613SOL    HW288932   9.931   9.072   9.652  1.5132 -1.4258  0.8808
27614SOL     OW88933   4.630   6.447   3.204  0.4810 -0.2660  0.0085
27614SOL    HW188934   4.647   6.399   3.123  0.6377 -0.3972  0.1180
27614SOL    HW288935   4.634   6.380   3.272 -0.1648 -0.2443  0.0734
27615SOL     OW88936   5.599   1.246   8.144 -0.3587  0.1531 -0.0548
27615SOL    HW188937   5.515   1.201   8.144  0.2091 -0.9964 -1.1186
27615SOL    HW288938   5.622   1.252   8.051  1.5053 -1.1328  0.2613
27616SOL     OW88939   1.674   0.081   6.165 -0.4226  0.2163 -0.3073
27616SOL    HW188940   1.712  -0.003   6.138  0.4670  1.0763 -1.8705
27616SOL    HW288941   1.663   0.072   6.259  0.1022 -1.4843 -0.3581
27617SOL     OW88942   2.449   0.236   3.652 -0.2842  0.1819 -0.0038
27617SOL    HW188943   2.534   0.206   3.682  0.1693  0.7274 -0.7227
27617SOL    HW288944   2.393   0.158   3.655 -0.6885  0.4381  3.6352
27618SOL     OW88945   2.554   4.878   3.403 -0.1848 -0.2030  0.2609
27618SOL    HW188946   2.489   4.876   3.473 -0.2571  0.6229  0.2189
27618SOL    HW288947   2.549   4.790   3.364 -2.1621  0.2103 -0.5495
27619SOL     OW88948   2.698   3.178   8.063 -0.3025  0.0947 -0.4090
27619SOL    HW188949   2.606   3.207   8.060 -0.8694 -1.6082 -0.4697
27619SOL    HW288950   2.712   3.134   7.980 -0.0885 -1.4647  0.4189
27620SOL     OW88951  10.754   1.546  10.311  0.4526  0.0019  0.4947
27620SOL    HW188952  10.718   1.465  10.346 -0.2489  1.0060  2.2337
27620SOL    HW288953  10.841   1.553  10.351  0.9982 -0.4328 -0.5649
27621SOL     OW88954   1.418   2.279   7.968 -0.0897 -0.3598 -0.1228
27621SOL    HW188955   1.433   2.228   8.047  1.6001 -2.4068 -1.6364
27621SOL    HW288956   1.505   2.310   7.943 -0.4209 -0.6151 -1.6992
27622SOL     OW88957   2.418   9.473   0.959 -0.1543  0.0858  0.3281
27622SOL    HW188958   2.497   9.451   1.009 -0.0818 -0.2975  0.0519
27622SOL    HW288959   2.450   9.525   0.885  0.0588 -1.4597 -0.7034
27623SOL     OW88960   7.800   7.246   0.364  0.4531  0.5605 -0.0173
27623SOL    HW188961   7.875   7.271   0.417 -0.1990  1.4721  0.4912
27623SOL    HW288962   7.808   7.151   0.354  1.4922  0.6072  0.2953
27624SOL     OW88963   1.887   1.935   8.589  0.5010 -0.6054 -0.1413
27624SOL    HW188964   1.864   1.899   8.674  0.3844 -2.4105 -0.8867
27624SOL    HW288965   1.978   1.908   8.575  1.0041  0.9240  0.0067
27625SOL     OW88966   8.946   1.122   5.247  0.4257 -0.2310 -0.6885
27625SOL    HW188967   9.039   1.145   5.247  0.2975  0.4030  0.8193
27625SOL    HW288968   8.943   1.035   5.285  0.3879 -0.2056 -0.6338
27626SOL     OW88969  10.412   7.430   4.736 -0.0456  0.0951  0.1515
27626SOL    HW188970  10.396   7.431   4.641  0.1214 -0.8725  0.0990
27626SOL    HW288971  10.436   7.520   4.757 -1.8544  0.7594 -0.4080
27627SOL     OW88972   2.521   6.816   1.053 -0.0859 -0.6083  0.0556
27627SOL    HW188973   2.431   6.810   1.086  0.0518  0.5355  0.6975
27627SOL    HW288974   2.546   6.908   1.068  0.7241 -0.5630 -1.3285
27628SOL     OW88975   8.964   8.057   4.046  0.4189  0.1159  0.2056
27628SOL    HW188976   8.940   7.977   4.092 -2.2558  0.1340 -0.9780
27628SOL    HW288977   8.886   8.112   4.051  1.4633  1.7917 -0.8371
27629SOL     OW88978  10.762   7.188   8.260  0.5200  0.1635  0.2296
27629SOL    HW188979  10.806   7.109   8.290 -0.3793 -0.6696 -0.6276
27629SOL    HW288980  10.745   7.174   8.167 -0.8768  0.7736  0.3635
27630SOL     OW88981   3.418   5.193   8.818 -0.0680 -0.3974  0.4268
27630SOL    HW188982   3.494   5.242   8.848  1.0289 -0.5685 -1.8879
27630SOL    HW288983   3.447   5.148   8.739 -2.2355 -1.4644  0.1464
27631SOL     OW88984   4.577   6.221   4.706  0.5668  0.3036 -0.6295
27631SOL    HW188985   4.616   6.256   4.786  0.6530 -0.6907 -0.2226
27631SOL    HW288986   4.558   6.130   4.726  1.3302 -0.1923 -1.9963
27632SOL     OW88987   8.315   3.572   6.160 -0.2850  0.0816 -0.7657
27632SOL    HW188988   8.350   3.487   6.135  1.5118  0.8092 -0.8531
27632SOL    HW288989   8.264   3.600   6.083  2.0112  0.5905 -2.1968
27633SOL     OW88990   8.461   9.165   7.445  0.0393 -0.0070 -0.0638
27633SOL    HW188991   8.529   9.215   7.491  0.1686 -0.1197 -0.1323
27633SOL    HW288992   8.395   9.146   7.511  0.0628  0.1246 -0.0027
27634SOL     OW88993   5.230   8.693   2.165  0.4345 -0.3228  0.1032
27634SOL    HW188994   5.211   8.616   2.219 -0.8224 -0.0554  0.0898
27634SOL    HW288995   5.312   8.727   2.199 -0.4091 -0.0506  2.0047
27635SOL     OW88996   2.709   5.127   3.750 -0.4893  0.1592 -0.4650
27635SOL    HW188997   2.679   5.067   3.818 -0.3884  0.3805 -0.2260
27635SOL    HW288998   2.796   5.155   3.778  0.6312 -1.6464 -1.8887
27636SOL     OW88999   1.087   1.355   0.353  0.7838 -0.2076  0.2157
27636SOL    HW189000   1.000   1.317   0.366  0.9647 -1.0061 -0.7697
27636SOL    HW289001   1.073   1.429   0.295  0.6715  0.0939  0.6263
27637SOL     OW89002   4.365   0.697   6.239  0.2691  0.0726 -0.0401
27637SOL    HW189003   4.426   0.657   6.301 -0.8447 -0.7336  0.5698
27637SOL    HW289004   4.408   0.688   6.154  0.7744 -0.9450  0.3071
27638SOL     OW89005  10.919   6.332   5.676 -0.1308 -0.1465  0.4451
27638SOL    HW189006  10.948   6.243   5.694 -0.8882 -0.5046 -0.0631
27638SOL    HW289007  10.873   6.359   5.755 -0.5624 -0.4947  0.3181
27639SOL     OW89008   4.894   1.058   7.433 -0.0610  0.7299  0.1260
27639SOL    HW189009   4.943   0.975   7.440 -0.7495  0.2680 -0.3889
27639SOL    HW289010   4.925   1.096   7.351  1.1933  1.6225  0.9811
27640SOL     OW89011  10.572   9.741   7.042 -0.1333 -0.1131 -0.0596
27640SOL    HW189012  10.504   9.771   6.981  0.7052 -0.1458 -1.0321
27640SOL    HW289013  10.530   9.746   7.128 -1.3471 -0.0783 -0.6269
27641SOL     OW89014   7.921   6.711   8.863  0.1172  0.7867 -0.0141
27641SOL    HW189015   7.852   6.756   8.815 -0.0773  0.8111  0.2867
27641SOL    HW289016   7.983   6.683   8.796  0.5561  2.0494 -0.1684
27642SOL     OW89017   8.640  10.148  10.421 -0.0602 -0.2457  0.4713
27642SOL    HW189018   8.624  10.164  10.514 -2.5673 -0.9502  0.2261
27642SOL    HW289019   8.676  10.231  10.388  1.5642 -0.2086  2.1433
27643SOL     OW89020   7.775   5.577   0.866 -0.2550  0.5801 -0.0974
27643SOL    HW189021   7.781   5.641   0.796 -0.3868  1.4971  0.7122
27643SOL    HW289022   7.799   5.625   0.945  0.6100 -0.6113  0.3952
27644SOL     OW89023   8.585   8.256   5.069  0.1355 -0.2317 -0.3865
27644SOL    HW189024   8.562   8.247   5.162  0.0746  0.5010 -0.3239
27644SOL    HW289025   8.590   8.166   5.037  0.8379 -0.5223  0.4948
27645SOL     OW89026   6.643   1.498   6.181 -0.0545 -0.2279  0.2052
27645SOL    HW189027   6.670   1.572   6.236 -2.7034  0.8352  0.2421
27645SOL    HW289028   6.579   1.536   6.120 -0.7240 -2.2972 -0.4639
27646SOL     OW89029   6.532   2.550   7.869 -0.2512  0.2705  0.2317
27646SOL    HW189030   6.569   2.466   7.898 -0.0875  0.6602  1.1982
27646SOL    HW289031   6.501   2.533   7.780  0.4395 -0.6152  0.1461
27647SOL     OW89032   5.898   6.675   1.842 -0.1843 -0.6320 -0.0425
27647SOL    HW189033   5.920   6.651   1.752 -0.4041 -0.7459 -0.0675
27647SOL    HW289034   5.808   6.643   1.854 -0.4498  0.0886 -0.0450
27648SOL     OW89035   5.123   0.757   2.010  0.2172  0.0642  0.7113
27648SOL    HW189036   5.115   0.682   2.068 -1.5371 -0.1556  0.2403
27648SOL    HW289037   5.040   0.804   2.021  0.4885  0.8446 -0.4694
27649SOL     OW89038   8.904   1.582   1.537  0.0636  0.4260  0.4381
27649SOL    HW189039   8.936   1.670   1.516 -1.4803  1.2039  1.0856
27649SOL    HW289040   8.823   1.598   1.587 -0.9792 -1.3705 -0.5617
27650SOL     OW89041   3.627  10.810   3.955  0.7415  0.4813  0.3825
27650SOL    HW189042   3.557  10.774   4.009  1.7533 -1.5119  0.4827
27650SOL    HW289043   3.603  10.902   3.942 -1.0057  0.2821  1.7788
27651SOL     OW89044   9.680   4.353  10.757  0.7034  0.4640  0.0838
27651SOL    HW189045   9.649   4.443  10.763 -0.4774  0.0015  1.7006
27651SOL    HW289046   9.604   4.300  10.784  1.8145 -0.9319  0.5898
27652SOL     OW89047   4.239   8.657   3.801  0.1940 -0.2124  0.1055
27652SOL    HW189048   4.212   8.726   3.861  1.3640  0.4753 -0.1162
27652SOL    HW289049   4.317   8.619   3.841 -0.9727 -2.0794  0.6916
27653SOL     OW89050   1.491   9.127   7.699 -0.1982  0.3951  0.4977
27653SOL    HW189051   1.549   9.176   7.757 -1.7671  0.8682  1.7209
27653SOL    HW289052   1.473   9.046   7.745  0.5727 -0.3723 -0.5070
27654SOL     OW89053   8.493   0.571   7.509  0.2765  0.5814 -0.1095
27654SOL    HW189054   8.405   0.598   7.532  0.1722 -0.9608  1.4970
27654SOL    HW289055   8.490   0.556   7.414 -1.3031  0.0981  0.0025
27655SOL     OW89056  10.232   1.560   4.405 -0.7433  0.5117 -0.1970
27655SOL    HW189057  10.146   1.593   4.381 -0.8522  2.4038  2.4335
27655SOL    HW289058  10.244   1.588   4.496  2.0023 -1.0689  0.0252
27656SOL     OW89059   1.268   4.969   9.134  0.6024  0.3858  0.2137
27656SOL    HW189060   1.272   4.918   9.215 -1.2024  1.2876  0.9322
27656SOL    HW289061   1.307   4.911   9.068 -1.0935 -1.8507  1.0292
27657SOL     OW89062   6.096   2.152   7.713 -0.0308 -0.4618 -0.0730
27657SOL    HW189063   6.096   2.135   7.619 -0.1026 -0.5413 -0.0574
27657SOL    HW289064   6.100   2.066   7.754 -1.2991 -0.4846  0.0177
27658SOL     OW89065   5.617   9.698  10.236 -0.2838 -0.1552 -0.1387
27658SOL    HW189066   5.654   9.745  10.162 -2.1348  0.1638 -0.9155
27658SOL    HW289067   5.653   9.610  10.229  1.1281  0.3908 -0.2137
27659SOL     OW89068   2.777   9.921   6.892 -0.5494 -0.4942  0.0993
27659SOL    HW189069   2.780   9.841   6.945 -3.7325 -2.6298 -2.4928
27659SOL    HW289070   2.835   9.903   6.818  1.2399  1.0647  1.0361
27660SOL     OW89071   3.220   0.988   7.985  0.3492  0.0217  0.3647
27660SOL    HW189072   3.153   0.954   7.926 -0.2278 -1.6927  1.9173
27660SOL    HW289073   3.177   1.060   8.032 -0.6346 -1.4020  1.7231
27661SOL     OW89074   5.852   6.980   3.376  0.5233 -0.0889 -0.3239
27661SOL    HW189075   5.793   6.905   3.383  0.3826 -0.0182 -0.7558
27661SOL    HW289076   5.804   7.044   3.324 -0.1745  1.0999  1.6885
27662SOL     OW89077   6.948   9.867   3.667 -0.9128 -0.1016  0.1903
27662SOL    HW189078   7.001   9.787   3.668 -1.0788 -0.2144  0.3825
27662SOL    HW289079   6.943   9.892   3.575 -0.8666 -0.3217  0.1273
27663SOL     OW89080   8.543   4.424  10.445  0.1000  0.8464 -0.0117
27663SOL    HW189081   8.512   4.342  10.408  0.8568 -0.6853  2.4725
27663SOL    HW289082   8.464   4.465  10.481 -0.0766  0.4917  0.0101
27664SOL     OW89083   1.376   6.814   7.547  0.6855  0.3991 -0.6616
27664SOL    HW189084   1.308   6.881   7.561  0.4525 -0.0844  0.6922
27664SOL    HW289085   1.347   6.766   7.470 -0.6942  0.0268  0.0482
27665SOL     OW89086   5.965   1.252   9.905 -0.1162  0.1302 -0.3842
27665SOL    HW189087   6.019   1.177   9.928 -1.5079 -1.1738 -1.1916
27665SOL    HW289088   5.877   1.229   9.936 -0.3458  1.9915  0.4875
27666SOL     OW89089   2.822   6.045   8.395  0.9710  0.9457 -0.8712
27666SOL    HW189090   2.730   6.065   8.376  0.6615  1.0697  0.5865
27666SOL    HW289091   2.855   6.126   8.435  0.9742  0.0826  0.9544
27667SOL     OW89092   5.510   8.473  10.424 -0.4307 -0.2934  0.5372
27667SOL    HW189093   5.476   8.405  10.366 -1.3418  0.0165  0.6928
27667SOL    HW289094   5.534   8.544  10.365 -1.9733  0.2804  0.5690
27668SOL     OW89095   1.870   3.794   3.189 -0.0504 -0.3458  0.2999
27668SOL    HW189096   1.803   3.839   3.239  1.3840  0.4133  1.6229
27668SOL    HW289097   1.879   3.709   3.231  0.7713  0.0859  1.0320
27669SOL     OW89098   7.946   0.176   5.481 -0.5104  0.1264  0.0732
27669SOL    HW189099   7.977   0.188   5.391  0.6370  1.5274  0.6152
27669SOL    HW289100   7.876   0.240   5.491 -0.1465  0.4777  0.3927
27670SOL     OW89101   5.897   4.580   8.886 -0.3650 -0.2764 -0.0311
27670SOL    HW189102   5.891   4.564   8.791  0.8970 -0.9100 -0.0389
27670SOL    HW289103   5.885   4.674   8.896  1.0202  0.0359 -1.0100
27671SOL     OW89104   6.903   8.407   4.479 -0.1576  0.8098 -0.0762
27671SOL    HW189105   6.889   8.474   4.546  0.6033 -0.0497  0.9587
27671SOL    HW289106   6.993   8.379   4.491 -1.1534 -2.1901  1.2052
27672SOL     OW89107   3.435   6.267   0.956  0.1317 -0.8470  0.7984
27672SOL    HW189108   3.490   6.245   0.880  0.2838 -1.3495  1.0462
27672SOL    HW289109   3.441   6.190   1.012  1.6913  0.2718  2.3016
27673SOL     OW89110   9.362   8.475   9.932  0.0245 -0.0263 -0.0745
27673SOL    HW189111   9.379   8.390   9.892  2.0940  0.9040 -1.3687
27673SOL    HW289112   9.407   8.537   9.875  0.5944  1.7059  2.1268
27674SOL     OW89113   7.713   1.595   6.453  0.1801  0.0358  0.0357
27674SOL    HW189114   7.747   1.553   6.532 -0.5824 -0.9485 -0.1350
27674SOL    HW289115   7.620   1.572   6.452  0.0677  0.4754 -0.8697
27675SOL     OW89116   2.738   4.287   0.362  0.8010 -0.2667 -0.7548
27675SOL    HW189117   2.687   4.215   0.400  0.6042 -0.3577 -1.1815
27675SOL    HW289118   2.809   4.301   0.424 -0.1207  0.3127  0.1944
27676SOL     OW89119   9.040  10.400   1.773  0.3686 -0.4054  0.3055
27676SOL    HW189120   9.060  10.493   1.782  0.9825 -0.5044  0.0793
27676SOL    HW289121   8.945  10.395   1.773  0.3125  0.3270 -0.6144
27677SOL     OW89122   5.916   9.814   0.310 -0.2098 -0.7729 -0.5562
27677SOL    HW189123   5.975   9.776   0.376 -2.2908 -2.3366  0.5598
27677SOL    HW289124   5.897   9.741   0.251 -0.4309 -0.0888 -1.3434
27678SOL     OW89125   7.614   9.241   7.303  0.2856  0.8475 -0.2421
27678SOL    HW189126   7.644   9.314   7.358 -0.9549  1.4171 -0.2733
27678SOL    HW289127   7.678   9.172   7.317 -0.0108  0.9558  1.9947
27679SOL     OW89128   8.680   9.631   7.621  0.1027  0.2022 -0.9076
27679SOL    HW189129   8.770   9.648   7.593 -0.0922  0.1949 -1.5700
27679SOL    HW289130   8.647   9.717   7.648  0.2675  0.2305 -0.7945
27680SOL     OW89131   3.468   6.984   2.557  0.7089  0.3598  0.6162
27680SOL    HW189132   3.455   6.895   2.525 -0.0789  0.4974  0.5189
27680SOL    HW289133   3.379   7.019   2.567  1.0068  1.8655 -1.3968
27681SOL     OW89134   2.835   1.798   2.382  0.6313 -0.6020  0.1723
27681SOL    HW189135   2.893   1.874   2.380 -1.0067  0.6930 -0.1528
27681SOL    HW289136   2.857   1.749   2.303 -1.1028  1.8285 -2.0296
27682SOL     OW89137   2.133  10.671   5.185 -0.0650  0.2500 -0.0512
27682SOL    HW189138   2.105  10.747   5.133 -0.6760 -0.3597 -0.6447
27682SOL    HW289139   2.218  10.697   5.221  0.3116  0.7622 -1.2320
27683SOL     OW89140  10.472   2.209   4.279  0.4308 -0.0481 -0.1001
27683SOL    HW189141  10.437   2.165   4.202 -0.3738 -1.5379  1.0562
27683SOL    HW289142  10.477   2.140   4.346 -0.7051  1.5617  1.7424
27684SOL     OW89143   7.821   2.440   1.994  0.5772  0.1580  0.0706
27684SOL    HW189144   7.795   2.428   2.086  0.7306  1.3883  0.2891
27684SOL    HW289145   7.835   2.534   1.985  0.3764  0.0793 -1.2759
27685SOL     OW89146   6.991   4.302   7.899 -0.4044 -0.3734 -0.3990
27685SOL    HW189147   7.067   4.246   7.886 -0.5322 -0.6873  0.1922
27685SOL    HW289148   6.946   4.266   7.975 -1.1447 -0.1874 -0.7328
27686SOL     OW89149   2.562   7.327   2.112  0.2165  0.5606  0.2352
27686SOL    HW189150   2.493   7.361   2.168  0.1569  0.9199 -0.0517
27686SOL    HW289151   2.593   7.249   2.156 -0.7038  0.1260  0.1242
27687SOL     OW89152   5.967   3.775   3.713  0.5060 -0.1122  0.2438
27687SOL    HW189153   5.978   3.851   3.656 -1.8654  0.0938 -0.0360
27687SOL    HW289154   6.048   3.772   3.764  1.7997  0.9540 -1.6190
27688SOL     OW89155  10.135   4.123   8.240  0.1771  0.0049 -0.0616
27688SOL    HW189156  10.207   4.186   8.230 -0.7421  1.1141  0.1383
27688SOL    HW289157  10.080   4.137   8.163 -0.7612  0.4218  0.6734
27689SOL     OW89158   4.523   4.350   7.284  0.4374  0.1214 -0.5261
27689SOL    HW189159   4.465   4.385   7.217 -1.6613 -0.5727  0.8065
27689SOL    HW289160   4.565   4.427   7.322  0.0920  0.6863 -1.2692
27690SOL     OW89161   2.031   6.961   5.589 -0.3497  0.0351 -0.1761
27690SOL    HW189162   2.033   6.901   5.515  2.0217 -1.3347  0.8573
27690SOL    HW289163   1.982   6.914   5.657 -1.0055  0.5404 -0.2886
27691SOL     OW89164   5.742   4.102   3.333  0.1850 -0.8033  0.6151
27691SOL    HW189165   5.674   4.101   3.400  0.3764 -1.7735  0.7974
27691SOL    HW289166   5.810   4.160   3.369 -1.3018  1.7604 -0.3735
27692SOL     OW89167   4.482   3.862   0.933  0.1147 -0.0204  0.2465
27692SOL    HW189168   4.390   3.884   0.946 -0.5789 -0.1691 -3.3600
27692SOL    HW289169   4.485   3.767   0.936  0.0194 -0.0392 -0.1484
27693SOL     OW89170   9.999  10.034   1.267  0.0322 -0.3869 -0.0413
27693SOL    HW189171   9.988  10.125   1.239 -0.2712 -0.6030 -0.6574
27693SOL    HW289172  10.082  10.007   1.229  0.9895  0.1364  1.5766
27694SOL     OW89173   7.184   3.734   5.862 -0.0177  0.6551 -0.0735
27694SOL    HW189174   7.217   3.811   5.815  1.6792  1.6812  2.5363
27694SOL    HW289175   7.099   3.762   5.896  0.9186  1.7791  1.5075
27695SOL     OW89176   7.545   9.618   6.820  0.1784 -0.1336 -0.0458
27695SOL    HW189177   7.590   9.702   6.804  0.7112 -0.4536 -0.2724
27695SOL    HW289178   7.531   9.616   6.914  1.8805 -0.6181  0.2332
27696SOL     OW89179  10.531   5.915   5.672 -0.6837 -0.0885  0.3007
27696SOL    HW189180  10.620   5.921   5.707 -0.4090  0.6027 -0.4776
27696SOL    HW289181  10.508   5.823   5.681 -0.1940 -0.1371  1.2253
27697SOL     OW89182   0.758   0.902   1.719 -0.3473 -0.1861 -0.2748
27697SOL    HW189183   0.776   0.996   1.724  0.3710 -0.2966 -0.6504
27697SOL    HW289184   0.741   0.876   1.809  0.4403  0.1271 -0.0242
27698SOL     OW89185   6.513   3.623   9.183  0.3460 -0.3430  0.0804
27698SOL    HW189186   6.563   3.704   9.169  0.8904 -0.9094 -1.4291
27698SOL    HW289187   6.472   3.606   9.099 -2.4292  0.0658  1.2373
27699SOL     OW89188  10.465   1.306   7.254 -0.3074 -0.6698 -0.1704
27699SOL    HW189189  10.489   1.398   7.264 -0.1529 -0.8888  2.0444
27699SOL    HW289190  10.381   1.298   7.298  1.0605 -2.0919  2.3970
27700SOL     OW89191   3.246   3.974   9.077 -0.3156  0.0285  0.1535
27700SOL    HW189192   3.158   4.009   9.064 -0.5351 -1.0096 -1.2810
27700SOL    HW289193   3.242   3.884   9.044  1.1945 -0.1498  0.3793
27701SOL     OW89194   4.193   6.929   5.490  0.3454 -0.4428  0.1011
27701SOL    HW189195   4.204   6.953   5.398  1.1326  1.9691  0.7370
27701SOL    HW289196   4.281   6.904   5.519  0.0333 -1.5342  0.1168
27702SOL     OW89197   2.701   5.615   6.158  0.4744  0.1198 -0.3824
27702SOL    HW189198   2.638   5.674   6.200 -1.1570  0.1647 -2.6767
27702SOL    HW289199   2.752   5.672   6.101  2.6086  0.0549  1.3514
27703SOL     OW89200   9.532   7.121   5.834  0.3258 -0.4635  0.2987
27703SOL    HW189201   9.532   7.058   5.762 -1.9212 -1.3254  0.9495
27703SOL    HW289202   9.612   7.171   5.823  1.8402 -2.9372 -0.7024
27704SOL     OW89203   3.699   4.043   4.306  0.0226  0.2661 -0.0698
27704SOL    HW189204   3.646   4.063   4.382  2.5093 -0.2264  1.9395
27704SOL    HW289205   3.644   3.988   4.251 -1.9143  0.7906  1.2561
27705SOL     OW89206   3.757   8.765   8.474 -0.2841 -0.7844  0.3471
27705SOL    HW189207   3.684   8.704   8.487 -0.9186 -0.1945 -0.3311
27705SOL    HW289208   3.718   8.852   8.486  0.9379 -0.4901  2.9285
27706SOL     OW89209   6.543   6.582   1.783  0.4326 -0.5215 -0.1965
27706SOL    HW189210   6.452   6.553   1.775 -0.2709  1.2585  0.7488
27706SOL    HW289211   6.544   6.635   1.862  2.2382 -0.2334 -0.3763
27707SOL     OW89212   3.916   0.689   1.903 -0.3037 -0.4703 -0.0564
27707SOL    HW189213   3.829   0.713   1.935 -0.6134 -0.2671 -1.0124
27707SOL    HW289214   3.912   0.706   1.809  1.2735  1.0802  0.1071
27708SOL     OW89215   4.076   4.475   4.873 -0.1697 -0.1113 -0.3025
27708SOL    HW189216   4.110   4.490   4.785  0.7577 -1.9330 -0.2925
27708SOL    HW289217   4.054   4.563   4.905 -0.5080  0.5738 -2.3174
27709SOL     OW89218   8.552  10.162   4.269  0.1323  0.1454 -0.6073
27709SOL    HW189219   8.457  10.151   4.271  0.0993  0.2864  1.6898
27709SOL    HW289220   8.565  10.257   4.266  0.1606  0.1611 -0.1710
27710SOL     OW89221   5.573   6.244   6.414 -0.1492 -0.6851  0.5448
27710SOL    HW189222   5.577   6.149   6.407 -2.3383 -0.8055  0.2524
27710SOL    HW289223   5.618   6.276   6.335 -0.3628 -1.5037  0.0788
27711SOL     OW89224   8.194   9.769   8.871  0.7109 -0.4257  0.1200
27711SOL    HW189225   8.121   9.809   8.824  0.5502  0.7512  1.3103
27711SOL    HW289226   8.271   9.819   8.845  0.9215 -0.9423 -0.2700
27712SOL     OW89227   9.710   9.109   3.201  0.1043 -0.2539 -0.0380
27712SOL    HW189228   9.658   9.036   3.234  0.0563  0.3051  1.1724
27712SOL    HW289229   9.799   9.075   3.197 -0.2116 -1.0051 -1.4767
27713SOL     OW89230   4.230   6.057   9.938  0.0566 -0.6502 -1.0012
27713SOL    HW189231   4.227   6.145   9.899  2.0017  0.1608  0.5133
27713SOL    HW289232   4.143   6.044   9.974  0.3439  1.7290  0.8251
27714SOL     OW89233   2.893   6.227   4.830  0.4774 -0.1282  0.2059
27714SOL    HW189234   2.895   6.278   4.911 -0.7647 -0.7908  0.6874
27714SOL    HW289235   2.894   6.136   4.859 -1.7292 -0.4148 -0.3830
27715SOL     OW89236   3.865   0.643   2.479 -0.4755 -0.3456 -0.7208
27715SOL    HW189237   3.919   0.608   2.408  0.9602  1.5576 -0.6525
27715SOL    HW289238   3.800   0.698   2.434  1.5169  2.2946 -0.6241
27716SOL     OW89239   2.286   5.698   8.592  0.5063  0.2574 -0.5020
27716SOL    HW189240   2.382   5.707   8.590  0.3904  1.8220 -2.0083
27716SOL    HW289241   2.255   5.787   8.606 -0.7412 -0.2527  0.0486
27717SOL     OW89242   3.087   0.590   4.949  0.0555 -0.4948  0.0931
27717SOL    HW189243   3.009   0.626   4.907  0.6666  0.7318 -0.0675
27717SOL    HW289244   3.126   0.665   4.995  0.0589 -1.5349  1.8686
27718SOL     OW89245   5.416   4.754   9.756  1.0173 -0.0423 -0.2715
27718SOL    HW189246   5.461   4.832   9.725  0.2157  0.3143 -0.5468
27718SOL    HW289247   5.329   4.759   9.717  0.7033 -0.6797  0.3271
27719SOL     OW89248   0.058  10.369   9.942  0.5225 -0.0446 -0.8628
27719SOL    HW189249   0.015  10.396  10.024  1.1941  1.1697 -0.8834
27719SOL    HW289250   0.023  10.429   9.876  2.3554  1.0996 -0.8397
27720SOL     OW89251   8.159   5.163   6.128 -0.2601  0.0896 -0.5296
27720SOL    HW189252   8.098   5.100   6.089 -1.1634  1.0160 -0.6809
27720SOL    HW289253   8.153   5.146   6.222 -0.8989  0.2831 -0.5271
27721SOL     OW89254   8.070   4.369   0.470 -0.2250  0.3636 -0.4466
27721SOL    HW189255   8.162   4.390   0.489 -0.6456  2.0607 -0.1668
27721SOL    HW289256   8.075   4.296   0.408  1.2755 -0.7211  0.8518
27722SOL     OW89257   2.981   1.550   3.486 -0.1469  0.4196  0.2365
27722SOL    HW189258   2.922   1.616   3.524 -0.7882  1.7697 -2.7989
27722SOL    HW289259   3.068   1.589   3.494 -0.2936  0.7594  0.2143
27723SOL     OW89260   7.619   4.512   3.238 -0.3929  0.7415 -0.5503
27723SOL    HW189261   7.583   4.461   3.311 -1.2892 -1.5126 -2.4377
27723SOL    HW289262   7.679   4.573   3.279 -1.3040 -0.0159  2.1280
27724SOL     OW89263   9.536   4.213   9.700  0.1923  0.0867 -0.0048
27724SOL    HW189264   9.501   4.242   9.784  1.8609  1.0833  0.3771
27724SOL    HW289265   9.565   4.123   9.716 -0.6997 -0.2009  0.0904
27725SOL     OW89266   8.559   6.399   3.616 -0.4759 -0.1941 -0.2657
27725SOL    HW189267   8.587   6.441   3.535 -0.5828 -1.6180 -1.0758
27725SOL    HW289268   8.627   6.421   3.679 -0.6554  1.3694 -0.5780
27726SOL     OW89269   4.292   7.283   8.483 -0.3519 -0.1354 -0.7417
27726SOL    HW189270   4.323   7.257   8.396 -0.2351  3.0860 -1.8086
27726SOL    HW289271   4.206   7.322   8.466 -0.3849  0.4220  0.5960
27727SOL     OW89272   5.884   0.587  10.312 -0.2438 -0.1341 -0.3219
27727SOL    HW189273   5.873   0.670  10.358  1.3426  0.4926 -1.0235
27727SOL    HW289274   5.877   0.610  10.219  0.1904 -0.7782 -0.5188
27728SOL     OW89275   7.076   0.035   0.111  0.2353  0.4462 -0.2253
27728SOL    HW189276   7.110  -0.032   0.171  2.1770  1.3977 -0.2071
27728SOL    HW289277   6.985   0.048   0.140 -0.3773 -2.4753 -0.5373
27729SOL     OW89278   9.784   8.570   4.880 -0.4729  0.4326 -0.7947
27729SOL    HW189279   9.844   8.627   4.927 -1.1643  0.4855  0.0566
27729SOL    HW289280   9.747   8.513   4.948 -0.6643 -0.2436 -1.4499
27730SOL     OW89281   9.599   7.105   4.381  0.0304  0.0404  0.6720
27730SOL    HW189282   9.530   7.103   4.314 -0.5113 -0.5492  1.2290
27730SOL    HW289283   9.571   7.040   4.445  0.9446  0.0439  1.0792
27731SOL     OW89284   7.651   3.756   1.468 -0.0086  0.0931  1.0564
27731SOL    HW189285   7.557   3.766   1.484 -0.6215 -1.6774 -0.9471
27731SOL    HW289286   7.676   3.678   1.518 -0.1028 -0.6580 -0.0439
27732SOL     OW89287   7.991   5.007   2.665  0.4049 -0.4447 -0.3996
27732SOL    HW189288   7.952   5.093   2.649  1.2043  0.1660  0.7826
27732SOL    HW289289   7.942   4.972   2.740  0.8681 -0.4903 -0.1150
27733SOL     OW89290   2.455   8.531   2.362  0.1383  0.2527 -0.2404
27733SOL    HW189291   2.389   8.508   2.428 -0.9660 -0.2313 -1.4771
27733SOL    HW289292   2.448   8.626   2.353 -1.0340  0.1094 -1.0012
27734SOL     OW89293   1.124   0.475   6.582  0.4499  0.2543 -0.2966
27734SOL    HW189294   1.076   0.544   6.628 -0.5836 -0.2468 -0.5937
27734SOL    HW289295   1.120   0.400   6.641  3.0056  0.8652  0.7838
27735SOL     OW89296   1.702   9.688   7.481 -0.6568  0.3170 -0.2329
27735SOL    HW189297   1.710   9.609   7.535  0.0953  0.8504  0.4632
27735SOL    HW289298   1.620   9.728   7.509  0.1932  1.0958  1.2427
27736SOL     OW89299   7.780   5.659   8.662 -0.4228 -0.5294  0.2445
27736SOL    HW189300   7.809   5.729   8.720 -1.2838  0.2067 -0.1913
27736SOL    HW289301   7.827   5.673   8.580 -2.5453  1.2204 -0.7842
27737SOL     OW89302   5.981   0.444   2.866 -0.5914  0.1041  0.2074
27737SOL    HW189303   5.895   0.404   2.848 -0.3573  0.7743 -2.9101
27737SOL    HW289304   5.962   0.514   2.929 -1.9234 -1.1100  1.2481
27738SOL     OW89305   0.862   0.424   9.500  0.0954  0.4449  0.2808
27738SOL    HW189306   0.817   0.494   9.452 -2.5348 -2.1378 -1.3454
27738SOL    HW289307   0.805   0.407   9.575  0.0639 -0.7182  0.0012
27739SOL     OW89308   7.592   3.899   5.498  0.7270 -0.1223  0.4451
27739SOL    HW189309   7.630   3.867   5.417 -0.6507  0.0377 -0.2996
27739SOL    HW289310   7.606   3.994   5.495  0.5733 -0.1021  0.3240
27740SOL     OW89311   7.499   8.705   6.459 -0.2715 -0.3745  0.1642
27740SOL    HW189312   7.547   8.710   6.542  1.2940  0.0617 -0.7335
27740SOL    HW289313   7.432   8.774   6.465  0.8812  0.7581  0.4360
27741SOL     OW89314   0.831  10.067   6.598 -0.3167  0.3315 -0.4194
27741SOL    HW189315   0.839  10.055   6.503 -1.9027 -0.0917 -0.5333
27741SOL    HW289316   0.857  10.158   6.613 -1.0730  0.7321 -1.4127
27742SOL     OW89317   5.352   4.380  10.520  0.1302 -0.1696  0.3621
27742SOL    HW189318   5.266   4.421  10.531  0.6969  0.9272  0.8654
27742SOL    HW289319   5.342   4.323  10.444 -0.4392  1.6137 -0.9558
27743SOL     OW89320   2.972   1.263   5.340 -0.1403 -0.2828 -0.0668
27743SOL    HW189321   2.903   1.296   5.399  0.0891 -2.1225  1.3240
27743SOL    HW289322   3.039   1.230   5.399  1.0835 -0.2775 -1.4192
27744SOL     OW89323   1.089   0.635   7.687  0.4056 -0.1293 -0.5167
27744SOL    HW189324   1.112   0.653   7.778 -1.7444  0.8140 -0.0799
27744SOL    HW289325   1.162   0.583   7.653  1.2770 -0.4969  1.7309
27745SOL     OW89326   2.009   0.151   3.132 -0.1731 -0.1466 -0.3581
27745SOL    HW189327   2.100   0.167   3.153 -0.3871  0.3343  0.2108
27745SOL    HW289328   1.961   0.221   3.176 -0.8207 -0.4190 -0.6160
27746SOL     OW89329   9.378   2.576   7.723 -0.0147  0.5700 -0.0705
27746SOL    HW189330   9.409   2.487   7.739  0.6690  1.1071  1.9374
27746SOL    HW289331   9.282   2.570   7.730  0.1205  0.3193  2.2981
27747SOL     OW89332   7.858   0.345   6.666  0.6275 -0.4677  0.2199
27747SOL    HW189333   7.813   0.327   6.584  2.9414  1.2679 -1.5687
27747SOL    HW289334   7.900   0.262   6.689  1.2948 -0.5759 -1.2750
27748SOL     OW89335   5.504   4.766   4.104 -0.2285  0.1735  0.6271
27748SOL    HW189336   5.540   4.788   4.190  0.2136  0.0680  0.4746
27748SOL    HW289337   5.504   4.848   4.056 -0.0051  0.1380  0.5640
27749SOL     OW89338   6.681   5.286   4.054  0.3734 -0.0501  0.2699
27749SOL    HW189339   6.662   5.361   3.997 -1.4817 -0.5465  0.1694
27749SOL    HW289340   6.745   5.319   4.117  0.3102  1.3345 -0.3541
27750SOL     OW89341   7.481  10.447   5.029  0.1671  0.4855 -0.2972
27750SOL    HW189342   7.568  10.409   5.038  0.5075  1.2085 -0.4051
27750SOL    HW289343   7.481  10.522   5.089 -1.3938 -1.1657  1.9057
27751SOL     OW89344   7.866   7.805  10.780 -0.1125 -0.3129 -0.3933
27751SOL    HW189345   7.792   7.746  10.769 -1.6987  1.5739 -0.3178
27751SOL    HW289346   7.871   7.853  10.697  0.8308 -0.1922 -0.2802
27752SOL     OW89347   7.566   5.881   4.321 -0.5200 -0.1554  0.0121
27752SOL    HW189348   7.560   5.947   4.252 -0.8483  0.5018  0.6505
27752SOL    HW289349   7.548   5.798   4.276  2.5569 -0.2219 -1.3539
27753SOL     OW89350   3.681   3.037   6.688 -0.2600 -0.4759 -0.3426
27753SOL    HW189351   3.588   3.021   6.704 -0.6886 -0.1820 -2.3004
27753SOL    HW289352   3.697   3.003   6.600  1.4335 -0.2755 -0.1550
27754SOL     OW89353   4.083   4.662   0.470 -0.0585 -0.4446  0.5405
27754SOL    HW189354   4.131   4.620   0.542 -0.6361  0.1598  1.3010
27754SOL    HW289355   4.081   4.596   0.401 -1.0119 -1.7324  1.7371
27755SOL     OW89356   7.460  10.926   6.660 -0.2515  0.3452  0.1919
27755SOL    HW189357   7.462  10.964   6.573 -4.4157 -1.1833 -0.8273
27755SOL    HW289358   7.412  10.989   6.713 -0.7752 -0.2427  0.4302
27756SOL     OW89359  10.708   5.961   0.615 -0.0355  0.4300  0.1819
27756SOL    HW189360  10.730   5.868   0.623  2.1446  0.2716 -4.1941
27756SOL    HW289361  10.646   5.964   0.542  2.7266  2.4180 -2.3565
27757SOL     OW89362   2.721  10.857   9.548  0.8084 -0.3136  0.1559
27757SOL    HW189363   2.799  10.803   9.532  0.7282 -0.9815  1.8385
27757SOL    HW289364   2.755  10.943   9.571  0.9345  0.5795 -2.9032
27758SOL     OW89365   7.527   7.423   4.302 -0.6497  0.2803 -0.3277
27758SOL    HW189366   7.460   7.431   4.235 -0.6164  1.8224 -0.2046
27758SOL    HW289367   7.579   7.503   4.294  1.4313 -1.0377 -0.6732
27759SOL     OW89368   0.455   1.955   8.976  0.1458 -0.2613  0.3551
27759SOL    HW189369   0.409   1.956   9.061  0.7042  0.1654  0.6625
27759SOL    HW289370   0.431   1.871   8.937  0.2220 -0.6523  1.1253
27760SOL     OW89371   2.075   2.800   4.413 -0.0035  0.8022  0.0748
27760SOL    HW189372   2.074   2.895   4.404 -0.0121  1.0092  1.8021
27760SOL    HW289373   1.992   2.771   4.375 -0.4810  1.6030  0.4711
27761SOL     OW89374   9.004   9.871   1.606 -0.0817  0.0783  0.0049
27761SOL    HW189375   9.094   9.848   1.580 -0.2436 -0.0323 -0.4603
27761SOL    HW289376   9.000   9.966   1.594 -0.0093  0.0930  0.0906
27762SOL     OW89377   7.455   8.754   4.859 -0.8241 -0.0763 -0.0512
27762SOL    HW189378   7.428   8.775   4.769 -0.4025  0.3356 -0.0826
27762SOL    HW289379   7.523   8.818   4.879 -1.6955  0.5470  0.9768
27763SOL     OW89380   2.709   0.184   1.298  0.0500  0.2595  0.1022
27763SOL    HW189381   2.710   0.150   1.208 -1.0826  0.2954  0.0632
27763SOL    HW289382   2.744   0.273   1.290 -0.4144  0.4071 -0.3719
27764SOL     OW89383   2.112   6.225   6.929  0.2698  0.1376  0.0354
27764SOL    HW189384   2.132   6.233   6.835  0.4198 -1.8542 -0.1534
27764SOL    HW289385   2.017   6.221   6.933  0.1166  2.7043  0.2541
27765SOL     OW89386   9.725   3.569   9.849 -0.4035  0.3056 -0.0254
27765SOL    HW189387   9.712   3.606   9.762 -1.4264  0.2988  0.1081
27765SOL    HW289388   9.637   3.564   9.886  0.0263  0.3741  1.0381
27766SOL     OW89389   7.022   7.559   4.952  0.1553 -0.0733 -0.2026
27766SOL    HW189390   7.117   7.547   4.949  0.1508 -0.1101 -0.2007
27766SOL    HW289391   6.986   7.472   4.934  0.1214 -0.0161 -0.4124
27767SOL     OW89392  10.208   8.860   2.228  0.2135  0.2211  0.0151
27767SOL    HW189393  10.260   8.842   2.306  0.8865 -0.3374 -0.5402
27767SOL    HW289394  10.117   8.863   2.259  0.5068  0.4038  0.8706
27768SOL     OW89395   9.529  10.073   5.746 -0.1112 -0.1738 -0.1994
27768SOL    HW189396   9.551  10.075   5.839  2.1009 -2.8734 -0.5066
27768SOL    HW289397   9.462  10.005   5.739  1.8309 -2.1437 -0.7909
27769SOL     OW89398   2.447   6.023   9.792  0.4005 -0.3934 -0.1852
27769SOL    HW189399   2.537   6.038   9.822  0.6728 -0.1820 -1.0672
27769SOL    HW289400   2.395   6.026   9.872  0.7971  2.5141  0.0887
27770SOL     OW89401   1.100   6.851   7.833 -0.0522 -0.3213 -0.1644
27770SOL    HW189402   1.141   6.937   7.844 -1.3431  0.8229 -3.2572
27770SOL    HW289403   1.013   6.862   7.871 -0.0710 -0.4241 -0.1792
27771SOL     OW89404   6.351   8.768  10.354 -0.3335  0.0446 -0.0994
27771SOL    HW189405   6.387   8.704  10.415  4.1579  0.5480 -1.8240
27771SOL    HW289406   6.380   8.853  10.388 -2.6018  0.8796 -0.0760
27772SOL     OW89407   5.353   2.191   7.549 -0.8166  0.1670 -0.3138
27772SOL    HW189408   5.296   2.267   7.553 -1.4823 -0.3325 -0.1052
27772SOL    HW289409   5.309   2.125   7.602  1.1234  0.5187  1.9296
27773SOL     OW89410  10.517   3.627   4.144 -0.3882  0.0509  0.1031
27773SOL    HW189411  10.600   3.662   4.175 -0.4285 -0.7380  1.1403
27773SOL    HW289412  10.504   3.668   4.058 -1.1609  3.7751  1.7885
27774SOL     OW89413   4.060   6.792   5.879 -0.0609 -0.2267  0.0481
27774SOL    HW189414   4.072   6.802   5.785 -0.0321 -0.5475  0.0188
27774SOL    HW289415   3.965   6.791   5.892 -0.0826  1.1021  0.1578
27775SOL     OW89416   3.675   9.794   3.154  0.4320  0.0712 -0.3236
27775SOL    HW189417   3.750   9.782   3.213  1.3745 -1.4321 -1.7284
27775SOL    HW289418   3.708   9.768   3.068 -1.3354  0.7232 -1.2456
27776SOL     OW89419  10.677   1.394   0.283  0.2786  0.0748 -0.2013
27776SOL    HW189420  10.739   1.336   0.326  0.2936  0.8789  0.8910
27776SOL    HW289421  10.692   1.480   0.323  0.1745  0.8212 -1.6866
27777SOL     OW89422   2.061  10.139   8.153 -0.4704  0.0673  0.2333
27777SOL    HW189423   2.084  10.161   8.243  1.2668 -1.6353  0.2609
27777SOL    HW289424   1.985  10.081   8.161 -0.5118  0.1636  0.5676
27778SOL     OW89425  10.149  10.180  10.391 -0.9309 -0.8394 -0.3680
27778SOL    HW189426  10.102  10.099  10.376  0.0697 -1.3423 -0.8469
27778SOL    HW289427  10.190  10.168  10.477  0.7540 -1.6191 -1.2490
27779SOL     OW89428   7.180   8.262  10.572 -0.3316 -0.6114  0.0063
27779SOL    HW189429   7.214   8.245  10.484 -1.2842  1.5312 -0.8685
27779SOL    HW289430   7.168   8.176  10.611  0.3398 -1.6110 -1.8720
27780SOL     OW89431   5.295   8.619   7.821 -0.2425  0.0096 -0.0080
27780SOL    HW189432   5.268   8.687   7.882  0.3904 -0.3704  0.7082
27780SOL    HW289433   5.236   8.546   7.838  0.8683 -0.6410  1.2133
27781SOL     OW89434   3.219   0.611   8.688  0.3548  0.1162  0.3427
27781SOL    HW189435   3.298   0.626   8.740  1.6640 -1.2894 -1.1591
27781SOL    HW289436   3.247   0.558   8.615 -2.1279 -0.9767  0.0672
27782SOL     OW89437   2.307   6.785   7.927 -0.1213 -0.2104  0.5333
27782SOL    HW189438   2.366   6.794   8.001  0.3962 -1.0519  0.2267
27782SOL    HW289439   2.226   6.827   7.957  0.4633  0.5426  1.1189
27783SOL     OW89440   9.681   3.024   1.214  0.1268  0.3240  0.4902
27783SOL    HW189441   9.603   3.008   1.267  0.9811  2.0162  2.3906
27783SOL    HW289442   9.752   2.987   1.266  0.8061  0.5565 -0.2668
27784SOL     OW89443   7.514   1.488   7.489  0.0635 -0.2363 -0.2550
27784SOL    HW189444   7.592   1.434   7.499  0.0567 -0.2914 -0.4975
27784SOL    HW289445   7.491   1.513   7.578  1.7320  1.7335 -0.2798
27785SOL     OW89446   7.124   4.111   4.349  0.5386  0.1601  0.5905
27785SOL    HW189447   7.152   4.182   4.292 -1.4840 -0.2965 -1.0962
27785SOL    HW289448   7.056   4.150   4.404 -1.0876 -0.5614 -0.8258
27786SOL     OW89449   0.339  10.059   9.363  0.3104  0.1550  0.6087
27786SOL    HW189450   0.285   9.986   9.334  0.3709 -0.2265  1.4164
27786SOL    HW289451   0.298  10.089   9.444  1.3592 -0.2364  1.3177
27787SOL     OW89452   6.678   9.862   1.706  0.2740 -0.3866 -0.0177
27787SOL    HW189453   6.708   9.951   1.724 -1.9645  0.3305  0.4479
27787SOL    HW289454   6.727   9.807   1.767 -0.2964  0.9001  1.6600
27788SOL     OW89455   6.407   2.089   9.659  0.0077 -0.6930  0.8729
27788SOL    HW189456   6.384   2.034   9.734  0.4810 -1.2197  0.6406
27788SOL    HW289457   6.503   2.093   9.660 -0.0446  0.9216  1.4321
27789SOL     OW89458   0.484   2.168   3.916  0.2570 -0.6658 -0.0081
27789SOL    HW189459   0.537   2.197   3.842 -3.4019 -0.4441 -2.8468
27789SOL    HW289460   0.483   2.072   3.909  0.5698 -0.6969  0.3154
27790SOL     OW89461   9.580  10.099   9.989  0.4115  0.3687  0.1442
27790SOL    HW189462   9.538  10.033   9.935  0.8278 -1.2810  1.7295
27790SOL    HW289463   9.593  10.174   9.931  0.4212 -1.1236 -1.8682
27791SOL     OW89464   6.786   1.338   8.407 -0.4869  0.3348 -0.1859
27791SOL    HW189465   6.799   1.433   8.408  1.0493  0.1379  0.2187
27791SOL    HW289466   6.797   1.313   8.315  1.6720  0.2561  0.0456
27792SOL     OW89467   4.999   4.498   6.260  0.8286  0.3521 -0.3685
27792SOL    HW189468   5.029   4.509   6.350  1.1157 -2.4389 -0.0323
27792SOL    HW289469   5.019   4.407   6.239 -3.2383 -0.4352 -1.7044
27793SOL     OW89470   8.069  10.765   4.601 -0.0055 -1.3051 -0.0458
27793SOL    HW189471   8.150  10.714   4.597  0.3376 -0.6843 -1.6128
27793SOL    HW289472   8.023  10.731   4.678  2.1615 -1.0042  1.4652
27794SOL     OW89473   0.815   8.667   2.968 -0.0597  0.4225  0.4515
27794SOL    HW189474   0.827   8.704   2.881  0.2568 -1.0044 -0.1383
27794SOL    HW289475   0.900   8.678   3.011  0.3212 -0.4235 -0.0578
27795SOL     OW89476   3.662   0.579  10.505  0.1932  0.2083 -0.0655
27795SOL    HW189477   3.673   0.618  10.418 -1.7089  2.0183  0.4347
27795SOL    HW289478   3.728   0.622  10.559  1.7675 -1.3376 -0.6884
27796SOL     OW89479   4.017   6.806   9.775 -0.3310  0.2170  0.5666
27796SOL    HW189480   4.021   6.891   9.731  0.7114 -0.9559 -1.7839
27796SOL    HW289481   3.943   6.761   9.733  0.7421 -0.9724 -0.1226
27797SOL     OW89482   6.509   2.063   2.860 -0.0322  0.2262 -0.1432
27797SOL    HW189483   6.544   2.057   2.771  2.2733  0.3663  0.7002
27797SOL    HW289484   6.436   2.001   2.861  1.5929 -1.8333 -1.3980
27798SOL     OW89485  10.284   2.380   4.439  0.3842 -0.1760  0.1968
27798SOL    HW189486  10.291   2.434   4.361  0.0518  0.6038  0.6897
27798SOL    HW289487  10.371   2.340   4.449  1.0677  1.3062  0.5446
27799SOL     OW89488   2.032   8.499   0.117  0.2045  1.0483  0.1479
27799SOL    HW189489   2.028   8.404   0.104  0.4507  1.0605 -0.0194
27799SOL    HW289490   2.065   8.510   0.206 -0.5777  0.9725  0.4579
27800SOL     OW89491   6.363   6.351   9.230 -0.2201 -0.3848 -0.3900
27800SOL    HW189492   6.435   6.385   9.177 -1.8495  1.2385 -1.7279
27800SOL    HW289493   6.383   6.259   9.241  2.9577  0.3219  0.8963
27801SOL     OW89494   6.804   5.614   6.138  0.0911  0.3954 -0.1827
27801SOL    HW189495   6.732   5.558   6.109  0.6167 -0.3202 -0.1354
27801SOL    HW289496   6.765   5.672   6.203 -0.5057  0.2007 -0.3623
27802SOL     OW89497   3.899   4.158   0.692  0.2685 -0.8357 -0.0668
27802SOL    HW189498   3.975   4.214   0.708 -0.2707 -0.2642  0.5620
27802SOL    HW289499   3.845   4.207   0.629  0.4361 -1.2596 -0.5479
27803SOL     OW89500   5.760   6.923   7.128  0.5251  0.5629  0.1490
27803SOL    HW189501   5.723   6.847   7.173 -0.1541  0.5585 -0.4083
27803SOL    HW289502   5.847   6.895   7.101  0.8679  0.4989  1.2784
27804SOL     OW89503   1.447   5.435   7.495  0.5794 -0.5782  0.3627
27804SOL    HW189504   1.403   5.350   7.500  1.5359 -1.0354  1.2390
27804SOL    HW289505   1.465   5.457   7.587  1.8045 -0.2115  0.0404
27805SOL     OW89506   4.035   0.139   4.649  0.2682  0.0855 -0.1613
27805SOL    HW189507   4.061   0.161   4.738  0.1191 -0.2261 -0.0409
27805SOL    HW289508   4.019   0.045   4.650 -0.1257  0.1447 -0.4175
27806SOL     OW89509   7.047   5.811   7.357 -0.5228  0.4837  0.0403
27806SOL    HW189510   7.129   5.788   7.402 -0.0517  1.2555 -0.3952
27806SOL    HW289511   7.075   5.869   7.286 -1.3335 -0.1331 -0.8044
27807SOL     OW89512   0.129   9.681   2.912 -0.3121  0.1831 -0.5436
27807SOL    HW189513   0.200   9.624   2.882 -0.7908 -0.4159 -0.5619
27807SOL    HW289514   0.152   9.702   3.003 -0.8757 -1.2827 -0.0242
27808SOL     OW89515   1.005   1.603   7.797 -0.6659 -1.0862 -0.0837
27808SOL    HW189516   1.089   1.623   7.839  1.0388 -0.3971 -3.3950
27808SOL    HW289517   0.947   1.675   7.823  0.9222  0.3980 -0.4422
27809SOL     OW89518   5.972   7.212   5.087  0.0740  0.4704  0.3521
27809SOL    HW189519   6.037   7.198   5.157 -1.0028  0.0866  1.3067
27809SOL    HW289520   6.003   7.157   5.015  0.4905 -0.1834  1.0111
27810SOL     OW89521   8.275   4.744   9.802 -0.3553  0.1586 -0.0756
27810SOL    HW189522   8.237   4.661   9.830  0.6923  0.0999  1.3045
27810SOL    HW289523   8.243   4.808   9.865 -2.1446  1.0997 -1.8388
27811SOL     OW89524   4.895   7.705   6.776 -0.4704  0.7253 -0.3127
27811SOL    HW189525   4.906   7.686   6.870 -0.4680 -0.4087 -0.5242
27811SOL    HW289526   4.885   7.800   6.772 -0.4233  0.7984  0.8354
27812SOL     OW89527   3.768   1.041   4.110  0.3501 -0.2347 -0.0086
27812SOL    HW189528   3.848   1.074   4.150  0.3199 -2.3445  2.0341
27812SOL    HW289529   3.786   0.948   4.096 -1.4833 -0.5951 -0.1737
27813SOL     OW89530   6.016  10.447   9.394 -0.1054 -0.1867  1.0969
27813SOL    HW189531   6.079  10.427   9.462  0.3651 -1.1144  0.4059
27813SOL    HW289532   6.068  10.449   9.313 -0.8221 -0.1372  0.6295
27814SOL     OW89533   0.983   8.843   8.253  0.1334  0.5689 -0.2685
27814SOL    HW189534   0.922   8.862   8.323 -0.9981 -0.7296 -0.8586
27814SOL    HW289535   0.944   8.768   8.206  1.7350  0.2574 -1.1843
27815SOL     OW89536   6.570   0.164   1.193  0.2812 -0.5845  0.6620
27815SOL    HW189537   6.635   0.224   1.232  0.3813  0.1696 -0.5945
27815SOL    HW289538   6.603   0.149   1.104 -1.7339  0.5688 -0.3335
27816SOL     OW89539   4.918  10.107   2.705 -0.4611 -0.3160 -0.2872
27816SOL    HW189540   4.865  10.073   2.777 -0.5392 -1.6844 -0.9665
27816SOL    HW289541   4.872  10.186   2.677  0.8943  1.7134  2.7336
27817SOL     OW89542   8.173   1.381   7.028  0.2453 -0.3975 -0.5092
27817SOL    HW189543   8.161   1.426   7.112  0.1175  1.0288 -1.2467
27817SOL    HW289544   8.254   1.417   6.993 -0.9381  0.9341 -2.0769
27818SOL     OW89545   7.486   8.717   2.517  0.2768 -0.0433 -0.2021
27818SOL    HW189546   7.549   8.686   2.581 -0.5176 -1.5148 -0.0653
27818SOL    HW289547   7.401   8.690   2.552 -0.2507  0.0271 -1.3739
27819SOL     OW89548   7.485   8.812   6.169 -0.2255  0.0890 -0.2174
27819SOL    HW189549   7.522   8.901   6.169  1.6727 -0.6500 -0.7326
27819SOL    HW289550   7.432   8.808   6.248  0.5901  1.3278  0.4234
27820SOL     OW89551   5.855   0.097   4.308  0.2133 -0.7064  0.5951
27820SOL    HW189552   5.903   0.174   4.279 -0.0408 -2.2042 -4.8964
27820SOL    HW289553   5.767   0.129   4.325  0.4822  0.4460 -0.0613
27821SOL     OW89554   9.951  10.208   5.679 -0.4984 -0.5026 -0.0251
27821SOL    HW189555   9.999  10.136   5.640  1.0530  0.7129 -0.4339
27821SOL    HW289556   9.939  10.271   5.608 -1.8312 -0.3269  0.3226
27822SOL     OW89557   8.978   8.080   2.742 -0.7014 -0.1245  0.4687
27822SOL    HW189558   8.908   8.066   2.806 -0.0781  1.8076  1.6397
27822SOL    HW289559   9.036   8.145   2.782 -1.1652  2.5217 -2.7199
27823SOL     OW89560   3.915   2.162   8.274 -0.2175 -0.1587  0.3252
27823SOL    HW189561   3.990   2.109   8.301  0.8246  1.2679  0.3418
27823SOL    HW289562   3.951   2.249   8.259 -1.7441  0.3840 -0.4393
27824SOL     OW89563   5.630   3.298   4.183 -0.1554  0.1172 -0.2101
27824SOL    HW189564   5.633   3.248   4.265 -0.5972 -1.1248 -0.9251
27824SOL    HW289565   5.619   3.389   4.211  3.7306  0.3164  1.2715
27825SOL     OW89566   2.593   9.239   0.561 -0.2803  0.1469 -0.5283
27825SOL    HW189567   2.631   9.316   0.518 -0.5298  0.7633  0.3328
27825SOL    HW289568   2.505   9.267   0.588 -1.1520 -1.0725 -1.9565
27826SOL     OW89569   7.387   8.795   5.918 -0.5295  0.2709 -0.5018
27826SOL    HW189570   7.377   8.812   6.012 -1.9232 -0.7395 -0.4356
27826SOL    HW289571   7.475   8.756   5.910 -0.8006 -0.6262  0.5583
27827SOL     OW89572   3.663   5.255   2.381  0.0197  0.0638 -0.6423
27827SOL    HW189573   3.717   5.212   2.447  0.5945  1.6662 -0.0081
27827SOL    HW289574   3.725   5.305   2.328 -0.8049  2.5731  0.5745
27828SOL     OW89575   9.501  10.411   4.409  0.0819  0.2173  0.0546
27828SOL    HW189576   9.465  10.422   4.497 -1.7272 -1.4777 -0.4159
27828SOL    HW289577   9.445  10.345   4.368  1.8121 -0.1449 -1.8689
27829SOL     OW89578   7.748   4.525   6.340  0.1540 -0.1089 -0.1749
27829SOL    HW189579   7.750   4.430   6.329 -1.4791  0.0377 -2.8569
27829SOL    HW289580   7.765   4.540   6.433 -0.5140 -3.0657  0.5118
27830SOL     OW89581   2.466   5.002   0.599  0.2195 -0.0420 -0.7756
27830SOL    HW189582   2.429   4.977   0.683 -0.9643  0.4494 -1.1304
27830SOL    HW289583   2.560   5.008   0.615  0.0761 -0.5360  0.3529
27831SOL     OW89584  10.242   3.772   7.171 -0.3825  0.3908  0.4711
27831SOL    HW189585  10.326   3.766   7.126 -0.8882 -0.4440 -0.4122
27831SOL    HW289586  10.257   3.733   7.257  0.0477 -0.0835  0.1850
27832SOL     OW89587   0.256   8.522   9.781  0.1214 -0.1699  0.9382
27832SOL    HW189588   0.234   8.532   9.874 -1.8718  0.4990  0.4523
27832SOL    HW289589   0.171   8.513   9.738  1.0005 -0.2247 -0.8480
27833SOL     OW89590   1.023   8.682   0.068  0.3016 -0.2869 -0.1622
27833SOL    HW189591   1.064   8.769   0.072 -1.2771  0.4656  2.1903
27833SOL    HW289592   0.946   8.694   0.014  1.1266 -0.7624 -1.4798
27834SOL     OW89593  10.298   3.517   6.967 -0.2403 -0.1181 -0.5967
27834SOL    HW189594  10.374   3.576   6.963  0.8422 -1.5006 -1.7638
27834SOL    HW289595  10.272   3.516   7.059  0.2683  1.4682 -0.4141
27835SOL     OW89596   8.591   7.595   5.173 -0.0616  0.4545 -0.3280
27835SOL    HW189597   8.671   7.542   5.166  1.0791  2.0361  0.0446
27835SOL    HW289598   8.520   7.533   5.158  1.2445 -0.9246 -1.1938
27836SOL     OW89599  10.686   5.179   9.528 -0.2093  0.4083 -0.5979
27836SOL    HW189600  10.759   5.213   9.476  0.9548 -1.0669  0.0031
27836SOL    HW289601  10.724   5.160   9.613 -1.2857 -0.4075 -0.2782
27837SOL     OW89602   9.750   2.597   9.071  0.4403 -0.2856 -0.2327
27837SOL    HW189603   9.756   2.553   9.156  1.2379 -2.2818 -1.2599
27837SOL    HW289604   9.816   2.667   9.076 -1.8757  1.9687  1.9634
27838SOL     OW89605   1.772  10.898   0.539 -0.6084  0.5491  0.2641
27838SOL    HW189606   1.771  10.832   0.608  1.4142 -0.2055 -0.3617
27838SOL    HW289607   1.769  10.849   0.458  1.7041  1.0798 -0.2336
27839SOL     OW89608   9.411   8.231   4.544 -0.0034  0.8109 -0.2942
27839SOL    HW189609   9.380   8.321   4.547 -2.9684 -0.1159  1.8528
27839SOL    HW289610   9.415   8.204   4.636  0.2933 -1.3977 -0.8930
27840SOL     OW89611   0.442   1.919   5.359 -0.6599  0.0993 -0.0742
27840SOL    HW189612   0.433   1.828   5.329  0.5268 -0.4522  1.1081
27840SOL    HW289613   0.359   1.960   5.337 -1.2485 -1.2917 -0.5878
27841SOL     OW89614   8.167   7.174   3.235 -0.1857 -0.5135 -0.0829
27841SOL    HW189615   8.117   7.233   3.179 -0.1057 -1.1255 -0.8200
27841SOL    HW289616   8.102   7.112   3.269  0.1063 -1.7154 -1.5618
27842SOL     OW89617   4.136   3.321   7.774 -0.4398 -0.0874 -0.2896
27842SOL    HW189618   4.106   3.322   7.865 -0.8463  1.5599 -0.4148
27842SOL    HW289619   4.063   3.281   7.726 -1.0020  0.6852 -0.1100
27843SOL     OW89620   9.094   5.707   8.409 -0.1465  1.3088  0.2125
27843SOL    HW189621   8.999   5.692   8.412  0.1119 -0.9577  3.7903
27843SOL    HW289622   9.106   5.789   8.456 -0.3138  1.0924  0.6432
27844SOL     OW89623   9.623   8.166   1.025 -0.3694  0.1705 -0.0398
27844SOL    HW189624   9.632   8.184   0.931 -2.5458 -0.2263 -0.3596
27844SOL    HW289625   9.596   8.074   1.029 -1.1124  0.4201  0.9178
27845SOL     OW89626   8.580   4.776   7.396  0.2284  0.3889  0.0769
27845SOL    HW189627   8.639   4.822   7.337 -0.7383  0.4211 -0.9027
27845SOL    HW289628   8.604   4.807   7.483  1.5337  0.5148 -0.3024
27846SOL     OW89629   1.344   2.725   3.498  0.2022  0.3766 -0.6926
27846SOL    HW189630   1.382   2.675   3.571  0.9898  0.2977 -1.1527
27846SOL    HW289631   1.353   2.817   3.525  2.2426  0.4594 -1.4927
27847SOL     OW89632   4.308   6.209   0.274  1.0162  0.0192 -0.4967
27847SOL    HW189633   4.351   6.294   0.266  1.9464  0.0453  3.1111
27847SOL    HW289634   4.379   6.148   0.294  0.0881 -1.1932 -0.7657
27848SOL     OW89635   8.253   5.956   4.124 -0.5004  0.0464 -0.0593
27848SOL    HW189636   8.275   5.868   4.156 -1.6401  0.2486  1.3849
27848SOL    HW289637   8.195   5.941   4.050  0.4498 -0.4111 -0.7394
27849SOL     OW89638   5.372   3.881   8.051  0.0579  0.1977  0.0749
27849SOL    HW189639   5.308   3.902   8.118  0.7568 -0.7835  1.0809
27849SOL    HW289640   5.320   3.853   7.976 -0.7049 -0.1663  0.7267
27850SOL     OW89641   4.959   2.230   8.062  0.0887 -0.2923 -0.4643
27850SOL    HW189642   4.876   2.277   8.052  0.6737  0.9247  0.1719
27850SOL    HW289643   4.975   2.191   7.976 -0.6566  0.2943 -0.8810
27851SOL     OW89644   6.497   0.871   5.641  0.1944 -0.2476  0.0045
27851SOL    HW189645   6.533   0.792   5.601 -0.7340  0.2023 -1.8096
27851SOL    HW289646   6.448   0.839   5.717 -0.0678 -1.3969 -0.6245
27852SOL     OW89647   5.835   4.586   9.952 -0.0521  0.5731 -0.6075
27852SOL    HW189648   5.855   4.495   9.930 -0.1987  0.9490 -2.4566
27852SOL    HW289649   5.862   4.636   9.875 -0.9525  1.9816 -0.0526
27853SOL     OW89650   9.734   1.314   7.176  0.3198 -0.1162  0.5631
27853SOL    HW189651   9.673   1.354   7.114 -1.3556 -3.2432  0.0182
27853SOL    HW289652   9.798   1.268   7.122  2.2042  1.5697  1.1828
27854SOL     OW89653   4.377   4.830   1.858 -0.2478  0.4841  0.6453
27854SOL    HW189654   4.441   4.766   1.892 -0.0711 -0.0517 -0.6327
27854SOL    HW289655   4.314   4.777   1.809 -0.5527  1.2136  0.2363
27855SOL     OW89656   4.988   1.403  10.195  0.2471  0.1416 -0.8311
27855SOL    HW189657   4.970   1.425  10.286 -2.6157 -1.5542 -0.8642
27855SOL    HW289658   5.075   1.363  10.196  0.2605  0.1269  1.1289
27856SOL     OW89659   3.255   6.351   2.632  0.1864 -0.3238  0.5034
27856SOL    HW189660   3.307   6.373   2.709  2.3191 -0.5771 -0.7884
27856SOL    HW289661   3.261   6.256   2.625  0.0458 -0.3000  0.0202
27857SOL     OW89662   9.885   7.475   8.641  0.3001  0.2428 -0.6618
27857SOL    HW189663   9.825   7.544   8.670  0.9485  0.1005  1.1486
27857SOL    HW289664   9.932   7.513   8.567  1.3466  2.1565  0.8972
27858SOL     OW89665   7.747   9.769   2.178  0.2977  0.2418  0.0204
27858SOL    HW189666   7.830   9.808   2.206 -0.2469  1.1822  0.3974
27858SOL    HW289667   7.716   9.722   2.255  1.0543 -1.1671 -0.4981
27859SOL     OW89668   7.989   0.443  10.130  0.3050 -0.4141 -0.4921
27859SOL    HW189669   7.968   0.354  10.158 -0.2636 -0.4547 -1.0349
27859SOL    HW289670   7.926   0.498  10.177 -1.3479 -0.5661 -2.3942
27860SOL     OW89671   7.129   0.474   2.005  0.2010 -0.2210 -0.2267
27860SOL    HW189672   7.202   0.515   2.051 -0.4081  1.1505 -0.4129
27860SOL    HW289673   7.077   0.433   2.074 -0.5277  1.5263  0.3390
27861SOL     OW89674   9.820   9.864   1.631 -0.2359  0.2670  0.3005
27861SOL    HW189675   9.738   9.869   1.582  0.3094  0.2132 -0.6375
27861SOL    HW289676   9.828   9.771   1.653 -2.4133  0.7239  3.9446
27862SOL     OW89677   0.322   6.977   9.390  0.2514  0.7007 -0.3542
27862SOL    HW189678   0.396   7.025   9.355 -0.2333  1.3843 -0.4529
27862SOL    HW289679   0.278   6.941   9.313  0.0456  0.9391 -0.3485
27863SOL     OW89680   7.198   8.729   2.607  0.2900 -0.3091 -0.2421
27863SOL    HW189681   7.188   8.634   2.606 -1.7901 -0.1979  1.4014
27863SOL    HW289682   7.204   8.752   2.700  0.0713  1.1968 -0.5635
27864SOL     OW89683   3.767  10.604   5.955 -0.9624 -0.2957  0.1607
27864SOL    HW189684   3.742  10.578   5.866 -0.9103  1.2579 -0.3284
27864SOL    HW289685   3.693  10.576   6.010 -0.3385 -2.6612 -0.0837
27865SOL     OW89686   3.839   8.901   5.100  0.3560  0.4313  0.4935
27865SOL    HW189687   3.805   8.977   5.149  1.2342  2.0454 -1.2888
27865SOL    HW289688   3.765   8.840   5.098 -0.1164  0.8370  2.6795
27866SOL     OW89689   5.244  10.912  10.532  0.2900  0.5816 -0.2089
27866SOL    HW189690   5.157  10.928  10.494 -0.3072 -0.3843  0.6945
27866SOL    HW289691   5.304  10.958  10.473 -0.9574  2.7394  0.0985
27867SOL     OW89692   2.311   7.756  10.338 -0.1921  0.4800 -0.1363
27867SOL    HW189693   2.283   7.787  10.252 -1.8198 -0.9083 -0.1451
27867SOL    HW289694   2.283   7.664  10.341  0.0568  0.4349  1.7864
27868SOL     OW89695   3.544  10.126   0.935 -0.2027 -0.0308 -0.4991
27868SOL    HW189696   3.542  10.031   0.924 -4.0712 -0.0384 -0.7778
27868SOL    HW289697   3.557  10.160   0.847 -2.3409 -0.3376 -0.9729
27869SOL     OW89698  10.761   9.329   4.917  0.1079  0.2829  0.4430
27869SOL    HW189699  10.747   9.364   4.830 -1.0207 -1.0848  0.0354
27869SOL    HW289700  10.818   9.253   4.904 -0.8301 -0.4915  0.7518
27870SOL     OW89701   3.409   8.457   5.894  0.2925  0.0144 -0.2725
27870SOL    HW189702   3.371   8.500   5.817 -1.7089  1.0621  1.2138
27870SOL    HW289703   3.370   8.502   5.969  1.1535 -1.8291  1.3822
27871SOL     OW89704   9.344   4.868   8.829  0.2721 -0.1707  0.1274
27871SOL    HW189705   9.312   4.950   8.793  1.3005  1.8706  3.4257
27871SOL    HW289706   9.265   4.819   8.852 -0.3464  0.0094 -1.4687
27872SOL     OW89707   1.585   2.947   5.363 -0.0170  0.2333  0.2083
27872SOL    HW189708   1.515   2.906   5.414 -0.8822  0.7225 -0.5611
27872SOL    HW289709   1.546   3.027   5.327  1.0795  0.7582  0.1461
27873SOL     OW89710  10.446   9.792   4.390  0.9132 -0.3995 -0.6479
27873SOL    HW189711  10.389   9.865   4.415  1.1874 -1.1943  2.9105
27873SOL    HW289712  10.527   9.833   4.360  0.3001  0.7349 -0.8122
27874SOL     OW89713  10.045   9.763   1.004  0.5712  0.1663  0.0569
27874SOL    HW189714   9.963   9.812   1.016 -0.4706 -1.8257  1.6376
27874SOL    HW289715  10.107   9.804   1.064  0.1621  0.4512  0.2863
27875SOL     OW89716   4.332   7.226   5.110  0.3124 -0.1516  0.4397
27875SOL    HW189717   4.293   7.278   5.040  1.6293  0.5028  0.1484
27875SOL    HW289718   4.338   7.285   5.185  1.2025 -0.0607  0.3128
27876SOL     OW89719   7.009   5.708   6.476 -0.0918  0.4711 -0.1164
27876SOL    HW189720   6.993   5.655   6.555  0.5621  0.9850  0.3744
27876SOL    HW289721   7.051   5.647   6.415 -0.6968  0.0420 -0.1155
27877SOL     OW89722   7.382   3.906   9.005 -0.2608  0.2926 -0.0521
27877SOL    HW189723   7.473   3.885   9.027 -1.0321 -2.2104  1.0383
27877SOL    HW289724   7.386   3.933   8.913  1.4281 -0.9706 -0.4001
27878SOL     OW89725   4.450   1.692   3.832  0.9959 -0.1055 -0.4679
27878SOL    HW189726   4.391   1.724   3.763  1.0135 -1.5535 -1.1990
27878SOL    HW289727   4.510   1.765   3.848 -0.0117  0.8370 -0.8321
27879SOL     OW89728   0.412   2.864   1.259  0.3207  0.4214  0.3950
27879SOL    HW189729   0.506   2.863   1.273  0.2302  0.3735  1.0214
27879SOL    HW289730   0.390   2.774   1.237  0.3841  0.3809  0.4985
27880SOL     OW89731   9.506   0.314   3.015  0.5590  0.0559 -0.0271
27880SOL    HW189732   9.454   0.234   3.021 -0.3818  0.6585  0.0798
27880SOL    HW289733   9.596   0.286   3.030  0.1865 -0.9119  0.4556
27881SOL     OW89734   4.423   1.902   3.326 -0.3734  0.1851  0.0427
27881SOL    HW189735   4.333   1.871   3.315  0.3490 -1.6375 -1.2109
27881SOL    HW289736   4.429   1.980   3.272  0.0747 -2.4791 -4.2029
27882SOL     OW89737   8.993   8.448   2.320  0.0784  0.2184  0.9409
27882SOL    HW189738   9.071   8.469   2.371 -1.0065  0.1223  2.7266
27882SOL    HW289739   9.016   8.370   2.271  0.5364 -0.9546  2.9067
27883SOL     OW89740   5.645   2.712   8.470 -0.5836  0.3345 -0.5202
27883SOL    HW189741   5.659   2.721   8.376 -1.2827  1.3334 -0.5437
27883SOL    HW289742   5.733   2.702   8.506 -0.4164 -3.1838 -1.5262
27884SOL     OW89743   9.046   4.303   1.652  0.0894  0.1740  0.3727
27884SOL    HW189744   9.117   4.270   1.596  0.5315 -0.3962  1.2477
27884SOL    HW289745   9.080   4.386   1.687 -0.4673  0.8924 -0.7313
27885SOL     OW89746   3.986   2.436   2.882 -0.3955  0.4045  0.4555
27885SOL    HW189747   3.929   2.378   2.933 -0.3137  0.4800  0.6311
27885SOL    HW289748   3.954   2.524   2.902 -0.8859  0.3976 -0.2459
27886SOL     OW89749   3.650   9.551   7.916  0.0992  0.1803  0.3492
27886SOL    HW189750   3.571   9.501   7.938  0.0173 -0.2015 -0.7433
27886SOL    HW289751   3.676   9.518   7.830  0.4766  1.4964 -0.0718
27887SOL     OW89752   1.139   1.983   9.031  0.0660  0.0181 -0.2856
27887SOL    HW189753   1.195   1.977   8.953  1.2340 -0.8074  0.5882
27887SOL    HW289754   1.113   1.893   9.049 -0.9859  0.3140 -0.2541
27888SOL     OW89755   2.486   2.415   0.587  0.0209  0.5546  0.0043
27888SOL    HW189756   2.480   2.472   0.510  0.7490  0.0045 -0.4799
27888SOL    HW289757   2.427   2.342   0.566 -0.7475  1.0140  0.5299
27889SOL     OW89758   5.633   1.073   6.113  0.3634 -0.1739 -0.1488
27889SOL    HW189759   5.593   1.150   6.153  2.1035  1.4001 -1.2692
27889SOL    HW289760   5.703   1.108   6.058  1.6879 -2.6213 -0.1649
27890SOL     OW89761   0.389   8.956   3.848 -0.7870 -0.3510  0.0048
27890SOL    HW189762   0.465   8.945   3.907  0.0947 -0.1489 -1.0635
27890SOL    HW289763   0.329   8.886   3.875  0.3961 -1.4420 -0.0321
27891SOL     OW89764   4.944   7.863   3.676 -0.0035 -0.5673  0.2176
27891SOL    HW189765   4.967   7.860   3.769 -0.5964 -1.6548  0.3448
27891SOL    HW289766   4.915   7.774   3.655  1.3831 -0.7080 -1.3397
27892SOL     OW89767   7.611   8.909   4.476 -0.1112  0.3968 -0.3682
27892SOL    HW189768   7.551   8.942   4.542  0.6189  2.1726 -0.5437
27892SOL    HW289769   7.692   8.956   4.491  1.5074 -2.3638  0.2431
27893SOL     OW89770   4.918   4.182   1.873  0.1574 -0.1166  0.2779
27893SOL    HW189771   4.937   4.088   1.871  1.0414  0.0604 -1.7093
27893SOL    HW289772   4.824   4.187   1.886 -0.2131 -1.3560 -1.5160
27894SOL     OW89773   1.236   7.040   6.697 -0.0589  0.2724 -0.0741
27894SOL    HW189774   1.153   6.994   6.682 -1.2200  2.5155 -0.8730
27894SOL    HW289775   1.288   7.021   6.619 -0.7247  0.6973 -0.6301
27895SOL     OW89776   3.390   4.580   8.823 -0.7241 -0.1497 -0.2912
27895SOL    HW189777   3.400   4.541   8.909  0.4334  0.9881  0.1316
27895SOL    HW289778   3.411   4.673   8.836 -0.5923  0.0648 -1.7758
27896SOL     OW89779  10.111   4.492   8.442 -0.4282 -0.5214 -0.1746
27896SOL    HW189780  10.104   4.585   8.460  1.2739 -0.6828  1.8659
27896SOL    HW289781  10.188   4.484   8.385  2.1434 -0.8240  3.0138
27897SOL     OW89782   4.321   6.144   3.652 -0.5579 -0.4791 -0.5212
27897SOL    HW189783   4.362   6.083   3.714  0.5294  0.3629 -0.3820
27897SOL    HW289784   4.227   6.130   3.664 -0.4156  0.1065  1.7974
27898SOL     OW89785   5.710   5.183   7.527  0.3844  0.3614 -0.1474
27898SOL    HW189786   5.762   5.181   7.447  0.2140  2.2268 -0.3427
27898SOL    HW289787   5.649   5.110   7.518  0.4116  0.5024 -1.6819
27899SOL     OW89788   2.613   3.504   2.114  0.1329  0.2646 -0.1809
27899SOL    HW189789   2.572   3.587   2.092 -0.0252 -0.2185 -1.8409
27899SOL    HW289790   2.707   3.518   2.100  0.4397  0.9086  2.1159
27900SOL     OW89791  10.899   2.318   1.229 -0.8727  0.2114  0.3149
27900SOL    HW189792  10.813   2.355   1.209 -1.6977 -1.9217 -0.3840
27900SOL    HW289793  10.937   2.297   1.144  0.0559  0.5141  0.6454
27901SOL     OW89794  10.402   3.647   6.052 -0.4815 -0.1634  0.4431
27901SOL    HW189795  10.444   3.698   5.983  1.0636  0.3353  1.6845
27901SOL    HW289796  10.319   3.619   6.014  1.1522 -1.6480 -2.3387
27902SOL     OW89797   4.064   7.568   2.242  0.2106 -0.1894  0.0683
27902SOL    HW189798   3.992   7.624   2.271 -1.0666 -2.7977  2.4197
27902SOL    HW289799   4.137   7.591   2.299 -0.5961 -1.4533  1.6842
27903SOL     OW89800   3.537   2.802   8.279  0.0398 -0.0297  0.3177
27903SOL    HW189801   3.509   2.736   8.215  2.1950 -2.0752  1.3288
27903SOL    HW289802   3.627   2.823   8.253  0.0846  0.9698  1.2358
27904SOL     OW89803   1.136   4.086   1.718 -0.2748  0.2883 -0.0683
27904SOL    HW189804   1.094   4.001   1.710 -0.4369  0.3603  0.0069
27904SOL    HW289805   1.190   4.094   1.639  0.4073 -0.2448  0.3356
27905SOL     OW89806   7.149   4.888   6.503 -0.3225  0.3123  0.1402
27905SOL    HW189807   7.237   4.893   6.541  0.0604 -1.6000 -0.3705
27905SOL    HW289808   7.149   4.954   6.433  1.0887 -0.3657 -0.5359
27906SOL     OW89809   0.211  10.096   5.641 -0.6320 -0.5178  0.0272
27906SOL    HW189810   0.282  10.075   5.581  1.5825  0.7532  2.0609
27906SOL    HW289811   0.137  10.044   5.610  1.2147 -2.0638 -2.0486
27907SOL     OW89812   3.177   0.709  10.065 -0.1487 -1.3660 -0.2329
27907SOL    HW189813   3.180   0.717   9.970 -0.0064 -3.4137 -0.4294
27907SOL    HW289814   3.230   0.632  10.085 -0.5485 -1.2440  1.4781
27908SOL     OW89815   7.836   2.409   3.493  0.3630 -0.0438  0.2075
27908SOL    HW189816   7.901   2.340   3.499 -0.5668 -0.9730 -0.0006
27908SOL    HW289817   7.811   2.427   3.583 -0.4361 -1.0304  0.2013
27909SOL     OW89818   9.171   2.952   9.368 -0.6416 -0.1031  0.5365
27909SOL    HW189819   9.082   2.920   9.354  0.1022 -1.1493 -2.5120
27909SOL    HW289820   9.225   2.873   9.370  0.3427  0.5614  1.3176
27910SOL     OW89821   9.357   9.685   9.615 -0.4062 -0.0868  0.3696
27910SOL    HW189822   9.392   9.766   9.580 -1.0039  0.0552  0.0908
27910SOL    HW289823   9.268   9.679   9.579 -0.2951 -0.9611  0.2281
27911SOL     OW89824   0.470   3.797   9.452  0.5457 -0.2871  0.1727
27911SOL    HW189825   0.513   3.718   9.418 -1.2781 -0.4166 -2.1078
27911SOL    HW289826   0.467   3.857   9.377  0.4951  1.3648  1.4343
27912SOL     OW89827   8.421   6.582  10.196 -0.6503  0.3049  0.2146
27912SOL    HW189828   8.381   6.663  10.165  1.7159  1.6219  0.3653
27912SOL    HW289829   8.431   6.594  10.290  1.0534  0.5366  0.0414
27913SOL     OW89830   5.973   2.881   0.396 -0.1202  0.0566 -0.1718
27913SOL    HW189831   6.001   2.941   0.465 -0.2526  1.1070 -1.0048
27913SOL    HW289832   6.041   2.887   0.329  0.8971 -2.2475  0.5520
27914SOL     OW89833   5.409   7.512   1.086 -0.4142 -0.3652 -0.3363
27914SOL    HW189834   5.407   7.443   1.152 -2.4158 -0.3837 -0.3727
27914SOL    HW289835   5.490   7.495   1.037  0.9254 -0.5757  1.8113
27915SOL     OW89836   5.174   5.063   3.586 -0.3558 -0.0106  0.7392
27915SOL    HW189837   5.196   5.050   3.494  0.8273 -2.2883  1.2451
27915SOL    HW289838   5.078   5.069   3.587 -0.2874  3.5923 -0.9020
27916SOL     OW89839   4.253   1.121  10.534  0.1765 -0.9141 -0.6073
27916SOL    HW189840   4.296   1.148  10.452  0.5058 -2.2205 -0.8744
27916SOL    HW289841   4.280   1.030  10.547  2.0308 -0.0999  2.1862
27917SOL     OW89842   4.223   8.797   1.712 -0.7163  0.4570  0.1122
27917SOL    HW189843   4.140   8.832   1.680 -0.7057  0.5630  0.2002
27917SOL    HW289844   4.214   8.702   1.703 -0.5718  0.5065 -0.5379
27918SOL     OW89845   4.258   0.357   1.747  0.1663 -0.4205  0.0414
27918SOL    HW189846   4.270   0.288   1.681 -0.5046 -1.3988  0.9056
27918SOL    HW289847   4.181   0.329   1.797  0.2766  0.6360  0.8339
27919SOL     OW89848   0.529   1.560   8.241  0.1412  0.2119 -0.3562
27919SOL    HW189849   0.525   1.606   8.157  1.3156  0.0745 -0.5040
27919SOL    HW289850   0.583   1.616   8.297 -0.5076  0.2276  0.2707
27920SOL     OW89851   4.680   0.956   2.806 -0.1231 -0.3665  0.1789
27920SOL    HW189852   4.648   0.904   2.880 -0.8305  0.8958  0.8004
27920SOL    HW289853   4.735   1.023   2.847  0.8077 -0.6381 -0.6046
27921SOL     OW89854   0.711   0.835   0.928  0.5113 -0.1612  0.0427
27921SOL    HW189855   0.746   0.750   0.955 -0.0398 -0.1516  0.8474
27921SOL    HW289856   0.738   0.895   0.998  1.3204  0.4436 -0.7617
27922SOL     OW89857   9.684   3.841   2.445 -0.2835 -0.1190 -0.3679
27922SOL    HW189858   9.777   3.849   2.467 -0.1667 -0.3450 -0.7754
27922SOL    HW289859   9.640   3.900   2.506  0.1867  0.4870 -0.6020
27923SOL     OW89860   4.897   8.228   3.360 -0.6586  0.1711 -0.1472
27923SOL    HW189861   4.874   8.320   3.353  0.1096  0.2622 -2.4732
27923SOL    HW289862   4.903   8.198   3.269 -0.8259 -2.1591  0.5397
27924SOL     OW89863   4.365   3.375   2.592 -0.6225  0.6924 -0.1345
27924SOL    HW189864   4.389   3.432   2.520  2.4152  0.7299  0.7552
27924SOL    HW289865   4.413   3.409   2.667  1.2119 -2.7869  0.5056
27925SOL     OW89866   5.021   8.080   3.132  0.0126  0.3585  0.3574
27925SOL    HW189867   5.007   8.083   3.038 -1.1269 -0.5964  0.4839
27925SOL    HW289868   4.953   8.021   3.165  1.5814 -0.8661  1.5498
27926SOL     OW89869   1.645   4.498   0.483  0.2744  0.2421  0.0310
27926SOL    HW189870   1.708   4.569   0.482 -1.9094  2.2977 -0.4089
27926SOL    HW289871   1.662   4.449   0.403  2.5130 -0.4739  0.8759
27927SOL     OW89872   7.555  10.399   8.365  0.0994 -0.0652  0.5131
27927SOL    HW189873   7.587  10.457   8.434 -0.4397  0.0687  0.6551
27927SOL    HW289874   7.634  10.367   8.322  0.4528 -0.2770  1.2988
27928SOL     OW89875   3.387   3.186   7.281 -0.1136 -0.2400  0.0841
27928SOL    HW189876   3.331   3.109   7.273 -2.2344  0.9346  2.3507
27928SOL    HW289877   3.410   3.189   7.374  2.8198  0.0285 -0.5512
27929SOL     OW89878   4.987  10.038   8.148 -0.6192  0.4397 -0.0852
27929SOL    HW189879   5.048  10.078   8.210 -2.6437  1.4304  1.4401
27929SOL    HW289880   4.916  10.006   8.204 -1.7205 -0.1845 -1.7858
27930SOL     OW89881   5.658   8.867   1.540 -0.1377 -0.1372 -0.0513
27930SOL    HW189882   5.739   8.817   1.542  0.0054  0.0944 -0.0658
27930SOL    HW289883   5.657   8.915   1.623 -0.4342 -0.4154  0.1105
27931SOL     OW89884   8.382   7.612   5.859 -0.2146  0.1039 -0.0502
27931SOL    HW189885   8.294   7.576   5.850 -0.1972  0.3433 -1.4252
27931SOL    HW289886   8.427   7.586   5.779  1.1968 -0.5846  0.9289
27932SOL     OW89887   3.318  10.672   2.810  0.7540 -0.3418  0.2002
27932SOL    HW189888   3.347  10.603   2.869 -0.1923 -0.0863  0.9881
27932SOL    HW289889   3.341  10.640   2.722 -0.5388 -2.1079  0.4657
27933SOL     OW89890   1.128   7.880   3.025 -0.1355 -0.2466  0.2650
27933SOL    HW189891   1.045   7.893   2.979 -0.9705 -2.1893  1.1205
27933SOL    HW289892   1.184   7.835   2.961 -0.0605  0.1944  0.0134
27934SOL     OW89893   7.924   0.434   9.797 -0.0594 -0.0620  0.6392
27934SOL    HW189894   7.888   0.345   9.790  1.0867 -0.4489 -0.8921
27934SOL    HW289895   7.955   0.440   9.888  0.3753 -1.4615  0.6164
27935SOL     OW89896  10.360   0.735   8.101 -0.0356 -1.0683 -0.5241
27935SOL    HW189897  10.287   0.736   8.040 -0.2896 -3.2446 -0.3287
27935SOL    HW289898  10.339   0.804   8.164 -0.3390  0.4387 -2.1720
27936SOL     OW89899   3.623   9.962   9.995 -0.4744 -0.4957  0.1295
27936SOL    HW189900   3.590  10.045   9.960  0.8583  0.9031  1.9946
27936SOL    HW289901   3.550   9.901   9.986 -2.0947  1.3277  0.2522
27937SOL     OW89902   2.162   6.152   2.483  0.1911 -0.3523  0.1554
27937SOL    HW189903   2.122   6.219   2.538  0.7721 -0.0929  0.2742
27937SOL    HW289904   2.235   6.197   2.440  0.3566 -0.8121 -0.0534
27938SOL     OW89905   6.994   2.310   7.700  0.8471  0.2791  0.7077
27938SOL    HW189906   7.020   2.350   7.617  2.7275  0.9015  1.5410
27938SOL    HW289907   7.009   2.378   7.766 -3.9011  1.1043  1.3196
27939SOL     OW89908   7.089   9.082   3.214  0.0756 -0.2414  0.0927
27939SOL    HW189909   7.126   8.998   3.187 -0.6859 -0.6281  0.2354
27939SOL    HW289910   7.154   9.119   3.273  1.3319  0.1737 -1.4631
27940SOL     OW89911  10.441   1.287   8.819 -1.0022  0.1301 -0.1278
27940SOL    HW189912  10.368   1.338   8.854 -1.1422 -0.2912  0.2065
27940SOL    HW289913  10.465   1.227   8.890 -1.6356 -1.0997 -0.8989
27941SOL     OW89914   8.517   0.227   3.399  0.6464 -0.0980 -0.4668
27941SOL    HW189915   8.476   0.285   3.335  1.0702  0.2352 -0.4382
27941SOL    HW289916   8.453   0.220   3.470  1.0194  1.1953  0.0289
27942SOL     OW89917   1.468   3.356   9.616  0.1636 -0.1518 -0.2423
27942SOL    HW189918   1.485   3.426   9.678  0.5419  2.0346 -2.6368
27942SOL    HW289919   1.553   3.316   9.600  0.2397 -0.0326 -0.1300
27943SOL     OW89920   7.186   8.480   0.008  0.1393  0.3555  0.3677
27943SOL    HW189921   7.117   8.546   0.006 -0.7366 -0.5591 -0.3766
27943SOL    HW289922   7.160   8.419   0.077  0.4395  0.2476  0.3900
27944SOL     OW89923   4.609   5.989   3.682 -0.8388  0.3219  0.4683
27944SOL    HW189924   4.524   5.966   3.644  0.2664  1.5009 -3.1276
27944SOL    HW289925   4.598   6.080   3.709 -0.9659  0.1775  0.9166
27945SOL     OW89926   4.129   7.623   1.960  0.3351  0.0853 -0.0966
27945SOL    HW189927   4.091   7.556   2.017 -2.9191  1.0009 -1.0383
27945SOL    HW289928   4.187   7.574   1.901 -1.3644 -1.8381 -0.2626
27946SOL     OW89929   0.654   2.975   1.857  0.1123  0.0035  0.3503
27946SOL    HW189930   0.578   2.984   1.915  0.3181 -3.1968  1.2971
27946SOL    HW289931   0.617   2.957   1.771 -0.1817  0.5918  0.3483
27947SOL     OW89932   6.965   3.198  10.206 -0.2651 -0.4187 -0.1762
27947SOL    HW189933   6.894   3.177  10.267 -1.7692  2.3709 -0.8180
27947SOL    HW289934   7.021   3.259  10.254 -0.2023  0.0517 -0.8322
27948SOL     OW89935   0.429   5.303   8.547  0.0699  0.2001  0.0215
27948SOL    HW189936   0.417   5.388   8.590 -0.6663  0.7105 -1.1319
27948SOL    HW289937   0.368   5.244   8.591  0.2621  0.3753  0.5306
27949SOL     OW89938   9.425   1.057   3.384  0.0159  0.2516  0.6189
27949SOL    HW189939   9.400   1.099   3.301  0.6336  1.3943  0.9748
27949SOL    HW289940   9.342   1.036   3.427 -0.3322  1.3168  0.5067
27950SOL     OW89941   1.465   4.120   4.599  0.5414  1.3945 -0.0665
27950SOL    HW189942   1.554   4.151   4.582  0.8198  0.9596  0.5876
27950SOL    HW289943   1.460   4.111   4.694 -0.1914  1.3741 -0.1010
27951SOL     OW89944   8.726   8.942   9.270 -0.5906 -0.6397 -0.0696
27951SOL    HW189945   8.639   8.961   9.235 -0.1410 -0.7187 -1.2961
27951SOL    HW289946   8.730   8.990   9.352 -1.1789  0.7682 -0.8230
27952SOL     OW89947   0.923   2.300   5.914 -0.0548  0.3611  0.5466
27952SOL    HW189948   1.013   2.298   5.946  0.7412  0.6634 -1.4803
27952SOL    HW289949   0.919   2.226   5.853 -0.4768  1.6277 -1.0277
27953SOL     OW89950   4.258   2.221   9.884 -0.0621 -0.3374 -0.5546
27953SOL    HW189951   4.267   2.149   9.822  0.5529  0.3012 -1.2273
27953SOL    HW289952   4.216   2.182   9.961 -1.4469 -1.0095 -1.6096
27954SOL     OW89953   9.450   6.915   4.590 -0.2770 -0.4088 -0.1387
27954SOL    HW189954   9.434   6.868   4.508  0.4739 -0.1120 -0.4660
27954SOL    HW289955   9.478   6.847   4.652 -0.0246 -0.5175 -0.3695
27955SOL     OW89956   0.305   8.139   2.880  0.1312 -0.5374 -0.2895
27955SOL    HW189957   0.370   8.108   2.943  0.3405  0.5551  0.0613
27955SOL    HW289958   0.356   8.181   2.811 -0.1888  0.7346  0.2153
27956SOL     OW89959   2.463   0.156   9.579 -0.5156  0.1722  0.6694
27956SOL    HW189960   2.557   0.169   9.582 -0.5378  1.1123 -1.1532
27956SOL    HW289961   2.451   0.073   9.534 -0.5282  1.2795 -1.5113
27957SOL     OW89962   8.811   0.069   2.948 -0.1804 -0.0319 -0.3250
27957SOL    HW189963   8.827  -0.025   2.951  1.1809  0.2164  1.5353
27957SOL    HW289964   8.896   0.107   2.929 -0.9163  0.8432 -2.2404
27958SOL     OW89965   0.272   4.817   5.579  0.3492  0.1096 -0.3242
27958SOL    HW189966   0.226   4.900   5.594  0.3027 -0.1676  1.2148
27958SOL    HW289967   0.202   4.752   5.573  0.4683 -0.1499  0.8894
27959SOL     OW89968   9.240  10.510   4.282  0.5352  0.1090  0.4757
27959SOL    HW189969   9.169  10.491   4.343 -1.5787 -1.0877 -2.1710
27959SOL    HW289970   9.285  10.426   4.271 -1.0485 -0.5270 -1.8287
27960SOL     OW89971   9.458   6.241   7.148  0.0302 -0.0337 -0.2432
27960SOL    HW189972   9.385   6.285   7.104 -0.7012 -0.8084  0.1704
27960SOL    HW289973   9.516   6.312   7.175 -1.3040  0.7135  0.7212
27961SOL     OW89974   6.406   3.479   1.356 -0.1861 -0.1515 -0.2799
27961SOL    HW189975   6.334   3.479   1.293  0.4328 -0.5055 -1.0083
27961SOL    HW289976   6.377   3.537   1.426 -0.4368  1.1365 -1.4106
27962SOL     OW89977   7.162   4.363   9.131 -0.3879 -0.1345 -0.1398
27962SOL    HW189978   7.077   4.321   9.114 -0.3605 -0.2698  0.0532
27962SOL    HW289979   7.219   4.291   9.158  0.0942 -0.2284 -1.3188
27963SOL     OW89980   2.670   3.147   3.855  0.0629  0.2667 -0.0971
27963SOL    HW189981   2.685   3.176   3.765  0.6525 -1.4331 -0.5933
27963SOL    HW289982   2.575   3.155   3.867  0.2682  3.4809  0.2811
27964SOL     OW89983   6.576   9.038   4.783  0.1770  0.1839 -0.1081
27964SOL    HW189984   6.566   9.023   4.877  1.9151 -1.6024 -0.1473
27964SOL    HW289985   6.669   9.055   4.771 -0.1590  1.2056 -1.4262
27965SOL     OW89986   0.975   1.054   9.218  0.1567  0.4125 -0.2009
27965SOL    HW189987   0.912   1.077   9.150  0.4336 -0.2727 -0.7012
27965SOL    HW289988   0.959   1.118   9.288 -2.0967 -0.6086  0.3117
27966SOL     OW89989   0.151   4.071   5.963 -0.3147  0.2654  0.2445
27966SOL    HW189990   0.087   4.013   6.005  1.0136  0.4190  2.6876
27966SOL    HW289991   0.185   4.125   6.035  1.3329  1.3377 -1.2526
27967SOL     OW89992   4.461  10.457   8.900 -0.6020  0.3490  0.3635
27967SOL    HW189993   4.516  10.522   8.943  0.2011  0.1337 -0.3075
27967SOL    HW289994   4.445  10.391   8.967  0.2257  0.2626  0.4917
27968SOL     OW89995   9.282   6.421   0.567 -0.5338  0.4860  0.0810
27968SOL    HW189996   9.346   6.362   0.607  0.9210  1.3139 -0.9447
27968SOL    HW289997   9.205   6.366   0.551  0.3896 -0.8574  0.1432
27969SOL     OW89998   2.003   1.207   4.971 -0.1610  0.4453 -0.0359
27969SOL    HW189999   1.920   1.225   4.927  0.0306  0.4971 -0.3751
27969SOL    HW290000   1.977   1.177   5.059 -0.5269  0.7460 -0.0394
27970SOL     OW90001   6.066   4.841   6.908 -0.0013 -0.2357 -0.0238
27970SOL    HW190002   6.139   4.780   6.902 -0.5380 -0.9418  0.4859
27970SOL    HW290003   6.104   4.926   6.885  1.0160 -0.5586  0.4144
27971SOL     OW90004   0.498   0.559   7.286  0.0972  0.5934  0.5095
27971SOL    HW190005   0.465   0.521   7.367  0.4299 -1.4127 -0.2370
27971SOL    HW290006   0.490   0.488   7.221  3.5917  0.7104 -0.2573
27972SOL     OW90007   9.434   4.657   7.665 -0.1956  0.0903 -0.1350
27972SOL    HW190008   9.427   4.709   7.585  3.4402  0.9825 -0.0642
27972SOL    HW290009   9.480   4.714   7.727  0.5243 -1.8881  1.2556
27973SOL     OW90010   0.622   4.083   9.043  0.2108  0.2898  0.4555
27973SOL    HW190011   0.546   4.066   9.099  1.5744 -1.1601  2.0017
27973SOL    HW290012   0.676   4.143   9.094 -0.0165  1.6470 -0.8112
27974SOL     OW90013   0.166   1.873   5.391  0.1960  0.4388  0.6668
27974SOL    HW190014   0.102   1.802   5.383 -0.9345  1.5321 -0.3800
27974SOL    HW290015   0.233   1.838   5.450  0.1545 -1.8413 -0.5275
27975SOL     OW90016   5.232   6.888   9.609 -0.1407  0.4700  0.6727
27975SOL    HW190017   5.305   6.862   9.554 -0.0147  1.1084  0.5295
27975SOL    HW290018   5.261   6.969   9.651 -1.5492  1.9028 -0.9934
27976SOL     OW90019   9.733   9.558   5.663  0.8204 -0.0219 -0.0385
27976SOL    HW190020   9.744   9.465   5.682 -1.8712 -0.1231  1.5061
27976SOL    HW290021   9.742   9.564   5.568 -1.0154 -2.2594 -0.4412
27977SOL     OW90022   3.132   8.137   3.762  0.1558 -0.0508  0.6620
27977SOL    HW190023   3.182   8.066   3.722  0.4883  0.5037  0.0780
27977SOL    HW290024   3.045   8.129   3.724  0.4878  0.5170 -0.2596
27978SOL     OW90025   4.799   8.077   9.193 -0.8854  0.2711  0.0903
27978SOL    HW190026   4.814   8.006   9.256 -2.1606  1.5045  1.8673
27978SOL    HW290027   4.885   8.095   9.156 -0.1569 -0.7540  1.2054
27979SOL     OW90028   3.773  10.660   0.577 -0.5368 -0.3686 -0.1334
27979SOL    HW190029   3.796  10.585   0.524 -0.1298  0.0294 -0.5278
27979SOL    HW290030   3.854  10.685   0.621 -0.8364 -0.6048  0.5650
27980SOL     OW90031   5.003   8.927   1.788 -0.1893 -0.0109  0.0169
27980SOL    HW190032   4.909   8.922   1.773 -0.0687 -0.9768 -0.4871
27980SOL    HW290033   5.024   8.850   1.841  0.4725 -0.4221 -0.8063
27981SOL     OW90034   1.941   7.639   5.817  0.0478 -0.0822  0.2809
27981SOL    HW190035   1.857   7.675   5.844 -1.0382 -1.8424 -0.5641
27981SOL    HW290036   1.977   7.704   5.757  0.2277  1.5740  2.0748
27982SOL     OW90037   3.529   5.089   6.765  0.0950 -0.1210  0.6337
27982SOL    HW190038   3.479   5.148   6.821  0.3127  0.0999  0.5938
27982SOL    HW290039   3.564   5.144   6.695 -0.0790 -0.3747  0.3398
27983SOL     OW90040   4.515   9.266  10.744 -0.3034 -0.1349  0.4649
27983SOL    HW190041   4.555   9.348  10.773 -0.9561  0.5820 -0.6040
27983SOL    HW290042   4.588   9.216  10.707  0.0530  0.0834  0.8727
27984SOL     OW90043   9.963   2.142   2.918  0.2035 -0.0931  0.0123
27984SOL    HW190044   9.948   2.177   2.830 -0.3935 -0.8125 -0.1876
27984SOL    HW290045  10.058   2.144   2.929  0.2105  1.3078 -0.0905
27985SOL     OW90046   7.966   5.924  10.741  0.2062 -0.0444 -0.3139
27985SOL    HW190047   7.951   5.854  10.678 -0.0924 -1.0189  0.8015
27985SOL    HW290048   7.882   5.936  10.785  0.2192  1.1097 -0.5608
27986SOL     OW90049   0.252   7.728   2.894  0.9326  0.4345  0.0848
27986SOL    HW190050   0.169   7.748   2.850  0.5666  1.3369  1.1315
27986SOL    HW290051   0.249   7.633   2.909  1.4774 -0.0681 -2.5639
27987SOL     OW90052   5.798  10.913   3.081  0.3498 -0.1239  0.3076
27987SOL    HW190053   5.729  10.919   3.015 -1.1447 -0.6492  1.7424
27987SOL    HW290054   5.867  10.863   3.038 -0.4032 -0.1179 -0.9850
27988SOL     OW90055   1.215   0.279   0.635  0.4592  0.2302  0.2197
27988SOL    HW190056   1.213   0.229   0.553  1.0890 -0.7072  0.7539
27988SOL    HW290057   1.139   0.337   0.630 -1.1896 -1.8330  0.2166
27989SOL     OW90058   3.217   8.542   6.088 -0.2000  0.0276 -0.2920
27989SOL    HW190059   3.166   8.623   6.086 -1.5559 -0.7627  0.6561
27989SOL    HW290060   3.254   8.538   6.176 -1.2523 -1.0224  0.1228
27990SOL     OW90061   7.543   1.831   3.827  0.5788 -0.0634  0.4173
27990SOL    HW190062   7.484   1.794   3.761  0.9715  0.4380 -0.2284
27990SOL    HW290063   7.543   1.925   3.809  1.5226 -0.0497  0.4447
27991SOL     OW90064   1.551   5.502   9.758  0.1113  0.0742 -0.1709
27991SOL    HW190065   1.646   5.498   9.771  0.1134  0.6006 -0.0029
27991SOL    HW290066   1.521   5.568   9.820 -0.6344 -1.4965  1.2195
27992SOL     OW90067   7.297   7.468   4.112 -0.3353  0.3851  0.3709
27992SOL    HW190068   7.287   7.440   4.021  1.2343  2.4999 -0.5340
27992SOL    HW290069   7.227   7.423   4.159 -1.6233 -0.2177 -1.9803
27993SOL     OW90070   5.607   1.149   6.989  0.2237  0.4998  0.5254
27993SOL    HW190071   5.673   1.210   7.023 -0.2605  0.2792  1.9721
27993SOL    HW290072   5.657   1.074   6.958  0.6780 -0.1675  2.6502
27994SOL     OW90073   4.515   5.977   3.335  0.4201  0.0068 -0.4111
27994SOL    HW190074   4.543   5.886   3.345  0.2591 -0.4535 -3.3691
27994SOL    HW290075   4.420   5.973   3.341  0.4712  0.4201  1.7845
27995SOL     OW90076   3.116  10.321  10.342 -0.4232 -0.1400  0.1873
27995SOL    HW190077   3.182  10.289  10.281  0.2548  0.4691  0.5864
27995SOL    HW290078   3.131  10.270  10.422  0.8075  1.2740  0.9007
27996SOL     OW90079   0.828   2.455   9.159 -0.3167  0.5603  0.1262
27996SOL    HW190080   0.791   2.444   9.247  1.1133  0.7689  0.7720
27996SOL    HW290081   0.876   2.538   9.163  1.7873 -0.5816 -0.0900
27997SOL     OW90082   3.461   3.336   4.936  1.0914 -0.0427  1.0501
27997SOL    HW190083   3.499   3.265   4.884 -0.4668 -1.2017  1.4451
27997SOL    HW290084   3.500   3.416   4.899  0.7660 -0.8805 -1.2716
27998SOL     OW90085   1.404   9.472   1.195  0.5086  0.5669  0.0652
27998SOL    HW190086   1.486   9.426   1.208  0.9887  1.2085 -0.5832
27998SOL    HW290087   1.342   9.428   1.253  1.3823  0.2893  0.8094
27999SOL     OW90088   2.778   7.907   0.069  0.1376 -0.2651  0.0802
27999SOL    HW190089   2.852   7.881   0.124  0.9233  0.9717 -0.3587
27999SOL    HW290090   2.817   7.927  -0.016 -0.9489 -1.3001 -0.6959
28000SOL     OW90091   4.540   4.117   8.424  0.4192  0.2325 -0.2213
28000SOL    HW190092   4.535   4.051   8.493 -3.0813  0.3434 -0.1832
28000SOL    HW290093   4.547   4.067   8.343  0.8561 -0.0599 -0.0033
28001SOL     OW90094   5.725   0.354   2.842  0.3475 -0.0212 -0.2556
28001SOL    HW190095   5.703   0.424   2.780  2.7154  0.8447 -0.2302
28001SOL    HW290096   5.683   0.276   2.807 -0.0749  0.8580 -1.7989
28002SOL     OW90097   0.307   4.822   6.933  0.2473 -0.1007  0.0105
28002SOL    HW190098   0.372   4.813   6.863 -0.1033 -0.9756 -0.2139
28002SOL    HW290099   0.358   4.816   7.014  0.5774  0.3069 -0.1647
28003SOL     OW90100   7.541   7.028   0.231  0.0701 -0.4990 -0.7225
28003SOL    HW190101   7.452   6.998   0.213 -0.1549 -1.6802  1.8299
28003SOL    HW290102   7.563   6.987   0.315  2.2084  1.4790 -0.2091
28004SOL     OW90103   1.716   2.359   9.519  0.0392  0.1308  0.4288
28004SOL    HW190104   1.714   2.449   9.487  0.9555  0.7492  2.0355
28004SOL    HW290105   1.641   2.352   9.578  1.6823  0.8359  2.7257
28005SOL     OW90106   6.377   4.678   5.106  0.0142 -0.1992  0.3790
28005SOL    HW190107   6.423   4.685   5.022 -0.5612 -0.2510  0.0553
28005SOL    HW290108   6.360   4.769   5.131 -0.8103 -0.2034 -0.1237
28006SOL     OW90109   9.424  10.739   6.399  0.2502 -0.6221 -0.2307
28006SOL    HW190110   9.497  10.790   6.434 -0.1333 -1.5201  2.0503
28006SOL    HW290111   9.348  10.797   6.407  0.2868 -0.5690 -0.2661
28007SOL     OW90112   9.305   2.059   6.559 -0.1115  0.7113  0.0456
28007SOL    HW190113   9.376   2.115   6.527  0.9151  0.0123  1.0209
28007SOL    HW290114   9.287   1.998   6.488  1.6394 -0.3658  0.4839
28008SOL     OW90115   4.384   4.401   1.615  0.1117  0.3262  0.0694
28008SOL    HW190116   4.427   4.487   1.604  1.5389 -0.3786 -0.1207
28008SOL    HW290117   4.450   4.338   1.586  0.1261 -1.0133  2.7304
28009SOL     OW90118   2.552   5.610   3.560  0.2090 -0.8477  0.2941
28009SOL    HW190119   2.571   5.610   3.466  1.2798  1.8756  0.4340
28009SOL    HW290120   2.576   5.521   3.589 -0.6522 -1.9224 -2.0395
28010SOL     OW90121   6.345  10.287   0.091 -0.0101  0.2295  0.2230
28010SOL    HW190122   6.313  10.256   0.007 -0.0615 -0.0509  0.3450
28010SOL    HW290123   6.324  10.216   0.152  0.5020  0.2105  0.3750
28011SOL     OW90124   0.507   6.225   0.869  0.4063  0.1187  0.2281
28011SOL    HW190125   0.544   6.265   0.948  1.0911  0.5565 -0.3054
28011SOL    HW290126   0.465   6.297   0.823 -2.1045 -0.5224  1.3189
28012SOL     OW90127   1.992   5.793   8.658 -0.3162  0.0888  0.0622
28012SOL    HW190128   2.014   5.802   8.751  0.4181  0.8616 -0.1724
28012SOL    HW290129   1.964   5.702   8.649  0.3268 -0.2118  0.9045
28013SOL     OW90130  10.359   0.242   2.975 -0.2045 -0.0110 -0.2399
28013SOL    HW190131  10.275   0.205   2.947  0.3293 -0.0501 -1.8865
28013SOL    HW290132  10.414   0.166   2.995 -0.2793 -0.0072 -0.0187
28014SOL     OW90133   7.272   5.040  10.523  0.0937 -0.4865 -0.0716
28014SOL    HW190134   7.303   4.950  10.515 -1.1216 -0.9024 -0.2566
28014SOL    HW290135   7.233   5.060  10.438  0.3772  0.2367 -0.0451
28015SOL     OW90136  10.904   6.429   6.135 -0.4207 -0.1942  0.3166
28015SOL    HW190137  10.957   6.364   6.089  0.3098  1.7701 -1.8037
28015SOL    HW290138  10.954   6.449   6.214  1.3324  0.4703 -0.8794
28016SOL     OW90139   7.882  10.572   9.498 -0.2677 -0.0688 -0.2071
28016SOL    HW190140   7.837  10.533   9.573 -0.6745  1.8537  0.6242
28016SOL    HW290141   7.961  10.612   9.535  0.1459 -0.1307 -1.0076
28017SOL     OW90142   4.765   3.570   3.360 -0.0172  0.0414 -0.0738
28017SOL    HW190143   4.697   3.580   3.294 -0.3839  1.2577  0.4628
28017SOL    HW290144   4.772   3.656   3.401  0.4115 -0.6043  1.2656
28018SOL     OW90145   9.054   6.138  10.325 -0.2425  0.0655 -0.2869
28018SOL    HW190146   9.102   6.218  10.304 -1.4923  1.0678  0.5108
28018SOL    HW290147   9.078   6.077  10.255  2.6218  0.2870  0.3951
28019SOL     OW90148   7.016   9.391   4.128  0.5255 -0.2741 -0.6589
28019SOL    HW190149   7.008   9.464   4.067 -0.3977  0.1510 -0.0611
28019SOL    HW290150   6.925   9.372   4.154  0.8972 -0.4633  0.5497
28020SOL     OW90151   5.823   8.524   2.536  0.0886 -0.5804  0.4799
28020SOL    HW190152   5.904   8.524   2.486  0.4220 -2.1093  0.9593
28020SOL    HW290153   5.833   8.452   2.598 -0.8882  0.3583  1.7976
28021SOL     OW90154   9.187   0.943   2.639  0.1088  0.2754  0.1689
28021SOL    HW190155   9.112   0.985   2.597 -0.0515  0.6775  0.8568
28021SOL    HW290156   9.207   0.998   2.714  0.9071  0.0009  0.1653
28022SOL     OW90157   3.813   5.698   6.934 -0.4257  0.2539  0.5178
28022SOL    HW190158   3.736   5.740   6.896 -0.9028  0.1477  1.3424
28022SOL    HW290159   3.864   5.770   6.970 -0.2577  0.3033  0.1816
28023SOL     OW90160   1.709   0.727  10.282 -0.0452 -0.6335 -0.1351
28023SOL    HW190161   1.635   0.773  10.243 -0.2790 -0.2783  0.7084
28023SOL    HW290162   1.671   0.647  10.318 -0.4371  0.4803  2.0955
28024SOL     OW90163   8.737   9.906   7.453  0.1739 -0.5310  0.4106
28024SOL    HW190164   8.763   9.843   7.385  1.3770  0.8885 -0.4850
28024SOL    HW290165   8.815   9.958   7.470 -0.8080  0.7980  1.0733
28025SOL     OW90166   9.337   0.062   9.441  0.3749 -0.3896  0.4673
28025SOL    HW190167   9.276   0.129   9.472  0.1949  0.5517 -1.7325
28025SOL    HW290168   9.327  -0.010   9.503 -1.7360  0.4113  1.1439
28026SOL     OW90169   1.209   0.150   0.877  0.3232 -0.1241 -0.2688
28026SOL    HW190170   1.140   0.094   0.841 -0.4762  1.5079 -1.3443
28026SOL    HW290171   1.237   0.205   0.804  1.4548  0.5492  0.6349
28027SOL     OW90172   3.031   0.833   8.748 -0.0571  0.5568 -0.0695
28027SOL    HW190173   3.108   0.798   8.703 -0.3780 -0.2976  0.0265
28027SOL    HW290174   2.982   0.756   8.775 -1.4609  1.0833 -1.0104
28028SOL     OW90175   7.234   1.760   4.343  0.2342  0.4185  0.0495
28028SOL    HW190176   7.174   1.754   4.417  0.2827  0.6247  0.1049
28028SOL    HW290177   7.263   1.851   4.342  0.8130  0.2394  0.2307
28029SOL     OW90178   1.420   1.694   7.692  0.2329 -0.2888  0.1474
28029SOL    HW190179   1.497   1.743   7.722  0.6571  0.4428 -1.9912
28029SOL    HW290180   1.351   1.760   7.685 -0.7707 -0.9904  2.3646
28030SOL     OW90181   8.744   6.676   0.263  1.0357 -0.3665 -0.2619
28030SOL    HW190182   8.804   6.749   0.250 -0.0290  0.5936  0.0719
28030SOL    HW290183   8.658   6.716   0.269  0.2604 -1.7659 -1.3449
28031SOL     OW90184   8.065   1.463   3.418 -0.3439 -0.2199  0.3738
28031SOL    HW190185   8.114   1.383   3.399 -0.7092 -0.9115  2.1724
28031SOL    HW290186   7.975   1.443   3.392 -0.6393 -0.7958  1.7563
28032SOL     OW90187   0.531   3.386   4.121  0.3350  0.2375 -0.2148
28032SOL    HW190188   0.506   3.409   4.032 -1.8008 -0.4804  0.1299
28032SOL    HW290189   0.543   3.291   4.119 -1.1190 -0.0019  0.4932
28033SOL     OW90190   7.444   6.606   3.125  0.1416  0.8721 -0.3442
28033SOL    HW190191   7.358   6.565   3.133 -0.0752  1.1567 -1.0702
28033SOL    HW290192   7.499   6.560   3.188 -0.4310  0.3879 -0.1871
28034SOL     OW90193   3.040   4.521   9.978 -0.3766  0.1812 -0.0308
28034SOL    HW190194   2.989   4.584  10.030 -1.3087  1.1457 -2.0148
28034SOL    HW290195   2.981   4.495   9.907 -0.2213 -3.3536  0.9202
28035SOL     OW90196   9.394  10.884   3.189  0.0379 -0.2900 -0.3186
28035SOL    HW190197   9.404  10.792   3.215  0.7133 -0.2319 -0.3554
28035SOL    HW290198   9.304  10.906   3.212 -0.3044 -1.1301 -0.8232
28036SOL     OW90199  10.545   7.993   3.660 -0.1496  0.2390  0.2235
28036SOL    HW190200  10.504   7.907   3.662  1.1281 -0.3981  2.5069
28036SOL    HW290201  10.629   7.981   3.704  0.6332  2.3920 -0.5417
28037SOL     OW90202   3.750   6.086   6.737 -0.0848 -0.4579  0.2736
28037SOL    HW190203   3.716   6.012   6.687 -0.5557 -0.4405  0.5681
28037SOL    HW290204   3.748   6.160   6.676  1.1397 -0.8498 -0.2777
28038SOL     OW90205   9.428   5.308   8.687  0.2525  0.7730 -0.1716
28038SOL    HW190206   9.513   5.269   8.668  0.1829  1.0488 -1.0992
28038SOL    HW290207   9.424   5.313   8.782  0.2280 -1.5931  0.0264
28039SOL     OW90208   7.927  10.342   2.488 -0.2155  0.5569  0.1819
28039SOL    HW190209   7.934  10.339   2.393  1.4998  1.6710  0.2300
28039SOL    HW290210   7.912  10.434   2.509  0.1024  0.4329  1.0113
28040SOL     OW90211  10.041   9.269   2.776  0.6388 -0.4374  0.0471
28040SOL    HW190212  10.100   9.285   2.850  2.2433  1.1123 -1.4614
28040SOL    HW290213  10.031   9.355   2.735 -0.7735 -1.1384 -1.1382
28041SOL     OW90214   1.498   0.589   1.082  0.2994 -0.3274 -0.4721
28041SOL    HW190215   1.464   0.572   0.994 -0.4280  0.9940 -0.4793
28041SOL    HW290216   1.443   0.660   1.115 -0.4122 -1.7680  1.6336
28042SOL     OW90217   3.475   3.998   4.974  0.1839 -0.5088  0.3325
28042SOL    HW190218   3.475   4.065   5.043  0.3001 -0.8797  0.6999
28042SOL    HW290219   3.560   4.010   4.931  0.7031 -1.1600  1.1430
28043SOL     OW90220   9.350  10.823   6.056 -0.4668  0.3404 -0.6858
28043SOL    HW190221   9.406  10.774   5.997  0.0091  0.7690 -0.6047
28043SOL    HW290222   9.291  10.758   6.094  2.0663 -0.7807  1.6892
28044SOL     OW90223   8.128   6.818   2.406  0.1027  0.6651 -0.0722
28044SOL    HW190224   8.098   6.750   2.345 -1.1617  1.8749 -0.8536
28044SOL    HW290225   8.222   6.825   2.389  0.4996 -1.5855  0.7682
28045SOL     OW90226   6.590   8.953   8.179  0.1517 -0.2569 -0.1857
28045SOL    HW190227   6.509   8.949   8.129  0.5349 -1.7166 -0.7313
28045SOL    HW290228   6.635   9.031   8.146 -1.9299  1.8641  1.6318
28046SOL     OW90229   9.825  10.102   7.298 -0.3160  0.6403  0.2650
28046SOL    HW190230   9.734  10.081   7.278  0.0185 -0.7493  0.1209
28046SOL    HW290231   9.846  10.048   7.374  0.3253  1.0924  0.4150
28047SOL     OW90232   5.160   3.572   4.432  0.5558  0.1934 -0.2595
28047SOL    HW190233   5.089   3.634   4.452  1.8566  1.0276  2.1433
28047SOL    HW290234   5.155   3.560   4.337 -2.6413  0.3658 -0.2189
28048SOL     OW90235   7.657   4.172   2.294 -0.2359 -0.2185  0.0656
28048SOL    HW190236   7.749   4.183   2.319 -0.3407 -0.2045  0.4484
28048SOL    HW290237   7.609   4.179   2.376 -0.6450  0.5101 -0.2327
28049SOL     OW90238   8.316   2.937   6.172  0.1120  0.4680 -0.0097
28049SOL    HW190239   8.334   2.908   6.082  0.0658 -0.4338  0.2557
28049SOL    HW290240   8.246   2.879   6.202  1.5208 -0.6726  1.3084
28050SOL     OW90241   2.025   8.737   4.352  0.7759 -0.0817  0.1615
28050SOL    HW190242   1.934   8.758   4.331  1.3045  0.3370 -1.9287
28050SOL    HW290243   2.020   8.683   4.431 -1.2603  0.0541  0.1678
28051SOL     OW90244   0.000   8.061  10.261  0.2335 -0.2191  0.5670
28051SOL    HW190245   0.064   8.103  10.319 -0.1743 -0.4325  1.1849
28051SOL    HW290246  -0.006   7.971  10.294 -0.4733 -0.1654  0.5842
28052SOL     OW90247   3.365   8.019  10.054 -0.0698 -0.0311 -0.4082
28052SOL    HW190248   3.378   7.929  10.083 -2.3640 -0.7346 -1.2931
28052SOL    HW290249   3.438   8.036   9.994  0.3709 -1.3277 -0.2640
28053SOL     OW90250   8.987   1.937   5.844  0.1068 -0.4270  0.0057
28053SOL    HW190251   8.968   1.903   5.757 -0.8466 -0.6017  0.2779
28053SOL    HW290252   8.935   2.017   5.851 -0.6539 -0.9731  0.7985
28054SOL     OW90253   0.579   5.370   0.049 -0.5377 -0.2301  0.4831
28054SOL    HW190254   0.558   5.418   0.129 -0.2761  0.1357  0.3342
28054SOL    HW290255   0.641   5.302   0.078 -0.2918  0.0261  0.5562
28055SOL     OW90256   5.390   7.676   1.335  0.6258 -0.1098 -1.0121
28055SOL    HW190257   5.311   7.680   1.282 -0.4973  0.6442  0.6458
28055SOL    HW290258   5.437   7.599   1.303 -0.5525 -0.3307 -2.2925
28056SOL     OW90259   2.075   1.999   9.294  0.0736  0.8490  0.0450
28056SOL    HW190260   2.018   2.071   9.320 -1.5097 -0.0389 -0.8031
28056SOL    HW290261   2.039   1.922   9.338  1.3632  0.4607  0.4531
28057SOL     OW90262   6.253  10.056   7.821 -0.1115 -0.6062  0.0366
28057SOL    HW190263   6.291  10.062   7.908 -0.3091  1.6643  0.0186
28057SOL    HW290264   6.159  10.065   7.835 -0.2073 -0.9445 -0.3543
28058SOL     OW90265   7.324   7.106   3.695  0.6115  0.2545 -0.1766
28058SOL    HW190266   7.228   7.114   3.692  0.3398 -1.7770  1.4544
28058SOL    HW290267   7.349   7.147   3.777  1.2354  1.1355 -0.7817
28059SOL     OW90268   3.250   7.309   9.895 -0.0012 -0.7025  0.0869
28059SOL    HW190269   3.166   7.296   9.939 -0.0145 -2.2190 -0.3500
28059SOL    HW290270   3.272   7.401   9.912 -2.6775  0.3139 -1.4279
28060SOL     OW90271   8.717  10.798   8.584  0.7031  0.4703  0.0445
28060SOL    HW190272   8.674  10.719   8.551 -0.6716  0.3570  1.9512
28060SOL    HW290273   8.761  10.769   8.664  0.0422  1.6668  0.8583
28061SOL     OW90274   9.359   0.114   2.570  0.5959  0.1723 -0.1318
28061SOL    HW190275   9.367   0.073   2.656 -1.1695  0.5491  0.2704
28061SOL    HW290276   9.371   0.043   2.507  1.9652 -0.0934  0.4105
28062SOL     OW90277  10.689   0.847   4.925 -0.0512  0.4759 -0.0985
28062SOL    HW190278  10.636   0.905   4.869 -1.8575 -0.3519  0.6743
28062SOL    HW290279  10.774   0.844   4.881 -0.8902  1.1553 -1.9123
28063SOL     OW90280  10.201  10.211   3.950 -0.0418 -0.3397  0.0960
28063SOL    HW190281  10.148  10.261   3.888 -0.4657  0.5887  1.1750
28063SOL    HW290282  10.139  10.185   4.018  0.7968  0.4090  1.1715
28064SOL     OW90283  10.159   5.035  10.653 -0.5928 -0.4476 -0.0740
28064SOL    HW190284  10.176   5.114  10.602 -1.1651 -0.6160 -0.5389
28064SOL    HW290285  10.106   5.064  10.726  0.0354 -0.2430  0.3097
28065SOL     OW90286   3.987   5.734   6.192  0.3925  0.3578 -0.2297
28065SOL    HW190287   3.901   5.774   6.205  0.4394  0.4744 -0.2763
28065SOL    HW290288   4.007   5.750   6.100  1.2453  1.8811  0.1942
28066SOL     OW90289   6.286   0.822   1.158 -0.3898 -0.3936 -0.1365
28066SOL    HW190290   6.241   0.741   1.132  0.1931 -0.2879 -1.5342
28066SOL    HW290291   6.375   0.795   1.177 -0.3040 -0.1486 -0.1886
28067SOL     OW90292   8.726   3.172   1.671 -0.6167 -0.6346 -0.2560
28067SOL    HW190293   8.815   3.205   1.681 -0.2920 -1.1309 -1.4192
28067SOL    HW290294   8.736   3.080   1.648 -1.4883 -1.2805  1.6602
28068SOL     OW90295   6.149   9.020   0.677  0.0373  0.0337  0.6092
28068SOL    HW190296   6.222   8.979   0.724  0.7126 -0.2787 -0.6574
28068SOL    HW290297   6.085   8.949   0.666  0.8243 -0.4933 -0.8104
28069SOL     OW90298   2.061   4.344   9.163  0.1255 -0.3764 -0.3937
28069SOL    HW190299   2.141   4.312   9.203 -0.0835 -1.6157 -0.9206
28069SOL    HW290300   1.992   4.289   9.200 -0.3693  0.0554 -0.6548
28070SOL     OW90301   1.405   0.927   1.636  0.1638  0.5743  0.3118
28070SOL    HW190302   1.500   0.943   1.634  0.0865  1.4070  1.6359
28070SOL    HW290303   1.395   0.848   1.690  0.1912 -0.6503 -1.4110
28071SOL     OW90304   7.073   8.601   5.299 -0.0006  0.3660 -0.4262
28071SOL    HW190305   7.111   8.670   5.244 -0.8178  0.7207 -0.5588
28071SOL    HW290306   7.123   8.523   5.276  1.1923  0.9629 -0.0075
28072SOL     OW90307   4.495   1.070   1.357  0.1065  0.6990  0.2259
28072SOL    HW190308   4.554   1.047   1.285 -0.4857 -0.7567  0.1770
28072SOL    HW290309   4.554   1.083   1.432  0.4929 -2.7456  0.6957
28073SOL     OW90310   2.022   0.122   8.425 -0.7908  0.4181  0.2189
28073SOL    HW190311   2.030   0.173   8.506 -0.0028  0.4122  0.1543
28073SOL    HW290312   1.953   0.058   8.444 -1.2069  0.9687  0.5883
28074SOL     OW90313   7.732   0.541   2.997 -0.1126 -0.0988 -0.1354
28074SOL    HW190314   7.656   0.507   3.044 -0.3024 -0.2973 -0.5810
28074SOL    HW290315   7.748   0.477   2.928  1.4868 -0.9351  0.9606
28075SOL     OW90316   6.136   7.547   2.290 -0.5620 -0.4623 -0.0878
28075SOL    HW190317   6.068   7.497   2.245  1.2331 -2.3797 -0.7801
28075SOL    HW290318   6.151   7.501   2.372  2.4256 -2.4004 -1.5340
28076SOL     OW90319   5.024   2.754  10.754 -0.4097 -0.8129  0.2273
28076SOL    HW190320   5.077   2.795  10.821  0.0229  0.0127 -0.5913
28076SOL    HW290321   5.083   2.691  10.711 -1.0035 -2.1677  1.3267
28077SOL     OW90322   4.997   1.135   5.724 -0.3655  0.3549  0.0641
28077SOL    HW190323   5.087   1.106   5.710 -0.1370  0.4711  1.2208
28077SOL    HW290324   4.994   1.222   5.685 -0.7207 -0.6474 -2.3157
28078SOL     OW90325   3.581   5.009   1.263  0.5286 -0.1558 -0.0067
28078SOL    HW190326   3.631   5.029   1.342  0.2862 -0.2225  0.1616
28078SOL    HW290327   3.577   4.914   1.261 -0.6302 -0.1248  0.6213
28079SOL     OW90328   9.009   9.033   7.189  0.0901  0.1970 -0.6401
28079SOL    HW190329   8.916   9.054   7.194 -0.2634 -1.1118 -1.2980
28079SOL    HW290330   9.035   9.015   7.279 -0.3605  0.2915 -0.4899
28080SOL     OW90331   3.289   3.905   3.934  0.0889  0.5014  0.4488
28080SOL    HW190332   3.249   3.820   3.914  1.0710  0.2197 -0.4418
28080SOL    HW290333   3.224   3.951   3.988 -0.7705 -0.5158  0.3073
28081SOL     OW90334   8.158   1.949   0.983  0.7186  0.1810 -0.1894
28081SOL    HW190335   8.086   1.982   0.929  0.5478 -0.8925 -0.6392
28081SOL    HW290336   8.128   1.961   1.073  0.8151  1.5658 -0.3200
28082SOL     OW90337   1.411   1.970   1.823 -0.2184 -0.2569 -0.3727
28082SOL    HW190338   1.368   1.903   1.876  0.5820 -0.1951  0.3898
28082SOL    HW290339   1.373   1.960   1.736  1.1235 -2.9092 -0.7665
28083SOL     OW90340   6.668   7.866   5.410  0.2087 -0.0705 -0.3557
28083SOL    HW190341   6.659   7.859   5.505  0.1027 -0.0958 -0.3674
28083SOL    HW290342   6.632   7.784   5.376 -0.5911  0.3093 -0.4667
28084SOL     OW90343   7.435   3.883   8.297  0.1663  0.3640 -0.3026
28084SOL    HW190344   7.510   3.943   8.293  0.1890  0.3158 -0.6727
28084SOL    HW290345   7.418   3.872   8.390 -0.1356  1.3193 -0.2352
28085SOL     OW90346   6.743   9.329  10.457  0.3108  0.3245 -0.1173
28085SOL    HW190347   6.716   9.358  10.544 -0.4154 -1.6069  0.3331
28085SOL    HW290348   6.839   9.333  10.459  0.3004  3.4652 -0.4132
28086SOL     OW90349   5.495   4.209   7.165 -0.0177  0.0021 -0.6710
28086SOL    HW190350   5.507   4.165   7.081  1.2907 -0.4982 -0.2517
28086SOL    HW290351   5.404   4.237   7.165  0.3451  1.4487 -2.9402
28087SOL     OW90352  10.007   8.470   9.176  0.4805 -0.0137 -0.1746
28087SOL    HW190353  10.082   8.449   9.121  0.4817  0.1668 -0.2411
28087SOL    HW290354  10.040   8.467   9.266  0.7426  0.8009 -0.2378
28088SOL     OW90355   2.995   3.790   9.022  0.1819  0.4199  0.0126
28088SOL    HW190356   2.969   3.698   9.016  1.0399  0.0870  1.0750
28088SOL    HW290357   2.912   3.839   9.023 -0.3120 -0.4132  0.5301
28089SOL     OW90358   9.092   0.563  10.192  0.2722 -0.0432 -0.2563
28089SOL    HW190359   9.044   0.622  10.250 -1.9239  0.5516 -2.5199
28089SOL    HW290360   9.066   0.475  10.220  0.8267  0.1504  0.9124
28090SOL     OW90361   2.124   3.604   4.067 -0.1430 -0.4133  0.1203
28090SOL    HW190362   2.168   3.689   4.066  0.8713 -0.9302 -1.5972
28090SOL    HW290363   2.031   3.626   4.058 -0.1321  0.5828  1.8692
28091SOL     OW90364   0.580  10.197  10.407  0.2753 -0.1086  0.0072
28091SOL    HW190365   0.634  10.224  10.482  0.5753  0.2068 -0.3179
28091SOL    HW290366   0.605  10.107  10.391  0.9247  0.1267 -0.3266
28092SOL     OW90367   0.698   8.083   8.052  0.2840 -0.1029 -0.4227
28092SOL    HW190368   0.739   8.168   8.042  0.8360 -0.4892 -1.6710
28092SOL    HW290369   0.608   8.096   8.022  0.0107  0.3229  0.5719
28093SOL     OW90370   5.120   5.882   8.312 -0.1593  0.0714  0.5155
28093SOL    HW190371   5.203   5.837   8.297 -0.7306 -0.3221 -1.6968
28093SOL    HW290372   5.053   5.816   8.298 -0.9097  0.6295  1.3056
28094SOL     OW90373   6.766   9.239   0.096  0.2734 -0.0086  0.0394
28094SOL    HW190374   6.747   9.155   0.055  0.4228 -0.4243  0.7962
28094SOL    HW290375   6.838   9.221   0.155 -1.1564  0.1146  1.9212
28095SOL     OW90376   8.779   5.071   8.381 -0.6963  0.1501  0.1594
28095SOL    HW190377   8.769   5.106   8.470 -1.6557  2.0921 -0.6553
28095SOL    HW290378   8.707   5.008   8.372  0.7164 -1.7762  1.4510
28096SOL     OW90379   2.324   2.904  10.584 -0.1982  0.2209 -0.4212
28096SOL    HW190380   2.233   2.913  10.611 -0.6596 -2.6033 -0.6712
28096SOL    HW290381   2.340   2.978  10.526 -2.8848 -0.1531 -1.7653
28097SOL     OW90382   2.046   0.361   2.596  0.1093 -0.3429  0.3965
28097SOL    HW190383   2.099   0.427   2.640 -0.2861  0.5888 -0.4959
28097SOL    HW290384   2.002   0.313   2.666  0.5117  0.2423  1.0507
28098SOL     OW90385   4.948   1.363   3.081  0.3301 -0.8918 -0.8010
28098SOL    HW190386   5.015   1.315   3.130 -0.1016 -1.4823 -0.7858
28098SOL    HW290387   4.878   1.299   3.065 -0.7483  0.0084  0.1691
28099SOL     OW90388   2.041   0.618   0.922 -0.6939 -0.0384 -0.1336
28099SOL    HW190389   1.962   0.672   0.928 -0.2865  0.6916 -1.1243
28099SOL    HW290390   2.033   0.556   0.995 -1.6355  0.7328  0.4449
28100SOL     OW90391   2.875   8.274   9.161 -0.4166  0.4122 -0.1042
28100SOL    HW190392   2.828   8.353   9.190 -0.7627  0.1024  0.1890
28100SOL    HW290393   2.892   8.226   9.242  2.1868  1.4553  0.0550
28101SOL     OW90394   1.111   9.467   8.248 -0.2939  0.0981 -0.4713
28101SOL    HW190395   1.016   9.462   8.234 -0.1485  0.8364 -1.9650
28101SOL    HW290396   1.149   9.436   8.166  0.6843  2.7901 -1.1389
28102SOL     OW90397   4.491   3.184   4.475  0.0104 -0.2178  0.6247
28102SOL    HW190398   4.573   3.205   4.520  0.9949 -2.0229 -0.2177
28102SOL    HW290399   4.483   3.251   4.407 -0.3008  1.1592  1.9527
28103SOL     OW90400   0.913  10.596   3.254  0.2388  0.1453 -0.0815
28103SOL    HW190401   0.827  10.636   3.243  0.4240  0.7597  0.6572
28103SOL    HW290402   0.908  10.553   3.340  0.2144 -1.0063 -0.6326
28104SOL     OW90403   0.335  10.546   4.029  0.2123 -0.0021  1.0521
28104SOL    HW190404   0.272  10.473   4.025  1.4163 -1.0719  1.1529
28104SOL    HW290405   0.296  10.607   4.093 -0.9724 -0.3770  0.7229
28105SOL     OW90406   3.008   0.799   7.281 -0.2709 -0.1115  0.3347
28105SOL    HW190407   2.956   0.832   7.207 -0.9612 -1.8605 -0.0036
28105SOL    HW290408   3.013   0.874   7.341  1.2222  1.7144 -1.8839
28106SOL     OW90409   9.042   0.259   3.616 -0.0561 -0.1552 -0.4177
28106SOL    HW190410   9.034   0.179   3.564  0.9036  0.9337 -2.3701
28106SOL    HW290411   9.123   0.247   3.665  1.3862  0.4848 -2.4910
28107SOL     OW90412   2.992   7.705   6.257 -0.2006  0.1860  0.1579
28107SOL    HW190413   2.930   7.714   6.329  0.1281 -1.1623  0.6504
28107SOL    HW290414   3.078   7.714   6.299 -0.0388  1.6588 -0.4520
28108SOL     OW90415   6.059   1.751   6.625 -0.4393  0.2880  0.1438
28108SOL    HW190416   6.008   1.741   6.705 -0.4460 -0.9293  0.0031
28108SOL    HW290417   6.069   1.662   6.592  2.4485  0.3421  0.6007
28109SOL     OW90418   2.024   5.509   6.845 -0.2462 -0.6383 -0.2076
28109SOL    HW190419   1.993   5.424   6.814  1.0064 -0.9552 -0.6579
28109SOL    HW290420   1.987   5.573   6.784 -1.0584 -0.8636  0.0384
28110SOL     OW90421   3.410   0.072   2.318  0.0860 -0.4144  0.3934
28110SOL    HW190422   3.416   0.157   2.275  1.8417 -0.8239 -0.2684
28110SOL    HW290423   3.346   0.022   2.267  1.0879 -0.4030 -0.9226
28111SOL     OW90424   7.772   1.111   7.933 -0.9784 -0.8522 -0.7821
28111SOL    HW190425   7.787   1.203   7.915  1.9083 -1.3503 -1.5278
28111SOL    HW290426   7.820   1.065   7.864  0.2275 -2.8705  1.2659
28112SOL     OW90427   8.636  10.650   3.910 -0.4663  0.0240 -0.6467
28112SOL    HW190428   8.542  10.654   3.929 -0.5388 -2.0436 -0.3339
28112SOL    HW290429   8.668  10.738   3.929 -2.3653  0.8411 -0.9665
28113SOL     OW90430   0.763   3.905   8.354  0.8812  0.1420  0.1551
28113SOL    HW190431   0.724   3.861   8.429 -0.6174 -0.0879 -0.7186
28113SOL    HW290432   0.743   3.997   8.367  0.7427  0.1189  0.1051
28114SOL     OW90433   3.992   4.338  10.073 -0.0090 -0.2058  0.2862
28114SOL    HW190434   3.939   4.384  10.138  0.7386  1.0368  0.0589
28114SOL    HW290435   3.929   4.296  10.015 -0.7106 -0.0243  0.9031
28115SOL     OW90436   9.854   1.472   6.402 -0.4906  0.4824 -0.3613
28115SOL    HW190437   9.939   1.474   6.446 -0.5748 -1.7267 -0.0074
28115SOL    HW290438   9.870   1.514   6.318  0.5247  1.5739  0.3285
28116SOL     OW90439   5.523   7.436   4.140 -0.6316 -0.3938  0.2168
28116SOL    HW190440   5.510   7.518   4.186  0.0388 -0.1240 -0.0650
28116SOL    HW290441   5.439   7.417   4.099 -0.5918  0.5231 -0.3127
28117SOL     OW90442   0.012   1.888  10.374  0.0614 -0.2139 -0.9008
28117SOL    HW190443  -0.061   1.884  10.435 -1.9453 -2.2611 -3.2328
28117SOL    HW290444   0.063   1.808  10.392  1.5608  0.9789  0.4155
28118SOL     OW90445   3.963   8.846   3.392 -0.6347  0.1715 -0.7657
28118SOL    HW190446   3.971   8.903   3.316 -0.1314  2.0853  0.6235
28118SOL    HW290447   4.043   8.792   3.391 -0.0475  1.0251 -0.9570
28119SOL     OW90448   1.775   3.996   8.149 -0.0719 -0.4169 -0.0898
28119SOL    HW190449   1.827   3.916   8.160  0.6379 -0.2028 -1.6427
28119SOL    HW290450   1.710   3.973   8.082 -0.0551  0.2084 -0.3242
28120SOL     OW90451   6.481   1.653   8.474  0.4665 -0.1911  0.0338
28120SOL    HW190452   6.468   1.577   8.532  1.4729 -0.4328 -0.0443
28120SOL    HW290453   6.463   1.619   8.386 -1.2629  0.2253  0.1836
28121SOL     OW90454  10.839   2.423   3.651 -0.5369 -0.1755 -0.4552
28121SOL    HW190455  10.769   2.417   3.586  0.1961  0.2853 -1.3171
28121SOL    HW290456  10.916   2.450   3.601  0.0007  0.4137  0.6432
28122SOL     OW90457  10.681   4.333  10.437 -0.5098  0.1505 -0.1220
28122SOL    HW190458  10.692   4.249  10.481 -1.4309  1.0818  2.0208
28122SOL    HW290459  10.644   4.311  10.352 -1.6985 -1.5704  0.7781
28123SOL     OW90460   4.331   6.165   7.398  0.1650 -0.3794  0.2299
28123SOL    HW190461   4.387   6.125   7.464 -0.4808  0.2875  1.2040
28123SOL    HW290462   4.347   6.259   7.406 -2.2953  0.0146  1.7523
28124SOL     OW90463  10.466   3.703  10.551 -0.2699 -0.4684  0.6186
28124SOL    HW190464  10.441   3.795  10.545 -0.1751 -0.3606  1.6727
28124SOL    HW290465  10.562   3.704  10.541 -0.3461 -0.5329 -0.1262
28125SOL     OW90466   7.889   0.128   9.616 -0.6357 -0.0060  0.1001
28125SOL    HW190467   7.972   0.083   9.628 -0.6641 -0.1973 -0.3801
28125SOL    HW290468   7.845   0.122   9.701  0.6194  1.7472  0.9409
28126SOL     OW90469   3.936   1.363  10.892 -0.8492 -0.5906 -0.4562
28126SOL    HW190470   3.971   1.338  10.977  0.4514  3.0067  0.2309
28126SOL    HW290471   4.002   1.333  10.829  0.7876  1.2057  0.3330
28127SOL     OW90472   6.567   5.142   4.781  0.1575 -0.1090  0.1235
28127SOL    HW190473   6.511   5.092   4.841  0.1843  0.8310  0.9593
28127SOL    HW290474   6.506   5.197   4.732  0.3318  1.3527  1.4475
28128SOL     OW90475   9.973   7.366   7.248 -0.6806  0.4938  0.3812
28128SOL    HW190476   9.914   7.438   7.226 -0.1208  1.3141  1.4195
28128SOL    HW290477  10.051   7.382   7.194 -0.6058  0.6082  0.5204
28129SOL     OW90478   9.907   4.553   3.409 -0.4801  0.3549  0.4872
28129SOL    HW190479   9.912   4.636   3.363  0.2549  0.6603  1.0964
28129SOL    HW290480   9.992   4.511   3.394 -0.8479 -0.2922  0.1759
28130SOL     OW90481   5.570   0.238   1.957 -0.4086  0.1628  0.5274
28130SOL    HW190482   5.573   0.151   1.997 -1.0282 -0.0036  0.2269
28130SOL    HW290483   5.647   0.283   1.992 -0.1126 -0.4846  0.7307
28131SOL     OW90484   7.864   7.940  10.097  0.3962  0.0004 -0.4702
28131SOL    HW190485   7.880   8.025  10.138  1.5962 -0.2970 -0.2909
28131SOL    HW290486   7.791   7.956  10.037  0.5681  1.1385 -0.4022
28132SOL     OW90487   3.703   0.004   6.394  0.5766 -0.0400 -0.5715
28132SOL    HW190488   3.646  -0.058   6.441 -0.9946  0.6520 -1.4564
28132SOL    HW290489   3.728  -0.043   6.314  1.5827 -0.4820 -0.0065
28133SOL     OW90490   7.615  10.242   3.588  0.9290  0.2786 -0.2211
28133SOL    HW190491   7.653  10.277   3.668  0.4974  0.2254  0.0094
28133SOL    HW290492   7.635  10.148   3.591  4.4918  0.8044 -2.1480
28134SOL     OW90493   3.854   2.779   4.881  0.5768  0.7597 -0.1136
28134SOL    HW190494   3.784   2.768   4.945  0.0555 -0.7087 -0.8979
28134SOL    HW290495   3.877   2.691   4.855  1.8632  1.2808 -0.8086
28135SOL     OW90496   7.295   4.789   9.807  0.4427  0.3121  0.1213
28135SOL    HW190497   7.329   4.706   9.841 -1.6024 -0.5871  0.1178
28135SOL    HW290498   7.250   4.765   9.726  1.4068  1.7532 -0.8943
28136SOL     OW90499   5.746   3.557   2.031 -0.2852  0.0454 -0.6058
28136SOL    HW190500   5.730   3.468   1.999 -1.8347 -0.1720  0.6372
28136SOL    HW290501   5.674   3.574   2.091  0.7483  1.6407  0.2545
28137SOL     OW90502   0.099   9.030  10.201 -0.2166 -0.4649  0.2931
28137SOL    HW190503   0.028   8.969  10.182 -0.9199 -1.0243  3.9430
28137SOL    HW290504   0.071   9.077  10.279  2.6192  0.7179  0.7508
28138SOL     OW90505  10.203   6.516   5.887  0.2662 -1.1788  0.4714
28138SOL    HW190506  10.222   6.550   5.799 -2.3414  0.3261  0.3641
28138SOL    HW290507  10.169   6.428   5.871  0.1485 -1.0546 -0.0004
28139SOL     OW90508   0.385  10.046   6.965  0.6478  0.5607  0.0608
28139SOL    HW190509   0.422   9.960   6.946  1.7489  1.4106 -1.9762
28139SOL    HW290510   0.292  10.037   6.949  0.1003 -1.0961  3.2798
28140SOL     OW90511   9.623   1.164   7.893  0.5813 -0.2680 -0.6837
28140SOL    HW190512   9.541   1.132   7.856 -1.7042 -0.2559  3.7643
28140SOL    HW290513   9.676   1.086   7.906  0.8036 -0.4299 -2.3460
28141SOL     OW90514   0.152   0.331   3.358  0.0523  0.0852 -0.5086
28141SOL    HW190515   0.175   0.297   3.272 -0.0956 -0.7497 -0.2351
28141SOL    HW290516   0.150   0.426   3.348 -1.7811 -0.0535 -1.8746
28142SOL     OW90517   2.669   4.126   3.067  0.0951  0.3578  0.9035
28142SOL    HW190518   2.655   4.063   3.137  0.7936 -2.1895 -1.0821
28142SOL    HW290519   2.746   4.095   3.021  0.9037  3.1226  0.1860
28143SOL     OW90520   0.614  10.127   7.748 -0.1531  0.0642  0.0188
28143SOL    HW190521   0.700  10.115   7.787 -0.7897  0.1532  1.5431
28143SOL    HW290522   0.612  10.218   7.720 -0.4513  0.7195  1.9581
28144SOL     OW90523  10.430   7.851   0.074 -0.2117  0.3155 -0.3322
28144SOL    HW190524  10.398   7.837   0.163  1.5180 -0.1753  0.2576
28144SOL    HW290525  10.523   7.870   0.085 -0.0761  0.7800 -2.0088
28145SOL     OW90526   8.219  10.887   9.972  0.0019 -0.1489 -0.1803
28145SOL    HW190527   8.191  10.919  10.058 -0.1226 -0.2604 -0.1772
28145SOL    HW290528   8.293  10.942   9.948 -1.5067  1.5947 -1.1486
28146SOL     OW90529   1.408   5.908   5.692  0.1311  0.1033 -0.2939
28146SOL    HW190530   1.431   5.896   5.784 -0.0814  2.3570  0.1225
28146SOL    HW290531   1.322   5.951   5.694  0.0301  0.0115 -1.5425
28147SOL     OW90532   7.152   9.931   6.334 -0.4746  0.1803 -0.1954
28147SOL    HW190533   7.154  10.027   6.331  0.0074  0.2186  0.8008
28147SOL    HW290534   7.204   9.903   6.259  2.3552  0.7675  1.4138
28148SOL     OW90535   7.542   7.008   2.478 -0.3551 -0.1936  0.0607
28148SOL    HW190536   7.515   7.088   2.433  0.1033  0.4181  0.8560
28148SOL    HW290537   7.567   6.949   2.407 -1.5583  0.0319 -0.5831
28149SOL     OW90538   9.568   7.918   5.486  0.1991  0.0052  0.4461
28149SOL    HW190539   9.620   7.881   5.558 -0.2095  0.5265  1.0212
28149SOL    HW290540   9.482   7.877   5.494  0.0571  0.3015  0.4522
28150SOL     OW90541   6.578   7.077   6.507 -0.3393 -0.5070  0.0170
28150SOL    HW190542   6.656   7.082   6.451 -0.5939  0.5281 -0.2655
28150SOL    HW290543   6.546   7.167   6.512 -0.1136 -0.4995  2.1480
28151SOL     OW90544   6.699   0.073   4.873  0.3658 -0.5169  0.1453
28151SOL    HW190545   6.672   0.016   4.800  2.1143 -0.4013 -0.6476
28151SOL    HW290546   6.617   0.101   4.913 -0.7293  0.3025 -2.4623
28152SOL     OW90547  10.459   3.776   3.901  0.2336 -0.2861  0.0170
28152SOL    HW190548  10.534   3.762   3.843  0.6638 -1.0330  0.7193
28152SOL    HW290549  10.386   3.796   3.843  0.4472 -1.8639 -0.8311
28153SOL     OW90550   6.363   6.704   5.775  0.2268 -0.0125 -0.1815
28153SOL    HW190551   6.330   6.622   5.738 -1.9972 -0.2579  2.0322
28153SOL    HW290552   6.294   6.731   5.837  1.1098  3.2982 -0.4863
28154SOL     OW90553   4.585   3.564   3.130 -0.2839  0.2256 -0.6690
28154SOL    HW190554   4.612   3.475   3.110 -0.4102  0.2399 -0.9112
28154SOL    HW290555   4.490   3.559   3.141 -0.0511 -0.1406  1.8439
28155SOL     OW90556   1.211   7.958   6.448 -0.3058  0.3418 -0.0466
28155SOL    HW190557   1.231   7.952   6.355  0.4940 -0.0796  0.1351
28155SOL    HW290558   1.119   7.934   6.455 -0.4323  0.5963 -0.7476
28156SOL     OW90559   0.022   1.563   3.468 -0.1049  0.2302  0.0966
28156SOL    HW190560   0.087   1.512   3.515 -0.6261 -0.4187  0.1385
28156SOL    HW290561   0.066   1.589   3.387  0.1579 -0.3434  0.0461
28157SOL     OW90562   5.215   2.472   8.350 -0.4005  0.0329 -0.5200
28157SOL    HW190563   5.193   2.564   8.362 -2.4808  0.0750 -3.6198
28157SOL    HW290564   5.190   2.431   8.433  0.9347  2.2052  1.0905
28158SOL     OW90565   4.163   1.846  10.145  0.0759 -0.0591  0.0950
28158SOL    HW190566   4.104   1.772  10.154  1.3263 -1.2116 -0.7596
28158SOL    HW290567   4.249   1.811  10.170  0.4904  1.4456  0.9001
28159SOL     OW90568   3.414   9.080   2.855 -0.7465 -0.0906  0.5447
28159SOL    HW190569   3.433   9.058   2.947 -0.0741  0.3010  0.5029
28159SOL    HW290570   3.418   9.175   2.852 -1.2901 -0.0800  0.2183
28160SOL     OW90571   5.087   8.109   7.405  0.7115 -0.0751  0.3785
28160SOL    HW190572   5.135   8.180   7.447 -2.3035  1.2396  1.8327
28160SOL    HW290573   5.078   8.136   7.314  1.8696  0.0770  0.2949
28161SOL     OW90574   2.789   4.667   1.262  0.4285  0.1444  0.1090
28161SOL    HW190575   2.728   4.625   1.323  1.3664 -0.6715  0.5149
28161SOL    HW290576   2.742   4.744   1.231 -0.0760  0.6006  1.8833
28162SOL     OW90577   5.793  10.766   6.417 -0.2849  0.1810 -0.7315
28162SOL    HW190578   5.888  10.765   6.405 -0.3459  0.5221 -1.2929
28162SOL    HW290579   5.780  10.807   6.503  0.1164 -1.0506 -0.0632
28163SOL     OW90580   4.774   9.439   0.028  0.3709 -0.1416 -0.5539
28163SOL    HW190581   4.843   9.373   0.034  1.0102  0.3745 -1.8950
28163SOL    HW290582   4.746   9.453   0.119  3.4877  1.1727  0.3256
28164SOL     OW90583   8.032   0.184   6.820  0.0980 -0.1604  0.4239
28164SOL    HW190584   7.960   0.126   6.844  0.5053 -0.4659  0.9320
28164SOL    HW290585   8.098   0.170   6.889 -0.4791  2.1372  1.5299
28165SOL     OW90586   1.579   6.260   5.500  0.6371  0.3338 -0.0040
28165SOL    HW190587   1.674   6.266   5.514  0.4334 -1.1330  2.6306
28165SOL    HW290588   1.562   6.167   5.487 -0.4773  0.5043  0.0971
28166SOL     OW90589  10.920   9.610   4.492 -0.1111 -0.0692  0.6388
28166SOL    HW190590  10.877   9.682   4.538 -1.9770 -0.3389 -0.5693
28166SOL    HW290591  10.900   9.625   4.400 -0.5258 -2.0806  0.3430
28167SOL     OW90592   7.271   3.348   2.081 -0.1516  0.6368 -0.6872
28167SOL    HW190593   7.217   3.388   2.149 -1.0756 -2.4916  0.6011
28167SOL    HW290594   7.361   3.362   2.111 -0.5248 -0.0754  0.8443
28168SOL     OW90595   0.309   8.614   8.164 -0.2989  0.1614 -0.4254
28168SOL    HW190596   0.374   8.544   8.176  0.3401  0.1985 -3.0079
28168SOL    HW290597   0.341   8.686   8.218 -0.5107 -1.1851  1.6231
28169SOL     OW90598   0.936   2.231   7.281 -0.6294  0.3707 -0.7848
28169SOL    HW190599   0.923   2.146   7.240  0.6600  0.2407 -0.9762
28169SOL    HW290600   0.884   2.292   7.229 -1.3821 -0.2523 -0.7809
28170SOL     OW90601   1.390   7.473   6.485  0.1590  0.2832  0.2427
28170SOL    HW190602   1.342   7.545   6.446  0.7800 -0.1808 -1.4728
28170SOL    HW290603   1.482   7.499   6.479  0.4225 -0.7804 -0.7686
28171SOL     OW90604   3.246   2.423   0.274  0.2856 -0.1907 -0.3072
28171SOL    HW190605   3.180   2.354   0.275  0.4621 -0.3790  1.7065
28171SOL    HW290606   3.328   2.379   0.254 -0.1876  0.1260 -3.4258
28172SOL     OW90607   9.206   2.098  10.084 -0.3127 -0.3651  0.2093
28172SOL    HW190608   9.184   2.023  10.029 -0.9288 -1.0352  1.3195
28172SOL    HW290609   9.140   2.097  10.153  0.9078 -0.0419  1.4278
28173SOL     OW90610   4.500   9.939   0.559  0.1536  0.1799 -0.9306
28173SOL    HW190611   4.558   9.894   0.621  0.7765 -0.0625 -1.6711
28173SOL    HW290612   4.554   9.954   0.482 -0.9750 -0.7267 -1.9387
28174SOL     OW90613   8.871   3.539   9.068 -0.0002 -0.4145  0.5206
28174SOL    HW190614   8.811   3.465   9.079  0.6973 -1.3902 -1.6532
28174SOL    HW290615   8.938   3.525   9.134 -2.0816  0.7375  3.0506
28175SOL     OW90616   7.159   9.183   5.124  0.2544 -0.3694 -0.0887
28175SOL    HW190617   7.079   9.187   5.177 -0.4321 -0.9295 -1.0623
28175SOL    HW290618   7.221   9.133   5.177 -0.4293 -0.9454  0.1721
28176SOL     OW90619   1.121   1.096   5.032  0.2370 -0.7631  0.1532
28176SOL    HW190620   1.056   1.026   5.029 -0.0313 -0.4834 -0.8489
28176SOL    HW290621   1.206   1.052   5.030  0.0694 -1.0362 -1.1939
28177SOL     OW90622   5.837   3.663   7.404  0.4075  0.9035 -0.4343
28177SOL    HW190623   5.788   3.582   7.421 -0.7388  1.6623  0.0032
28177SOL    HW290624   5.924   3.633   7.378 -0.2994 -0.4976 -1.3170
28178SOL     OW90625   2.004   4.592   4.105  0.1125  0.6732 -0.1174
28178SOL    HW190626   1.915   4.625   4.092  0.2998  0.5157 -1.9393
28178SOL    HW290627   2.053   4.623   4.029  1.2055 -0.7011 -0.0166
28179SOL     OW90628   6.122   8.645   3.146  0.4073 -0.3563 -0.3835
28179SOL    HW190629   6.152   8.735   3.138  0.2742 -0.2833 -0.0738
28179SOL    HW290630   6.180   8.606   3.211  0.1228 -0.3410 -0.1181
28180SOL     OW90631   2.438   6.237   8.654  0.5669 -0.0910 -0.2234
28180SOL    HW190632   2.478   6.248   8.741  1.0496 -0.5638 -0.3814
28180SOL    HW290633   2.397   6.322   8.636 -0.3728 -0.2771  0.8771
28181SOL     OW90634   8.370   8.106   0.377  0.7223 -0.3287  0.0320
28181SOL    HW190635   8.423   8.131   0.452  0.7023 -1.0234  0.2858
28181SOL    HW290636   8.413   8.027   0.343  0.2765 -0.4745 -0.2024
28182SOL     OW90637   3.176   2.956   0.349  0.4606  0.0961  0.3921
28182SOL    HW190638   3.130   3.015   0.409 -2.3647 -0.3768 -1.1260
28182SOL    HW290639   3.217   2.891   0.406 -3.4557 -1.2999  2.0257
28183SOL     OW90640   2.514   3.268   6.289 -0.2460  0.5026  0.0454
28183SOL    HW190641   2.597   3.219   6.296 -0.1292  0.6214 -0.4631
28183SOL    HW290642   2.530   3.349   6.337 -0.8051 -0.4085  1.8608
28184SOL     OW90643   6.257   9.243   2.371  0.0397  0.5418 -0.1065
28184SOL    HW190644   6.281   9.191   2.448  0.7694  0.7350 -0.1899
28184SOL    HW290645   6.307   9.324   2.381  0.5066  0.3837 -1.0119
28185SOL     OW90646   9.334   0.936   6.193 -0.3399 -0.2793 -0.1922
28185SOL    HW190647   9.301   0.853   6.228 -0.6080 -0.3354 -0.5692
28185SOL    HW290648   9.296   1.003   6.251  1.6577 -0.5071  1.5071
28186SOL     OW90649  10.280  10.177   9.755  0.3568  0.0157 -0.1270
28186SOL    HW190650  10.185  10.176   9.746  0.4100 -1.1530 -0.8472
28186SOL    HW290651  10.298  10.120   9.831  0.4743  0.3854  0.1254
28187SOL     OW90652   6.303   9.529   0.009 -0.9001  0.5209  0.2687
28187SOL    HW190653   6.275   9.530  -0.082  1.8476  0.5234 -0.6795
28187SOL    HW290654   6.282   9.441   0.039  0.2229 -0.2702 -1.1360
28188SOL     OW90655   0.539   4.104   5.245  0.1585  0.7712 -0.0308
28188SOL    HW190656   0.498   4.127   5.328  0.7296 -2.0545  1.1724
28188SOL    HW290657   0.467   4.101   5.182 -0.7516  0.3135  0.9975
28189SOL     OW90658   5.103   0.779   5.888  0.0032  0.5396  0.0073
28189SOL    HW190659   5.087   0.731   5.970  0.3840 -2.0815 -1.3548
28189SOL    HW290660   5.016   0.788   5.849  0.2099 -2.3309 -1.3701
28190SOL     OW90661   5.024   1.034   4.718 -0.0518 -0.3889  0.0732
28190SOL    HW190662   4.939   1.067   4.746  0.1763  1.5149 -1.3178
28190SOL    HW290663   5.087   1.084   4.770  0.2558 -0.0182 -0.6422
28191SOL     OW90664  10.562   0.918   1.672 -0.2933 -0.5349 -0.4167
28191SOL    HW190665  10.500   0.862   1.624 -0.9850 -1.5840  1.5878
28191SOL    HW290666  10.648   0.888   1.643 -0.6800 -0.3747 -1.8034
28192SOL     OW90667   5.476   6.936   2.581  0.1349 -0.0910  0.1226
28192SOL    HW190668   5.390   6.978   2.586  0.5320  0.7806 -0.2220
28192SOL    HW290669   5.457   6.844   2.564 -0.7858 -0.2639  1.8642
28193SOL     OW90670   8.860   9.231  10.479  0.0723 -0.0181  0.0349
28193SOL    HW190671   8.914   9.295  10.525 -2.1935  0.6088  2.0152
28193SOL    HW290672   8.913   9.152  10.475  2.6716  1.6568 -1.8242
28194SOL     OW90673   5.653   2.043   6.440 -0.2702  0.0155  0.4430
28194SOL    HW190674   5.688   2.001   6.519 -1.6875 -0.6737  0.7515
28194SOL    HW290675   5.558   2.035   6.450 -0.5957  2.8040  0.2155
28195SOL     OW90676   4.091   3.356   2.526 -0.3570  0.5424 -0.7815
28195SOL    HW190677   4.183   3.333   2.516 -0.5755 -0.1632 -1.3018
28195SOL    HW290678   4.078   3.362   2.621  0.4014  1.4416 -0.7277
28196SOL     OW90679   1.663  10.447   1.315 -0.2232  0.0277  0.1494
28196SOL    HW190680   1.598  10.414   1.254  0.9520 -0.8261 -0.6946
28196SOL    HW290681   1.622  10.442   1.401 -1.0983 -0.8931 -0.3179
28197SOL     OW90682   1.889   1.295   8.804  0.2928 -0.0219  0.0896
28197SOL    HW190683   1.962   1.276   8.745  0.5193  0.2141  0.2877
28197SOL    HW290684   1.813   1.303   8.747  0.2440 -1.2019 -0.0337
28198SOL     OW90685   7.495   4.150   5.159 -0.2482 -0.0630  0.1164
28198SOL    HW190686   7.419   4.208   5.154  0.8305  1.5092  0.9839
28198SOL    HW290687   7.464   4.066   5.125 -2.4131  0.4702  0.6331
28199SOL     OW90688   6.826   3.994   5.763 -0.1726  0.0542  0.2489
28199SOL    HW190689   6.884   4.021   5.692 -0.0445 -0.1358  0.2838
28199SOL    HW290690   6.739   4.022   5.734 -0.1481 -0.2008 -0.0702
28200SOL     OW90691   6.132   8.123   0.730 -0.5991  0.3885  0.5847
28200SOL    HW190692   6.099   8.092   0.646  2.7058 -0.3858 -0.5868
28200SOL    HW290693   6.121   8.049   0.790  0.3674 -0.4093 -0.1955
28201SOL     OW90694   4.878   1.343   2.144 -0.2787 -0.1762 -0.1359
28201SOL    HW190695   4.845   1.430   2.123  1.0063  0.5604  0.7758
28201SOL    HW290696   4.888   1.300   2.059 -1.5430  0.3114 -0.5571
28202SOL     OW90697   2.504   2.708   8.815  0.0505 -0.3189 -0.3317
28202SOL    HW190698   2.470   2.786   8.858 -0.0457 -0.7646  0.4222
28202SOL    HW290699   2.535   2.738   8.729  0.2885  0.5961  0.0725
28203SOL     OW90700   2.477   0.029   4.580  0.2927 -0.0486  0.2864
28203SOL    HW190701   2.490   0.051   4.672 -0.3729 -0.2777  0.4442
28203SOL    HW290702   2.450  -0.063   4.580 -0.8490  0.2603 -0.0246
28204SOL     OW90703   3.176   7.386   8.049  0.4503  0.9353 -0.0786
28204SOL    HW190704   3.180   7.465   7.995 -0.2324  1.1361  0.1505
28204SOL    HW290705   3.243   7.328   8.013  0.5523  1.3868 -0.6195
28205SOL     OW90706   1.262   4.978   5.152  0.2445 -0.4589  0.1001
28205SOL    HW190707   1.209   5.056   5.166 -0.1995 -0.8096  0.3776
28205SOL    HW290708   1.240   4.920   5.225  0.1842 -1.0584 -0.3807
28206SOL     OW90709   6.123   9.157   6.668  0.1355 -0.8469 -0.1395
28206SOL    HW190710   6.069   9.087   6.631 -2.7744  0.1886  1.8289
28206SOL    HW290711   6.076   9.185   6.746  2.4500  1.6955  0.4779
28207SOL     OW90712   3.275   4.004   9.654 -0.0185 -0.0218 -0.8599
28207SOL    HW190713   3.245   3.940   9.718 -1.3832  0.2116 -1.2428
28207SOL    HW290714   3.241   4.088   9.685  0.7971  0.3708 -0.9738
28208SOL     OW90715  10.153   3.367   8.689  0.0748  0.1130 -0.4601
28208SOL    HW190716  10.116   3.409   8.611 -2.0863 -0.7449  0.0162
28208SOL    HW290717  10.208   3.297   8.655 -1.4707 -0.7686 -1.2614
28209SOL     OW90718   9.320   1.351   7.716 -0.5200  0.3595 -0.6312
28209SOL    HW190719   9.253   1.286   7.740  0.1356  0.7215  2.7200
28209SOL    HW290720   9.400   1.300   7.706 -0.1946  0.4488  1.1083
28210SOL     OW90721   4.737  10.439   1.610 -0.1680 -0.1300 -0.8474
28210SOL    HW190722   4.802  10.371   1.626  1.6232  1.6214 -0.1523
28210SOL    HW290723   4.753  10.467   1.520  1.2276  1.3894 -0.1827
28211SOL     OW90724   8.282   6.330  10.822  0.1825 -0.6285  0.4152
28211SOL    HW190725   8.256   6.412  10.781 -0.7720 -0.0013  2.1573
28211SOL    HW290726   8.220   6.266  10.788 -2.8430  0.5298  3.2159
28212SOL     OW90727   0.978   7.840   1.326  0.0347  0.3539  0.5908
28212SOL    HW190728   1.027   7.904   1.274 -0.5450  0.3517  0.0334
28212SOL    HW290729   0.888   7.849   1.295 -0.0540 -0.7192  0.5232
28213SOL     OW90730   6.348   5.058   6.071  0.2276 -0.0964  0.2575
28213SOL    HW190731   6.284   5.069   6.141  1.4533  2.2791  1.1145
28213SOL    HW290732   6.314   5.111   5.999  0.1407 -0.6496 -0.1170
28214SOL     OW90733   9.574   1.515   6.934 -0.1966  0.0027  0.1093
28214SOL    HW190734   9.632   1.590   6.921 -0.6278  0.7652  2.2085
28214SOL    HW290735   9.524   1.537   7.013 -0.8207 -2.2090  0.3906
28215SOL     OW90736   3.033   9.211   0.803  0.0143 -0.8114 -0.2759
28215SOL    HW190737   3.048   9.239   0.893  0.6843 -1.0253 -0.3139
28215SOL    HW290738   2.939   9.220   0.790  0.2741  2.5806 -0.6577
28216SOL     OW90739   3.560   8.778   7.223  0.4632  1.0558 -0.1238
28216SOL    HW190740   3.521   8.694   7.202  0.2579  1.1496 -0.1190
28216SOL    HW290741   3.653   8.759   7.235  0.7259  1.1186 -1.8354
28217SOL     OW90742   6.910   0.768   3.702 -0.5429 -0.1576  0.1698
28217SOL    HW190743   6.958   0.821   3.766 -2.4785  1.5865  0.2679
28217SOL    HW290744   6.952   0.787   3.619 -0.9733  1.3102  0.2590
28218SOL     OW90745   4.768   9.340   8.969  0.6371 -0.5300  0.2699
28218SOL    HW190746   4.766   9.264   9.027 -0.0520  0.4694  1.6130
28218SOL    HW290747   4.684   9.339   8.923  0.6646 -0.6225  0.2222
28219SOL     OW90748   3.807  10.811   5.693 -0.1945  0.2397 -0.2382
28219SOL    HW190749   3.748  10.803   5.618 -0.4571 -0.6120  0.0505
28219SOL    HW290750   3.889  10.773   5.664  0.1298  1.1315 -0.5304
28220SOL     OW90751   4.819   6.178   2.106  0.1865 -0.3022 -0.4630
28220SOL    HW190752   4.818   6.091   2.145 -2.2667  0.0897  0.5819
28220SOL    HW290753   4.728   6.193   2.080  0.2415  2.4116  0.5774
28221SOL     OW90754   0.047  10.173   2.815 -0.8078  0.6507  0.1236
28221SOL    HW190755   0.137  10.150   2.837 -1.0580 -1.0788 -0.5458
28221SOL    HW290756   0.052  10.265   2.788  0.5255  0.9467  1.2975
28222SOL     OW90757   0.523   6.023   7.407  0.6990 -0.0726  0.1245
28222SOL    HW190758   0.542   6.047   7.317 -1.2353  0.5553 -0.1641
28222SOL    HW290759   0.516   6.106   7.454 -3.8249  0.0884 -0.4056
28223SOL     OW90760   8.441   3.409   7.356  0.1222 -0.2487 -0.2271
28223SOL    HW190761   8.389   3.433   7.280  0.5805 -0.6394 -0.6677
28223SOL    HW290762   8.524   3.455   7.344  0.8776 -1.7011 -0.8978
28224SOL     OW90763   1.348   2.877   9.106  0.2105  0.0748  0.5813
28224SOL    HW190764   1.296   2.834   9.174 -0.6048 -2.6828 -1.6051
28224SOL    HW290765   1.304   2.961   9.091 -1.1736 -0.4311  1.5713
28225SOL     OW90766   5.265   9.072   8.009  0.1214 -0.2850 -0.2921
28225SOL    HW190767   5.358   9.055   8.020  0.0336 -1.5102 -1.2690
28225SOL    HW290768   5.236   9.107   8.093  0.9180 -2.4122  0.9357
28226SOL     OW90769  10.118  10.384   4.897 -0.8930  0.5415 -0.4486
28226SOL    HW190770  10.115  10.475   4.927  0.2888  0.1571  0.9458
28226SOL    HW290771  10.077  10.334   4.967  1.7130 -0.3618  0.5700
28227SOL     OW90772   5.673   9.649   8.217  0.7698  0.7004  0.2917
28227SOL    HW190773   5.625   9.658   8.135  1.2312  0.5192 -0.0038
28227SOL    HW290774   5.659   9.732   8.263  0.4212  0.7598  0.0793
28228SOL     OW90775   1.666  10.406   3.651  0.1497 -0.3056  0.3579
28228SOL    HW190776   1.604  10.475   3.628  0.8609  0.8056  1.6085
28228SOL    HW290777   1.746  10.430   3.606 -0.5388 -2.3394 -2.1613
28229SOL     OW90778   7.776   9.022   7.367 -0.0936  0.6990 -0.1786
28229SOL    HW190779   7.713   8.995   7.434  1.7887 -3.2843  0.2865
28229SOL    HW290780   7.729   9.010   7.285 -1.3168  2.3080  0.2201
28230SOL     OW90781   2.801   6.811   9.994 -0.1898 -0.1463 -0.4770
28230SOL    HW190782   2.802   6.758   9.915  0.7286 -0.7974 -0.0429
28230SOL    HW290783   2.893   6.819  10.019 -0.4789 -0.1407  0.6374
28231SOL     OW90784   1.458  10.120   9.720  0.1797 -0.1771  0.6159
28231SOL    HW190785   1.478  10.180   9.649 -0.5228 -1.4598 -0.7210
28231SOL    HW290786   1.363  10.106   9.714 -0.0089  0.1531  2.2108
28232SOL     OW90787   3.015   0.155   3.996  0.7688  0.5530 -0.2589
28232SOL    HW190788   3.052   0.239   4.024  0.5543  1.0113 -1.3094
28232SOL    HW290789   3.056   0.138   3.912 -0.3384  0.3741 -0.7745
28233SOL     OW90790   7.768   8.625   1.312 -0.2265 -0.2694  0.3170
28233SOL    HW190791   7.729   8.571   1.244 -1.2160  2.4305 -1.3863
28233SOL    HW290792   7.711   8.612   1.388 -2.2342  0.5898 -0.9583
28234SOL     OW90793   5.966  10.360   0.384 -0.0362  0.3600 -0.1825
28234SOL    HW190794   6.007  10.283   0.344 -0.1814  0.3742 -0.3589
28234SOL    HW290795   5.964  10.425   0.314 -1.5440 -0.0685 -0.5718
28235SOL     OW90796   0.231   8.689   6.173 -0.3722 -0.1824  0.3829
28235SOL    HW190797   0.229   8.638   6.092  0.4136 -0.4257  0.5054
28235SOL    HW290798   0.291   8.761   6.154  0.6233 -0.8094  1.0589
28236SOL     OW90799   9.153   7.902  10.880 -0.3644  0.3276  0.0282
28236SOL    HW190800   9.080   7.962  10.868  0.1246  0.8137 -0.6031
28236SOL    HW290801   9.114   7.815  10.873 -1.0704  0.5547  0.9012
28237SOL     OW90802   8.338   1.106   7.586 -0.1586  0.1923 -0.5692
28237SOL    HW190803   8.376   1.081   7.501 -1.2837 -1.4921 -0.6127
28237SOL    HW290804   8.297   1.027   7.618 -0.9833  1.1819  0.9228
28238SOL     OW90805   0.647  10.248   8.251 -0.2355  0.1764  0.2801
28238SOL    HW190806   0.684  10.182   8.193 -1.2296 -0.0749 -0.0892
28238SOL    HW290807   0.695  10.238   8.333  0.0864 -0.5531  0.0075
28239SOL     OW90808   5.763   7.187   2.167  0.2068  0.4525  0.4977
28239SOL    HW190809   5.801   7.111   2.123 -0.5938  0.3787 -0.0888
28239SOL    HW290810   5.712   7.151   2.239  1.0093  0.5350  1.1195
28240SOL     OW90811   9.667   7.276   8.964  0.3458  0.0401 -0.0363
28240SOL    HW190812   9.621   7.200   8.998  0.5112  0.4470  1.1180
28240SOL    HW290813   9.603   7.347   8.965  0.4774  0.1643 -0.1716
28241SOL     OW90814   0.949   9.303   9.230  0.5373  0.4215 -0.0541
28241SOL    HW190815   0.866   9.309   9.277  0.3194 -1.0585 -0.1931
28241SOL    HW290816   0.974   9.394   9.214 -1.8725  0.9599 -1.4418
28242SOL     OW90817   3.038   9.805   5.109  0.2330 -0.0115 -0.4295
28242SOL    HW190818   2.969   9.836   5.169  0.8339  0.3023  0.1092
28242SOL    HW290819   3.051   9.878   5.048  1.5452  0.7984  0.7507
28243SOL     OW90820   4.769   9.349   2.502 -0.0975 -0.3814  0.4679
28243SOL    HW190821   4.800   9.328   2.414  0.8099 -1.3357  0.9972
28243SOL    HW290822   4.693   9.291   2.515 -1.1113  0.7500 -0.1849
28244SOL     OW90823   8.617   9.612   1.787  0.0508  0.5938 -0.8166
28244SOL    HW190824   8.625   9.548   1.858 -1.6882  1.7838  0.5599
28244SOL    HW290825   8.702   9.656   1.784  0.4261 -0.0548 -0.0282
28245SOL     OW90826   8.398   2.406  10.787 -0.1913  0.2811  0.3918
28245SOL    HW190827   8.420   2.499  10.789  0.8617  0.0391  1.0516
28245SOL    HW290828   8.344   2.393  10.865 -0.2149  0.3118  0.3806
28246SOL     OW90829   1.048   3.737  10.478  0.0331 -0.2877  0.5772
28246SOL    HW190830   1.105   3.752  10.403 -0.1593  0.5719  0.5970
28246SOL    HW290831   1.032   3.642  10.477 -1.9898 -0.0384 -1.9776
28247SOL     OW90832   7.830   2.109   2.600  0.0010  0.1425 -0.1797
28247SOL    HW190833   7.913   2.063   2.590 -0.6370 -1.0217 -0.3490
28247SOL    HW290834   7.837   2.154   2.684  0.7490 -0.0445 -0.1331
28248SOL     OW90835   6.028   1.294   4.471 -0.2984  0.1042 -0.2779
28248SOL    HW190836   6.044   1.318   4.562 -0.7634 -2.1824  0.4803
28248SOL    HW290837   5.965   1.359   4.440  1.7979  2.4753  0.1662
28249SOL     OW90838  10.618   2.607   1.726 -0.1548  0.0059 -0.1453
28249SOL    HW190839  10.675   2.621   1.803  0.1233  0.2462 -0.3910
28249SOL    HW290840  10.653   2.666   1.660 -1.1395  0.6985 -0.0726
28250SOL     OW90841   9.968   3.060   9.219  0.0710  0.2327  0.3084
28250SOL    HW190842   9.928   3.042   9.304  1.5198 -1.9762  0.6371
28250SOL    HW290843   9.901   3.105   9.169 -1.0769  0.9433  2.3769
28251SOL     OW90844  10.213   7.995   3.902 -0.8624  0.5834  0.0337
28251SOL    HW190845  10.198   7.948   3.819 -0.8219 -0.9346  0.8470
28251SOL    HW290846  10.132   8.043   3.917 -0.5310  1.6418 -1.3344
28252SOL     OW90847   2.504   4.303   5.230 -0.2289  0.2096  0.0924
28252SOL    HW190848   2.440   4.367   5.199 -0.2697 -0.6417 -1.7410
28252SOL    HW290849   2.589   4.341   5.206  0.0814  1.5078  2.8413
28253SOL     OW90850   4.213   2.349   3.320 -0.2485 -0.8382  0.0256
28253SOL    HW190851   4.164   2.268   3.310 -1.3855 -0.3536  1.3717
28253SOL    HW290852   4.154   2.417   3.285  0.0282 -0.4081  0.3872
28254SOL     OW90853   4.647   4.180   9.427 -0.1647  0.8376 -0.4938
28254SOL    HW190854   4.711   4.233   9.474 -0.7041  0.8558  0.2377
28254SOL    HW290855   4.565   4.228   9.434 -0.4302  0.4334 -0.7471
28255SOL     OW90856   3.784   4.324   9.619 -0.0594 -0.0562  0.2919
28255SOL    HW190857   3.782   4.388   9.548 -1.9982 -0.0672  0.2669
28255SOL    HW290858   3.869   4.336   9.660 -0.0221  1.9467 -0.2556
28256SOL     OW90859   7.294   7.440   1.661  0.0008  0.5214  0.0078
28256SOL    HW190860   7.201   7.441   1.641  0.2759 -1.2725 -1.5826
28256SOL    HW290861   7.309   7.355   1.704  1.1197  0.1873 -0.9922
28257SOL     OW90862   4.533   5.915   0.937 -0.7635 -0.1545 -0.2155
28257SOL    HW190863   4.453   5.941   0.983 -0.7487  0.0016 -0.2751
28257SOL    HW290864   4.503   5.859   0.866 -0.6408 -1.8814  1.0407
28258SOL     OW90865   1.656  10.114   9.252 -0.0015  0.0018  0.0490
28258SOL    HW190866   1.674  10.037   9.199 -1.0989  1.0215 -1.9371
28258SOL    HW290867   1.714  10.182   9.216 -1.1711  0.8689 -0.2838
28259SOL     OW90868  10.075   7.455   8.425  0.2046  0.0522 -0.0884
28259SOL    HW190869  10.127   7.528   8.390 -0.7650  0.4890 -0.6700
28259SOL    HW290870   9.998   7.452   8.369  0.7737 -2.2295 -0.8595
28260SOL     OW90871   2.465  10.921   1.914 -0.1367  0.5623 -0.0040
28260SOL    HW190872   2.396  10.855   1.908  0.1710  0.1880  0.5251
28260SOL    HW290873   2.479  10.932   2.008  0.9799  0.1631 -0.1089
28261SOL     OW90874   9.160   4.036   7.222  0.2692 -0.1829 -0.0310
28261SOL    HW190875   9.144   4.043   7.316  1.6887 -1.1144  0.2920
28261SOL    HW290876   9.095   3.972   7.191  1.1614 -1.4750  0.6977
28262SOL     OW90877   3.632   0.194   2.048 -0.2809  0.1251  0.3017
28262SOL    HW190878   3.615   0.100   2.042  1.3904 -0.2129  0.1824
28262SOL    HW290879   3.595   0.220   2.132  0.6354 -1.0019  1.0906
28263SOL     OW90880   3.286   3.196   8.337 -0.1079 -0.4859 -0.0741
28263SOL    HW190881   3.338   3.227   8.411  0.8403 -0.1847 -0.8659
28263SOL    HW290882   3.282   3.101   8.350 -0.1015 -0.4191  0.4551
28264SOL     OW90883   0.485   3.319   4.696  0.8744  0.0828  0.1087
28264SOL    HW190884   0.476   3.225   4.709  2.3765 -0.1317 -0.2731
28264SOL    HW290885   0.467   3.357   4.782 -2.5479 -0.2875 -0.3180
28265SOL     OW90886   9.572   8.554   5.346 -0.2585  0.1744  0.8918
28265SOL    HW190887   9.520   8.562   5.266  0.8680  0.4468  0.1622
28265SOL    HW290888   9.556   8.465   5.376  1.0043 -0.7156 -0.8854
28266SOL     OW90889   7.823   6.027   9.648 -0.0495  0.5437 -0.9036
28266SOL    HW190890   7.731   6.053   9.650  0.3853  2.3592 -2.0354
28266SOL    HW290891   7.856   6.048   9.736 -1.0716 -1.8539  0.1551
28267SOL     OW90892   8.353   8.453   8.838 -0.2235 -0.0912  0.2992
28267SOL    HW190893   8.425   8.515   8.854 -0.8356  0.9159 -0.6724
28267SOL    HW290894   8.386   8.395   8.770 -0.3478  0.4324 -0.2189
28268SOL     OW90895   2.814   9.487   0.947 -0.4589  0.2583 -0.6572
28268SOL    HW190896   2.777   9.425   0.884  0.1670 -1.0369  0.1997
28268SOL    HW290897   2.907   9.490   0.925 -0.2968  0.0511 -0.0325
28269SOL     OW90898   4.220   8.975   7.398  0.8987 -0.0449 -0.0304
28269SOL    HW190899   4.171   9.018   7.468  1.8446  0.6442  0.2240
28269SOL    HW290900   4.257   9.047   7.347 -0.4364 -0.5088 -1.7417
28270SOL     OW90901   2.795   9.443   3.263 -0.3188 -0.1902 -0.0668
28270SOL    HW190902   2.886   9.472   3.264 -0.3719 -0.0298  0.5338
28270SOL    HW290903   2.788   9.382   3.336 -0.7386 -0.0615  0.0049
28271SOL     OW90904   8.060   4.635  10.471 -0.4181 -0.3779 -0.1378
28271SOL    HW190905   8.025   4.672  10.390 -0.6689  0.4279  0.3379
28271SOL    HW290906   8.027   4.691  10.541 -0.5267 -1.2979  0.5708
28272SOL     OW90907   0.636   3.874   6.427 -0.2341  0.2396 -0.0812
28272SOL    HW190908   0.589   3.793   6.409  0.5129 -0.1780 -0.1842
28272SOL    HW290909   0.725   3.858   6.395  0.4853  0.3586  1.7003
28273SOL     OW90910   1.760   9.286   0.015  0.0889  0.4868  0.5910
28273SOL    HW190911   1.808   9.207   0.040  0.7012  1.0681  1.2912
28273SOL    HW290912   1.773   9.346   0.088 -3.4579 -0.0256  1.8379
28274SOL     OW90913   4.760   2.152   0.519 -0.0065 -0.1129 -0.3250
28274SOL    HW190914   4.812   2.227   0.491  0.4218 -0.3877 -0.2670
28274SOL    HW290915   4.737   2.107   0.437 -0.8739  0.4715 -0.4211
28275SOL     OW90916   3.997   1.163   7.077 -0.3953  0.2105 -0.5685
28275SOL    HW190917   4.069   1.170   7.140  0.0738  1.0105 -1.1760
28275SOL    HW290918   3.988   1.069   7.062  0.6500  0.1007 -0.6144
28276SOL     OW90919  10.186   8.624   3.036  0.1202 -0.1419  0.0755
28276SOL    HW190920  10.120   8.624   3.105  0.1030 -1.2232  0.0736
28276SOL    HW290921  10.248   8.557   3.062 -0.8251 -1.8697 -1.8202
28277SOL     OW90922   0.386  10.367   2.752 -0.0975 -0.2534  0.1687
28277SOL    HW190923   0.353  10.448   2.715 -1.9976 -0.1043  2.0196
28277SOL    HW290924   0.445  10.394   2.823 -0.0474 -0.4985  0.2237
28278SOL     OW90925   5.474   8.750   7.443 -0.3067  0.2321 -0.1645
28278SOL    HW190926   5.387   8.775   7.414 -1.6972 -1.2818  2.2823
28278SOL    HW290927   5.479   8.656   7.427  0.4656  0.1191  0.6197
28279SOL     OW90928   9.127   5.774   4.245  0.1008  0.1177  0.4520
28279SOL    HW190929   9.119   5.712   4.318  0.3248 -0.5752 -0.0996
28279SOL    HW290930   9.058   5.838   4.260 -0.5281 -0.6088  0.7053
28280SOL     OW90931   9.405   5.318   8.958 -0.2042  0.2346  0.3383
28280SOL    HW190932   9.465   5.359   9.020 -0.8506  0.5867  0.7379
28280SOL    HW290933   9.335   5.383   8.946 -0.9431 -0.5178  0.5349
28281SOL     OW90934   5.264   9.324  10.797 -0.5070  0.1589 -0.3690
28281SOL    HW190935   5.203   9.280  10.857  0.0575 -1.8315 -1.1632
28281SOL    HW290936   5.211   9.343  10.719 -0.0951 -1.8846 -1.1970
28282SOL     OW90937   3.450   5.871   7.546  0.0139  0.1488 -0.4557
28282SOL    HW190938   3.409   5.955   7.529 -0.7846 -0.0009  0.6650
28282SOL    HW290939   3.532   5.892   7.592 -0.9960  0.2716  1.3699
28283SOL     OW90940   2.306   9.720   1.335 -0.1644  0.4929 -0.4157
28283SOL    HW190941   2.270   9.668   1.406 -2.4913  1.4370 -0.8051
28283SOL    HW290942   2.400   9.723   1.352  0.0883 -3.5244 -0.2494
28284SOL     OW90943   5.255   6.661   4.022  0.7589  0.6366 -0.4148
28284SOL    HW190944   5.344   6.686   4.045  0.2867  0.8058  1.4238
28284SOL    HW290945   5.210   6.744   4.004  0.3463  0.8041  1.2229
28285SOL     OW90946   3.932   0.260   2.772 -0.0252 -0.2159 -0.4624
28285SOL    HW190947   3.952   0.168   2.792 -1.3246 -0.9230 -2.1531
28285SOL    HW290948   4.017   0.299   2.752  0.4913 -1.2167 -0.3084
28286SOL     OW90949   6.576   0.285   0.271  0.6744 -0.2748 -0.1366
28286SOL    HW190950   6.484   0.281   0.297  0.3093  1.2585 -1.0833
28286SOL    HW290951   6.592   0.202   0.226 -1.0833  0.5522 -2.4780
28287SOL     OW90952   4.140   2.132   7.218  0.2320  1.0191 -0.2828
28287SOL    HW190953   4.044   2.138   7.215  0.2895  1.8905 -1.9174
28287SOL    HW290954   4.163   2.089   7.136  1.3228  2.8178 -0.9734
28288SOL     OW90955   6.762  10.398   9.386  0.2720 -0.3547 -0.7370
28288SOL    HW190956   6.676  10.398   9.342 -1.0363 -2.9282  1.4532
28288SOL    HW290957   6.752  10.333   9.456  3.6489  0.2165  0.4467
28289SOL     OW90958   2.713   8.977   4.336 -0.0307 -0.0439  0.0763
28289SOL    HW190959   2.786   8.916   4.325 -0.0605 -0.1630  0.4994
28289SOL    HW290960   2.720   9.037   4.262  0.6856  0.1403  0.2920
28290SOL     OW90961   0.488   9.940   3.254 -0.0046 -0.1191 -0.3231
28290SOL    HW190962   0.515  10.000   3.324 -1.2030  1.5749 -1.2203
28290SOL    HW290963   0.555   9.872   3.252  0.6715  0.4307  1.6726
28291SOL     OW90964   9.733   6.641   8.083  0.0385  0.1784  0.0383
28291SOL    HW190965   9.771   6.724   8.056 -0.9306  0.8268  0.5970
28291SOL    HW290966   9.649   6.637   8.038 -0.5664  0.2037  1.1244
28292SOL     OW90967   9.443   4.100   6.405 -0.2617  0.0958 -0.4977
28292SOL    HW190968   9.348   4.097   6.391 -0.2638 -0.3404 -0.4197
28292SOL    HW290969   9.463   4.018   6.450  0.1628  0.1534 -0.5751
28293SOL     OW90970   8.788   4.788   7.973 -0.3680  0.0383 -0.2342
28293SOL    HW190971   8.835   4.797   8.056 -0.7674 -0.1086  0.0103
28293SOL    HW290972   8.703   4.752   7.998 -1.1769  1.6743 -0.4850
28294SOL     OW90973   7.713   0.510   9.510  0.2299 -0.1096 -0.5308
28294SOL    HW190974   7.746   0.558   9.586  0.5423 -0.4600 -0.4387
28294SOL    HW290975   7.668   0.576   9.457  0.5571  0.2575 -0.3551
28295SOL     OW90976   2.090   5.947   2.262  0.6297  0.1597  0.1411
28295SOL    HW190977   2.012   5.949   2.205  3.2665  0.6751 -3.8765
28295SOL    HW290978   2.076   6.018   2.324 -1.1673  1.7540 -1.9221
28296SOL     OW90979   5.833   0.725   3.163  0.1137 -0.1068  0.1743
28296SOL    HW190980   5.830   0.723   3.067  0.3307 -1.7750  0.1662
28296SOL    HW290981   5.854   0.635   3.188 -2.3632 -0.3156  1.8855
28297SOL     OW90982   8.680   2.101   0.615  0.1568 -0.5713  0.3148
28297SOL    HW190983   8.755   2.090   0.673  0.8752  0.7916 -0.3004
28297SOL    HW290984   8.627   2.168   0.657 -0.1125 -0.6858  0.1614
28298SOL     OW90985   9.890   7.483   5.982 -0.7283  0.2228  0.5979
28298SOL    HW190986   9.968   7.521   6.025  0.9748 -0.6054 -1.5887
28298SOL    HW290987   9.874   7.541   5.907 -1.2723 -0.4932  0.1570
28299SOL     OW90988   2.096   3.936   9.961 -0.9469 -0.1652 -0.0424
28299SOL    HW190989   2.058   3.919  10.048 -0.7425  2.4272  0.6463
28299SOL    HW290990   2.042   4.007   9.925  1.7403  2.0669  0.0141
28300SOL     OW90991  10.150   8.056   8.015 -0.2139 -0.1900 -0.1574
28300SOL    HW190992  10.212   7.987   8.037  0.3089 -0.1867 -1.5637
28300SOL    HW290993  10.073   8.010   7.983 -0.9953 -0.1944  1.5932
28301SOL     OW90994   5.351   5.248   6.985  0.4448  0.2293  0.1438
28301SOL    HW190995   5.402   5.222   7.062 -0.4380 -0.1978  0.6097
28301SOL    HW290996   5.357   5.343   6.983  1.9038  0.1526 -0.2824
28302SOL     OW90997  10.525   2.596   3.387  0.5625  0.2680  0.1001
28302SOL    HW190998  10.441   2.574   3.346  0.6892  0.9924 -0.5702
28302SOL    HW290999  10.501   2.644   3.466  0.3256 -0.5311  0.5125
28303SOL     OW91000   1.151   9.701   7.011 -0.1291  0.5389 -0.0503
28303SOL    HW191001   1.188   9.625   7.056 -0.5185  0.0257 -0.5971
28303SOL    HW291002   1.199   9.776   7.048  0.5354 -0.0031  0.2007
28304SOL     OW91003  10.863   8.604   0.256  0.0518 -0.7180 -0.1575
28304SOL    HW191004  10.880   8.652   0.337  2.4560 -0.8523 -0.4896
28304SOL    HW291005  10.881   8.513   0.279  2.6278 -0.5585 -1.1966
28305SOL     OW91006   2.797   5.183   2.435  0.2851  0.2000  0.5754
28305SOL    HW191007   2.835   5.129   2.505 -2.0575 -1.9832  0.3313
28305SOL    HW291008   2.774   5.265   2.479  0.5128 -0.4277  1.9488
28306SOL     OW91009   1.942   9.019   3.051 -0.1646  0.7095 -0.2159
28306SOL    HW191010   1.971   8.928   3.056  1.2941  1.1526 -0.1977
28306SOL    HW291011   1.971   9.049   2.965 -0.8895  1.0808 -0.3375
28307SOL     OW91012   3.265   8.713   4.668  0.4034 -0.4887  0.1673
28307SOL    HW191013   3.271   8.719   4.573  2.5481 -1.4560  0.1773
28307SOL    HW291014   3.232   8.624   4.684  2.1727 -1.1824  0.2780
28308SOL     OW91015   9.685   2.442   7.703 -0.2947  0.0930 -0.5694
28308SOL    HW191016   9.671   2.500   7.778 -0.3591 -0.1021 -0.4300
28308SOL    HW291017   9.609   2.457   7.647 -1.1019 -0.9852  0.2008
28309SOL     OW91018   1.024   2.013   6.732 -0.4964 -0.3616  0.4762
28309SOL    HW191019   1.019   2.038   6.824 -1.1980  0.3301  0.2704
28309SOL    HW291020   1.117   2.012   6.712 -0.3786  1.2769  0.7457
28310SOL     OW91021   9.441  10.851   3.835  0.1076  0.0546  0.3452
28310SOL    HW191022   9.462  10.772   3.884  1.9935  0.1038 -0.3201
28310SOL    HW291023   9.433  10.821   3.744 -0.8351  0.3731  0.3145
28311SOL     OW91024   3.631   8.997   1.933 -0.2500  0.0299 -0.1294
28311SOL    HW191025   3.608   9.025   2.021 -0.1197  0.7803 -0.3307
28311SOL    HW291026   3.554   9.019   1.879  0.8193  2.4540 -0.7845
28312SOL     OW91027   2.735   6.112   1.167 -0.2562 -0.4821  0.7756
28312SOL    HW191028   2.755   6.022   1.144 -1.1370 -0.2476 -1.1336
28312SOL    HW291029   2.758   6.120   1.259 -0.0647 -2.6215  0.9454
28313SOL     OW91030   6.358   3.158   4.004 -0.7307  0.5570  0.5244
28313SOL    HW191031   6.448   3.166   4.036 -0.8032  0.0955  0.8573
28313SOL    HW291032   6.304   3.187   4.076 -0.8507  0.7921  0.3402
28314SOL     OW91033   2.400   0.058   8.692 -0.2073  0.5411  0.5905
28314SOL    HW191034   2.352   0.015   8.620 -0.3466  2.2784 -0.4210
28314SOL    HW291035   2.487   0.074   8.656 -0.4191  1.8414  0.5889
28315SOL     OW91036   0.151   7.687   7.096  0.4423  0.3975  0.0957
28315SOL    HW191037   0.122   7.748   7.164  1.4241 -0.8985  1.7521
28315SOL    HW291038   0.236   7.655   7.127  0.9438 -0.1992 -1.7908
28316SOL     OW91039   2.092  10.811   5.988  0.2979 -0.3133 -0.0029
28316SOL    HW191040   2.003  10.817   6.021  0.2790 -2.2017  0.3883
28316SOL    HW291041   2.132  10.741   6.039  2.1117  0.6805  0.0350
28317SOL     OW91042   3.432   2.159   2.844 -0.0200  0.1513  0.3752
28317SOL    HW191043   3.401   2.225   2.906 -3.1490 -0.7139 -0.1060
28317SOL    HW291044   3.418   2.198   2.758 -1.4107 -0.8932  0.1002
28318SOL     OW91045   9.075   1.652   1.955 -0.4339  0.3167 -0.5084
28318SOL    HW191046   9.104   1.736   1.919  1.0346  0.1765  0.2617
28318SOL    HW291047   8.993   1.633   1.909 -0.4237  1.8205 -1.2025
28319SOL     OW91048   2.951   1.364  10.751  0.1289  0.3428 -0.5726
28319SOL    HW191049   3.027   1.388  10.699 -0.3034 -1.3377 -2.0986
28319SOL    HW291050   2.885   1.430  10.730  0.1466  0.0059 -1.7729
28320SOL     OW91051   7.425   2.195   3.217  0.5794 -0.2951  0.3258
28320SOL    HW191052   7.462   2.114   3.251 -1.1130 -2.0806 -1.7451
28320SOL    HW291053   7.346   2.209   3.268 -0.6900 -1.6567 -1.1623
28321SOL     OW91054   2.454   8.973   6.058 -0.0219 -0.0645  0.3007
28321SOL    HW191055   2.529   8.947   6.004  0.6510 -0.3800  1.3669
28321SOL    HW291056   2.487   9.043   6.115 -0.3879 -0.5617  1.1432
28322SOL     OW91057   3.602   0.318   7.289 -0.3052 -0.2954  0.7152
28322SOL    HW191058   3.513   0.295   7.260 -0.4924  0.8508  0.3376
28322SOL    HW291059   3.637   0.236   7.325 -1.6283 -0.6871  1.1798
28323SOL     OW91060  10.189   3.304   0.025 -0.4019  0.3684  0.1592
28323SOL    HW191061  10.278   3.308   0.058 -0.5152  1.2947  0.3931
28323SOL    HW291062  10.198   3.305  -0.070 -0.1937  2.0521  0.1711
28324SOL     OW91063   2.563   1.974   2.161 -0.2806  0.1669 -1.0199
28324SOL    HW191064   2.576   1.889   2.120  0.3872 -0.2603  0.0428
28324SOL    HW291065   2.594   2.038   2.096  2.5618 -0.5673 -0.5143
28325SOL     OW91066   1.550   4.383   4.991  0.6246  0.1363  0.0032
28325SOL    HW191067   1.565   4.352   5.080  2.0086  0.3330 -0.1346
28325SOL    HW291068   1.622   4.344   4.940  0.7196  1.2197 -0.7282
28326SOL     OW91069   3.034   1.735   7.587 -0.2480 -0.2822 -0.1106
28326SOL    HW191070   3.087   1.757   7.664 -0.4801  1.2378 -0.3545
28326SOL    HW291071   3.048   1.807   7.526  0.5516 -1.8369 -1.8603
28327SOL     OW91072  10.678   0.022   0.616  0.8213  0.4782 -0.2603
28327SOL    HW191073  10.598   0.065   0.648 -1.1059 -2.8975 -0.0757
28327SOL    HW291074  10.745   0.047   0.679 -0.5597  1.7844  0.7830
28328SOL     OW91075  10.243   3.482   5.359 -0.7039  0.6453  0.0034
28328SOL    HW191076  10.313   3.462   5.296 -0.2161 -1.2801  1.0723
28328SOL    HW291077  10.213   3.569   5.334  1.0334  0.8994 -1.4462
28329SOL     OW91078   5.708   6.848   2.432 -0.0352 -0.3932 -0.6713
28329SOL    HW191079   5.627   6.859   2.483  0.2732  2.5233 -0.6467
28329SOL    HW291080   5.770   6.909   2.472  1.6953 -1.4226 -1.6841
28330SOL     OW91081   6.041   3.810   2.273  0.1865 -0.1949  0.4631
28330SOL    HW191082   5.975   3.742   2.283  0.2554 -0.0241  2.6206
28330SOL    HW291083   6.014   3.879   2.334  1.9290  0.1955  0.8497
28331SOL     OW91084   2.373   2.563   9.350 -0.4869 -0.3384 -0.2557
28331SOL    HW191085   2.452   2.519   9.383 -0.4343 -0.9437 -1.1316
28331SOL    HW291086   2.378   2.652   9.385  0.4364 -0.4563 -0.0609
28332SOL     OW91087   2.056   1.847   2.000 -0.2111 -0.8052 -0.2128
28332SOL    HW191088   2.126   1.814   1.943 -0.3619 -0.5153 -0.5639
28332SOL    HW291089   1.976   1.831   1.951 -0.3037 -0.1267 -0.2829
28333SOL     OW91090   4.989   3.565   5.379  0.0180 -0.3758  0.4736
28333SOL    HW191091   4.950   3.629   5.319 -0.7811 -0.1270  1.2516
28333SOL    HW291092   5.050   3.616   5.432 -0.6725 -0.2463  1.1429
28334SOL     OW91093   6.129   9.964   4.197  0.5743 -0.7309 -0.3194
28334SOL    HW191094   6.177  10.034   4.154 -0.3370  1.5269  2.0317
28334SOL    HW291095   6.069  10.009   4.257 -0.1363 -3.5280  1.2880
28335SOL     OW91096   6.968   4.957   5.635  0.2806 -0.1291  0.0109
28335SOL    HW191097   6.914   4.987   5.562 -0.8390 -0.2209  0.7711
28335SOL    HW291098   6.951   4.863   5.641  1.3307 -0.3651 -0.3700
28336SOL     OW91099   2.119   9.341   6.553  0.4156  0.2607  0.0532
28336SOL    HW191100   2.082   9.407   6.612  0.2003  0.0737  0.1298
28336SOL    HW291101   2.135   9.265   6.609 -0.8077 -0.3003 -0.3231
28337SOL     OW91102   2.213   8.869   1.828 -0.0910 -0.1442 -0.1232
28337SOL    HW191103   2.130   8.880   1.873 -1.0914 -1.7645 -1.4556
28337SOL    HW291104   2.238   8.778   1.847 -0.2007 -0.6542 -2.1874
28338SOL     OW91105   5.649   0.241   9.323 -0.2376 -0.4134  0.1474
28338SOL    HW191106   5.593   0.175   9.281 -0.7634 -0.6871  1.2353
28338SOL    HW291107   5.736   0.200   9.324 -0.2141 -0.4081 -0.6343
28339SOL     OW91108   0.406   7.602   9.135  0.4774 -0.7274  0.6593
28339SOL    HW191109   0.322   7.556   9.127 -0.1682  0.5087  0.0684
28339SOL    HW291110   0.384   7.686   9.175  1.1579  0.3210 -1.0664
28340SOL     OW91111  10.440   0.241  10.510 -0.3335 -0.4328 -0.0970
28340SOL    HW191112  10.462   0.256  10.418  0.3767  0.5719  0.2169
28340SOL    HW291113  10.503   0.174  10.539 -0.2015 -0.3528 -0.1983
28341SOL     OW91114   9.652   5.690   7.362 -0.9434 -0.2244  0.1129
28341SOL    HW191115   9.726   5.725   7.411 -1.1560  1.1488 -0.4950
28341SOL    HW291116   9.686   5.610   7.322  0.9012  1.4000 -1.8066
28342SOL     OW91117   6.322   8.940   0.310 -0.1837 -0.1033  0.1236
28342SOL    HW191118   6.302   9.031   0.331  0.2399  0.5735 -2.1602
28342SOL    HW291119   6.236   8.898   0.302 -0.4651  0.5898 -0.6845
28343SOL     OW91120   4.623   9.102   0.178 -0.2506 -0.0678  0.5382
28343SOL    HW191121   4.535   9.070   0.196 -1.5128  2.0963 -1.3006
28343SOL    HW291122   4.655   9.046   0.107 -0.0957 -0.8254  1.1780
28344SOL     OW91123   1.945   1.202   8.207 -0.0827 -0.1771  0.9989
28344SOL    HW191124   1.891   1.276   8.181 -0.6666 -0.3504  1.6854
28344SOL    HW291125   1.905   1.127   8.163 -0.2678 -0.2696  1.3198
28345SOL     OW91126   8.352   2.879   0.225  0.3527 -0.3831  0.5432
28345SOL    HW191127   8.378   2.944   0.291  1.6140  1.2622 -1.4166
28345SOL    HW291128   8.416   2.808   0.235  2.4921  1.2324 -0.7618
28346SOL     OW91129   2.378   4.661   0.703  0.4197 -0.0021  0.2024
28346SOL    HW191130   2.460   4.652   0.753 -0.0502  0.4167  1.0708
28346SOL    HW291131   2.358   4.755   0.707 -0.7182 -0.2558  1.0244
28347SOL     OW91132   4.093   4.541   6.792 -0.3209 -0.2551  0.1289
28347SOL    HW191133   4.137   4.557   6.876  3.4444  0.6877 -1.7663
28347SOL    HW291134   4.097   4.446   6.780 -2.0426 -0.5427  1.4775
28348SOL     OW91135   6.290   2.201   3.024  0.4816  0.4231  0.0687
28348SOL    HW191136   6.337   2.118   3.022 -0.1534  0.0553  0.3829
28348SOL    HW291137   6.344   2.258   3.078  1.6261  0.6503 -1.2678
28349SOL     OW91138   0.380   6.101   9.717  0.3135  0.2692  0.7228
28349SOL    HW191139   0.393   6.007   9.734  1.4698  0.1521 -0.6990
28349SOL    HW291140   0.285   6.110   9.710  0.2200 -0.9562  0.1023
28350SOL     OW91141   9.155   9.128   3.491 -0.2013  0.5769 -0.3329
28350SOL    HW191142   9.220   9.160   3.553 -0.9592 -1.1066  1.4398
28350SOL    HW291143   9.073   9.169   3.519 -0.8241 -1.3088  0.7927
28351SOL     OW91144   3.995  10.205   3.429 -0.3550 -0.3234 -0.2780
28351SOL    HW191145   4.066  10.270   3.425  0.0031 -0.7525 -0.9885
28351SOL    HW291146   3.923  10.252   3.470  0.6436 -0.1742  1.3859
28352SOL     OW91147   5.492   7.088   5.617  0.4219 -0.2033 -0.0795
28352SOL    HW191148   5.440   7.164   5.642  0.9750  0.5361 -1.1206
28352SOL    HW291149   5.433   7.035   5.563  0.5318  0.3075 -0.7105
28353SOL     OW91150   6.479  10.695   4.309  0.4647  0.1416 -0.2170
28353SOL    HW191151   6.441  10.759   4.248 -1.1736 -0.2217  0.3814
28353SOL    HW291152   6.451  10.726   4.395  2.4824  0.4643  0.3777
28354SOL     OW91153   5.391   7.923   6.096 -0.0652 -0.5001 -0.6202
28354SOL    HW191154   5.304   7.958   6.117 -0.1161 -0.5365 -0.7727
28354SOL    HW291155   5.446   7.949   6.171  0.5325  2.1821 -1.8780
28355SOL     OW91156   3.562   4.561   3.125 -0.2945 -0.0054  0.4247
28355SOL    HW191157   3.534   4.584   3.036  2.4331  1.8471 -0.0851
28355SOL    HW291158   3.484   4.573   3.179 -1.8908 -0.6959 -1.6000
28356SOL     OW91159   0.329  10.671   2.561 -0.4335 -0.0020  0.5644
28356SOL    HW191160   0.273  10.705   2.631 -1.6414 -1.3429  0.2996
28356SOL    HW291161   0.303  10.718   2.483 -0.9977 -0.4026  0.5044
28357SOL     OW91162   7.129   2.355   3.727 -0.1972  0.2705 -0.1661
28357SOL    HW191163   7.131   2.434   3.780 -1.6760  0.6608 -0.6427
28357SOL    HW291164   7.210   2.359   3.675  0.1965  0.9842  0.4792
28358SOL     OW91165   4.781   6.224   4.041 -0.0949 -0.1550 -0.5512
28358SOL    HW191166   4.742   6.177   4.115  0.3789  0.3195  0.0187
28358SOL    HW291167   4.746   6.313   4.049  1.5574  0.4658  0.3669
28359SOL     OW91168   5.348   5.523   0.855  0.0946 -0.2521  0.3131
28359SOL    HW191169   5.270   5.551   0.806  0.9010  1.1473 -0.2372
28359SOL    HW291170   5.374   5.601   0.905  0.3245 -1.1306  1.6153
28360SOL     OW91171   5.463  10.536   5.322 -0.3498  0.3266 -0.3725
28360SOL    HW191172   5.517  10.469   5.280 -0.3305  0.6627 -0.8759
28360SOL    HW291173   5.456  10.606   5.258 -1.8830  0.0365 -0.5559
28361SOL     OW91174   1.465   3.904   2.480 -0.0360 -0.1270 -0.4465
28361SOL    HW191175   1.400   3.916   2.410 -0.1258  0.9588 -0.1868
28361SOL    HW291176   1.502   3.991   2.494  1.1522 -0.6407 -0.2558
28362SOL     OW91177  10.930   4.617   7.479 -0.2941 -0.1880 -0.3343
28362SOL    HW191178  10.988   4.693   7.487  2.3114 -1.9376 -1.0170
28362SOL    HW291179  10.877   4.619   7.559  1.3578  1.0466  0.8254
28363SOL     OW91180   7.879   4.501   9.364 -0.0768  0.6004  0.5310
28363SOL    HW191181   7.839   4.566   9.423  0.2605  1.4971 -0.2004
28363SOL    HW291182   7.807   4.473   9.307  0.1669  1.8069 -0.4255
28364SOL     OW91183   7.369   7.690   3.279  0.2294 -0.4359  0.2526
28364SOL    HW191184   7.390   7.716   3.368  0.7123  1.1788 -0.2962
28364SOL    HW291185   7.449   7.650   3.246  0.7915  0.9481 -0.1328
28365SOL     OW91186   7.461   0.762   7.299  0.7709 -0.0458 -0.2723
28365SOL    HW191187   7.450   0.814   7.219 -0.3056  2.0694  1.1578
28365SOL    HW291188   7.388   0.701   7.297  0.6924  0.0563 -0.8468
28366SOL     OW91189   1.456   8.111   1.481 -0.5615 -0.3949  0.3820
28366SOL    HW191190   1.481   8.036   1.426 -0.4968 -1.1984  1.4602
28366SOL    HW291191   1.417   8.173   1.421  0.8859 -0.5830 -0.8148
28367SOL     OW91192   8.243   4.832   6.826  0.0176 -0.4802 -1.0451
28367SOL    HW191193   8.293   4.909   6.797 -1.1636  0.6236 -0.2302
28367SOL    HW291194   8.275   4.814   6.914  0.0994 -0.7638 -1.1316
28368SOL     OW91195   2.420   8.104   0.603  0.6537  0.0479 -0.0487
28368SOL    HW191196   2.425   8.018   0.645 -1.0702  0.5123  1.2433
28368SOL    HW291197   2.507   8.142   0.616  0.7660 -0.6185  1.4228
28369SOL     OW91198   5.416   5.364   8.133 -0.5075 -0.4036 -0.2796
28369SOL    HW191199   5.412   5.399   8.044 -1.4427 -1.1566 -0.5544
28369SOL    HW291200   5.412   5.269   8.122 -0.9265 -0.4953  0.5743
28370SOL     OW91201   2.050  10.237   9.377  0.1556 -0.0354 -0.2603
28370SOL    HW191202   2.003  10.252   9.295  1.6149  1.0021 -0.9602
28370SOL    HW291203   2.140  10.216   9.350 -0.1179 -3.3676  0.9720
28371SOL     OW91204   3.325   3.532   2.813  0.3577  0.5119 -0.1940
28371SOL    HW191205   3.241   3.577   2.820  0.2195  0.2343 -0.0719
28371SOL    HW291206   3.330   3.505   2.721 -0.1908 -0.4476  0.0492
28372SOL     OW91207   1.084  10.886   5.640 -0.0386  0.0654 -0.6645
28372SOL    HW191208   1.164  10.842   5.610  0.9153 -0.8588  2.8090
28372SOL    HW291209   1.116  10.961   5.691 -1.4699  0.6350 -0.5443
28373SOL     OW91210   2.339   2.729   4.956  0.5212 -0.2714  0.4606
28373SOL    HW191211   2.376   2.814   4.983  0.3040  0.2236 -0.7431
28373SOL    HW291212   2.367   2.718   4.865 -0.2975 -1.0153  0.2875
28374SOL     OW91213   9.871   8.110   7.558 -0.0474 -0.4357 -0.5764
28374SOL    HW191214   9.821   8.029   7.547  0.3299 -0.6281 -0.9119
28374SOL    HW291215   9.865   8.130   7.651 -0.6215 -0.5354 -0.5896
28375SOL     OW91216   5.614   5.522   8.264 -0.3045  0.2040 -0.1115
28375SOL    HW191217   5.552   5.471   8.212 -1.4361 -1.0023  2.2470
28375SOL    HW291218   5.560   5.563   8.331  1.2661  0.3579  1.1104
28376SOL     OW91219   3.785   6.613   9.888 -0.0359  0.0675 -0.4331
28376SOL    HW191220   3.705   6.573   9.922  0.0180 -0.8398 -1.3289
28376SOL    HW291221   3.804   6.685   9.948 -0.0032 -1.3932  1.3869
28377SOL     OW91222   4.820   5.202   9.751  0.2419  0.1063  1.5064
28377SOL    HW191223   4.856   5.113   9.743 -0.7995 -0.4119  2.3655
28377SOL    HW291224   4.732   5.196   9.713  0.0630  0.6983  1.8216
28378SOL     OW91225   4.469   7.205   3.932  0.1160  0.4741 -0.0268
28378SOL    HW191226   4.418   7.128   3.905  0.5401  0.5489 -1.0975
28378SOL    HW291227   4.543   7.169   3.980 -0.8777  0.3594  1.4846
28379SOL     OW91228   3.902   8.220   7.768 -0.3823  0.3042 -0.0250
28379SOL    HW191229   3.932   8.214   7.678 -1.2734  0.7610 -0.3692
28379SOL    HW291230   3.963   8.282   7.809 -1.7682  2.5604 -1.1593
28380SOL     OW91231   2.189   0.733   5.750 -0.4489 -0.1553  0.6572
28380SOL    HW191232   2.157   0.758   5.663  1.6067 -0.9682 -0.3966
28380SOL    HW291233   2.182   0.813   5.802 -0.4578  0.7352 -0.6586
28381SOL     OW91234   8.410   2.799   3.576 -0.0170  0.1987 -0.1033
28381SOL    HW191235   8.423   2.741   3.651  1.3843  1.9194  1.0316
28381SOL    HW291236   8.424   2.742   3.500  0.7155 -1.0986  0.9590
28382SOL     OW91237   4.069   5.653   3.706 -0.3267 -0.1047  0.2279
28382SOL    HW191238   4.055   5.563   3.678  1.3305 -0.2068 -0.4193
28382SOL    HW291239   4.005   5.668   3.775  0.3422 -2.2736  1.3865
28383SOL     OW91240   5.699   1.794   0.322  0.1584  0.2165  0.1352
28383SOL    HW191241   5.683   1.803   0.416 -2.2715  1.8702 -0.3300
28383SOL    HW291242   5.770   1.856   0.304 -1.9595  2.8635  0.3712
28384SOL     OW91243   7.155   1.389   5.226  0.1774  0.0984 -0.1668
28384SOL    HW191244   7.168   1.408   5.319  0.2322  1.4886 -0.4244
28384SOL    HW291245   7.188   1.468   5.181  0.2071 -0.5685 -1.3625
28385SOL     OW91246   1.466   2.387   3.155  0.3090  0.3640 -0.3765
28385SOL    HW191247   1.445   2.304   3.111 -2.2917  0.0343  1.2689
28385SOL    HW291248   1.447   2.370   3.247  2.1565  2.0951  0.3785
28386SOL     OW91249   9.795   5.798   9.957 -0.5965  0.2485 -0.0598
28386SOL    HW191250   9.772   5.706   9.973 -0.3124 -0.0858 -1.4716
28386SOL    HW291251   9.717   5.835   9.917 -1.2767  1.0608  1.9002
28387SOL     OW91252   7.127   3.523   2.262  0.3411 -0.3560  0.2466
28387SOL    HW191253   7.039   3.550   2.287  1.0933  0.4677  2.2809
28387SOL    HW291254   7.158   3.473   2.338  1.7637 -0.2628 -0.2526
28388SOL     OW91255   4.706   2.285   7.920  0.2089 -0.1338  0.0240
28388SOL    HW191256   4.754   2.224   7.865  0.1998 -0.5820  0.5000
28388SOL    HW291257   4.629   2.309   7.868  0.3454 -0.3312 -0.2697
28389SOL     OW91258   8.679   0.147   5.587 -0.4514  0.0338  0.1262
28389SOL    HW191259   8.660   0.238   5.610  2.8045  0.2385  2.6850
28389SOL    HW291260   8.688   0.102   5.671  0.4712 -2.0937 -1.0107
28390SOL     OW91261  10.242   7.926  10.072  0.0464 -0.0406 -0.1427
28390SOL    HW191262  10.198   7.886  10.147 -0.9458  1.5543  0.1863
28390SOL    HW291263  10.210   8.017  10.071  1.3309  0.4432 -1.4958
28391SOL     OW91264   0.348  10.651   0.347 -0.1042 -0.0361  0.0639
28391SOL    HW191265   0.310  10.609   0.270  0.4453  0.8856 -0.7327
28391SOL    HW291266   0.355  10.581   0.412 -0.0297 -0.9699 -0.9316
28392SOL     OW91267   3.915  10.127   9.906  0.0066  0.3562  0.2539
28392SOL    HW191268   3.859  10.097   9.978 -1.3082 -0.2918 -0.9802
28392SOL    HW291269   3.952  10.210   9.937 -0.1322 -0.1518  1.8552
28393SOL     OW91270  10.465   2.250  10.589  0.1957  0.0471  0.2797
28393SOL    HW191271  10.480   2.271  10.681  2.9246  0.2727 -0.1245
28393SOL    HW291272  10.379   2.287  10.569 -0.4527  0.0040  2.6967
28394SOL     OW91273   6.263   8.361   4.122  0.3672  0.3622  0.2005
28394SOL    HW191274   6.281   8.288   4.064  0.2087  1.1429 -0.8613
28394SOL    HW291275   6.192   8.409   4.079 -0.4289  0.4247  1.5314
28395SOL     OW91276   4.531  10.833   3.253  0.0210  0.3917  0.1440
28395SOL    HW191277   4.574  10.748   3.245 -0.7187 -0.1167  1.2890
28395SOL    HW291278   4.496  10.834   3.342 -0.0046  1.8933  0.1377
28396SOL     OW91279   9.454   6.494   0.366 -0.2729 -0.1214 -0.0799
28396SOL    HW191280   9.523   6.497   0.432  0.8657 -1.4105 -1.1547
28396SOL    HW291281   9.378   6.457   0.413  0.0661  0.3116  0.8422
28397SOL     OW91282   9.737   2.091   4.534 -0.1894  0.0974 -0.4233
28397SOL    HW191283   9.642   2.094   4.541 -0.2885 -1.5472 -0.6603
28397SOL    HW291284   9.758   2.150   4.461 -1.1054 -0.1509 -0.8988
28398SOL     OW91285   6.642  10.905   6.479  0.1386  0.0885  0.1144
28398SOL    HW191286   6.641  10.810   6.488  0.0717  0.0299 -0.4923
28398SOL    HW291287   6.562  10.926   6.431 -0.3590  0.5474  1.1009
28399SOL     OW91288   4.377   9.571   7.936  0.0650 -0.4936  0.3798
28399SOL    HW191289   4.316   9.626   7.887 -0.3368 -1.6914 -0.4957
28399SOL    HW291290   4.429   9.634   7.987  0.2354  0.7690 -1.2649
28400SOL     OW91291   1.150   9.804  10.068  0.0002  0.2832 -0.1123
28400SOL    HW191292   1.080   9.867  10.089  0.4568  0.5834  0.5590
28400SOL    HW291293   1.172   9.764  10.153  0.1000 -0.3807 -0.4462
28401SOL     OW91294  10.396   0.139   9.280  0.1337  0.2474 -0.3019
28401SOL    HW191295  10.309   0.145   9.320 -0.0153 -1.1671 -0.3762
28401SOL    HW291296  10.444   0.078   9.335  0.9473  0.6588 -0.5303
28402SOL     OW91297   6.191   7.610   1.879  0.3904 -0.9087 -0.1817
28402SOL    HW191298   6.231   7.622   1.794 -0.4754  0.9434 -0.3748
28402SOL    HW291299   6.261   7.629   1.942  1.1694 -2.7740 -0.4234
28403SOL     OW91300   5.220   3.027   4.548 -0.7085 -0.1047  0.6847
28403SOL    HW191301   5.187   3.114   4.527  0.9279  0.6339  1.0010
28403SOL    HW291302   5.257   2.995   4.465 -1.6952 -0.6948  0.4620
28404SOL     OW91303   7.039   6.053   9.880 -0.4256 -0.5356 -0.2534
28404SOL    HW191304   7.013   6.133   9.834  0.6888 -0.4819 -0.8356
28404SOL    HW291305   6.999   6.061   9.966  0.2874  1.0401 -0.0145
28405SOL     OW91306   6.636   2.751   4.309  0.0432  0.3674 -0.3220
28405SOL    HW191307   6.645   2.739   4.403 -0.1549  2.8530  0.0871
28405SOL    HW291308   6.724   2.741   4.274  0.6944  2.3887  0.5890
28406SOL     OW91309   2.940   2.471   5.026 -0.2408  0.5270 -0.7537
28406SOL    HW191310   2.920   2.557   4.992 -0.2207  0.6373 -0.4913
28406SOL    HW291311   2.864   2.447   5.078  0.4484  1.1258  0.5891
28407SOL     OW91312   6.864   5.132   9.468 -0.0190 -0.1487 -0.1326
28407SOL    HW191313   6.800   5.089   9.412 -0.5206  0.3917  0.0162
28407SOL    HW291314   6.823   5.215   9.493  0.9041  0.4026 -0.3766
28408SOL     OW91315   4.502   0.552   8.722  0.2898  0.1781  0.3031
28408SOL    HW191316   4.533   0.563   8.812  0.8153  0.3154  0.1098
28408SOL    HW291317   4.485   0.458   8.714 -2.4806  0.5172  1.4029
28409SOL     OW91318   6.541   1.368   0.156  0.1432 -0.3987 -0.1053
28409SOL    HW191319   6.473   1.432   0.134  0.0568  0.6975  2.9197
28409SOL    HW291320   6.619   1.399   0.111 -0.5662  0.1810 -0.9748
28410SOL     OW91321   3.070   1.193   8.070 -0.0177 -0.0480  0.1384
28410SOL    HW191322   3.102   1.233   8.152  1.1628  0.7859 -0.7012
28410SOL    HW291323   3.048   1.268   8.015  1.4828 -0.5372 -1.1808
28411SOL     OW91324   4.094   2.210   1.731 -0.1427  0.1469  0.4375
28411SOL    HW191325   4.173   2.256   1.759  0.5007 -0.7966  0.2415
28411SOL    HW291326   4.022   2.266   1.759  0.5842  0.8242  0.9933
28412SOL     OW91327   5.040   8.042   0.862 -0.1354  0.2749  0.1516
28412SOL    HW191328   4.978   7.970   0.844 -0.7489  0.7216  0.4543
28412SOL    HW291329   5.119   7.998   0.894 -0.2221 -0.3160 -0.4144
28413SOL     OW91330   6.562   4.998   9.917  0.0304 -0.1275  0.1291
28413SOL    HW191331   6.634   4.974   9.858  0.6259 -2.0316  1.5154
28413SOL    HW291332   6.605   5.014  10.001 -1.0558 -0.1483  0.7035
28414SOL     OW91333   6.832   9.211   3.673  0.0820  0.8994 -0.1845
28414SOL    HW191334   6.826   9.151   3.747 -0.9537  0.0648 -0.9056
28414SOL    HW291335   6.885   9.165   3.608 -1.9274  0.0349 -1.3323
28415SOL     OW91336   2.362   9.283   6.798  0.0775  0.5393 -0.1090
28415SOL    HW191337   2.289   9.249   6.745 -0.7186  0.1404  1.1807
28415SOL    HW291338   2.342   9.253   6.887  0.9646  1.8300  0.5533
28416SOL     OW91339   6.883   1.626   7.445 -0.4590 -0.4605 -0.4917
28416SOL    HW191340   6.974   1.643   7.421 -0.1802 -1.7380 -0.4081
28416SOL    HW291341   6.886   1.608   7.539 -0.8115 -0.4671 -0.4802
28417SOL     OW91342   1.905   9.428   0.512 -0.1024 -0.7396 -0.1316
28417SOL    HW191343   1.971   9.497   0.520 -0.7529 -0.1691  0.4367
28417SOL    HW291344   1.955   9.346   0.518  0.4238 -0.3390  1.7893
28418SOL     OW91345   7.064   9.039   2.787 -0.0186  0.0014 -0.2552
28418SOL    HW191346   7.111   9.122   2.781 -0.2857  0.1600 -0.2055
28418SOL    HW291347   6.999   9.054   2.856  0.7573 -0.6636  0.6491
28419SOL     OW91348  10.283   2.286   8.938  0.3301  0.7258  0.5624
28419SOL    HW191349  10.359   2.230   8.924 -1.0541 -0.8912 -0.7664
28419SOL    HW291350  10.264   2.323   8.852 -2.3284 -1.5473  0.0273
28420SOL     OW91351   4.103   7.053   9.705  0.5467  0.1964 -0.2346
28420SOL    HW191352   4.107   7.105   9.625 -0.4152  0.3441 -0.2010
28420SOL    HW291353   4.186   7.071   9.750  0.7337  0.7598 -0.7958
28421SOL     OW91354   2.339   1.232   6.870 -0.1895 -0.1911 -0.4757
28421SOL    HW191355   2.305   1.199   6.787  1.7665 -0.6075 -1.1650
28421SOL    HW291356   2.377   1.156   6.913  1.5509  0.5336 -0.6392
28422SOL     OW91357   9.122   7.325  10.865  0.4514  0.2327 -0.0545
28422SOL    HW191358   9.142   7.326  10.959 -0.0654 -1.1539  0.0882
28422SOL    HW291359   9.046   7.383  10.856 -0.6198 -1.0054  0.6755
28423SOL     OW91360   5.722   6.521   8.548 -0.2443  0.4530 -0.4384
28423SOL    HW191361   5.805   6.474   8.556 -0.9396 -0.6670  0.6865
28423SOL    HW291362   5.746   6.614   8.551  1.0886  0.1732 -1.7656
28424SOL     OW91363   7.885   0.788   0.904 -0.4160 -0.0322 -0.1402
28424SOL    HW191364   7.820   0.726   0.870 -0.0178 -0.6899  0.2685
28424SOL    HW291365   7.850   0.815   0.989  0.1716 -0.9306  0.4003
28425SOL     OW91366   0.684   2.407   1.795  0.7671  0.4051  0.3310
28425SOL    HW191367   0.678   2.482   1.736  1.2432 -0.1628 -0.4706
28425SOL    HW291368   0.650   2.334   1.744  0.2257  0.0898  1.1331
28426SOL     OW91369   4.209   6.449   1.370 -0.5056  0.2826  0.5944
28426SOL    HW191370   4.297   6.471   1.340 -0.7941  2.5739  1.2278
28426SOL    HW291371   4.213   6.458   1.465 -1.2693 -0.1694  0.6801
28427SOL     OW91372   4.178  10.239   1.428 -0.0206 -0.1597 -0.1569
28427SOL    HW191373   4.176  10.323   1.382 -0.5720 -0.6973 -1.1215
28427SOL    HW291374   4.258  10.244   1.481 -0.3653  1.2162  0.2850
28428SOL     OW91375   6.726   4.436   7.436 -0.4614  0.2291  0.0343
28428SOL    HW191376   6.752   4.507   7.378 -0.3220 -0.4408 -0.7381
28428SOL    HW291377   6.808   4.405   7.474 -0.5065  0.3803  0.2569
28429SOL     OW91378   0.610   7.321   0.655 -0.3251 -0.2364 -0.2269
28429SOL    HW191379   0.634   7.288   0.742 -1.7640 -0.2415  0.1867
28429SOL    HW291380   0.689   7.366   0.624  0.3293 -0.5561  0.9213
28430SOL     OW91381  10.927   7.453   1.038 -0.1141 -0.6606  0.3553
28430SOL    HW191382  10.939   7.368   0.995  1.9068  0.3885 -1.3182
28430SOL    HW291383  10.874   7.504   0.976 -0.3144 -0.3011  0.8162
28431SOL     OW91384   5.184   6.327   7.646 -0.2699  0.6757  0.0169
28431SOL    HW191385   5.220   6.392   7.586  0.2359 -0.3026 -0.7664
28431SOL    HW291386   5.183   6.371   7.731  0.2372  1.6361 -0.4532
28432SOL     OW91387   0.519  10.839   9.634 -0.4336 -0.0201 -0.4371
28432SOL    HW191388   0.610  10.809   9.635  0.0665  1.3877  0.6047
28432SOL    HW291389   0.507  10.877   9.547 -0.2329 -0.7728 -0.7979
28433SOL     OW91390   8.053   6.967   9.863 -0.3200 -0.7230 -0.2947
28433SOL    HW191391   8.122   7.016   9.909 -0.4196  0.9519 -1.8188
28433SOL    HW291392   7.972   7.000   9.902 -0.3446 -0.8259 -0.2588
28434SOL     OW91393   2.869   7.150   1.364  0.2120 -0.5728 -0.1432
28434SOL    HW191394   2.780   7.181   1.347  0.4115  1.0825  1.4854
28434SOL    HW291395   2.858   7.059   1.392 -0.9335 -0.4857 -0.2684
28435SOL     OW91396   5.394   8.923   5.833  0.0264  0.5120  0.0105
28435SOL    HW191397   5.408   8.868   5.756  1.0774 -0.4456  0.8518
28435SOL    HW291398   5.453   8.997   5.821  0.8546 -0.0873  0.2978
28436SOL     OW91399   5.375   7.407   5.554  0.1985  0.3054  0.0331
28436SOL    HW191400   5.380   7.364   5.469 -2.5322  0.4764 -0.2965
28436SOL    HW291401   5.306   7.361   5.601 -0.6401  2.3050  0.8648
28437SOL     OW91402   0.187   3.882   2.905  0.6969 -0.3498  0.2303
28437SOL    HW191403   0.141   3.833   2.973 -0.5105  0.2390 -0.1358
28437SOL    HW291404   0.235   3.815   2.855 -0.3097 -1.0640  0.2030
28438SOL     OW91405   9.670   2.597   9.586 -0.0500  0.1319 -0.2819
28438SOL    HW191406   9.609   2.569   9.654  0.1528 -0.5163 -0.3591
28438SOL    HW291407   9.705   2.680   9.618  1.4659 -1.0534  1.3678
28439SOL     OW91408   5.851   0.695  10.044  0.2315  0.2088 -0.1454
28439SOL    HW191409   5.816   0.705   9.956 -0.6915 -0.3344  0.1461
28439SOL    HW291410   5.858   0.784  10.078 -0.4881  0.3523 -0.3620
28440SOL     OW91411   3.611   1.081   6.871 -0.0463  0.0083 -0.1790
28440SOL    HW191412   3.597   1.175   6.882  1.1241  0.4705 -2.1644
28440SOL    HW291413   3.607   1.045   6.960  0.3162  2.0466  0.6991
28441SOL     OW91414   3.718  10.739   3.476 -0.3341  0.3612 -0.1471
28441SOL    HW191415   3.755  10.663   3.431 -0.6255  0.1050  0.0448
28441SOL    HW291416   3.715  10.714   3.568  0.2733  0.8873  0.0339
28442SOL     OW91417  10.686   2.451  10.693 -0.3715 -0.3545  0.0064
28442SOL    HW191418  10.623   2.424  10.760 -0.2208  1.6502  1.0540
28442SOL    HW291419  10.632   2.488  10.624 -0.4269  1.5254  0.9815
28443SOL     OW91420   1.253   6.956  10.919  0.3494  0.8094 -0.3839
28443SOL    HW191421   1.288   6.904  10.991  1.8311  0.7235 -1.1436
28443SOL    HW291422   1.222   6.892  10.855 -0.7696  0.8867  0.0484
28444SOL     OW91423   7.242   2.737   5.524  0.1963  0.0548 -0.1637
28444SOL    HW191424   7.284   2.652   5.516  0.7875  0.2742  0.4930
28444SOL    HW291425   7.315   2.800   5.522 -0.2953  0.6140 -1.5563
28445SOL     OW91426   6.700  10.841   9.333 -0.0133 -0.6867  0.2941
28445SOL    HW191427   6.748  10.908   9.380 -0.5563 -0.1480  0.0879
28445SOL    HW291428   6.611  10.875   9.326 -0.2629 -1.3629  0.0699
28446SOL     OW91429   8.739   5.323   5.638  0.0874  0.2852 -0.3390
28446SOL    HW191430   8.703   5.305   5.725 -0.8749  0.0176 -0.7809
28446SOL    HW291431   8.740   5.419   5.631 -1.3759  0.2910 -0.6484
28447SOL     OW91432  10.554   0.662   1.174 -0.3742  0.3084 -0.4823
28447SOL    HW191433  10.581   0.622   1.257 -1.4951 -1.8852 -1.0727
28447SOL    HW291434  10.501   0.737   1.200 -1.6954 -1.0099  0.8659
28448SOL     OW91435   8.475   1.130   8.913  0.2058  0.1090 -0.4755
28448SOL    HW191436   8.516   1.120   8.998  0.1998  0.8857 -0.3739
28448SOL    HW291437   8.477   1.042   8.874  2.0125  0.1268 -0.5053
28449SOL     OW91438  10.572   3.350   4.176 -0.2174  0.3222  0.1345
28449SOL    HW191439  10.659   3.344   4.217 -1.0828 -0.3807  1.9978
28449SOL    HW291440  10.571   3.437   4.136  0.7598  1.0324  1.5419
28450SOL     OW91441   4.398   3.142   1.043  0.1469  0.3992 -0.1773
28450SOL    HW191442   4.336   3.198   0.997  0.1538  0.1695 -0.4694
28450SOL    HW291443   4.344   3.076   1.086  0.1292  0.7152  0.2839
28451SOL     OW91444   2.365   6.107   7.409 -0.6291 -0.1246 -0.0443
28451SOL    HW191445   2.331   6.107   7.320 -1.4939  0.0608  0.2859
28451SOL    HW291446   2.292   6.134   7.464  0.1551  0.7054  0.6347
28452SOL     OW91447   8.280   0.568  10.158 -0.7497 -0.3366 -0.5525
28452SOL    HW191448   8.223   0.492  10.152 -0.8331 -0.1858 -2.1834
28452SOL    HW291449   8.324   0.572  10.073 -0.7970  1.4697 -0.5416
28453SOL     OW91450   4.685   4.833   6.514  0.2115  0.6030  0.0623
28453SOL    HW191451   4.721   4.797   6.432 -1.6200 -1.2641 -0.0072
28453SOL    HW291452   4.618   4.895   6.486 -0.9881 -0.6395  0.0822
28454SOL     OW91453   8.259   5.753   0.392  0.2660  0.4827 -0.2965
28454SOL    HW191454   8.324   5.823   0.383 -0.2474  1.0900  0.6132
28454SOL    HW291455   8.230   5.736   0.302 -0.5053  2.3267 -0.4307
28455SOL     OW91456   4.470   4.229   0.575 -0.1684 -0.0662  0.1893
28455SOL    HW191457   4.500   4.138   0.574 -0.1171 -0.0446 -0.3587
28455SOL    HW291458   4.533   4.274   0.631 -1.0280 -0.6440  1.6826
28456SOL     OW91459   6.015   3.744   0.069 -0.1580  0.3570  0.7982
28456SOL    HW191460   6.061   3.662   0.087  1.4257  1.4344  1.8742
28456SOL    HW291461   5.939   3.741   0.126  0.5001  0.1229  1.6887
28457SOL     OW91462   5.047   2.878   0.714 -0.5536 -0.1077 -0.1266
28457SOL    HW191463   5.065   2.813   0.782  3.3259 -0.7146 -1.5099
28457SOL    HW291464   5.079   2.960   0.752 -2.2346  0.4102  0.2683
28458SOL     OW91465   6.709   2.549   4.776  0.0684 -0.0241 -0.3721
28458SOL    HW191466   6.672   2.528   4.862  1.4696  0.5678  0.4130
28458SOL    HW291467   6.803   2.555   4.791  0.5359 -1.5068 -2.3122
28459SOL     OW91468   2.805   5.257   7.301  0.3415  0.1703  0.1680
28459SOL    HW191469   2.720   5.294   7.324  0.2791 -0.1433  0.4459
28459SOL    HW291470   2.786   5.192   7.233  0.4027  0.3657 -0.0357
28460SOL     OW91471   3.622   3.712   3.668 -0.1698  0.8966 -0.2594
28460SOL    HW191472   3.640   3.661   3.589  1.4432  0.4331  0.3634
28460SOL    HW291473   3.709   3.733   3.704 -0.8373  2.0566  0.7921
28461SOL     OW91474   8.803   6.968   2.795 -0.0970  0.3599 -0.2753
28461SOL    HW191475   8.884   6.936   2.836 -0.3242  0.0550 -0.0505
28461SOL    HW291476   8.736   6.955   2.863 -0.3807  0.3554 -0.5543
28462SOL     OW91477   1.683  10.681   4.946 -0.3116  0.0086  0.4058
28462SOL    HW191478   1.720  10.660   5.032  0.6589 -0.8031 -0.2003
28462SOL    HW291479   1.753  10.663   4.884 -0.3751  2.3007 -0.4301
28463SOL     OW91480  10.537   8.663   4.283  0.4601  0.5379 -0.3942
28463SOL    HW191481  10.584   8.622   4.355  2.7236  1.0273 -1.4887
28463SOL    HW291482  10.547   8.757   4.298  0.3397  0.6446 -0.9448
28464SOL     OW91483   0.426  10.818   0.619  0.3794 -0.0068  0.0945
28464SOL    HW191484   0.334  10.795   0.607  0.5807 -0.2676 -1.1313
28464SOL    HW291485   0.474  10.744   0.582  1.0949 -0.1196  1.2104
28465SOL     OW91486   0.800  10.607   6.737 -0.6091 -0.5309  0.4705
28465SOL    HW191487   0.857  10.545   6.783 -1.6204 -0.6226  1.6537
28465SOL    HW291488   0.723  10.555   6.712 -0.7535 -0.1125  0.0308
28466SOL     OW91489   5.331   4.177   0.207 -0.4528 -0.0898  0.2372
28466SOL    HW191490   5.356   4.110   0.144  1.4402  0.1269  0.6940
28466SOL    HW291491   5.292   4.247   0.155  0.0765 -0.3849 -0.5621
28467SOL     OW91492   9.287   5.102   6.597  0.2940  0.1415  0.6176
28467SOL    HW191493   9.206   5.068   6.560  1.1049 -0.7543 -0.3960
28467SOL    HW291494   9.259   5.155   6.672 -1.1545 -0.8440  0.8044
28468SOL     OW91495   6.829   0.586   9.950  0.4115 -0.1532  0.2056
28468SOL    HW191496   6.837   0.655   9.884  1.5712  0.9160  1.4321
28468SOL    HW291497   6.737   0.588   9.975 -0.1460 -0.8185 -1.5889
28469SOL     OW91498   8.794  10.314   1.664 -0.1198 -0.6094 -0.3376
28469SOL    HW191499   8.735  10.389   1.653 -1.0355 -1.1027  0.8865
28469SOL    HW291500   8.761  10.270   1.743  1.9875 -0.8335  0.4780
28470SOL     OW91501   5.309   4.191   2.872  0.5750  0.0386 -0.2006
28470SOL    HW191502   5.356   4.149   2.800 -0.4942  1.1084 -1.5877
28470SOL    HW291503   5.366   4.262   2.901  0.8184 -0.1278 -0.2689
28471SOL     OW91504   3.715   3.056   4.302  0.0002  0.3718 -0.2928
28471SOL    HW191505   3.696   3.001   4.226 -1.5559 -0.3370  0.5765
28471SOL    HW291506   3.630   3.090   4.329  0.3275 -0.3810  1.8814
28472SOL     OW91507   6.133   4.868   5.749 -0.2087  0.4358 -0.2465
28472SOL    HW191508   6.122   4.957   5.714  0.4190  0.2949 -0.8290
28472SOL    HW291509   6.090   4.871   5.834 -2.0937  0.6958 -1.1555
28473SOL     OW91510   0.621   1.264   0.557  0.6401 -0.4200 -0.1072
28473SOL    HW191511   0.597   1.282   0.648  0.3925  0.7392 -0.3777
28473SOL    HW291512   0.543   1.225   0.519  0.1642  0.5893 -0.2167
28474SOL     OW91513   0.046   2.574   7.928 -0.4160 -0.2426  0.0302
28474SOL    HW191514   0.135   2.607   7.918 -0.1045 -0.8920  0.5615
28474SOL    HW291515   0.032   2.570   8.023 -1.7212  1.6810 -0.0289
28475SOL     OW91516   2.740   4.007   9.117  0.3870  0.6471 -0.0198
28475SOL    HW191517   2.669   3.978   9.173  0.4449 -1.2387 -0.8613
28475SOL    HW291518   2.702   4.007   9.029  0.7823  1.9052 -0.2086
28476SOL     OW91519   7.516   2.720   2.494 -0.2028 -0.7393 -0.1647
28476SOL    HW191520   7.518   2.703   2.400 -1.4493  3.0437 -1.0325
28476SOL    HW291521   7.424   2.732   2.515  0.2901  2.5289  0.5695
28477SOL     OW91522   4.586   1.500   2.111  1.1441  0.0009 -0.3183
28477SOL    HW191523   4.513   1.556   2.138 -0.8519 -3.0855  1.1872
28477SOL    HW291524   4.645   1.559   2.064 -0.9812  3.2200  0.7302
28478SOL     OW91525   0.351   8.166   0.341  0.0692  0.0257  0.3156
28478SOL    HW191526   0.439   8.164   0.304 -0.5172 -1.4379 -1.0848
28478SOL    HW291527   0.338   8.258   0.366  1.2693  0.6708 -1.2620
28479SOL     OW91528  10.183   9.194   4.757 -0.2053 -0.1836 -0.1931
28479SOL    HW191529  10.176   9.161   4.668 -0.4062 -0.8609  0.0637
28479SOL    HW291530  10.110   9.153   4.804  1.2946 -1.7798  0.8584
28480SOL     OW91531   4.712   4.404   5.600 -0.1403 -0.4286 -0.2428
28480SOL    HW191532   4.700   4.461   5.677  0.5879 -1.1277  0.4019
28480SOL    HW291533   4.649   4.438   5.536 -0.8602  0.0890  0.7026
28481SOL     OW91534   8.604   1.692   8.936  0.4208 -0.7256  0.3375
28481SOL    HW191535   8.692   1.727   8.953 -0.5069  1.9106  0.2648
28481SOL    HW291536   8.615   1.637   8.859  1.7604  0.8806 -0.6857
28482SOL     OW91537   5.737   6.249   5.403  0.9227 -0.9710 -0.2461
28482SOL    HW191538   5.759   6.319   5.341  0.8652 -2.5608 -2.1746
28482SOL    HW291539   5.810   6.246   5.464  0.1653  1.8105  0.9226
28483SOL     OW91540   3.462   4.506   9.072 -0.4149  0.0061  0.2731
28483SOL    HW191541   3.542   4.459   9.095  0.4984  0.6515 -1.4051
28483SOL    HW291542   3.483   4.598   9.089 -1.5533  0.0182  1.7994
28484SOL     OW91543   4.510  10.195   4.541  0.0633  0.4221  0.1711
28484SOL    HW191544   4.454  10.269   4.565 -1.1152  0.0630 -1.3496
28484SOL    HW291545   4.450  10.122   4.530  1.1905 -0.7731  1.4757
28485SOL     OW91546   2.759   5.013   7.152 -0.0398 -0.4781 -0.0368
28485SOL    HW191547   2.720   4.928   7.132 -1.2478 -0.2231  1.0897
28485SOL    HW291548   2.841   5.013   7.104 -0.1264 -2.1793 -0.2671
28486SOL     OW91549   6.429   0.894   8.604  0.0762  1.0221  0.0512
28486SOL    HW191550   6.443   0.882   8.697  1.5017 -0.5324 -0.3141
28486SOL    HW291551   6.349   0.845   8.585  0.5673  0.1267  0.2419
28487SOL     OW91552   3.278   8.208   5.681 -0.0014 -0.4256  0.1240
28487SOL    HW191553   3.211   8.148   5.714 -0.4736  1.1906  2.3980
28487SOL    HW291554   3.267   8.287   5.734  2.7852  0.4236 -0.3739
28488SOL     OW91555   8.440   5.778   4.965  0.5969 -0.5280 -1.2497
28488SOL    HW191556   8.391   5.853   4.931  2.1353 -0.2448 -3.0438
28488SOL    HW291557   8.416   5.706   4.907  0.1546 -1.1005 -0.3651
28489SOL     OW91558   7.630   3.847   9.074  0.7038  0.6987 -0.3736
28489SOL    HW191559   7.702   3.884   9.125  0.0380  1.9009 -0.2523
28489SOL    HW291560   7.627   3.755   9.099  2.8565  0.3704 -1.1894
28490SOL     OW91561   5.208   4.072  10.063 -0.6488 -0.1732 -0.5846
28490SOL    HW191562   5.241   3.986  10.092  0.5792  0.9437  1.5971
28490SOL    HW291563   5.114   4.070  10.082 -0.1828 -0.1239  2.1143
28491SOL     OW91564   1.033   1.013  10.755 -0.6439  0.1879  0.0319
28491SOL    HW191565   1.110   0.959  10.737 -0.4116  0.7635 -0.7968
28491SOL    HW291566   0.975   0.956  10.804 -0.2459 -0.6971 -0.4880
28492SOL     OW91567   1.864   6.326   8.527 -0.2662  0.3789  0.1957
28492SOL    HW191568   1.886   6.376   8.606  1.4372  0.6085 -0.3633
28492SOL    HW291569   1.948   6.318   8.481 -1.1338 -0.1774 -1.3438
28493SOL     OW91570   3.110   9.665   3.620  0.1267  0.1757  0.3301
28493SOL    HW191571   3.080   9.693   3.534 -2.7085  1.4066  1.6068
28493SOL    HW291572   3.037   9.615   3.656 -0.3431  2.7486  3.3866
28494SOL     OW91573   1.530   7.914   0.761 -0.0253 -1.1454  0.4080
28494SOL    HW191574   1.536   7.901   0.666 -1.2345 -3.9351  0.5993
28494SOL    HW291575   1.448   7.961   0.774 -0.7427 -2.2676  0.1076
28495SOL     OW91576   5.814   4.173   6.231 -0.0874 -0.3080 -0.9360
28495SOL    HW191577   5.745   4.126   6.278  0.6555 -1.5323 -1.0231
28495SOL    HW291578   5.803   4.148   6.140  1.7435 -2.2911 -0.7013
28496SOL     OW91579   9.244   9.383   3.313  0.1368  0.6444 -0.0447
28496SOL    HW191580   9.271   9.291   3.321  0.7782  0.7940 -0.3967
28496SOL    HW291581   9.269   9.423   3.396  2.0213  1.0162 -0.7338
28497SOL     OW91582   9.503   7.345   9.728  0.6609  0.5085 -0.5604
28497SOL    HW191583   9.423   7.372   9.685 -0.8390 -0.7751  1.2501
28497SOL    HW291584   9.501   7.390   9.813  0.6408 -1.2776  0.4306
28498SOL     OW91585   6.451   1.896  10.431 -0.3553  0.0558  0.2249
28498SOL    HW191586   6.493   1.971  10.473 -0.8524  0.3656  0.1685
28498SOL    HW291587   6.503   1.821  10.459  0.6756  0.5065 -0.4120
28499SOL     OW91588   0.625   7.044   1.209  0.9855 -0.3745  0.5342
28499SOL    HW191589   0.554   7.107   1.194  0.6840  0.5324  4.6240
28499SOL    HW291590   0.704   7.097   1.211  1.2738 -0.7792  0.0551
28500SOL     OW91591   4.608  10.882   3.954 -0.3035 -0.0805  0.7973
28500SOL    HW191592   4.553  10.845   4.023 -0.8536 -0.8374 -0.0096
28500SOL    HW291593   4.626  10.808   3.896 -0.9401  0.7896 -0.5596
28501SOL     OW91594   7.597   9.591   6.177 -0.8527 -0.0682  0.1232
28501SOL    HW191595   7.597   9.522   6.111 -1.4281 -0.8437  0.9134
28501SOL    HW291596   7.516   9.578   6.226 -1.6227  1.9575 -0.4962
28502SOL     OW91597   4.889   7.071   6.477  0.4046 -0.3891 -0.2811
28502SOL    HW191598   4.804   7.028   6.486  0.1545  0.3853  1.5551
28502SOL    HW291599   4.897   7.125   6.556  2.0303  0.5733 -1.0464
28503SOL     OW91600   5.910   1.441   1.748 -0.3051  0.4783 -0.3286
28503SOL    HW191601   5.885   1.523   1.705 -1.9569  0.3991  0.4084
28503SOL    HW291602   5.899   1.459   1.841  2.0897  0.2766  0.0619
28504SOL     OW91603   6.126   0.470   8.864 -0.0320  0.0325  0.3900
28504SOL    HW191604   6.192   0.422   8.813  0.9609  2.8169 -1.1572
28504SOL    HW291605   6.167   0.554   8.883 -2.3311  1.0116  1.3771
28505SOL     OW91606   4.100   5.807   6.755 -0.2620 -0.6666 -0.5198
28505SOL    HW191607   4.108   5.829   6.848 -1.2209 -2.8165  0.1407
28505SOL    HW291608   4.179   5.756   6.735  1.0710  1.6597 -1.5531
28506SOL     OW91609   8.731   9.504   5.402  0.2798  0.3880  0.1533
28506SOL    HW191610   8.653   9.515   5.348  0.1214 -0.1551  0.2650
28506SOL    HW291611   8.703   9.447   5.473  0.8771 -0.1334 -0.0165
28507SOL     OW91612  10.057   5.036   5.983 -0.3143  0.4496  0.0900
28507SOL    HW191613  10.003   4.958   5.999 -0.3203 -0.5437 -3.8819
28507SOL    HW291614  10.026   5.070   5.899  2.4831  2.3167 -0.3089
28508SOL     OW91615   5.989   2.978   7.909 -0.4840 -0.1026 -0.1136
28508SOL    HW191616   5.961   3.048   7.850 -2.9166 -0.9034 -0.0025
28508SOL    HW291617   6.037   3.023   7.978 -0.2279  1.1994 -1.0988
28509SOL     OW91618   7.129   7.242   8.985 -0.2564  0.1381 -0.0146
28509SOL    HW191619   7.132   7.171   8.921 -2.3226 -0.3226  0.3325
28509SOL    HW291620   7.052   7.293   8.961  2.1769  3.5302 -1.4412
28510SOL     OW91621   4.750   2.611   0.968 -0.3791  0.2379 -0.1267
28510SOL    HW191622   4.739   2.552   0.893  0.1807  0.3507 -0.2991
28510SOL    HW291623   4.664   2.653   0.977 -1.7569 -2.6180  1.7762
28511SOL     OW91624   3.103   5.610   1.264 -0.1508 -0.0589 -0.1780
28511SOL    HW191625   3.100   5.695   1.220  0.7599  0.0786  0.0061
28511SOL    HW291626   3.156   5.626   1.342 -0.2752 -0.7205  0.0456
28512SOL     OW91627   1.651   7.694   8.870 -0.0374  0.1774  0.1678
28512SOL    HW191628   1.658   7.603   8.899 -0.0481 -0.5348 -1.9058
28512SOL    HW291629   1.658   7.689   8.775  0.8630  2.4525  0.0620
28513SOL     OW91630   1.284   2.835   1.092  0.7429 -0.1189  0.1268
28513SOL    HW191631   1.355   2.773   1.074  0.0390 -0.3015 -2.3761
28513SOL    HW291632   1.251   2.859   1.006 -1.0951  1.3270  1.1656
28514SOL     OW91633  10.472  10.227   7.567  0.0706  0.5075  0.4130
28514SOL    HW191634  10.501  10.143   7.531 -0.0535  0.6655 -0.0573
28514SOL    HW291635  10.544  10.287   7.549 -0.9051  1.1396 -1.6305
28515SOL     OW91636  10.915   2.077   7.498  0.2723 -0.5580  0.2081
28515SOL    HW191637  10.893   1.983   7.501  0.4330 -0.6535 -0.9798
28515SOL    HW291638  10.831   2.120   7.483  0.5155 -0.7516 -2.0517
28516SOL     OW91639   5.428   1.789   0.929  0.1653  0.3198 -0.6044
28516SOL    HW191640   5.480   1.730   0.983 -0.4930 -0.5555 -0.9117
28516SOL    HW291641   5.357   1.818   0.986 -0.3745 -0.3902 -0.9025
28517SOL     OW91642   3.067   9.053   1.151 -0.7762 -0.0990 -0.5939
28517SOL    HW191643   3.042   9.131   1.200 -1.8442  0.4350 -1.9266
28517SOL    HW291644   2.987   9.025   1.107  0.0842 -0.6626 -1.8662
28518SOL     OW91645   2.683   3.707   8.748 -0.0054 -0.6248  0.8681
28518SOL    HW191646   2.714   3.686   8.660  1.4949 -0.0427  1.2166
28518SOL    HW291647   2.686   3.624   8.795  0.5489 -0.6879  0.7330
28519SOL     OW91648   2.011   4.122   1.718  0.3536 -0.3295  0.1281
28519SOL    HW191649   2.031   4.058   1.650 -1.2084 -0.7451  0.0232
28519SOL    HW291650   1.945   4.079   1.773  0.4207  0.6038  0.9641
28520SOL     OW91651   4.248   0.979   8.756 -0.1812 -0.0606 -0.6222
28520SOL    HW191652   4.211   0.894   8.778 -0.8707  0.2471 -0.5535
28520SOL    HW291653   4.200   1.006   8.677 -0.6004  0.6473 -0.1367
28521SOL     OW91654   4.051   7.737   6.455 -0.7294 -0.9318  0.8888
28521SOL    HW191655   3.992   7.692   6.394  0.2569 -0.0222 -0.8217
28521SOL    HW291656   4.051   7.828   6.426  1.0495 -0.7899  1.1947
28522SOL     OW91657   4.127   0.630   7.573  0.3046 -0.1312 -0.0548
28522SOL    HW191658   4.187   0.682   7.626  1.2866 -1.1130 -0.1690
28522SOL    HW291659   4.123   0.676   7.489  0.2211  0.4024  0.2396
28523SOL     OW91660   5.404   1.112   8.522  0.2935 -0.0702  0.1083
28523SOL    HW191661   5.444   1.075   8.600 -1.8103 -2.1730  0.2834
28523SOL    HW291662   5.332   1.165   8.555  1.7028  2.2651 -0.2973
28524SOL     OW91663   6.920   1.458   2.049 -0.1806 -0.6556  0.0531
28524SOL    HW191664   6.927   1.524   2.118 -1.8111 -0.7862  0.3722
28524SOL    HW291665   6.975   1.492   1.978 -0.2570  0.5822  0.5614
28525SOL     OW91666   2.844   1.136  10.660 -0.2347 -0.0055  0.7320
28525SOL    HW191667   2.904   1.089  10.601 -0.9402  1.2588 -1.0796
28525SOL    HW291668   2.896   1.208  10.695 -0.2462  0.1387  0.4513
28526SOL     OW91669   0.531   0.742   1.641  0.3982  0.2883 -0.1348
28526SOL    HW191670   0.471   0.799   1.593 -0.5178 -0.1759  0.4312
28526SOL    HW291671   0.610   0.795   1.653 -0.0972  1.1088 -0.4142
28527SOL     OW91672   3.787   0.483   4.511  0.7412 -0.0045 -0.1212
28527SOL    HW191673   3.792   0.473   4.606  1.2906 -2.4780 -0.3261
28527SOL    HW291674   3.878   0.493   4.483  0.5821  0.7352 -0.3972
28528SOL     OW91675   6.777  10.648   0.235 -0.2913  0.2267 -0.2497
28528SOL    HW191676   6.705  10.589   0.212 -0.7514  0.5400  0.3457
28528SOL    HW291677   6.838  10.593   0.284  0.4901 -0.3392 -1.7924
28529SOL     OW91678   6.434   3.350   8.607  0.1568  0.5621  0.1366
28529SOL    HW191679   6.460   3.261   8.582  0.3924  0.2550  1.3897
28529SOL    HW291680   6.417   3.394   8.524 -1.4326 -1.0740 -0.4665
28530SOL     OW91681   5.532   2.417   0.619  0.6275  0.2804  0.0560
28530SOL    HW191682   5.500   2.491   0.569 -1.9184 -1.1817 -0.6379
28530SOL    HW291683   5.478   2.416   0.698  0.8972 -0.5985  0.2435
28531SOL     OW91684   1.252   4.864  10.110  0.0354  0.3473  0.0781
28531SOL    HW191685   1.187   4.888  10.176  0.5390  0.7173  0.4504
28531SOL    HW291686   1.334   4.859  10.159  0.2951 -0.1003 -0.3878
28532SOL     OW91687   8.821   2.802   9.113  0.5748  0.0367  0.2160
28532SOL    HW191688   8.899   2.774   9.064 -0.2942 -1.6126 -0.2714
28532SOL    HW291689   8.856   2.839   9.194  1.8860 -0.1455 -0.2420
28533SOL     OW91690   3.041   2.124   0.030 -0.0938  0.0432 -0.4977
28533SOL    HW191691   3.113   2.072  -0.007  0.0259  0.5918 -1.0603
28533SOL    HW291692   3.075   2.155   0.114 -0.8482 -2.3152  0.7892
28534SOL     OW91693   9.422   3.274   8.410  0.5783  0.3788  0.1178
28534SOL    HW191694   9.347   3.289   8.353  0.4310 -1.4391 -0.2419
28534SOL    HW291695   9.413   3.182   8.437  2.2477  0.3594  0.7035
28535SOL     OW91696   5.553   3.259   7.449  0.2591 -0.3869 -0.3886
28535SOL    HW191697   5.465   3.272   7.414  0.3012  0.0912 -0.3157
28535SOL    HW291698   5.592   3.346   7.451  0.8777 -0.6471 -0.7886
28536SOL     OW91699   2.921   5.535   3.703 -0.1848  0.0579 -0.2020
28536SOL    HW191700   2.958   5.449   3.720 -1.2557 -0.5120 -0.6342
28536SOL    HW291701   2.860   5.521   3.630 -0.6346  1.1064 -0.0511
28537SOL     OW91702   5.709   3.256   3.931 -0.1442 -0.4102  0.1858
28537SOL    HW191703   5.772   3.328   3.924 -0.1344 -0.4756 -0.4356
28537SOL    HW291704   5.666   3.270   4.015  0.9459 -0.5651  0.7802
28538SOL     OW91705   1.235   5.549   5.689  0.0849 -0.2134 -0.5250
28538SOL    HW191706   1.154   5.500   5.704  0.1156 -0.1083  0.0008
28538SOL    HW291707   1.302   5.500   5.737  0.0376  0.5649  0.3605
28539SOL     OW91708   7.920  10.525   0.885 -0.2532  0.0533  0.1944
28539SOL    HW191709   7.845  10.531   0.944 -2.1411 -0.0970 -2.0389
28539SOL    HW291710   7.941  10.431   0.882  0.6440  0.1836  1.4685
28540SOL     OW91711   7.747   1.387   7.617 -0.1837  0.3273  0.3617
28540SOL    HW191712   7.787   1.463   7.576  0.0688 -0.0384 -0.0863
28540SOL    HW291713   7.785   1.384   7.704  2.1691 -0.9983 -0.6022
28541SOL     OW91714   7.706   1.692  10.074 -0.4174  0.4609 -0.0337
28541SOL    HW191715   7.721   1.746  10.152  1.4898 -0.5645  0.3484
28541SOL    HW291716   7.788   1.696  10.025  0.4807 -3.3395  0.8326
28542SOL     OW91717   9.363   2.336   1.736  0.2414 -0.1670 -0.0944
28542SOL    HW191718   9.383   2.429   1.740  0.2953 -0.2141  1.0286
28542SOL    HW291719   9.352   2.309   1.827 -0.2437 -1.1603 -0.4254
28543SOL     OW91720   4.485   8.320   7.165  0.5222  0.0203 -0.0736
28543SOL    HW191721   4.467   8.400   7.116  1.7120 -0.2973 -1.0853
28543SOL    HW291722   4.454   8.249   7.108  0.5936 -0.3042  0.2818
28544SOL     OW91723   9.648   7.032   0.833 -0.0957  0.1100  0.3607
28544SOL    HW191724   9.735   7.004   0.861 -0.7386 -0.8692  1.4575
28544SOL    HW291725   9.607   6.953   0.799 -0.3256  0.7136 -0.7993
28545SOL     OW91726  10.770   3.987   1.799  0.5732 -0.2111  0.3553
28545SOL    HW191727  10.825   4.064   1.780 -0.2160  0.0584 -0.9482
28545SOL    HW291728  10.734   3.962   1.714 -2.3511  0.4168  1.3012
28546SOL     OW91729   8.385  10.140   5.722 -0.0458 -0.1191 -0.2633
28546SOL    HW191730   8.384  10.202   5.650  0.0884 -0.0833 -0.2350
28546SOL    HW291731   8.476  10.110   5.726 -0.3269 -1.1050 -0.9487
28547SOL     OW91732   1.011   2.118   4.479 -0.0362  0.3222  0.1948
28547SOL    HW191733   0.940   2.067   4.438  1.4006 -0.1868 -1.8005
28547SOL    HW291734   1.032   2.069   4.558  0.1812 -1.3086 -0.8272
28548SOL     OW91735   3.719   0.860   2.362  0.2567  0.3232  0.0746
28548SOL    HW191736   3.749   0.930   2.304  2.9165 -0.4681  0.3559
28548SOL    HW291737   3.705   0.902   2.447  1.2160  0.6495  0.0771
28549SOL     OW91738   7.442   0.733   7.925  0.7522  0.3516  0.1471
28549SOL    HW191739   7.429   0.813   7.876  0.0337 -0.6679 -1.3916
28549SOL    HW291740   7.354   0.697   7.936  0.8383  0.7029  2.5297
28550SOL     OW91741   9.850   7.896   5.280  0.1446  0.8974 -0.0419
28550SOL    HW191742   9.768   7.856   5.252  0.2758  1.0409 -0.6610
28550SOL    HW291743   9.886   7.935   5.200  1.8602 -0.9689 -0.2472
28551SOL     OW91744   1.118   3.149   6.023  0.0289 -0.2878  0.2120
28551SOL    HW191745   1.032   3.188   6.005  0.3981  1.5903  2.1334
28551SOL    HW291746   1.165   3.157   5.940 -0.6479  1.5035 -0.0564
28552SOL     OW91747   7.575   1.174   9.972  0.1980 -0.3797 -0.0772
28552SOL    HW191748   7.629   1.103  10.006  0.5543  0.3551  0.9362
28552SOL    HW291749   7.568   1.236  10.044 -1.0261  0.1063 -0.5776
28553SOL     OW91750   3.148   1.890  10.740 -0.2702  0.5033  0.0736
28553SOL    HW191751   3.109   1.847  10.664 -1.8547  1.2219  0.4361
28553SOL    HW291752   3.128   1.831  10.813  0.5497  0.2044  0.0665
28554SOL     OW91753   2.004   1.727   6.497  0.2162 -0.1177  0.1460
28554SOL    HW191754   2.071   1.658   6.502  0.9860  0.7045  2.8538
28554SOL    HW291755   1.952   1.716   6.577 -2.7361 -0.4614 -1.6549
28555SOL     OW91756   4.697   6.809   8.389  0.1902  0.4345 -0.0076
28555SOL    HW191757   4.712   6.755   8.467 -0.8002  0.1238 -0.0091
28555SOL    HW291758   4.746   6.765   8.319  1.9798  1.3241  0.6479
28556SOL     OW91759   9.003   3.799   0.096  0.1848  0.0907 -0.2450
28556SOL    HW191760   8.961   3.803   0.182 -0.2377 -2.5846 -0.2494
28556SOL    HW291761   9.086   3.753   0.112 -0.0446 -0.7173 -1.3081
28557SOL     OW91762   9.906   7.854   0.027 -0.1458 -0.2678 -0.1737
28557SOL    HW191763   9.933   7.944   0.040 -1.3295  0.0152  0.5116
28557SOL    HW291764   9.844   7.859  -0.046 -0.7860 -0.4009  0.3537
28558SOL     OW91765   3.368   5.471   1.655 -0.9227 -0.6398  0.5115
28558SOL    HW191766   3.370   5.466   1.750 -0.3412  0.4303  0.5758
28558SOL    HW291767   3.408   5.389   1.625  0.4147 -0.2895  1.2310
28559SOL     OW91768   5.154   7.214   1.975  0.4711  0.0409  0.4221
28559SOL    HW191769   5.079   7.233   2.032 -0.0787  1.3270 -0.6843
28559SOL    HW291770   5.167   7.120   1.983 -2.3985 -0.5382 -0.6692
28560SOL     OW91771   2.755  10.655   2.341  0.6963  0.2162 -0.4152
28560SOL    HW191772   2.818  10.591   2.376 -0.9386 -1.1796  0.1032
28560SOL    HW291773   2.795  10.686   2.260  1.6399 -1.3159 -0.5788
28561SOL     OW91774   9.222   4.847   9.157  0.3386 -0.2821  0.1536
28561SOL    HW191775   9.248   4.780   9.221  0.7960 -1.4328 -1.1703
28561SOL    HW291776   9.293   4.911   9.160  1.1281 -1.1044 -0.2326
28562SOL     OW91777   5.636   9.694   1.079  0.1441  0.0937  0.4645
28562SOL    HW191778   5.702   9.690   1.148  2.3441 -2.0647 -1.5456
28562SOL    HW291779   5.595   9.779   1.089  1.6531  0.5868  3.2496
28563SOL     OW91780   1.255  10.024   1.169 -0.1571 -0.0384  0.3039
28563SOL    HW191781   1.255   9.929   1.157  0.0959 -0.2214  1.5967
28563SOL    HW291782   1.215  10.038   1.255  1.4136  0.9034  0.9197
28564SOL     OW91783   1.391   8.470   5.967  0.5997 -0.6452  0.6901
28564SOL    HW191784   1.418   8.548   6.015 -0.5016 -0.0559  0.3857
28564SOL    HW291785   1.337   8.421   6.028 -0.3266 -0.1836  0.2560
28565SOL     OW91786   0.212   0.390   9.312 -0.2565  0.1147  0.0219
28565SOL    HW191787   0.257   0.324   9.259 -0.3275 -0.8410  1.1263
28565SOL    HW291788   0.130   0.406   9.266  0.4393  0.6283 -1.0992
28566SOL     OW91789   8.893   3.897   5.650 -0.0771 -0.2802  0.0414
28566SOL    HW191790   8.880   3.827   5.714 -0.3704  0.1629  0.4760
28566SOL    HW291791   8.819   3.888   5.589 -0.7035  0.2769  0.6932
28567SOL     OW91792   5.795   6.067   2.603  0.3189 -0.1369  0.0991
28567SOL    HW191793   5.765   6.038   2.689 -1.4251 -0.3561 -0.5377
28567SOL    HW291794   5.750   6.009   2.541  1.9981 -0.3819 -0.9670
28568SOL     OW91795   3.344   3.367   6.326 -0.1372 -0.0122 -0.4422
28568SOL    HW191796   3.286   3.296   6.354 -0.9728  0.6434 -0.4829
28568SOL    HW291797   3.414   3.368   6.391 -0.1449 -0.8322 -0.4105
28569SOL     OW91798   6.113   5.810   7.789 -0.4166 -0.3729  0.0051
28569SOL    HW191799   6.020   5.810   7.767 -0.3171 -1.8926 -0.4867
28569SOL    HW291800   6.150   5.882   7.738 -1.1407 -0.4314 -0.6113
28570SOL     OW91801   4.289   5.700   6.230 -0.5513  0.0272  0.0713
28570SOL    HW191802   4.290   5.794   6.247 -1.6712 -0.2297  1.7075
28570SOL    HW291803   4.196   5.678   6.225 -0.3462 -1.2887  1.5607
28571SOL     OW91804   3.464   1.106  10.257  0.2858 -0.2712 -0.1992
28571SOL    HW191805   3.401   1.159  10.306 -0.2228 -0.5964 -0.4833
28571SOL    HW291806   3.409   1.050  10.202  0.8506  1.1070 -2.2593
28572SOL     OW91807   0.740   5.233   5.864 -0.2210 -0.6351  0.1902
28572SOL    HW191808   0.713   5.312   5.817 -0.4197  0.0598  1.4253
28572SOL    HW291809   0.746   5.260   5.955 -2.0488 -2.4670  0.9389
28573SOL     OW91810  10.029   4.576   5.782 -0.1652  0.3812  0.8821
28573SOL    HW191811   9.945   4.609   5.815 -1.1950  0.4335 -1.5548
28573SOL    HW291812  10.026   4.482   5.798 -0.1972  0.5347  1.8049
28574SOL     OW91813   6.649   0.584   5.665  0.5995  0.4663  0.0790
28574SOL    HW191814   6.713   0.527   5.707 -0.3476  1.2991  2.9111
28574SOL    HW291815   6.697   0.663   5.643  1.4920 -0.5950 -2.1766
28575SOL     OW91816  10.427   5.710   7.182  0.4009  0.0596 -0.1089
28575SOL    HW191817  10.504   5.707   7.126 -1.6728  0.9735 -3.2181
28575SOL    HW291818  10.402   5.802   7.186 -1.3914 -0.3697 -0.4756
28576SOL     OW91819   2.306   0.887   4.296 -0.4639  0.2954  0.3244
28576SOL    HW191820   2.278   0.807   4.252  2.1617 -0.4370 -0.2159
28576SOL    HW291821   2.239   0.904   4.362 -0.9401 -2.5699  0.6759
28577SOL     OW91822   7.772   9.266   4.993 -0.8392  0.2499  1.2062
28577SOL    HW191823   7.817   9.350   5.003 -2.4636  1.0004  2.8840
28577SOL    HW291824   7.842   9.201   4.995  0.3426  1.4747  1.3745
28578SOL     OW91825   4.078   1.786   9.376 -0.0159 -0.0471  0.5603
28578SOL    HW191826   3.988   1.817   9.368  0.0911  1.3826  3.5368
28578SOL    HW291827   4.126   1.863   9.407  2.4403 -0.5811 -1.5990
28579SOL     OW91828   6.831   9.539   1.294 -0.4210 -0.6789  0.0124
28579SOL    HW191829   6.787   9.523   1.378 -0.3225 -0.4970  0.0974
28579SOL    HW291830   6.791   9.619   1.260  0.1781 -0.2503  0.3143
28580SOL     OW91831   7.072   0.904   6.441  0.7352  0.8983 -0.6790
28580SOL    HW191832   7.149   0.955   6.418  0.0828  0.7172 -3.6381
28580SOL    HW291833   6.999   0.966   6.434  0.1968  0.1618 -1.9863
28581SOL     OW91834   2.961   3.792   5.577 -0.2955 -1.1266 -0.0803
28581SOL    HW191835   2.878   3.802   5.531 -0.7103  0.3980  0.9461
28581SOL    HW291836   3.027   3.792   5.507 -1.0634 -1.3235 -0.8246
28582SOL     OW91837   6.585  10.662   1.602 -0.0488 -0.4631 -0.3643
28582SOL    HW191838   6.515  10.661   1.667 -0.1713  0.1340 -0.4834
28582SOL    HW291839   6.630  10.578   1.614  0.5667  0.0398  1.1796
28583SOL     OW91840   4.447   4.859   4.766 -0.0697 -0.3980  0.7299
28583SOL    HW191841   4.526   4.854   4.819 -0.0160 -0.1767  0.6741
28583SOL    HW291842   4.476   4.897   4.683 -0.3762  0.4878  1.0155
28584SOL     OW91843   6.669   0.917   0.222 -0.0477  0.1095 -0.4553
28584SOL    HW191844   6.675   0.994   0.165 -0.5092 -0.1890 -0.9156
28584SOL    HW291845   6.760   0.897   0.245  0.3535 -0.9354 -2.6724
28585SOL     OW91846   3.347   1.057   6.766 -0.4801  1.2281  0.3533
28585SOL    HW191847   3.418   1.120   6.772 -1.0146  1.7142  2.2411
28585SOL    HW291848   3.302   1.063   6.850 -1.4710 -0.5850  0.0153
28586SOL     OW91849   4.536   6.140   2.166  0.4958 -0.2891  0.3029
28586SOL    HW191850   4.528   6.049   2.137  0.4469  0.3207 -1.7728
28586SOL    HW291851   4.447   6.175   2.162  0.2965 -0.4488  2.3342
28587SOL     OW91852   0.821   8.943   4.909  0.2408  0.1240  0.3408
28587SOL    HW191853   0.910   8.921   4.882 -0.1995 -1.4354  0.0650
28587SOL    HW291854   0.765   8.896   4.848 -0.7765  0.3896  1.0459
28588SOL     OW91855   9.983   6.696   0.705  0.0607 -0.8895  0.0242
28588SOL    HW191856   9.968   6.614   0.657 -0.5830  0.6286 -2.5289
28588SOL    HW291857   9.897   6.718   0.741 -0.2939 -0.2599 -1.1583
28589SOL     OW91858   7.741   4.797   5.815 -0.3145 -0.1895 -0.4268
28589SOL    HW191859   7.668   4.827   5.761 -0.5313 -2.7049 -1.6851
28589SOL    HW291860   7.712   4.813   5.905 -1.0659  1.6598 -0.9356
28590SOL     OW91861   7.820   8.232   6.930  0.3282 -0.0425  0.5075
28590SOL    HW191862   7.822   8.326   6.913  0.6205 -0.0896  0.2643
28590SOL    HW291863   7.732   8.204   6.907  0.1821  0.2052  0.7661
28591SOL     OW91864   9.853   6.432   8.211 -0.4759  0.6126  0.4435
28591SOL    HW191865   9.829   6.433   8.304  1.6072  0.5029  1.0236
28591SOL    HW291866   9.802   6.503   8.173 -2.0549  0.0877  1.4647
28592SOL     OW91867   6.857   5.636   4.089  0.1210  0.0028 -0.2508
28592SOL    HW191868   6.869   5.549   4.126 -0.2681 -0.8129 -1.9236
28592SOL    HW291869   6.930   5.688   4.124  2.5222 -1.9671 -1.9367
28593SOL     OW91870   6.862   8.626   6.592  0.2172 -0.1449  0.3780
28593SOL    HW191871   6.792   8.687   6.569 -0.5982 -2.1745 -3.5548
28593SOL    HW291872   6.816   8.546   6.619  1.0747 -0.5597  0.6287
28594SOL     OW91873   1.847   4.858  10.027 -0.4961 -0.0720 -0.4570
28594SOL    HW191874   1.906   4.889   9.959  0.4494 -1.7635 -0.4624
28594SOL    HW291875   1.887   4.888  10.109  0.4132 -1.2051 -0.4610
28595SOL     OW91876   0.129   5.026   0.958 -0.3781  0.1546 -0.7177
28595SOL    HW191877   0.072   4.977   1.017  0.1095 -0.7430 -0.9880
28595SOL    HW291878   0.164   5.097   1.013 -3.4667  2.1762 -1.0820
28596SOL     OW91879   2.800   7.342   4.541 -0.1198  0.3162 -0.5748
28596SOL    HW191880   2.841   7.287   4.609 -1.1068 -0.3369 -0.4975
28596SOL    HW291881   2.871   7.360   4.479  1.1943  2.0488  1.2734
28597SOL     OW91882   2.638   7.690   9.470 -0.2705  0.1146 -0.0586
28597SOL    HW191883   2.552   7.674   9.430  0.0444  0.2084 -0.8025
28597SOL    HW291884   2.622   7.760   9.534 -0.5954  0.7623 -0.8194
28598SOL     OW91885   5.974   1.614   7.088 -0.1606  0.1839  0.4609
28598SOL    HW191886   5.987   1.687   7.149 -0.5189  0.6657 -0.0265
28598SOL    HW291887   6.016   1.540   7.130 -0.3385  0.5257  1.2638
28599SOL     OW91888   5.354   2.767   2.932 -0.3338 -0.5049 -0.3858
28599SOL    HW191889   5.372   2.678   2.961  1.3716 -0.7921 -2.1081
28599SOL    HW291890   5.259   2.775   2.934 -0.4581 -1.8645  1.1424
28600SOL     OW91891   8.454   0.996   1.191  0.0969 -0.4102 -0.0321
28600SOL    HW191892   8.414   0.965   1.272  1.7355 -1.1459  0.5441
28600SOL    HW291893   8.484   0.916   1.147  0.2603  0.0631 -0.8078
28601SOL     OW91894   0.989   8.443   7.796  0.1279  0.2851  0.7046
28601SOL    HW191895   0.964   8.456   7.705  2.1884  1.0427  0.1872
28601SOL    HW291896   1.023   8.528   7.824  1.1013 -0.3862  1.6314
28602SOL     OW91897   0.266  10.607   5.630  0.4119 -0.1362 -0.0285
28602SOL    HW191898   0.313  10.668   5.573 -1.3950  1.5900  0.2446
28602SOL    HW291899   0.293  10.633   5.718  3.6038 -3.1230  0.1018
28603SOL     OW91900   4.450   5.382   2.741 -0.4928 -0.0693  0.1723
28603SOL    HW191901   4.362   5.390   2.703 -1.7106  2.0619  3.0503
28603SOL    HW291902   4.441   5.315   2.808  0.0554  0.2128  0.5345
28604SOL     OW91903   0.715   8.722  10.554 -0.3146  0.3201 -0.2517
28604SOL    HW191904   0.711   8.646  10.612 -0.7846  0.4093 -0.1627
28604SOL    HW291905   0.632   8.721  10.507 -1.2124  1.8780  1.1733
28605SOL     OW91906  10.110   8.015   4.953  0.4885 -1.0408  0.2125
28605SOL    HW191907  10.080   8.021   4.862 -0.7415 -0.0357  0.6620
28605SOL    HW291908  10.033   8.036   5.005  1.3219 -1.0519  1.4779
28606SOL     OW91909   6.037   8.384   3.933 -0.9746  0.2364  0.0194
28606SOL    HW191910   6.001   8.472   3.923 -3.4665 -0.9241 -2.6069
28606SOL    HW291911   6.091   8.371   3.855  0.5922 -0.1250  1.1002
28607SOL     OW91912   9.508   3.073   0.285 -0.0063 -0.0158  0.1602
28607SOL    HW191913   9.472   2.984   0.290 -0.9819  0.3022 -0.7472
28607SOL    HW291914   9.585   3.065   0.229  0.3512 -0.4091  0.6983
28608SOL     OW91915   2.618   1.780   8.981 -0.1314 -0.4145  0.2342
28608SOL    HW191916   2.658   1.840   8.918 -2.2495 -0.4596 -1.2589
28608SOL    HW291917   2.675   1.703   8.980  1.3225  0.6136  0.3985
28609SOL     OW91918   1.783   0.616   1.391  0.2947 -0.1029 -0.4385
28609SOL    HW191919   1.863   0.615   1.443  0.1521  0.0819 -0.2167
28609SOL    HW291920   1.806   0.668   1.313  0.4095 -0.1018 -0.4042
28610SOL     OW91921  10.175   8.776   7.190  0.9817  0.0538 -0.3631
28610SOL    HW191922  10.180   8.690   7.148 -1.6289 -1.5531  2.2273
28610SOL    HW291923  10.161   8.757   7.282 -0.8883  3.2205  0.1629
28611SOL     OW91924   4.082   9.283   3.322 -0.2050  0.5156  0.1705
28611SOL    HW191925   4.125   9.261   3.405 -0.3915 -0.9639 -0.0940
28611SOL    HW291926   4.144   9.253   3.255 -1.1931 -0.7585 -0.2110
28612SOL     OW91927   2.900   4.215   6.314 -0.1156  0.3251 -0.6484
28612SOL    HW191928   2.846   4.282   6.274  0.4055  2.7236  2.2885
28612SOL    HW291929   2.979   4.212   6.260 -0.1169  2.2061 -0.8176
28613SOL     OW91930   5.223   4.934   6.394 -0.0413 -0.1415  0.4931
28613SOL    HW191931   5.135   4.905   6.416  0.6312 -1.4042  1.6622
28613SOL    HW291932   5.275   4.915   6.472  1.9052 -2.1848 -1.1644
28614SOL     OW91933  10.496   6.979   4.881 -0.2769 -0.7276 -0.1797
28614SOL    HW191934  10.507   7.012   4.792  0.0278 -0.7936 -0.1690
28614SOL    HW291935  10.586   6.962   4.911 -0.2077  1.1190  0.8347
28615SOL     OW91936   9.170   1.237  10.589  0.1007 -0.7205  0.1442
28615SOL    HW191937   9.253   1.223  10.544  0.2762  1.6771 -0.4020
28615SOL    HW291938   9.121   1.295  10.532 -1.5967 -1.3292  0.9139
28616SOL     OW91939   5.909   0.256   6.192 -0.0141  0.0166  0.1041
28616SOL    HW191940   5.938   0.215   6.111 -1.0096 -1.0595  0.2609
28616SOL    HW291941   5.820   0.223   6.205 -0.1093  0.6843  1.2923
28617SOL     OW91942   3.828   7.277   6.185  0.5091  0.1159  0.0709
28617SOL    HW191943   3.799   7.192   6.149 -1.0316 -0.1856  1.8830
28617SOL    HW291944   3.750   7.332   6.181  1.0189  0.8800  0.5980
28618SOL     OW91945   0.288   3.997   0.748  0.2192  0.4705 -0.1952
28618SOL    HW191946   0.283   3.957   0.661  0.5744 -0.3848  0.1746
28618SOL    HW291947   0.279   4.091   0.730  0.3988  0.3205 -1.1688
28619SOL     OW91948   8.933   6.786   8.383 -0.9604 -0.1153  0.6142
28619SOL    HW191949   8.926   6.838   8.303 -0.5279 -1.2876 -0.2118
28619SOL    HW291950   8.962   6.848   8.450  0.5024  0.5021 -0.5595
28620SOL     OW91951   0.991   1.999   0.518 -0.0911 -0.0340 -0.5036
28620SOL    HW191952   0.896   2.004   0.517 -0.1613  0.0691  1.6151
28620SOL    HW291953   1.013   1.925   0.463 -1.4302 -0.3308 -0.6445
28621SOL     OW91954   2.046   0.229   6.873 -0.4396  0.1584  0.0738
28621SOL    HW191955   1.990   0.263   6.803 -0.8323 -0.4841  0.0710
28621SOL    HW291956   2.015   0.273   6.952 -0.2712  0.5700 -0.0872
28622SOL     OW91957   1.787   8.802   1.773  0.1518  0.0268 -0.2755
28622SOL    HW191958   1.739   8.878   1.740  0.8530  0.2229 -0.8859
28622SOL    HW291959   1.844   8.776   1.700  0.6650 -0.4471  0.2786
28623SOL     OW91960   0.682   0.502   1.630  0.5999  0.0667 -0.1070
28623SOL    HW191961   0.630   0.581   1.616  1.3804  0.4084 -1.2626
28623SOL    HW291962   0.640   0.435   1.575  0.4755 -0.0809  0.1653
28624SOL     OW91963   6.557   5.201   0.964  0.2709 -0.3762 -0.2149
28624SOL    HW191964   6.569   5.277   0.907  0.2473  0.2153  0.5548
28624SOL    HW291965   6.523   5.237   1.045  0.4661 -1.1914  0.2404
28625SOL     OW91966   9.016   1.267   3.547  0.1457 -0.4893 -0.6073
28625SOL    HW191967   8.993   1.232   3.462  1.6406 -0.9367 -0.8613
28625SOL    HW291968   9.052   1.192   3.595  0.4312  0.0084 -0.0256
28626SOL     OW91969   9.272   3.278   1.703 -0.2116  0.1517  0.3034
28626SOL    HW191970   9.286   3.334   1.779  2.9060 -0.6928  0.4898
28626SOL    HW291971   9.328   3.315   1.635 -1.9574  0.1244 -1.2243
28627SOL     OW91972   3.636  10.880   5.473  0.3190 -0.4958  0.3842
28627SOL    HW191973   3.551  10.839   5.455  0.1179 -0.0374  0.2622
28627SOL    HW291974   3.698  10.832   5.418 -0.1667  0.3872 -0.9981
28628SOL     OW91975   1.369   9.175   8.630 -0.1954 -0.0994 -0.1561
28628SOL    HW191976   1.295   9.123   8.658 -0.4146 -0.3439 -1.1567
28628SOL    HW291977   1.332   9.241   8.571 -0.0616  1.7936  1.7625
28629SOL     OW91978   5.116   5.245   3.273  0.0414  0.0506 -0.0710
28629SOL    HW191979   5.143   5.333   3.299  1.6508 -0.3140 -0.3762
28629SOL    HW291980   5.021   5.250   3.264  0.0902  1.7062  0.0649
28630SOL     OW91981   6.973   7.396   2.524 -0.7510  0.1256 -0.1848
28630SOL    HW191982   6.942   7.342   2.450  0.9269  1.9220 -2.3242
28630SOL    HW291983   6.940   7.483   2.505  3.1291  1.5709 -1.2150
28631SOL     OW91984   4.906   0.310   3.165  0.0630  0.5239  0.2704
28631SOL    HW191985   4.970   0.379   3.182  2.0413 -0.5595 -2.1469
28631SOL    HW291986   4.940   0.234   3.211 -0.1399  0.2477 -0.0326
28632SOL     OW91987   0.046   0.226  10.675 -0.2115 -0.6610  0.1888
28632SOL    HW191988  -0.015   0.278  10.727 -0.2106  0.3346 -0.7686
28632SOL    HW291989  -0.006   0.153  10.642 -0.3687 -0.9390  1.0288
28633SOL     OW91990   2.113   1.682   5.765 -0.3637 -1.2370  0.2499
28633SOL    HW191991   2.098   1.633   5.684 -0.0609 -0.0319 -0.5758
28633SOL    HW291992   2.114   1.774   5.737  0.6673 -0.8405  1.4741
28634SOL     OW91993   1.830  10.583   5.160 -0.2278  0.1671 -0.3179
28634SOL    HW191994   1.860  10.664   5.199 -0.9859  0.6823 -0.7798
28634SOL    HW291995   1.881  10.515   5.204 -0.9288  0.7245  1.4202
28635SOL     OW91996   2.029   1.738   0.700  0.5136  0.2200 -0.2565
28635SOL    HW191997   2.109   1.716   0.652  0.1932 -3.2820  0.5143
28635SOL    HW291998   1.958   1.714   0.640  0.0761  0.2913  0.2298
28636SOL     OW91999   9.536   9.052   6.942  0.4995 -0.4819 -0.1690
28636SOL    HW192000   9.627   9.023   6.939  1.0271  0.9201  1.0959
28636SOL    HW292001   9.540   9.142   6.973 -1.3632 -0.5705  0.4810
28637SOL     OW92002   6.971   4.592   8.245 -0.0733 -0.3549  0.1959
28637SOL    HW192003   6.912   4.545   8.186  1.2630 -2.1739  0.2111
28637SOL    HW292004   6.913   4.636   8.307 -1.4380 -0.7652 -0.7422
28638SOL     OW92005  10.138   7.064  10.807  0.3598 -0.1730 -0.2112
28638SOL    HW192006  10.216   7.044  10.860  1.6574  0.0164 -1.9423
28638SOL    HW292007  10.166   7.136  10.750 -1.3991  0.5191 -0.2551
28639SOL     OW92008   3.241   9.646   6.805 -0.3807 -0.1739  0.0549
28639SOL    HW192009   3.302   9.696   6.860  0.8408 -2.3166  0.7806
28639SOL    HW292010   3.298   9.589   6.752 -1.6919 -2.6997  1.1857
28640SOL     OW92011   7.565  10.793   7.054 -0.2245  0.7500  0.2155
28640SOL    HW192012   7.477  10.803   7.017 -0.1436  1.1200  0.1136
28640SOL    HW292013   7.577  10.699   7.064  0.0207  0.5999 -1.3572
28641SOL     OW92014   5.908   2.268   9.243 -0.2009 -0.0090  0.3872
28641SOL    HW192015   5.968   2.342   9.244 -0.9394  0.6055  1.4995
28641SOL    HW292016   5.891   2.250   9.336 -0.3846 -1.2809  0.1236
28642SOL     OW92017   3.960   0.486   9.924  0.0489 -0.0866  0.1021
28642SOL    HW192018   3.942   0.397   9.955  1.9741 -0.8193 -0.7313
28642SOL    HW292019   3.929   0.487   9.834 -0.8693  0.4353  0.4044
28643SOL     OW92020   9.970   2.122  10.384 -0.6022 -0.7643  0.1256
28643SOL    HW192021  10.052   2.171  10.378 -0.7942 -0.5606 -1.0490
28643SOL    HW292022   9.902   2.188  10.371 -1.1273 -0.4697  3.4895
28644SOL     OW92023   4.023   9.674   8.408  0.5211  0.4921  0.8413
28644SOL    HW192024   4.062   9.643   8.327 -2.5988 -1.5417 -0.0488
28644SOL    HW292025   4.083   9.645   8.477  2.8915  1.7020 -0.5909
28645SOL     OW92026   4.054   4.039   3.580 -0.3107  0.0319 -0.1684
28645SOL    HW192027   3.968   4.016   3.617  0.7187 -2.9644  0.6631
28645SOL    HW292028   4.114   4.036   3.654  0.9322 -0.6619 -1.1623
28646SOL     OW92029   7.848   4.973   8.109 -0.1093 -0.7698 -0.0326
28646SOL    HW192030   7.923   5.013   8.154 -0.3365 -2.5558  2.1640
28646SOL    HW292031   7.887   4.910   8.049  0.1914 -1.3563  0.7601
28647SOL     OW92032   3.421   9.493   8.743  0.4366  0.1759  0.6670
28647SOL    HW192033   3.389   9.468   8.829  2.1783  0.6655  1.4955
28647SOL    HW292034   3.408   9.415   8.689 -1.8197  0.2637  1.0027
28648SOL     OW92035   2.633   0.811   9.766 -0.0036  0.2428 -0.4102
28648SOL    HW192036   2.581   0.738   9.800  0.3621  0.5148  0.7448
28648SOL    HW292037   2.570   0.882   9.754  0.0327  0.4648  0.6637
28649SOL     OW92038   2.653   6.904   8.439 -0.2023 -0.4602  0.5180
28649SOL    HW192039   2.604   6.869   8.514 -0.6351  2.3010  1.6405
28649SOL    HW292040   2.607   6.985   8.416  2.7411  1.3211  0.4461
28650SOL     OW92041   2.839   1.271   4.612  0.2717 -0.1732  0.5537
28650SOL    HW192042   2.780   1.277   4.688 -0.2603 -2.3247  0.3652
28650SOL    HW292043   2.926   1.277   4.649 -0.0035 -0.2485  1.2259
28651SOL     OW92044   2.028   3.113  10.539  0.0523  0.2539 -0.2439
28651SOL    HW192045   2.030   3.208  10.551  1.6759  0.7405 -3.2515
28651SOL    HW292046   1.960   3.099  10.473 -0.4203 -0.7591  0.4320
28652SOL     OW92047   8.407   8.252   8.627  0.0671  0.3603  0.1223
28652SOL    HW192048   8.399   8.184   8.694  0.0845 -0.3365 -0.5666
28652SOL    HW292049   8.368   8.213   8.548  1.3468  0.6066 -0.6647
28653SOL     OW92050   0.385   7.662   5.180  0.8015 -0.0979 -0.1607
28653SOL    HW192051   0.329   7.599   5.135  0.3885  0.3772 -0.3191
28653SOL    HW292052   0.337   7.744   5.175  2.3417  0.7723 -1.9394
28654SOL     OW92053  10.000   9.153   4.292  0.5095  0.3982  0.0529
28654SOL    HW192054   9.929   9.166   4.354  1.3076  1.0988  0.8443
28654SOL    HW292055   9.996   9.229   4.235 -0.6922 -0.6003 -1.2843
28655SOL     OW92056   2.734   3.225  10.926  0.1526 -1.1824 -0.2755
28655SOL    HW192057   2.653   3.207  10.880 -0.1204  0.5610 -0.5318
28655SOL    HW292058   2.794   3.258  10.859 -0.3923  1.8338  0.5361
28656SOL     OW92059   9.403   9.773   5.363 -0.1632 -0.5404 -0.1456
28656SOL    HW192060   9.373   9.861   5.387 -2.8274 -0.9323 -1.7092
28656SOL    HW292061   9.344   9.746   5.293  1.4066 -3.1005 -0.5797
28657SOL     OW92062   3.184   6.335   1.491  0.4390  0.3364 -0.0318
28657SOL    HW192063   3.126   6.404   1.521 -0.3533 -0.3030 -0.0630
28657SOL    HW292064   3.164   6.323   1.399  1.1303  0.6013 -0.2223
28658SOL     OW92065   7.381   3.282   6.230 -0.2051 -0.8773  0.1848
28658SOL    HW192066   7.304   3.251   6.184 -1.5668 -0.2696  1.9378
28658SOL    HW292067   7.381   3.233   6.313  1.4983 -1.1202  0.0897
28659SOL     OW92068   1.383   9.483   3.967  0.7250 -0.1748  0.0425
28659SOL    HW192069   1.293   9.495   3.937  0.3198 -0.0812  1.2490
28659SOL    HW292070   1.431   9.457   3.888  0.2787  2.7008 -1.2954
28660SOL     OW92071   1.599   4.501  10.752  0.4135  0.5209  0.1996
28660SOL    HW192072   1.691   4.526  10.762  0.4014  1.5589 -1.8042
28660SOL    HW292073   1.555   4.582  10.725 -0.8443 -0.2658 -0.1717
28661SOL     OW92074   5.580   5.935   8.024 -0.0768 -0.4676  0.7545
28661SOL    HW192075   5.524   5.858   8.012 -0.9413  0.2458  0.1233
28661SOL    HW292076   5.563   5.962   8.114 -1.4570  0.2732  0.2929
28662SOL     OW92077   0.606   3.144   8.961  0.1949 -0.4094 -0.6764
28662SOL    HW192078   0.543   3.109   8.899  0.2869 -0.2449 -0.8630
28662SOL    HW292079   0.689   3.144   8.913  0.4812 -1.2824 -0.2094
28663SOL     OW92080   7.293   2.210   1.267  0.3609  0.6416 -0.0360
28663SOL    HW192081   7.302   2.279   1.201  1.0819 -0.9869 -1.7424
28663SOL    HW292082   7.226   2.152   1.232 -1.8814  1.5671  2.4607
28664SOL     OW92083   2.209   8.831   2.642  0.1141 -0.6316 -0.2464
28664SOL    HW192084   2.264   8.843   2.720 -0.3710  1.1403 -0.1407
28664SOL    HW292085   2.266   8.850   2.569 -0.0869  0.2154 -0.1871
28665SOL     OW92086   2.691  10.538   3.660  0.5873  0.0776  0.2670
28665SOL    HW192087   2.696  10.563   3.568  1.6621  0.5984  0.4501
28665SOL    HW292088   2.732  10.610   3.707  1.1010 -0.7100  1.0578
28666SOL     OW92089   1.917  10.345   3.460  0.3688  0.6739  0.1151
28666SOL    HW192090   1.947  10.300   3.381  1.3565  1.7294 -0.1485
28666SOL    HW292091   1.994  10.347   3.517 -0.8209 -1.8405  2.0256
28667SOL     OW92092   5.791   0.537   8.737  0.1091 -0.7776 -0.4808
28667SOL    HW192093   5.826   0.515   8.651 -0.2679  1.0922 -1.1551
28667SOL    HW292094   5.714   0.590   8.719  1.5946  2.1028  0.9056
28668SOL     OW92095   3.126   8.014  10.241  0.1754 -0.2794  0.3730
28668SOL    HW192096   3.089   8.079  10.181 -0.0239  0.0942  0.8957
28668SOL    HW292097   3.213   7.994  10.205  0.1305  0.0789  0.0680
28669SOL     OW92098   9.283   1.364   6.927 -0.9291 -0.0918 -0.0053
28669SOL    HW192099   9.201   1.381   6.880  0.4480  0.8339 -2.2468
28669SOL    HW292100   9.312   1.451   6.957 -1.2544 -0.5463  1.7577
28670SOL     OW92101   5.591   7.885   8.187 -0.0167  0.1129  0.3228
28670SOL    HW192102   5.552   7.839   8.113  0.1776  1.4956 -0.6978
28670SOL    HW292103   5.538   7.965   8.195 -0.9521 -0.6867  2.6413
28671SOL     OW92104   4.084   3.736   1.974 -0.8021  0.2770  0.7490
28671SOL    HW192105   4.159   3.744   1.915 -1.3796  1.5781  0.1567
28671SOL    HW292106   4.122   3.749   2.062 -0.1883 -0.0848  0.5454
28672SOL     OW92107   6.538   9.977   2.990  0.1881 -0.1613 -0.0871
28672SOL    HW192108   6.576   9.927   2.918 -1.2543 -1.7791  0.2159
28672SOL    HW292109   6.501   9.911   3.048  0.2912  1.1718  1.5618
28673SOL     OW92110   9.233   2.430   6.935  0.4496 -0.2066  0.0916
28673SOL    HW192111   9.327   2.433   6.920  0.2083 -0.6839 -1.8254
28673SOL    HW292112   9.204   2.353   6.886 -0.6738 -1.3630  2.4026
28674SOL     OW92113   2.165   3.921   5.690 -0.2455 -0.0568 -0.4828
28674SOL    HW192114   2.146   3.938   5.598 -0.0708  1.4470 -0.2670
28674SOL    HW292115   2.234   3.855   5.689  0.3273  0.5374 -1.4672
28675SOL     OW92116   6.928   4.401   7.656 -0.0503 -0.3547  0.0398
28675SOL    HW192117   6.953   4.370   7.743 -0.6121  0.8245  0.6567
28675SOL    HW292118   6.921   4.496   7.666 -0.9902 -0.2824 -1.0656
28676SOL     OW92119   4.979   0.047   9.826 -0.3475  0.0169 -0.5950
28676SOL    HW192120   4.985   0.140   9.847  1.8752 -0.2836  0.3906
28676SOL    HW292121   4.928   0.009   9.898  0.6293  0.1719  0.2045
28677SOL     OW92122  10.213   5.361   9.942 -1.0731  0.2114 -0.4894
28677SOL    HW192123  10.224   5.303   9.867 -2.5751 -0.6686 -0.0805
28677SOL    HW292124  10.170   5.307  10.008  1.9705  0.3561  1.8085
28678SOL     OW92125   1.840   4.917   5.781  0.4134 -0.9517 -0.2057
28678SOL    HW192126   1.893   4.982   5.735  3.0633 -2.1398  1.0075
28678SOL    HW292127   1.788   4.968   5.842 -1.6332  0.4507 -2.8881
28679SOL     OW92128   0.763   5.148   8.541 -0.7351 -0.3007  0.4338
28679SOL    HW192129   0.729   5.148   8.630  1.7754 -0.1157  1.4552
28679SOL    HW292130   0.684   5.147   8.486 -2.3554  0.0700  2.6061
28680SOL     OW92131   6.104   2.959   1.726  0.7224  0.2404  0.7031
28680SOL    HW192132   6.066   2.980   1.640  0.3885 -1.4101  0.4060
28680SOL    HW292133   6.079   3.032   1.782  0.2828  0.9759 -0.4159
28681SOL     OW92134   3.472   2.804   1.141 -0.2406  0.3333 -0.0025
28681SOL    HW192135   3.417   2.881   1.154 -0.9807 -0.2143  0.1664
28681SOL    HW292136   3.479   2.764   1.228  0.0299  0.1335 -0.1112
28682SOL     OW92137   5.278   8.610   2.821  0.3086 -0.0022  0.2499
28682SOL    HW192138   5.274   8.686   2.763  0.7839 -0.5599 -0.5441
28682SOL    HW292139   5.365   8.614   2.860 -0.1805  0.6365  1.3242
28683SOL     OW92140   7.467   9.176   1.040 -0.0194  0.6286 -0.0130
28683SOL    HW192141   7.437   9.227   1.116 -0.7149  0.2091 -0.0037
28683SOL    HW292142   7.449   9.233   0.965  0.6151  1.0204  0.1260
28684SOL     OW92143  10.724   3.124   7.777  0.7697  0.0299  0.0749
28684SOL    HW192144  10.731   3.050   7.716 -1.6326 -0.4941  0.3391
28684SOL    HW292145  10.718   3.201   7.721  0.6561 -0.2349 -0.2771
28685SOL     OW92146   5.307   3.895   3.430 -0.0053  0.2410  0.1122
28685SOL    HW192147   5.352   3.923   3.351  0.0732 -0.4407 -0.0941
28685SOL    HW292148   5.359   3.821   3.462  0.4065  0.9961  1.2354
28686SOL     OW92149   9.491   0.211   5.195  0.3914  0.6890 -0.3638
28686SOL    HW192150   9.505   0.259   5.277  0.5653  0.1711 -0.0870
28686SOL    HW292151   9.414   0.157   5.211  0.3176  0.7204 -0.6058
28687SOL     OW92152   7.828  10.711   9.166  0.6608  0.3266 -0.2868
28687SOL    HW192153   7.896  10.727   9.232  1.3906 -0.1425 -0.9007
28687SOL    HW292154   7.746  10.711   9.215  1.2068 -0.2564  0.6624
28688SOL     OW92155   3.320   0.685   1.660  0.3456 -0.0848  0.2098
28688SOL    HW192156   3.411   0.696   1.632 -0.1353  1.3420 -0.9343
28688SOL    HW292157   3.319   0.721   1.749  0.8534  0.1835  0.1163
28689SOL     OW92158   6.459   9.341   7.406  0.4015  1.2532  0.0160
28689SOL    HW192159   6.429   9.322   7.495 -0.5396  1.7976 -0.1841
28689SOL    HW292160   6.408   9.416   7.378  0.1006  0.5948 -1.2910
28690SOL     OW92161   8.190   2.220  10.079  0.0634 -0.2323 -0.1314
28690SOL    HW192162   8.243   2.169  10.140 -1.1195 -1.1722  0.1415
28690SOL    HW292163   8.170   2.301  10.127 -0.1253 -0.5892  0.3988
28691SOL     OW92164   7.888   6.926   5.601  0.1516 -0.6098 -0.6086
28691SOL    HW192165   7.847   7.005   5.566  0.1105 -0.1109  0.5214
28691SOL    HW292166   7.816   6.877   5.641  0.2342 -1.0443 -0.9864
28692SOL     OW92167   1.008   6.971   8.249 -0.1378  0.8118 -0.2194
28692SOL    HW192168   1.099   6.969   8.221  0.7087 -0.8193  2.2943
28692SOL    HW292169   0.990   6.882   8.279 -2.3930  1.2260 -0.1455
28693SOL     OW92170   8.810   1.112   6.130  0.5729 -0.1653  0.0668
28693SOL    HW192171   8.851   1.070   6.205  1.6677 -0.2409 -0.5597
28693SOL    HW292172   8.883   1.141   6.075 -0.1948  0.5651 -0.6040
28694SOL     OW92173   3.033   3.765   6.532 -0.0953  0.0960 -0.5513
28694SOL    HW192174   3.017   3.731   6.444 -1.7771  0.1160 -0.2688
28694SOL    HW292175   3.017   3.859   6.525 -0.4659  0.0626 -0.1742
28695SOL     OW92176   0.726   1.709   0.513  0.2052 -0.6213  0.4956
28695SOL    HW192177   0.679   1.626   0.515 -1.6187  0.3447 -0.1019
28695SOL    HW292178   0.666   1.770   0.470  2.2607  0.5545 -0.8959
28696SOL     OW92179   9.412   9.884   9.840  0.3048 -0.1955 -0.6810
28696SOL    HW192180   9.405   9.835   9.758 -1.0974  2.5237 -2.3125
28696SOL    HW292181   9.322   9.893   9.871  0.5698  0.8481 -0.1616
28697SOL     OW92182   8.308   5.365  10.807 -0.3270  0.4930  0.3120
28697SOL    HW192183   8.346   5.277  10.804  0.9691  0.9776  1.7056
28697SOL    HW292184   8.277   5.380  10.717 -0.7818 -1.4496  0.0910
28698SOL     OW92185   5.859   2.924   0.033 -0.2265  0.2093  0.3436
28698SOL    HW192186   5.883   2.848   0.086  0.8027  1.0566  1.1434
28698SOL    HW292187   5.870   2.895  -0.058  1.4900 -0.2042  0.6536
28699SOL     OW92188   7.326   2.682  10.477 -0.1764 -0.2956  0.6621
28699SOL    HW192189   7.411   2.719  10.453  0.2886 -1.3504  0.6361
28699SOL    HW292190   7.310   2.613  10.413 -0.7506 -0.5271  1.0450
28700SOL     OW92191   3.045   3.572   2.895  0.2226 -0.3450  0.0860
28700SOL    HW192192   2.958   3.606   2.877  0.3903 -0.5867 -1.3051
28700SOL    HW292193   3.037   3.477   2.883  0.9497 -0.2571 -1.4919
28701SOL     OW92194   2.997   1.040   0.078 -0.0088 -0.3645 -0.2987
28701SOL    HW192195   3.042   1.124   0.073  1.1627 -0.9755 -0.7212
28701SOL    HW292196   2.911   1.060   0.114  1.3421  0.6195  2.6785
28702SOL     OW92197   3.885   5.143   7.466 -0.2761  0.2860  0.2685
28702SOL    HW192198   3.891   5.079   7.395  0.4941 -1.5679  1.9034
28702SOL    HW292199   3.791   5.152   7.483 -0.4666  0.7305 -0.9249
28703SOL     OW92200   0.990   9.302   4.014 -0.3426  0.2440  0.3355
28703SOL    HW192201   0.983   9.210   3.988  0.8606 -0.6302  2.7459
28703SOL    HW292202   0.916   9.316   4.073 -1.0586  1.1210 -0.7596
28704SOL     OW92203   2.877   0.709   5.276  0.4549  0.0843  0.0459
28704SOL    HW192204   2.875   0.704   5.181  0.5971  0.6392  0.0087
28704SOL    HW292205   2.864   0.802   5.296  0.3175 -0.0405  0.5703
28705SOL     OW92206   3.890   6.307   7.199 -0.1328  0.0102  0.3627
28705SOL    HW192207   3.816   6.366   7.215 -0.2213 -0.2808  1.0626
28705SOL    HW292208   3.885   6.287   7.106 -0.5667  0.4855  0.2758
28706SOL     OW92209   6.610   8.327   5.781 -0.2540  0.0209 -0.5404
28706SOL    HW192210   6.642   8.408   5.821  0.4865  0.3267 -1.7218
28706SOL    HW292211   6.521   8.347   5.753 -1.9764 -1.0503  3.4245
28707SOL     OW92212   1.149   1.905   3.387  0.0068  0.3117  0.5798
28707SOL    HW192213   1.143   1.827   3.331  1.2954 -0.3051  1.2616
28707SOL    HW292214   1.113   1.975   3.334  3.0217  0.1995 -1.9026
28708SOL     OW92215   8.655   6.639   1.566  0.1243  0.0116  0.0355
28708SOL    HW192216   8.741   6.600   1.582  0.4129  0.2644 -0.8379
28708SOL    HW292217   8.607   6.572   1.516  0.5524  0.6634 -1.2937
28709SOL     OW92218   5.459  10.575   9.656  0.2558  0.1568  0.7979
28709SOL    HW192219   5.479  10.658   9.700  1.6414  0.1512  0.2143
28709SOL    HW292220   5.538  10.522   9.668 -0.2023 -0.6776  0.2234
28710SOL     OW92221   2.464  10.414   3.546  0.2492  0.5720 -0.3037
28710SOL    HW192222   2.399  10.483   3.546  1.3035  1.6057  0.2208
28710SOL    HW292223   2.526  10.439   3.615 -0.2393 -1.7739  1.1361
28711SOL     OW92224   3.375   7.630   3.312 -0.2071  0.0866  0.2687
28711SOL    HW192225   3.416   7.709   3.277 -1.1875  0.6327  0.3111
28711SOL    HW292226   3.447   7.568   3.320  0.2391  0.2436 -1.8006
28712SOL     OW92227   1.198   2.497   3.855 -0.4144 -0.1702 -0.4123
28712SOL    HW192228   1.107   2.473   3.839 -0.8519  2.0480 -1.7292
28712SOL    HW292229   1.194   2.561   3.926  0.2355 -0.7106  0.1281
28713SOL     OW92230   6.478   8.694   1.415 -0.2057 -0.1994 -0.1158
28713SOL    HW192231   6.552   8.633   1.407 -1.3544 -1.7726  0.6605
28713SOL    HW292232   6.498   8.745   1.494 -0.1139 -0.8814  0.3117
28714SOL     OW92233   4.112   7.987   8.456 -0.1600 -0.1610 -1.1708
28714SOL    HW192234   4.118   7.894   8.433 -1.7717 -0.5878 -0.0851
28714SOL    HW292235   4.202   8.019   8.450  1.0685 -2.6027  1.6004
28715SOL     OW92236  10.459   8.820   1.604 -0.2137  0.2383 -0.9100
28715SOL    HW192237  10.387   8.760   1.585  0.2902 -0.2130 -1.4532
28715SOL    HW292238  10.536   8.780   1.563  0.8343 -0.4200  1.5411
28716SOL     OW92239   1.924   9.884   9.847 -0.3541 -0.5245 -0.4851
28716SOL    HW192240   1.838   9.892   9.889 -0.1582  1.4051 -0.3479
28716SOL    HW292241   1.920   9.944   9.773  0.9748 -0.1630 -0.2947
28717SOL     OW92242   3.316   2.363   2.965  0.0776 -0.1584 -0.4044
28717SOL    HW192243   3.327   2.449   2.924  0.9570 -0.6824 -1.3023
28717SOL    HW292244   3.334   2.378   3.058 -0.5195  0.7686 -0.4301
28718SOL     OW92245   2.396   6.749   0.489 -0.1911  0.1493 -0.9439
28718SOL    HW192246   2.318   6.697   0.509  0.2798 -0.8947 -1.7421
28718SOL    HW292247   2.408   6.804   0.566 -1.1751 -0.3431 -0.4177
28719SOL     OW92248   5.865   5.428  10.099  0.0465  0.0811 -0.1321
28719SOL    HW192249   5.926   5.469  10.161  1.0022 -0.1457 -0.8905
28719SOL    HW292250   5.917   5.416  10.019 -0.7222 -0.9769 -0.4983
28720SOL     OW92251   0.749  10.829   8.294  0.0472 -0.0154  0.1253
28720SOL    HW192252   0.725  10.737   8.290 -0.8851  0.2553 -1.1164
28720SOL    HW292253   0.667  10.875   8.313  0.6363  0.5164  1.4805
28721SOL     OW92254   6.686   0.562   6.087  0.0940 -0.0027  0.2047
28721SOL    HW192255   6.620   0.631   6.086 -0.4253 -0.4937 -0.2763
28721SOL    HW292256   6.636   0.480   6.090  0.6961 -0.3689  0.6214
28722SOL     OW92257   3.603   1.246   5.509 -0.2143  0.1691  0.1282
28722SOL    HW192258   3.548   1.168   5.506  1.2354 -0.8956  0.4849
28722SOL    HW292259   3.682   1.222   5.462  0.0762  1.6006 -0.1754
28723SOL     OW92260   5.261   0.892   7.052  0.1492  0.5161 -0.0159
28723SOL    HW192261   5.188   0.830   7.051 -0.0477  0.7438  0.2110
28723SOL    HW292262   5.224   0.974   7.020  0.3005  0.6351  0.1100
28724SOL     OW92263   2.336   7.147   0.755 -0.0963 -0.2789  0.0736
28724SOL    HW192264   2.405   7.189   0.806 -0.0973 -1.2106  0.8749
28724SOL    HW292265   2.268   7.127   0.820 -1.3131  0.9624 -0.7524
28725SOL     OW92266   9.042   2.834  10.119  0.0881 -0.3365  0.3139
28725SOL    HW192267   8.980   2.779  10.071 -0.2016  0.3392 -0.1057
28725SOL    HW292268   9.127   2.811  10.082 -0.0276 -0.5195  0.1558
28726SOL     OW92269   7.205   6.067   3.186 -0.3941  0.5486 -0.3678
28726SOL    HW192270   7.147   6.005   3.142 -1.7436  1.3002  0.3044
28726SOL    HW292271   7.221   6.135   3.121 -1.6673  1.2063 -0.0151
28727SOL     OW92272   6.192   7.449   3.098  0.0504 -0.0945  0.6906
28727SOL    HW192273   6.279   7.469   3.062  0.0470 -0.2251  0.6079
28727SOL    HW292274   6.137   7.521   3.069  0.2149  0.1854  1.0559
28728SOL     OW92275   3.435  10.802  10.433  0.2198 -0.1868 -0.6589
28728SOL    HW192276   3.448  10.708  10.425  1.3919 -0.0204 -0.8781
28728SOL    HW292277   3.458  10.837  10.347  2.2670  0.5378  0.1347
28729SOL     OW92278   7.730   7.121   5.447  0.2152  0.4744 -0.3596
28729SOL    HW192279   7.658   7.160   5.496 -0.8116 -0.3608 -1.1724
28729SOL    HW292280   7.693   7.101   5.361  1.6782  0.9076 -1.1252
28730SOL     OW92281   8.607   0.533   4.579 -0.0261  0.1658  0.3992
28730SOL    HW192282   8.586   0.550   4.487 -1.7556  0.1751  0.7517
28730SOL    HW292283   8.601   0.619   4.622 -1.0739 -0.1062  0.8278
28731SOL     OW92284   6.387   3.122  10.005  0.3030  0.5084 -0.4230
28731SOL    HW192285   6.419   3.106  10.094 -0.4677 -4.0363 -0.7000
28731SOL    HW292286   6.311   3.179  10.017  0.7792  0.7872  1.7297
28732SOL     OW92287   5.217   7.854   7.549  0.6087 -0.0370  0.1919
28732SOL    HW192288   5.285   7.853   7.481  0.3224 -3.0511 -0.2167
28732SOL    HW292289   5.160   7.927   7.527  0.4665 -0.9756 -2.9399
28733SOL     OW92290   6.953   1.932  10.425  0.2575 -0.2583  0.0468
28733SOL    HW192291   6.982   1.852  10.471 -2.4090 -1.0776  0.5354
28733SOL    HW292292   6.910   1.983  10.494 -0.2153  0.4251 -0.7511
28734SOL     OW92293   8.075   6.191   8.373 -0.0617  0.1929 -0.0659
28734SOL    HW192294   8.141   6.242   8.420  1.2448  0.7535 -2.3556
28734SOL    HW292295   8.023   6.256   8.326 -0.7061 -0.3933 -0.1792
28735SOL     OW92296   3.242   2.078   1.500 -0.1703  0.2238  0.3340
28735SOL    HW192297   3.324   2.028   1.505 -0.1093  0.3776  0.9512
28735SOL    HW292298   3.240   2.111   1.410 -0.2984 -1.0164 -0.1333
28736SOL     OW92299   4.289   9.163   5.357  0.3464  0.0522  0.3072
28736SOL    HW192300   4.334   9.224   5.416  0.7390  0.8338 -0.7696
28736SOL    HW292301   4.218   9.127   5.410  0.8765  0.4918  1.3564
28737SOL     OW92302  10.165   5.828   7.078 -0.1289 -0.1914 -0.2531
28737SOL    HW192303  10.210   5.749   7.049 -1.7534 -0.6294 -1.7247
28737SOL    HW292304  10.116   5.801   7.156 -1.6962 -1.0237 -1.4803
28738SOL     OW92305   4.719   7.610   6.583  0.4018 -0.2997  0.1925
28738SOL    HW192306   4.761   7.597   6.668  0.5703  1.5218  0.4389
28738SOL    HW292307   4.626   7.612   6.603  0.3420 -1.3785  0.0862
28739SOL     OW92308   7.093   6.732   4.472  0.1821  0.1313 -0.8239
28739SOL    HW192309   7.084   6.740   4.567 -2.1291  0.5992 -1.0248
28739SOL    HW292310   7.185   6.707   4.458  0.2772 -1.0587  1.5761
28740SOL     OW92311   2.244   1.190   2.061  0.4827 -0.4408 -0.0745
28740SOL    HW192312   2.274   1.265   2.112 -4.0938  1.7344 -0.0089
28740SOL    HW292313   2.212   1.128   2.127  0.1031 -0.3657 -0.1856
28741SOL     OW92314   0.596  10.714  10.541  0.5016 -0.2406 -0.1222
28741SOL    HW192315   0.570  10.722  10.449 -1.7077 -1.1375  0.3750
28741SOL    HW292316   0.674  10.658  10.538  0.8297  0.2359 -1.4727
28742SOL     OW92317   0.193   5.173   9.257  0.1700 -0.2415 -0.2295
28742SOL    HW192318   0.126   5.241   9.263  2.7681  2.7016 -1.5765
28742SOL    HW292319   0.259   5.197   9.322  1.6351 -0.8620 -1.4063
28743SOL     OW92320   2.899   2.618   4.688  0.4372 -0.1175 -0.3756
28743SOL    HW192321   2.949   2.687   4.732  2.2898 -1.3300 -0.4417
28743SOL    HW292322   2.823   2.662   4.650  0.8315  1.6135  0.7517
28744SOL     OW92323   7.252   0.268   7.434  0.2073 -1.0949  0.4112
28744SOL    HW192324   7.187   0.247   7.367 -0.0763  0.4747  0.1520
28744SOL    HW292325   7.231   0.209   7.507 -0.0042 -2.2394 -0.5515
28745SOL     OW92326   5.756   9.454  10.251  0.1614 -0.3822  0.2127
28745SOL    HW192327   5.806   9.485  10.326 -1.4664  0.8052  0.8682
28745SOL    HW292328   5.814   9.392  10.207  2.1847  0.9289  0.8994
28746SOL     OW92329   2.082  10.391   2.292  1.1754  0.0526  0.0507
28746SOL    HW192330   2.140  10.454   2.336 -0.2133 -0.5126  2.9256
28746SOL    HW292331   2.011  10.444   2.257  1.3074  0.3370  0.2103
28747SOL     OW92332  10.466   4.718   8.191  0.3388  0.1136 -0.0921
28747SOL    HW192333  10.561   4.704   8.189  0.1548 -1.1645 -1.4668
28747SOL    HW292334  10.455   4.804   8.233  2.1554  0.7902 -0.9121
28748SOL     OW92335   1.550   6.827   7.014 -0.2700  0.3627  0.3028
28748SOL    HW192336   1.619   6.763   7.031 -1.5589 -0.9227  0.7886
28748SOL    HW292337   1.529   6.863   7.100 -1.4343 -0.5704  0.4370
28749SOL     OW92338   0.296   5.335   1.720 -0.0059 -0.4078  0.0068
28749SOL    HW192339   0.377   5.384   1.724  0.8241 -1.7666  1.3609
28749SOL    HW292340   0.228   5.400   1.701  1.1708  1.0433  0.6173
28750SOL     OW92341   2.287   7.165  10.583 -0.3390 -0.8339 -0.2169
28750SOL    HW192342   2.372   7.133  10.554 -0.1522  0.3066 -1.0008
28750SOL    HW292343   2.228   7.149  10.509 -0.0362  1.3731 -1.0138
28751SOL     OW92344   2.261   3.412   2.573  0.2401 -0.2399 -0.5562
28751SOL    HW192345   2.206   3.484   2.541 -0.3996 -0.7978 -0.7383
28751SOL    HW292346   2.263   3.349   2.500 -0.2621 -0.9818  0.0528
28752SOL     OW92347   9.306   2.527   3.849  0.4118 -0.7126  0.6793
28752SOL    HW192348   9.294   2.613   3.889  0.4289  0.9136 -2.5200
28752SOL    HW292349   9.231   2.475   3.879 -1.2049  1.3643  0.4086
28753SOL     OW92350   5.884   2.912   2.982 -0.7585 -0.4352 -0.2803
28753SOL    HW192351   5.946   2.848   3.016 -1.1159 -0.4839  0.2793
28753SOL    HW292352   5.800   2.867   2.984 -1.0600  0.1421  0.3811
28754SOL     OW92353   2.689   8.759  10.919  0.3798 -0.2668  0.4894
28754SOL    HW192354   2.611   8.712  10.948  1.4101 -2.1322  0.4057
28754SOL    HW292355   2.732   8.785  11.000  0.2471 -0.2527  0.5556
28755SOL     OW92356   6.359   0.093   2.170  0.0972  0.6076  0.0391
28755SOL    HW192357   6.385   0.153   2.239  1.4026 -0.4513  0.5174
28755SOL    HW292358   6.381   0.139   2.089 -0.7218  1.5383  0.3267
28756SOL     OW92359   8.849   5.095   6.622 -0.7652  0.1203 -0.7240
28756SOL    HW192360   8.872   5.132   6.707 -0.5296 -0.1544 -0.6675
28756SOL    HW292361   8.783   5.028   6.641 -1.4185  0.7109 -0.8576
28757SOL     OW92362   2.294   2.653   5.523 -0.2221  0.3684  0.1534
28757SOL    HW192363   2.254   2.644   5.437  0.0408  1.7622 -0.1289
28757SOL    HW292364   2.373   2.599   5.519 -0.4089  0.1314 -0.3427
28758SOL     OW92365   2.439   7.056   9.032  0.3905 -0.6397  0.7697
28758SOL    HW192366   2.405   6.996   8.966  0.6182  0.2240 -0.1581
28758SOL    HW292367   2.415   7.016   9.115 -0.0561 -1.6659  0.1694
28759SOL     OW92368   8.199   1.267   0.927 -0.1600  0.0903  0.0855
28759SOL    HW192369   8.269   1.313   0.974 -0.1470 -0.5758  0.7417
28759SOL    HW292370   8.234   1.179   0.913 -1.4897 -0.8194  1.9943
28760SOL     OW92371   1.426   6.925   4.072  0.0580 -0.4980 -0.6910
28760SOL    HW192372   1.462   6.926   3.983 -2.1678 -0.4150 -1.6438
28760SOL    HW292373   1.441   7.014   4.105  1.5419 -0.7321 -0.6662
28761SOL     OW92374   5.557   4.507   2.513 -0.0458 -0.0391 -0.3498
28761SOL    HW192375   5.511   4.441   2.565  0.4404 -0.0459  0.0820
28761SOL    HW292376   5.637   4.463   2.485  0.3177  0.3867  0.0019
28762SOL     OW92377   0.506   7.821   2.778 -0.2927 -0.2187  0.2779
28762SOL    HW192378   0.520   7.883   2.849 -1.1474  0.3843 -0.0666
28762SOL    HW292379   0.419   7.785   2.795 -0.4376 -0.1828 -0.3793
28763SOL     OW92380   2.401   8.753   0.533  0.0431  0.0651  0.6206
28763SOL    HW192381   2.376   8.835   0.575  0.3680  1.0825 -1.0730
28763SOL    HW292382   2.363   8.684   0.588 -0.4661  1.3440  1.9181
28764SOL     OW92383  10.840   2.314   4.569 -0.9446 -0.3253 -0.0041
28764SOL    HW192384  10.821   2.236   4.518  1.2099 -0.2742 -0.9671
28764SOL    HW292385  10.761   2.368   4.560 -0.8572 -0.5324 -2.9169
28765SOL     OW92386   9.559   3.954   9.701 -0.4259 -0.8597 -0.7221
28765SOL    HW192387   9.596   3.892   9.763 -3.0506 -1.7529  0.0816
28765SOL    HW292388   9.507   3.900   9.641  1.0593  0.1165 -3.0041
28766SOL     OW92389   5.368   1.666   0.255 -0.1751  0.4387  0.0667
28766SOL    HW192390   5.318   1.592   0.219  0.1709 -0.0852  0.6477
28766SOL    HW292391   5.313   1.699   0.326 -0.0240  0.3262  0.2338
28767SOL     OW92392   6.813   8.740   1.234  0.0617 -0.4106 -0.2276
28767SOL    HW192393   6.798   8.710   1.324 -0.0950 -0.1162 -0.1534
28767SOL    HW292394   6.791   8.834   1.236  0.7930 -0.2297 -0.3920
28768SOL     OW92395   3.379   3.598   5.423 -0.3827  0.4307 -0.4023
28768SOL    HW192396   3.356   3.592   5.330  1.2032  1.7321 -0.9326
28768SOL    HW292397   3.305   3.559   5.469 -0.3404 -2.1494 -2.2760
28769SOL     OW92398   5.304   0.669  10.653 -0.0202  0.5125  0.3870
28769SOL    HW192399   5.295   0.586  10.605  0.3800  0.6967 -0.0127
28769SOL    HW292400   5.386   0.660  10.701  0.3196  0.9000 -0.1103
28770SOL     OW92401   6.762   3.277   0.032 -0.0016 -0.2721 -0.3785
28770SOL    HW192402   6.756   3.254  -0.061  0.3282 -1.2591 -0.1761
28770SOL    HW292403   6.726   3.365   0.038 -0.2146 -0.2766 -1.4113
28771SOL     OW92404   6.157   7.111   5.277  0.5695 -0.3706 -0.1754
28771SOL    HW192405   6.166   7.125   5.371  1.2003 -1.2276 -0.0956
28771SOL    HW292406   6.142   7.017   5.268 -4.6089  0.2128 -0.6028
28772SOL     OW92407   0.701   3.740   3.451  0.1666 -0.4144 -0.0796
28772SOL    HW192408   0.677   3.829   3.426  1.2907 -0.0066  0.2126
28772SOL    HW292409   0.660   3.684   3.385 -0.5438  0.3110 -0.2721
28773SOL     OW92410   9.521   9.881   2.538 -0.2919  0.6359  0.1247
28773SOL    HW192411   9.454   9.950   2.541 -0.5783  0.3306  0.8586
28773SOL    HW292412   9.563   9.885   2.624 -0.0714  0.1287  0.0423
28774SOL     OW92413   0.720   5.013   6.010 -0.1898  0.1258 -0.5689
28774SOL    HW192414   0.693   5.086   5.954 -2.6973  0.8557  1.4189
28774SOL    HW292415   0.674   4.937   5.974 -0.3483  0.2185 -0.5600
28775SOL     OW92416   2.106   6.366  10.852  0.1231 -0.2625 -0.0575
28775SOL    HW192417   2.196   6.396  10.844  0.1718  0.5155  2.5868
28775SOL    HW292418   2.056   6.443  10.881 -0.6055 -1.5238  2.3322
28776SOL     OW92419   1.798   6.736   3.671  0.1279  0.6314 -0.3163
28776SOL    HW192420   1.861   6.798   3.635 -0.7292  0.6510 -1.8979
28776SOL    HW292421   1.718   6.751   3.620 -1.3218  0.9306  1.9374
28777SOL     OW92422   8.134   6.329   8.046  0.5389 -0.2042  0.3275
28777SOL    HW192423   8.068   6.322   8.115  0.7089  0.3019  0.5482
28777SOL    HW292424   8.109   6.407   7.997 -0.7112 -1.6192 -1.4067
28778SOL     OW92425   3.920   6.419  10.144 -0.6349 -0.2752  0.2326
28778SOL    HW192426   3.896   6.493  10.200 -0.0744  1.3373 -1.5315
28778SOL    HW292427   3.872   6.434  10.063  0.3147 -1.2475 -0.5429
28779SOL     OW92428   9.248   4.856   6.905  0.5416 -0.1535  0.2965
28779SOL    HW192429   9.325   4.804   6.880  0.1007 -0.2216 -0.9856
28779SOL    HW292430   9.196   4.797   6.960  0.1701 -1.0314 -0.9280
28780SOL     OW92431   7.469   1.992   4.501 -0.1608 -0.4352 -0.8751
28780SOL    HW192432   7.381   2.026   4.485 -0.4450 -1.0560 -0.6653
28780SOL    HW292433   7.462   1.946   4.584  0.1861 -1.0742 -1.1904
28781SOL     OW92434   4.899   6.691   1.487 -0.2679 -0.5607 -0.4985
28781SOL    HW192435   4.925   6.754   1.420  0.1452  1.4819  1.4402
28781SOL    HW292436   4.979   6.643   1.508 -0.4958 -1.4987 -1.7233
28782SOL     OW92437   5.367   3.804   0.722  0.1927 -0.0654  0.1415
28782SOL    HW192438   5.339   3.856   0.797 -0.2422 -1.5929  1.0973
28782SOL    HW292439   5.463   3.810   0.723  0.1250  1.9221 -0.7174
28783SOL     OW92440   2.006   9.173   0.170 -0.1045  0.2181 -0.1758
28783SOL    HW192441   1.934   9.169   0.233 -0.1973  1.3818 -0.1861
28783SOL    HW292442   2.077   9.123   0.210 -0.5985 -0.1516  0.2504
28784SOL     OW92443   5.890   4.372   5.592 -0.4110  0.0294  0.1301
28784SOL    HW192444   5.854   4.454   5.626 -1.4548 -0.7109  0.8537
28784SOL    HW292445   5.849   4.304   5.645  1.4060 -0.9050  0.4014
28785SOL     OW92446   7.157   5.287   6.261  1.4405  0.3788 -0.2971
28785SOL    HW192447   7.126   5.205   6.224 -0.2704  0.7925  0.1152
28785SOL    HW292448   7.104   5.354   6.219 -0.8604  0.8575  2.9399
28786SOL     OW92449   9.204   0.307   6.054 -0.1466  0.5350  0.3513
28786SOL    HW192450   9.286   0.278   6.095 -1.0098 -0.8697  1.1914
28786SOL    HW292451   9.207   0.402   6.059  1.2230  0.4904  0.8069
28787SOL     OW92452   8.605   6.361   5.323 -0.2014 -0.5320 -0.1733
28787SOL    HW192453   8.558   6.380   5.242 -0.8994  2.0714  0.7493
28787SOL    HW292454   8.537   6.334   5.384  0.0352 -0.4347  0.1334
28788SOL     OW92455   6.043   2.977   9.347 -0.6185  0.5573 -0.2760
28788SOL    HW192456   6.087   2.909   9.296 -0.0779  0.8932 -0.2622
28788SOL    HW292457   5.976   2.930   9.397 -0.5270  0.0953 -0.5823
28789SOL     OW92458   7.022   2.738  10.216  0.5477 -0.6562 -0.2149
28789SOL    HW192459   6.961   2.810  10.200 -0.8102 -1.6989  0.1787
28789SOL    HW292460   7.105   2.782  10.238 -0.7990  0.8501  2.3049
28790SOL     OW92461   1.888   4.318   7.608 -0.0948  0.0056 -0.5905
28790SOL    HW192462   1.850   4.237   7.574 -0.4549 -0.7530  1.4652
28790SOL    HW292463   1.924   4.294   7.694 -2.8165  2.5477  1.4929
28791SOL     OW92464   5.161   5.729   0.449 -0.6614 -0.1945  0.2908
28791SOL    HW192465   5.224   5.710   0.379 -1.3359  0.8645 -0.6521
28791SOL    HW292466   5.187   5.672   0.521  1.2791  0.1001 -0.1164
28792SOL     OW92467   9.812   0.514   9.469 -0.0350 -0.2635 -0.0179
28792SOL    HW192468   9.767   0.593   9.438  0.6562 -0.0218 -0.4474
28792SOL    HW292469   9.828   0.530   9.562  0.4396  0.2820 -0.1853
28793SOL     OW92470   5.617   5.687   0.783 -0.0764  0.2604  0.2220
28793SOL    HW192471   5.563   5.650   0.713 -0.4369  1.0635  0.0661
28793SOL    HW292472   5.574   5.769   0.806  0.9876  0.8474  0.1977
28794SOL     OW92473   9.297   3.246  10.037 -0.4797 -0.1659  0.3639
28794SOL    HW192474   9.217   3.198  10.062 -0.4773  0.0861  0.8547
28794SOL    HW292475   9.290   3.254   9.942 -1.8227  1.2099  0.5303
28795SOL     OW92476   6.948   7.665   9.913  0.4902 -0.3865  0.0732
28795SOL    HW192477   6.924   7.605   9.843  0.6037  2.1460 -2.2867
28795SOL    HW292478   7.031   7.704   9.885  1.0773 -0.0007  2.1402
28796SOL     OW92479   9.712   6.558   7.672 -0.1670  0.1163 -0.0200
28796SOL    HW192480   9.794   6.526   7.708 -0.3304  0.0566  0.2999
28796SOL    HW292481   9.675   6.483   7.626  0.2839  0.3337 -0.7473
28797SOL     OW92482   3.688   9.163   5.572 -0.1880 -0.1007 -0.2890
28797SOL    HW192483   3.610   9.107   5.568  1.5620 -2.8286  1.0070
28797SOL    HW292484   3.722   9.151   5.661  3.3196 -1.4361 -1.6395
28798SOL     OW92485   6.768   7.666   8.550  0.0431 -0.2160  0.0029
28798SOL    HW192486   6.769   7.616   8.467 -0.7438 -0.1197 -0.0728
28798SOL    HW292487   6.821   7.613   8.610  1.9801  0.4890 -0.9850
28799SOL     OW92488   2.417   4.898   2.532 -0.5885 -0.2636  0.3852
28799SOL    HW192489   2.461   4.818   2.562 -1.5032 -0.3225  1.6619
28799SOL    HW292490   2.329   4.869   2.509 -0.6370  0.2191 -0.0349
28800SOL     OW92491   4.566   7.989  10.782 -0.2325  0.1605  0.2245
28800SOL    HW192492   4.520   8.070  10.803 -0.3805  0.0388  0.3814
28800SOL    HW292493   4.603   7.960  10.866 -0.5952 -0.1861  0.2676
28801SOL     OW92494   1.621   0.726   4.510  0.0372  0.4298  0.0100
28801SOL    HW192495   1.636   0.633   4.491 -1.9087  0.2581 -0.9348
28801SOL    HW292496   1.665   0.773   4.439  3.1555  0.4355  1.7905
28802SOL     OW92497   0.294   0.363   7.717 -0.0543 -0.0568 -0.1666
28802SOL    HW192498   0.294   0.456   7.739  0.1333 -0.3206  0.9697
28802SOL    HW292499   0.233   0.323   7.779 -0.4833 -0.6403 -0.9372
28803SOL     OW92500  10.284   1.480   9.892  0.3846 -0.2661  0.1387
28803SOL    HW192501  10.337   1.451   9.966  3.0350  0.9581 -1.1626
28803SOL    HW292502  10.238   1.558   9.924  1.0474 -0.0895  0.6833
28804SOL     OW92503   8.621   1.757   6.938  0.5623 -0.3269  0.3002
28804SOL    HW192504   8.677   1.761   6.860 -0.6249  0.9932 -0.5239
28804SOL    HW292505   8.611   1.848   6.965 -0.0307 -0.6731  1.2928
28805SOL     OW92506   1.539   4.869   1.457 -0.1246 -0.0652  0.6402
28805SOL    HW192507   1.477   4.898   1.390 -1.7376 -1.2526  1.5469
28805SOL    HW292508   1.555   4.777   1.436  2.5231  0.5275 -0.3974
28806SOL     OW92509   3.427   1.431  10.816  0.1508  0.1114 -0.0830
28806SOL    HW192510   3.478   1.356  10.786  1.3626  0.4906  0.9319
28806SOL    HW292511   3.443   1.498  10.751  1.2387  0.3264  0.3818
28807SOL     OW92512  10.293   4.767   9.136 -0.3759 -0.2176  0.4758
28807SOL    HW192513  10.376   4.770   9.089 -0.7444  0.3451 -0.1553
28807SOL    HW292514  10.247   4.690   9.101 -1.3109  1.0592 -1.2745
28808SOL     OW92515   6.555   8.299   6.720 -0.5220 -0.3247 -0.1044
28808SOL    HW192516   6.481   8.266   6.769  0.0009 -0.5728  0.5349
28808SOL    HW292517   6.538   8.392   6.708 -1.5449 -0.6101 -1.0808
28809SOL     OW92518   9.279   6.693  10.247 -0.9203  0.9291 -0.7318
28809SOL    HW192519   9.191   6.688  10.286 -0.9720  0.5810 -0.8873
28809SOL    HW292520   9.333   6.733  10.315 -0.8943 -0.1685 -0.0880
28810SOL     OW92521  10.386   7.509   8.336  0.3618  0.3260 -0.2178
28810SOL    HW192522  10.426   7.470   8.258 -0.5396 -0.9804 -0.0579
28810SOL    HW292523  10.460   7.529   8.393  0.9554  0.1881 -0.9225
28811SOL     OW92524   9.098   2.266   9.028  0.2773 -0.0761 -0.4318
28811SOL    HW192525   9.085   2.188   8.974 -0.6346 -1.8136  2.1678
28811SOL    HW292526   9.161   2.240   9.095  1.3589  2.0135 -0.5276
28812SOL     OW92527   8.958   2.656   8.342 -0.0715  0.0652  0.1449
28812SOL    HW192528   8.956   2.616   8.255 -0.1416  0.6317 -0.1164
28812SOL    HW292529   9.045   2.695   8.349  0.7041 -1.7253  1.1366
28813SOL     OW92530   4.600   4.010  10.022  0.0452  0.2265  0.2053
28813SOL    HW192531   4.622   4.094  10.061  0.2367  0.5855 -0.6344
28813SOL    HW292532   4.557   4.033   9.939  1.1990 -0.4857 -0.6258
28814SOL     OW92533   7.633   8.367   5.509  0.0272 -0.2712  0.1424
28814SOL    HW192534   7.642   8.424   5.433  1.6298 -0.1590  0.3974
28814SOL    HW292535   7.687   8.408   5.576 -0.2403 -1.1389  0.9020
28815SOL     OW92536   5.145   7.352   0.107  0.4246 -0.1367  0.1646
28815SOL    HW192537   5.154   7.269   0.060 -0.4687  0.6972 -1.5604
28815SOL    HW292538   5.165   7.418   0.041  2.0992  1.0447  1.7452
28816SOL     OW92539  10.185   0.628   9.130  0.3951 -0.1698  0.0238
28816SOL    HW192540  10.235   0.546   9.129 -1.4362 -1.3599  0.4572
28816SOL    HW292541  10.196   0.662   9.219  2.0193  0.6458 -0.4651
28817SOL     OW92542   9.921  10.525   8.965 -0.1606  0.2452  0.8197
28817SOL    HW192543   9.981  10.575   9.021  1.7197  1.5490 -2.1348
28817SOL    HW292544   9.872  10.592   8.916 -1.5951 -0.8397  0.7077
28818SOL     OW92545   0.722   7.796   9.196  0.3384 -0.3501  0.0955
28818SOL    HW192546   0.804   7.842   9.211 -0.4665  1.3780 -0.5023
28818SOL    HW292547   0.699   7.816   9.106 -0.9001 -0.5344  0.3473
28819SOL     OW92548   5.648   2.737   4.002 -0.5161  0.9089 -0.1439
28819SOL    HW192549   5.591   2.814   4.011 -1.3186  0.1133  2.4347
28819SOL    HW292550   5.589   2.663   4.012  0.6317 -0.0012  0.0294
28820SOL     OW92551   7.462   0.937   7.516 -0.0632  0.0783  0.8264
28820SOL    HW192552   7.452   0.853   7.473 -1.0569  0.1775  0.8543
28820SOL    HW292553   7.530   0.982   7.465 -0.3045 -0.3091  0.1524
28821SOL     OW92554   4.632  10.308   3.920 -0.0653 -0.3542  0.1624
28821SOL    HW192555   4.587  10.328   3.838  0.9069  0.5145 -0.1871
28821SOL    HW292556   4.587  10.361   3.986 -0.8504 -1.0559  0.2172
28822SOL     OW92557   7.561  10.571   9.695 -0.4649 -0.0316 -0.1214
28822SOL    HW192558   7.639  10.602   9.742 -1.1539  0.4295  0.7393
28822SOL    HW292559   7.535  10.492   9.742  0.5982 -1.3101 -1.5971
28823SOL     OW92560   8.871   8.817   3.655  0.4826  0.1725 -0.0355
28823SOL    HW192561   8.964   8.826   3.677  0.6029  0.0987 -0.5117
28823SOL    HW292562   8.852   8.896   3.604 -0.0064  0.7660  1.0258
28824SOL     OW92563   4.028   1.444   6.970  0.7281 -0.5100 -0.6696
28824SOL    HW192564   3.961   1.434   6.903  0.3292 -1.0405 -0.2072
28824SOL    HW292565   4.041   1.355   7.004  1.5620 -0.3890 -0.6513
28825SOL     OW92566   4.225  10.296   4.035  0.4906  0.7653 -0.7443
28825SOL    HW192567   4.183  10.381   4.047 -0.2129  0.1226  2.4412
28825SOL    HW292568   4.153  10.234   4.026  0.9963  0.4422 -3.1986
28826SOL     OW92569   8.589  10.226   4.559  0.4218 -0.2157 -0.0757
28826SOL    HW192570   8.534  10.213   4.637  1.1630 -1.3345  0.2769
28826SOL    HW292571   8.585  10.143   4.513  4.3811 -1.5722  1.6279
28827SOL     OW92572   7.717   3.123   4.591 -0.4753  0.7680  0.0162
28827SOL    HW192573   7.705   3.041   4.638 -2.0644  1.3213  0.6326
28827SOL    HW292574   7.741   3.096   4.502 -3.1416 -0.4957 -0.4278
28828SOL     OW92575  10.401   8.234   8.399  0.1157  0.4191  0.3547
28828SOL    HW192576  10.358   8.308   8.356 -1.2834 -0.5710 -0.0059
28828SOL    HW292577  10.333   8.168   8.407  0.1315  0.6687  4.5919
28829SOL     OW92578   6.435   2.099   5.853  0.5199 -0.7684 -0.2829
28829SOL    HW192579   6.460   2.078   5.762 -2.4801 -2.0809 -0.9322
28829SOL    HW292580   6.364   2.037   5.873 -0.8268  1.3274  1.9649
28830SOL     OW92581   3.022  10.693   7.799  0.6735 -0.1682 -0.3881
28830SOL    HW192582   3.061  10.635   7.734 -1.7150 -0.0378 -2.0430
28830SOL    HW292583   3.046  10.781   7.771  0.3549 -0.1500 -0.6024
28831SOL     OW92584   9.213   1.620   7.437 -0.0722 -0.1397  0.2521
28831SOL    HW192585   9.214   1.551   7.371 -0.6983  1.0738 -1.0713
28831SOL    HW292586   9.159   1.689   7.399 -0.7732  0.4485  2.2019
28832SOL     OW92587   8.186   9.846   5.641  0.1495  0.1130  0.0039
28832SOL    HW192588   8.143   9.932   5.640 -1.8078 -0.8209 -1.4525
28832SOL    HW292589   8.191   9.823   5.733 -2.9136  0.1285  0.2787
28833SOL     OW92590   3.838  10.400   6.895  0.1108  0.0397  0.1387
28833SOL    HW192591   3.806  10.309   6.891 -1.7145  0.6721 -2.1961
28833SOL    HW292592   3.845  10.426   6.803  1.2722  2.0725  0.7544
28834SOL     OW92593   7.721   7.565   5.706 -0.5223  0.4055  0.2724
28834SOL    HW192594   7.807   7.599   5.682 -0.6680  0.8698  0.4029
28834SOL    HW292595   7.660   7.620   5.657 -0.8072  1.0657  1.3398
28835SOL     OW92596   5.455   6.234   2.884  0.2151  0.7105  0.5220
28835SOL    HW192597   5.443   6.194   2.798 -1.6835  2.7875 -0.2848
28835SOL    HW292598   5.460   6.160   2.944 -1.8185 -0.8001 -1.0097
28836SOL     OW92599   9.690   1.370   4.966 -0.1948 -0.2879 -0.4222
28836SOL    HW192600   9.602   1.407   4.959 -0.2713 -0.2569  0.5821
28836SOL    HW292601   9.737   1.406   4.890 -0.0919  2.4096  0.7712
28837SOL     OW92602   8.010   6.453  10.020  0.4390 -0.4681 -0.0325
28837SOL    HW192603   8.045   6.373   9.982  0.0703 -0.2808 -0.7859
28837SOL    HW292604   7.971   6.425  10.103  0.3478 -1.0637 -0.2723
28838SOL     OW92605   7.614   3.631   6.354  0.0778  0.5678  0.1816
28838SOL    HW192606   7.662   3.712   6.368  0.5093  0.4038 -0.3022
28838SOL    HW292607   7.645   3.599   6.269  2.6258 -1.9530  1.8992
28839SOL     OW92608  10.119   7.652   2.474 -0.2778  0.5425  0.4091
28839SOL    HW192609  10.169   7.578   2.439  0.3817  0.5645  1.2771
28839SOL    HW292610  10.035   7.648   2.427  0.9154  1.2042 -1.9207
28840SOL     OW92611   4.466   5.997   4.845  0.2230  0.6874  0.3294
28840SOL    HW192612   4.456   6.032   4.933 -0.4192  0.4804  0.3420
28840SOL    HW292613   4.380   5.961   4.823  0.8420 -0.8959  0.3267
28841SOL     OW92614   7.809   3.344   8.746 -0.2824  0.2597 -0.3655
28841SOL    HW192615   7.807   3.328   8.652  2.1260 -0.2830 -0.3795
28841SOL    HW292616   7.775   3.264   8.785 -1.0891  0.4052 -0.7521
28842SOL     OW92617   5.109   4.787   2.972 -0.1230  0.0969  0.3559
28842SOL    HW192618   5.163   4.866   2.966  0.3618 -0.2183  0.5190
28842SOL    HW292619   5.145   4.739   3.046 -0.9876  0.1477  0.8258
28843SOL     OW92620   7.173   4.834   0.837  0.5297 -0.0326 -0.1025
28843SOL    HW192621   7.198   4.822   0.746 -0.5181 -3.3581 -0.0696
28843SOL    HW292622   7.080   4.856   0.834  0.3622 -0.6779  0.1524
28844SOL     OW92623   1.831   8.410   7.676 -0.5613  0.2248  0.1329
28844SOL    HW192624   1.813   8.355   7.752 -1.7616 -1.1078 -1.0423
28844SOL    HW292625   1.914   8.376   7.641 -0.1811  0.6211  0.6275
28845SOL     OW92626   9.552   1.973   8.413  0.1405 -0.2973  0.2957
28845SOL    HW192627   9.487   1.908   8.437  1.3984 -1.4126  0.7821
28845SOL    HW292628   9.613   1.927   8.356 -0.7401  1.3347 -2.1393
28846SOL     OW92629   9.180   4.654   0.348  0.2823 -0.2247  0.1117
28846SOL    HW192630   9.135   4.725   0.302  0.2964 -1.2490 -1.5724
28846SOL    HW292631   9.110   4.603   0.388 -0.3464 -2.3709 -3.2968
28847SOL     OW92632   7.590   4.655   0.380 -0.0412  0.2863 -0.0085
28847SOL    HW192633   7.544   4.637   0.298 -1.3359 -0.0821  0.7822
28847SOL    HW292634   7.529   4.628   0.449  0.8160  1.0731  1.0946
28848SOL     OW92635   9.016  10.438   4.735  0.2259  0.3217  0.7159
28848SOL    HW192636   8.997  10.443   4.829 -0.6817  1.1393  0.5066
28848SOL    HW292637   9.051  10.525   4.713  2.5574 -0.5369  0.6995
28849SOL     OW92638   5.436   8.503   9.849 -0.4182  0.1962  0.1648
28849SOL    HW192639   5.481   8.423   9.875  1.2774  1.0653  0.0431
28849SOL    HW292640   5.454   8.512   9.756 -0.0631  1.0386  0.3062
28850SOL     OW92641   9.620   8.674   2.707 -0.5319 -0.0882  0.1034
28850SOL    HW192642   9.590   8.679   2.798 -0.9198  0.4451 -0.0524
28850SOL    HW292643   9.715   8.674   2.714 -0.5554  0.3015  0.4962
28851SOL     OW92644   8.348   0.671   8.999 -0.1993 -0.1933 -0.9808
28851SOL    HW192645   8.283   0.602   9.013 -0.7124  0.5755  0.7348
28851SOL    HW292646   8.328   0.737   9.065  2.3210  0.0949 -0.3798
28852SOL     OW92647   1.616   5.066   0.072  0.2022  0.4019 -0.7052
28852SOL    HW192648   1.627   5.086   0.165 -0.6222  0.0406 -0.5163
28852SOL    HW292649   1.641   4.973   0.065  3.2243  1.1769 -1.4251
28853SOL     OW92650   9.632  10.844   2.581 -0.6230  0.0565 -0.3038
28853SOL    HW192651   9.631  10.750   2.600 -0.8891 -0.4415 -2.4574
28853SOL    HW292652   9.555  10.858   2.525 -0.6844  1.5927  0.1287
28854SOL     OW92653   2.275   5.738   1.837 -0.1279  0.0418 -0.8183
28854SOL    HW192654   2.358   5.753   1.882 -1.6091  1.4375  1.6801
28854SOL    HW292655   2.284   5.782   1.753  1.3924  0.8359 -0.2677
28855SOL     OW92656   0.076   4.611   9.966 -0.6076  0.1436  0.8205
28855SOL    HW192657   0.131   4.538   9.992 -1.6206 -1.9040 -2.1736
28855SOL    HW292658   0.126   4.656   9.897 -1.6562 -0.3712 -0.3289
28856SOL     OW92659   2.036   2.293   7.570 -0.6324  0.1079 -0.6621
28856SOL    HW192660   2.038   2.388   7.556  0.7962  0.0697 -0.8311
28856SOL    HW292661   2.016   2.257   7.483  4.7122  0.0424 -2.2100
28857SOL     OW92662   5.216   9.654   6.556  0.1024  0.1885  0.4016
28857SOL    HW192663   5.207   9.559   6.552  0.1380  0.1938  0.2251
28857SOL    HW292664   5.296   9.673   6.507 -0.2771  0.3740 -0.1409
28858SOL     OW92665   4.595   2.939   9.810  0.7415  0.1045  0.3092
28858SOL    HW192666   4.600   2.847   9.783 -2.2404  0.2653 -1.2357
28858SOL    HW292667   4.542   2.981   9.742  1.3100  2.8018  1.4131
28859SOL     OW92668   5.510   2.405  10.310  0.1867  0.3198  0.4866
28859SOL    HW192669   5.536   2.314  10.296 -0.0081  0.5034 -1.3816
28859SOL    HW292670   5.593   2.452  10.319  0.2727 -0.1272  2.2778
28860SOL     OW92671   8.917   0.421   1.045  0.0871 -0.3367  0.8445
28860SOL    HW192672   8.835   0.379   1.019  0.6083 -1.1046  0.3869
28860SOL    HW292673   8.946   0.468   0.967 -0.6380  1.1611  1.4387
28861SOL     OW92674   2.853   6.159   5.950 -0.0427 -0.2469  0.0141
28861SOL    HW192675   2.872   6.249   5.977 -1.6451 -0.5637  2.4451
28861SOL    HW292676   2.903   6.104   6.010 -0.2139 -1.0115 -0.5202
28862SOL     OW92677   6.251   5.097   4.816  0.2906 -0.7085  0.1342
28862SOL    HW192678   6.195   5.172   4.836 -1.0891 -1.7308  0.2326
28862SOL    HW292679   6.243   5.086   4.721  2.0915  0.4666 -0.1958
28863SOL     OW92680   8.904   7.785   3.188  0.0117  0.3543 -0.6109
28863SOL    HW192681   8.843   7.783   3.262  0.7790 -0.2997  0.0165
28863SOL    HW292682   8.968   7.716   3.207  1.1386  1.2400 -1.0951
28864SOL     OW92683   1.662   1.304  10.897 -0.1598 -0.1484 -0.2674
28864SOL    HW192684   1.576   1.344  10.903  0.1369  0.3764  0.6762
28864SOL    HW292685   1.705   1.327  10.979 -0.3798 -3.3731  0.8860
28865SOL     OW92686   8.540   8.824   1.976  0.0419  0.2971 -0.2122
28865SOL    HW192687   8.482   8.787   1.909  1.7297 -0.6210 -1.2577
28865SOL    HW292688   8.489   8.894   2.017 -2.2241 -1.2788 -0.1830
28866SOL     OW92689   8.347   2.679   8.970  0.4975  0.7225  0.2519
28866SOL    HW192690   8.322   2.766   8.942  2.1380  1.1543  0.0597
28866SOL    HW292691   8.344   2.626   8.891 -1.4336  0.3202  0.5242
28867SOL     OW92692   4.970   5.590   9.291  0.3022 -0.4020 -0.7775
28867SOL    HW192693   4.971   5.641   9.372 -0.6726  0.4477 -1.2822
28867SOL    HW292694   4.942   5.503   9.319  1.6276 -0.6058  0.0349
28868SOL     OW92695   7.498   1.684   3.206  0.0015 -0.3387 -0.3969
28868SOL    HW192696   7.417   1.730   3.185  1.0489  0.4497 -3.1128
28868SOL    HW292697   7.473   1.621   3.274 -2.1911  1.8789  1.0217
28869SOL     OW92698   7.659   6.987   6.345 -0.2328 -0.7104  0.1587
28869SOL    HW192699   7.749   6.955   6.339 -0.3107 -1.8368  3.0308
28869SOL    HW292700   7.606   6.916   6.309 -0.0776 -1.2709  1.0018
28870SOL     OW92701   7.687   3.266   7.695 -0.5352 -0.2713 -0.1263
28870SOL    HW192702   7.601   3.307   7.703  0.3183  1.4423  0.7736
28870SOL    HW292703   7.741   3.309   7.762  1.2788 -0.5786 -1.3060
28871SOL     OW92704   9.083  10.602   8.836 -0.0459  0.1939 -0.4163
28871SOL    HW192705   9.079  10.507   8.831 -1.6442  0.1681  0.4453
28871SOL    HW292706   9.008  10.626   8.891  0.3421  1.9470 -0.5839
28872SOL     OW92707   6.282   2.628   0.161 -0.2980  0.5398 -0.0648
28872SOL    HW192708   6.264   2.628   0.067 -0.9483  0.2660  0.0485
28872SOL    HW292709   6.359   2.572   0.172 -0.6360  0.0037 -0.3706
28873SOL     OW92710   8.924   4.456   8.715  0.5321 -0.1434  0.5481
28873SOL    HW192711   8.847   4.402   8.729  1.9677 -2.3674  0.3185
28873SOL    HW292712   8.950   4.439   8.624  2.2415 -0.8123  1.1132
28874SOL     OW92713  10.191   8.669   3.830 -0.2443 -0.4432  0.7309
28874SOL    HW192714  10.160   8.598   3.886 -0.8911 -1.1711 -0.5088
28874SOL    HW292715  10.260   8.629   3.777 -1.1635 -0.3853 -0.5416
28875SOL     OW92716   1.302   2.557   7.416  0.3655  0.7045  0.7249
28875SOL    HW192717   1.257   2.481   7.453 -0.0816 -0.2162 -1.5517
28875SOL    HW292718   1.346   2.597   7.491 -0.3780 -1.0849  2.2077
28876SOL     OW92719   0.576   0.967   0.707 -0.8108  0.4938  0.3150
28876SOL    HW192720   0.599   0.904   0.776 -1.2619  0.3707  0.3538
28876SOL    HW292721   0.573   1.051   0.752  0.8162  0.7199  0.0703
28877SOL     OW92722  10.410  10.588   5.070 -0.5440  0.2181 -0.1892
28877SOL    HW192723  10.375  10.609   4.984  0.6349  0.9169 -0.5245
28877SOL    HW292724  10.438  10.497   5.064 -0.4522  0.2695 -0.5508
28878SOL     OW92725   2.785   6.266   6.282  0.8909  0.4186  0.7915
28878SOL    HW192726   2.784   6.328   6.208  1.1188 -0.3030  0.1659
28878SOL    HW292727   2.730   6.193   6.253  2.5596 -0.7920  0.4828
28879SOL     OW92728   4.019   9.846  10.144  0.2541 -0.0663 -0.0988
28879SOL    HW192729   3.957   9.825  10.074 -1.3437 -0.0786  1.2324
28879SOL    HW292730   4.021   9.942  10.147 -0.8613 -0.0391  0.7549
28880SOL     OW92731   9.468   6.795   0.351  0.0209 -0.3066 -1.4508
28880SOL    HW192732   9.435   6.712   0.385  1.2360  0.0382  0.7583
28880SOL    HW292733   9.563   6.784   0.349  0.4892  1.8024  1.4582
28881SOL     OW92734   8.263   4.340   8.432 -0.3140 -0.2526  0.2155
28881SOL    HW192735   8.290   4.248   8.440 -3.2636 -1.4301 -1.6325
28881SOL    HW292736   8.181   4.345   8.482  1.5953  2.4675  3.4758
28882SOL     OW92737   0.995   9.705   5.515 -0.3318 -0.8782  0.1547
28882SOL    HW192738   1.003   9.610   5.514 -1.1429 -0.9600 -2.0692
28882SOL    HW292739   0.908   9.722   5.550 -1.1524 -1.0894 -1.6933
28883SOL     OW92740   3.956   9.087  10.364  0.0761  0.2198 -0.3956
28883SOL    HW192741   4.027   9.077  10.301  0.7690  0.9732  0.2512
28883SOL    HW292742   3.984   9.036  10.440  0.2620  1.1220  0.1411
28884SOL     OW92743   5.796   2.789   0.582 -0.4543 -0.3238 -0.2869
28884SOL    HW192744   5.851   2.834   0.518  0.1664 -0.7306 -0.0453
28884SOL    HW292745   5.731   2.854   0.608 -0.4073 -0.0026 -0.9603
28885SOL     OW92746   3.906   8.543   7.012 -0.3188 -0.5597  0.2959
28885SOL    HW192747   3.858   8.587   7.082  0.8411 -1.0328  1.4305
28885SOL    HW292748   3.851   8.469   6.988 -1.6183  0.6838 -0.6394
28886SOL     OW92749  10.849   1.187   8.610 -0.1003  0.1776 -0.6407
28886SOL    HW192750  10.789   1.129   8.657 -0.8155  0.6901 -0.8884
28886SOL    HW292751  10.906   1.223   8.677  0.1180 -0.5351 -0.4381
28887SOL     OW92752   1.249   2.860   5.151 -0.5433 -0.3967 -0.5606
28887SOL    HW192753   1.311   2.867   5.224 -0.0654 -0.5789 -0.9486
28887SOL    HW292754   1.251   2.947   5.110 -0.1419 -0.5631 -0.8974
28888SOL     OW92755   8.029   4.485   8.832 -0.2188 -0.0553 -0.2082
28888SOL    HW192756   7.946   4.437   8.824 -0.6233  0.2730  1.6396
28888SOL    HW292757   8.056   4.470   8.922  1.1592  0.7944 -0.4683
28889SOL     OW92758   4.670   7.462   4.267 -0.5282 -0.2916  0.1145
28889SOL    HW192759   4.687   7.551   4.299  0.7239 -0.2245 -0.6690
28889SOL    HW292760   4.621   7.474   4.186 -1.8824 -0.3966  0.8880
28890SOL     OW92761   4.756   3.716   2.518 -0.5862 -0.2591  0.6700
28890SOL    HW192762   4.762   3.727   2.613 -1.6004  0.7522  0.6323
28890SOL    HW292763   4.762   3.621   2.505  0.0187 -0.3726  1.7052
28891SOL     OW92764   4.262   3.832   1.712 -0.0237 -0.1185  0.3935
28891SOL    HW192765   4.335   3.789   1.667 -0.2337 -0.2621  0.1844
28891SOL    HW292766   4.194   3.840   1.644 -0.2520 -0.1166  0.6222
28892SOL     OW92767   0.599   5.703   6.505 -0.3377 -0.9780  0.8721
28892SOL    HW192768   0.583   5.627   6.448  1.3630 -0.3211 -0.5597
28892SOL    HW292769   0.671   5.675   6.562 -0.3241 -0.7546  0.9643
28893SOL     OW92770   8.297   5.218   9.075  0.5967  0.2884 -0.2887
28893SOL    HW192771   8.218   5.170   9.098  0.3556  0.0627 -1.5353
28893SOL    HW292772   8.307   5.282   9.145 -0.1287 -0.3322  0.4059
28894SOL     OW92773  10.505   5.231  10.462  0.1180  0.5036  0.2566
28894SOL    HW192774  10.592   5.268  10.448  0.0399  0.1792 -1.2689
28894SOL    HW292775  10.521   5.137  10.471  0.0849  0.6226  1.8204
28895SOL     OW92776   5.695   6.696   3.642 -0.3512  0.2647  0.1060
28895SOL    HW192777   5.737   6.627   3.694  0.0125  1.2814  1.2050
28895SOL    HW292778   5.698   6.663   3.552 -1.1025 -1.5970  0.7183
28896SOL     OW92779   3.425   5.565   6.837  0.6968  0.0921  0.1905
28896SOL    HW192780   3.343   5.613   6.825  0.8163  0.3696  0.4602
28896SOL    HW292781   3.435   5.515   6.757  0.2242 -0.0011  0.1837
28897SOL     OW92782   0.503   9.259   7.564  0.2072  0.2769  0.4382
28897SOL    HW192783   0.555   9.180   7.574  0.4863  0.3480 -0.4210
28897SOL    HW292784   0.555   9.327   7.607 -0.2362 -0.0677  1.5690
28898SOL     OW92785   4.056   0.325   0.608 -0.5594 -0.4748  0.4264
28898SOL    HW192786   4.060   0.377   0.527  0.8049 -1.1746  0.0107
28898SOL    HW292787   3.977   0.355   0.652 -0.1367  1.5321 -0.0791
28899SOL     OW92788   3.495   2.424   4.419 -0.1166 -0.5861 -0.2223
28899SOL    HW192789   3.472   2.512   4.448 -0.9494 -1.1323  0.8893
28899SOL    HW292790   3.509   2.432   4.325 -0.2807  0.7050 -0.1566
28900SOL     OW92791   8.632   7.441   6.975  0.0453 -0.4788 -0.0433
28900SOL    HW192792   8.660   7.438   6.883 -0.0426 -0.9530 -0.0573
28900SOL    HW292793   8.713   7.426   7.025  0.2195  0.4610 -0.0166
28901SOL     OW92794   5.398   0.745   1.982  0.0535  0.1065  0.1792
28901SOL    HW192795   5.310   0.756   1.945  0.7558  2.2600 -1.0670
28901SOL    HW292796   5.456   0.747   1.906  1.2630  0.0110  1.0751
28902SOL     OW92797   7.658   8.681   2.285 -0.3377  0.1959  0.1488
28902SOL    HW192798   7.612   8.732   2.218 -0.7998 -0.9257 -0.4161
28902SOL    HW292799   7.604   8.691   2.364 -0.3346  0.6962  0.0931
28903SOL     OW92800   3.777   0.513   9.508  0.8808 -0.3995  0.4102
28903SOL    HW192801   3.848   0.454   9.534  0.8329  0.0331  1.5787
28903SOL    HW292802   3.752   0.558   9.589 -0.7524 -0.5647  0.0353
28904SOL     OW92803   0.236   8.240   8.484 -0.1837 -0.2679  0.1287
28904SOL    HW192804   0.277   8.304   8.541 -1.0057  2.6196 -2.2426
28904SOL    HW292805   0.289   8.240   8.405 -0.8317 -1.7498 -0.3535
28905SOL     OW92806   4.987   1.190   2.632  0.3454 -0.5439 -0.3568
28905SOL    HW192807   4.931   1.256   2.592  0.7544 -1.1391 -1.9976
28905SOL    HW292808   4.944   1.169   2.715 -1.6576 -0.6869 -1.3657
28906SOL     OW92809   3.957   0.084   5.500 -0.0705 -0.1779 -0.1423
28906SOL    HW192810   4.038   0.121   5.464 -0.2729  1.3745  0.9032
28906SOL    HW292811   3.986   0.019   5.564  0.3020 -1.2274 -1.3351
28907SOL     OW92812   4.812   4.672   0.093  0.2899  0.7265  0.2026
28907SOL    HW192813   4.895   4.659   0.047 -0.1004  1.9295 -0.8639
28907SOL    HW292814   4.803   4.593   0.146  2.2499  0.6802  0.5635
28908SOL     OW92815   1.740   1.418   6.918 -0.5356  0.0213  0.4110
28908SOL    HW192816   1.675   1.474   6.961  0.0086 -0.4534  1.9065
28908SOL    HW292817   1.728   1.332   6.958  1.5572  0.1138  1.3490
28909SOL     OW92818   6.304   5.760  10.132  0.5873  0.0413  0.2372
28909SOL    HW192819   6.362   5.684  10.125 -1.9570 -2.4022  2.8886
28909SOL    HW292820   6.251   5.757  10.053 -0.8649 -2.3692  1.1905
28910SOL     OW92821   4.223   7.213   6.327  0.0550 -0.6015  0.2388
28910SOL    HW192822   4.309   7.220   6.285 -0.1926 -1.4516 -0.4411
28910SOL    HW292823   4.221   7.124   6.362 -1.6980 -1.7443 -2.4302
28911SOL     OW92824   7.500   1.075   8.030 -0.0167 -0.9478  0.3111
28911SOL    HW192825   7.591   1.098   8.011 -0.6530  1.4675 -0.0537
28911SOL    HW292826   7.466   1.043   7.946  0.1872 -0.7983  0.1698
28912SOL     OW92827   2.670   3.050   5.912 -0.1614 -0.4054 -0.1689
28912SOL    HW192828   2.764   3.058   5.895 -0.5650  0.7506 -2.0698
28912SOL    HW292829   2.639   2.990   5.845 -0.6402 -1.7279  1.1756
28913SOL     OW92830   0.182   3.740   8.388 -0.0059 -0.5423 -0.5689
28913SOL    HW192831   0.256   3.801   8.383  1.4382 -2.2582 -1.1359
28913SOL    HW292832   0.206   3.678   8.456 -1.4930 -0.4743  0.0650
28914SOL     OW92833   0.945  10.035   0.394  0.5500 -0.4087  0.2677
28914SOL    HW192834   0.949   9.939   0.395  0.7375 -0.4756  3.0949
28914SOL    HW292835   0.863  10.055   0.350 -0.1467 -1.9637  0.7637
28915SOL     OW92836   2.984   7.448  10.189  0.6070  0.1649 -0.0003
28915SOL    HW192837   2.955   7.413  10.273  2.0968 -1.2340 -0.0206
28915SOL    HW292838   2.908   7.496  10.156 -1.4523 -2.6584  0.2709
28916SOL     OW92839   1.012   6.211   5.339 -0.6782  0.0323  0.0135
28916SOL    HW192840   0.925   6.171   5.335 -0.4731 -0.4876  0.5955
28916SOL    HW292841   1.055   6.183   5.258 -0.4385 -1.1809  0.5357
28917SOL     OW92842   2.293   4.574   4.222 -0.4550  0.4980  0.8217
28917SOL    HW192843   2.198   4.565   4.227 -0.4982 -1.0537 -1.3353
28917SOL    HW292844   2.326   4.510   4.284 -0.7904  0.9752  1.5101
28918SOL     OW92845   4.101   7.261   7.626  0.0020  0.1797 -0.2152
28918SOL    HW192846   4.082   7.206   7.550  0.8928 -2.8831  1.5851
28918SOL    HW292847   4.017   7.265   7.673  0.0208  0.0309 -0.1676
28919SOL     OW92848   3.060  10.784   9.110 -0.5487  0.3427  0.6831
28919SOL    HW192849   3.077  10.730   9.187 -0.1106  0.3273  0.5783
28919SOL    HW292850   2.967  10.770   9.091 -0.1520 -1.4511 -0.1449
28920SOL     OW92851   9.638   9.158   8.458  0.3548  0.1039 -0.2021
28920SOL    HW192852   9.557   9.113   8.481 -0.2515  1.7349  1.0839
28920SOL    HW292853   9.702   9.126   8.522  0.4945 -0.5376 -0.6636
28921SOL     OW92854   0.484   3.222   2.715  0.2179  0.1428 -0.0374
28921SOL    HW192855   0.425   3.147   2.720 -0.8523  0.8924 -0.8143
28921SOL    HW292856   0.473   3.267   2.799 -0.0428  0.0699 -0.0314
28922SOL     OW92857   8.661  10.652   1.422  0.3366 -0.1053 -0.1817
28922SOL    HW192858   8.627  10.740   1.443 -0.4170 -0.7582  1.5873
28922SOL    HW292859   8.753  10.656   1.447  0.5834  0.4869 -1.1408
28923SOL     OW92860   6.294   1.258  10.268  0.0558  0.4619 -0.1427
28923SOL    HW192861   6.304   1.234  10.360  0.2064 -1.2647 -0.5795
28923SOL    HW292862   6.200   1.251  10.252  0.1951 -0.8081 -0.4989
28924SOL     OW92863   7.427  10.769   2.467 -0.3361  0.7965 -0.7450
28924SOL    HW192864   7.341  10.735   2.493  0.0427 -1.2032 -1.8971
28924SOL    HW292865   7.488  10.703   2.498  0.9615  2.6887  0.9911
28925SOL     OW92866   3.175   3.798  10.317  0.7208  0.4468 -0.7427
28925SOL    HW192867   3.083   3.815  10.297  0.0865 -0.6836  0.9750
28925SOL    HW292868   3.209   3.883  10.346  0.0697  0.7563 -0.8677
28926SOL     OW92869   6.704   0.668   3.354  0.1310 -0.7362 -0.4670
28926SOL    HW192870   6.766   0.650   3.425 -1.2063  2.1291  1.6545
28926SOL    HW292871   6.759   0.685   3.278  1.9793  0.9133  1.1324
28927SOL     OW92872   3.339   9.150   4.528 -0.4405  0.6174  0.2890
28927SOL    HW192873   3.331   9.170   4.435  0.2049 -0.3877 -0.0011
28927SOL    HW292874   3.250   9.128   4.555 -0.5393  0.3364 -0.2414
28928SOL     OW92875   4.759   3.243   7.599  0.4933  0.5193  0.4176
28928SOL    HW192876   4.851   3.244   7.572  0.0549  2.7513 -1.2597
28928SOL    HW292877   4.763   3.244   7.695  2.2730  2.2773  0.4051
28929SOL     OW92878   7.632   6.327   6.029 -0.2807 -0.9290 -0.0371
28929SOL    HW192879   7.612   6.250   6.082  1.1002 -0.1697  1.7163
28929SOL    HW292880   7.698   6.375   6.080 -0.2628  0.8395 -1.5887
28930SOL     OW92881   0.355   7.965   1.249  0.7548 -1.3331 -0.3784
28930SOL    HW192882   0.351   7.934   1.159  1.7707 -1.9620 -0.2241
28930SOL    HW292883   0.266   7.996   1.268  0.4807 -1.3802 -1.5200
28931SOL     OW92884   7.480   6.207   9.420  0.1050  0.1452 -0.2453
28931SOL    HW192885   7.512   6.121   9.392  0.0230  0.1276 -0.2848
28931SOL    HW292886   7.426   6.189   9.497 -1.3150 -0.0349 -1.2450
28932SOL     OW92887   0.043   5.735  10.447  0.1177 -0.0124  0.2442
28932SOL    HW192888  -0.048   5.716  10.427  0.2598  0.3465 -0.8002
28932SOL    HW292889   0.059   5.691  10.531 -1.0816  0.1605  0.5836
28933SOL     OW92890   5.134   1.636   1.248 -0.2758 -0.0869 -0.1350
28933SOL    HW192891   5.063   1.577   1.219  0.4570 -0.6737 -0.7905
28933SOL    HW292892   5.184   1.585   1.311 -0.7075  0.5027  0.7062
28934SOL     OW92893   4.864   3.158   6.996  0.2357  0.3490 -0.2288
28934SOL    HW192894   4.888   3.184   6.907 -0.7720 -1.1176 -0.9822
28934SOL    HW292895   4.819   3.234   7.032  0.9165  1.0677 -0.8568
28935SOL     OW92896   7.129   7.351   1.915  0.2205 -0.2549  0.9421
28935SOL    HW192897   7.082   7.433   1.923  0.4771 -0.1355  1.2422
28935SOL    HW292898   7.078   7.300   1.852  0.3038  0.3007  0.4168
28936SOL     OW92899  10.738   0.988   7.730  0.3360 -0.5790 -0.7056
28936SOL    HW192900  10.706   1.008   7.642  0.0082 -0.0261 -0.4708
28936SOL    HW292901  10.658   0.974   7.781  0.5023 -0.3407 -0.3774
28937SOL     OW92902   7.747   1.451   5.056 -0.4175  0.1395 -0.1636
28937SOL    HW192903   7.731   1.441   4.962 -1.0302 -0.9232  0.0404
28937SOL    HW292904   7.686   1.521   5.083  0.9895  1.6935 -0.8496
28938SOL     OW92905   0.085   8.706   1.659 -0.4909  0.1994  0.0776
28938SOL    HW192906   0.036   8.694   1.740 -0.4224  1.5538  0.3403
28938SOL    HW292907   0.169   8.743   1.687 -0.5026  0.7615 -0.6047
28939SOL     OW92908   6.342   1.134  10.516 -0.1819 -0.1468 -0.0601
28939SOL    HW192909   6.381   1.061  10.564  2.4468  0.0926 -1.5962
28939SOL    HW292910   6.358   1.210  10.571 -0.9346 -0.4067  0.5344
28940SOL     OW92911   4.724   5.324   4.011 -0.2627 -0.0752  0.1804
28940SOL    HW192912   4.811   5.328   4.049 -0.5199 -1.3227  0.9741
28940SOL    HW292913   4.693   5.414   4.010  1.1205  0.4117 -0.3420
28941SOL     OW92914   7.916   1.832   0.219 -0.0932  0.0780 -0.0650
28941SOL    HW192915   7.842   1.774   0.234 -0.4958 -0.2678 -2.9133
28941SOL    HW292916   7.992   1.774   0.213 -0.3128 -0.0715 -1.6890
28942SOL     OW92917   1.540   6.969   3.207  1.0704 -0.5607 -0.0491
28942SOL    HW192918   1.575   7.050   3.171 -0.7295  1.6766  2.8353
28942SOL    HW292919   1.608   6.939   3.268  0.8213  0.0849  0.5645
28943SOL     OW92920   6.689   7.174   0.729  0.1880 -0.1776 -0.4830
28943SOL    HW192921   6.720   7.263   0.744  1.0416 -0.5645  0.1694
28943SOL    HW292922   6.769   7.121   0.729 -0.4769 -1.4918  3.1344
28944SOL     OW92923  10.755   4.255   7.871 -0.3877  0.3846  0.0674
28944SOL    HW192924  10.734   4.167   7.840  0.7552 -0.2701  1.0345
28944SOL    HW292925  10.841   4.245   7.912 -1.1913  1.4582  2.1710
28945SOL     OW92926   2.372   2.577   6.007  0.1793  0.6913  0.0748
28945SOL    HW192927   2.330   2.594   5.923 -0.3364 -1.3193 -0.1113
28945SOL    HW292928   2.402   2.487   6.001  1.1111  0.8582  1.6614
28946SOL     OW92929   3.700   4.487   2.424  0.1111  0.2060  0.2908
28946SOL    HW192930   3.759   4.554   2.389  1.1830 -1.1396 -0.5660
28946SOL    HW292931   3.757   4.428   2.473 -0.7557 -0.3549  0.6502
28947SOL     OW92932   2.787   4.712  10.748  0.3813 -0.0031 -0.0560
28947SOL    HW192933   2.728   4.645  10.782 -0.0939 -0.2097 -1.2636
28947SOL    HW292934   2.730   4.785  10.723  0.5490 -0.3810 -1.6568
28948SOL     OW92935   8.441   1.186   7.030  0.2537 -0.1692 -0.0886
28948SOL    HW192936   8.427   1.207   7.123 -3.1983 -0.3689 -0.4675
28948SOL    HW292937   8.378   1.117   7.010  1.3799 -0.6239 -2.4709
28949SOL     OW92938  10.869   7.633   7.654  0.7305 -0.0478 -0.4098
28949SOL    HW192939  10.796   7.648   7.594  0.0449  1.4867  0.7464
28949SOL    HW292940  10.939   7.688   7.621  0.6668  0.0746 -0.3406
28950SOL     OW92941   6.675   4.939   0.954 -0.0110  0.4294  0.0927
28950SOL    HW192942   6.605   4.987   0.910 -1.0699  1.3025  2.5474
28950SOL    HW292943   6.751   4.997   0.948 -0.2511  0.7231 -0.1805
28951SOL     OW92944  10.755   3.640   5.878  0.3909 -0.2987 -0.1690
28951SOL    HW192945  10.718   3.727   5.865  0.6202 -0.4391 -2.0154
28951SOL    HW292946  10.687   3.580   5.847  0.6175 -0.7394  0.1723
28952SOL     OW92947   0.574   9.827   7.265 -0.2461  0.5144 -0.4694
28952SOL    HW192948   0.553   9.921   7.259 -0.8090  0.3355 -1.6541
28952SOL    HW292949   0.526   9.788   7.192  1.7181 -0.4052 -1.3232
28953SOL     OW92950   4.188   2.050   9.449 -0.4955 -0.6959 -0.8781
28953SOL    HW192951   4.105   2.049   9.401 -0.4709 -0.4422 -0.9310
28953SOL    HW292952   4.252   2.081   9.385 -0.4886 -0.2137 -0.6404
28954SOL     OW92953   6.279   7.835   7.720 -0.3668  0.4219  0.4074
28954SOL    HW192954   6.213   7.769   7.701  0.3726 -0.1258 -0.3267
28954SOL    HW292955   6.323   7.850   7.636  0.1578  1.0970  0.7883
28955SOL     OW92956   1.025   5.055   5.337 -0.1372  0.3131 -0.2441
28955SOL    HW192957   1.000   5.144   5.310  0.7620  1.0084  1.0824
28955SOL    HW292958   0.970   4.998   5.284 -2.1482  1.6922  0.2066
28956SOL     OW92959   4.512   1.268   8.460 -0.0285 -0.4041 -0.5065
28956SOL    HW192960   4.506   1.316   8.542 -0.6874  0.8174 -1.2357
28956SOL    HW292961   4.595   1.221   8.465  0.5329  0.6359  0.3538
28957SOL     OW92962   5.921   9.203   6.872  0.0753  0.4089  0.0162
28957SOL    HW192963   5.887   9.123   6.914  0.1565 -0.3178 -1.2662
28957SOL    HW292964   5.920   9.268   6.942 -1.7122 -0.2202  0.6408
28958SOL     OW92965   5.608  10.902   2.009  0.6313  0.2153 -0.0535
28958SOL    HW192966   5.665  10.879   1.936  2.3269  1.2742  0.8778
28958SOL    HW292967   5.664  10.896   2.087  0.0362  3.0164  0.7100
28959SOL     OW92968   6.132   7.369   1.746 -0.4322  0.0947 -0.3453
28959SOL    HW192969   6.132   7.294   1.804 -0.2816  0.2923 -0.0903
28959SOL    HW292970   6.153   7.443   1.802  0.4292  0.1896 -0.7828
28960SOL     OW92971   4.932   6.481   7.107 -0.1346 -0.0506  0.0185
28960SOL    HW192972   4.961   6.411   7.165 -0.6766 -0.9569 -0.7732
28960SOL    HW292973   4.943   6.445   7.019 -1.1012  0.5936 -0.3773
28961SOL     OW92974   0.216   7.467   3.160 -0.6279 -0.0047 -0.2640
28961SOL    HW192975   0.272   7.522   3.215 -0.2235 -0.3849 -0.2840
28961SOL    HW292976   0.259   7.468   3.074  0.1023 -1.3552  0.0499
28962SOL     OW92977   2.870   0.493   5.689 -0.5178  0.2164 -0.1622
28962SOL    HW192978   2.809   0.546   5.638 -1.8656 -1.1562 -0.0267
28962SOL    HW292979   2.905   0.429   5.627 -2.0994 -1.4057  0.5417
28963SOL     OW92980   2.955   0.279   1.972 -0.0041 -0.4680 -0.0301
28963SOL    HW192981   3.000   0.361   1.988  1.0535 -1.1589  0.6554
28963SOL    HW292982   2.963   0.230   2.054  1.6249 -2.2690 -1.1616
28964SOL     OW92983   1.112   3.675   3.838 -0.1229  0.4888 -0.1369
28964SOL    HW192984   1.147   3.755   3.878  0.0050  1.0072 -1.2452
28964SOL    HW292985   1.017   3.690   3.837 -0.2542 -0.0980  1.1352
28965SOL     OW92986   0.266   1.611   1.351 -0.2141  0.0341  0.2253
28965SOL    HW192987   0.307   1.539   1.302 -0.3509  0.3355 -0.3461
28965SOL    HW292988   0.269   1.583   1.442  0.0746 -0.5306  0.0477
28966SOL     OW92989   9.072   7.811   7.384 -0.2390 -0.8491  0.4864
28966SOL    HW192990   8.996   7.845   7.431  0.3897 -0.2581  1.0955
28966SOL    HW292991   9.040   7.732   7.341 -2.1630  1.1258 -2.0930
28967SOL     OW92992   1.033   2.447   4.109 -0.1578 -0.1621 -0.3156
28967SOL    HW192993   0.992   2.411   4.031 -2.2838  1.7711 -0.1976
28967SOL    HW292994   0.988   2.404   4.182  0.7412 -0.8274 -0.1365
28968SOL     OW92995   8.105   3.613  10.849  0.4197 -0.1441  0.0490
28968SOL    HW192996   8.099   3.683  10.785 -1.2022 -2.2525 -2.2815
28968SOL    HW292997   8.159   3.546  10.807  0.6092 -0.9687  1.5416
28969SOL     OW92998   7.844   7.204   8.057  0.4866 -0.3477 -0.1407
28969SOL    HW192999   7.798   7.241   7.982  0.8104 -1.3439 -0.8539
28969SOL    HW293000   7.930   7.179   8.023  0.7427 -0.5704  0.6315
28970SOL     OW93001  10.438   9.280   4.791 -0.7534 -0.0560 -0.0977
28970SOL    HW193002  10.347   9.256   4.775 -0.4960 -0.7205 -0.6371
28970SOL    HW293003  10.458   9.245   4.877 -0.9371 -0.1370 -0.0888
28971SOL     OW93004   6.766   5.998   0.936  0.4572 -0.0249  0.0620
28971SOL    HW193005   6.717   6.041   1.006  0.9939  0.3042  0.2408
28971SOL    HW293006   6.773   6.064   0.867 -2.4163 -1.1620 -1.4988
28972SOL     OW93007   5.474   3.390  10.768  0.1884  0.2334  0.4090
28972SOL    HW193008   5.447   3.444  10.843  1.8569 -0.3172  1.4567
28972SOL    HW293009   5.426   3.308  10.779  0.8745 -0.0735  1.2481
28973SOL     OW93010   7.874  10.810   4.396 -0.4162  0.1590  0.0380
28973SOL    HW193011   7.941  10.781   4.458 -1.2069 -0.6137  0.5660
28973SOL    HW293012   7.916  10.879   4.346  0.4719  0.3420  0.9898
28974SOL     OW93013   0.219   9.602   4.646  0.2670  0.0766 -0.5149
28974SOL    HW193014   0.154   9.592   4.577  1.1752 -0.5223 -1.2946
28974SOL    HW293015   0.167   9.602   4.727 -0.7508  0.2368 -1.1479
28975SOL     OW93016   2.788   7.600   9.254  0.1836 -0.1250 -0.2557
28975SOL    HW193017   2.780   7.506   9.241  0.1683 -0.2717  0.7510
28975SOL    HW293018   2.731   7.619   9.328 -0.1494  0.7526 -0.7238
28976SOL     OW93019   6.446   5.113   1.422  0.4994 -0.2848 -0.5186
28976SOL    HW193020   6.496   5.048   1.373  1.0348  0.0918 -0.4808
28976SOL    HW293021   6.413   5.174   1.356  2.9141  1.3983 -0.3106
28977SOL     OW93022   8.995   0.463   5.231 -0.3813 -0.0711  0.2521
28977SOL    HW193023   8.946   0.545   5.221 -0.5754 -0.0461  1.3347
28977SOL    HW293024   9.082   0.484   5.198 -0.2660  0.7539  1.0326
28978SOL     OW93025   5.485   8.073   8.575 -0.4661 -0.5064  0.3682
28978SOL    HW193026   5.432   8.009   8.527 -0.9036  1.3959 -1.8405
28978SOL    HW293027   5.575   8.047   8.556 -0.6309 -0.6959 -0.1873
28979SOL     OW93028   2.858   4.197   9.580  0.3553  0.0581  0.0459
28979SOL    HW193029   2.923   4.260   9.610  1.7738 -0.9565 -0.7546
28979SOL    HW293030   2.799   4.248   9.524  1.5977  0.6731 -0.7628
28980SOL     OW93031   5.480   8.679   1.634 -0.0055 -0.3301  0.0181
28980SOL    HW193032   5.562   8.725   1.615 -0.2394 -0.2910 -0.9303
28980SOL    HW293033   5.497   8.588   1.610 -0.2757 -0.3016 -0.2835
28981SOL     OW93034   5.973   4.272   9.364 -0.2454  0.0059 -0.1420
28981SOL    HW193035   6.030   4.349   9.368 -1.4244  0.9669 -1.1527
28981SOL    HW293036   6.018   4.207   9.418  1.3750  1.0020 -0.1998
28982SOL     OW93037   2.435   2.555   6.999  0.2276 -0.7498 -0.2655
28982SOL    HW193038   2.513   2.499   6.995  0.3007 -0.6243 -0.5483
28982SOL    HW293039   2.367   2.497   7.033  0.5530 -0.7391  0.4275
28983SOL     OW93040   3.963   9.725   7.372 -0.1106  0.1823  0.2547
28983SOL    HW193041   4.036   9.730   7.434  1.8776 -2.5132 -1.6290
28983SOL    HW293042   3.897   9.672   7.418 -0.9646  2.5387  1.9241
28984SOL     OW93043   6.580   9.440   6.393  0.3381  0.1466  0.2324
28984SOL    HW193044   6.567   9.450   6.299 -0.5951 -2.4171 -0.0036
28984SOL    HW293045   6.531   9.512   6.432  0.3569  0.9830 -1.2103
28985SOL     OW93046   4.312   4.779   9.947 -0.1681 -0.1241 -0.0959
28985SOL    HW193047   4.288   4.858   9.996  0.6890  1.2719 -1.8351
28985SOL    HW293048   4.232   4.726   9.946 -1.1188  1.2522  0.1071
28986SOL     OW93049   0.341  10.732   9.805 -0.1904 -0.6833 -0.4823
28986SOL    HW193050   0.411  10.771   9.753  0.3126 -0.6138  0.2297
28986SOL    HW293051   0.265  10.788   9.791  0.3576  0.2203  0.0536
28987SOL     OW93052   9.370   8.902   7.364  0.6513 -0.1952 -0.3526
28987SOL    HW193053   9.449   8.950   7.389 -0.1644  0.3439  1.4024
28987SOL    HW293054   9.337   8.949   7.287  0.0147  2.0314  1.1567
28988SOL     OW93055   3.355   3.625   1.459 -0.6262 -0.1384 -0.9036
28988SOL    HW193056   3.392   3.708   1.429 -0.6253 -0.3179 -1.4060
28988SOL    HW293057   3.313   3.646   1.543  1.7791 -0.1934  0.4295
28989SOL     OW93058   4.012   5.463  10.700  0.1367  0.0289  0.0239
28989SOL    HW193059   3.940   5.503  10.652 -0.1307  0.3640  0.6870
28989SOL    HW293060   3.970   5.417  10.773  0.5910  0.3391  0.4913
28990SOL     OW93061   0.158   8.465   3.462  0.0308 -0.3703 -0.0643
28990SOL    HW193062   0.170   8.413   3.383 -0.7457 -1.1066  0.2917
28990SOL    HW293063   0.180   8.406   3.534  0.0186  0.0674  0.3083
28991SOL     OW93064   6.864   8.031   2.999  0.3819  0.3820  0.3289
28991SOL    HW193065   6.902   8.110   2.959 -0.5234 -0.1850 -1.7647
28991SOL    HW293066   6.779   8.060   3.033 -0.1104  0.2800 -0.7588
28992SOL     OW93067   2.505   0.431   2.353  0.2108 -0.3207  0.1314
28992SOL    HW193068   2.569   0.363   2.372  0.4863  0.3406  1.6820
28992SOL    HW293069   2.442   0.389   2.294  1.5046 -1.2697 -0.6111
28993SOL     OW93070   9.188   6.964   8.063  0.2994  0.9063  0.0275
28993SOL    HW193071   9.267   7.017   8.058  1.0177 -0.1267  0.2303
28993SOL    HW293072   9.189   6.926   8.151 -0.4475  0.9162  0.0511
28994SOL     OW93073   5.745   8.664   5.875 -0.2669  0.0285 -0.2898
28994SOL    HW193074   5.828   8.629   5.841  0.6032  1.0817  0.6425
28994SOL    HW293075   5.680   8.638   5.811  0.8168 -0.6584 -1.1633
28995SOL     OW93076   6.953  10.500   3.455  0.1342 -0.3775  0.4973
28995SOL    HW193077   6.998  10.461   3.530  0.3154 -0.6390  0.2524
28995SOL    HW293078   7.011  10.483   3.381 -0.7408 -1.4378  0.0273
28996SOL     OW93079  10.312   1.008  10.556  0.1035  0.1306  0.2675
28996SOL    HW193080  10.259   0.978  10.630 -1.5086  2.3400  0.0953
28996SOL    HW293081  10.402   1.003  10.588 -0.5731  1.6065  2.6938
28997SOL     OW93082   6.104   1.398   7.966  0.5749  0.0011 -0.4767
28997SOL    HW193083   6.078   1.470   7.907 -0.3803 -0.8257 -1.0947
28997SOL    HW293084   6.067   1.320   7.926  1.3215 -0.8074  0.3709
28998SOL     OW93085   7.139   2.590   3.817 -0.0367 -0.1131  0.3868
28998SOL    HW193086   7.102   2.650   3.752  2.6736  0.5806 -0.6854
28998SOL    HW293087   7.108   2.624   3.901 -0.0397  1.7362 -0.3085
28999SOL     OW93088   2.272   2.411   3.548 -0.4162 -0.5850 -0.4916
28999SOL    HW193089   2.236   2.403   3.459  1.9282  1.6341 -1.7883
28999SOL    HW293090   2.196   2.432   3.603 -1.7186 -0.4511 -2.2417
29000SOL     OW93091   7.156   5.179   8.144  0.1170  0.2617 -0.3101
29000SOL    HW193092   7.206   5.223   8.213  0.7531  0.2877 -0.7790
29000SOL    HW293093   7.131   5.095   8.182  0.6622  0.1782 -0.1224
29001SOL     OW93094   5.010   9.210   7.907 -0.0862  0.5571  0.5181
29001SOL    HW193095   5.096   9.191   7.943 -0.3330  0.5585  1.1200
29001SOL    HW293096   4.975   9.125   7.882  0.2103  0.5870 -0.0221
29002SOL     OW93097   4.162   6.327   8.127  0.9560 -0.0011  0.4365
29002SOL    HW193098   4.085   6.313   8.182  1.5571  0.6946  1.4789
29002SOL    HW293099   4.155   6.260   8.059 -0.4960 -0.0359  0.5856
29003SOL     OW93100   5.651   8.859   3.184 -0.4495 -0.2763 -0.1168
29003SOL    HW193101   5.606   8.812   3.114 -2.3031  0.1616  0.7255
29003SOL    HW293102   5.589   8.927   3.211 -0.6197 -1.5203  3.1307
29004SOL     OW93103   5.090   3.312   3.782 -0.4204 -0.2695 -0.2799
29004SOL    HW193104   5.063   3.393   3.825  0.9192 -0.7707  1.6642
29004SOL    HW293105   5.039   3.244   3.825  0.8960 -0.7777  0.5457
29005SOL     OW93106   5.507   9.815   4.406 -0.4392 -0.5624 -0.3689
29005SOL    HW193107   5.488   9.794   4.497  0.6389 -0.3119 -0.0752
29005SOL    HW293108   5.536   9.732   4.367 -0.3329 -0.5430 -0.3302
29006SOL     OW93109   9.836   3.455   7.452  0.2715  0.3985  0.2086
29006SOL    HW193110   9.834   3.420   7.363 -0.3226 -1.5866  0.9575
29006SOL    HW293111   9.773   3.402   7.500  1.5101  0.5794  2.1130
29007SOL     OW93112  10.494  10.213   3.272  0.3075  0.5025 -0.0812
29007SOL    HW193113  10.514  10.249   3.186  1.0559 -0.7499 -0.4670
29007SOL    HW293114  10.573  10.164   3.296 -0.0325  0.5357  1.1531
29008SOL     OW93115  10.186   8.279   5.059  0.4616 -0.0297  0.2842
29008SOL    HW193116  10.181   8.199   5.111 -2.3978  0.3126  0.6986
29008SOL    HW293117  10.124   8.264   4.988  1.1295  1.2024 -0.5804
29009SOL     OW93118   8.030   9.082   2.016  0.2484  0.5700  0.1750
29009SOL    HW193119   8.067   9.007   1.971  2.2775  2.0449 -0.7612
29009SOL    HW293120   7.971   9.122   1.952 -0.1850  0.2571  0.3757
29010SOL     OW93121   1.964   8.708   5.635 -0.4984 -0.4402  0.3375
29010SOL    HW193122   1.952   8.683   5.544  0.6887  0.6340 -0.1560
29010SOL    HW293123   1.908   8.785   5.647 -0.4499 -0.4185  0.4324
29011SOL     OW93124   2.142  10.210   0.396 -0.2559 -0.7223 -0.0432
29011SOL    HW193125   2.103  10.123   0.398 -0.4915 -0.6077  0.6051
29011SOL    HW293126   2.078  10.266   0.440 -0.6741  0.0203 -1.5460
29012SOL     OW93127   2.892   2.148   3.702  0.1047  0.4294  0.3269
29012SOL    HW193128   2.950   2.199   3.646 -0.0059  0.5243  0.2988
29012SOL    HW293129   2.946   2.123   3.777  0.2595  0.2816  0.1667
29013SOL     OW93130   4.639   4.942   9.123 -0.4145 -0.2076 -0.2530
29013SOL    HW193131   4.573   5.001   9.087 -0.4574 -0.5971 -0.8093
29013SOL    HW293132   4.718   4.996   9.127  0.4391 -0.9663 -3.8543
29014SOL     OW93133  10.166  10.758   9.943  0.2632 -0.0838  0.0120
29014SOL    HW193134  10.226  10.733  10.014 -0.3139 -0.7215  0.2812
29014SOL    HW293135  10.149  10.851   9.958 -1.1242 -0.5562  1.6968
29015SOL     OW93136   1.142   5.296   4.539 -0.2361 -0.0258  0.4561
29015SOL    HW193137   1.236   5.277   4.547 -0.3659 -0.3336  1.3007
29015SOL    HW293138   1.139   5.377   4.488  0.3702 -1.5646 -2.2073
29016SOL     OW93139  10.857   0.794   2.060 -0.0385 -0.0455 -0.2314
29016SOL    HW193140  10.875   0.741   1.982 -1.2101 -0.8550  0.0430
29016SOL    HW293141  10.772   0.764   2.091 -0.0359  0.9636  0.7997
29017SOL     OW93142   6.137   6.745   6.260 -0.0998 -0.6174 -0.3701
29017SOL    HW193143   6.188   6.723   6.338 -0.5206 -0.6269 -0.0937
29017SOL    HW293144   6.196   6.800   6.208  0.4999 -1.3436 -0.4676
29018SOL     OW93145   5.734   3.478   0.080  0.1224 -0.4956 -0.2171
29018SOL    HW193146   5.742   3.512   0.169  0.0163  0.4847 -0.5685
29018SOL    HW293147   5.739   3.383   0.090 -2.1284 -0.5500  1.0833
29019SOL     OW93148   3.821   9.344   8.725  0.6079 -0.2723  0.3701
29019SOL    HW193149   3.873   9.335   8.645 -0.3271 -0.8050 -0.1945
29019SOL    HW293150   3.844   9.268   8.778 -0.7917 -1.4431 -0.6090
29020SOL     OW93151   2.047   9.590   4.103 -0.3362  0.2262 -0.7823
29020SOL    HW193152   2.098   9.562   4.179 -3.0612 -0.1131  1.0802
29020SOL    HW293153   2.104   9.573   4.028  2.1788 -0.2217  1.0764
29021SOL     OW93154  10.312   8.012   5.284  0.7931  0.4863 -0.0028
29021SOL    HW193155  10.326   7.946   5.216  1.2028  0.8186 -0.2471
29021SOL    HW293156  10.265   7.965   5.353  1.5535 -0.1968  0.0588
29022SOL     OW93157   3.580   0.396   9.132  0.3506  0.1303  0.0743
29022SOL    HW193158   3.674   0.398   9.153  0.5939 -0.1234 -0.9660
29022SOL    HW293159   3.566   0.312   9.089 -0.4209  0.0364  0.4916
29023SOL     OW93160   1.690   7.224  10.867  0.3613 -0.4093 -0.4060
29023SOL    HW193161   1.632   7.152  10.843 -0.6882  0.3359 -0.2259
29023SOL    HW293162   1.652   7.300  10.823 -0.5549  0.6692  2.0631
29024SOL     OW93163  10.203  10.331   4.268  0.2950 -0.0890 -0.1430
29024SOL    HW193164  10.211  10.237   4.250  1.3851  0.2576 -1.6574
29024SOL    HW293165  10.121  10.356   4.225  1.1498  0.0622 -1.7459
29025SOL     OW93166   6.399   3.495   7.445 -0.3667  0.4286  0.0579
29025SOL    HW193167   6.326   3.436   7.428 -0.3436 -0.0350  1.4411
29025SOL    HW293168   6.403   3.552   7.369 -0.9165 -0.8258 -0.9372
29026SOL     OW93169   1.016   1.775   3.907  0.1707 -0.5087 -0.7625
29026SOL    HW193170   1.109   1.770   3.884  0.2023  0.3787 -0.8672
29026SOL    HW293171   1.005   1.710   3.976  0.9819 -0.2472 -0.3780
29027SOL     OW93172   8.591  10.784  10.116 -0.4227 -0.4304  0.0439
29027SOL    HW193173   8.648  10.753  10.045 -2.1028 -1.3800 -0.9403
29027SOL    HW293174   8.633  10.865  10.146  1.0877 -0.7471 -1.0830
29028SOL     OW93175   3.132   9.271  10.887  0.4530 -0.0117  0.0989
29028SOL    HW193176   3.127   9.179  10.913 -0.3043  0.4619  1.7324
29028SOL    HW293177   3.206   9.306  10.937 -0.6426  0.7648  1.2377
29029SOL     OW93178   3.476   5.113   9.419 -0.5547  0.3360 -0.0149
29029SOL    HW193179   3.385   5.124   9.448 -1.6334 -0.7859 -2.6622
29029SOL    HW293180   3.499   5.024   9.446 -0.2858  0.5634  0.5148
29030SOL     OW93181   8.138   0.968   4.406  0.3020  0.9023  0.2178
29030SOL    HW193182   8.162   1.036   4.469  1.6224  1.3591 -0.7396
29030SOL    HW293183   8.094   1.015   4.335 -0.1460  0.5457  0.2533
29031SOL     OW93184   8.137   6.756   1.767 -0.0800 -0.4059  0.3035
29031SOL    HW193185   8.221   6.770   1.723 -0.8926  2.3956 -0.5411
29031SOL    HW293186   8.155   6.778   1.859  0.0440  0.6448  0.0421
29032SOL     OW93187   7.473   3.808   2.558  0.0643 -0.1436  0.0092
29032SOL    HW193188   7.399   3.787   2.615 -0.7127  0.6170 -0.7075
29032SOL    HW293189   7.453   3.762   2.476 -0.0245  0.7184 -0.4576
29033SOL     OW93190   9.172   3.579   0.115  0.1906  0.4338  0.0573
29033SOL    HW193191   9.261   3.543   0.123  1.4151  2.7440 -1.6717
29033SOL    HW293192   9.135   3.534   0.039  0.3653  0.3444  0.0249
29034SOL     OW93193   0.021   2.260   1.806  0.3652 -0.2901 -0.0255
29034SOL    HW193194   0.104   2.280   1.762  0.8137 -1.6923  0.1245
29034SOL    HW293195  -0.042   2.318   1.765  1.6513  1.8609  0.8577
29035SOL     OW93196   4.835   6.632  10.500 -0.2508 -0.2753  0.2545
29035SOL    HW193197   4.792   6.642  10.416 -0.3290  3.9920  0.6176
29035SOL    HW293198   4.773   6.582  10.554 -1.1084 -1.1996 -1.5278
29036SOL     OW93199   2.611   3.816   7.921 -0.3496  0.5641  0.9424
29036SOL    HW193200   2.668   3.764   7.978  0.9427 -0.7629 -1.4101
29036SOL    HW293201   2.658   3.898   7.910 -0.4153  0.6753  1.4425
29037SOL     OW93202   7.458   4.325   2.491  0.4311  0.4187 -0.4387
29037SOL    HW193203   7.418   4.377   2.560  0.6403  0.2261 -0.1734
29037SOL    HW293204   7.473   4.239   2.530 -2.0925 -0.6382 -1.5600
29038SOL     OW93205   3.479   8.584   2.677  0.1741 -1.0860  0.3446
29038SOL    HW193206   3.425   8.511   2.707  0.8148 -1.1395  1.3982
29038SOL    HW293207   3.426   8.662   2.695 -0.0532 -1.2142  0.2352
29039SOL     OW93208  10.270   0.558   5.190  0.4112 -0.2310  0.1547
29039SOL    HW193209  10.207   0.623   5.159 -0.3873 -1.0075  0.1387
29039SOL    HW293210  10.302   0.516   5.111  1.5706  0.6963  0.0964
29040SOL     OW93211   8.682   1.620   9.224  0.8811 -0.0947 -0.2563
29040SOL    HW193212   8.663   1.695   9.168  0.0517  0.8963  1.2887
29040SOL    HW293213   8.699   1.548   9.162 -1.7886  0.4740 -1.8438
29041SOL     OW93214   1.702   9.528   1.598 -0.9528  0.8767 -0.1552
29041SOL    HW193215   1.620   9.535   1.646 -0.4590  2.4460  0.5473
29041SOL    HW293216   1.719   9.617   1.568 -0.2259  0.2963 -1.5269
29042SOL     OW93217   7.795   9.488   3.773  0.0339  0.5230 -0.6551
29042SOL    HW193218   7.879   9.453   3.803  0.5073 -0.1829 -2.6109
29042SOL    HW293219   7.771   9.553   3.839  0.9412 -0.9025  1.1778
29043SOL     OW93220   3.241   7.866  10.689  0.6198 -0.3798  0.0115
29043SOL    HW193221   3.314   7.889  10.746  0.1862  0.5607  0.1967
29043SOL    HW293222   3.162   7.885  10.740  0.2221 -1.7650 -0.0326
29044SOL     OW93223  10.071   0.611  10.588 -0.4353  0.2267  0.2245
29044SOL    HW193224  10.051   0.528  10.544  0.7968  0.6635 -1.2503
29044SOL    HW293225  10.013   0.675  10.546  0.6367  0.6156 -0.7314
29045SOL     OW93226   0.024   1.772   7.379 -0.3506 -0.0133 -0.6160
29045SOL    HW193227  -0.033   1.736   7.447 -0.0296  0.4953 -0.0736
29045SOL    HW293228  -0.031   1.774   7.300  0.2811 -4.0033 -1.3724
29046SOL     OW93229   5.081   3.403   6.297 -0.2712 -0.8804  0.8519
29046SOL    HW193230   5.023   3.472   6.263  0.3746  0.4831  2.3810
29046SOL    HW293231   5.169   3.441   6.292  0.2276 -2.0395  0.6910
29047SOL     OW93232   5.204   4.258   8.843  0.2373 -0.2558 -0.4967
29047SOL    HW193233   5.182   4.166   8.863 -1.1432 -0.0971 -1.1524
29047SOL    HW293234   5.131   4.308   8.879  0.3328  0.4694 -1.2838
29048SOL     OW93235   7.674   5.989   0.346  0.2666  0.4382  0.0055
29048SOL    HW193236   7.744   5.946   0.298 -0.5222 -1.1216  0.1820
29048SOL    HW293237   7.714   6.014   0.430  0.5216 -0.8495  0.2891
29049SOL     OW93238   3.996   8.059   3.487 -0.3465 -0.3241 -0.0084
29049SOL    HW193239   3.960   8.064   3.575  0.4313 -0.3492  0.3183
29049SOL    HW293240   4.091   8.067   3.499 -0.2717  0.3713 -0.8940
29050SOL     OW93241   5.080   0.539   1.802 -0.0845  0.2113 -0.0965
29050SOL    HW193242   4.987   0.558   1.807 -0.4653 -1.5113  0.0073
29050SOL    HW293243   5.102   0.498   1.886  1.2907  2.5250  0.7708
29051SOL     OW93244   1.558   8.529   8.479 -0.3797 -0.3862 -0.1758
29051SOL    HW193245   1.526   8.439   8.488  0.8068 -1.0665 -2.0061
29051SOL    HW293246   1.485   8.577   8.439 -0.8826 -0.6292  0.4422
29052SOL     OW93247   6.049   7.536  10.208 -0.2086 -0.6388  0.0155
29052SOL    HW193248   5.979   7.470  10.206 -0.3847 -0.4671 -2.2700
29052SOL    HW293249   6.126   7.490  10.175 -0.3562  0.2779 -1.7035
29053SOL     OW93250   8.206   2.353   5.517 -0.2462 -0.0943  0.1955
29053SOL    HW193251   8.191   2.436   5.470 -1.6895 -0.4420 -0.0114
29053SOL    HW293252   8.232   2.380   5.605  0.5916  0.5714 -0.2382
29054SOL     OW93253   5.547   4.311   4.279  0.5467 -0.6250  0.2397
29054SOL    HW193254   5.462   4.321   4.236 -0.2806  0.5942  2.0244
29054SOL    HW293255   5.572   4.400   4.305  2.8153 -0.8265 -0.9820
29055SOL     OW93256   5.168   9.832   2.717  0.4934 -0.5227 -0.2164
29055SOL    HW193257   5.202   9.742   2.715 -0.1677 -0.9792  3.1394
29055SOL    HW293258   5.075   9.821   2.737  0.4446  0.9175  0.4084
29056SOL     OW93259   2.283   6.341   1.082  0.0755  0.6220 -0.2862
29056SOL    HW193260   2.354   6.392   1.123  1.5525  0.3627 -2.4006
29056SOL    HW293261   2.239   6.298   1.156  0.2281  3.0823  1.3630
29057SOL     OW93262  10.635   2.172   0.314 -0.0683  0.4084 -0.0895
29057SOL    HW193263  10.693   2.246   0.293  1.4944 -1.1198 -1.5060
29057SOL    HW293264  10.603   2.142   0.229  0.6066 -1.4970  0.2836
29058SOL     OW93265   5.744   6.734  10.186 -0.3846  0.4526 -0.5168
29058SOL    HW193266   5.675   6.673  10.162  1.2912 -1.4536 -0.7592
29058SOL    HW293267   5.765   6.780  10.104 -1.6859  1.4586 -0.3208
29059SOL     OW93268   4.521   1.172   9.879 -0.5465  0.2166 -0.1356
29059SOL    HW193269   4.571   1.250   9.900 -0.0560  0.4374 -1.9653
29059SOL    HW293270   4.520   1.168   9.783 -0.3600 -2.1288 -0.1145
29060SOL     OW93271   6.028   1.606   0.779  0.3373 -0.0269  0.2908
29060SOL    HW193272   5.945   1.644   0.749 -1.0106 -1.7858  1.5572
29060SOL    HW293273   6.079   1.681   0.809 -0.7042  1.1293 -0.7013
29061SOL     OW93274   6.296   0.474   5.013  0.2417 -0.0807 -0.1995
29061SOL    HW193275   6.229   0.542   5.008 -0.5984 -0.9765 -2.7642
29061SOL    HW293276   6.371   0.510   4.965  0.6827 -0.0503  0.5031
29062SOL     OW93277   3.530  10.278   2.911 -0.0526  0.5305 -0.6764
29062SOL    HW193278   3.503  10.246   2.824  0.9954 -0.9542 -0.4990
29062SOL    HW293279   3.499  10.210   2.972  2.5480 -0.4508 -0.3167
29063SOL     OW93280  10.620   1.850   6.260  0.0116  0.0069 -0.1790
29063SOL    HW193281  10.568   1.929   6.246 -0.0011  0.3436  1.5218
29063SOL    HW293282  10.559   1.778   6.242 -0.4531  0.3858 -0.1477
29064SOL     OW93283   4.502   5.833   1.510  0.1194 -0.5306  0.0665
29064SOL    HW193284   4.410   5.851   1.529  0.3239  0.6875 -0.0012
29064SOL    HW293285   4.548   5.914   1.531  1.2318 -1.2029  0.3643
29065SOL     OW93286   4.935   2.305   9.920  0.2082 -0.1432  0.0475
29065SOL    HW193287   4.991   2.378   9.947  0.6488 -0.6053  0.3941
29065SOL    HW293288   4.914   2.324   9.829  1.3222 -0.1988 -0.2399
29066SOL     OW93289   2.658   6.801   3.975 -0.3070  0.5247  0.3863
29066SOL    HW193290   2.695   6.889   3.968 -0.5052  0.6201  0.5111
29066SOL    HW293291   2.664   6.765   3.886  0.3927  0.4088  0.4789
29067SOL     OW93292   0.164   1.052   5.305  0.0102 -0.4561 -0.0273
29067SOL    HW193293   0.197   1.004   5.228 -0.2146  0.7485 -0.8992
29067SOL    HW293294   0.167   1.144   5.279 -0.6136 -0.0662  1.2149
29068SOL     OW93295   3.113   2.067   7.989 -0.1091  0.4126  0.3198
29068SOL    HW193296   3.036   2.055   7.933  0.4564  0.4867 -0.4932
29068SOL    HW293297   3.186   2.073   7.928  0.8808 -1.9574  1.1268
29069SOL     OW93298   8.804   0.145   9.003 -0.3334  0.5830  0.5341
29069SOL    HW193299   8.844   0.061   8.984  0.7462  1.4456 -1.2927
29069SOL    HW293300   8.873   0.196   9.046 -0.6795  0.8562  0.7815
29070SOL     OW93301   9.023   0.701   0.524 -0.3672  0.1683  0.3503
29070SOL    HW193302   8.997   0.705   0.616  0.3263  0.3068  0.5430
29070SOL    HW293303   9.046   0.610   0.509 -0.0331  0.2393  0.4366
29071SOL     OW93304  10.913   2.373   8.545 -0.2413 -0.8797  0.4814
29071SOL    HW193305  10.935   2.327   8.625 -1.2520 -0.7556  0.8413
29071SOL    HW293306  10.825   2.407   8.560 -0.3473 -0.6457 -0.5832
29072SOL     OW93307   2.611   8.679   3.842 -0.3072  0.3574 -0.2153
29072SOL    HW193308   2.527   8.659   3.883 -1.0190  2.0059 -0.7845
29072SOL    HW293309   2.650   8.745   3.900 -0.5819  1.4836 -1.2739
29073SOL     OW93310   5.069   3.962   3.056  0.2574  0.0581  0.0368
29073SOL    HW193311   5.125   3.931   2.986  0.8030  1.7523 -0.3160
29073SOL    HW293312   5.110   4.042   3.087 -0.7419  0.1146  1.3356
29074SOL     OW93313   7.411   2.105   0.260  0.7452 -0.0433  0.2710
29074SOL    HW193314   7.440   2.194   0.241 -1.2409  0.3340 -1.3014
29074SOL    HW293315   7.391   2.068   0.174 -1.1605 -1.0106  1.0810
29075SOL     OW93316   5.227   6.400   4.501  0.3679  0.3399 -0.0294
29075SOL    HW193317   5.257   6.345   4.428 -1.0457  0.1625 -0.5040
29075SOL    HW293318   5.210   6.338   4.572  0.4481  0.3574  0.0047
29076SOL     OW93319   2.914   7.030   1.729 -0.0494 -0.0466 -0.5020
29076SOL    HW193320   2.913   6.941   1.764 -0.5611  0.1741  0.0584
29076SOL    HW293321   2.856   7.027   1.654  0.9277 -0.4850 -1.2661
29077SOL     OW93322   8.913   8.395   3.692  0.1125  0.5299  0.1120
29077SOL    HW193323   8.885   8.388   3.601  2.4804 -0.0836 -0.6453
29077SOL    HW293324   8.974   8.469   3.692  2.5195 -1.3091  0.4304
29078SOL     OW93325  10.409  10.027   4.042 -0.6065 -0.5635  0.3381
29078SOL    HW193326  10.406  10.033   4.138 -0.2314 -0.5059  0.3463
29078SOL    HW293327  10.336  10.082   4.013  0.5061  1.0802  0.5305
29079SOL     OW93328   1.523   5.968   0.641  0.2875 -0.3785  0.4697
29079SOL    HW193329   1.501   5.901   0.576  1.3758 -1.2818  0.9976
29079SOL    HW293330   1.517   5.923   0.725 -0.3212  0.5669  0.9450
29080SOL     OW93331   7.069   4.268  10.164 -0.7561 -0.3876  0.7293
29080SOL    HW193332   7.067   4.232  10.075 -0.8474 -0.6987  0.8578
29080SOL    HW293333   7.034   4.357  10.154 -2.0929 -0.8996  0.6713
29081SOL     OW93334   8.020  10.453   4.431  0.0140 -0.0895  0.2174
29081SOL    HW193335   8.081  10.509   4.479 -1.3616  1.1942  0.5578
29081SOL    HW293336   8.072  10.417   4.360  1.3002  0.5220  0.8002
29082SOL     OW93337   3.383   7.637   0.490 -0.4461 -0.5561  0.0047
29082SOL    HW193338   3.300   7.610   0.450 -1.2609  1.2844  0.3454
29082SOL    HW293339   3.447   7.631   0.419 -1.1642 -0.6092 -0.6557
29083SOL     OW93340   7.535   5.558   7.799  0.4047 -0.3219  0.0619
29083SOL    HW193341   7.446   5.526   7.814  0.6097 -0.0180  2.2018
29083SOL    HW293342   7.565   5.510   7.722 -1.8678  0.1549 -1.2081
29084SOL     OW93343   5.568   2.504   2.795  0.1969 -0.6595 -0.1477
29084SOL    HW193344   5.550   2.432   2.734 -2.6770  0.8909 -1.3157
29084SOL    HW293345   5.602   2.575   2.741  0.2971 -0.1844  0.5189
29085SOL     OW93346   1.465   4.867   0.291  0.2448  0.3118 -0.0722
29085SOL    HW193347   1.516   4.800   0.246 -1.2361  0.0226 -1.4361
29085SOL    HW293348   1.487   4.949   0.245  2.3413  0.9105  1.8341
29086SOL     OW93349   0.954   2.721  10.290 -0.6806 -0.1902  0.1016
29086SOL    HW193350   0.965   2.816  10.291  0.3344 -0.2904 -0.5016
29086SOL    HW293351   0.884   2.706  10.226  0.1750  0.0770 -0.9309
29087SOL     OW93352   0.985   3.700   5.030 -0.0570 -0.4924 -0.5865
29087SOL    HW193353   1.031   3.617   5.042  0.6958  0.0899  0.6770
29087SOL    HW293354   0.951   3.695   4.940 -2.1655 -3.2085  0.2072
29088SOL     OW93355   5.338   3.642   3.600  0.2268  0.4728 -0.1563
29088SOL    HW193356   5.258   3.690   3.577 -0.2090 -0.3278 -0.3629
29088SOL    HW293357   5.308   3.568   3.653  1.1289  1.7761  2.3361
29089SOL     OW93358   4.441   8.694   3.145 -0.3724  0.3912  0.0466
29089SOL    HW193359   4.502   8.725   3.079 -0.1940  0.3239  0.1770
29089SOL    HW293360   4.489   8.702   3.228 -0.9842  1.5497  0.3198
29090SOL     OW93361   8.607   2.500   3.174  0.1193 -0.1741 -0.0059
29090SOL    HW193362   8.619   2.539   3.087 -2.3520 -1.2918 -0.9311
29090SOL    HW293363   8.694   2.467   3.198  1.8675  3.7833 -0.0989
29091SOL     OW93364   1.565   6.509   5.945 -0.1595  0.0543  0.3910
29091SOL    HW193365   1.659   6.497   5.930 -0.0069  1.8329 -0.2630
29091SOL    HW293366   1.530   6.526   5.858 -1.0180 -0.0713  0.7085
29092SOL     OW93367   6.001  10.586   6.757 -0.1902 -0.9051  0.9198
29092SOL    HW193368   6.056  10.598   6.680  0.5896 -3.9131  0.8672
29092SOL    HW293369   5.960  10.671   6.772 -0.7546 -0.2934 -3.1057
29093SOL     OW93370   6.051   9.329   8.744 -0.3368 -0.5716  0.0189
29093SOL    HW193371   5.991   9.256   8.760 -1.7490  0.6535  0.5219
29093SOL    HW293372   6.028   9.360   8.656 -0.0881 -0.4179  0.0061
29094SOL     OW93373   3.129   1.085   2.387 -0.4582 -0.3400  0.4440
29094SOL    HW193374   3.099   1.118   2.472  0.8657  3.2115 -0.3208
29094SOL    HW293375   3.064   1.116   2.324 -1.5020 -3.0544  0.0231
29095SOL     OW93376   6.174   3.362   7.193  0.2093 -0.3212 -0.2488
29095SOL    HW193377   6.263   3.390   7.214  0.4286 -0.4165 -1.0025
29095SOL    HW293378   6.185   3.295   7.126 -0.4022 -0.8919  0.2122
29096SOL     OW93379   2.396   3.044   6.156 -0.2331 -0.2551 -0.2835
29096SOL    HW193380   2.434   3.130   6.170 -0.6434 -0.0656 -0.3104
29096SOL    HW293381   2.313   3.046   6.205 -1.5752  0.3279 -2.4053
29097SOL     OW93382   2.647   2.522  10.380 -0.0942  0.1292  0.7459
29097SOL    HW193383   2.676   2.517  10.289 -2.2832  1.1537 -0.0765
29097SOL    HW293384   2.687   2.603  10.413  0.0189  0.2060  0.4261
29098SOL     OW93385   5.597   3.348   3.010  0.1787 -0.6583 -0.0884
29098SOL    HW193386   5.540   3.285   2.965  1.1650 -2.5335  1.1382
29098SOL    HW293387   5.685   3.327   2.979  0.4957  0.4585 -0.0020
29099SOL     OW93388   2.255  10.570   5.564 -0.1965  0.6638 -0.4957
29099SOL    HW193389   2.273  10.534   5.477  0.5705 -2.1004  0.7121
29099SOL    HW293390   2.339  10.563   5.610 -0.3427  2.9701  0.2428
29100SOL     OW93391  10.161   1.996   5.989  0.0887 -0.8158 -0.4674
29100SOL    HW193392  10.083   2.032   5.947 -0.3524 -1.6099 -0.3496
29100SOL    HW293393  10.145   2.008   6.083  0.5538 -0.0928 -0.4738
29101SOL     OW93394   0.062   9.741   8.363  0.1170 -0.5387 -0.5972
29101SOL    HW193395   0.127   9.698   8.418  0.8891  0.0450 -1.0281
29101SOL    HW293396   0.110   9.766   8.284 -0.8162 -0.7952 -1.2715
29102SOL     OW93397   7.472   9.109   2.136  0.0210 -0.1507  0.5408
29102SOL    HW193398   7.411   9.169   2.179 -0.9690 -0.5451 -0.2580
29102SOL    HW293399   7.511   9.161   2.066  1.8618  0.5797  2.0580
29103SOL     OW93400   1.920   0.902   7.395 -0.3472 -0.4237 -0.7374
29103SOL    HW193401   1.846   0.841   7.401  0.0740 -0.7765  2.1827
29103SOL    HW293402   1.943   0.921   7.486  0.7469  2.6783 -1.5409
29104SOL     OW93403   3.327   6.659   4.714 -0.3061  0.3538  0.0207
29104SOL    HW193404   3.246   6.676   4.763 -0.8290  0.4982 -0.8798
29104SOL    HW293405   3.364   6.581   4.756 -1.7553 -0.7083 -0.5864
29105SOL     OW93406   1.874   9.147   7.544  0.0894  0.1553  0.0722
29105SOL    HW193407   1.851   9.149   7.637  3.0437 -0.1318  0.9026
29105SOL    HW293408   1.955   9.196   7.538 -1.4495  2.6908 -2.9125
29106SOL     OW93409   5.864  10.730   5.022 -0.1447 -0.1695  0.3329
29106SOL    HW193410   5.877  10.824   5.011 -0.3823 -0.0585  0.9429
29106SOL    HW293411   5.952  10.694   5.023 -0.0890 -0.1678 -1.5631
29107SOL     OW93412   2.784   8.820   5.694 -0.3033 -0.2360  0.1595
29107SOL    HW193413   2.726   8.886   5.655  0.4355  0.3327  0.0001
29107SOL    HW293414   2.779   8.745   5.635 -3.0039 -1.3053  1.5481
29108SOL     OW93415   7.944   9.599   1.054 -0.0118  0.3188 -0.3944
29108SOL    HW193416   7.998   9.528   1.089  0.3760 -0.0697 -1.7129
29108SOL    HW293417   7.985   9.679   1.086  0.2215 -0.0178  0.1644
29109SOL     OW93418   6.516   7.139   1.213 -0.3135  0.0915 -0.5525
29109SOL    HW193419   6.566   7.221   1.215  1.4360 -0.9385  1.3049
29109SOL    HW293420   6.501   7.123   1.120  4.1242 -0.2279 -1.4030
29110SOL     OW93421   1.273   9.738   3.452  0.6924 -0.0428  0.2605
29110SOL    HW193422   1.352   9.786   3.424  1.8667 -1.2077  1.4846
29110SOL    HW293423   1.293   9.646   3.434 -1.3283 -0.1928 -1.5577
29111SOL     OW93424   1.266   0.915   0.700  0.3686  0.5666 -0.6927
29111SOL    HW193425   1.339   0.952   0.650  0.0853  1.0335 -0.7715
29111SOL    HW293426   1.308   0.868   0.772  0.8074 -0.6621 -1.7220
29112SOL     OW93427   0.831   2.256   4.718 -0.0767  0.0759  0.0287
29112SOL    HW193428   0.738   2.262   4.739  0.0647 -1.5991  1.3090
29112SOL    HW293429   0.850   2.162   4.717  1.7399  0.3956  0.4854
29113SOL     OW93430   9.318   5.850   5.421 -0.0825  0.0298 -0.1397
29113SOL    HW193431   9.283   5.923   5.371  0.4103 -0.0391 -0.5939
29113SOL    HW293432   9.402   5.830   5.379 -0.4412 -1.1221 -0.3363
29114SOL     OW93433  10.469   1.997   1.538  0.0404 -0.5537  0.2733
29114SOL    HW193434  10.563   2.008   1.530 -0.1178  0.4504 -0.4027
29114SOL    HW293435  10.456   1.902   1.545  0.9760 -0.8644 -1.5242
29115SOL     OW93436   0.204   0.694   7.145 -0.7351  0.3575 -0.1251
29115SOL    HW193437   0.242   0.621   7.097 -0.1807  0.0992  0.6952
29115SOL    HW293438   0.197   0.664   7.235 -3.5589  0.1417 -0.3226
29116SOL     OW93439   6.617   5.033   4.069  0.4650  0.0512 -0.1723
29116SOL    HW193440   6.639   5.126   4.064  0.3190  0.2265  1.7378
29116SOL    HW293441   6.521   5.030   4.062  0.5858 -0.1964 -2.4886
29117SOL     OW93442   5.247  10.200   1.201  0.8883  0.2542  0.3674
29117SOL    HW193443   5.181  10.197   1.270  1.1507  1.1109  0.6577
29117SOL    HW293444   5.270  10.108   1.186 -0.5090 -0.0742  0.1219
29118SOL     OW93445   8.729   9.204   2.743 -0.0577  0.0872 -0.0087
29118SOL    HW193446   8.647   9.246   2.715  1.2037  1.7604 -1.4537
29118SOL    HW293447   8.798   9.260   2.707  1.7545 -1.8847  0.1911
29119SOL     OW93448   7.588   4.391   7.202 -0.1209  0.0125 -0.0108
29119SOL    HW193449   7.668   4.431   7.235 -0.3325 -0.4278  1.0682
29119SOL    HW293450   7.545   4.461   7.153  0.0117  0.8095  0.9755
29120SOL     OW93451  10.369   6.536   8.398  0.1992 -0.2396 -0.6423
29120SOL    HW193452  10.435   6.538   8.329  0.8373  1.9429 -0.0580
29120SOL    HW293453  10.295   6.586   8.363 -0.2065 -0.6431 -0.3864
29121SOL     OW93454   5.625   0.617   9.091  0.3238  0.4791  0.7246
29121SOL    HW193455   5.573   0.599   9.170 -0.1982  0.4283  0.3754
29121SOL    HW293456   5.709   0.574   9.107 -0.5442 -1.4450  0.3292
29122SOL     OW93457   9.213   5.147   9.104 -0.0065 -0.5075  0.0608
29122SOL    HW193458   9.209   5.212   9.173 -0.5698  1.7506 -1.9484
29122SOL    HW293459   9.304   5.150   9.073 -0.5551  1.0878 -1.5343
29123SOL     OW93460   1.341   6.858   1.736  0.0088  0.1257 -0.7128
29123SOL    HW193461   1.341   6.842   1.642 -3.4290  0.4383 -0.8978
29123SOL    HW293462   1.249   6.870   1.758  0.6924  0.0508  2.7255
29124SOL     OW93463   1.210   4.467   8.343  0.1530 -0.1063  0.2382
29124SOL    HW193464   1.142   4.515   8.296 -0.6519  0.0438  1.5067
29124SOL    HW293465   1.286   4.525   8.341  0.4748 -0.5052 -1.6704
29125SOL     OW93466   8.225   0.571   7.566 -0.1168 -0.3430  0.1353
29125SOL    HW193467   8.178   0.536   7.642 -0.9152  0.4127  0.0025
29125SOL    HW293468   8.160   0.571   7.496 -0.2232  1.5901  0.1821
29126SOL     OW93469   0.986   5.555   8.672  0.6023 -0.1836  0.0815
29126SOL    HW193470   1.075   5.554   8.707  0.6593  1.2335  0.0394
29126SOL    HW293471   0.949   5.638   8.702  1.1456  1.9436 -4.2621
29127SOL     OW93472   6.930   0.032   6.530  0.6586  0.1386  0.3370
29127SOL    HW193473   6.946   0.122   6.560 -0.0671  0.4810 -0.2811
29127SOL    HW293474   6.840   0.033   6.498  1.1369 -0.4309 -1.0801
29128SOL     OW93475  10.272   2.140   1.483 -0.0018  0.4121  0.0809
29128SOL    HW193476  10.279   2.209   1.549 -1.4823 -2.1610  3.1820
29128SOL    HW293477  10.354   2.091   1.491  0.9012  1.4449 -1.8832
29129SOL     OW93478   8.048   0.618   0.353 -0.5410  0.0798  0.4560
29129SOL    HW193479   7.992   0.599   0.278  1.0410 -0.3242 -0.6674
29129SOL    HW293480   7.987   0.628   0.426 -1.9844 -2.1929 -0.3162
29130SOL     OW93481   2.896   8.138   5.338 -0.0313 -0.0652 -0.7973
29130SOL    HW193482   2.936   8.132   5.251 -0.0817 -1.6798 -0.7314
29130SOL    HW293483   2.805   8.111   5.326 -0.1304  0.0250 -0.2958
29131SOL     OW93484  10.079   9.581  10.026 -0.5950 -0.0034 -0.0835
29131SOL    HW193485  10.108   9.493  10.051  0.4128 -0.5466 -2.7828
29131SOL    HW293486  10.057   9.574   9.933 -3.2837  1.9838  0.2843
29132SOL     OW93487   7.990   5.259   9.162  0.4551  0.0919  0.3313
29132SOL    HW193488   7.929   5.193   9.130 -2.3727  2.7007 -0.1344
29132SOL    HW293489   8.006   5.317   9.088  1.2634  1.0455  1.2006
29133SOL     OW93490   3.987   4.567   9.189 -0.6508  0.0442 -0.2322
29133SOL    HW193491   4.025   4.655   9.185  0.4957 -0.3733  0.8016
29133SOL    HW293492   3.908   4.572   9.135 -1.6387  2.2106  1.2942
29134SOL     OW93493   0.232   6.922   9.115 -0.0835 -0.0415 -0.1424
29134SOL    HW193494   0.149   6.876   9.117  0.1349 -0.4154  0.2139
29134SOL    HW293495   0.208   7.012   9.092 -0.7678  0.2605  1.6243
29135SOL     OW93496   5.941  10.214   0.127  0.0393  0.8749 -0.6370
29135SOL    HW193497   5.997  10.137   0.118 -0.1804  0.5029  0.8381
29135SOL    HW293498   5.852  10.181   0.116 -0.1323  0.6729  1.0151
29136SOL     OW93499   7.447   8.482   1.806 -0.1914 -0.3185  0.3846
29136SOL    HW193500   7.390   8.472   1.882 -1.8448  0.4599 -0.7028
29136SOL    HW293501   7.518   8.419   1.821 -2.1425 -2.5113  1.0369
29137SOL     OW93502   2.823   9.452   7.486  0.0975 -0.5632 -0.7786
29137SOL    HW193503   2.807   9.542   7.513 -2.2167 -0.6149 -1.7265
29137SOL    HW293504   2.878   9.416   7.555 -1.2820  0.7840  1.1517
29138SOL     OW93505   1.741   3.478  10.340 -0.0119  0.4459 -0.1028
29138SOL    HW193506   1.752   3.435  10.425 -0.1961 -0.3808 -0.4901
29138SOL    HW293507   1.699   3.412  10.284  0.9198  0.6623 -1.0964
29139SOL     OW93508   3.768   9.479   5.832 -0.1873 -0.0139  0.0197
29139SOL    HW193509   3.779   9.512   5.743  0.7154 -0.8851 -0.2204
29139SOL    HW293510   3.835   9.411   5.840  2.1575  2.3397  2.5086
29140SOL     OW93511   7.874   0.597   2.179  0.6283 -0.1125  0.1362
29140SOL    HW193512   7.885   0.507   2.209  0.6414  0.3522  1.6476
29140SOL    HW293513   7.935   0.647   2.233  0.5242  0.8150 -0.5904
29141SOL     OW93514   2.210   0.820  10.160 -0.3169 -0.0537 -0.4121
29141SOL    HW193515   2.194   0.756  10.229  1.5084  0.2119  0.3301
29141SOL    HW293516   2.128   0.867  10.150 -1.4182 -1.8556 -0.3175
29142SOL     OW93517   1.338   3.543   8.542 -0.4066 -0.5393  0.0450
29142SOL    HW193518   1.400   3.615   8.547 -0.3709 -0.5560 -0.1622
29142SOL    HW293519   1.297   3.552   8.456  1.2255 -2.0979 -0.9600
29143SOL     OW93520   8.276  10.133   3.773 -0.1709  0.4627  0.3171
29143SOL    HW193521   8.260  10.228   3.772  0.9909  0.7564  2.6289
29143SOL    HW293522   8.321  10.116   3.691 -0.3044  1.9355 -0.0984
29144SOL     OW93523   6.216   2.402   3.639  0.4978  0.5882 -0.1670
29144SOL    HW193524   6.196   2.436   3.726  0.3183 -1.0089  0.4453
29144SOL    HW293525   6.162   2.454   3.580 -1.9672 -0.4584  0.9937
29145SOL     OW93526   7.185   5.569   8.219  0.3227 -0.2731  0.3649
29145SOL    HW193527   7.168   5.636   8.152  0.2135 -0.0427  0.6181
29145SOL    HW293528   7.100   5.555   8.261  0.1228 -1.3229 -0.3620
29146SOL     OW93529   8.130   1.972   9.931 -0.3210 -0.7251  0.7471
29146SOL    HW193530   8.195   1.904   9.948  1.9186  0.7961 -1.1046
29146SOL    HW293531   8.173   2.053   9.957 -1.7499  0.2772  0.0958
29147SOL     OW93532   7.180   0.819   0.972 -0.5125 -0.1722 -0.2627
29147SOL    HW193533   7.212   0.812   1.062 -0.8244  0.3566 -0.1053
29147SOL    HW293534   7.258   0.814   0.917 -0.1766  0.9630  0.1036
29148SOL     OW93535   2.848   0.634   6.047  0.3038 -0.5364  0.1933
29148SOL    HW193536   2.881   0.656   5.960  0.6657 -0.0441  0.4501
29148SOL    HW293537   2.886   0.548   6.065 -0.3175 -0.9499 -0.4051
29149SOL     OW93538   1.662   2.380   7.898 -0.2188 -0.0353  0.4955
29149SOL    HW193539   1.682   2.409   7.809 -0.6867 -0.0232  0.3889
29149SOL    HW293540   1.707   2.443   7.954 -0.9694  0.7278  0.2640
29150SOL     OW93541   7.255   8.758   0.696  0.4914 -0.2272 -0.4656
29150SOL    HW193542   7.208   8.737   0.615  1.6196  1.5838 -1.6652
29150SOL    HW293543   7.332   8.701   0.694 -0.4165 -1.5405  0.3407
29151SOL     OW93544   9.741   7.850   1.896 -0.3099 -0.8672  0.2552
29151SOL    HW193545   9.672   7.866   1.831  2.9664  4.3804 -2.6529
29151SOL    HW293546   9.717   7.904   1.971  0.2140  0.3970 -0.4651
29152SOL     OW93547   6.129   8.233   5.362  0.6411 -0.3026 -0.1638
29152SOL    HW193548   6.095   8.323   5.364 -0.4885 -0.6665  2.4265
29152SOL    HW293549   6.223   8.243   5.354  0.3685  0.9563 -2.7375
29153SOL     OW93550   3.234   7.880   0.488 -0.0081 -0.0145 -0.0731
29153SOL    HW193551   3.292   7.805   0.480  1.9161  1.1873  1.5637
29153SOL    HW293552   3.187   7.866   0.571  1.9304  1.4731  1.3887
29154SOL     OW93553   5.595   5.739   1.243 -0.4224  0.1557 -0.0750
29154SOL    HW193554   5.511   5.707   1.275 -0.4087  0.0087 -0.1855
29154SOL    HW293555   5.591   5.834   1.255 -1.0952  0.2808 -1.2506
29155SOL     OW93556   2.702   7.487   1.618  0.7443  0.2636 -0.3417
29155SOL    HW193557   2.788   7.454   1.645  0.2602  0.0385  0.9936
29155SOL    HW293558   2.641   7.417   1.641  0.1313  0.6267 -0.8270
29156SOL     OW93559   6.696   4.733   3.694 -0.1896  0.4872 -0.0655
29156SOL    HW193560   6.784   4.731   3.656  0.1575 -0.5762  0.7392
29156SOL    HW293561   6.710   4.739   3.788 -0.9551 -0.1556  0.1061
29157SOL     OW93562   7.999   1.657  10.762  0.6787 -0.1852  0.0567
29157SOL    HW193563   8.027   1.739  10.723 -0.8500 -0.2628 -1.2709
29157SOL    HW293564   8.004   1.593  10.691 -0.6814 -0.6619  0.3590
29158SOL     OW93565   3.419   0.580   2.360  0.0542  0.2020  0.0825
29158SOL    HW193566   3.481   0.600   2.431 -0.2219  1.8130 -0.0845
29158SOL    HW293567   3.359   0.654   2.361 -0.9403 -0.5768 -0.7851
29159SOL     OW93568  10.595   9.019  10.823 -0.0415  0.0979 -0.0040
29159SOL    HW193569  10.676   9.030  10.774 -0.0184 -0.9681 -0.2428
29159SOL    HW293570  10.611   9.060  10.907 -0.1229  2.0826 -0.9035
29160SOL     OW93571   2.853   9.263   8.063  0.2153 -0.2473  0.2128
29160SOL    HW193572   2.809   9.344   8.089 -1.5357 -0.0226 -2.8866
29160SOL    HW293573   2.790   9.194   8.084  0.2065 -0.4027 -0.3122
29161SOL     OW93574   6.025  10.671   5.382  0.0698 -0.1847 -0.0110
29161SOL    HW193575   5.930  10.682   5.380  0.1364  0.2847 -2.0394
29161SOL    HW293576   6.059  10.759   5.395  0.2545 -0.2846  0.1946
29162SOL     OW93577   8.737  10.136   8.229  0.0568  0.3115  0.3260
29162SOL    HW193578   8.728  10.205   8.295 -0.9582  0.6148 -0.1129
29162SOL    HW293579   8.831  10.133   8.211  0.0493  2.4031 -0.4759
29163SOL     OW93580   8.983   6.371   6.060  0.6679 -0.9314  0.3161
29163SOL    HW193581   8.934   6.328   5.990  1.7790 -0.1519 -0.9957
29163SOL    HW293582   9.040   6.303   6.095 -0.9442 -1.7232  1.5398
29164SOL     OW93583   5.518   4.929   9.415 -0.2886  0.2733  0.1894
29164SOL    HW193584   5.567   4.858   9.456 -0.9393  0.5394  1.4727
29164SOL    HW293585   5.563   4.944   9.332  0.3424 -1.0839  0.2574
29165SOL     OW93586   6.041   2.166   7.216 -0.0067 -0.3375  0.0990
29165SOL    HW193587   6.114   2.176   7.276  0.9379 -0.3355 -1.0271
29165SOL    HW293588   5.970   2.218   7.255  0.5904 -0.2924  1.1611
29166SOL     OW93589   4.126  10.809   7.586  0.2675  0.3142  0.1750
29166SOL    HW193590   4.132  10.867   7.662  0.6302 -0.1937  0.5379
29166SOL    HW293591   4.131  10.868   7.511  0.9073  0.7276  0.5375
29167SOL     OW93592   4.184   4.732   4.319  0.4126 -0.3381  0.2806
29167SOL    HW193593   4.175   4.651   4.369  1.2842  0.2579  1.4667
29167SOL    HW293594   4.178   4.801   4.384 -2.1721  0.6960 -0.9433
29168SOL     OW93595   5.524   9.697   7.163 -0.1922  0.7616  0.1518
29168SOL    HW193596   5.482   9.779   7.136  0.6407  1.7820  1.7738
29168SOL    HW293597   5.453   9.645   7.202 -0.6307  0.9181 -0.4307
29169SOL     OW93598   8.667   5.576   5.674  0.6187  0.5265 -0.5170
29169SOL    HW193599   8.750   5.615   5.702  0.8725 -0.4061  0.0534
29169SOL    HW293600   8.606   5.598   5.745  0.4350  0.9689 -0.8040
29170SOL     OW93601   9.245   6.742   7.118  0.0717  0.2531 -0.1201
29170SOL    HW193602   9.196   6.813   7.160 -1.4969 -0.8423 -0.0068
29170SOL    HW293603   9.187   6.712   7.048  0.8778 -0.6665 -0.4076
29171SOL     OW93604   5.632   1.963   7.869  0.1119  0.3527 -0.5406
29171SOL    HW193605   5.711   1.947   7.921 -0.6659 -0.5730  0.4301
29171SOL    HW293606   5.661   1.957   7.778  1.1464 -0.0097 -0.2029
29172SOL     OW93607   7.798   3.963   5.837 -0.0179  0.1001  0.5449
29172SOL    HW193608   7.817   4.057   5.832 -0.2663  0.2278  1.6545
29172SOL    HW293609   7.714   3.958   5.884 -1.6832 -0.5514 -2.2644
29173SOL     OW93610   5.247   8.353   6.091  0.3626  0.2511  0.1277
29173SOL    HW193611   5.180   8.330   6.028 -0.2436 -0.0565  0.8628
29173SOL    HW293612   5.317   8.289   6.077 -0.8795 -1.5160  1.4817
29174SOL     OW93613   1.257   4.548   3.758  0.6239 -0.3893 -0.0810
29174SOL    HW193614   1.252   4.454   3.741 -0.6636 -0.3549 -0.0075
29174SOL    HW293615   1.211   4.561   3.841  0.3765  0.3520 -0.3193
29175SOL     OW93616  10.503   7.345   0.121 -0.1521  0.6017  0.0313
29175SOL    HW193617  10.440   7.383   0.182  0.2075  1.9684 -0.4219
29175SOL    HW293618  10.516   7.255   0.153 -3.1964 -0.1532 -0.5521
29176SOL     OW93619   7.813   2.098   2.169 -0.8768  0.3994 -0.1904
29176SOL    HW193620   7.867   2.140   2.236 -1.4520 -0.6944  1.0281
29176SOL    HW293621   7.724   2.130   2.187 -1.1689 -0.5708  0.1514
29177SOL     OW93622   8.694   1.822   0.556 -0.0703 -0.6013  0.4011
29177SOL    HW193623   8.765   1.829   0.493 -0.7154 -0.4538 -0.3276
29177SOL    HW293624   8.661   1.911   0.566  0.0945 -0.6092  1.0251
29178SOL     OW93625   0.610   1.008   8.732 -0.3449 -0.7161  0.0774
29178SOL    HW193626   0.530   0.998   8.681  0.2401 -1.8278 -0.6460
29178SOL    HW293627   0.581   1.049   8.813 -1.5614 -0.5818 -0.4031
29179SOL     OW93628   9.167   6.856   6.644 -0.1901  0.5835 -0.6118
29179SOL    HW193629   9.161   6.880   6.552  2.8076  1.7496 -0.5980
29179SOL    HW293630   9.165   6.760   6.644 -0.1757  0.5689 -1.8707
29180SOL     OW93631   7.323   2.042   2.988 -0.2453 -0.2419 -0.4382
29180SOL    HW193632   7.329   2.121   3.043  0.1695 -0.7971  0.3284
29180SOL    HW293633   7.234   2.011   3.001  0.2040 -1.0364  0.8741
29181SOL     OW93634   0.967   1.048   7.573  0.0560 -0.3066  0.0559
29181SOL    HW193635   0.972   1.095   7.489  0.8577 -0.3310  0.0825
29181SOL    HW293636   0.918   1.108   7.630  0.4639  0.2024 -0.1135
29182SOL     OW93637   5.444   3.566   7.053  0.0277 -0.4374 -0.0284
29182SOL    HW193638   5.482   3.498   6.998 -0.7940 -0.8188 -0.1432
29182SOL    HW293639   5.366   3.595   7.005 -0.9002 -1.0190  1.0629
29183SOL     OW93640   3.587   5.880   5.826 -0.0795 -0.0750 -0.0020
29183SOL    HW193641   3.621   5.967   5.807  2.0102 -0.5782  1.1093
29183SOL    HW293642   3.602   5.830   5.745  1.3194 -0.1054  0.2536
29184SOL     OW93643   2.219   0.482   8.506 -0.0025  0.4621 -0.9607
29184SOL    HW193644   2.314   0.484   8.508  0.0147 -0.2371 -0.7333
29184SOL    HW293645   2.195   0.413   8.567 -0.6990  1.3023 -0.2640
29185SOL     OW93646   6.952   1.079   7.545  0.7491  0.2663  0.0052
29185SOL    HW193647   6.883   1.013   7.546  0.8417  0.1691  0.7419
29185SOL    HW293648   7.034   1.029   7.539  0.7709  0.3649 -0.5264
29186SOL     OW93649   8.054   8.258   7.944 -0.2274  0.5124 -0.1513
29186SOL    HW193650   7.963   8.280   7.924 -0.6187  0.3497  1.3135
29186SOL    HW293651   8.103   8.338   7.925 -0.6947  0.6439 -0.8193
29187SOL     OW93652   0.809   1.270   3.108  0.6882  0.0951  0.2581
29187SOL    HW193653   0.732   1.223   3.078  1.5667 -0.8355 -0.6156
29187SOL    HW293654   0.883   1.224   3.067  1.8063  0.0733  2.1670
29188SOL     OW93655   8.393   4.334   1.030  0.9676 -0.4892  0.2285
29188SOL    HW193656   8.331   4.276   0.985 -1.1339  1.2317  0.7022
29188SOL    HW293657   8.453   4.275   1.075 -0.2839 -2.2729 -0.3292
29189SOL     OW93658   3.223   4.745   6.855  0.2130  0.1844 -0.2687
29189SOL    HW193659   3.260   4.733   6.942  0.2956  0.2675 -0.2926
29189SOL    HW293660   3.158   4.815   6.865 -2.0373 -1.8418  0.4045
29190SOL     OW93661   1.775   7.332   7.172 -0.4524  0.0029  0.3589
29190SOL    HW193662   1.769   7.427   7.159 -2.1608 -0.2971 -1.5900
29190SOL    HW293663   1.865   7.310   7.147 -0.1608  1.0649  0.4304
29191SOL     OW93664   4.087   8.712   0.082 -0.0260 -0.9180  0.0694
29191SOL    HW193665   4.041   8.665   0.014  0.6600 -0.8957 -0.4205
29191SOL    HW293666   4.172   8.669   0.088 -0.1022 -0.9772  0.9736
29192SOL     OW93667   7.605  10.151   3.072 -0.1780  0.3899 -0.0758
29192SOL    HW193668   7.694  10.115   3.073  0.1839  1.2128 -0.7643
29192SOL    HW293669   7.575  10.139   2.982 -0.3019  1.1714 -0.1487
29193SOL     OW93670   2.954   8.950   5.891  0.4546  0.1677  0.1853
29193SOL    HW193671   2.955   9.024   5.831 -0.6654 -0.2423 -0.3629
29193SOL    HW293672   2.921   8.877   5.839 -0.5443 -0.1966  1.2885
29194SOL     OW93673   3.283   8.906   2.441  0.1520  0.0209  0.5728
29194SOL    HW193674   3.213   8.850   2.405 -0.5867  0.6702  0.9761
29194SOL    HW293675   3.363   8.873   2.400 -0.4385 -0.4798 -0.2060
29195SOL     OW93676   5.740   7.665   1.230 -0.0084  0.1818 -0.2329
29195SOL    HW193677   5.750   7.610   1.152  1.3655  0.4761 -0.2933
29195SOL    HW293678   5.720   7.604   1.301  0.7954 -0.3359 -0.4386
29196SOL     OW93679   8.687   6.307   6.696 -0.2338 -0.3992  0.3230
29196SOL    HW193680   8.750   6.237   6.714  0.9429  0.4663 -0.3098
29196SOL    HW293681   8.727   6.359   6.627 -0.4237  1.6855  1.6693
29197SOL     OW93682   9.234   1.630   3.809  0.3529  0.1211  0.7677
29197SOL    HW193683   9.311   1.616   3.755 -0.5329 -2.0905 -0.0166
29197SOL    HW293684   9.200   1.543   3.826 -1.8871  1.0106  1.2335
29198SOL     OW93685   1.854   5.448  10.257 -0.1828  0.0757  0.5360
29198SOL    HW193686   1.768   5.420  10.289 -0.3648  0.4008  0.3330
29198SOL    HW293687   1.840   5.537  10.226 -0.1003 -0.3578 -0.8046
29199SOL     OW93688   3.150   1.346   3.404  0.0594 -0.2766 -0.3791
29199SOL    HW193689   3.202   1.284   3.454 -0.2511 -1.0558 -0.9890
29199SOL    HW293690   3.118   1.410   3.468  0.9346 -0.3606  0.1455
29200SOL     OW93691   7.870   5.818   8.904 -0.2825 -0.0899  0.1961
29200SOL    HW193692   7.870   5.779   8.992 -0.2475  0.0816  0.2732
29200SOL    HW293693   7.779   5.843   8.890 -0.4021 -0.6542 -0.0569
29201SOL     OW93694   7.521   2.618   2.850 -0.0778 -0.3089  0.7653
29201SOL    HW193695   7.445   2.667   2.880  0.3767  1.6036 -0.9971
29201SOL    HW293696   7.595   2.658   2.897  0.2771  0.6689 -0.5665
29202SOL     OW93697   8.309   8.974   8.898 -0.2927 -0.1375 -0.1544
29202SOL    HW193698   8.384   8.967   8.840  1.8458  0.4313  2.3789
29202SOL    HW293699   8.296   8.886   8.933  1.6222  0.3885  2.1292
29203SOL     OW93700   8.750   2.390   8.419  0.2241 -0.1560  0.0300
29203SOL    HW193701   8.711   2.421   8.501  0.7057  2.7303 -0.7241
29203SOL    HW293702   8.844   2.391   8.435  0.3502  0.9375 -0.6724
29204SOL     OW93703   8.851   4.479  10.149 -0.0170  0.2122 -0.1731
29204SOL    HW193704   8.830   4.526  10.230 -1.8355  1.2831 -1.1975
29204SOL    HW293705   8.777   4.496  10.091  0.9284 -1.0538 -1.8641
29205SOL     OW93706   2.071   6.523   3.647  0.5202 -0.2011 -0.1230
29205SOL    HW193707   1.977   6.506   3.654  0.5169 -0.0575  0.1636
29205SOL    HW293708   2.106   6.503   3.734  0.9926 -1.7628 -0.6341
29206SOL     OW93709   6.260   4.588   3.883  0.1233 -0.4320  0.0984
29206SOL    HW193710   6.184   4.541   3.848  0.9013 -1.2082 -0.6053
29206SOL    HW293711   6.306   4.523   3.936  0.9184 -0.3025 -0.4267
29207SOL     OW93712   4.221   2.922  10.602  0.0938 -0.0831  0.0059
29207SOL    HW193713   4.134   2.950  10.574  0.1726 -0.3488 -0.5197
29207SOL    HW293714   4.273   3.003  10.603  0.1731 -0.1072 -0.9524
29208SOL     OW93715   4.906   6.333  10.282 -0.1248  0.6926  0.3701
29208SOL    HW193716   4.952   6.258  10.243  1.3228  2.1520 -0.9200
29208SOL    HW293717   4.865   6.298  10.360  0.7182 -1.3906 -0.0409
29209SOL     OW93718   5.651   1.881   0.590  0.4210  0.0310 -0.2607
29209SOL    HW193719   5.672   1.964   0.546  0.1200  0.4066  0.2959
29209SOL    HW293720   5.558   1.886   0.609  0.6808  0.1954  1.0673
29210SOL     OW93721   9.841   4.147   2.298  0.5664 -0.1128  0.5270
29210SOL    HW193722   9.782   4.190   2.360  1.2816  1.4446  0.1555
29210SOL    HW293723   9.898   4.094   2.353  0.2989  0.1563  1.0735
29211SOL     OW93724   6.271   1.346   2.541  0.0467 -0.1578  0.0990
29211SOL    HW193725   6.360   1.317   2.522  0.6478  1.1870  0.7431
29211SOL    HW293726   6.261   1.334   2.636 -0.5439 -0.5058 -0.0004
29212SOL     OW93727   5.000   1.801   1.411  0.1286 -0.0926 -0.1174
29212SOL    HW193728   4.942   1.868   1.375  0.7571  0.2541 -0.4876
29212SOL    HW293729   5.040   1.760   1.335  1.9278  1.0492  0.1748
29213SOL     OW93730   3.324   9.722   3.080 -0.0302 -0.2372  0.3378
29213SOL    HW193731   3.318   9.629   3.100 -1.1439 -0.1328  0.5949
29213SOL    HW293732   3.414   9.746   3.100  0.0522 -1.0891  1.0428
29214SOL     OW93733   2.058   3.162  10.103 -0.1756 -0.2034  0.0737
29214SOL    HW193734   1.984   3.141  10.046  0.9341 -0.7945 -1.1919
29214SOL    HW293735   2.131   3.111  10.069  1.2135  1.4531  0.3842
29215SOL     OW93736   0.145   7.112   0.710  0.2078 -0.2871 -0.4669
29215SOL    HW193737   0.156   7.109   0.615  0.6525  0.6444 -0.4581
29215SOL    HW293738   0.051   7.123   0.723  0.3574  2.0828 -0.9124
29216SOL     OW93739   6.478   6.145   3.518 -0.5323 -0.1369  0.1676
29216SOL    HW193740   6.528   6.217   3.481  0.2784 -0.3839  0.7479
29216SOL    HW293741   6.519   6.128   3.603  0.4254 -2.4213 -0.6868
29217SOL     OW93742   2.248   2.309   4.439  0.1006  0.0947  0.9126
29217SOL    HW193743   2.238   2.402   4.456 -2.3194 -0.4538  3.0700
29217SOL    HW293744   2.160   2.279   4.418  1.0840 -1.4769 -1.4658
29218SOL     OW93745   0.652   2.973   9.978 -0.2643  0.0885  0.0004
29218SOL    HW193746   0.721   2.913   9.949  0.1011  0.6232 -0.2583
29218SOL    HW293747   0.700   3.047  10.016 -0.6738  0.7259 -0.6995
29219SOL     OW93748   9.960   8.569   8.467 -0.3468 -0.1108  0.3776
29219SOL    HW193749   9.906   8.634   8.421  0.4152 -1.1146 -2.1153
29219SOL    HW293750  10.032   8.620   8.505 -0.6823  0.7078 -0.0471
29220SOL     OW93751   6.461   0.882   6.683  0.0836 -0.1103  0.3376
29220SOL    HW193752   6.536   0.883   6.623  0.4233 -2.1353  0.6609
29220SOL    HW293753   6.483   0.946   6.751  1.6644 -0.8732  0.5713
29221SOL     OW93754  10.045   2.945   8.215 -0.4499 -0.0366 -0.3546
29221SOL    HW193755  10.112   2.882   8.244 -0.8780 -1.2920 -1.9054
29221SOL    HW293756  10.094   3.011   8.166 -0.1898 -0.1960 -0.3124
29222SOL     OW93757  10.412   7.402   7.566  0.1250 -0.3793  0.0666
29222SOL    HW193758  10.440   7.371   7.652  0.0108  0.2330  0.3296
29222SOL    HW293759  10.328   7.445   7.582  0.8773  1.2385 -0.0372
29223SOL     OW93760   9.154   0.025   2.216 -0.3140  0.0060  0.0621
29223SOL    HW193761   9.197  -0.049   2.173 -2.4390 -0.2889 -1.6936
29223SOL    HW293762   9.085  -0.015   2.269 -0.9243  0.6913 -0.2081
29224SOL     OW93763   4.083   4.827  10.248  0.1234 -0.6979 -0.2385
29224SOL    HW193764   4.026   4.760  10.212 -0.8389 -0.1803  0.2910
29224SOL    HW293765   4.095   4.890  10.177  0.5633 -1.1283 -0.5517
29225SOL     OW93766   5.357   6.299   5.113  0.2120  0.0222 -0.1093
29225SOL    HW193767   5.304   6.364   5.067 -0.0682 -0.5252 -0.5721
29225SOL    HW293768   5.353   6.221   5.058  1.7303  0.0442 -0.3023
29226SOL     OW93769   4.094   6.985   2.949 -0.0832 -0.4979 -0.5612
29226SOL    HW193770   4.026   7.039   2.990 -0.4506 -1.0486 -0.4383
29226SOL    HW293771   4.117   7.032   2.869 -1.5623 -0.9777 -1.2839
29227SOL     OW93772  10.040   9.346   7.080  0.2163  0.1391 -0.1280
29227SOL    HW193773  10.014   9.413   7.143  0.3442  1.1019 -1.0618
29227SOL    HW293774  10.119   9.307   7.117 -0.0394  0.2842  0.5794
29228SOL     OW93775   4.811   5.916   8.885 -0.0701 -0.2086 -0.5186
29228SOL    HW193776   4.745   5.902   8.817 -0.5470 -0.8599  0.0670
29228SOL    HW293777   4.760   5.936   8.964  0.4966  2.4498 -0.7257
29229SOL     OW93778   1.739   6.230   8.897 -0.0081  0.7063  0.2732
29229SOL    HW193779   1.804   6.293   8.865  0.3347  0.5525  0.6451
29229SOL    HW293780   1.658   6.280   8.903  0.2307  1.0822  0.4474
29230SOL     OW93781   9.984   3.825   1.301  0.0287  0.2446  0.7107
29230SOL    HW193782  10.047   3.896   1.285 -1.0356  1.2376  0.8242
29230SOL    HW293783   9.996   3.766   1.226  1.7891 -0.1194  1.2487
29231SOL     OW93784   5.544   1.896   4.633 -0.2563  0.6323  0.2763
29231SOL    HW193785   5.529   1.802   4.645  0.0815  0.5393 -0.0108
29231SOL    HW293786   5.461   1.937   4.655 -0.6159  0.2083 -0.2747
29232SOL     OW93787   2.723   2.406   8.053  0.1273 -0.5086  0.6167
29232SOL    HW193788   2.785   2.459   8.003 -0.3731 -1.3989 -1.0277
29232SOL    HW293789   2.650   2.390   7.992 -2.0270  0.9348  2.6258
29233SOL     OW93790   9.291   8.966   4.109  0.0660 -0.1404 -0.8632
29233SOL    HW193791   9.297   9.024   4.033 -1.6368 -1.1384 -1.8100
29233SOL    HW293792   9.360   8.902   4.097  0.7386  0.5572 -0.7911
29234SOL     OW93793   4.880   5.220   7.807 -0.4308  0.1944 -0.0589
29234SOL    HW193794   4.837   5.174   7.880  0.1946 -2.5521 -1.3164
29234SOL    HW293795   4.917   5.151   7.753  1.6421  2.2787 -1.4862
29235SOL     OW93796  10.683   2.153   9.025 -0.3579 -0.0240 -0.2767
29235SOL    HW193797  10.747   2.210   9.067 -2.4102  1.9360  0.3855
29235SOL    HW293798  10.722   2.065   9.030  1.1334  0.6729  2.3910
29236SOL     OW93799   5.425   0.561  10.243 -0.0789 -0.2688 -0.2933
29236SOL    HW193800   5.351   0.504  10.223 -0.5873 -0.4157  1.7705
29236SOL    HW293801   5.472   0.515  10.313 -0.1119  1.4920  0.9385
29237SOL     OW93802   5.607   5.073   4.204  0.0576 -0.4807 -0.3845
29237SOL    HW193803   5.601   5.150   4.261  2.2585  0.4311 -1.2587
29237SOL    HW293804   5.554   5.096   4.127  1.7201  0.7959 -1.2221
29238SOL     OW93805  10.369   0.875   2.936  0.0183  0.0444 -0.1433
29238SOL    HW193806  10.422   0.950   2.964 -0.8411  0.1045  1.4281
29238SOL    HW293807  10.305   0.912   2.876  0.8217  0.2161 -0.9174
29239SOL     OW93808   1.724   2.710   1.224 -0.0762 -0.0432  0.2882
29239SOL    HW193809   1.641   2.751   1.246  0.7021  1.5869  0.3379
29239SOL    HW293810   1.722   2.701   1.128 -0.4327 -0.3072  0.3197
29240SOL     OW93811   8.831   1.065   5.000  0.1691  0.0959 -0.2895
29240SOL    HW193812   8.915   1.072   4.954 -0.3428  1.7582 -1.0317
29240SOL    HW293813   8.850   1.095   5.089 -0.1787  3.5782 -1.2323
29241SOL     OW93814   1.529   4.667   5.155 -0.2130 -0.5406  1.0383
29241SOL    HW193815   1.525   4.599   5.087  1.1934 -1.5672  1.9210
29241SOL    HW293816   1.603   4.642   5.209  1.7678  2.8848  0.1955
29242SOL     OW93817   5.689   7.713  10.471  0.0063 -0.3113  0.3688
29242SOL    HW193818   5.762   7.727  10.410 -0.5003 -0.5575 -0.2999
29242SOL    HW293819   5.732   7.690  10.554  0.7279  1.0085  0.3865
29243SOL     OW93820   4.432   9.161   2.778 -0.1912  0.4591 -1.0124
29243SOL    HW193821   4.458   9.252   2.761  1.2130  0.4756  0.8875
29243SOL    HW293822   4.417   9.159   2.872 -1.7659 -0.9316 -1.2684
29244SOL     OW93823   5.273   1.869  10.154 -0.1169  0.0950  0.4358
29244SOL    HW193824   5.346   1.910  10.106 -1.1801 -0.0485 -1.4034
29244SOL    HW293825   5.280   1.776  10.133 -0.6899  0.0515  0.4121
29245SOL     OW93826   3.227   6.413   6.546  0.2276 -0.3295  0.2186
29245SOL    HW193827   3.171   6.455   6.612 -0.4240 -1.5426  0.4598
29245SOL    HW293828   3.167   6.363   6.492  0.4763  2.0822 -2.5395
29246SOL     OW93829   8.237   7.324   9.294  0.0069 -0.2408 -0.5288
29246SOL    HW193830   8.179   7.269   9.241 -0.1421  0.0164 -0.6366
29246SOL    HW293831   8.188   7.406   9.304 -0.7777 -0.9093  1.5370
29247SOL     OW93832   4.115   5.717  10.697  0.0344 -0.0361  0.2068
29247SOL    HW193833   4.069   5.635  10.716 -1.9070  1.0449  0.4315
29247SOL    HW293834   4.072   5.751  10.619 -0.6138  1.7547  1.2813
29248SOL     OW93835   7.490   7.557   7.719 -0.1607 -0.5488 -0.5352
29248SOL    HW193836   7.513   7.543   7.628 -0.7159  1.4493 -1.0168
29248SOL    HW293837   7.563   7.606   7.756 -0.8437  0.4332 -0.4568
29249SOL     OW93838   3.703   2.164   4.238  0.2910  0.0905 -0.4245
29249SOL    HW193839   3.691   2.258   4.250  1.7014  0.4340 -1.4671
29249SOL    HW293840   3.796   2.154   4.220 -0.0053 -1.3953 -1.2870
29250SOL     OW93841   7.777   9.768   1.282  0.0928 -0.0701 -0.2220
29250SOL    HW193842   7.834   9.809   1.216  0.9999  0.8428  1.0940
29250SOL    HW293843   7.699   9.743   1.233  0.3866  1.3375 -1.5034
29251SOL     OW93844   0.826   2.392   1.359 -0.0778 -0.0905  0.5610
29251SOL    HW193845   0.835   2.327   1.428 -1.6496 -0.3043  0.6030
29251SOL    HW293846   0.742   2.435   1.377  0.6440  1.5607  0.2072
29252SOL     OW93847   8.387   4.950   7.898  0.1962 -0.0468 -0.1452
29252SOL    HW193848   8.393   5.017   7.967 -1.0525  1.1555 -1.1433
29252SOL    HW293849   8.297   4.917   7.906  0.6392 -1.2502 -0.0083
29253SOL     OW93850  10.335   1.447   9.599  0.0589 -0.2179  0.3279
29253SOL    HW193851  10.402   1.485   9.655  0.0960 -1.0269  0.8365
29253SOL    HW293852  10.252   1.473   9.639 -0.0300  2.3040 -1.2729
29254SOL     OW93853  10.343   1.457   5.439  0.1862 -1.1884 -0.4502
29254SOL    HW193854  10.436   1.461   5.421  0.1676 -0.6281 -0.4507
29254SOL    HW293855  10.317   1.549   5.453  0.2237 -1.5528  2.5442
29255SOL     OW93856   1.064   0.119   3.182 -0.5045 -0.0673 -0.3502
29255SOL    HW193857   0.986   0.076   3.217 -0.8993  0.3987 -0.6426
29255SOL    HW293858   1.097   0.172   3.255 -1.0993  0.5956 -0.5529
29256SOL     OW93859   8.369   3.771   1.668  0.7092 -0.0373  0.0758
29256SOL    HW193860   8.301   3.782   1.734  1.0555 -0.2501  0.4795
29256SOL    HW293861   8.437   3.721   1.713  0.4683 -1.1652 -0.7763
29257SOL     OW93862   2.783   2.067   5.624  0.3746  0.2742  0.0132
29257SOL    HW193863   2.725   1.997   5.653 -0.8330  1.4838  0.6198
29257SOL    HW293864   2.813   2.109   5.705  1.4593  0.1965 -0.3240
29258SOL     OW93865   7.152   3.064   2.334  0.4750 -0.3820 -0.3478
29258SOL    HW193866   7.148   3.121   2.411 -1.0166  1.0561 -1.4200
29258SOL    HW293867   7.241   3.074   2.301  0.3250  1.1419 -0.3555
29259SOL     OW93868   6.049   0.353   7.553  0.5316 -0.1269  0.0702
29259SOL    HW193869   5.999   0.325   7.477  0.5160 -0.5499  0.2375
29259SOL    HW293870   6.013   0.439   7.575 -0.9279 -0.9186  0.8983
29260SOL     OW93871   6.425   7.011   2.271 -0.2879 -0.0717 -0.2624
29260SOL    HW193872   6.410   7.054   2.355  1.6838  1.8410 -0.8118
29260SOL    HW293873   6.495   6.948   2.288  1.0288  1.2154 -0.6526
29261SOL     OW93874   6.121   3.874   8.834  0.5141  0.7306  0.4914
29261SOL    HW193875   6.192   3.846   8.891  0.6901 -0.4315 -0.2501
29261SOL    HW293876   6.159   3.943   8.779  0.9016  0.5295  0.5029
29262SOL     OW93877   5.035   9.562   4.534 -0.0909  0.2904  0.0382
29262SOL    HW193878   5.010   9.654   4.541  1.0997  0.5809  0.7353
29262SOL    HW293879   4.952   9.514   4.533 -0.7533  1.3956 -0.9662
29263SOL     OW93880   5.325   4.409   9.158  0.4110 -0.2058  0.1481
29263SOL    HW193881   5.396   4.472   9.170  1.3002 -1.3007  0.8389
29263SOL    HW293882   5.264   4.453   9.098  2.7360 -0.0843 -2.3217
29264SOL     OW93883   3.681   0.248   2.442 -0.1448  0.5849 -0.4762
29264SOL    HW193884   3.770   0.284   2.438  0.1293 -0.0110  0.0643
29264SOL    HW293885   3.657   0.252   2.535 -0.4609  0.2281 -0.5392
29265SOL     OW93886   3.313   7.117   2.246 -0.5219  0.1965 -0.5336
29265SOL    HW193887   3.290   7.175   2.174  2.4214  3.0068  0.5153
29265SOL    HW293888   3.406   7.098   2.232 -0.2693 -0.4654  1.6637
29266SOL     OW93889   2.492   2.204   4.461  0.0960  0.4092  0.5062
29266SOL    HW193890   2.461   2.114   4.465  0.1090  0.1830 -2.4164
29266SOL    HW293891   2.416   2.255   4.436  0.4681  0.9633  0.4729
29267SOL     OW93892   1.651   4.701   1.833 -0.0998  0.0947 -0.2017
29267SOL    HW193893   1.722   4.639   1.847 -0.3152  0.2337  1.9519
29267SOL    HW293894   1.693   4.776   1.791  0.4116 -0.9563 -1.6357
29268SOL     OW93895   4.309   7.260   3.481 -0.0164 -0.1322 -0.1354
29268SOL    HW193896   4.346   7.305   3.557  1.2416  1.3119 -1.5250
29268SOL    HW293897   4.214   7.271   3.491  0.1204 -0.0195  1.2237
29269SOL     OW93898   1.343  10.870   1.055 -0.1081 -0.0193  0.1456
29269SOL    HW193899   1.301  10.791   1.086 -0.0924 -0.2067 -0.2981
29269SOL    HW293900   1.272  10.922   1.017  0.2587 -1.1924 -2.4033
29270SOL     OW93901   8.500   9.796   1.614 -0.4342  0.5886 -0.0184
29270SOL    HW193902   8.546   9.731   1.667 -0.5255  0.1256 -0.5106
29270SOL    HW293903   8.556   9.874   1.619  0.1842  0.1651 -0.2581
29271SOL     OW93904   9.651   1.286   6.746 -0.3686  0.0025 -0.3185
29271SOL    HW193905   9.677   1.349   6.680 -0.1447  0.0888 -0.1478
29271SOL    HW293906   9.587   1.332   6.800 -0.4639 -0.0298 -0.4042
29272SOL     OW93907   5.413   4.628   5.736  0.2990 -0.1537  0.1129
29272SOL    HW193908   5.447   4.568   5.803 -1.5951 -0.7556  0.5853
29272SOL    HW293909   5.356   4.574   5.682 -2.6490  1.4510  1.4288
29273SOL     OW93910  10.696   4.714   7.983  0.0421  0.3950  0.0893
29273SOL    HW193911  10.646   4.637   7.955  0.2095  0.6829 -1.0818
29273SOL    HW293912  10.729   4.691   8.070  1.3593 -1.5142 -0.8274
29274SOL     OW93913   8.983   8.793   2.955  0.2901  0.0467  0.0029
29274SOL    HW193914   8.915   8.857   2.980 -0.4898  0.2186 -2.3540
29274SOL    HW293915   9.041   8.841   2.896 -0.2846 -1.3612 -1.7837
29275SOL     OW93916   0.103   2.555   3.038 -0.1414  0.5194  0.1049
29275SOL    HW193917   0.014   2.523   3.027 -0.4531  1.3239  0.1980
29275SOL    HW293918   0.151   2.481   3.075 -0.2809 -0.5674 -1.7924
29276SOL     OW93919   4.458   8.947  10.113  0.3544 -0.2981 -0.3325
29276SOL    HW193920   4.498   8.954  10.026 -0.6797  0.9929 -0.7319
29276SOL    HW293921   4.426   9.035  10.132 -0.3116 -0.7893  0.9450
29277SOL     OW93922   8.421   7.757   4.341  0.1552 -0.3409 -0.3036
29277SOL    HW193923   8.383   7.694   4.280  0.1201 -0.9893  0.3607
29277SOL    HW293924   8.440   7.705   4.420 -0.2850  0.5677  0.4294
29278SOL     OW93925   2.192   6.480   1.759 -0.1567 -0.0436 -0.2830
29278SOL    HW193926   2.124   6.426   1.719 -0.6728 -0.2048  0.7655
29278SOL    HW293927   2.145   6.556   1.794  0.2249 -0.0511  0.2614
29279SOL     OW93928   9.997   6.475  10.213  0.3887  0.2028  0.7140
29279SOL    HW193929   9.966   6.387  10.236 -1.2147  0.5395 -0.0076
29279SOL    HW293930   9.970   6.487  10.122  1.3423  1.1370  0.5365
29280SOL     OW93931   5.788   5.452   4.280 -0.5643 -0.0411 -0.2309
29280SOL    HW193932   5.836   5.534   4.288  0.8038 -0.8367 -0.0263
29280SOL    HW293933   5.815   5.400   4.356 -1.4875 -0.6498 -0.2927
29281SOL     OW93934   3.440   6.077   9.090 -0.3213  0.4743  0.3557
29281SOL    HW193935   3.374   6.061   9.158 -0.2751  0.4122  0.3859
29281SOL    HW293936   3.407   6.031   9.013  1.1572 -2.1736  1.1788
29282SOL     OW93937   5.944  10.195   5.315 -0.1353 -0.7912  0.1531
29282SOL    HW193938   6.005  10.258   5.353 -1.3844 -0.1829  1.2419
29282SOL    HW293939   5.878  10.182   5.383 -0.8517 -1.9439 -0.7307
29283SOL     OW93940   9.616   2.350   8.193  0.3991 -0.3095 -0.1810
29283SOL    HW193941   9.611   2.254   8.190  0.0791 -0.2786 -0.8369
29283SOL    HW293942   9.528   2.379   8.168  0.9133  0.1647 -1.4958
29284SOL     OW93943  10.922   6.987   8.371  0.1661 -0.7547  0.5357
29284SOL    HW193944  10.895   6.896   8.360  0.8668 -1.0111  0.8474
29284SOL    HW293945  10.997   6.982   8.430  0.0967  0.0439  0.7009
29285SOL     OW93946   5.227   3.986   6.659  0.0534 -0.3875 -0.2035
29285SOL    HW193947   5.138   3.953   6.670 -0.5547  0.8773 -1.0917
29285SOL    HW293948   5.249   4.025   6.744 -0.0114 -1.1861  0.1893
29286SOL     OW93949   3.863   0.129   1.882  0.0921  0.0320 -0.3837
29286SOL    HW193950   3.845   0.108   1.790 -0.9627  1.5919 -0.5565
29286SOL    HW293951   3.779   0.119   1.926  0.8087 -1.8777  0.7128
29287SOL     OW93952   9.735   8.480   8.212  0.7107  0.2021  0.4042
29287SOL    HW193953   9.745   8.390   8.181 -0.6503  0.9987 -2.7506
29287SOL    HW293954   9.818   8.523   8.190  1.5555 -0.2932  2.3630
29288SOL     OW93955   4.039   1.097   2.582  0.2308  0.4487 -0.4957
29288SOL    HW193956   4.119   1.119   2.631  1.0374 -1.1868 -1.0075
29288SOL    HW293957   3.978   1.065   2.649  0.1898  1.1794 -0.1740
29289SOL     OW93958   0.719   3.123   0.423  0.1510  0.3060 -0.0117
29289SOL    HW193959   0.677   3.207   0.404 -0.7363  0.2488  1.5080
29289SOL    HW293960   0.778   3.142   0.496  1.4260 -0.0104 -0.9283
29290SOL     OW93961  10.252   2.731   1.163  0.2139  0.0675 -0.3446
29290SOL    HW193962  10.314   2.793   1.201  1.3683 -0.9706 -0.4822
29290SOL    HW293963  10.167   2.775   1.169  1.0973  1.9839 -1.1386
29291SOL     OW93964   3.149   5.725   0.472 -0.0153  0.4304 -0.7513
29291SOL    HW193965   3.203   5.647   0.466 -0.2997  0.0200  1.1903
29291SOL    HW293966   3.090   5.719   0.397  0.8221 -0.5316 -1.3604
29292SOL     OW93967   7.932   4.583   7.687  0.1502  0.1400  0.0386
29292SOL    HW193968   7.995   4.511   7.678  0.5332  0.5286 -0.4333
29292SOL    HW293969   7.968   4.653   7.632 -0.8291  0.2753 -0.4447
29293SOL     OW93970   7.633   6.624   9.013  0.4028 -0.5583  0.4013
29293SOL    HW193971   7.611   6.677   8.937  2.2322  0.3555  0.4605
29293SOL    HW293972   7.685   6.551   8.978  1.6971  0.1425  0.7711
29294SOL     OW93973   6.794  10.815   8.909  0.2568  0.1924 -0.0714
29294SOL    HW193974   6.793  10.737   8.964  1.1254  0.4775  0.3628
29294SOL    HW293975   6.758  10.884   8.966  0.7169  0.3849 -0.0056
29295SOL     OW93976  10.376   7.978   3.279 -0.3493 -0.5431  0.5845
29295SOL    HW193977  10.282   7.991   3.273 -0.1923 -0.0221 -1.7313
29295SOL    HW293978  10.410   8.063   3.308 -0.5886 -0.8667  1.8843
29296SOL     OW93979   6.786   7.765   1.887 -0.0201 -0.4303  0.0709
29296SOL    HW193980   6.813   7.849   1.849  1.6614 -1.0132 -0.0964
29296SOL    HW293981   6.695   7.755   1.861 -0.2665  1.3652  0.1377
29297SOL     OW93982   9.490   9.432  10.473 -0.3607  0.4296 -0.6234
29297SOL    HW193983   9.575   9.443  10.431  0.4557  0.9962  1.0735
29297SOL    HW293984   9.484   9.337  10.488  0.8868  0.5429  0.9341
29298SOL     OW93985   4.764   4.450   6.146 -0.1665  0.6374 -0.7733
29298SOL    HW193986   4.837   4.478   6.201 -1.2334  0.0909  0.9778
29298SOL    HW293987   4.800   4.380   6.092  0.3258 -0.4407  0.9046
29299SOL     OW93988   9.625   9.339   4.704 -0.2260  0.2111  0.1852
29299SOL    HW193989   9.546   9.355   4.755 -1.5157 -0.9552 -1.3215
29299SOL    HW293990   9.632   9.414   4.645 -0.3099  0.2282  0.1976
29300SOL     OW93991   1.303   0.336   8.737  0.0607 -0.3763  0.1672
29300SOL    HW193992   1.387   0.308   8.773  0.5221  2.1740  1.2903
29300SOL    HW293993   1.327   0.386   8.658 -0.4589 -0.2277  0.0993
29301SOL     OW93994   6.862   6.739   1.847 -0.1882 -0.2248  0.0570
29301SOL    HW193995   6.919   6.798   1.798 -0.5180 -0.8600 -1.1248
29301SOL    HW293996   6.831   6.791   1.921  0.1447  0.8177 -0.5203
29302SOL     OW93997   5.495   7.564   0.746 -0.1939  0.2803  0.5948
29302SOL    HW193998   5.532   7.516   0.821 -1.4992 -0.4036  0.8254
29302SOL    HW293999   5.424   7.616   0.784 -0.7533  0.0562 -0.1418
29303SOL     OW94000   5.411   0.427   9.448  0.0936 -0.7137 -0.1581
29303SOL    HW194001   5.498   0.403   9.481 -0.4626 -0.9046  1.2140
29303SOL    HW294002   5.354   0.422   9.524 -0.9623  0.2969 -0.8458
29304SOL     OW94003  10.251   0.948   9.380 -0.6519  0.1307 -0.4156
29304SOL    HW194004  10.186   0.923   9.446  0.2149  0.4328  0.5968
29304SOL    HW294005  10.200   0.969   9.302 -1.6394 -1.3112 -0.1933
29305SOL     OW94006   6.294   3.659   1.521 -0.0692 -0.1185  0.7148
29305SOL    HW194007   6.357   3.728   1.542 -0.4787  0.4146  0.2541
29305SOL    HW294008   6.292   3.603   1.598 -1.2730  1.5599  1.9782
29306SOL     OW94009   8.313   3.387   5.753  0.2492 -0.0560  0.3217
29306SOL    HW194010   8.275   3.309   5.794  0.1296 -1.3254 -2.0298
29306SOL    HW294011   8.242   3.451   5.752 -0.3198 -0.6842  0.3452
29307SOL     OW94012   3.819   8.893   6.416  0.1082  0.0819  0.2742
29307SOL    HW194013   3.900   8.868   6.373 -0.5713 -2.6267  0.3586
29307SOL    HW294014   3.843   8.908   6.508  0.8942  2.0299 -0.1944
29308SOL     OW94015  10.135   7.246   6.465 -0.2059  0.4236 -0.1676
29308SOL    HW194016  10.110   7.321   6.411  1.2088 -0.3348 -2.0001
29308SOL    HW294017  10.139   7.173   6.404 -1.1907 -1.1152  1.4982
29309SOL     OW94018   8.591   8.283   5.890 -0.0180  0.1422  0.4386
29309SOL    HW194019   8.530   8.357   5.898  1.0328  0.9549  1.1656
29309SOL    HW294020   8.654   8.311   5.823 -0.0126 -0.3914  0.2165
29310SOL     OW94021   3.032   9.690   4.355 -0.6172  0.1750 -0.3022
29310SOL    HW194022   3.065   9.688   4.265 -1.0130  0.8411 -0.4659
29310SOL    HW294023   2.989   9.605   4.366 -3.1543  1.1486 -1.7465
29311SOL     OW94024   4.832   2.737   8.586  0.1820 -0.6786  0.3396
29311SOL    HW194025   4.908   2.772   8.633  0.0253  0.5972 -0.2922
29311SOL    HW294026   4.835   2.643   8.602  3.1111 -1.0074 -1.3086
29312SOL     OW94027   5.834   2.719   0.226 -0.3653  0.1765 -0.2016
29312SOL    HW194028   5.754   2.770   0.242 -2.1917 -2.5425  0.0732
29312SOL    HW294029   5.895   2.748   0.295 -1.4564  1.6064  0.2211
29313SOL     OW94030   6.820   2.782   3.092  0.1951 -0.4149 -0.6416
29313SOL    HW194031   6.843   2.709   3.035  0.3899 -1.5098  0.7698
29313SOL    HW294032   6.887   2.780   3.161 -0.0625  0.8261 -0.3341
29314SOL     OW94033   3.910   4.665   4.549  0.1618 -0.4580  0.4999
29314SOL    HW194034   3.990   4.618   4.573 -0.7712 -1.4426  1.8215
29314SOL    HW294035   3.839   4.607   4.577 -1.0320  0.0210 -1.3772
29315SOL     OW94036   0.955   5.389   9.750 -0.0971  1.0755  0.4429
29315SOL    HW194037   1.044   5.368   9.780  0.0399  1.0119 -0.0042
29315SOL    HW294038   0.959   5.378   9.655 -0.8075  0.2456  0.5006
29316SOL     OW94039   8.565  10.866   4.970  0.3650  0.3238 -0.3919
29316SOL    HW194040   8.590  10.953   5.003  0.6606  0.0569  0.1053
29316SOL    HW294041   8.510  10.884   4.894  1.9850  0.9225 -1.4631
29317SOL     OW94042   3.471   7.227  10.405 -0.1768  0.0506 -0.3394
29317SOL    HW194043   3.430   7.224  10.491  0.1786  0.1138 -0.1644
29317SOL    HW294044   3.433   7.153  10.357 -1.8914  1.1959 -0.8242
29318SOL     OW94045   9.941   9.002  10.356  0.5006  0.3442 -0.3226
29318SOL    HW194046   9.885   9.075  10.384  2.9199  2.1865  0.0761
29318SOL    HW294047   9.944   9.011  10.260 -0.2913 -0.1325 -0.4055
29319SOL     OW94048   5.669   9.993   7.618 -0.7144 -0.8025 -0.1452
29319SOL    HW194049   5.669   9.929   7.689 -1.4681 -0.4968  0.1401
29319SOL    HW294050   5.743  10.051   7.637 -0.3390 -1.2799 -0.1323
29320SOL     OW94051   6.454   4.747  10.070 -0.1528 -0.2230 -0.2295
29320SOL    HW194052   6.453   4.708   9.983  0.4105 -0.0910 -0.2987
29320SOL    HW294053   6.528   4.807  10.068 -1.5550  1.5820 -0.4357
29321SOL     OW94054   2.286  10.816   4.240  0.6602 -0.3404  0.1254
29321SOL    HW194055   2.284  10.744   4.176 -1.6028 -0.5602  0.3773
29321SOL    HW294056   2.206  10.865   4.223  0.8888  0.6173  1.6726
29322SOL     OW94057   1.408   4.349   5.610  0.5566  0.2225 -0.4173
29322SOL    HW194058   1.329   4.300   5.589 -1.8849  2.6636  2.0845
29322SOL    HW294059   1.429   4.323   5.700  2.8403 -0.5284 -1.0919
29323SOL     OW94060   8.025  10.229   9.461 -0.0920 -0.2308  0.2604
29323SOL    HW194061   7.961  10.264   9.399  0.4579 -1.5710 -1.1310
29323SOL    HW294062   7.993  10.257   9.546 -1.2640  1.0932 -0.5646
29324SOL     OW94063   1.619   9.408   6.412 -0.0229  0.1176  0.0778
29324SOL    HW194064   1.611   9.417   6.507  1.5882 -0.1102  0.2688
29324SOL    HW294065   1.564   9.333   6.390 -1.1003  0.7041  0.6969
29325SOL     OW94066   4.071   4.333   0.810 -0.5942  0.1312 -0.5252
29325SOL    HW194067   4.087   4.289   0.893 -1.7303  0.5691 -0.0690
29325SOL    HW294068   4.022   4.412   0.832  1.7172  1.9094 -1.2673
29326SOL     OW94069   8.421   8.066   6.159 -0.2434 -0.4363  0.1165
29326SOL    HW194070   8.340   8.113   6.139  0.3109 -0.0381 -1.2851
29326SOL    HW294071   8.407   7.978   6.124  0.4893  0.0768 -1.5179
29327SOL     OW94072   7.388   3.008   9.428 -0.3810  0.6179 -0.2718
29327SOL    HW194073   7.306   2.963   9.408 -1.8342  3.5119 -1.4504
29327SOL    HW294074   7.362   3.099   9.446  2.5776  1.6757 -0.7396
29328SOL     OW94075   1.148   7.819   8.627  0.1761  0.2243 -0.0876
29328SOL    HW194076   1.129   7.804   8.719 -0.5233 -0.2494 -0.3080
29328SOL    HW294077   1.130   7.912   8.614 -0.5626  0.1021  0.0516
29329SOL     OW94078   0.391   8.064   3.817 -0.5965 -0.0988 -0.0055
29329SOL    HW194079   0.357   8.051   3.728 -1.8979  0.2963  0.3995
29329SOL    HW294080   0.484   8.044   3.811 -1.0390 -2.1248 -1.0077
29330SOL     OW94081   3.225   3.334  10.476 -0.0639 -0.2930 -0.4019
29330SOL    HW194082   3.201   3.423  10.450 -0.6311  0.2277  1.6659
29330SOL    HW294083   3.242   3.341  10.570 -0.2795 -2.4124 -0.1548
29331SOL     OW94084   2.749   6.075   0.683  0.3017  0.4888 -0.2196
29331SOL    HW194085   2.805   6.146   0.714  0.9036  0.3924 -1.0405
29331SOL    HW294086   2.805   5.997   0.689  0.9451  0.6680 -2.7839
29332SOL     OW94087   6.768   6.297   7.076 -0.5764  0.9483  0.3275
29332SOL    HW194088   6.801   6.350   7.148  0.2184  1.1108 -0.1481
29332SOL    HW294089   6.819   6.216   7.079 -1.5995  0.3018  0.8834
29333SOL     OW94090   3.220   2.404   9.296  0.4331 -0.4593 -0.4496
29333SOL    HW194091   3.209   2.326   9.241 -2.0895  0.1545 -0.9624
29333SOL    HW294092   3.130   2.437   9.309  1.1906  0.8835  1.9352
29334SOL     OW94093   9.480   9.656   6.599  0.0596  0.2667  0.0980
29334SOL    HW194094   9.562   9.675   6.645 -0.4347  1.6539  0.4634
29334SOL    HW294095   9.416   9.644   6.669 -0.1953 -0.1229 -0.2002
29335SOL     OW94096   2.732   1.750  10.256 -0.6844 -0.5244  0.1180
29335SOL    HW194097   2.726   1.658  10.280 -0.5934 -0.3134  0.9985
29335SOL    HW294098   2.744   1.796  10.340  0.8663  0.1432 -0.4419
29336SOL     OW94099   1.585   3.300  10.180  0.3034  0.0168  0.2147
29336SOL    HW194100   1.650   3.241  10.142 -0.6622 -0.3271 -0.9725
29336SOL    HW294101   1.501   3.254  10.170 -0.2744  0.9113  0.7160
29337SOL     OW94102   2.815   6.297   9.021 -0.4628 -0.5458  0.1569
29337SOL    HW194103   2.840   6.205   9.029  2.5716 -0.0998 -2.2665
29337SOL    HW294104   2.888   6.338   8.975 -2.3460  2.8095 -0.1890
29338SOL     OW94105   4.819   6.250   9.352  0.1186 -0.3768 -0.4906
29338SOL    HW194106   4.845   6.241   9.443  0.6686  1.7092 -0.3787
29338SOL    HW294107   4.852   6.172   9.309  1.8033 -0.3676  0.6973
29339SOL     OW94108   3.766   9.622   4.705  0.1697  0.3279 -0.0029
29339SOL    HW194109   3.791   9.629   4.613 -2.1221 -1.5578 -0.9053
29339SOL    HW294110   3.696   9.686   4.716 -1.4583 -1.2903 -0.4257
29340SOL     OW94111   1.686  10.417  10.114  0.0740  0.7108 -0.4583
29340SOL    HW194112   1.711  10.325  10.118  0.3861  0.7277 -1.7178
29340SOL    HW294113   1.617  10.421  10.048 -0.4411  1.2765  0.0984
29341SOL     OW94114   4.400   4.364   9.372 -0.2166 -0.1072 -0.1703
29341SOL    HW194115   4.305   4.375   9.368 -0.3480 -0.2263  1.8800
29341SOL    HW294116   4.434   4.428   9.309 -1.6132  0.4768 -0.3671
29342SOL     OW94117   1.903   6.237   7.274  0.0766  0.5034  0.3004
29342SOL    HW194118   1.936   6.208   7.359 -1.1698 -1.5299  0.1645
29342SOL    HW294119   1.902   6.157   7.221 -0.7784  1.3985 -1.0675
29343SOL     OW94120   8.529  10.335  10.092  0.6065  0.5923 -0.1609
29343SOL    HW194121   8.501  10.426  10.108  0.5061  0.5346 -0.0058
29343SOL    HW294122   8.541  10.330   9.997 -0.6843  0.4027 -0.3272
29344SOL     OW94123   3.453   6.135   0.076 -0.1788 -0.7488  0.6635
29344SOL    HW194124   3.451   6.209   0.137 -1.6843 -0.4775  0.3266
29344SOL    HW294125   3.391   6.159   0.007  0.6274 -1.5658 -0.3763
29345SOL     OW94126   1.682   7.963   3.882 -0.2330  0.1034 -0.1006
29345SOL    HW194127   1.658   7.894   3.820 -0.4752 -1.6693  1.8854
29345SOL    HW294128   1.766   7.936   3.919  0.3063  1.5385 -0.1807
29346SOL     OW94129   4.279   8.389   8.374 -0.1668 -0.7102  0.3825
29346SOL    HW194130   4.357   8.410   8.323 -0.8908 -1.4354 -1.0965
29346SOL    HW294131   4.213   8.452   8.344 -0.4055 -0.6700  0.9728
29347SOL     OW94132   0.455   8.910   6.602  0.1658 -0.1125  0.4982
29347SOL    HW194133   0.517   8.983   6.611  1.7082 -1.1771 -0.8839
29347SOL    HW294134   0.429   8.891   6.692  0.3664  1.5855  0.9685
29348SOL     OW94135   3.898   2.190   1.322  0.1317 -0.5881 -0.3659
29348SOL    HW194136   3.928   2.263   1.268  0.1111 -0.8924 -0.7984
29348SOL    HW294137   3.965   2.122   1.311 -0.9507 -1.4886 -1.8042
29349SOL     OW94138   7.362   7.327   3.205  0.2309 -0.4044 -0.0154
29349SOL    HW194139   7.451   7.356   3.183 -0.3218  1.2261 -0.1980
29349SOL    HW294140   7.311   7.345   3.125  0.0585 -2.9937 -0.5776
29350SOL     OW94141   6.760   8.519   5.497 -0.7147 -0.9738  0.5640
29350SOL    HW194142   6.766   8.477   5.411 -0.8192 -1.2431  0.6891
29350SOL    HW294143   6.676   8.490   5.532  0.8519 -3.8272  2.3148
29351SOL     OW94144   5.236  10.767   6.662  0.2610  0.2279  0.4098
29351SOL    HW194145   5.250  10.696   6.726  0.7734 -0.9525 -0.9651
29351SOL    HW294146   5.295  10.837   6.692  0.7722 -0.4437  1.0268
29352SOL     OW94147  10.221   0.834   3.638 -0.0724 -0.5532  0.2672
29352SOL    HW194148  10.146   0.840   3.696 -1.2743 -1.1040 -1.1764
29352SOL    HW294149  10.254   0.745   3.649 -1.4286 -1.2906 -1.1596
29353SOL     OW94150   4.274   3.031  10.083 -0.2933  0.6213  0.0200
29353SOL    HW194151   4.357   3.043  10.130 -0.3934 -1.6185  0.9079
29353SOL    HW294152   4.212   3.084  10.133 -0.4445 -1.8686  2.7563
29354SOL     OW94153  10.682   1.399   5.530 -0.5205  0.6998  0.4879
29354SOL    HW194154  10.618   1.331   5.506  1.4774 -1.1500  0.0291
29354SOL    HW294155  10.725   1.420   5.447 -0.4574  1.8612  0.8031
29355SOL     OW94156   8.111   7.791   1.723  0.1251  0.5049  0.0619
29355SOL    HW194157   8.055   7.788   1.800  1.5998 -0.5032  1.1528
29355SOL    HW294158   8.052   7.773   1.649 -0.9041 -1.0572  1.2096
29356SOL     OW94159   5.277   0.825   3.546  0.3849 -0.4575 -0.0648
29356SOL    HW194160   5.227   0.745   3.562  1.2850 -1.3539 -1.5633
29356SOL    HW294161   5.311   0.849   3.632 -0.8479 -1.0148  0.6069
29357SOL     OW94162   9.533   6.876   7.166 -0.6552  0.0721  0.1957
29357SOL    HW194163   9.451   6.875   7.117 -1.6644  1.1178  1.7645
29357SOL    HW294164   9.519   6.814   7.238 -0.4008  0.8456  0.9354
29358SOL     OW94165   7.979   5.315   7.992  0.0497 -0.0107  0.7859
29358SOL    HW194166   8.024   5.399   7.995  0.7229 -0.2553 -1.0242
29358SOL    HW294167   7.886   5.337   7.985  0.1973  0.5683  0.6098
29359SOL     OW94168   8.193   9.604   0.007 -0.0931 -0.3738 -0.0230
29359SOL    HW194169   8.249   9.554  -0.053 -0.2355 -0.7414  0.1505
29359SOL    HW294170   8.245   9.612   0.087  0.0868  0.0944 -0.1787
29360SOL     OW94171   0.883   4.181   1.099 -0.0361 -1.0741  0.7380
29360SOL    HW194172   0.865   4.270   1.131 -1.5617 -0.6841 -1.0389
29360SOL    HW294173   0.818   4.126   1.142  0.2955 -1.1764  1.1120
29361SOL     OW94174  10.198   1.700   7.900  0.4396 -0.5874  0.0188
29361SOL    HW194175  10.265   1.691   7.967  1.0726 -0.7734 -0.6267
29361SOL    HW294176  10.247   1.711   7.818 -0.3148  1.0316 -0.2462
29362SOL     OW94177   1.825   5.165   7.968 -0.8696 -0.1489 -0.2855
29362SOL    HW194178   1.794   5.245   8.010 -0.6609  0.0278 -0.4668
29362SOL    HW294179   1.841   5.189   7.877  1.2217  0.1712  0.1055
29363SOL     OW94180   8.011  10.063   1.433  0.1401 -0.4424 -0.2386
29363SOL    HW194181   8.085  10.003   1.421  0.1175 -0.4729 -0.2228
29363SOL    HW294182   7.967  10.064   1.348  0.0488 -0.5680 -0.1917
29364SOL     OW94183   1.699   9.553   2.177 -0.0490  0.1189  0.0612
29364SOL    HW194184   1.738   9.466   2.184 -0.3129  0.0722  1.2157
29364SOL    HW294185   1.744   9.594   2.103  0.8181 -0.6245  0.1559
29365SOL     OW94186   4.311   7.896   5.405  0.0457 -0.4416 -0.2166
29365SOL    HW194187   4.355   7.835   5.345 -2.0864 -1.5820 -0.6968
29365SOL    HW294188   4.322   7.981   5.363  1.8304 -0.6415 -0.2651
29366SOL     OW94189   6.593   4.283   4.449 -0.4097  0.2418  0.2647
29366SOL    HW194190   6.536   4.230   4.504  0.4538 -1.0744 -0.0521
29366SOL    HW294191   6.535   4.347   4.409 -1.5184 -0.5277  0.5967
29367SOL     OW94192  10.506   0.038   3.121  0.3853 -0.2219 -0.6439
29367SOL    HW194193  10.560   0.107   3.158  1.9725 -1.9220  0.3392
29367SOL    HW294194  10.489  -0.021   3.194  0.9116 -1.9972 -1.8941
29368SOL     OW94195   2.273   1.357   9.791  0.2660 -0.1396 -0.3425
29368SOL    HW194196   2.339   1.308   9.741  1.4194 -0.2249  1.2240
29368SOL    HW294197   2.215   1.289   9.825  1.3722 -0.3912  1.1157
29369SOL     OW94198   9.085   9.709   8.678 -0.3478  0.0724 -0.1303
29369SOL    HW194199   8.996   9.740   8.661 -0.0615  0.8560 -0.2203
29369SOL    HW294200   9.087   9.622   8.638 -0.2089  1.1578 -2.7217
29370SOL     OW94201   4.301   7.586   7.249 -0.1955 -1.0502 -0.1883
29370SOL    HW194202   4.311   7.675   7.217 -0.5744 -1.0396 -0.2849
29370SOL    HW294203   4.247   7.542   7.182 -0.7293 -1.1116  0.2723
29371SOL     OW94204   6.859   0.849   8.413  1.2016 -0.3811  0.0299
29371SOL    HW194205   6.932   0.909   8.395  2.2846 -1.4941  0.5604
29371SOL    HW294206   6.866   0.782   8.345  1.2538 -1.0028  0.6413
29372SOL     OW94207   5.826   0.030   8.074  0.1735  0.2002 -0.3259
29372SOL    HW194208   5.751   0.090   8.071 -1.1829 -1.2681  1.8941
29372SOL    HW294209   5.879   0.063   8.146  1.4553  0.9018 -1.5386
29373SOL     OW94210  10.620   1.254   1.427 -0.1957 -0.0875 -0.3142
29373SOL    HW194211  10.669   1.306   1.363 -0.8602  0.7955 -0.1323
29373SOL    HW294212  10.536   1.300   1.434 -0.6831 -1.0278  0.0840
29374SOL     OW94213   8.630   3.561   8.086  0.2025  0.1521 -0.4261
29374SOL    HW194214   8.591   3.605   8.161  2.2778 -0.5449  1.1616
29374SOL    HW294215   8.556   3.531   8.034 -1.3075  0.5927  1.3722
29375SOL     OW94216   4.322   8.073   0.257 -0.0965 -0.1348  0.1786
29375SOL    HW194217   4.411   8.053   0.227 -0.4299 -0.4812 -0.6293
29375SOL    HW294218   4.334   8.127   0.334  0.8202  0.2345 -0.2072
29376SOL     OW94219   4.202   4.048   3.149  0.8735  0.5355 -0.0691
29376SOL    HW194220   4.238   4.044   3.060 -0.1295 -1.1217 -0.4587
29376SOL    HW294221   4.272   4.015   3.204  1.5812  1.7795 -0.1938
29377SOL     OW94222   1.474   4.930   8.712 -0.0804 -0.9628  0.3289
29377SOL    HW194223   1.518   4.972   8.786 -0.5219 -1.4512  0.8769
29377SOL    HW294224   1.412   4.869   8.752 -1.3562 -0.2142 -0.4237
29378SOL     OW94225   1.886   7.963   8.342  0.8849  0.1285 -0.1763
29378SOL    HW194226   1.838   8.027   8.290  2.1726  0.0359 -1.5851
29378SOL    HW294227   1.971   8.004   8.359  0.9763 -0.3974  0.7051
29379SOL     OW94228   7.159   9.343   9.499  0.3068  0.0229 -0.2234
29379SOL    HW194229   7.083   9.383   9.456 -0.4449  1.6731  2.3860
29379SOL    HW294230   7.217   9.417   9.518  2.1565 -1.0795 -1.2514
29380SOL     OW94231   3.106   9.196   8.005 -0.4005 -0.1820  0.5975
29380SOL    HW194232   3.148   9.157   8.081 -1.7568  0.9464  1.9993
29380SOL    HW294233   3.023   9.231   8.038 -1.7731 -0.9845 -1.7115
29381SOL     OW94234   1.218   0.578   1.481 -0.2239  0.5570 -0.1718
29381SOL    HW194235   1.308   0.568   1.451  0.1488  1.7558  0.4639
29381SOL    HW294236   1.227   0.610   1.571 -1.2995 -1.1496  0.6042
29382SOL     OW94237   9.950   3.129   2.596  0.0914  0.0808 -0.3571
29382SOL    HW194238  10.041   3.101   2.587  0.0857  0.3483 -1.4250
29382SOL    HW294239   9.944   3.165   2.684  0.8107 -0.6665  0.0139
29383SOL     OW94240  10.329   9.094   9.139 -0.0461 -0.3751 -0.1344
29383SOL    HW194241  10.381   9.072   9.217 -0.7865 -0.2335  0.4080
29383SOL    HW294242  10.288   9.012   9.114 -0.7066 -0.1895  0.3109
29384SOL     OW94243   0.549   7.339   6.537  1.2968 -0.1357 -0.3499
29384SOL    HW194244   0.608   7.287   6.483 -0.5954 -0.5903 -2.1236
29384SOL    HW294245   0.587   7.427   6.536  1.6023 -0.2524 -2.0270
29385SOL     OW94246   0.245   7.613   9.642 -0.3319 -0.6093  0.0514
29385SOL    HW194247   0.203   7.699   9.633  1.2349  0.0969 -0.8301
29385SOL    HW294248   0.250   7.579   9.553  0.0486 -1.1421  0.2738
29386SOL     OW94249   8.990   2.133   4.227 -0.4677  0.8110  0.1423
29386SOL    HW194250   8.927   2.164   4.292  2.1837  0.8112  2.9499
29386SOL    HW294251   9.047   2.208   4.210 -1.0457  0.7968 -2.2858
29387SOL     OW94252  10.321   4.182   1.179  0.2351  0.2899  0.5890
29387SOL    HW194253  10.251   4.236   1.141 -1.0185 -1.0816  0.8530
29387SOL    HW294254  10.378   4.163   1.104  0.1591  1.1415  0.2944
29388SOL     OW94255   8.702   8.431   6.607 -0.7576  0.0722  0.4541
29388SOL    HW194256   8.739   8.362   6.553 -0.4347  0.6261 -0.0424
29388SOL    HW294257   8.653   8.385   6.675  0.0570 -0.6551  0.5627
29389SOL     OW94258  10.777   0.081   2.521 -0.0229  0.0152 -0.3781
29389SOL    HW194259  10.778  -0.005   2.564 -1.1804 -0.1002 -0.5363
29389SOL    HW294260  10.826   0.068   2.440  4.0408  0.7572  1.7279
29390SOL     OW94261   6.549   6.929   8.481  0.3755 -0.5574  0.1388
29390SOL    HW194262   6.514   6.880   8.556  0.4708  1.5682  1.6695
29390SOL    HW294263   6.472   6.964   8.437  0.3790 -0.7814 -0.0532
29391SOL     OW94264   0.514   4.881   6.349 -0.0467 -0.6145  0.0463
29391SOL    HW194265   0.604   4.876   6.318 -0.5471  1.7543 -2.2031
29391SOL    HW294266   0.513   4.953   6.411 -0.7156  1.0481 -1.7720
29392SOL     OW94267   4.020   9.798   3.728  0.1746  0.0764 -0.2372
29392SOL    HW194268   4.005   9.889   3.750 -0.6524 -0.0875 -0.1074
29392SOL    HW294269   4.095   9.772   3.783  1.1456  0.9789 -1.1130
29393SOL     OW94270   2.450   1.316   2.576 -0.0364  0.4637  0.1000
29393SOL    HW194271   2.504   1.240   2.550  0.1264  0.7369 -0.3645
29393SOL    HW294272   2.402   1.339   2.497 -2.6063 -1.1845  1.0400
29394SOL     OW94273   6.942   6.446  10.445 -0.1909 -0.1029  0.0531
29394SOL    HW194274   6.931   6.536  10.414 -1.7976 -0.3635 -0.2216
29394SOL    HW294275   6.996   6.404  10.378  0.8867  0.7400  0.3751
29395SOL     OW94276   3.212   7.101   5.764  0.0478  0.0456  0.1421
29395SOL    HW194277   3.296   7.057   5.749  0.1909 -0.0748  1.2676
29395SOL    HW294278   3.212   7.173   5.701  0.1382 -1.0904 -1.2126
29396SOL     OW94279   4.808   0.303   7.193 -0.2822  0.1172  0.1768
29396SOL    HW194280   4.744   0.352   7.141 -0.1707  0.2272  0.1435
29396SOL    HW294281   4.760   0.225   7.223 -0.8674  0.9168  1.3881
29397SOL     OW94282   6.729   2.680   3.343 -0.2374  0.1006  0.2118
29397SOL    HW194283   6.734   2.723   3.257 -0.5557 -1.5018 -0.6404
29397SOL    HW294284   6.653   2.718   3.385 -1.0282 -0.2302 -0.8826
29398SOL     OW94285   6.779   6.127   6.401 -0.0545 -0.0549  0.3570
29398SOL    HW194286   6.866   6.162   6.382  0.0288  0.5593  1.7300
29398SOL    HW294287   6.796   6.047   6.451 -0.2103  1.5738  3.2091
29399SOL     OW94288   9.897   8.494  10.274  0.0904 -0.1681  0.5011
29399SOL    HW194289   9.936   8.575  10.305  0.7869  0.3121 -1.5062
29399SOL    HW294290   9.961   8.426  10.296  1.0699  0.3120 -0.7820
29400SOL     OW94291   7.459   3.812   5.722 -0.2740 -0.7006 -0.7696
29400SOL    HW194292   7.523   3.751   5.758  0.2448  1.6403  2.7113
29400SOL    HW294293   7.493   3.835   5.636  3.6458  0.3540  0.8582
29401SOL     OW94294   3.634   7.343   5.153 -0.4803 -0.1130 -0.4737
29401SOL    HW194295   3.672   7.255   5.157 -0.9753 -0.3119 -0.0351
29401SOL    HW294296   3.540   7.329   5.161 -0.5176  0.4986  0.2944
29402SOL     OW94297   5.665   7.465   3.702 -0.1445 -0.7007  0.1724
29402SOL    HW194298   5.575   7.469   3.734  0.2404  0.9062  1.1521
29402SOL    HW294299   5.675   7.542   3.647  0.8090 -0.5072  0.5919
29403SOL     OW94300   6.729   6.587   1.161 -0.0962 -0.0917 -0.1708
29403SOL    HW194301   6.776   6.543   1.090  1.2225 -0.1202  0.6733
29403SOL    HW294302   6.748   6.680   1.149  0.8580 -0.1661  0.6116
29404SOL     OW94303   7.400   4.471   3.059  0.1516  0.1998 -0.4421
29404SOL    HW194304   7.344   4.451   3.134  0.5453 -2.6657 -0.7736
29404SOL    HW294305   7.488   4.476   3.096 -0.0139  2.5328 -0.2392
29405SOL     OW94306   8.503   0.453   5.982 -0.2537 -0.2538  0.0490
29405SOL    HW194307   8.498   0.545   6.010  1.0851 -0.0267 -0.3479
29405SOL    HW294308   8.594   0.428   5.999 -0.1823 -1.0211 -1.2754
29406SOL     OW94309   6.832   6.795  10.666  0.2687 -0.4626  0.6315
29406SOL    HW194310   6.816   6.747  10.747 -0.0261  0.6950  1.2702
29406SOL    HW294311   6.751   6.845  10.651 -0.2022 -1.6196 -1.0693
29407SOL     OW94312   5.381   4.794   7.758  0.8748 -0.4428 -0.0534
29407SOL    HW194313   5.346   4.811   7.846 -0.1718  1.2425 -0.7309
29407SOL    HW294314   5.445   4.725   7.771 -0.1720 -1.1539  1.8337
29408SOL     OW94315   8.254   4.192   5.457  0.4978  0.4238 -0.2272
29408SOL    HW194316   8.165   4.185   5.493  0.1217 -0.9237 -1.3290
29408SOL    HW294317   8.265   4.285   5.437 -1.0038  0.4922 -0.8544
29409SOL     OW94318   4.895   6.401   5.444 -0.2678  0.5490  0.0148
29409SOL    HW194319   4.900   6.453   5.364 -0.6276 -0.1666 -0.4887
29409SOL    HW294320   4.805   6.410   5.474 -0.1477  0.7719  0.3088
29410SOL     OW94321   1.227   4.143   1.955  0.0986 -0.3371 -0.6282
29410SOL    HW194322   1.279   4.217   1.924  1.1354 -0.4842  0.6977
29410SOL    HW294323   1.197   4.100   1.875  0.5392  0.7753 -1.4121
29411SOL     OW94324   0.901   0.095   9.896 -0.3817 -0.3806 -0.1347
29411SOL    HW194325   0.971   0.118   9.834  0.7347 -2.1006  0.4056
29411SOL    HW294326   0.881   0.177   9.940 -0.5064  0.6786 -2.0578
29412SOL     OW94327   8.459   3.933   8.920  0.1066  0.7943  0.0155
29412SOL    HW194328   8.466   4.012   8.974  0.1436  0.0863  1.0660
29412SOL    HW294329   8.548   3.896   8.920  0.3844  1.3824 -1.4906
29413SOL     OW94330   8.827   7.671   8.909  0.1241 -1.1091  0.0760
29413SOL    HW194331   8.804   7.603   8.845  0.1612 -0.8327 -0.2335
29413SOL    HW294332   8.742   7.705   8.937  0.1137 -1.0906  0.0217
29414SOL     OW94333   6.873   0.958   8.012 -0.0864  0.6124 -0.3230
29414SOL    HW194334   6.818   0.919   8.080  1.9469  0.0163  1.0712
29414SOL    HW294335   6.845   0.916   7.931  0.1761 -1.8085  0.7437
29415SOL     OW94336   4.585   5.940   2.985 -0.4372 -0.3106  1.1723
29415SOL    HW194337   4.503   5.983   2.960  0.7334  0.5300 -1.6303
29415SOL    HW294338   4.563   5.847   2.986 -1.4872 -0.0842  0.6775
29416SOL     OW94339   9.406   0.273   4.277 -0.1114  0.0444 -0.0715
29416SOL    HW194340   9.455   0.263   4.358  1.0585  0.1805 -0.7462
29416SOL    HW294341   9.349   0.349   4.293 -0.2325 -0.2091  0.7645
29417SOL     OW94342   1.228   7.827   7.661  0.3715 -0.4347 -0.6044
29417SOL    HW194343   1.277   7.906   7.641 -0.4175  0.4621  0.7894
29417SOL    HW294344   1.165   7.819   7.589 -0.5684  1.1117 -0.0103
29418SOL     OW94345   4.301   5.725   5.205 -0.0800 -0.5324  0.8083
29418SOL    HW194346   4.366   5.739   5.274  1.0993 -1.1797 -0.1410
29418SOL    HW294347   4.217   5.743   5.248  0.6661 -0.2370  2.2173
29419SOL     OW94348   5.596   0.539   5.160  0.7050 -0.1296  0.6393
29419SOL    HW194349   5.578   0.633   5.168  3.1477  0.6648 -1.9011
29419SOL    HW294350   5.548   0.512   5.082 -2.8425 -1.9874  3.1673
29420SOL     OW94351   5.326   1.084   0.971 -0.3699 -0.1383  0.7478
29420SOL    HW194352   5.332   1.140   1.049 -0.0424 -1.4083  1.6551
29420SOL    HW294353   5.373   1.005   0.994 -1.1377 -0.9564 -0.3850
29421SOL     OW94354   9.364   8.533   4.165  0.3740 -0.1737 -0.0149
29421SOL    HW194355   9.421   8.479   4.220 -0.0638 -0.3708  0.2466
29421SOL    HW294356   9.329   8.473   4.100 -0.1277 -0.2126  0.2888
29422SOL     OW94357   0.816   0.311  10.003  0.3061 -0.6880 -0.3914
29422SOL    HW194358   0.858   0.337  10.085  0.1249 -3.3413  0.6477
29422SOL    HW294359   0.748   0.377   9.989  0.8312  0.2401  1.1846
29423SOL     OW94360   9.733   5.993   8.315 -0.5592 -0.6428  0.0601
29423SOL    HW194361   9.823   6.017   8.337 -0.2232 -3.1954  1.9653
29423SOL    HW294362   9.688   6.077   8.303  1.9141  0.7085 -0.4015
29424SOL     OW94363   1.983   4.353   8.350  0.2080 -0.0135 -0.4623
29424SOL    HW194364   1.971   4.448   8.350  0.8188  0.0687  0.0292
29424SOL    HW294365   1.952   4.325   8.436 -1.6722 -0.4982 -1.2487
29425SOL     OW94366   5.288   5.243   2.209  0.5491  0.2965  0.5134
29425SOL    HW194367   5.365   5.284   2.250  1.5027 -1.4550  0.5888
29425SOL    HW294368   5.232   5.219   2.283  1.0019 -0.4184  0.6418
29426SOL     OW94369   4.265   8.565  10.601 -0.1950  0.4608 -0.0392
29426SOL    HW194370   4.204   8.548  10.673 -0.8663  2.8688  0.0485
29426SOL    HW294371   4.303   8.479  10.581 -0.5773 -0.4366  2.6218
29427SOL     OW94372   6.819   9.513   6.792  0.1172 -0.7259 -0.3460
29427SOL    HW194373   6.803   9.483   6.702 -0.9306  1.7171 -1.0495
29427SOL    HW294374   6.838   9.606   6.783  0.5156 -0.5282  1.9524
29428SOL     OW94375  10.116   4.231   0.944  0.7170 -0.0906 -0.5273
29428SOL    HW194376  10.103   4.136   0.947 -2.5918  0.2061 -1.1187
29428SOL    HW294377  10.191   4.243   0.886  2.1327 -2.3448  0.6890
29429SOL     OW94378  10.810  10.129   0.697 -0.2888  0.4284  0.1726
29429SOL    HW194379  10.849  10.212   0.670  0.8125 -0.2787 -0.4785
29429SOL    HW294380  10.736  10.117   0.637  0.3664  0.2959 -0.6266
29430SOL     OW94381   1.251   8.356   0.462  0.4215  0.1046  0.6598
29430SOL    HW194382   1.280   8.414   0.532  0.5969 -0.3265  0.9509
29430SOL    HW294383   1.303   8.383   0.386 -2.5401  3.3027 -0.5088
29431SOL     OW94384   3.237   3.462   0.233 -0.4880  0.0009 -0.1951
29431SOL    HW194385   3.240   3.552   0.265  0.9756 -0.0130 -0.2084
29431SOL    HW294386   3.324   3.427   0.253 -1.6536 -2.0835  1.7039
29432SOL     OW94387   9.409   7.234   7.741  0.0716 -0.5805  0.0616
29432SOL    HW194388   9.323   7.277   7.734  1.0935  1.8407  1.1710
29432SOL    HW294389   9.454   7.258   7.660  1.0910  1.7028  1.2017
29433SOL     OW94390   3.913   8.680   0.889  0.1543 -0.4718  0.2448
29433SOL    HW194391   4.009   8.680   0.884  0.3600 -0.3831  2.8048
29433SOL    HW294392   3.889   8.587   0.882  0.4228 -0.4880 -0.4588
29434SOL     OW94393   7.099   1.122   0.094  0.2800  0.3449 -0.2329
29434SOL    HW194394   7.077   1.155   0.007 -1.0005 -1.0613 -0.4807
29434SOL    HW294395   7.189   1.091   0.086  0.7796  1.8155 -0.5552
29435SOL     OW94396   8.523   7.465   9.376  0.1796 -0.3334  0.5806
29435SOL    HW194397   8.461   7.411   9.327 -0.6534  0.7595  0.3960
29435SOL    HW294398   8.602   7.465   9.322 -0.8102  1.0746 -0.9587
29436SOL     OW94399   6.761  10.254   8.151  0.1190  0.3860 -0.3417
29436SOL    HW194400   6.798  10.320   8.210 -1.2678 -0.1709  1.2570
29436SOL    HW294401   6.669  10.279   8.143 -0.5739 -1.5952  0.7438
29437SOL     OW94402   6.889   3.818   3.203 -0.2280 -0.0817 -0.1013
29437SOL    HW194403   6.895   3.880   3.276  0.3043  0.5539 -0.6644
29437SOL    HW294404   6.874   3.733   3.245 -1.8723  0.5409  0.6524
29438SOL     OW94405   8.735   7.876   3.426  0.0605  0.4028  0.0699
29438SOL    HW194406   8.696   7.891   3.340 -0.1114  0.1402  0.1022
29438SOL    HW294407   8.796   7.949   3.437  0.6380  0.0382 -0.5936
29439SOL     OW94408   5.430   8.082   9.944  0.3284 -0.3397 -0.0472
29439SOL    HW194409   5.397   8.123   9.864 -0.7059  1.1357  1.0939
29439SOL    HW294410   5.497   8.143   9.976  0.9802 -1.0919  0.0499
29440SOL     OW94411   3.964   4.744   3.826  0.6233 -0.1445  0.2212
29440SOL    HW194412   4.003   4.717   3.909  0.8135 -1.5668 -0.3102
29440SOL    HW294413   4.022   4.812   3.793 -0.0536  1.2473  1.7618
29441SOL     OW94414   5.117   2.745   5.183 -0.2667 -0.1660 -0.6801
29441SOL    HW194415   5.055   2.673   5.170 -1.8740  0.8188  0.9014
29441SOL    HW294416   5.123   2.754   5.278  0.8618  0.9835 -0.8338
29442SOL     OW94417   5.718   5.897   5.272 -0.0081  0.1532 -0.4293
29442SOL    HW194418   5.677   5.814   5.250  1.8296 -0.7983 -0.4195
29442SOL    HW294419   5.708   5.904   5.367  1.3192 -0.9235 -0.1828
29443SOL     OW94420   4.374   3.009   8.691 -0.0042 -0.7170  0.6136
29443SOL    HW194421   4.424   2.931   8.716 -1.6889 -1.6312  1.3408
29443SOL    HW294422   4.401   3.076   8.753 -1.5846 -1.9816  2.8027
29444SOL     OW94423  10.214   5.197   7.654 -0.2662  0.3419 -0.2440
29444SOL    HW194424  10.125   5.168   7.671 -1.1625  3.0298  0.0304
29444SOL    HW294425  10.207   5.255   7.578  1.6873 -1.2661 -1.8082
29445SOL     OW94426   9.661   7.345   0.266 -0.1773  0.0702  0.0524
29445SOL    HW194427   9.638   7.304   0.183  0.8861  1.2310 -0.8529
29445SOL    HW294428   9.628   7.435   0.259  0.1254  0.2473  0.7824
29446SOL     OW94429   5.184   6.807   2.643  0.4024 -0.0401 -0.1469
29446SOL    HW194430   5.210   6.731   2.696 -2.0239 -1.1083 -0.3366
29446SOL    HW294431   5.166   6.771   2.556 -0.6442  0.7665 -0.2826
29447SOL     OW94432   2.832   5.872   2.275 -0.0218  0.2119  0.1614
29447SOL    HW194433   2.916   5.892   2.317 -0.1205 -0.3225  0.6142
29447SOL    HW294434   2.770   5.862   2.347  0.4138 -3.7699  0.2399
29448SOL     OW94435  10.397   1.600   6.469 -0.0181  0.1507  0.2144
29448SOL    HW194436  10.458   1.629   6.536 -0.1764  3.4455 -0.8954
29448SOL    HW294437  10.320   1.656   6.479 -1.6853 -1.8810 -0.3284
29449SOL     OW94438   8.788   0.303   1.348  0.3843 -0.1086 -0.2819
29449SOL    HW194439   8.860   0.314   1.410  1.0209 -0.3689 -0.9652
29449SOL    HW294440   8.829   0.314   1.262 -0.6043  0.9275 -0.6473
29450SOL     OW94441   6.701   6.663   5.379  0.4957  0.6113 -0.2465
29450SOL    HW194442   6.701   6.568   5.375  0.8797  0.5383  1.0177
29450SOL    HW294443   6.737   6.691   5.295  0.1670 -0.3418 -0.7157
29451SOL     OW94444   4.804   8.766   7.686 -0.3829  0.7069 -0.0530
29451SOL    HW194445   4.711   8.748   7.676 -0.0735 -0.3889 -1.3177
29451SOL    HW294446   4.821   8.841   7.629 -0.2302 -0.0952 -1.1073
29452SOL     OW94447  10.400   0.561   2.771  0.1691  0.3293  0.0064
29452SOL    HW194448  10.370   0.488   2.717 -1.2495  0.6457  0.3415
29452SOL    HW294449  10.493   0.569   2.750  0.3672 -1.5950  0.0060
29453SOL     OW94450   9.179   9.401   9.496  0.3374  0.2800 -0.7320
29453SOL    HW194451   9.261   9.398   9.545  0.0075 -0.3126 -0.1990
29453SOL    HW294452   9.142   9.487   9.515  0.7297  0.4657 -0.8059
29454SOL     OW94453   0.574   5.373   8.790  0.7391  0.0147 -0.0564
29454SOL    HW194454   0.578   5.465   8.767  2.3148  0.2393  0.9163
29454SOL    HW294455   0.665   5.343   8.783  0.4973 -1.0839  1.0600
29455SOL     OW94456   5.479  10.860   7.727  0.4049  0.6078 -0.0885
29455SOL    HW194457   5.403  10.824   7.774  0.2282  2.4491  1.1539
29455SOL    HW294458   5.540  10.787   7.721 -1.3234 -0.8666 -0.9042
29456SOL     OW94459   8.129   3.849   0.460 -0.1723 -0.0380  0.2888
29456SOL    HW194460   8.189   3.801   0.402 -0.5205  1.1281 -1.0867
29456SOL    HW294461   8.045   3.847   0.414 -0.1857  1.9124  0.1595
29457SOL     OW94462   3.234   6.450   1.028 -0.0180 -0.3525  0.0694
29457SOL    HW194463   3.289   6.377   0.999 -0.4484  0.2900 -2.5704
29457SOL    HW294464   3.283   6.529   1.005 -1.6639  0.2177 -1.7566
29458SOL     OW94465   5.113   3.822   5.123 -0.1852 -0.2645  0.7680
29458SOL    HW194466   5.119   3.728   5.139  1.1996 -0.4574 -0.5602
29458SOL    HW294467   5.203   3.853   5.131 -0.4539  0.7404  0.0682
29459SOL     OW94468   5.710   4.607   1.333 -0.0817  0.8908  0.0790
29459SOL    HW194469   5.791   4.633   1.377  1.6184 -0.8845 -1.7934
29459SOL    HW294470   5.706   4.512   1.343 -1.5631  0.8521 -0.5050
29460SOL     OW94471   1.016   2.561   3.022  0.2238  0.2639  0.1679
29460SOL    HW194472   0.983   2.616   2.951  2.6170 -0.1524 -1.3718
29460SOL    HW294473   1.094   2.607   3.053 -0.6034  0.2833  2.4178
29461SOL     OW94474   1.926   2.863   9.409 -0.1270 -0.0480 -0.4468
29461SOL    HW194475   1.977   2.912   9.344  0.1739 -0.8449 -0.8388
29461SOL    HW294476   1.981   2.864   9.487 -1.2013  2.2854  0.3447
29462SOL     OW94477   5.052   1.803   2.762  0.4024  0.4708  0.0665
29462SOL    HW194478   5.042   1.708   2.772  1.9358  0.5073  3.0885
29462SOL    HW294479   5.108   1.813   2.685 -1.8026 -0.8673 -1.8215
29463SOL     OW94480   1.769   8.203   6.173  0.7048  0.9047  0.1579
29463SOL    HW194481   1.829   8.201   6.098 -0.1926  0.8676 -0.5705
29463SOL    HW294482   1.818   8.161   6.243  1.6902  1.2367 -0.3024
29464SOL     OW94483   7.010   8.520   5.545 -0.1276 -0.2766  0.4385
29464SOL    HW194484   7.021   8.558   5.458 -1.3333 -1.6314 -0.3475
29464SOL    HW294485   6.916   8.522   5.562  0.1014  0.1264  1.7983
29465SOL     OW94486   0.102   8.845   2.595  0.2148  0.0921 -0.0653
29465SOL    HW194487   0.190   8.876   2.573 -0.2887  0.8197 -1.1031
29465SOL    HW294488   0.061   8.918   2.640 -0.3716  0.3230 -0.9451
29466SOL     OW94489   4.756  10.674   0.264 -0.3183  0.2100  0.2207
29466SOL    HW194490   4.677  10.629   0.295 -0.8519  1.4465  0.6932
29466SOL    HW294491   4.746  10.679   0.169 -0.7021  0.1774  0.2597
29467SOL     OW94492   6.784   9.711   1.941  0.4753  0.2490  0.3101
29467SOL    HW194493   6.815   9.717   2.031  1.1553 -0.5084  0.1427
29467SOL    HW294494   6.828   9.633   1.906 -0.4278  0.0485 -0.4169
29468SOL     OW94495   7.978   8.946   4.106 -0.4493 -0.3102 -0.5184
29468SOL    HW194496   7.922   8.874   4.135 -0.6192 -0.0427 -0.1674
29468SOL    HW294497   8.065   8.922   4.137 -0.7439  0.3036  0.8650
29469SOL     OW94498   6.895  10.493   2.940 -0.0610 -0.2205 -0.0171
29469SOL    HW194499   6.957  10.483   3.013 -0.6453  0.8160  0.6325
29469SOL    HW294500   6.906  10.413   2.889  1.3162 -0.3703  0.4734
29470SOL     OW94501   4.610  10.701   9.401 -0.0799  0.3531  0.2172
29470SOL    HW194502   4.601  10.641   9.474  0.3785  0.3262  0.2518
29470SOL    HW294503   4.704  10.716   9.393 -0.1966  1.1799  0.3013
29471SOL     OW94504   7.490   0.013   6.035 -0.2273 -0.2291  0.4514
29471SOL    HW194505   7.400   0.041   6.050 -0.9221  0.3605 -3.6221
29471SOL    HW294506   7.485  -0.083   6.030 -0.6522 -0.1929  0.1279
29472SOL     OW94507   3.264   9.938   4.328 -0.2673  0.0743  0.1519
29472SOL    HW194508   3.233   9.888   4.253  1.2165 -0.1313 -0.3631
29472SOL    HW294509   3.201  10.009   4.337 -0.0536  0.5613 -1.7996
29473SOL     OW94510   3.035   4.597   6.148 -0.3541  0.4563 -0.2881
29473SOL    HW194511   3.044   4.664   6.216  1.1704  0.2232 -0.2221
29473SOL    HW294512   3.017   4.646   6.068 -1.7408  0.7602  0.1864
29474SOL     OW94513   0.926   7.327   7.305 -0.1128  0.0124 -0.1674
29474SOL    HW194514   0.891   7.411   7.335  0.8918  0.9925 -1.6329
29474SOL    HW294515   0.864   7.299   7.237  0.1841  0.1430 -0.4914
29475SOL     OW94516   1.515   1.877   2.644  0.0469 -0.6178 -0.0913
29475SOL    HW194517   1.478   1.964   2.629  1.0226 -0.1930 -0.0839
29475SOL    HW294518   1.599   1.894   2.687  0.2541 -1.5683 -0.1078
29476SOL     OW94519   6.778   2.712   7.123 -0.1257  0.4345 -0.0289
29476SOL    HW194520   6.835   2.782   7.091  1.1838 -0.7817 -0.4343
29476SOL    HW294521   6.777   2.723   7.218 -0.7776  1.6171 -0.1541
29477SOL     OW94522   2.827   0.366   6.715 -0.2471 -0.2668 -0.1788
29477SOL    HW194523   2.868   0.450   6.695  0.4773 -0.4644  0.4304
29477SOL    HW294524   2.865   0.340   6.799 -0.8685 -0.9458 -0.0946
29478SOL     OW94525  10.145   2.904   0.648 -0.6980 -0.0258  0.3219
29478SOL    HW194526  10.102   2.819   0.653 -0.5370 -0.0353  1.9506
29478SOL    HW294527  10.078   2.968   0.671 -0.6530  0.2423 -0.2657
29479SOL     OW94528   2.341   2.316   2.820  0.2957 -0.1226 -0.2411
29479SOL    HW194529   2.325   2.409   2.809 -1.6031  0.1237  3.3456
29479SOL    HW294530   2.437   2.307   2.821  0.5306  2.0254  0.8059
29480SOL     OW94531   6.758   1.422   3.913 -0.4821 -0.1486 -0.4288
29480SOL    HW194532   6.796   1.348   3.866  0.8793  0.6857 -0.7159
29480SOL    HW294533   6.808   1.498   3.882  0.1343  0.5040  1.9699
29481SOL     OW94534   4.304   9.036   5.794  0.1568 -0.2178 -0.3658
29481SOL    HW194535   4.341   9.024   5.882 -0.8382  2.2846  0.4639
29481SOL    HW294536   4.210   9.020   5.806  0.1807 -1.1326 -1.2831
29482SOL     OW94537   3.274   3.443   9.629 -0.3733 -0.1297  0.2941
29482SOL    HW194538   3.299   3.398   9.549 -0.0674 -2.0744  1.4185
29482SOL    HW294539   3.287   3.536   9.610  1.7611 -0.6798 -1.2010
29483SOL     OW94540   5.115   4.662   7.090 -0.4383  0.4006  0.0797
29483SOL    HW194541   5.122   4.733   7.026 -1.3972  0.8381  0.4378
29483SOL    HW294542   5.159   4.696   7.168  1.0496 -0.2723 -0.4340
29484SOL     OW94543   6.416  10.628   6.010  0.1276 -0.2084 -0.4397
29484SOL    HW194544   6.414  10.546   5.961 -1.5916 -0.5952  0.1778
29484SOL    HW294545   6.502  10.630   6.052  0.1870 -1.7167 -0.4468
29485SOL     OW94546   9.045   1.609   6.116  0.4482  0.0875  0.3968
29485SOL    HW194547   9.124   1.557   6.134  0.5229 -0.3900 -1.2030
29485SOL    HW294548   8.974   1.559   6.157  0.6013 -1.0174 -0.6203
29486SOL     OW94549   2.503   6.459   6.046 -0.4500  0.5303 -0.2438
29486SOL    HW194550   2.471   6.462   6.135 -0.8842 -0.4604 -0.3496
29486SOL    HW294551   2.586   6.507   6.048  1.4470 -2.4843  1.5396
29487SOL     OW94552   2.322  10.319   4.334 -0.0019  0.4358 -0.4433
29487SOL    HW194553   2.323  10.302   4.428  0.2639  2.0017 -0.1471
29487SOL    HW294554   2.231  10.305   4.308  0.0493 -0.6541 -0.1036
29488SOL     OW94555   9.508   1.033  10.707  0.0103 -0.1208 -0.7562
29488SOL    HW194556   9.429   0.979  10.700  0.0445 -0.7487  2.2896
29488SOL    HW294557   9.575   0.973  10.739  1.0673  0.9458 -0.9052
29489SOL     OW94558   2.952   4.727   4.290  0.0769 -0.4119 -0.2271
29489SOL    HW194559   3.041   4.726   4.327 -0.1511  0.6078  0.3836
29489SOL    HW294560   2.924   4.636   4.295  0.4657 -0.4792  1.1707
29490SOL     OW94561   6.653   3.221   1.484 -0.7218 -0.3228  0.1887
29490SOL    HW194562   6.609   3.305   1.474 -2.0985 -1.1419 -1.1938
29490SOL    HW294563   6.722   3.221   1.418 -0.6228 -0.2145  0.2930
29491SOL     OW94564   6.180   5.801   3.934  0.1077  0.5013 -0.0463
29491SOL    HW194565   6.117   5.864   3.967  0.0902  1.3932 -1.6610
29491SOL    HW294566   6.140   5.767   3.854  0.7384 -0.5118  0.0585
29492SOL     OW94567   6.602   3.884   9.177  0.7026 -0.5380  0.6690
29492SOL    HW194568   6.660   3.905   9.249  0.3532  3.2501  0.0469
29492SOL    HW294569   6.523   3.936   9.193 -0.5095 -1.7184 -1.0558
29493SOL     OW94570  10.382   8.813  10.468  0.4399 -0.5824  0.0833
29493SOL    HW194571  10.295   8.847  10.446  0.0956 -1.0903  0.6426
29493SOL    HW294572  10.377   8.719  10.452  1.1198 -0.5184 -0.5928
29494SOL     OW94573   0.086   7.817   3.758  0.2581 -0.3058  0.1972
29494SOL    HW194574   0.001   7.772   3.759 -0.3126  0.6241  2.7670
29494SOL    HW294575   0.101   7.841   3.850  2.3752  1.3216 -0.4904
29495SOL     OW94576   5.155   4.752   9.629  0.1359 -0.4076  0.5969
29495SOL    HW194577   5.091   4.820   9.649  1.1002 -0.0416  2.6965
29495SOL    HW294578   5.131   4.679   9.686 -0.6266 -1.7406 -1.3237
29496SOL     OW94579  10.419  10.252  10.170  0.2121  0.1738  0.6596
29496SOL    HW194580  10.472  10.261  10.091 -1.0854  1.6799 -0.1060
29496SOL    HW294581  10.331  10.233  10.138 -0.9880  3.5630  1.4489
29497SOL     OW94582   7.805   6.478   2.474  0.1054 -0.2847  0.2534
29497SOL    HW194583   7.863   6.530   2.418 -2.0447 -0.4271 -2.2875
29497SOL    HW294584   7.760   6.544   2.528  0.8232  0.0394  0.4702
29498SOL     OW94585   9.972   6.994   4.255  0.1931  0.3346  0.0322
29498SOL    HW194586  10.042   7.058   4.246 -0.0460  0.9267  1.9526
29498SOL    HW294587   9.931   7.015   4.338 -1.6364 -0.6346 -0.5727
29499SOL     OW94588   5.260  10.326   8.569  0.3524 -0.7344  0.1942
29499SOL    HW194589   5.322  10.387   8.529 -0.8071  0.0615 -0.4273
29499SOL    HW294590   5.222  10.278   8.496 -0.4754 -0.5283  0.4704
29500SOL     OW94591   6.547   2.877   7.813 -0.3244  0.5371  0.0669
29500SOL    HW194592   6.516   2.836   7.894 -0.3934  1.9834  0.7977
29500SOL    HW294593   6.634   2.911   7.835  1.7427 -2.9429 -1.7806
29501SOL     OW94594   8.657   7.435   0.699  0.0750 -0.1311  0.3880
29501SOL    HW194595   8.637   7.359   0.644  1.4995 -1.5439  1.7026
29501SOL    HW294596   8.611   7.417   0.781 -3.0545  2.5356 -0.5654
29502SOL     OW94597   1.648   3.517   8.505  0.3085  0.4285  0.0675
29502SOL    HW194598   1.683   3.503   8.592  1.1711 -0.0014 -0.3384
29502SOL    HW294599   1.610   3.605   8.508  0.3005  0.4048  0.8718
29503SOL     OW94600   7.921   9.028   8.504  0.4550  0.0716 -0.2859
29503SOL    HW194601   7.867   9.104   8.483  0.5491  0.3248  0.3666
29503SOL    HW294602   7.996   9.035   8.446  0.5562  0.5862 -0.0960
29504SOL     OW94603   6.770   9.343   5.789  0.7096  0.8013  0.4170
29504SOL    HW194604   6.782   9.330   5.694  1.0361  0.3945  0.5100
29504SOL    HW294605   6.853   9.314   5.827  0.2038 -0.0323  0.9082
29505SOL     OW94606  10.638   8.312   5.127 -0.7131  0.5718  0.1464
29505SOL    HW194607  10.688   8.388   5.099  0.0106  0.3371  0.7784
29505SOL    HW294608  10.651   8.308   5.221 -0.5671 -0.4536  0.0987
29506SOL     OW94609   6.744   7.193   0.306  0.1967  0.6985  1.0045
29506SOL    HW194610   6.702   7.268   0.264 -1.1290 -0.8423 -0.6315
29506SOL    HW294611   6.676   7.157   0.363  0.8259  0.7434  1.7925
29507SOL     OW94612   0.642   1.684   6.877 -0.2682 -0.6165  0.6975
29507SOL    HW194613   0.680   1.691   6.789  0.2553 -0.6369  0.9168
29507SOL    HW294614   0.554   1.649   6.862 -0.6766  0.6000  0.0825
29508SOL     OW94615   8.115   5.625   6.999 -1.1497 -0.3182 -0.4812
29508SOL    HW194616   8.094   5.714   6.973 -1.5623 -0.5356 -0.9084
29508SOL    HW294617   8.033   5.589   7.031 -1.0071 -0.5743 -0.3951
29509SOL     OW94618   3.748   6.334   1.061  0.2919 -0.6946  0.2856
29509SOL    HW194619   3.759   6.247   1.099  0.6014 -2.1697 -2.8194
29509SOL    HW294620   3.734   6.317   0.968 -0.6629  2.5706 -0.2872
29510SOL     OW94621   1.876   1.274   0.527 -0.0769 -0.1251  0.3221
29510SOL    HW194622   1.971   1.265   0.513 -0.1403  0.8969 -1.0071
29510SOL    HW294623   1.858   1.223   0.605  1.7097  0.3083  1.0628
29511SOL     OW94624   3.583  10.566   6.314 -0.6958 -0.2420  0.3522
29511SOL    HW194625   3.602  10.473   6.308 -0.0904 -0.0836 -0.4258
29511SOL    HW294626   3.558  10.592   6.225 -0.9763  0.3126  0.5846
29512SOL     OW94627   2.565   5.405   2.091 -0.3406 -0.4132  0.0806
29512SOL    HW194628   2.514   5.486   2.101  0.5027  0.0257  0.9469
29512SOL    HW294629   2.499   5.336   2.092 -1.0176  0.2165  0.0572
29513SOL     OW94630   1.860   4.562   6.231  0.1513  0.1938  0.2685
29513SOL    HW194631   1.906   4.525   6.156  0.5265 -0.7633  0.9445
29513SOL    HW294632   1.769   4.533   6.221 -0.0143  0.9073 -0.3326
29514SOL     OW94633   3.780   6.641   8.922  0.1459  0.3072  0.2489
29514SOL    HW194634   3.702   6.596   8.953 -0.3609  0.9438 -0.0887
29514SOL    HW294635   3.748   6.723   8.884  0.7809 -0.1797 -1.4257
29515SOL     OW94636   6.548   2.124   7.119 -0.5894  0.0182 -0.3611
29515SOL    HW194637   6.600   2.152   7.043 -0.2067  1.4555  0.3930
29515SOL    HW294638   6.473   2.078   7.081 -0.1749  0.3136 -1.5927
29516SOL     OW94639   9.337   6.988   5.956  0.0178 -0.1224  0.0479
29516SOL    HW194640   9.319   6.946   5.872  2.2199 -2.8080  0.7812
29516SOL    HW294641   9.419   7.035   5.943  0.1960 -0.2664  0.6184
29517SOL     OW94642   7.998   7.131   6.205  0.3482 -0.2387 -0.3170
29517SOL    HW194643   7.925   7.193   6.200 -1.2780 -1.9984  0.6189
29517SOL    HW294644   8.058   7.160   6.136 -0.7071  1.9000 -0.4064
29518SOL     OW94645   7.412   6.372   4.840  0.9672  0.4113  0.3369
29518SOL    HW194646   7.500   6.347   4.811  1.1822 -0.1555  1.4205
29518SOL    HW294647   7.405   6.336   4.929 -0.4457  0.2682  0.1852
29519SOL     OW94648   1.997   0.882   1.871  0.5142  0.4042 -0.3468
29519SOL    HW194649   1.921   0.840   1.832 -1.1840  1.5787  1.5187
29519SOL    HW294650   2.054   0.810   1.897 -1.4607 -0.7085  1.1182
29520SOL     OW94651   8.692   0.205   7.252 -0.3053 -0.4360 -0.4292
29520SOL    HW194652   8.616   0.204   7.194 -0.1644 -0.4611 -0.6143
29520SOL    HW294653   8.656   0.225   7.338 -0.3001  1.3588 -0.8156
29521SOL     OW94654   2.341   4.446   9.855 -0.4143 -0.1904 -0.2673
29521SOL    HW194655   2.274   4.419   9.792 -1.9873  0.8888  0.8746
29521SOL    HW294656   2.360   4.537   9.833  1.7477 -0.8524 -1.4288
29522SOL     OW94657   4.032   6.676   3.977  0.3286 -0.1314 -0.2450
29522SOL    HW194658   4.068   6.763   3.994 -1.0968  0.3854  0.2564
29522SOL    HW294659   4.093   6.637   3.914  1.2387  1.0496 -0.1356
29523SOL     OW94660   8.377   6.395   1.188 -0.1202 -0.6028 -0.6142
29523SOL    HW194661   8.343   6.480   1.158 -0.3166 -0.3517  0.2914
29523SOL    HW294662   8.319   6.369   1.259  1.1996 -0.4549  0.5736
29524SOL     OW94663   8.474   5.632  10.300 -0.1660  0.2296  0.2041
29524SOL    HW194664   8.469   5.590  10.386 -0.6467 -0.3220 -0.0892
29524SOL    HW294665   8.398   5.690  10.297  0.3032  0.8691  0.4697
29525SOL     OW94666   3.044   7.665   9.203  0.2415  0.1289  0.8104
29525SOL    HW194667   3.040   7.710   9.118  2.4709  0.3684  0.7659
29525SOL    HW294668   2.954   7.638   9.220 -0.2881  0.1302 -1.6058
29526SOL     OW94669   9.927   4.436  10.834 -0.0290 -0.3200  0.2310
29526SOL    HW194670   9.914   4.514  10.780  1.4273 -0.3721 -0.2283
29526SOL    HW294671   9.840   4.396  10.840 -0.5595  0.6874 -0.5265
29527SOL     OW94672   9.461   1.092   4.533 -0.0879  0.0325 -0.2427
29527SOL    HW194673   9.495   1.165   4.585 -0.5436  0.1672 -0.1307
29527SOL    HW294674   9.485   1.113   4.443 -2.4325  1.6377 -0.5820
29528SOL     OW94675   9.567   4.398   7.829  0.2614  0.5358  0.4950
29528SOL    HW194676   9.474   4.386   7.806  0.2315  0.4142  0.6783
29528SOL    HW294677   9.611   4.409   7.745  0.2821 -0.7959  0.3073
29529SOL     OW94678   8.966   7.742   1.463 -0.0841  0.7411 -0.4331
29529SOL    HW194679   8.928   7.666   1.506  0.3812  0.5900 -0.2865
29529SOL    HW294680   8.986   7.712   1.374  1.3196  0.2955  0.0179
29530SOL     OW94681   2.969   5.641   2.439 -0.1624 -0.4468  0.3002
29530SOL    HW194682   3.015   5.594   2.370  1.4383  3.7176 -1.7911
29530SOL    HW294683   2.877   5.614   2.429  0.3053 -1.3942 -2.2020
29531SOL     OW94684  10.335  10.752  10.183  0.4402  0.5050  0.3692
29531SOL    HW194685  10.397  10.825  10.187  0.8194  0.3332 -1.4361
29531SOL    HW294686  10.389  10.674  10.199  0.5955  0.4160 -0.5035
29532SOL     OW94687   4.761   6.279   4.516  0.3357 -0.3147 -0.0278
29532SOL    HW194688   4.838   6.229   4.545  0.8771  0.4725 -0.0844
29532SOL    HW294689   4.695   6.262   4.583  1.1290  0.3755  0.9553
29533SOL     OW94690   2.448   1.707  10.465  0.0241 -0.3118  0.0797
29533SOL    HW194691   2.504   1.635  10.492  0.3233 -0.8550 -1.8558
29533SOL    HW294692   2.407   1.677  10.384  0.3889  1.7926 -0.9483
29534SOL     OW94693   5.129   8.818   4.493  0.3350 -0.0767 -0.3400
29534SOL    HW194694   5.185   8.758   4.444  0.0274  1.1575 -2.3100
29534SOL    HW294695   5.053   8.765   4.519  0.4730 -0.7583 -1.2914
29535SOL     OW94696   2.943   4.017   8.563 -0.0998 -0.0555  0.1040
29535SOL    HW194697   2.938   4.027   8.658 -0.3982  1.0951 -0.0148
29535SOL    HW294698   3.029   4.052   8.541 -0.5431  0.8863 -0.1745
29536SOL     OW94699   1.605   1.196   4.535 -0.3776 -0.0678  0.3727
29536SOL    HW194700   1.530   1.193   4.596 -1.3176 -1.0307 -0.7845
29536SOL    HW294701   1.575   1.253   4.464  0.2037 -0.0301  0.1583
29537SOL     OW94702   0.416   9.177   0.820  0.4180  0.1573 -0.3111
29537SOL    HW194703   0.462   9.236   0.760 -0.6132  1.5907  0.2528
29537SOL    HW294704   0.414   9.223   0.903 -1.5705 -0.0361 -0.1864
29538SOL     OW94705   7.301   4.591   0.477  0.3952 -0.2788  0.2248
29538SOL    HW194706   7.289   4.683   0.501 -0.2189 -0.4509  0.5738
29538SOL    HW294707   7.230   4.545   0.520  0.5012 -0.8774 -0.2323
29539SOL     OW94708   9.764   0.326   6.054 -0.2400  0.4425  0.0994
29539SOL    HW194709   9.774   0.293   5.965 -0.6786  1.0453 -0.1753
29539SOL    HW294710   9.849   0.366   6.074  0.6128 -1.5449  0.7554
29540SOL     OW94711   5.031   0.968   8.508 -0.1145 -0.5098  0.3804
29540SOL    HW194712   5.108   0.949   8.562  1.1458  0.0756 -1.1193
29540SOL    HW294713   5.046   1.057   8.476 -1.8165 -0.0964  0.6581
29541SOL     OW94714   3.987   1.348   7.432 -0.5135 -0.5262 -0.4928
29541SOL    HW194715   4.043   1.424   7.413 -0.9821  0.0665  0.4743
29541SOL    HW294716   4.031   1.304   7.505  0.2358 -1.7142 -1.6108
29542SOL     OW94717  10.482   2.111   8.833  0.2550  0.1033 -0.5461
29542SOL    HW194718  10.530   2.115   8.916 -1.9653  1.1708  0.8024
29542SOL    HW294719  10.427   2.033   8.841 -0.6008  0.6818 -0.5805
29543SOL     OW94720   9.267   2.201   5.832  0.3251 -0.0910 -0.4236
29543SOL    HW194721   9.302   2.227   5.917  2.7667 -0.3066 -1.2676
29543SOL    HW294722   9.281   2.106   5.828 -0.3509 -0.1818 -0.8269
29544SOL     OW94723   2.326   0.166   1.623  0.2777 -0.1452 -0.5411
29544SOL    HW194724   2.305   0.187   1.714  1.3429 -2.1677  0.2257
29544SOL    HW294725   2.402   0.221   1.603 -0.1298  0.5083 -0.3321
29545SOL     OW94726   7.239   4.828   8.003  0.0548  0.4178 -0.6708
29545SOL    HW194727   7.156   4.863   7.970 -0.2234 -0.8523 -1.3908
29545SOL    HW294728   7.281   4.790   7.926  0.8104  0.0908 -0.1050
29546SOL     OW94729   5.599   6.303   0.466  0.4496  0.0559 -0.0135
29546SOL    HW194730   5.675   6.300   0.408 -0.4105  2.0939 -1.3565
29546SOL    HW294731   5.552   6.382   0.441 -1.3406 -0.3349  1.7907
29547SOL     OW94732   4.788   9.013   4.859  0.0336 -0.4986  0.4268
29547SOL    HW194733   4.786   8.932   4.911  0.9597 -0.3440  0.7170
29547SOL    HW294734   4.868   9.058   4.888  0.1136 -0.0094 -0.5236
29548SOL     OW94735   1.901   9.782   9.293  0.7058  0.1876 -0.4583
29548SOL    HW194736   1.841   9.743   9.229 -0.4907  0.5940  0.3819
29548SOL    HW294737   1.870   9.750   9.378  2.5415 -0.6985 -0.0693
29549SOL     OW94738   8.025   6.352   9.647 -0.0303 -0.0663 -0.1110
29549SOL    HW194739   7.961   6.306   9.593  1.8234 -1.8020 -0.9515
29549SOL    HW294740   7.975   6.423   9.688 -2.5271 -1.5251 -0.4478
29550SOL     OW94741   3.235   2.468   4.156  0.0500 -0.0666 -0.0382
29550SOL    HW194742   3.241   2.553   4.198  1.4344  0.2359 -0.8107
29550SOL    HW294743   3.231   2.487   4.062 -0.5830 -0.8151 -0.1720
29551SOL     OW94744   2.801   3.867  10.840 -0.4787 -0.1130  0.1009
29551SOL    HW194745   2.812   3.959  10.864  1.2159 -0.4991  0.9789
29551SOL    HW294746   2.868   3.821  10.890 -0.9772 -1.7766 -0.6830
29552SOL     OW94747   2.268   2.894   8.039  0.6775 -0.0713  0.2306
29552SOL    HW194748   2.271   2.799   8.025 -1.6051 -0.1754  0.1366
29552SOL    HW294749   2.261   2.931   7.951  1.5741  0.2139  0.2666
29553SOL     OW94750   5.187   1.440   7.591  0.7041 -0.4723  0.7533
29553SOL    HW194751   5.114   1.474   7.539 -0.4975 -2.4276  1.0641
29553SOL    HW294752   5.234   1.518   7.620  0.0161  0.7628 -1.2448
29554SOL     OW94753   2.585   4.972   2.935 -0.0233  0.8865 -0.7172
29554SOL    HW194754   2.532   5.009   2.864 -1.1833  0.4826 -0.0741
29554SOL    HW294755   2.539   4.997   3.015  0.5895  0.2572 -0.1561
29555SOL     OW94756  10.255   6.504   9.341  0.1917  0.0194  1.1830
29555SOL    HW194757  10.298   6.557   9.409  0.0745  0.0306  1.2481
29555SOL    HW294758  10.162   6.524   9.350 -0.0045 -1.1963  2.0728
29556SOL     OW94759   3.062   1.543   8.206  0.0520  0.0591  0.4509
29556SOL    HW194760   3.117   1.488   8.262  1.1099 -0.7539 -1.3226
29556SOL    HW294761   3.109   1.625   8.200 -0.4149  0.4047  1.2767
29557SOL     OW94762   1.557   5.930   1.359  0.0675 -0.5193 -0.0147
29557SOL    HW194763   1.469   5.968   1.363  0.5485  1.0675 -2.4945
29557SOL    HW294764   1.555   5.875   1.280  1.3202 -0.4393 -0.1163
29558SOL     OW94765  10.050   8.433   9.707  0.2939 -0.6546  0.1558
29558SOL    HW194766  10.098   8.379   9.644 -1.6736 -3.0265  0.5474
29558SOL    HW294767  10.083   8.407   9.792 -0.7282 -1.3712  0.3525
29559SOL     OW94768   0.729   9.890   9.901 -0.1220  0.4746  0.0004
29559SOL    HW194769   0.654   9.899   9.843  0.3612 -1.0146 -0.9179
29559SOL    HW294770   0.756   9.799   9.891  2.1891  1.1173 -0.1698
29560SOL     OW94771   9.185   2.527   1.171  0.3742 -0.6567  0.8604
29560SOL    HW194772   9.186   2.431   1.177 -0.7268 -0.8042 -0.6400
29560SOL    HW294773   9.166   2.556   1.260 -0.2584 -1.8690  1.1475
29561SOL     OW94774   4.654  10.664   8.953  0.9422 -0.4421  0.2092
29561SOL    HW194775   4.644  10.723   9.028  0.1485 -0.2695 -0.0249
29561SOL    HW294776   4.715  10.596   8.984  1.9566  0.5392  0.4499
29562SOL     OW94777   5.474   6.652   9.163 -0.6842  0.2370 -0.1722
29562SOL    HW194778   5.450   6.734   9.120 -0.1642 -0.7342 -2.4371
29562SOL    HW294779   5.459   6.585   9.097  0.7111 -1.2811  0.9746
29563SOL     OW94780   2.921   5.321   9.303  0.1718 -0.3790  0.2198
29563SOL    HW194781   2.880   5.379   9.240  0.5177 -1.9500 -1.5385
29563SOL    HW294782   2.998   5.370   9.334 -0.0275  0.4327 -0.5363
29564SOL     OW94783   0.626   9.874   7.873  0.8424  0.1207  0.0008
29564SOL    HW194784   0.688   9.915   7.934 -2.7501  1.9188  2.8049
29564SOL    HW294785   0.603   9.944   7.812  0.2694  0.0268  0.1059
29565SOL     OW94786   7.028   5.608   0.690  0.2253  0.1180 -0.4499
29565SOL    HW194787   7.120   5.635   0.684  1.1640 -1.2655  4.0149
29565SOL    HW294788   6.981   5.688   0.716  1.1419 -0.0966  2.1360
29566SOL     OW94789   1.889   7.163   3.734  0.1649 -0.1113  0.8731
29566SOL    HW194790   1.890   7.254   3.765  0.0734  1.5484 -3.3445
29566SOL    HW294791   1.943   7.115   3.797  0.0376  2.7756  3.3901
29567SOL     OW94792   8.255   2.849   2.205  0.3168 -0.9079 -0.0862
29567SOL    HW194793   8.174   2.832   2.157  0.8480 -2.2743 -0.5541
29567SOL    HW294794   8.282   2.936   2.177 -2.9639  1.4145  2.9746
29568SOL     OW94795   3.146   2.715   4.256 -0.4958  0.0682  0.4618
29568SOL    HW194796   3.094   2.663   4.317 -0.4534 -2.0539 -1.1716
29568SOL    HW294797   3.085   2.739   4.186  0.0843 -0.0771 -0.1086
29569SOL     OW94798   8.908   1.391   4.757  0.1156 -0.4092  0.4549
29569SOL    HW194799   8.866   1.368   4.840  0.0825 -1.6485  0.1142
29569SOL    HW294800   8.909   1.487   4.756  1.6163 -0.3430  2.6303
29570SOL     OW94801   1.515   0.008  10.093  0.3368  0.2992 -0.0892
29570SOL    HW194802   1.537  -0.064  10.152  0.1883 -0.3549 -0.8175
29570SOL    HW294803   1.597   0.055  10.081  0.9200 -0.9705 -1.2352
29571SOL     OW94804   7.395   9.852   5.433 -0.0716  0.5607 -0.8942
29571SOL    HW194805   7.339   9.810   5.367  0.2399 -0.8515 -0.3068
29571SOL    HW294806   7.414   9.782   5.496  0.4401  1.6258  0.1684
29572SOL     OW94807   2.405   4.247   8.031  0.0067 -0.3132 -0.2392
29572SOL    HW194808   2.405   4.207   7.944 -1.7868 -0.9905  0.0275
29572SOL    HW294809   2.352   4.189   8.085  0.1490  0.6827  1.0367
29573SOL     OW94810   6.397   3.571   9.644 -0.4203  0.4853 -0.3205
29573SOL    HW194811   6.398   3.645   9.704  2.4571 -0.2543  0.7091
29573SOL    HW294812   6.392   3.494   9.701 -0.0710 -0.1920 -1.1776
29574SOL     OW94813   7.866   2.813  10.499 -0.7145  0.2499 -0.2062
29574SOL    HW194814   7.810   2.882  10.464  1.1829  1.8773 -0.2051
29574SOL    HW294815   7.900   2.768  10.422 -1.8928 -0.6628 -0.2093
29575SOL     OW94816  10.213   5.468   7.855  0.4372 -0.3576  0.2962
29575SOL    HW194817  10.126   5.455   7.820  0.5695 -0.9249  0.1732
29575SOL    HW294818  10.267   5.491   7.779  0.5110 -0.5724  0.2820
29576SOL     OW94819   8.613   0.413   0.862  0.4232 -0.1483 -0.0639
29576SOL    HW194820   8.665   0.341   0.898  0.8892 -0.4534 -1.3087
29576SOL    HW294821   8.524   0.397   0.893  0.6746 -0.8127  0.3284
29577SOL     OW94822   5.197   2.725   9.566 -0.0721 -0.6583  0.0822
29577SOL    HW194823   5.111   2.750   9.599  0.2929 -3.1914  3.5591
29577SOL    HW294824   5.186   2.635   9.536  1.3349 -0.9879  0.5031
29578SOL     OW94825   3.702   5.072   8.939 -0.0933 -0.0108 -0.0321
29578SOL    HW194826   3.719   5.126   8.861 -2.2154 -0.1729 -0.6518
29578SOL    HW294827   3.700   5.135   9.011  2.6204  0.0676  0.1119
29579SOL     OW94828   6.732   4.346  10.519 -0.5381  0.4053  0.2458
29579SOL    HW194829   6.707   4.254  10.507  3.1829 -0.6772 -0.4078
29579SOL    HW294830   6.749   4.377  10.430  0.3334  1.0381  0.6248
29580SOL     OW94831   4.048   3.124   9.868 -0.5475  0.1580  0.4256
29580SOL    HW194832   4.117   3.097   9.928 -0.1953  0.9103  0.3657
29580SOL    HW294833   4.061   3.218   9.855  0.3306 -0.2090 -1.9946
29581SOL     OW94834   8.247   8.274   3.821  0.0763  0.0195 -0.1924
29581SOL    HW194835   8.222   8.215   3.750  1.4518 -0.2290 -0.4938
29581SOL    HW294836   8.169   8.328   3.835 -0.0879  0.3932 -2.2104
29582SOL     OW94837   0.276   0.190   5.356 -0.2910  0.0549  0.1628
29582SOL    HW194838   0.370   0.168   5.356 -0.1638  0.5799 -0.2408
29582SOL    HW294839   0.244   0.158   5.272  0.2664  2.8512 -1.2432
29583SOL     OW94840   6.368   4.245   8.999 -0.3519  0.3810 -0.0267
29583SOL    HW194841   6.375   4.207   9.087 -0.0303 -0.0558 -0.2376
29583SOL    HW294842   6.274   4.242   8.979 -0.2510 -1.2278 -0.4265
29584SOL     OW94843   8.594   5.593  10.063  0.2623  0.0096  0.6380
29584SOL    HW194844   8.689   5.596  10.069  0.2237  0.5944  1.0512
29584SOL    HW294845   8.564   5.612  10.152 -0.2359 -0.2779  0.5326
29585SOL     OW94846   3.402   6.680   1.023  0.0694  0.3418  0.9566
29585SOL    HW194847   3.399   6.741   0.949 -2.3117  1.1718  1.6416
29585SOL    HW294848   3.493   6.650   1.026  0.6327  1.6157 -1.2058
29586SOL     OW94849  10.802   8.209   3.932  0.0150  0.9489  0.2601
29586SOL    HW194850  10.805   8.121   3.970 -2.4141  0.5654 -0.2730
29586SOL    HW294851  10.876   8.255   3.971  2.2313 -1.7057 -0.4761
29587SOL     OW94852   8.534   3.835   6.694 -0.4733  0.1147  0.0796
29587SOL    HW194853   8.563   3.893   6.623 -0.8915 -0.4574 -0.5753
29587SOL    HW294854   8.603   3.841   6.760  1.0043 -0.9642 -1.2871
29588SOL     OW94855   7.280   3.187   4.144  0.0487  0.0244 -0.3322
29588SOL    HW194856   7.253   3.227   4.226  0.3038 -1.0686  0.2961
29588SOL    HW294857   7.310   3.099   4.168 -1.2063 -0.8477 -1.7626
29589SOL     OW94858   7.325   6.739   7.513  0.2694  0.2958  0.0715
29589SOL    HW194859   7.369   6.736   7.428  1.1006 -1.6719  0.5071
29589SOL    HW294860   7.236   6.766   7.494  0.9186  1.6779 -1.1785
29590SOL     OW94861   1.817   5.337   4.729  0.1351 -0.2943  0.5174
29590SOL    HW194862   1.894   5.306   4.683  1.2287  1.6637  0.8936
29590SOL    HW294863   1.763   5.377   4.661  1.2558  1.6527  0.6926
29591SOL     OW94864   7.561   6.572   1.353  0.0339  0.1406  0.7334
29591SOL    HW194865   7.532   6.651   1.397 -1.3130 -0.4774  0.9960
29591SOL    HW294866   7.526   6.500   1.406  1.9912 -0.6669  1.0273
29592SOL     OW94867   5.987   7.079   5.681 -0.5823 -0.1587  0.5756
29592SOL    HW194868   5.904   7.050   5.642 -0.9705  1.8396 -0.1999
29592SOL    HW294869   5.974   7.066   5.775 -1.4400 -0.6865  0.4005
29593SOL     OW94870   7.357   0.771   0.219  0.0120  0.3937  0.2592
29593SOL    HW194871   7.416   0.771   0.295  0.4739 -1.1630 -0.0709
29593SOL    HW294872   7.408   0.733   0.148 -0.7801  0.7962 -0.5497
29594SOL     OW94873   1.735   0.259  10.603  0.1125  0.3866 -0.3279
29594SOL    HW194874   1.704   0.271  10.514  0.8707 -0.8167 -0.7727
29594SOL    HW294875   1.669   0.205  10.645  0.0398  0.4782 -0.3234
29595SOL     OW94876   4.666   0.846   2.173 -0.0282  0.6195 -0.0258
29595SOL    HW194877   4.584   0.895   2.168 -0.6484 -0.2694  1.0597
29595SOL    HW294878   4.709   0.879   2.252  0.2548  0.4662 -0.1130
29596SOL     OW94879   7.775   4.813   8.358 -0.1791 -0.3948  0.0688
29596SOL    HW194880   7.862   4.773   8.363  0.2045 -0.0396 -2.5141
29596SOL    HW294881   7.752   4.808   8.265 -1.7940  1.8561  0.2716
29597SOL     OW94882   4.734   5.975   7.657 -0.1594 -0.4698 -0.1676
29597SOL    HW194883   4.787   5.896   7.669 -0.3617 -0.4655  0.8332
29597SOL    HW294884   4.791   6.046   7.688 -1.1972 -0.6053  2.2321
29598SOL     OW94885   5.672   9.916  10.457  0.1036 -0.8722  0.3788
29598SOL    HW194886   5.686   9.853  10.527  0.2745  0.7303  1.8628
29598SOL    HW294887   5.641   9.995  10.502  1.9980  0.8215 -1.0782
29599SOL     OW94888   4.521   3.082   2.394 -0.3345 -0.1852  0.0316
29599SOL    HW194889   4.524   3.079   2.490 -0.2353 -1.8375  0.0020
29599SOL    HW294890   4.475   3.002   2.369  0.7729 -0.4377 -1.3301
29600SOL     OW94891   8.939   9.968  10.601  0.1210 -0.6281  0.1985
29600SOL    HW194892   8.879   9.983  10.675 -0.8825 -2.6497 -0.1413
29600SOL    HW294893   8.955  10.055  10.565 -0.3394  0.2684  2.0386
29601SOL     OW94894   7.288   9.737   6.529 -0.4767 -0.0376  0.2833
29601SOL    HW194895   7.257   9.765   6.442 -0.0680 -1.2575 -0.2762
29601SOL    HW294896   7.286   9.817   6.581 -1.7446  0.5107 -0.5508
29602SOL     OW94897   7.053   7.257   8.271 -0.2475  0.2010  0.3802
29602SOL    HW194898   7.142   7.274   8.303  0.0368  0.0256 -0.3106
29602SOL    HW294899   7.002   7.239   8.351 -0.1106  2.2192  0.9892
29603SOL     OW94900   0.454   0.020   6.766 -0.0415  0.1555 -0.2407
29603SOL    HW194901   0.447  -0.068   6.727  1.2653 -0.0097 -0.1502
29603SOL    HW294902   0.480   0.004   6.856  1.1819  0.6454 -0.4876
29604SOL     OW94903   3.197   2.532   9.565  0.1905 -0.5183 -0.1692
29604SOL    HW194904   3.123   2.591   9.580 -1.3878 -2.0958 -1.4097
29604SOL    HW294905   3.243   2.529   9.649 -1.2196  0.3836  0.6648
29605SOL     OW94906   3.008   5.934   9.504  0.4514  0.2625 -0.1943
29605SOL    HW194907   2.929   5.886   9.481  1.1667 -0.1808 -1.8572
29605SOL    HW294908   2.993   5.964   9.594 -1.4264 -0.1310 -0.3482
29606SOL     OW94909   3.471   5.442   9.640  0.4053  0.0216 -0.1910
29606SOL    HW194910   3.501   5.482   9.559  0.0499 -1.8646 -1.3082
29606SOL    HW294911   3.551   5.414   9.685  0.5293 -1.2282 -1.1489
29607SOL     OW94912   9.490   6.898   5.664 -0.2966 -0.5722  0.0063
29607SOL    HW194913   9.562   6.863   5.611  0.7202  1.5988 -0.1322
29607SOL    HW294914   9.412   6.879   5.612  0.3720 -1.1713 -0.8114
29608SOL     OW94915   5.676   0.350   5.369 -0.0369  0.1373  0.3542
29608SOL    HW194916   5.704   0.267   5.331  1.5157  0.9200 -0.3199
29608SOL    HW294917   5.658   0.330   5.461  1.9719 -0.6318  0.6207
29609SOL     OW94918   0.244   5.724   0.380  0.0304 -0.1790 -0.1143
29609SOL    HW194919   0.163   5.740   0.430 -0.2258 -1.1809 -0.1818
29609SOL    HW294920   0.216   5.725   0.289 -0.1010 -1.4441 -0.1076
29610SOL     OW94921   2.537   5.395   9.364 -0.3647  0.0941  0.3401
29610SOL    HW194922   2.460   5.359   9.318 -0.2146  1.6518 -1.2338
29610SOL    HW294923   2.605   5.329   9.350 -0.9289 -0.4876  0.2256
29611SOL     OW94924   0.106   0.767   4.600  0.1831 -0.4167 -0.3323
29611SOL    HW194925   0.018   0.740   4.573  0.1597 -1.6737  0.8695
29611SOL    HW294926   0.153   0.685   4.613  0.8129  0.1574  1.2972
29612SOL     OW94927   4.519   7.412   0.665 -0.0008  0.9946  0.3309
29612SOL    HW194928   4.529   7.385   0.574 -1.0544 -0.0812  0.5011
29612SOL    HW294929   4.608   7.426   0.696  0.4245  0.4483 -0.6022
29613SOL     OW94930  10.026   1.243  10.255  0.0820  0.5483  0.4271
29613SOL    HW194931  10.080   1.211  10.183 -0.5014 -0.3625  0.3754
29613SOL    HW294932  10.081   1.233  10.333  0.2951  0.4445  0.2653
29614SOL     OW94933   2.461   0.846  10.853  0.4471  0.0044  0.0574
29614SOL    HW194934   2.492   0.761  10.884  1.1554 -0.5347 -1.9814
29614SOL    HW294935   2.541   0.892  10.826 -0.1165  0.4282 -0.9264
29615SOL     OW94936   0.471  10.264   4.920  0.3951  0.1334 -0.4366
29615SOL    HW194937   0.423  10.254   5.003  1.5606  1.6545  0.4808
29615SOL    HW294938   0.403  10.287   4.857 -0.3862 -0.0239  0.3088
29616SOL     OW94939  10.238   9.132   6.309 -0.0847  0.2687 -0.0493
29616SOL    HW194940  10.164   9.080   6.277  1.5223 -2.2134  0.0636
29616SOL    HW294941  10.279   9.167   6.230 -1.6260  2.1972 -0.0944
29617SOL     OW94942   1.248   6.042   0.358  0.0233  0.3841  0.1986
29617SOL    HW194943   1.216   5.983   0.426  0.3353 -0.0599 -0.0396
29617SOL    HW294944   1.171   6.059   0.304 -0.0533  0.1545  0.2346
29618SOL     OW94945   1.402   4.482   0.618 -0.0214  0.1394 -0.3768
29618SOL    HW194946   1.442   4.516   0.538  1.7501  3.1792  1.6496
29618SOL    HW294947   1.456   4.406   0.641  0.6452  0.4145 -1.0019
29619SOL     OW94948   0.708   6.056   0.867  0.1563 -0.2882  0.0393
29619SOL    HW194949   0.682   5.975   0.823 -2.2692 -1.6901  3.6261
29619SOL    HW294950   0.636   6.116   0.852  1.6508  1.1434 -2.0325
29620SOL     OW94951   8.917   2.305   4.859  0.0141 -0.2321  0.0119
29620SOL    HW194952   8.953   2.270   4.778  0.5198 -1.2047  0.6414
29620SOL    HW294953   8.897   2.228   4.912  0.1977  0.4004  1.0300
29621SOL     OW94954   4.498   5.349   4.528  0.4654  1.1469  0.1133
29621SOL    HW194955   4.479   5.337   4.435 -0.2349  1.8339  0.1531
29621SOL    HW294956   4.423   5.309   4.573 -0.5298  3.0854  0.3014
29622SOL     OW94957   5.268   3.065   1.577 -0.1929 -0.1847  0.0689
29622SOL    HW194958   5.351   3.020   1.564 -0.4579 -1.0402  1.1232
29622SOL    HW294959   5.240   3.038   1.665 -1.3290  0.4955 -0.0609
29623SOL     OW94960  10.201   2.886   9.169 -0.4640  0.0441  0.3173
29623SOL    HW194961  10.214   2.931   9.085  0.0156  2.5519  1.6258
29623SOL    HW294962  10.130   2.935   9.212  1.1471  0.6752  2.4761
29624SOL     OW94963   9.325   0.865   2.059  0.5401 -0.2361 -0.1211
29624SOL    HW194964   9.365   0.824   2.136 -0.6707 -0.5752  0.3482
29624SOL    HW294965   9.256   0.803   2.032  2.5860 -1.4614 -3.1083
29625SOL     OW94966   1.095   1.077   0.227  0.3429 -0.1311  0.0444
29625SOL    HW194967   1.037   1.029   0.167  0.7418 -0.3985 -0.1349
29625SOL    HW294968   1.079   1.038   0.313  0.0578 -0.0160  0.0444
29626SOL     OW94969   4.522   3.798   1.568  0.4423  0.4765 -0.4874
29626SOL    HW194970   4.504   3.704   1.571 -1.1375  0.7658  1.7260
29626SOL    HW294971   4.546   3.816   1.477  2.3977 -2.3269 -0.6432
29627SOL     OW94972   1.485  10.549   3.520 -0.2670  0.3165  0.2817
29627SOL    HW194973   1.484  10.643   3.505  0.2668  0.3555  0.4611
29627SOL    HW294974   1.394  10.526   3.536 -0.3908  0.8141  0.3117
29628SOL     OW94975   4.129   3.789   2.970  0.0237  0.7258  0.0767
29628SOL    HW194976   4.046   3.770   2.926  1.2189  1.7536 -2.8229
29628SOL    HW294977   4.196   3.761   2.908  1.8881  0.5937  2.0363
29629SOL     OW94978   7.069   4.873   6.876  0.1458  0.1102 -0.3323
29629SOL    HW194979   7.116   4.790   6.880  1.4294  0.8144 -0.3455
29629SOL    HW294980   6.992   4.860   6.931  0.4069 -1.0368 -0.2265
29630SOL     OW94981   6.652   4.264   8.960  0.6439  0.1632 -0.1611
29630SOL    HW194982   6.565   4.241   8.991  0.7820  0.8856  0.8131
29630SOL    HW294983   6.690   4.180   8.932  0.8129 -0.7391  2.4778
29631SOL     OW94984   0.133   1.085   6.529  0.0136 -0.2343 -0.3008
29631SOL    HW194985   0.076   1.028   6.478  1.3893 -0.9070 -1.1355
29631SOL    HW294986   0.136   1.167   6.480 -0.5568 -0.0538 -0.0370
29632SOL     OW94987   7.663   8.175   0.978  0.3733 -0.1252  0.6996
29632SOL    HW194988   7.580   8.128   0.986  0.2201  0.2033  1.0477
29632SOL    HW294989   7.643   8.249   0.921  0.9303 -1.2138 -0.9864
29633SOL     OW94990   7.656   9.385   3.240 -0.1993  0.0069 -0.2012
29633SOL    HW194991   7.653   9.390   3.335 -0.7318 -0.6873 -0.1733
29633SOL    HW294992   7.643   9.292   3.220 -0.8232  0.2502 -0.9783
29634SOL     OW94993   8.946   6.436   7.078  0.4437 -1.0472 -0.3887
29634SOL    HW194994   8.855   6.447   7.105  1.1861 -0.2699  2.0647
29634SOL    HW294995   8.961   6.506   7.015 -0.6168 -1.1483 -0.7694
29635SOL     OW94996   8.385   4.109   8.488 -0.1573  0.0817 -0.4059
29635SOL    HW194997   8.360   4.088   8.578 -0.4912  0.4005 -0.4232
29635SOL    HW294998   8.468   4.063   8.475 -0.7121 -0.9894 -0.3381
29636SOL     OW94999   0.454   6.174   6.724  0.1872  0.6157 -0.1037
29636SOL    HW195000   0.478   6.095   6.772  1.1527  1.1432  0.2918
29636SOL    HW295001   0.360   6.164   6.708  0.3324 -0.7193 -0.2650
29637SOL     OW95002   2.444   8.844   5.413  0.1214 -0.1516 -0.0943
29637SOL    HW195003   2.411   8.847   5.323  0.7628  0.2123 -0.3196
29637SOL    HW295004   2.460   8.751   5.429  1.6111 -0.0735 -0.9505
29638SOL     OW95005   1.497   2.126   0.033 -0.5135  0.3070 -0.2743
29638SOL    HW195006   1.588   2.149   0.018 -0.4516 -0.7257 -1.7052
29638SOL    HW295007   1.451   2.210   0.036  0.3124  0.7852 -0.7446
29639SOL     OW95008   7.737   3.095   8.868  0.2739 -0.1008  0.1543
29639SOL    HW195009   7.671   3.033   8.836 -0.8799  0.6476  0.9801
29639SOL    HW295010   7.690   3.147   8.933  1.0439  2.0386 -0.9203
29640SOL     OW95011   5.913   2.313   4.185  0.1208  0.4113  0.3980
29640SOL    HW195012   5.885   2.402   4.205 -1.8271 -0.3360  1.2938
29640SOL    HW295013   6.007   2.313   4.201  0.6173  2.8587 -1.8325
29641SOL     OW95014   5.561   8.230   3.014 -0.3396 -0.1730 -0.1416
29641SOL    HW195015   5.473   8.194   3.009  0.5726 -2.5053 -0.8361
29641SOL    HW295016   5.598   8.215   2.927  0.3024  2.1344 -0.3375
29642SOL     OW95017   6.603   0.426   2.618 -0.0375  0.4315 -0.0607
29642SOL    HW195018   6.669   0.388   2.561 -0.0830 -0.3470  0.4010
29642SOL    HW295019   6.552   0.352   2.650 -1.3890  1.0455 -0.7076
29643SOL     OW95020   2.218   2.837   3.337  0.5331  0.3506  0.1216
29643SOL    HW195021   2.239   2.903   3.403 -1.1074  1.2215 -0.1518
29643SOL    HW295022   2.267   2.760   3.363 -0.2012  0.5895  2.4883
29644SOL     OW95023  10.668   5.605   7.010 -0.3615  0.1404 -0.0182
29644SOL    HW195024  10.641   5.514   7.007 -1.6779  0.4646  1.2408
29644SOL    HW295025  10.757   5.603   7.047 -0.4006 -0.6229  0.0396
29645SOL     OW95026   8.545   8.527   2.144  0.2618 -0.1217  0.0795
29645SOL    HW195027   8.635   8.526   2.176  0.7739  2.4829 -0.9733
29645SOL    HW295028   8.501   8.592   2.199 -0.9302 -1.1417  0.3834
29646SOL     OW95029   5.855   2.966   4.535  0.5050  0.0067 -0.2046
29646SOL    HW195030   5.922   2.983   4.469  2.5134 -0.1562  1.6580
29646SOL    HW295031   5.876   3.026   4.606 -0.1772 -1.3301  1.1850
29647SOL     OW95032  10.818   5.986  10.345  0.7505  0.0169  0.1932
29647SOL    HW195033  10.814   5.919  10.414  0.7202 -1.4763 -1.1945
29647SOL    HW295034  10.912   6.002  10.333  0.9274 -1.7985 -1.2728
29648SOL     OW95035   3.735   3.944   8.239 -0.0533  0.3052  0.3555
29648SOL    HW195036   3.650   3.987   8.224  0.6788  1.5601 -0.3936
29648SOL    HW295037   3.721   3.854   8.212 -1.0785  0.5560 -0.0220
29649SOL     OW95038   7.601   7.256   6.358 -0.2230 -0.4519 -0.1978
29649SOL    HW195039   7.512   7.249   6.324  0.4820 -2.6068 -1.7557
29649SOL    HW295040   7.620   7.170   6.394  0.3937  0.6965  2.4806
29650SOL     OW95041   9.531   5.773  10.320  0.6002  0.4677 -0.1196
29650SOL    HW195042   9.544   5.809  10.232  0.9413  0.5976 -0.0156
29650SOL    HW295043   9.593   5.700  10.326  0.5997  0.4791  0.0265
29651SOL     OW95044   4.580   8.323   3.929 -0.3106  0.4401 -0.2369
29651SOL    HW195045   4.658   8.313   3.874  1.1239  0.9895  1.5942
29651SOL    HW295046   4.581   8.248   3.988 -0.8339  0.7658  0.2001
29652SOL     OW95047   5.778   3.795   4.307 -0.0463 -0.1709 -0.2056
29652SOL    HW195048   5.769   3.733   4.379  0.9241  0.6986  0.7020
29652SOL    HW295049   5.718   3.867   4.329 -1.9311 -1.1664 -1.7542
29653SOL     OW95050   2.712   4.064   7.898  0.5607 -0.1018  0.7079
29653SOL    HW195051   2.773   4.136   7.912  1.1118 -0.7238  1.6487
29653SOL    HW295052   2.638   4.104   7.851  1.7433  0.6150 -0.6101
29654SOL     OW95053   8.366   3.080   8.282  0.7292 -0.3571  0.3919
29654SOL    HW195054   8.313   3.139   8.228  1.4158 -0.8208 -0.8287
29654SOL    HW295055   8.314   3.066   8.361 -0.7140 -0.3661 -0.5246
29655SOL     OW95056   4.495   6.699   6.030  0.0745 -0.5534  0.0832
29655SOL    HW195057   4.534   6.773   6.077 -0.8704 -0.8272  1.3528
29655SOL    HW295058   4.561   6.631   6.034 -0.7827 -1.3391  3.0593
29656SOL     OW95059   3.155   4.413   2.827  0.2636 -0.6203  0.1055
29656SOL    HW195060   3.222   4.379   2.767 -0.5265 -1.6198 -0.2485
29656SOL    HW295061   3.170   4.366   2.908 -0.5737 -1.5397 -0.2581
29657SOL     OW95062   6.290   0.578   3.936 -0.2240  0.1626  0.4060
29657SOL    HW195063   6.350   0.637   3.981 -0.5029 -0.1659  1.2251
29657SOL    HW295064   6.295   0.496   3.986 -2.0697  0.4287  1.0674
29658SOL     OW95065   0.550   2.723   0.273 -0.0487  0.3709  0.0724
29658SOL    HW195066   0.569   2.632   0.295 -2.2904  0.2069  1.8108
29658SOL    HW295067   0.496   2.718   0.194 -0.6650  0.0928  0.4936
29659SOL     OW95068   3.164   7.903   5.104 -0.2298  0.7940  0.5257
29659SOL    HW195069   3.119   7.844   5.164 -0.9417 -0.4648 -1.1844
29659SOL    HW295070   3.221   7.846   5.053 -1.4443  1.4161 -1.6441
29660SOL     OW95071   5.859  10.427   5.015 -0.0106  0.1787 -0.0840
29660SOL    HW195072   5.876  10.517   4.984 -0.2095 -0.4516 -2.1595
29660SOL    HW295073   5.788  10.396   4.960  2.8101 -2.7033 -2.4848
29661SOL     OW95074   6.996   2.359   7.225 -0.0604  0.3257 -0.1650
29661SOL    HW195075   6.952   2.385   7.143 -0.8830 -1.5028 -0.3403
29661SOL    HW295076   6.943   2.287   7.259  0.4661  0.8241  1.8340
29662SOL     OW95077   5.347   2.927   2.209 -0.0822  0.4839  0.2569
29662SOL    HW195078   5.332   2.966   2.123 -1.3879  1.8189  1.0499
29662SOL    HW295079   5.442   2.926   2.218  0.0800  0.3215 -1.1853
29663SOL     OW95080   9.044   9.948   4.758 -0.1413 -0.0334  0.1272
29663SOL    HW195081   8.962   9.988   4.729 -0.5895 -1.5039 -0.7276
29663SOL    HW295082   9.049   9.866   4.709  2.9575  0.9913 -1.5585
29664SOL     OW95083   6.727   5.125   8.245  0.0999 -0.1361 -0.4669
29664SOL    HW195084   6.773   5.062   8.299  0.3362 -1.2269 -1.8968
29664SOL    HW295085   6.768   5.209   8.265  0.1429 -0.5031  1.0543
29665SOL     OW95086   4.395   4.800   8.865  0.8033 -0.3612  0.1596
29665SOL    HW195087   4.357   4.809   8.778 -1.9285 -2.5309  1.0067
29665SOL    HW295088   4.322   4.777   8.921  3.1259 -3.7677  2.1563
29666SOL     OW95089   0.674   6.236   8.093 -0.2381  0.5237 -0.2594
29666SOL    HW195090   0.748   6.229   8.032  0.5388 -1.3882  0.8104
29666SOL    HW295091   0.601   6.196   8.046 -0.3307  1.4031 -0.8925
29667SOL     OW95092   3.515  10.712   0.190  0.2288 -0.6858 -0.0762
29667SOL    HW195093   3.519  10.804   0.163 -0.3608 -0.5298  0.3239
29667SOL    HW295094   3.553  10.663   0.117 -1.2184 -0.2756 -1.1525
29668SOL     OW95095   3.392   4.207   6.599  0.8794 -0.9766  0.4878
29668SOL    HW195096   3.313   4.153   6.602 -0.2940  0.6582  0.7648
29668SOL    HW295097   3.374   4.271   6.530  2.1768 -0.8598  0.2385
29669SOL     OW95098   7.913  10.350   2.208 -0.4477  0.0323  0.5090
29669SOL    HW195099   7.846  10.337   2.140 -0.4763  0.5586  0.4368
29669SOL    HW295100   7.988  10.300   2.176  0.1317  1.6273 -0.7689
29670SOL     OW95101   7.421   7.886   2.090 -0.1801 -0.3036 -0.2131
29670SOL    HW195102   7.328   7.876   2.068 -0.1579  0.0480 -0.4780
29670SOL    HW295103   7.453   7.954   2.030  0.1853 -0.2274  0.0611
29671SOL     OW95104   7.852   7.475   0.217  0.3217  0.3739 -0.2406
29671SOL    HW195105   7.843   7.381   0.231 -0.2129  0.6089  1.2523
29671SOL    HW295106   7.892   7.507   0.298  0.8409  1.3945 -0.8736
29672SOL     OW95107   0.323   1.532   0.902 -0.0967  0.3009 -0.1214
29672SOL    HW195108   0.355   1.622   0.899 -1.3896  0.7685 -0.5012
29672SOL    HW295109   0.228   1.540   0.900 -0.4660 -0.8740  3.6575
29673SOL     OW95110   5.683   9.300   2.577 -0.5833  0.1984 -0.6199
29673SOL    HW195111   5.730   9.360   2.635 -1.1610 -0.3518  0.4404
29673SOL    HW295112   5.752   9.251   2.533 -0.1300  0.7016 -0.4824
29674SOL     OW95113   2.333   9.825   2.453  0.1274 -0.3022  0.3514
29674SOL    HW195114   2.283   9.743   2.453 -0.1387 -0.1720 -1.3458
29674SOL    HW295115   2.279   9.886   2.503 -0.5180 -0.6898  0.1453
29675SOL     OW95116   7.077   9.089   9.467 -0.3027  0.2191  0.1803
29675SOL    HW195117   7.144   9.037   9.511  1.5752  1.4511 -1.0568
29675SOL    HW295118   7.086   9.176   9.504 -1.4295  0.3551  0.1708
29676SOL     OW95119   5.584   1.759   7.603 -0.0401 -0.1201  0.2349
29676SOL    HW195120   5.675   1.789   7.602  0.0974 -0.5386 -0.2739
29676SOL    HW295121   5.535   1.829   7.560 -0.0218  0.2875  0.8670
29677SOL     OW95122   5.317   7.132   3.276 -0.3801  0.4728 -0.0584
29677SOL    HW195123   5.320   7.099   3.366 -0.3018  0.8820  0.0914
29677SOL    HW295124   5.236   7.095   3.240  0.8554 -1.8113 -0.6668
29678SOL     OW95125   2.939   6.857   7.227  0.1394  0.2083 -0.6612
29678SOL    HW195126   2.870   6.794   7.207 -0.0403  0.6703 -1.5657
29678SOL    HW295127   2.951   6.906   7.145 -0.2197  1.8228  0.2045
29679SOL     OW95128   9.792   4.195   1.353  0.0160  0.1092  0.3331
29679SOL    HW195129   9.819   4.144   1.276  0.5888  0.8267  0.0525
29679SOL    HW295130   9.718   4.146   1.388 -0.7874  0.2045 -1.1513
29680SOL     OW95131  10.689   1.709   4.426  0.0415 -0.1381  0.2383
29680SOL    HW195132  10.632   1.786   4.438  1.6815  1.1130  0.3770
29680SOL    HW295133  10.709   1.710   4.332 -0.3526 -0.7306  0.1438
29681SOL     OW95134   6.799   6.470   7.371 -0.2138  0.2383 -0.0084
29681SOL    HW195135   6.758   6.397   7.419 -0.9615  1.2681  0.9781
29681SOL    HW295136   6.730   6.503   7.314 -1.2268  2.6123  2.3675
29682SOL     OW95137   6.454  10.032   1.093  0.2700 -0.2918 -0.3922
29682SOL    HW195138   6.512  10.107   1.077  0.4215 -0.8477 -2.7989
29682SOL    HW295139   6.377  10.070   1.136  1.2007  0.9001  0.2811
29683SOL     OW95140   4.400   7.030   2.293 -1.1653  0.0183  0.3525
29683SOL    HW195141   4.324   6.977   2.319 -2.4243  1.4549 -0.2394
29683SOL    HW295142   4.363   7.116   2.272  0.4598  0.3677 -1.3026
29684SOL     OW95143   4.620   8.640   7.267  0.0835  0.4893  0.0368
29684SOL    HW195144   4.599   8.733   7.269 -2.4246  0.0762 -2.1019
29684SOL    HW295145   4.568   8.602   7.338  0.3772  0.5727  0.3008
29685SOL     OW95146   1.366   4.198   0.441 -0.1672  0.4193 -0.8252
29685SOL    HW195147   1.394   4.149   0.364  1.0747 -1.4698  0.7098
29685SOL    HW295148   1.271   4.191   0.441 -0.1170 -0.4881 -1.5998
29686SOL     OW95149   2.271   1.877   8.351  0.3677  0.8522  0.6763
29686SOL    HW195150   2.268   1.952   8.292  0.7453  0.6026  0.3312
29686SOL    HW295151   2.363   1.872   8.379 -0.0936  1.8662  2.4686
29687SOL     OW95152   2.649   4.981   1.258  0.4214  0.1636 -0.1735
29687SOL    HW195153   2.724   5.029   1.294  1.0324 -0.4845 -0.5529
29687SOL    HW295154   2.588   4.972   1.331  0.5673  0.9783  0.0534
29688SOL     OW95155   9.627   0.149   0.803  0.8684 -0.4341 -0.4656
29688SOL    HW195156   9.659   0.083   0.741  0.9885  0.6579 -1.6073
29688SOL    HW295157   9.569   0.204   0.751 -1.7364 -1.4102  1.1562
29689SOL     OW95158   0.114   1.812   1.901  0.1689  0.3947 -0.4464
29689SOL    HW195159   0.163   1.798   1.982 -2.2386  3.0203  1.6583
29689SOL    HW295160   0.055   1.736   1.896  0.2204  0.2928  0.3551
29690SOL     OW95161  10.565   1.660  10.149 -0.2314 -0.5987 -0.3990
29690SOL    HW195162  10.607   1.614  10.223 -0.0322  0.1545 -0.0384
29690SOL    HW295163  10.579   1.753  10.167  0.1522 -0.4063 -1.5804
29691SOL     OW95164   6.974   4.795   6.075 -0.5482 -0.0271  0.2914
29691SOL    HW195165   6.974   4.719   6.017  1.1859  0.6361 -0.6769
29691SOL    HW295166   6.963   4.759   6.163 -1.7433 -1.1866 -0.3075
29692SOL     OW95167   8.032   5.096   1.383 -0.7069 -0.2363 -0.2485
29692SOL    HW195168   8.078   5.088   1.299 -1.0867  1.4420 -0.6419
29692SOL    HW295169   7.958   5.154   1.365 -1.6514 -1.0326  0.9242
29693SOL     OW95170  10.756   7.944   6.991 -0.9250  0.1261  0.5203
29693SOL    HW195171  10.695   7.879   7.024 -1.5488  0.9525  1.0071
29693SOL    HW295172  10.744   7.941   6.896  1.4478 -2.8320  0.1310
29694SOL     OW95173   0.249   5.833   0.903  0.0261  0.2396 -0.0268
29694SOL    HW195174   0.228   5.763   0.964  1.7772  0.1295  0.4771
29694SOL    HW295175   0.344   5.843   0.907  0.2117  0.3356 -2.6245
29695SOL     OW95176   5.604   1.421   6.473 -0.3911  0.1718 -0.1302
29695SOL    HW195177   5.613   1.491   6.537 -1.8220  0.0372  0.2543
29695SOL    HW295178   5.621   1.463   6.389 -1.0384  0.9521  0.1114
29696SOL     OW95179   8.921   2.113   7.725  0.1527  0.1377  0.2975
29696SOL    HW195180   8.849   2.163   7.687  0.9284  1.4078  0.4599
29696SOL    HW295181   8.949   2.055   7.655 -1.9297 -1.4389  0.6578
29697SOL     OW95182   7.399   0.359   2.194  0.0077 -0.2522  0.3387
29697SOL    HW195183   7.419   0.369   2.288 -1.5875  0.6738  0.6157
29697SOL    HW295184   7.308   0.331   2.192 -0.5347  1.4433 -0.9641
29698SOL     OW95185   9.859  10.133   6.559  0.8654  0.0448  0.0403
29698SOL    HW195186   9.903  10.126   6.474  1.0423  0.0412  0.1325
29698SOL    HW295187   9.839  10.226   6.569  0.2297 -0.0427 -0.3151
29699SOL     OW95188   7.184   1.785   2.709 -0.7520 -0.3214  0.4224
29699SOL    HW195189   7.197   1.725   2.635  0.5179  0.0788  0.3045
29699SOL    HW295190   7.265   1.778   2.760 -1.6405 -0.6617  1.8469
29700SOL     OW95191   4.193   8.856   5.373  0.1666 -0.2985 -0.3414
29700SOL    HW195192   4.136   8.905   5.432  1.4574 -0.0863  0.8027
29700SOL    HW295193   4.139   8.836   5.297 -1.0813  0.8445  0.2081
29701SOL     OW95194   4.134   0.786   0.138  0.2402  0.2164  0.6504
29701SOL    HW195195   4.179   0.866   0.167 -0.1997  0.9569 -0.6456
29701SOL    HW295196   4.193   0.746   0.075 -1.2306  1.7263 -1.8423
29702SOL     OW95197   4.514  10.475   9.847  0.1054 -0.1384 -0.3287
29702SOL    HW195198   4.512  10.412   9.919 -0.8001 -0.0162 -0.2347
29702SOL    HW295199   4.507  10.560   9.890 -0.5182 -0.0686 -0.5626
29703SOL     OW95200   0.725   7.625   3.007 -0.1872  0.0631  0.2810
29703SOL    HW195201   0.734   7.558   3.075  1.3571  2.2188  2.3933
29703SOL    HW295202   0.637   7.659   3.018 -0.4477 -0.5649  0.1997
29704SOL     OW95203   2.055   6.844   7.666  0.1595  0.0800  0.2137
29704SOL    HW195204   2.063   6.766   7.612  1.1281  1.4456 -1.7440
29704SOL    HW295205   2.138   6.850   7.713  0.1538  0.0173  0.2306
29705SOL     OW95206   5.014   3.375  10.002  0.2584  0.3602 -0.5366
29705SOL    HW195207   4.919   3.369  10.010  0.1620  0.6462 -1.3519
29705SOL    HW295208   5.047   3.291  10.033 -0.0478  1.2562  2.5700
29706SOL     OW95209   7.127   0.878  10.462 -0.3755 -0.4418  0.2648
29706SOL    HW195210   7.213   0.838  10.452  0.3814  0.1333  3.4057
29706SOL    HW295211   7.142   0.972  10.450 -0.4391 -0.3036  1.1324
29707SOL     OW95212   8.941   8.458   1.100 -0.0075  0.1258  0.0869
29707SOL    HW195213   8.891   8.378   1.115 -1.2883  0.6605 -1.0837
29707SOL    HW295214   8.926   8.510   1.179  1.9462 -1.2789  1.4644
29708SOL     OW95215   1.389   8.336   7.342  0.4943 -0.6015 -0.1970
29708SOL    HW195216   1.435   8.408   7.300  0.9506 -0.1246  1.0816
29708SOL    HW295217   1.343   8.376   7.415  0.2711 -1.5090  0.1713
29709SOL     OW95218   3.149   5.572   6.611 -0.1554  0.2425  0.4027
29709SOL    HW195219   3.211   5.571   6.538 -1.1799  0.8918 -0.5063
29709SOL    HW295220   3.192   5.626   6.678  1.3888 -1.4531  0.8677
29710SOL     OW95221   1.796   0.072   2.100  0.8430  0.3155 -0.4587
29710SOL    HW195222   1.780   0.157   2.140  1.9736  0.8557 -1.0817
29710SOL    HW295223   1.745   0.074   2.019 -0.1684 -0.1335  0.1588
29711SOL     OW95224   4.190   4.212   4.820  0.4903 -0.4019 -0.0174
29711SOL    HW195225   4.190   4.189   4.913  1.6987 -0.9757 -0.1431
29711SOL    HW295226   4.157   4.302   4.818  1.9459  0.2062  1.1368
29712SOL     OW95227   6.350   8.122   6.812 -0.5142  0.4930 -0.6940
29712SOL    HW195228   6.392   8.075   6.883 -0.1197  2.8408  0.7393
29712SOL    HW295229   6.257   8.122   6.834 -0.6634 -0.4803 -1.2677
29713SOL     OW95230   4.911   2.952   1.209 -0.3038 -0.6844  0.2538
29713SOL    HW195231   4.993   2.999   1.226 -0.9036  0.2567  0.6111
29713SOL    HW295232   4.843   3.011   1.240 -1.1190 -1.5110  0.0692
29714SOL     OW95233   2.822   7.934   7.369 -0.3138 -0.4159 -0.3011
29714SOL    HW195234   2.877   7.901   7.440  0.4171  0.2330 -0.5381
29714SOL    HW295235   2.734   7.938   7.406 -0.1517 -1.2076  0.1840
29715SOL     OW95236   2.452   0.331   2.746  0.0280 -0.0499 -0.2724
29715SOL    HW195237   2.516   0.261   2.731 -1.1771 -0.7852 -2.2949
29715SOL    HW295238   2.504   0.411   2.743  1.0802 -0.7079 -0.2986
29716SOL     OW95239   9.970   7.714   6.471 -0.0342  0.0656  0.2821
29716SOL    HW195240   9.985   7.762   6.552  0.3706 -0.1633  0.3446
29716SOL    HW295241   9.896   7.656   6.491 -0.8739  1.0176  0.0468
29717SOL     OW95242   1.177   8.335   6.127 -0.1318 -0.0446 -0.0296
29717SOL    HW195243   1.100   8.312   6.073 -0.0012 -1.1497  0.2306
29717SOL    HW295244   1.225   8.253   6.136  1.6694  0.8323 -1.0694
29718SOL     OW95245   3.340   1.788   5.973  0.3489  0.5857  0.2105
29718SOL    HW195246   3.304   1.739   5.899 -1.9926  3.3921 -0.6681
29718SOL    HW295247   3.435   1.781   5.962  0.0792 -0.8984 -1.7366
29719SOL     OW95248   2.378   4.916   0.024  0.5612 -0.4620 -0.0653
29719SOL    HW195249   2.407   4.836  -0.021 -0.8525 -1.5817  0.9361
29719SOL    HW295250   2.447   4.932   0.089  1.6822  0.1159 -1.3411
29720SOL     OW95251  10.439  10.359   4.148  0.0235  0.0190  0.9530
29720SOL    HW195252  10.372  10.326   4.209 -1.1378 -0.6637 -0.6236
29720SOL    HW295253  10.444  10.452   4.167 -0.3562 -0.1656  2.0461
29721SOL     OW95254   4.512  10.432   4.324  0.1698 -0.3889  0.7645
29721SOL    HW195255   4.531  10.346   4.362  0.0692 -0.3873  0.8210
29721SOL    HW295256   4.529  10.494   4.395  0.6785 -0.3251  0.5863
29722SOL     OW95257   2.572   2.355   7.832  0.2971  0.6575  0.3758
29722SOL    HW195258   2.617   2.282   7.788  0.9712  1.0155  0.4644
29722SOL    HW295259   2.549   2.415   7.761  1.4649  1.2786  0.5049
29723SOL     OW95260   7.822   3.212  10.079 -0.2638 -0.4604  0.0394
29723SOL    HW195261   7.848   3.270  10.150 -2.2028 -1.7663  1.9549
29723SOL    HW295262   7.904   3.180  10.042  0.8222 -0.0379  1.9611
29724SOL     OW95263   3.794   3.030   8.512  0.1565  0.1774 -0.1018
29724SOL    HW195264   3.777   3.003   8.602 -0.9100  0.4566 -0.2047
29724SOL    HW295265   3.769   3.122   8.510 -2.0803 -0.3681 -1.2089
29725SOL     OW95266   3.525   5.252   0.447  0.7372  0.7410 -0.1142
29725SOL    HW195267   3.456   5.246   0.382  1.9780  2.2410 -1.6528
29725SOL    HW295268   3.555   5.162   0.459  1.4777  0.5739 -2.7684
29726SOL     OW95269   4.130  10.340   6.834  0.3280 -0.0427 -0.4737
29726SOL    HW195270   4.081  10.421   6.821  0.3106  0.1498  0.7156
29726SOL    HW295271   4.150  10.338   6.927 -0.7280 -2.0236 -0.2246
29727SOL     OW95272  10.872   7.669   6.418  0.7080  0.1453  0.2103
29727SOL    HW195273  10.793   7.650   6.470 -1.3253 -0.0988 -2.7109
29727SOL    HW295274  10.858   7.757   6.384  0.6472 -0.6466 -1.9670
29728SOL     OW95275   6.014   4.051   2.467 -0.2314  0.2012 -0.4216
29728SOL    HW195276   6.060   4.125   2.427  2.9398 -1.4240 -0.0815
29728SOL    HW295277   6.020   4.068   2.561 -0.2145 -0.0981 -0.3689
29729SOL     OW95278   4.770   2.875   0.674 -0.5621  0.2399  0.7165
29729SOL    HW195279   4.761   2.913   0.761  0.9547 -2.1707  2.0501
29729SOL    HW295280   4.859   2.839   0.672 -1.2853 -1.6929 -0.9867
29730SOL     OW95281   2.877   5.144   1.349  0.1319 -0.9051  0.4294
29730SOL    HW195282   2.958   5.094   1.351 -1.0979 -3.1539 -1.1435
29730SOL    HW295283   2.887   5.203   1.274  0.0168 -1.7984 -0.3044
29731SOL     OW95284   7.020   2.349   6.657  0.5956 -0.0028 -0.2739
29731SOL    HW195285   7.112   2.374   6.668  1.0993 -0.8603 -2.0781
29731SOL    HW295286   6.998   2.301   6.737  1.7237  0.2030  0.1775
29732SOL     OW95287   8.452   4.791   6.407  0.0536 -0.1842  0.8561
29732SOL    HW195288   8.488   4.877   6.428  0.7382 -0.0621 -0.7278
29732SOL    HW295289   8.485   4.734   6.477  0.6740  0.5641  1.1965
29733SOL     OW95290   7.103   5.303   7.195 -0.1779  0.1135  0.4458
29733SOL    HW195291   7.160   5.227   7.196 -0.7262 -0.3252 -0.6557
29733SOL    HW295292   7.156   5.373   7.233  1.0998 -0.2823 -0.5438
29734SOL     OW95293   5.583   0.217  10.087  0.0976 -0.3638  0.1704
29734SOL    HW195294   5.564   0.129  10.120  1.0388 -0.5282  0.3132
29734SOL    HW295295   5.617   0.264  10.163  0.5220 -0.1776 -0.1315
29735SOL     OW95296   7.226   6.686   2.403 -0.3362  0.2632  0.0735
29735SOL    HW195297   7.227   6.763   2.461 -3.8138 -0.5174  1.4521
29735SOL    HW295298   7.138   6.650   2.414  0.6108 -2.9768 -1.8175
29736SOL     OW95299   3.317   3.905   6.393  0.6945 -0.1299  0.1975
29736SOL    HW195300   3.313   3.831   6.333 -1.2553  0.3052 -0.2552
29736SOL    HW295301   3.248   3.888   6.457 -0.6856  1.8848 -0.6540
29737SOL     OW95302   5.192   7.419   1.400  0.2502 -0.5539 -0.3132
29737SOL    HW195303   5.257   7.371   1.350  1.8558  0.1505  1.0118
29737SOL    HW295304   5.108   7.388   1.366  1.2465 -2.0587 -1.5393
29738SOL     OW95305   2.343   0.486  10.282 -0.1850  0.1289 -0.4290
29738SOL    HW195306   2.299   0.558  10.326  0.7161  0.6702 -0.3888
29738SOL    HW295307   2.279   0.453  10.220 -0.7932  0.6167 -0.0694
29739SOL     OW95308   3.195  10.169  10.564 -0.6774  0.0805 -0.0191
29739SOL    HW195309   3.190  10.076  10.586  0.6851 -0.4362 -1.6404
29739SOL    HW295310   3.257  10.205  10.627 -1.7353  0.0632  1.0554
29740SOL     OW95311   2.787   0.518   9.946 -0.1145  0.1555  0.4996
29740SOL    HW195312   2.698   0.516   9.982 -1.5249  2.2003 -2.4026
29740SOL    HW295313   2.826   0.597   9.983 -0.0478  0.0220  0.7103
29741SOL     OW95314   6.422   6.239   8.615 -0.0469 -0.3676  0.0555
29741SOL    HW195315   6.377   6.166   8.573  2.1583 -0.5519 -2.1419
29741SOL    HW295316   6.513   6.232   8.587  0.9342  1.3383  2.4490
29742SOL     OW95317   4.078   9.266   5.531 -0.2695 -0.0013 -0.0735
29742SOL    HW195318   4.031   9.275   5.449 -0.7270 -0.3299  0.1504
29742SOL    HW295319   4.098   9.356   5.557 -2.2338  0.2662  0.6656
29743SOL     OW95320   4.683   6.316   6.496 -0.5364 -0.4642 -0.2249
29743SOL    HW195321   4.735   6.362   6.431 -1.2520 -1.4887 -1.5616
29743SOL    HW295322   4.678   6.226   6.464 -1.6787 -0.7825  0.7662
29744SOL     OW95323   3.240  10.573   8.167  0.0406  0.1214  0.6134
29744SOL    HW195324   3.234  10.517   8.245  0.2551 -1.9096 -0.7524
29744SOL    HW295325   3.318  10.542   8.122 -0.4013  0.8707 -0.6915
29745SOL     OW95326   8.632   5.484   8.399 -0.0540  0.0213  0.4863
29745SOL    HW195327   8.576   5.441   8.335 -0.7537 -1.0222  1.7592
29745SOL    HW295328   8.663   5.414   8.456  2.2468  0.6121  0.0904
29746SOL     OW95329   3.808   3.086   0.448  0.1127 -0.0730  0.0159
29746SOL    HW195330   3.876   3.126   0.503 -0.3211 -0.7768  1.0849
29746SOL    HW295331   3.835   2.994   0.441 -0.6739 -0.3346  0.3693
29747SOL     OW95332   3.248   6.062   9.548  0.0477 -0.6766  0.0063
29747SOL    HW195333   3.171   6.013   9.519 -2.2552  0.9405  2.8208
29747SOL    HW295334   3.233   6.151   9.516  0.8944 -0.3986  0.3567
29748SOL     OW95335   9.860   6.913   7.690  0.2542 -0.4747  0.0142
29748SOL    HW195336   9.770   6.884   7.674  0.1091  0.3127 -0.6039
29748SOL    HW295337   9.856   7.008   7.687  0.9069 -0.3951  1.1212
29749SOL     OW95338   7.962   6.375   3.723  0.8757 -0.0799  0.5934
29749SOL    HW195339   8.007   6.369   3.807 -0.2734 -0.6652  1.1950
29749SOL    HW295340   7.912   6.457   3.728  0.6670 -0.2034  0.5454
29750SOL     OW95341   7.371   8.342   0.870 -0.6637  0.0813  0.3677
29750SOL    HW195342   7.282   8.377   0.875 -0.5714  0.1151  2.0874
29750SOL    HW295343   7.372   8.269   0.931  0.5952  0.3187  0.6658
29751SOL     OW95344   1.198   2.234   1.969  0.1432 -0.4126  0.8888
29751SOL    HW195345   1.191   2.151   1.921 -2.6812  1.0153 -1.5327
29751SOL    HW295346   1.253   2.289   1.914 -0.1278  0.1045  1.1300
29752SOL     OW95347   1.706   4.520   3.983  0.5876  0.0843  0.3956
29752SOL    HW195348   1.696   4.585   3.913 -2.3702  1.5281  1.9580
29752SOL    HW295349   1.649   4.551   4.053  1.3778 -2.6733  2.4473
29753SOL     OW95350   4.222   2.624   7.597 -0.8679  0.5165  0.2271
29753SOL    HW195351   4.135   2.640   7.560  0.1822 -0.6391 -3.0684
29753SOL    HW295352   4.273   2.702   7.574 -0.6150  0.4862  0.6759
29754SOL     OW95353   6.121   7.465   2.536 -0.0824 -0.8027 -0.1877
29754SOL    HW195354   6.144   7.513   2.616  0.9587 -1.7959  0.1391
29754SOL    HW295355   6.067   7.392   2.567 -1.0965 -0.2389 -0.6027
29755SOL     OW95356   2.694   1.727   6.458  0.2276 -0.2861  0.1205
29755SOL    HW195357   2.742   1.647   6.436  2.7743  1.3552 -0.6287
29755SOL    HW295358   2.713   1.741   6.551  2.3817  0.9919 -0.4331
29756SOL     OW95359   6.348   2.779   8.354 -0.3135 -0.2389 -0.4867
29756SOL    HW195360   6.357   2.812   8.265  0.1273 -0.8441 -0.6701
29756SOL    HW295361   6.416   2.713   8.363  1.1768  1.3988  1.0510
29757SOL     OW95362   0.713   1.845   9.652 -0.7286 -0.3446 -0.7620
29757SOL    HW195363   0.658   1.835   9.730  0.2465  1.3412  0.2088
29757SOL    HW295364   0.784   1.782   9.666 -0.9180 -0.5347 -0.6335
29758SOL     OW95365   9.615  10.931   5.785 -0.2406 -0.1693  0.0873
29758SOL    HW195366   9.539  10.987   5.771  0.5040  0.3887 -2.2277
29758SOL    HW295367   9.685  10.990   5.813 -0.4786 -0.6036  1.6896
29759SOL     OW95368   3.870   5.123  10.809 -0.5656  0.2055 -0.4221
29759SOL    HW195369   3.819   5.044  10.789 -0.4365  0.1237 -0.4266
29759SOL    HW295370   3.953   5.110  10.764 -0.5666  0.3713 -0.4717
29760SOL     OW95371   8.597   1.234   1.276  0.4640 -0.0488 -0.2757
29760SOL    HW195372   8.565   1.156   1.230 -0.1199 -0.1535  0.2927
29760SOL    HW295373   8.523   1.295   1.272  0.7660  0.3158 -0.3373
29761SOL     OW95374   0.949   2.681   8.422 -0.2089  0.6092 -0.0333
29761SOL    HW195375   0.913   2.684   8.333 -3.2108  1.9169  1.0915
29761SOL    HW295376   1.026   2.736   8.418 -0.1599  0.4808 -1.8603
29762SOL     OW95377   4.868   9.471   5.439 -0.0295  0.2684 -0.6246
29762SOL    HW195378   4.807   9.399   5.424 -1.6299  1.3846  0.1833
29762SOL    HW295379   4.841   9.539   5.377 -0.5634  1.2932  0.6603
29763SOL     OW95380   2.764   2.135   0.613 -0.1680 -0.3152 -0.7639
29763SOL    HW195381   2.686   2.165   0.566 -0.3073 -1.0672 -1.0282
29763SOL    HW295382   2.754   2.040   0.618  1.2610 -0.5641 -1.8035
29764SOL     OW95383   0.531   6.463   7.312 -0.2261  0.5072  0.0267
29764SOL    HW195384   0.455   6.489   7.260 -0.2530 -0.6954 -0.5789
29764SOL    HW295385   0.511   6.492   7.401 -2.1224 -1.1616  0.2169
29765SOL     OW95386   8.944  10.104   5.551 -0.2391 -0.0872  0.4571
29765SOL    HW195387   8.959  10.030   5.492  0.0798 -0.2276  0.7081
29765SOL    HW295388   8.866  10.148   5.516 -0.8713 -0.9670  0.7302
29766SOL     OW95389   2.084   8.133   5.837  0.0168 -0.4370  0.6791
29766SOL    HW195390   2.049   8.136   5.925 -0.9603 -0.7529  0.3126
29766SOL    HW295391   2.007   8.126   5.780  0.6424 -0.6144 -0.1717
29767SOL     OW95392   6.413   0.625  10.687 -0.7162  0.7104 -0.6218
29767SOL    HW195393   6.507   0.614  10.669 -0.8907  1.0800 -1.7909
29767SOL    HW295394   6.405   0.605  10.781  0.3287 -0.5727 -0.7752
29768SOL     OW95395   3.049   7.416   9.077 -0.0042 -0.5734 -0.1132
29768SOL    HW195396   3.045   7.490   9.137 -2.9937 -0.5543 -0.2181
29768SOL    HW295397   3.016   7.342   9.128 -0.8587 -0.9484 -1.1897
29769SOL     OW95398   7.330   5.452   6.691  0.1359  0.6464 -0.1860
29769SOL    HW195399   7.281   5.533   6.708  1.7543  1.7275 -0.4982
29769SOL    HW295400   7.301   5.392   6.760 -0.9894  1.5304  0.1380
29770SOL     OW95401   9.208   0.634   9.027  0.3087  0.1094 -0.0308
29770SOL    HW195402   9.246   0.622   9.114 -0.4316  2.5906  0.7087
29770SOL    HW295403   9.166   0.550   9.008  1.6682 -0.9616  1.3576
29771SOL     OW95404   2.001  10.360   1.581 -0.0235  0.9192 -0.1653
29771SOL    HW195405   1.966  10.386   1.495  0.2648 -0.3612 -0.6869
29771SOL    HW295406   1.923  10.340   1.633 -0.1590 -0.7302 -0.9383
29772SOL     OW95407   7.521   7.537   8.522  0.2253 -0.2431 -0.5921
29772SOL    HW195408   7.463   7.480   8.471 -0.7238 -0.0731  0.2746
29772SOL    HW295409   7.572   7.476   8.577 -1.2125 -0.2700  0.7768
29773SOL     OW95410   3.847   8.193   8.963  0.2659 -0.3170  0.4830
29773SOL    HW195411   3.850   8.168   9.055 -0.5714 -3.2497 -0.1800
29773SOL    HW295412   3.926   8.155   8.925  0.0985  0.0020 -0.2084
29774SOL     OW95413   1.270   8.925   3.068  0.0227 -0.0170  0.0118
29774SOL    HW195414   1.213   8.982   3.121 -1.0230 -1.7963  0.8811
29774SOL    HW295415   1.329   8.885   3.131  0.8778  0.2054 -0.6253
29775SOL     OW95416   0.248   1.470   1.903  0.0218 -0.1654  0.9218
29775SOL    HW195417   0.219   1.387   1.867 -0.1771  0.9467 -1.6814
29775SOL    HW295418   0.167   1.517   1.925  0.1328 -0.6258  2.4773
29776SOL     OW95419   6.820   8.285   6.332 -0.1448  0.4800 -0.1822
29776SOL    HW195420   6.806   8.272   6.239 -0.4383 -0.3250 -0.0354
29776SOL    HW295421   6.808   8.379   6.345  0.9207  0.7578 -1.1113
29777SOL     OW95422  10.089   2.155   6.825  0.3826 -0.7774  0.1848
29777SOL    HW195423  10.168   2.202   6.851 -0.1847  0.2683  0.1075
29777SOL    HW295424  10.114   2.063   6.822  1.2645 -0.5865  1.3678
29778SOL     OW95425   2.348   7.627   2.494  0.5525 -0.5045 -0.6883
29778SOL    HW195426   2.398   7.595   2.569  2.5125  1.8816 -0.8611
29778SOL    HW295427   2.280   7.683   2.533  1.1198  0.1610 -0.6403
29779SOL     OW95428   4.691   1.369   9.954 -0.0452  0.1531  0.1221
29779SOL    HW195429   4.777   1.410   9.957 -0.2850  0.7628 -0.8463
29779SOL    HW295430   4.677   1.335  10.042  1.0655  0.2857  0.3596
29780SOL     OW95431   8.051   6.063   0.123  0.3399 -0.1165  0.2180
29780SOL    HW195432   8.006   6.144   0.147  0.2072  1.1642 -3.6637
29780SOL    HW295433   7.986   5.994   0.137 -0.6049  0.8387  0.6941
29781SOL     OW95434   2.623   8.122   4.178  0.0541 -0.2746 -0.7617
29781SOL    HW195435   2.561   8.067   4.131  1.0303  0.1322 -2.5944
29781SOL    HW295436   2.596   8.212   4.158 -0.5115 -0.0415  0.8454
29782SOL     OW95437   1.452   0.573   9.414 -0.2496  1.0359 -0.5104
29782SOL    HW195438   1.361   0.588   9.391  0.5992  1.3461 -4.2395
29782SOL    HW295439   1.463   0.478   9.408 -0.2032  1.0484 -0.6258
29783SOL     OW95440   1.003   0.797   1.601 -0.2661  0.3617  0.1928
29783SOL    HW195441   0.991   0.708   1.634 -1.4852 -1.6248 -4.7195
29783SOL    HW295442   0.915   0.833   1.592 -0.1414  0.2949 -1.8007
29784SOL     OW95443   5.184   5.511   4.168 -0.6644 -0.6824 -0.6866
29784SOL    HW195444   5.266   5.462   4.161 -1.3682 -2.0246  0.1371
29784SOL    HW295445   5.211   5.603   4.162  0.9359 -1.0801 -0.0556
29785SOL     OW95446   3.511   3.224   1.180 -0.3856 -0.7351  0.2919
29785SOL    HW195447   3.510   3.318   1.198 -0.0516 -0.6020 -0.3293
29785SOL    HW295448   3.604   3.203   1.170 -0.5008 -0.9534 -0.4129
29786SOL     OW95449   1.462   0.579   8.228 -0.1138 -0.7609  0.1133
29786SOL    HW195450   1.394   0.637   8.263 -0.7226 -1.9275  0.9014
29786SOL    HW295451   1.520   0.638   8.179 -1.7683  0.2420 -0.7379
29787SOL     OW95452   4.556   4.908   1.463 -1.0143 -0.1465 -0.1710
29787SOL    HW195453   4.594   4.966   1.528 -1.0639 -0.8680  0.5202
29787SOL    HW295454   4.540   4.964   1.387 -0.2909  0.5567  0.1783
29788SOL     OW95455   4.387   1.059   4.188  0.5832  0.2647  0.3777
29788SOL    HW195456   4.445   0.988   4.216 -0.0385 -0.3284  0.1949
29788SOL    HW295457   4.392   1.123   4.258  1.2778  0.1144  0.4735
29789SOL     OW95458   8.563   7.794   4.739  0.1027 -0.0555  0.5092
29789SOL    HW195459   8.558   7.727   4.671  2.1534 -0.0591  0.3069
29789SOL    HW295460   8.641   7.772   4.789 -0.8058  0.5296  2.2748
29790SOL     OW95461   5.091  10.618   5.401  0.2556 -0.0094  0.7378
29790SOL    HW195462   5.163  10.680   5.402 -0.2551  0.6140 -0.0992
29790SOL    HW295463   5.132  10.532   5.397  0.9753  0.3853 -2.1414
29791SOL     OW95464   9.402   1.393   6.211  0.5427  0.1596  0.0029
29791SOL    HW195465   9.485   1.381   6.258 -0.0895  1.5530  1.5674
29791SOL    HW295466   9.335   1.381   6.277 -0.5186 -0.6096 -1.1761
29792SOL     OW95467   3.580   2.020   8.938  0.4312  0.3184 -0.0105
29792SOL    HW195468   3.485   2.019   8.951  0.5655  2.4596  1.5727
29792SOL    HW295469   3.598   1.937   8.893 -2.1056 -0.3702  0.0540
29793SOL     OW95470   9.596   4.168   5.738  0.2038 -0.6098  0.0651
29793SOL    HW195471   9.675   4.160   5.685  0.1351 -1.9654  0.1429
29793SOL    HW295472   9.627   4.205   5.821  0.5998 -0.2064 -0.2609
29794SOL     OW95473   7.645   9.117   1.353  0.1262  0.2820  0.1059
29794SOL    HW195474   7.577   9.076   1.300  1.2777 -1.5097 -0.0484
29794SOL    HW295475   7.723   9.117   1.298  1.3420 -1.5571  1.6718
29795SOL     OW95476   4.579   4.830   3.971 -0.3050 -0.0444  0.8500
29795SOL    HW195477   4.615   4.754   3.926  0.7061  0.7150  0.3197
29795SOL    HW295478   4.506   4.796   4.023  1.7129 -1.8294  2.6794
29796SOL     OW95479   3.551   6.930   1.436 -0.1469  0.0112  0.5290
29796SOL    HW195480   3.476   6.873   1.453 -0.4608  0.1288 -0.3869
29796SOL    HW295481   3.512   7.016   1.422  0.3380  0.5202  2.1008
29797SOL     OW95482   0.218   0.932   0.697  0.2495  0.9647  0.1566
29797SOL    HW195483   0.180   0.846   0.717  1.9947  0.4915  1.8394
29797SOL    HW295484   0.175   0.992   0.757  1.2988  0.6289  1.2880
29798SOL     OW95485   7.182   4.829   1.123  0.4890 -0.4728  0.8252
29798SOL    HW195486   7.152   4.752   1.171  1.8263 -1.6065 -0.0737
29798SOL    HW295487   7.169   4.805   1.031  1.5820  0.0797  0.5187
29799SOL     OW95488   3.088   2.275   9.646 -0.2690 -0.2838  0.2390
29799SOL    HW195489   3.063   2.216   9.574  0.2296 -2.6207  1.8672
29799SOL    HW295490   3.037   2.354   9.630 -0.6617 -0.9456 -2.3108
29800SOL     OW95491   4.152   2.691   2.996 -0.1417  0.0837  0.1391
29800SOL    HW195492   4.071   2.710   2.948 -1.0404 -3.0791  0.1299
29800SOL    HW295493   4.208   2.648   2.931  1.4989  1.9836  0.2261
29801SOL     OW95494   7.492   9.836   0.022  0.9758  0.3799  0.1234
29801SOL    HW195495   7.559   9.786   0.069  2.6320 -0.2668 -2.6415
29801SOL    HW295496   7.519   9.927   0.030 -0.8676  0.7830  3.3913
29802SOL     OW95497   7.148   0.030   0.576  0.3513  0.3327 -0.6600
29802SOL    HW195498   7.205  -0.045   0.557  0.9062  0.9935 -1.7080
29802SOL    HW295499   7.134   0.071   0.491 -0.5544  1.0004 -0.1997
29803SOL     OW95500   7.970   8.164  10.583  0.0284  0.1862 -0.5702
29803SOL    HW195501   8.023   8.231  10.626  2.2222 -1.5554 -0.3617
29803SOL    HW295502   7.965   8.192  10.492  0.3904  0.9560 -0.3609
29804SOL     OW95503   1.277   7.638   5.408  0.0932  0.2143 -0.1306
29804SOL    HW195504   1.347   7.700   5.386 -0.4142  0.0103 -2.6546
29804SOL    HW295505   1.217   7.688   5.463  0.1985  1.7024 -1.2963
29805SOL     OW95506   7.140   7.505   3.795 -0.1949 -0.2269 -0.2490
29805SOL    HW195507   7.062   7.453   3.811 -0.3004  0.4804  1.8004
29805SOL    HW295508   7.107   7.587   3.759 -0.2108 -0.6465 -1.2281
29806SOL     OW95509   3.901   8.420   6.008 -0.0814  0.2939 -0.1213
29806SOL    HW195510   3.857   8.477   6.071 -0.1148  0.2398 -0.0953
29806SOL    HW295511   3.933   8.346   6.060  2.5195  1.6468  0.3723
29807SOL     OW95512   2.032   3.824  10.746 -0.1437 -0.8461  0.1341
29807SOL    HW195513   2.128   3.830  10.752 -0.1593 -1.4632  1.2059
29807SOL    HW295514   2.003   3.809  10.836 -1.2729 -0.4643 -0.1490
29808SOL     OW95515   1.711  10.570  10.658 -0.7294  0.0134  0.2426
29808SOL    HW195516   1.689  10.512  10.585 -1.2140  0.2199  0.2190
29808SOL    HW295517   1.626  10.600  10.690 -0.4628  1.6259 -0.4715
29809SOL     OW95518   2.460   1.350   3.314 -0.1169  0.2906 -0.4215
29809SOL    HW195519   2.440   1.257   3.329 -1.2205  0.5347 -0.3218
29809SOL    HW295520   2.492   1.381   3.399  0.3207 -0.0032 -0.4721
29810SOL     OW95521   1.252   1.667   6.776 -0.1034  0.0985  0.3747
29810SOL    HW195522   1.184   1.706   6.721 -1.0432  1.2647  2.2587
29810SOL    HW295523   1.215   1.582   6.801 -0.0130 -0.0941 -0.1191
29811SOL     OW95524   9.805   0.747   3.144 -0.4137  0.0815  0.0056
29811SOL    HW195525   9.742   0.753   3.072 -2.0496  3.6636  1.5248
29811SOL    HW295526   9.755   0.767   3.222  1.7168 -1.7602  1.9972
29812SOL     OW95527   2.822   2.233   6.455 -0.0839  0.1244 -0.4891
29812SOL    HW195528   2.798   2.253   6.364  1.3373 -0.2623 -0.9775
29812SOL    HW295529   2.769   2.156   6.477 -1.7229  1.2406 -0.3710
29813SOL     OW95530   7.779   8.096   3.580  0.3385  0.3546  0.1769
29813SOL    HW195531   7.746   8.042   3.508  0.8370  0.5471 -0.2018
29813SOL    HW295532   7.853   8.144   3.542  0.8052  0.2238  0.9072
29814SOL     OW95533   6.650   1.534   2.860 -0.2935 -0.6077  0.4961
29814SOL    HW195534   6.613   1.535   2.949  0.3318 -2.3643  0.8161
29814SOL    HW295535   6.743   1.552   2.873 -0.4803  0.8656 -0.0116
29815SOL     OW95536   4.848   7.528   7.273 -0.1477 -0.3224  0.4089
29815SOL    HW195537   4.914   7.517   7.341  0.6738  0.8878 -0.1486
29815SOL    HW295538   4.890   7.582   7.207 -1.4154 -0.2422 -0.3779
29816SOL     OW95539   7.513   3.443   9.740  1.0879  0.7354 -0.1958
29816SOL    HW195540   7.449   3.394   9.791  1.5672  1.9937  1.7494
29816SOL    HW295541   7.509   3.404   9.653 -0.1171 -1.2338  0.6527
29817SOL     OW95542  10.876   3.926   7.990 -0.4563 -0.0462  0.0705
29817SOL    HW195543  10.906   4.017   7.988  0.5325 -0.2845  1.6978
29817SOL    HW295544  10.795   3.929   8.041 -0.2717 -0.1100  0.3694
29818SOL     OW95545   2.625   0.689   2.129  0.1173 -0.4336 -0.1467
29818SOL    HW195546   2.581   0.608   2.104 -0.5976 -0.1175  0.0593
29818SOL    HW295547   2.683   0.709   2.055  0.6996 -1.4021  0.0312
29819SOL     OW95548   1.963   0.045   4.356  0.1748 -0.3021  0.3371
29819SOL    HW195549   1.991  -0.003   4.278  1.8225  3.2127 -1.4880
29819SOL    HW295550   1.898  -0.012   4.397  0.4193 -3.0741 -2.6569
29820SOL     OW95551   3.086   2.426   1.788  0.6577  0.7978 -1.0983
29820SOL    HW195552   3.059   2.515   1.813 -0.4836  0.7943 -2.1931
29820SOL    HW295553   3.172   2.415   1.828 -1.3566  0.2906  3.9258
29821SOL     OW95554   0.257   7.394   3.854  0.3907  0.4708 -0.3260
29821SOL    HW195555   0.269   7.472   3.800 -3.0807  0.6052 -1.1352
29821SOL    HW295556   0.302   7.325   3.807  0.4609  1.3096 -1.5290
29822SOL     OW95557   4.325   8.259   1.641  0.4670  0.6999 -0.1516
29822SOL    HW195558   4.273   8.338   1.658  0.1206  0.2928  0.7245
29822SOL    HW295559   4.295   8.230   1.555 -0.1413  0.9594 -0.0364
29823SOL     OW95560   7.474   2.377   5.063  0.2102  0.5027 -0.3593
29823SOL    HW195561   7.459   2.381   4.969  1.0827 -0.8761 -0.5983
29823SOL    HW295562   7.543   2.441   5.079 -0.0453  0.8464 -0.6344
29824SOL     OW95563   3.604   1.641   2.771  0.2171  0.0186  0.1019
29824SOL    HW195564   3.681   1.585   2.774 -0.0620 -0.3568  0.4291
29824SOL    HW295565   3.567   1.627   2.684  0.0253 -0.4893  0.2568
29825SOL     OW95566   3.473   1.699   2.514 -0.4387  0.1395  0.3048
29825SOL    HW195567   3.460   1.794   2.507 -1.4142  0.1316  1.4890
29825SOL    HW295568   3.390   1.662   2.485  0.3350 -0.4230 -1.2482
29826SOL     OW95569   0.173   1.034   2.848  0.1396 -0.1491 -0.4376
29826SOL    HW195570   0.215   1.016   2.932 -1.4579 -0.8610  0.2506
29826SOL    HW295571   0.245   1.035   2.784  1.2338 -0.7794  0.7494
29827SOL     OW95572   7.470   2.384   0.172 -0.0326  0.6264 -0.2886
29827SOL    HW195573   7.494   2.455   0.231  2.8746  0.8111 -1.5537
29827SOL    HW295574   7.471   2.423   0.085 -0.3800 -0.5251 -0.8378
29828SOL     OW95575   7.918   6.637   6.935  0.0512 -0.1985  0.1779
29828SOL    HW195576   7.875   6.639   6.849  0.4874  1.1269 -0.0409
29828SOL    HW295577   7.873   6.706   6.985 -0.6940 -1.4354  1.2889
29829SOL     OW95578   1.903   3.386   5.179 -0.4502 -0.1981  0.1907
29829SOL    HW195579   1.895   3.432   5.095  1.3072  0.6847  0.4438
29829SOL    HW295580   1.814   3.377   5.211 -0.9703  2.0239 -0.4422
29830SOL     OW95581   3.105   4.421   8.023  0.0930 -0.0862 -0.5698
29830SOL    HW195582   3.169   4.354   7.996  0.7614 -0.4300  1.6347
29830SOL    HW295583   3.024   4.372   8.038  0.8823 -0.7535  2.1993
29831SOL     OW95584   2.136   9.440   7.807  0.2661 -0.0258  0.5123
29831SOL    HW195585   2.071   9.414   7.872 -0.8206 -1.2444 -0.9769
29831SOL    HW295586   2.103   9.524   7.774 -1.9923 -1.7006 -1.8880
29832SOL     OW95587   1.508   0.805   9.076  0.1313 -0.2787 -0.0126
29832SOL    HW195588   1.561   0.776   9.002 -0.2592  2.6445 -1.5904
29832SOL    HW295589   1.421   0.770   9.058  0.0870  0.2362 -0.8523
29833SOL     OW95590   5.064   8.477   6.265  0.4575 -0.0738  0.0590
29833SOL    HW195591   5.126   8.433   6.207 -0.7132  0.1930 -1.4621
29833SOL    HW295592   5.034   8.409   6.325  2.4107 -0.1350  1.0226
29834SOL     OW95593   7.611   9.950   3.625  0.2055  0.6138  0.2886
29834SOL    HW195594   7.662   9.894   3.566 -0.6394  0.5801 -0.4378
29834SOL    HW295595   7.629   9.916   3.712 -0.3488 -0.8542 -0.1417
29835SOL     OW95596   6.042   6.213   6.181 -0.0274 -0.2542  0.3307
29835SOL    HW195597   5.957   6.171   6.172  0.4158 -0.9805 -0.6600
29835SOL    HW295598   6.103   6.153   6.137  1.1697 -0.2868  1.9213
29836SOL     OW95599   1.459  10.379   4.793  0.3135 -0.2545 -0.3149
29836SOL    HW195600   1.538  10.419   4.828 -0.2383  0.2216  0.4206
29836SOL    HW295601   1.488  10.331   4.715  1.6786 -1.7132  1.0193
29837SOL     OW95602   7.164   4.320   7.496 -1.0458  0.1512  0.3046
29837SOL    HW195603   7.090   4.317   7.557 -1.0886  2.2709  0.4280
29837SOL    HW295604   7.132   4.276   7.417 -1.5976 -1.0609  1.1801
29838SOL     OW95605   5.243   8.257   3.174 -0.2144 -0.3341 -0.4331
29838SOL    HW195606   5.185   8.182   3.161 -0.1843 -0.2935 -0.8296
29838SOL    HW295607   5.230   8.310   3.095 -0.1937  0.0464 -0.1817
29839SOL     OW95608   1.445   1.067   9.042  0.4363  0.2314 -0.0269
29839SOL    HW195609   1.498   0.988   9.047 -0.3654 -0.2456  1.4953
29839SOL    HW295610   1.372   1.043   8.985  0.6841  0.1942 -0.3343
29840SOL     OW95611   7.528   7.654   1.353 -0.5349 -0.1786  0.1442
29840SOL    HW195612   7.536   7.567   1.312 -0.7365 -0.9035  1.5722
29840SOL    HW295613   7.609   7.663   1.404 -0.2503  0.7362 -0.4629
29841SOL     OW95614   4.184   6.176   4.985 -0.1494  0.2456  0.7542
29841SOL    HW195615   4.106   6.123   5.002 -0.4893  0.8371  1.0468
29841SOL    HW295616   4.161   6.229   4.909 -0.6251  1.5923  1.8171
29842SOL     OW95617   4.396   1.710   5.327  0.3062  0.1095  0.1652
29842SOL    HW195618   4.351   1.792   5.348 -0.2734  0.2844 -1.5833
29842SOL    HW295619   4.482   1.737   5.295  0.3909 -0.0057  0.2953
29843SOL     OW95620   3.732   6.884   1.621  0.2171 -0.2281  0.4978
29843SOL    HW195621   3.802   6.922   1.568 -0.2909 -0.2115 -0.1803
29843SOL    HW295622   3.651   6.914   1.578 -0.1946 -0.6902  0.9456
29844SOL     OW95623   6.528  10.673   3.941  0.6357 -0.0448 -0.0948
29844SOL    HW195624   6.531  10.594   3.887 -0.1880  0.8109 -1.4735
29844SOL    HW295625   6.472  10.651   4.015 -0.9083 -0.3040 -1.2998
29845SOL     OW95626   7.087   0.060   4.547  0.1703  0.5721 -0.2465
29845SOL    HW195627   7.025  -0.011   4.565  0.7350 -0.2831 -1.5170
29845SOL    HW295628   7.091   0.065   4.452  1.0228  1.5478 -0.1788
29846SOL     OW95629   9.991   1.010   7.772 -0.6055 -0.3515  0.3988
29846SOL    HW195630   9.903   0.984   7.797 -1.1086  0.5105 -0.4190
29846SOL    HW295631  10.013   1.082   7.831 -0.8324  0.0594 -0.0084
29847SOL     OW95632   3.737  10.238   3.576  0.1927 -0.1091  0.7837
29847SOL    HW195633   3.694  10.243   3.661 -2.6833  0.2078 -0.5742
29847SOL    HW295634   3.665  10.238   3.512  2.2307  0.3006 -1.6902
29848SOL     OW95635   5.613   8.670   0.241  0.0427  0.3789 -0.1327
29848SOL    HW195636   5.540   8.666   0.179  0.8504  2.8914 -1.4048
29848SOL    HW295637   5.662   8.589   0.226 -0.6260  0.2238 -1.7105
29849SOL     OW95638   0.270   5.668   8.910  0.3515 -0.4608 -0.6788
29849SOL    HW195639   0.187   5.684   8.865  0.3789  1.3971 -0.1350
29849SOL    HW295640   0.245   5.626   8.992 -0.0945  0.3065 -0.4093
29850SOL     OW95641   2.119   3.573   2.896 -0.2017  0.2855  0.5051
29850SOL    HW195642   2.173   3.652   2.902  0.5543  0.1523 -2.7091
29850SOL    HW295643   2.043   3.600   2.845 -1.5393 -0.3769  2.0488
29851SOL     OW95644   1.710   0.864  10.892 -0.2415  0.0680  0.2540
29851SOL    HW195645   1.703   0.944  10.840 -0.7534 -0.4032 -0.4260
29851SOL    HW295646   1.659   0.800  10.843  1.3368 -1.0681  0.0287
29852SOL     OW95647   2.263   5.168   4.592  0.0216 -0.3100 -0.1522
29852SOL    HW195648   2.225   5.212   4.516 -0.8187 -1.5626 -0.4731
29852SOL    HW295649   2.189   5.148   4.648  0.6265  0.5899  1.0421
29853SOL     OW95650   7.022   4.390   1.522  0.5567  0.2557  0.2121
29853SOL    HW195651   7.037   4.326   1.452  1.1868 -0.8811  1.3495
29853SOL    HW295652   7.076   4.358   1.595 -0.7978  0.8999  1.5288
29854SOL     OW95653   5.060   7.466   8.067  0.0726  0.2179  0.1910
29854SOL    HW195654   5.125   7.397   8.081  0.5749  0.5853 -0.2741
29854SOL    HW295655   5.069   7.488   7.974 -0.2548  0.7307  0.2801
29855SOL     OW95656   6.564   8.166   4.982  0.1013  0.5999  0.0969
29855SOL    HW195657   6.525   8.241   5.027 -0.3860  0.6157 -0.3506
29855SOL    HW295658   6.490   8.112   4.956  0.4212  0.2357 -0.0759
29856SOL     OW95659   6.210   1.799   4.259  0.4234  0.4184 -0.5578
29856SOL    HW195660   6.181   1.712   4.231  0.1600  0.1302  0.5248
29856SOL    HW295661   6.197   1.855   4.183  1.1053 -0.5946 -1.4415
29857SOL     OW95662   7.001   4.103   2.036 -0.3082 -0.1202  0.0028
29857SOL    HW195663   7.085   4.058   2.053 -0.8927 -1.1445  0.3105
29857SOL    HW295664   6.989   4.160   2.112 -0.4302 -0.8374  0.5349
29858SOL     OW95665   3.176   9.903   6.631  0.1806 -0.3760  0.3388
29858SOL    HW195666   3.203   9.828   6.579  0.9263 -0.1484  0.3934
29858SOL    HW295667   3.201   9.881   6.721  1.4730  0.4072  0.2007
29859SOL     OW95668  10.111   7.283   5.697 -0.4739  0.5274 -1.0171
29859SOL    HW195669  10.183   7.221   5.693 -1.0472 -0.1576 -0.8840
29859SOL    HW295670  10.140   7.350   5.758 -0.1635 -0.0235 -0.5546
29860SOL     OW95671   0.955   0.723   2.326 -0.3522 -0.1123 -0.6319
29860SOL    HW195672   1.010   0.738   2.249  0.7311 -1.6785 -0.2192
29860SOL    HW295673   0.878   0.677   2.292  0.7072 -1.9429 -0.6699
29861SOL     OW95674   2.006   2.317   1.322 -0.4870 -0.1033  0.3378
29861SOL    HW195675   1.999   2.264   1.402 -0.6323 -0.4911  0.0736
29861SOL    HW295676   1.959   2.397   1.342 -1.8990 -0.8401  0.1098
29862SOL     OW95677   6.044  10.129   1.081  0.0047  0.0600  0.0839
29862SOL    HW195678   6.030  10.162   0.993  2.9851 -0.2348 -0.6205
29862SOL    HW295679   6.110  10.187   1.119  0.4670 -1.1485  1.2468
29863SOL     OW95680   5.541   3.086   7.965  0.0325 -0.6603 -0.0686
29863SOL    HW195681   5.578   3.013   7.916 -0.5727 -1.0531  0.0484
29863SOL    HW295682   5.468   3.117   7.911  1.5704  1.2650 -1.1864
29864SOL     OW95683   0.348   7.597   8.500  0.2957  0.4434 -0.2488
29864SOL    HW195684   0.420   7.536   8.512  0.8719  1.2835  0.7101
29864SOL    HW295685   0.284   7.548   8.447  0.3109 -1.3338  1.2696
29865SOL     OW95686   3.785   8.635   7.236  0.1318 -0.4743  0.9248
29865SOL    HW195687   3.821   8.553   7.271  1.7367 -0.2626 -0.1175
29865SOL    HW295688   3.860   8.694   7.231 -0.5286  0.2949 -0.5424
29866SOL     OW95689   9.503  10.876   4.515  0.0754 -0.1069  0.6728
29866SOL    HW195690   9.479  10.789   4.483  2.4407 -1.0283  1.2051
29866SOL    HW295691   9.522  10.862   4.608 -1.6669  1.4756  1.3255
29867SOL     OW95692   2.808   8.691   6.157  0.1342 -0.4134 -0.0755
29867SOL    HW195693   2.758   8.697   6.076  0.5809 -1.1797 -0.4254
29867SOL    HW295694   2.897   8.715   6.131  0.1456 -0.0102  0.3329
29868SOL     OW95695   2.503   6.643   6.730  0.2209  0.0186 -0.4634
29868SOL    HW195696   2.595   6.670   6.736  0.2674  0.4670 -2.4359
29868SOL    HW295697   2.507   6.547   6.727  0.3713 -0.1377  2.1086
29869SOL     OW95698   3.061   5.947   3.253  0.0309  0.1437 -0.0494
29869SOL    HW195699   3.074   6.032   3.295  0.7271  0.4990 -0.9359
29869SOL    HW295700   2.988   5.961   3.192  1.2312  0.6270 -1.4499
29870SOL     OW95701   0.605   7.431   7.664  0.2062 -0.1278  0.3210
29870SOL    HW195702   0.572   7.357   7.614 -2.3893  0.7602  0.5552
29870SOL    HW295703   0.652   7.391   7.737  1.0827 -1.4679 -0.9207
29871SOL     OW95704   9.542   8.416   4.330  1.0118  0.0547 -0.1173
29871SOL    HW195705   9.609   8.413   4.398  0.8641 -1.4377  0.0112
29871SOL    HW295706   9.495   8.332   4.339 -1.9675  1.6650  0.8845
29872SOL     OW95707   4.460   2.463   0.821  0.6708 -0.9007 -0.0188
29872SOL    HW195708   4.532   2.438   0.763 -0.3925 -1.2409 -1.2436
29872SOL    HW295709   4.482   2.552   0.850  1.9814 -1.3085  0.3159
29873SOL     OW95710   5.011   4.757   7.515  0.2040 -0.0933  0.2259
29873SOL    HW195711   5.085   4.756   7.454 -0.4065 -0.1245 -0.5268
29873SOL    HW295712   5.011   4.669   7.553 -0.6990 -0.8143 -1.3339
29874SOL     OW95713   8.267   8.634   4.603 -0.2179  0.4649  0.0877
29874SOL    HW195714   8.261   8.602   4.513 -1.1775  2.4031 -0.5933
29874SOL    HW295715   8.181   8.616   4.641  0.1223 -0.1718  0.5787
29875SOL     OW95716   1.798   1.260   2.039  0.6040 -0.7255  0.1079
29875SOL    HW195717   1.811   1.302   2.124 -2.3888 -1.1278  0.8738
29875SOL    HW295718   1.794   1.333   1.977  0.0279 -0.2022  0.7473
29876SOL     OW95719   0.145   2.073   2.991 -0.8514 -1.1309 -0.0305
29876SOL    HW195720   0.053   2.047   2.998 -1.2595  0.4627  1.3295
29876SOL    HW295721   0.158   2.133   3.064  1.4891 -1.8662  0.2387
29877SOL     OW95722   9.454   2.697   4.189  0.3561  0.0019  0.2577
29877SOL    HW195723   9.492   2.642   4.120  1.0652  1.1283 -0.2768
29877SOL    HW295724   9.529   2.722   4.243  0.0382  0.4352  0.5017
29878SOL     OW95725   8.888   3.011   9.592 -0.0389  0.1934 -0.0463
29878SOL    HW195726   8.955   3.047   9.650 -0.6706  0.7718  0.3415
29878SOL    HW295727   8.807   3.055   9.619 -0.7129 -1.0177 -0.0174
29879SOL     OW95728   0.989   9.896   1.632  0.2209 -0.0065 -0.0375
29879SOL    HW195729   1.074   9.912   1.672  1.4353 -0.0689 -2.4318
29879SOL    HW295730   0.972   9.803   1.646  1.8973 -0.6572 -1.8237
29880SOL     OW95731   0.526   9.003   3.142  0.0841 -0.7154 -0.2205
29880SOL    HW195732   0.453   8.942   3.150 -0.5264  0.1363  1.0152
29880SOL    HW295733   0.604   8.947   3.140 -0.5530 -1.6066 -1.0504
29881SOL     OW95734   8.110   3.721   1.763  0.5671  0.0151  0.1586
29881SOL    HW195735   8.085   3.707   1.855  0.5287 -0.2554  0.1070
29881SOL    HW295736   8.080   3.810   1.744  2.0334  0.7162  0.9001
29882SOL     OW95737   9.012   0.726   3.407 -0.0649  0.1795 -0.0247
29882SOL    HW195738   9.017   0.632   3.424 -0.4119  0.5297  2.2862
29882SOL    HW295739   9.095   0.761   3.439 -0.5988  0.8574  0.6493
29883SOL     OW95740  10.738   6.100   9.981  0.0339 -0.3133 -0.2500
29883SOL    HW195741  10.777   6.047   9.911 -0.0275 -1.6980  0.7147
29883SOL    HW295742  10.674   6.042  10.021  0.2115  0.3745  1.0828
29884SOL     OW95743   8.733   8.495   2.695 -0.3859 -0.1554 -0.6374
29884SOL    HW195744   8.713   8.405   2.722  1.2867  0.0641  1.5655
29884SOL    HW295745   8.673   8.511   2.622 -2.3233 -2.2577  0.3502
29885SOL     OW95746   6.638   6.113   0.394  0.3906 -0.2234 -0.3143
29885SOL    HW195747   6.718   6.081   0.352 -0.8398 -1.2619 -1.9659
29885SOL    HW295748   6.581   6.138   0.322 -1.8076 -2.0014  0.6831
29886SOL     OW95749   2.096   3.656   9.297  0.0763  0.0520 -0.5203
29886SOL    HW195750   2.089   3.652   9.202 -1.1322  1.3381 -0.5084
29886SOL    HW295751   2.152   3.731   9.314  0.4469 -0.2893 -0.2104
29887SOL     OW95752   5.480   1.385   7.820 -0.1280 -0.5129  0.0498
29887SOL    HW195753   5.449   1.468   7.784 -1.1018  0.1486  2.2429
29887SOL    HW295754   5.543   1.410   7.887  1.0376 -1.6571 -0.5786
29888SOL     OW95755   7.365   9.002   8.163  0.5129 -0.2757  0.2317
29888SOL    HW195756   7.449   9.015   8.206  1.4920 -1.8587 -1.0884
29888SOL    HW295757   7.353   9.080   8.109  0.4495  0.5829  1.4583
29889SOL     OW95758  10.749   6.604   8.089 -0.4073  0.0572  0.3348
29889SOL    HW195759  10.794   6.533   8.043  2.3543  2.0456 -0.3212
29889SOL    HW295760  10.676   6.627   8.031  0.1984 -0.5846 -0.7283
29890SOL     OW95761   1.082   1.768   7.185 -0.4476 -0.1439 -0.0393
29890SOL    HW195762   1.067   1.692   7.241 -0.3242  0.8716  1.4221
29890SOL    HW295763   1.010   1.766   7.122 -1.5150 -0.4497  1.1516
29891SOL     OW95764   8.086   1.038   6.456 -0.5288 -0.0210 -0.1677
29891SOL    HW195765   8.112   1.025   6.365 -0.5968  0.3329 -0.2398
29891SOL    HW295766   8.160   1.007   6.508  0.2394  1.3909 -0.3762
29892SOL     OW95767   4.186   0.240   3.604  0.3351 -0.1907  0.3360
29892SOL    HW195768   4.156   0.155   3.636 -2.0348  0.6172  0.4953
29892SOL    HW295769   4.159   0.242   3.512 -1.6302  1.1273  0.8597
29893SOL     OW95770   0.074   3.084   2.841 -0.0113  0.5174  0.1229
29893SOL    HW195771   0.168   3.085   2.825  0.0025  0.4099  0.1882
29893SOL    HW295772   0.036   3.051   2.760 -0.2295  3.1189 -0.9284
29894SOL     OW95773   2.278   8.912   3.168 -0.1213  0.0910  0.3764
29894SOL    HW195774   2.362   8.954   3.182  0.2186 -0.5380  0.2792
29894SOL    HW295775   2.268   8.911   3.073  0.3292 -0.9067  0.3301
29895SOL     OW95776   1.767   3.017   4.329 -0.0872 -0.5978 -0.2458
29895SOL    HW195777   1.824   3.092   4.313  0.4877 -0.9545  0.0857
29895SOL    HW295778   1.776   2.999   4.423 -2.3162  0.5847  0.2647
29896SOL     OW95779   2.825   6.629   3.516 -0.1537 -0.6121  0.0439
29896SOL    HW195780   2.813   6.557   3.454 -3.6136 -0.6095  0.5009
29896SOL    HW295781   2.840   6.706   3.461 -2.4273 -0.7357 -0.8723
29897SOL     OW95782   0.452   1.730   6.475 -0.3275  0.1697  0.0638
29897SOL    HW195783   0.524   1.779   6.435 -0.4811  0.1230 -0.2762
29897SOL    HW295784   0.428   1.781   6.552 -0.3217  0.4971 -0.1474
29898SOL     OW95785   1.130  10.711   6.878  0.1339  0.4017  0.0594
29898SOL    HW195786   1.137  10.681   6.787 -0.7332 -0.1645  0.1623
29898SOL    HW295787   1.220  10.726   6.906  0.7193 -2.6557  0.1688
29899SOL     OW95788   1.073   2.296  10.167 -0.5078  0.2900 -0.2802
29899SOL    HW195789   1.050   2.246  10.089 -0.3305  0.9632 -0.7681
29899SOL    HW295790   1.010   2.267  10.233  0.1415 -1.2371 -0.2738
29900SOL     OW95791   0.438  10.587   2.980 -0.1192  0.0826  0.1658
29900SOL    HW195792   0.488  10.509   3.005 -0.6466 -0.2909  0.0729
29900SOL    HW295793   0.503  10.647   2.945  0.3267 -0.2266  0.4564
29901SOL     OW95794   8.269   5.443   0.141  0.1338  0.0037 -0.9897
29901SOL    HW195795   8.267   5.427   0.047 -0.6728 -1.2943 -0.7746
29901SOL    HW295796   8.348   5.397   0.171 -0.1968 -0.5156 -0.8942
29902SOL     OW95797  10.316  10.245   3.491 -0.2456 -0.2769  0.0652
29902SOL    HW195798  10.321  10.333   3.527 -1.1495  0.0500 -0.5781
29902SOL    HW295799  10.383  10.242   3.423 -0.6693  0.1406 -0.3728
29903SOL     OW95800   7.273   4.321   9.585 -0.0347 -0.1446  0.3561
29903SOL    HW195801   7.252   4.403   9.540  1.4753  0.9059  1.4676
29903SOL    HW295802   7.202   4.262   9.560 -0.8559  1.3005 -0.9599
29904SOL     OW95803  10.225   8.033   7.505 -0.1967  0.1557  0.1163
29904SOL    HW195804  10.217   8.077   7.589 -1.2774  0.1033  0.0647
29904SOL    HW295805  10.303   7.979   7.513 -0.9093 -0.7193  1.4917
29905SOL     OW95806   6.052   4.042   4.017 -0.2208  0.0749  0.2212
29905SOL    HW195807   5.985   3.975   4.001  0.9335 -1.2327  0.6485
29905SOL    HW295808   6.056   4.049   4.112 -0.7836  1.2542  0.1713
29906SOL     OW95809   8.728   0.009   8.348  0.1692 -0.6675 -0.5895
29906SOL    HW195810   8.758  -0.004   8.438 -0.6834  0.8117 -0.0569
29906SOL    HW295811   8.660  -0.058   8.335  0.1831 -0.7829 -0.0848
29907SOL     OW95812   5.138   3.391  10.705 -0.0239  0.0069 -0.4382
29907SOL    HW195813   5.191   3.381  10.626  0.7846  2.3383 -0.2602
29907SOL    HW295814   5.160   3.478  10.738 -2.2335  0.1181  0.9508
29908SOL     OW95815   1.807   7.459   2.009 -0.3975 -0.1353  0.0523
29908SOL    HW195816   1.711   7.464   2.007 -0.3526  0.6856 -1.1572
29908SOL    HW295817   1.835   7.510   1.933  1.0419  0.4060  0.9104
29909SOL     OW95818   2.571   4.792   0.191  0.0417  0.2015  0.0458
29909SOL    HW195819   2.650   4.820   0.236 -0.5071 -2.0822  2.6773
29909SOL    HW295820   2.594   4.707   0.152 -1.2239 -0.8167  1.4188
29910SOL     OW95821   8.319   8.297  10.793 -0.1731 -0.2186  0.0873
29910SOL    HW195822   8.307   8.386  10.762 -0.8003  0.4388  2.0673
29910SOL    HW295823   8.289   8.299  10.884 -2.2581 -2.9163 -0.3806
29911SOL     OW95824   9.573  10.331   6.684  0.2545  0.0552 -0.3651
29911SOL    HW195825   9.664  10.344   6.659 -0.4183  1.4907 -2.3467
29911SOL    HW295826   9.524  10.395   6.633 -1.7960  0.0374  1.3956
29912SOL     OW95827   8.022   1.765   9.810 -0.5750  0.1448  0.0377
29912SOL    HW195828   8.030   1.855   9.841  1.8888 -0.3989  1.2536
29912SOL    HW295829   7.989   1.716   9.885 -2.0229  0.0011 -0.6550
29913SOL     OW95830   0.924   9.062   2.946  0.8021 -0.6145 -0.1297
29913SOL    HW195831   0.877   9.139   2.913 -1.9299 -0.7701  2.8471
29913SOL    HW295832   0.867   8.989   2.924  0.6126 -1.0844  1.7862
29914SOL     OW95833   8.625  10.376   6.146 -0.0802 -0.0607 -0.3726
29914SOL    HW195834   8.603  10.371   6.053 -2.0922 -1.1646  0.1122
29914SOL    HW295835   8.685  10.302   6.160 -0.7637 -0.6618 -0.5568
29915SOL     OW95836   0.592  10.736   4.099 -0.3786 -0.0683 -0.3746
29915SOL    HW195837   0.543  10.729   4.017  1.0833  0.3055 -1.3259
29915SOL    HW295838   0.678  10.769   4.072  0.6597 -1.4411  1.1286
29916SOL     OW95839   2.772   2.338   3.895  0.1631  0.8457 -0.1731
29916SOL    HW195840   2.800   2.327   3.804  0.1156  1.3563 -0.2538
29916SOL    HW295841   2.853   2.340   3.945  0.1440 -1.7467  0.0926
29917SOL     OW95842   9.955   1.130   7.505  0.2770  0.1771 -0.3345
29917SOL    HW195843   9.905   1.211   7.511  0.2382  0.0518  1.3512
29917SOL    HW295844   9.990   1.116   7.593  0.8380 -1.2833 -0.7570
29918SOL     OW95845   5.749   6.482   2.170  0.3271 -0.8121 -0.2825
29918SOL    HW195846   5.803   6.548   2.212  0.1038 -2.4085  2.8132
29918SOL    HW295847   5.808   6.408   2.154 -0.0309 -0.9543 -1.0214
29919SOL     OW95848   8.623   1.323   6.246 -0.4785 -0.5072 -0.0408
29919SOL    HW195849   8.554   1.257   6.255  0.0036 -0.8993  0.9471
29919SOL    HW295850   8.693   1.279   6.198 -0.0156 -0.8610  0.9158
29920SOL     OW95851   5.491   0.042   4.578 -0.3061  0.1701  0.2741
29920SOL    HW195852   5.435   0.097   4.523 -0.6029  0.6673  1.0558
29920SOL    HW295853   5.478   0.075   4.667  0.5480 -0.2928  0.5879
29921SOL     OW95854   0.447   4.433  10.798  0.6875  0.0583  0.2362
29921SOL    HW195855   0.465   4.383  10.879  0.7551 -1.5032 -0.6955
29921SOL    HW295856   0.531   4.474  10.777  0.5180  0.9864  1.2608
29922SOL     OW95857   0.083   0.675   2.303  0.0428  0.1602 -0.0932
29922SOL    HW195858  -0.002   0.663   2.262  0.3056 -1.4170 -0.2458
29922SOL    HW295859   0.134   0.724   2.239  0.0670 -1.2244 -1.1622
29923SOL     OW95860   2.114   1.954   2.252  0.3528  0.3589 -0.3085
29923SOL    HW195861   2.089   1.891   2.184  2.0401  0.9522 -1.5607
29923SOL    HW295862   2.181   1.908   2.303 -1.0443 -0.1521  1.1225
29924SOL     OW95863   3.568   4.414   1.431  0.0786  0.6349 -0.2439
29924SOL    HW195864   3.511   4.353   1.477 -0.6102  1.1454 -0.3922
29924SOL    HW295865   3.599   4.366   1.354 -1.8397  0.9932 -1.3083
29925SOL     OW95866   6.248   1.890   5.948  0.0645 -0.1145 -0.1210
29925SOL    HW195867   6.258   1.841   6.029 -0.7855 -0.5061 -0.2454
29925SOL    HW295868   6.165   1.937   5.958  0.3507  0.4651 -0.4351
29926SOL     OW95869   2.349   6.692   1.331 -0.0730  0.1769  0.0112
29926SOL    HW195870   2.305   6.677   1.415 -1.0319  1.1853 -0.2989
29926SOL    HW295871   2.370   6.604   1.299 -1.6971 -0.3170  0.2472
29927SOL     OW95872   9.265   7.411   5.138 -0.2486  0.0608 -0.3387
29927SOL    HW195873   9.289   7.349   5.207  1.3550  0.6945 -0.2913
29927SOL    HW295874   9.242   7.492   5.184 -0.6941  0.0290 -0.4911
29928SOL     OW95875   1.294   6.709   9.966  0.0053 -0.0967  0.4375
29928SOL    HW195876   1.217   6.744  10.011 -0.4775  0.8814 -1.0596
29928SOL    HW295877   1.364   6.715  10.031 -0.7163  0.9987  1.1606
29929SOL     OW95878   5.783  10.660   6.003  0.2094 -0.0988 -0.5546
29929SOL    HW195879   5.706  10.716   5.991  1.1546  1.5179  0.4984
29929SOL    HW295880   5.763  10.608   6.081  1.3503  2.6535  1.7696
29930SOL     OW95881   4.837   9.124   3.741 -0.4455 -0.6952 -0.2106
29930SOL    HW195882   4.906   9.067   3.708  0.8881  0.7041  0.0280
29930SOL    HW295883   4.866   9.147   3.830 -0.3543  1.2028 -0.6893
29931SOL     OW95884   0.556  10.071   1.140 -0.2875 -0.2543 -0.0385
29931SOL    HW195885   0.470  10.080   1.181 -1.1389 -0.1526 -1.7490
29931SOL    HW295886   0.554   9.985   1.098  0.2307 -0.0389 -0.5239
29932SOL     OW95887   5.242  10.894   9.851 -0.8417  0.2470  0.2564
29932SOL    HW195888   5.310  10.956   9.878 -0.2752 -0.7918  1.3037
29932SOL    HW295889   5.161  10.944   9.855 -0.1801  1.5241 -1.0485
29933SOL     OW95890   4.180   8.649   0.937  0.0955 -0.6058  0.1882
29933SOL    HW195891   4.247   8.596   0.893  0.5319  2.4439 -3.2702
29933SOL    HW295892   4.230   8.716   0.983 -0.4283  1.1114 -1.6183
29934SOL     OW95893   3.139   6.257   1.910  0.5581 -0.4290 -0.1313
29934SOL    HW195894   3.146   6.218   1.998 -0.4705 -0.7287 -0.1667
29934SOL    HW295895   3.058   6.220   1.874 -0.6758  1.9976 -0.0380
29935SOL     OW95896  10.304   5.240   7.965 -0.4331 -0.0827  0.2317
29935SOL    HW195897  10.230   5.182   7.982 -1.3484  0.1660 -2.4166
29935SOL    HW295898  10.264   5.319   7.930  0.8967  1.6730  2.4012
29936SOL     OW95899   1.623  10.465  10.395  0.3667  0.1869  0.2081
29936SOL    HW195900   1.529  10.452  10.381  0.3205  2.8106 -3.2918
29936SOL    HW295901   1.664  10.411  10.328  1.6132 -2.2576  2.7536
29937SOL     OW95902   0.223   9.116   1.768 -0.1878  0.0909  0.1086
29937SOL    HW195903   0.269   9.045   1.723  1.7062  1.5106 -0.3218
29937SOL    HW295904   0.231   9.094   1.861 -1.1924 -1.1407 -0.0738
29938SOL     OW95905   4.274   2.844   2.688 -0.7899  0.3315 -0.6464
29938SOL    HW195906   4.284   2.778   2.758 -3.1193  0.0572 -0.5079
29938SOL    HW295907   4.304   2.799   2.609 -1.2008 -0.4925 -0.3469
29939SOL     OW95908  10.389   3.439   4.486  0.1904  0.1497  0.7401
29939SOL    HW195909  10.313   3.395   4.526 -0.5262  0.6590 -0.0197
29939SOL    HW295910  10.407   3.388   4.407  2.0678 -1.2922  2.0168
29940SOL     OW95911   5.784   3.318   1.932  0.2664  0.0492 -0.3377
29940SOL    HW195912   5.784   3.223   1.945 -0.5425  0.3309  2.1136
29940SOL    HW295913   5.866   3.347   1.970  0.3289  0.3900 -0.7278
29941SOL     OW95914   0.983   4.001  10.103  0.0213  0.9424  0.2172
29941SOL    HW195915   0.898   3.996  10.061  0.7033 -2.6807 -1.0734
29941SOL    HW295916   1.030   4.069  10.054 -1.3467  1.3788 -0.5361
29942SOL     OW95917   1.190   0.634   3.754  0.4410 -0.1900  0.1520
29942SOL    HW195918   1.221   0.552   3.793  0.8217 -0.3125 -0.4035
29942SOL    HW295919   1.096   0.635   3.774  0.4902 -0.6074  0.4335
29943SOL     OW95920   9.152   8.788   4.964  0.2289  0.0123  0.4578
29943SOL    HW195921   9.163   8.801   4.870 -1.0047  0.4393  0.3518
29943SOL    HW295922   9.091   8.857   4.991 -1.3534 -1.5545  1.1011
29944SOL     OW95923   8.530   8.282   2.737  0.0342 -0.5105  0.3506
29944SOL    HW195924   8.451   8.288   2.683 -0.6864  0.0078  1.4169
29944SOL    HW295925   8.500   8.307   2.825  1.5555  0.4518  0.6168
29945SOL     OW95926   7.407   4.414   9.026 -0.0851  0.2664 -0.3911
29945SOL    HW195927   7.434   4.393   9.115  1.2152  0.7559 -0.6365
29945SOL    HW295928   7.314   4.395   9.023 -0.1233  0.1545  1.0448
29946SOL     OW95929   5.165   3.792   5.478 -0.1189 -0.6517 -0.0012
29946SOL    HW195930   5.109   3.821   5.407 -2.4332 -1.3991  1.3886
29946SOL    HW295931   5.249   3.834   5.462 -1.5326  1.8722 -1.3128
29947SOL     OW95932  10.566   4.432   9.742 -0.2916  0.2387  0.2603
29947SOL    HW195933  10.596   4.473   9.660 -1.8209  0.6149 -0.1484
29947SOL    HW295934  10.580   4.500   9.808  0.4181  0.1450  0.2102
29948SOL     OW95935   6.094  10.416   5.416 -0.1870  0.0294 -0.0285
29948SOL    HW195936   6.107  10.416   5.511  1.4283 -1.8283 -0.2031
29948SOL    HW295937   6.049  10.499   5.398 -0.5007  0.4301  2.3353
29949SOL     OW95938   4.961   7.787  10.456  0.7233 -0.1046 -0.0516
29949SOL    HW195939   4.885   7.826  10.498  0.3181 -0.5049 -0.4042
29949SOL    HW295940   5.008   7.862  10.418 -0.1037  0.0413 -0.8172
29950SOL     OW95941   9.946   5.283   6.342 -0.1759 -0.0083 -0.0402
29950SOL    HW195942   9.881   5.321   6.283  0.5712 -0.4721 -1.2024
29950SOL    HW295943   9.896   5.231   6.404 -0.8910 -0.6750 -1.1502
29951SOL     OW95944   6.209   5.975   3.673 -0.4555 -0.3207 -0.0503
29951SOL    HW195945   6.222   6.050   3.731  1.8689 -0.5619 -0.1525
29951SOL    HW295946   6.131   5.996   3.623 -0.6209  1.4131  0.8570
29952SOL     OW95947   3.319   4.530   3.782  0.0618 -0.2680 -0.0249
29952SOL    HW195948   3.355   4.443   3.798 -0.6770 -0.4119  1.0375
29952SOL    HW295949   3.230   4.514   3.751 -0.2163  0.1032  0.5604
29953SOL     OW95950   4.841   0.618   8.869 -0.0835 -0.0539 -0.3830
29953SOL    HW195951   4.889   0.651   8.945  0.1781  0.7350 -0.8777
29953SOL    HW295952   4.846   0.689   8.805 -0.5603 -0.5888 -1.0273
29954SOL     OW95953   7.086   5.048  10.718 -0.0360  0.1434  0.0738
29954SOL    HW195954   7.105   4.969  10.769  0.8015  1.0309  1.1945
29954SOL    HW295955   7.150   5.046  10.646 -0.1348 -0.2709 -0.0069
29955SOL     OW95956   6.450   3.512   0.068 -0.1157  0.2374  0.4491
29955SOL    HW195957   6.445   3.491  -0.025  1.4237 -0.3136  0.4692
29955SOL    HW295958   6.410   3.599   0.075  3.5705  2.3056 -1.4491
29956SOL     OW95959   9.235   8.991   6.347  0.5220 -0.6131  0.3224
29956SOL    HW195960   9.209   9.043   6.423  0.9370 -1.4445  1.0608
29956SOL    HW295961   9.159   8.936   6.329  0.6608 -0.8902  0.5684
29957SOL     OW95962   4.436   7.708   2.947 -0.4168 -0.1647  0.0524
29957SOL    HW195963   4.436   7.712   2.852 -1.2328  0.4181  0.0614
29957SOL    HW295964   4.488   7.631   2.969  1.5813  0.8722 -0.7874
29958SOL     OW95965   0.080   1.085   1.598  0.1925  0.1554 -0.1058
29958SOL    HW195966   0.120   1.092   1.684 -1.0944  1.0078  0.4568
29958SOL    HW295967  -0.003   1.132   1.606  0.0384  0.2454 -1.8105
29959SOL     OW95968   9.026   3.175   5.572  0.3360 -0.2747  0.0324
29959SOL    HW195969   9.051   3.115   5.643  1.6327  1.3275  0.9883
29959SOL    HW295970   9.020   3.118   5.495 -0.1401 -1.9013  1.2000
29960SOL     OW95971   6.620   4.298   1.098 -0.1448  0.4766 -0.0699
29960SOL    HW195972   6.714   4.280   1.100 -0.6818 -3.0767 -0.7078
29960SOL    HW295973   6.590   4.278   1.187 -0.6786 -1.5969 -0.6544
29961SOL     OW95974  10.819   2.586   1.950  0.5257  0.6162  0.4391
29961SOL    HW195975  10.769   2.548   2.023  0.8512 -0.2721  0.2113
29961SOL    HW295976  10.905   2.604   1.987 -0.4620  4.1032  1.4309
29962SOL     OW95977   1.667   3.771   0.455  0.2112  0.2690  0.2778
29962SOL    HW195978   1.696   3.852   0.413 -0.4055  1.5496  2.2059
29962SOL    HW295979   1.743   3.742   0.506  0.3782 -0.3118 -0.2823
29963SOL     OW95980   5.703   9.998   6.532 -0.1054  0.3646 -0.0261
29963SOL    HW195981   5.674  10.009   6.623  0.2301  0.3378  0.0871
29963SOL    HW295982   5.624   9.977   6.484 -0.2275  0.0083  0.3264
29964SOL     OW95983   4.098   8.406   7.115 -0.1455  0.8694  0.1314
29964SOL    HW195984   4.083   8.366   7.030 -0.9671 -0.2327  0.7806
29964SOL    HW295985   4.024   8.465   7.128 -0.6530  0.1449  0.5886
29965SOL     OW95986   2.824   5.895  10.416  0.6131 -0.1161 -0.2787
29965SOL    HW195987   2.734   5.920  10.436  0.6299 -0.1852 -0.1098
29965SOL    HW295988   2.817   5.831  10.345  0.4761 -0.7163  0.2684
29966SOL     OW95989   0.340   2.734   4.887  0.2924 -0.1560  0.0676
29966SOL    HW195990   0.286   2.812   4.882 -0.6474 -0.8337 -0.7917
29966SOL    HW295991   0.361   2.725   4.980 -1.2853 -0.0043  0.4651
29967SOL     OW95992  10.064   3.398   7.688  0.2683  0.2321 -0.2701
29967SOL    HW195993  10.156   3.370   7.682 -0.5755 -2.9031 -0.6799
29967SOL    HW295994  10.034   3.400   7.597  0.2576  2.7847 -0.2669
29968SOL     OW95995   8.896   5.339  10.900 -0.4108 -0.0180  0.0808
29968SOL    HW195996   8.919   5.249  10.876  1.6307  0.0370  1.5688
29968SOL    HW295997   8.954   5.394  10.848  0.0531  0.3117  0.9216
29969SOL     OW95998   5.860   0.644   7.307  0.2364  0.2849  0.2535
29969SOL    HW195999   5.790   0.678   7.251  1.0006  1.1935 -0.1898
29969SOL    HW296000   5.869   0.710   7.376  0.9837  0.4418  0.0156
29970SOL     OW96001   9.552   6.610   7.885  0.3215 -0.0528 -0.1974
29970SOL    HW196002   9.627   6.592   7.829  0.6721  0.4291  0.1188
29970SOL    HW296003   9.476   6.596   7.828  0.6900  2.8090 -1.5541
29971SOL     OW96004   5.450   7.757   6.430  0.1634 -0.7353 -0.5774
29971SOL    HW196005   5.389   7.735   6.500 -0.5071 -1.5498 -1.4013
29971SOL    HW296006   5.412   7.718   6.351  1.5395 -0.9153 -1.1791
29972SOL     OW96007  10.672   2.678   8.880 -0.2557 -0.3811  0.3608
29972SOL    HW196008  10.767   2.693   8.887 -0.5356  1.2969  1.2534
29972SOL    HW296009  10.658   2.596   8.927  0.8511 -1.0850 -0.4996
29973SOL     OW96010   0.888   6.086   9.258 -0.4971  0.0660  0.5768
29973SOL    HW196011   0.963   6.094   9.317  0.7379  0.5864 -0.9886
29973SOL    HW296012   0.826   6.151   9.290  0.7376  1.3315  0.4972
29974SOL     OW96013   6.921   3.280   9.117 -0.4899 -0.9376 -0.3785
29974SOL    HW196014   6.924   3.188   9.142  0.1017 -0.5832  0.9809
29974SOL    HW296015   6.972   3.324   9.185  0.5167  0.2209 -1.8399
29975SOL     OW96016   3.274   5.221   1.874 -0.0939  0.6280 -0.2865
29975SOL    HW196017   3.179   5.228   1.864  0.1206  1.6565 -1.8673
29975SOL    HW296018   3.301   5.306   1.907  0.2559  0.2040  0.5546
29976SOL     OW96019   3.338   3.097   8.779 -0.6251 -0.1577 -0.0916
29976SOL    HW196020   3.380   3.180   8.800 -2.4607  0.2454  2.4256
29976SOL    HW296021   3.338   3.094   8.683  1.0820  1.8550 -0.2367
29977SOL     OW96022   1.483   9.797   2.339  0.2689  0.0338 -0.3308
29977SOL    HW196023   1.450   9.756   2.259 -0.5752 -2.4527  1.1480
29977SOL    HW296024   1.404   9.814   2.391  0.8821  0.1172  0.5984
29978SOL     OW96025   0.213   3.514   9.884  0.2421 -0.1864 -0.2643
29978SOL    HW196026   0.247   3.536   9.797  0.9800  2.0806  0.5114
29978SOL    HW296027   0.123   3.487   9.868  0.2394  0.5439 -1.7217
29979SOL     OW96028   2.965   7.713   5.985 -0.4122 -0.0799  0.0723
29979SOL    HW196029   2.869   7.716   5.988 -0.4584 -1.5564  1.4805
29979SOL    HW296030   2.992   7.723   6.076  1.1188  5.5215 -0.6236
29980SOL     OW96031   3.540   9.852   8.920 -0.2942  0.2371  0.0435
29980SOL    HW196032   3.519   9.787   8.853  0.0154 -0.5081  0.6506
29980SOL    HW296033   3.626   9.885   8.895  0.7417 -1.4720  1.0988
29981SOL     OW96034   2.784   6.589   0.622  0.3939  0.1817 -0.4801
29981SOL    HW196035   2.736   6.536   0.685  1.2101 -0.7592 -0.6194
29981SOL    HW296036   2.757   6.679   0.640  1.0240  0.0023  1.5859
29982SOL     OW96037   3.224   9.478   8.470  0.4469  0.1153 -0.1862
29982SOL    HW196038   3.235   9.384   8.482 -1.8674 -0.1331  0.4274
29982SOL    HW296039   3.245   9.516   8.556 -0.2787 -0.0253  0.0579
29983SOL     OW96040   8.839   6.872   9.607  0.1644 -0.3214  0.1687
29983SOL    HW196041   8.842   6.831   9.694  0.9759  0.4161  0.5032
29983SOL    HW296042   8.752   6.851   9.574 -0.3326 -0.2310  1.3601
29984SOL     OW96043   3.035   5.521   1.756 -0.4131  0.0919  0.2734
29984SOL    HW196044   3.030   5.440   1.808 -0.1935  1.0663  1.8879
29984SOL    HW296045   3.003   5.496   1.669 -3.9980 -0.8876  1.7002
29985SOL     OW96046   4.233   1.087   9.635 -0.3523 -0.1392  0.2386
29985SOL    HW196047   4.278   1.034   9.569 -1.1012  0.0883 -0.4724
29985SOL    HW296048   4.275   1.173   9.628  0.0273 -0.3002  0.5313
29986SOL     OW96049   2.030  10.059  10.208  0.2527 -0.2520 -0.6636
29986SOL    HW196050   2.060  10.048  10.118  0.1591 -1.1254 -0.5984
29986SOL    HW296051   2.110  10.076  10.258  0.5451 -1.5414 -0.6486
29987SOL     OW96052   5.823   5.685   9.888 -0.4355  0.5307 -0.3504
29987SOL    HW196053   5.862   5.654   9.807 -1.6467 -0.3697 -0.6191
29987SOL    HW296054   5.749   5.626   9.904 -1.6150  2.0656  0.1832
29988SOL     OW96055   7.584   4.511   8.705  0.5536 -0.3517 -0.4151
29988SOL    HW196056   7.601   4.593   8.659  1.9024 -0.2129  0.3024
29988SOL    HW296057   7.562   4.538   8.795  0.2895 -0.7438 -0.3597
29989SOL     OW96058   3.448   9.120   5.404 -0.1713 -0.1575 -0.1315
29989SOL    HW196059   3.460   9.213   5.425  0.5154 -0.7544  2.5895
29989SOL    HW296060   3.360   9.115   5.368 -0.2613  1.5502 -0.2277
29990SOL     OW96061   2.782   7.608   2.598  0.7163 -0.0635 -0.0483
29990SOL    HW196062   2.729   7.602   2.519 -0.5246 -2.6952  0.8585
29990SOL    HW296063   2.777   7.701   2.623 -1.2156  0.2950 -1.4936
29991SOL     OW96064   4.612  10.500   3.389  0.3993  0.8137  0.1276
29991SOL    HW196065   4.618  10.406   3.373  1.9634  0.4893  2.2003
29991SOL    HW296066   4.687  10.537   3.342  1.7331  0.5457  1.9262
29992SOL     OW96067   1.105   0.696   4.313 -0.0260  0.0535 -0.3773
29992SOL    HW196068   1.199   0.679   4.318 -0.1186 -0.4621 -0.3358
29992SOL    HW296069   1.094   0.780   4.356  0.4313  0.1657 -0.4703
29993SOL     OW96070   7.420   0.832   1.576 -0.1651 -0.0125 -0.5132
29993SOL    HW196071   7.367   0.910   1.593 -0.0408 -0.2496  1.1372
29993SOL    HW296072   7.367   0.759   1.608 -0.4129 -0.6802 -2.3248
29994SOL     OW96073   5.816   8.226   3.899  0.1261  0.3872  0.5316
29994SOL    HW196074   5.778   8.230   3.986  0.8877  1.2103  0.8502
29994SOL    HW296075   5.903   8.265   3.910  1.6878 -2.6975  0.1646
29995SOL     OW96076   6.015   7.870   9.538  0.6962 -0.1166 -0.0970
29995SOL    HW196077   6.027   7.776   9.524  1.3606 -0.1597  0.6844
29995SOL    HW296078   6.104   7.904   9.552  0.5409  0.7568 -1.0784
29996SOL     OW96079   0.328   1.455   5.441  0.1384  0.0376 -0.5891
29996SOL    HW196080   0.280   1.406   5.508 -0.2281 -0.0874 -0.9423
29996SOL    HW296081   0.270   1.527   5.417  0.6825  0.6803 -0.0528
29997SOL     OW96082   9.414   1.208   5.753 -0.8713 -0.5867  0.1679
29997SOL    HW196083   9.490   1.216   5.810 -1.1517 -0.7758  0.5800
29997SOL    HW296084   9.423   1.279   5.690 -0.0500 -0.9730 -0.1596
29998SOL     OW96085   2.694   8.662   6.990 -0.8911 -0.6258 -0.4783
29998SOL    HW196086   2.744   8.600   6.937 -1.1052  0.6685 -2.3062
29998SOL    HW296087   2.749   8.678   7.067  1.1930  0.1240 -2.0200
29999SOL     OW96088   3.858   8.519   1.614  0.2512  0.3949  0.1552
29999SOL    HW196089   3.907   8.456   1.561  2.4854  3.4626 -1.7670
29999SOL    HW296090   3.909   8.527   1.695  0.2251  0.0680  0.2040
30000SOL     OW96091   1.095   4.808   8.173 -0.3527 -0.2239 -0.1642
30000SOL    HW196092   1.098   4.901   8.193  0.1768  0.1262 -1.7439
30000SOL    HW296093   1.049   4.803   8.089  1.3498 -1.1844 -1.0867
30001SOL     OW96094   9.580  10.633  10.380 -0.3833  0.0480  0.1233
30001SOL    HW196095   9.490  10.650  10.408 -0.3428 -0.0689  0.3303
30001SOL    HW296096   9.579  10.542  10.350 -0.8066  0.6447 -1.8157
30002SOL     OW96097  10.921  10.665   7.121  0.3701 -0.0407  0.2123
30002SOL    HW196098  10.907  10.618   7.203 -1.7623 -0.1896 -0.1786
30002SOL    HW296099  10.902  10.600   7.053  1.6401  0.2161 -0.4169
30003SOL     OW96100   2.151   1.913   9.005 -0.7464 -0.1887 -0.1944
30003SOL    HW196101   2.114   1.923   9.092 -0.5423  1.1841 -0.2436
30003SOL    HW296102   2.098   1.971   8.950  1.3852  1.8520 -0.2635
30004SOL     OW96103   5.767   4.517   5.370 -0.1940  0.1117  0.0544
30004SOL    HW196104   5.808   4.453   5.428 -0.8964  0.4210  0.9143
30004SOL    HW296105   5.770   4.599   5.419  0.9808  0.8209 -1.1619
30005SOL     OW96106   9.695   1.395   8.218 -0.6506 -0.0341 -0.3170
30005SOL    HW196107   9.621   1.456   8.208 -0.1584  0.8746  1.3043
30005SOL    HW296108   9.743   1.427   8.294  0.1544 -1.9296  0.0432
30006SOL     OW96109   8.947   1.129   7.016 -0.1488  0.5277  0.8187
30006SOL    HW196110   8.915   1.214   6.988  1.5524  0.6833 -0.8390
30006SOL    HW296111   8.868   1.075   7.024 -1.1848  2.0458  1.2722
30007SOL     OW96112  10.215   3.212   5.462  0.4792 -0.0948  0.0429
30007SOL    HW196113  10.238   3.303   5.446  0.4408  0.3152  2.0773
30007SOL    HW296114  10.249   3.194   5.550 -3.4587 -0.6368  1.6454
30008SOL     OW96115   5.663   6.980   8.487  0.0912  0.2338  0.2483
30008SOL    HW196116   5.617   6.917   8.433  0.4716 -0.7893  1.0726
30008SOL    HW296117   5.753   6.979   8.454  0.4977 -0.9215  1.2955
30009SOL     OW96118   9.386   2.351   3.476 -0.2410 -0.3533  0.3373
30009SOL    HW196119   9.320   2.311   3.533 -0.1450 -1.1801 -0.1056
30009SOL    HW296120   9.430   2.276   3.435  0.0545  0.2158 -0.4084
30010SOL     OW96121   2.859   9.123   6.110 -0.2716 -0.1211 -0.3980
30010SOL    HW196122   2.943   9.155   6.143 -0.5129 -1.2211  1.4418
30010SOL    HW296123   2.881   9.073   6.031  0.7552 -0.0006 -0.1924
30011SOL     OW96124   4.153   3.698   4.959  0.0278  0.0869 -0.1589
30011SOL    HW196125   4.120   3.625   4.907  0.0554 -0.3140  0.3688
30011SOL    HW296126   4.197   3.755   4.896 -0.8167  0.1286 -0.7141
30012SOL     OW96127   7.379   8.082   1.047  0.4601 -0.1057 -0.2566
30012SOL    HW196128   7.370   7.995   1.007 -2.5657 -0.2089  0.4477
30012SOL    HW296129   7.301   8.092   1.101  1.7693  2.2403  1.3755
30013SOL     OW96130   5.127   3.418   4.660 -0.1062  0.6385  0.2706
30013SOL    HW196131   5.132   3.498   4.711 -0.6985  0.3767  0.7553
30013SOL    HW296132   5.154   3.444   4.572 -0.0734  1.3195  0.4757
30014SOL     OW96133   2.556   5.323   3.609  0.6287 -0.0676  0.3821
30014SOL    HW196134   2.476   5.303   3.657 -0.7374  1.7051 -1.0286
30014SOL    HW296135   2.622   5.264   3.647 -0.6076  0.3830  3.5611
30015SOL     OW96136   8.899   3.201   0.434  0.7840  0.1485 -0.2814
30015SOL    HW196137   8.847   3.162   0.364  0.3246  0.3205 -0.0363
30015SOL    HW296138   8.968   3.250   0.388  1.5221 -1.1473 -0.5868
30016SOL     OW96139   8.867   0.239   4.603  0.7894 -0.3899 -0.2750
30016SOL    HW196140   8.914   0.253   4.521  2.4613 -0.1634  0.6737
30016SOL    HW296141   8.896   0.310   4.660 -0.5084 -0.4145  0.4652
30017SOL     OW96142   2.924   1.747   7.943 -0.1454 -0.3264  0.3476
30017SOL    HW196143   3.007   1.768   7.986 -0.0180 -3.0907  1.7119
30017SOL    HW296144   2.858   1.756   8.012 -0.3831 -1.7409  0.3516
30018SOL     OW96145   2.475   7.953   6.277 -0.6132  0.6208  0.3805
30018SOL    HW196146   2.507   8.009   6.207 -0.7714  0.0939 -0.1198
30018SOL    HW296147   2.422   8.010   6.332 -1.0224  0.8908 -0.2888
30019SOL     OW96148   1.245   4.861   5.940 -0.5162  0.3139  0.0003
30019SOL    HW196149   1.262   4.953   5.958 -2.1283  0.6378  0.0511
30019SOL    HW296150   1.163   4.862   5.891 -0.8476 -1.1379  0.4973
30020SOL     OW96151   6.595   9.923   8.391  0.0982  0.0808  0.1003
30020SOL    HW196152   6.516   9.974   8.407 -0.9832 -1.5275  0.0544
30020SOL    HW296153   6.609   9.929   8.297  0.8872  1.5298  0.2736
30021SOL     OW96154   6.572  10.875   5.189 -0.1462  0.1863 -0.1479
30021SOL    HW196155   6.591  10.931   5.264  0.7213 -0.0851 -0.1597
30021SOL    HW296156   6.480  10.851   5.200 -0.4877  1.4456 -0.0383
30022SOL     OW96157  10.438  10.444   1.410  0.7065  0.0510 -0.1068
30022SOL    HW196158  10.515  10.420   1.461  0.7151 -0.3331 -0.3003
30022SOL    HW296159  10.370  10.383   1.438  0.5688  0.1672 -0.1848
30023SOL     OW96160   8.387  10.177   2.296  0.5459  0.6652  0.2132
30023SOL    HW196161   8.370  10.203   2.205 -1.1573 -2.4086 -0.4804
30023SOL    HW296162   8.462  10.117   2.290  0.8110  0.9160  0.9433
30024SOL     OW96163   4.451   3.775   2.398  0.4939 -0.3043  0.4702
30024SOL    HW196164   4.526   3.833   2.400  0.4513 -0.1059 -1.7796
30024SOL    HW296165   4.488   3.687   2.393  0.5580 -0.2782  0.4904
30025SOL     OW96166   0.930   5.665  10.796 -0.1466 -0.3153  0.5198
30025SOL    HW196167   1.010   5.707  10.765 -1.4297 -0.1457 -3.0504
30025SOL    HW296168   0.953   5.573  10.807  0.7921 -0.0732  0.6447
30026SOL     OW96169   0.754   0.622   6.885  0.0195 -0.2664 -0.2741
30026SOL    HW196170   0.755   0.671   6.967  0.1504 -0.0693 -0.3921
30026SOL    HW296171   0.662   0.624   6.856  0.0442  0.0075 -0.3360
30027SOL     OW96172   8.249   8.461   4.393  0.2568 -0.3366 -0.7465
30027SOL    HW196173   8.197   8.387   4.423  1.7309 -1.7059 -1.4619
30027SOL    HW296174   8.340   8.435   4.407  0.8276  1.7317 -0.1149
30028SOL     OW96175  10.519   7.898   8.474 -0.9815 -0.3665  0.1080
30028SOL    HW196176  10.476   7.980   8.499  0.7145  0.2894  1.0285
30028SOL    HW296177  10.467   7.829   8.515 -1.9149  0.2856  0.0569
30029SOL     OW96178   4.263   4.272   9.858 -0.5762 -0.7273  0.6599
30029SOL    HW196179   4.184   4.265   9.911  0.5344  1.7090  2.8567
30029SOL    HW296180   4.253   4.353   9.809  0.4583 -0.5183  0.7715
30030SOL     OW96181   9.863   8.880   6.643 -0.8955  0.3283  0.2638
30030SOL    HW196182   9.933   8.815   6.644 -1.6213 -0.4712 -0.0519
30030SOL    HW296183   9.876   8.927   6.561 -0.5009  0.4426  0.3884
30031SOL     OW96184   6.806   8.884   3.806  0.2149 -0.1112  0.4707
30031SOL    HW196185   6.749   8.949   3.849  1.4765  0.0194  2.0472
30031SOL    HW296186   6.781   8.801   3.846  0.2502 -0.2393  0.2250
30032SOL     OW96187   8.816   4.521   0.772 -0.5939 -0.5142  0.5172
30032SOL    HW196188   8.763   4.450   0.737 -0.8776 -0.4748  0.8594
30032SOL    HW296189   8.804   4.515   0.867  0.9544 -1.2513  0.6934
30033SOL     OW96190   1.212   6.169   6.762 -0.0755 -0.6369  0.0300
30033SOL    HW196191   1.232   6.258   6.733  0.2284 -0.8117 -0.3037
30033SOL    HW296192   1.225   6.172   6.857 -0.1406 -0.3056  0.0293
30034SOL     OW96193  10.890   3.185   4.469  0.4079 -0.3743  0.1195
30034SOL    HW196194  10.923   3.193   4.380  1.9170 -0.1394  0.6597
30034SOL    HW296195  10.913   3.269   4.510 -1.2368 -0.0518  0.4478
30035SOL     OW96196   8.811   1.637   1.844 -0.0728  0.0063  0.0472
30035SOL    HW196197   8.810   1.541   1.843  1.5000 -0.0495  0.2114
30035SOL    HW296198   8.751   1.663   1.774  1.5152 -1.1739 -1.8751
30036SOL     OW96199   1.331   0.249   0.353  1.0170 -0.2690 -0.5455
30036SOL    HW196200   1.404   0.226   0.409  0.7419 -1.0927 -0.5176
30036SOL    HW296201   1.356   0.332   0.313  0.6142  1.1486  1.9179
30037SOL     OW96202  10.308   8.682   9.912 -0.4115  0.4277 -0.2365
30037SOL    HW196203  10.306   8.654   9.821  0.1244 -1.4178  0.2711
30037SOL    HW296204  10.216   8.684   9.939 -0.4862 -0.5723 -0.3940
30038SOL     OW96205   0.270   1.959   8.710 -0.6108 -0.0326 -0.1270
30038SOL    HW196206   0.354   1.981   8.669  0.1680 -2.3983  0.0315
30038SOL    HW296207   0.207   2.018   8.668  0.7456  0.1495 -2.0528
30039SOL     OW96208   3.268   9.480   0.371 -0.0554 -0.6314 -0.0524
30039SOL    HW196209   3.236   9.503   0.284 -0.5115  0.8138  0.4758
30039SOL    HW296210   3.214   9.531   0.431  2.3141  0.8997  0.9290
30040SOL     OW96211   0.252   7.501   5.459  0.2289 -0.0881 -0.1784
30040SOL    HW196212   0.185   7.556   5.418 -0.5930 -1.4441 -0.7257
30040SOL    HW296213   0.326   7.560   5.472 -1.5402  1.9387  1.9337
30041SOL     OW96214   0.884  10.600   1.528 -0.0307 -0.0364  0.7881
30041SOL    HW196215   0.806  10.652   1.547 -0.6532 -1.1466  1.3748
30041SOL    HW296216   0.864  10.513   1.562  0.9626 -0.6895 -0.2334
30042SOL     OW96217   4.190   5.691   7.548  0.4682 -0.3535  0.5398
30042SOL    HW196218   4.204   5.754   7.619  0.0578  0.6580 -0.2580
30042SOL    HW296219   4.127   5.628   7.583 -2.2909  1.9639  0.0196
30043SOL     OW96220   3.804   0.441   0.722 -0.0221  0.3404  0.0515
30043SOL    HW196221   3.813   0.485   0.807  0.5283 -0.5162  0.4644
30043SOL    HW296222   3.714   0.408   0.722  0.1633 -0.2039  0.6019
30044SOL     OW96223   3.973   3.650   2.786 -0.0272 -0.0916  0.1413
30044SOL    HW196224   3.970   3.557   2.810  0.1088 -0.4386 -1.1459
30044SOL    HW296225   3.887   3.668   2.749  0.9273 -0.5220 -2.4608
30045SOL     OW96226   6.047   9.230   9.482  0.1236 -0.1003 -0.5507
30045SOL    HW196227   6.126   9.176   9.481  0.8643  0.9242  0.6642
30045SOL    HW296228   6.019   9.233   9.390  1.8779  0.0780 -1.1081
30046SOL     OW96229   4.891   9.709  10.914  0.5031  0.3387 -0.0591
30046SOL    HW196230   4.818   9.655  10.947 -0.0093  1.8566  1.4345
30046SOL    HW296231   4.968   9.675  10.959  0.6125 -0.7083 -0.9878
30047SOL     OW96232   7.493   4.846  10.845 -0.1305  0.0509 -0.0876
30047SOL    HW196233   7.546   4.882  10.774 -1.7678  1.7061 -0.5489
30047SOL    HW296234   7.515   4.900  10.921 -0.8658  0.5044 -0.1927
30048SOL     OW96235   0.720   2.294   2.049 -0.2759 -0.1429 -0.0205
30048SOL    HW196236   0.809   2.328   2.048 -0.9204  1.6789  0.8204
30048SOL    HW296237   0.689   2.302   1.959  0.1220 -0.0014 -0.1423
30049SOL     OW96238   2.875   0.905   9.843  0.1515  0.4611  0.2291
30049SOL    HW196239   2.782   0.895   9.825  0.3116 -1.9326  0.3691
30049SOL    HW296240   2.901   0.983   9.794 -1.9835  1.4346  0.5567
30050SOL     OW96241   2.190   4.506   8.669 -0.6374  0.7438  0.1588
30050SOL    HW196242   2.171   4.436   8.731  1.5317 -0.1563 -0.1274
30050SOL    HW296243   2.255   4.469   8.609 -1.5866  2.0571 -1.8189
30051SOL     OW96244   1.413   4.158   1.400 -0.0212  0.2310  0.6433
30051SOL    HW196245   1.418   4.135   1.493  0.7058 -0.4812  0.4432
30051SOL    HW296246   1.445   4.248   1.395  2.5024 -0.5719  0.7979
30052SOL     OW96247   1.355  10.563   0.377 -0.7048 -0.2572 -0.4796
30052SOL    HW196248   1.313  10.513   0.446  0.1064 -2.5512 -1.5340
30052SOL    HW296249   1.328  10.654   0.392 -2.6872 -1.0620  1.2199
30053SOL     OW96250   2.109  10.486   9.504 -0.2677  0.1062 -0.5320
30053SOL    HW196251   2.083  10.407   9.456  0.5728  1.4424 -3.4175
30053SOL    HW296252   2.154  10.453   9.582  0.3159 -2.2993 -1.7758
30054SOL     OW96253   1.945   1.281   9.873 -0.3015 -0.1487  0.1901
30054SOL    HW196254   1.952   1.241   9.960 -1.0895 -0.3967  0.1494
30054SOL    HW296255   1.953   1.208   9.813 -1.5187 -0.2353  0.1084
30055SOL     OW96256   1.566   9.992   4.453  0.1536 -0.1444  0.1233
30055SOL    HW196257   1.572   9.938   4.375 -1.1053 -0.9187  0.5481
30055SOL    HW296258   1.477   9.980   4.485  0.1839  1.3101  0.8636
30056SOL     OW96259   9.738   1.864   3.803  0.4933  0.0729 -0.1355
30056SOL    HW196260   9.817   1.849   3.856  0.4222  0.7051  0.1592
30056SOL    HW296261   9.771   1.876   3.714  0.6540 -0.5432 -0.1635
30057SOL     OW96262   7.381   9.462   3.231 -0.0763 -0.0045 -0.1159
30057SOL    HW196263   7.362   9.556   3.226 -1.0694 -0.1711  0.3303
30057SOL    HW296264   7.460   9.451   3.178  0.8854  1.3053  0.9407
30058SOL     OW96265   3.170   4.630   1.988 -0.2024 -0.0087 -0.0251
30058SOL    HW196266   3.248   4.680   2.011 -0.4070  0.1941  0.2410
30058SOL    HW296267   3.103   4.696   1.969  0.3321 -0.1255 -2.6711
30059SOL     OW96268   3.230   6.891   2.037 -0.3225 -0.1206  0.3378
30059SOL    HW196269   3.224   6.879   2.132 -1.7024  2.8261  0.7650
30059SOL    HW296270   3.161   6.955   2.017  1.7015  1.4897 -2.1870
30060SOL     OW96271   7.454   7.939   0.702 -0.0745 -0.1586  0.4511
30060SOL    HW196272   7.437   8.029   0.673 -0.7513  0.4715  2.6009
30060SOL    HW296273   7.549   7.935   0.712  0.3384 -0.7213 -2.5506
30061SOL     OW96274   1.681   7.093   0.913  0.2389  0.1465 -0.6060
30061SOL    HW196275   1.624   7.039   0.856  1.2069  0.2339 -1.6984
30061SOL    HW296276   1.723   7.154   0.853  0.7245  0.7560  0.3384
30062SOL     OW96277   3.823   4.071   7.137  0.4307  0.5791 -0.0017
30062SOL    HW196278   3.749   4.131   7.128 -0.5012 -0.5041  0.2054
30062SOL    HW296279   3.826   4.023   7.054  0.9841  0.7043 -0.0573
30063SOL     OW96280  10.098   7.992   3.270  0.2253  0.2711 -0.2995
30063SOL    HW196281  10.116   8.035   3.353  2.4174 -5.0344  2.4883
30063SOL    HW296282  10.009   7.958   3.280  0.8436 -1.2260  0.4921
30064SOL     OW96283   7.205   1.191   9.936  0.0537  0.0360 -0.0827
30064SOL    HW196284   7.250   1.107   9.943 -0.2165 -0.1911 -0.9441
30064SOL    HW296285   7.246   1.246  10.004 -0.9045 -1.2759  1.6469
30065SOL     OW96286   6.615   6.967  10.927 -0.2802 -0.3869  0.4090
30065SOL    HW196287   6.629   6.872  10.929  2.4356 -0.0786  0.3001
30065SOL    HW296288   6.598   6.987  10.835  0.1383 -0.6788  0.2641
30066SOL     OW96289   4.281   8.386   6.249 -0.2889 -0.9361 -0.0283
30066SOL    HW196290   4.289   8.481   6.245 -3.2547 -0.3772  2.8928
30066SOL    HW296291   4.249   8.361   6.162  0.0008  0.7753 -0.6726
30067SOL     OW96292   9.961   3.898   7.396  0.2693 -0.2122 -0.2563
30067SOL    HW196293   9.894   3.954   7.435 -0.1311 -0.3283 -0.7711
30067SOL    HW296294   9.999   3.950   7.326  1.1801  0.0987  0.4376
30068SOL     OW96295   4.280   3.811   2.627 -0.2493  0.0057 -0.5354
30068SOL    HW196296   4.346   3.802   2.558  1.5145 -0.1693  1.1109
30068SOL    HW296297   4.312   3.757   2.699 -2.3737 -0.3411  0.2258
30069SOL     OW96298   9.358   8.138   0.885 -0.0709 -0.3404  0.4540
30069SOL    HW196299   9.268   8.106   0.881 -0.2371  0.1962 -0.4147
30069SOL    HW296300   9.393   8.102   0.967 -1.1000 -0.4666  0.8494
30070SOL     OW96301   3.284   0.833   2.383 -0.1626 -0.3676 -0.0927
30070SOL    HW196302   3.240   0.810   2.465  0.0877  1.1782  0.5048
30070SOL    HW296303   3.281   0.929   2.380 -0.6395 -0.4048 -2.1707
30071SOL     OW96304   9.546  10.839   5.003  0.1560 -0.7153  0.0451
30071SOL    HW196305   9.513  10.863   5.090 -1.2004  0.0972 -0.6555
30071SOL    HW296306   9.495  10.762   4.978 -0.3626 -0.1825 -0.5521
30072SOL     OW96307   7.793   9.902   0.918  0.2546  0.6347 -0.1091
30072SOL    HW196308   7.729   9.838   0.950  1.5775 -0.0832  1.2130
30072SOL    HW296309   7.838   9.932   0.997  1.9916  0.6339 -1.0717
30073SOL     OW96310   8.183   4.791   9.569  0.2343 -0.2096  0.1660
30073SOL    HW196311   8.232   4.768   9.648  1.2579  0.7631 -0.1513
30073SOL    HW296312   8.150   4.879   9.586  0.1675 -0.1283 -0.3527
30074SOL     OW96313   3.210   8.610   7.023  0.3561  0.0858 -0.0646
30074SOL    HW196314   3.271   8.682   7.008  1.0238 -0.1345  1.4416
30074SOL    HW296315   3.124   8.648   7.006  0.7830  0.8847 -0.5179
30075SOL     OW96316   4.766   1.097   3.576 -0.0003  0.2027 -0.1634
30075SOL    HW196317   4.835   1.036   3.601  0.0277  0.2885 -0.0312
30075SOL    HW296318   4.800   1.144   3.500 -0.4706 -0.7508 -0.9892
30076SOL     OW96319   6.370   6.717  10.215 -0.0497  0.3344 -0.6121
30076SOL    HW196320   6.344   6.809  10.205 -0.4562  0.3323  0.3027
30076SOL    HW296321   6.454   6.711  10.169 -0.8869  0.7169 -2.2857
30077SOL     OW96322  10.532   4.569   0.730 -0.5508 -0.4185  0.1338
30077SOL    HW196323  10.502   4.582   0.820  1.0741  1.1401  0.4999
30077SOL    HW296324  10.580   4.486   0.733  1.7723  0.8555  1.4230
30078SOL     OW96325   9.444   5.409   7.814  0.0359 -0.0195 -0.6131
30078SOL    HW196326   9.483   5.372   7.893  0.0706 -0.0187 -0.6303
30078SOL    HW296327   9.478   5.498   7.809  2.0375 -0.7846 -1.9819
30079SOL     OW96328   0.441   6.195   7.939  0.0644  0.3560 -0.6665
30079SOL    HW196329   0.363   6.230   7.896 -0.1592  0.8966  0.1581
30079SOL    HW296330   0.512   6.216   7.879 -0.2468  1.0460 -0.8037
30080SOL     OW96331   2.202   7.417   1.257  0.3197  0.6708 -0.1916
30080SOL    HW196332   2.236   7.374   1.336  1.5235  2.9887  0.6656
30080SOL    HW296333   2.175   7.504   1.287  0.4790  1.4959 -2.2628
30081SOL     OW96334   8.768   1.587  10.098 -0.2078  0.1906 -0.6487
30081SOL    HW196335   8.835   1.523  10.122 -0.4087  0.3508  0.3899
30081SOL    HW296336   8.695   1.568  10.157  0.3405  2.4337  0.8921
30082SOL     OW96337   4.154   9.250   4.424 -0.6215 -0.0551  0.0270
30082SOL    HW196338   4.183   9.308   4.353 -1.0849  0.3420  0.1556
30082SOL    HW296339   4.058   9.256   4.423 -0.6693 -0.6732  0.1700
30083SOL     OW96340   2.340  10.277  10.507 -0.3275 -0.2283  0.5139
30083SOL    HW196341   2.359  10.258  10.599  0.5167 -0.6988  0.2598
30083SOL    HW296342   2.300  10.364  10.509 -1.4214 -0.7225  1.4250
30084SOL     OW96343   9.276   7.456   8.985  0.4887  0.6784  0.5257
30084SOL    HW196344   9.291   7.378   8.931 -0.0122  1.3083 -0.5809
30084SOL    HW296345   9.181   7.459   8.995  0.6479 -0.2845  2.8193
30085SOL     OW96346   0.765   6.761   7.334 -0.3580  0.2099  0.2657
30085SOL    HW196347   0.832   6.694   7.344  0.0940  0.4743 -0.8962
30085SOL    HW296348   0.682   6.715   7.351  0.0244 -0.3711  0.5839
30086SOL     OW96349   2.401   5.829   9.302 -0.0901 -0.5065 -0.2596
30086SOL    HW196350   2.462   5.797   9.236 -0.3514 -1.6161  0.0268
30086SOL    HW296351   2.347   5.894   9.256  1.1994  0.3940 -0.5511
30087SOL     OW96352   6.547   8.417   3.074  0.1168  0.1596 -0.6587
30087SOL    HW196353   6.507   8.421   2.987 -2.0299 -0.7292  0.2099
30087SOL    HW296354   6.525   8.501   3.114  3.4897  1.7638 -1.8283
30088SOL     OW96355   2.811   3.686   3.192  0.2062 -0.1855  0.5665
30088SOL    HW196356   2.839   3.767   3.149 -2.5030  0.1084 -0.8351
30088SOL    HW296357   2.752   3.715   3.262  0.9573 -0.8925  1.5171
30089SOL     OW96358   9.823   5.503   7.607 -0.2149 -0.0676 -0.5584
30089SOL    HW196359   9.782   5.436   7.552  0.2019  1.1493 -2.4722
30089SOL    HW296360   9.869   5.454   7.674  0.3616 -1.7547 -2.0940
30090SOL     OW96361   1.811   2.111   0.242  0.2724 -0.2086 -0.0810
30090SOL    HW196362   1.845   2.198   0.223  0.0766 -0.5325 -2.1797
30090SOL    HW296363   1.860   2.081   0.318 -0.7779  2.3354  1.7131
30091SOL     OW96364   1.117   5.138   7.151  0.2750 -0.5407  0.0261
30091SOL    HW196365   1.064   5.180   7.219  0.4256  0.3001 -0.3605
30091SOL    HW296366   1.170   5.209   7.115  0.6474 -1.1011 -0.5429
30092SOL     OW96367   7.211   2.962   2.614  0.1735  0.0196  0.0831
30092SOL    HW196368   7.181   2.903   2.545 -0.0903  0.4858 -0.2048
30092SOL    HW296369   7.205   2.909   2.694 -1.8225  0.1775  0.1077
30093SOL     OW96370   1.506   3.756   8.493 -0.0858  0.1781 -0.6499
30093SOL    HW196371   1.455   3.824   8.449 -1.9562  0.3907  1.6015
30093SOL    HW296372   1.578   3.804   8.535 -0.4370  0.5370 -0.4492
30094SOL     OW96373  10.839   1.722   1.031  0.3217  0.1994  0.1532
30094SOL    HW196374  10.904   1.787   1.004  2.6750 -1.9642  0.2210
30094SOL    HW296375  10.852   1.648   0.971 -0.5180 -1.1892  1.5931
30095SOL     OW96376   6.148   4.886   5.222  0.0239 -0.1522  0.6306
30095SOL    HW196377   6.120   4.799   5.249 -0.0538  0.3184  2.1122
30095SOL    HW296378   6.066   4.933   5.205  0.0641 -0.7343 -1.5515
30096SOL     OW96379   3.408   4.258   3.804 -0.3821 -0.1317  0.0750
30096SOL    HW196380   3.420   4.258   3.709 -1.3969 -0.0486 -0.0690
30096SOL    HW296381   3.496   4.265   3.839  0.0587 -0.7371 -0.8533
30097SOL     OW96382   8.272   9.697   6.501  0.3962 -0.1114  0.1074
30097SOL    HW196383   8.230   9.613   6.519  1.3252 -0.6850 -0.3130
30097SOL    HW296384   8.270   9.743   6.585  1.0452 -1.0973  0.6838
30098SOL     OW96385   7.096  10.342   3.995  0.1738  0.6204  0.2988
30098SOL    HW196386   7.121  10.434   3.981  0.3762  1.1021  3.1867
30098SOL    HW296387   7.173  10.292   3.967  0.5459  1.4082 -0.1196
30099SOL     OW96388   0.205   4.043   0.461 -0.2479  0.3239 -0.0961
30099SOL    HW196389   0.211   4.026   0.368 -3.4733  2.0127 -0.7875
30099SOL    HW296390   0.125   4.095   0.471  1.6333  3.0653  3.2066
30100SOL     OW96391   6.315   2.699   3.309  0.1948  0.2446 -0.0089
30100SOL    HW196392   6.299   2.609   3.337  2.0030  0.3615  1.5991
30100SOL    HW296393   6.401   2.721   3.345 -0.0826  2.5443 -0.5702
30101SOL     OW96394   0.413   6.640   6.489  0.6715  0.0621  0.0773
30101SOL    HW196395   0.407   6.545   6.496  1.1644 -0.0219 -0.5610
30101SOL    HW296396   0.493   6.663   6.537  0.2039  0.2302  0.7929
30102SOL     OW96397   5.258   9.626   6.065  0.2570  0.3889  0.4410
30102SOL    HW196398   5.248   9.717   6.093  1.3064  0.2786  1.2515
30102SOL    HW296399   5.271   9.632   5.970 -0.4035  1.0145  0.3784
30103SOL     OW96400   3.917   9.347   8.467  0.0459  0.1199  0.0327
30103SOL    HW196401   3.852   9.397   8.417  0.2777 -1.1329 -1.5968
30103SOL    HW296402   4.000   9.369   8.427  0.3195 -0.4347  0.2901
30104SOL     OW96403   4.483   0.188   8.818 -0.4178  0.3025  0.1012
30104SOL    HW196404   4.430   0.108   8.827 -1.0306  0.8365  1.3842
30104SOL    HW296405   4.470   0.214   8.727 -0.8137 -0.6449 -0.1270
30105SOL     OW96406   3.717   4.918   8.278 -0.3949 -0.1341 -0.0720
30105SOL    HW196407   3.787   4.869   8.237  0.0276 -0.6400  1.1972
30105SOL    HW296408   3.762   4.977   8.340 -1.0431 -0.0485  0.3314
30106SOL     OW96409   2.268   3.675   0.289  0.3284  0.3058  0.0804
30106SOL    HW196410   2.288   3.759   0.249  2.3708 -0.0641  0.2090
30106SOL    HW296411   2.272   3.691   0.383  1.4203 -0.0443  0.1116
30107SOL     OW96412   2.764   3.591   3.937 -0.1426 -0.0574 -0.1157
30107SOL    HW196413   2.800   3.602   3.849 -2.8753 -0.9213 -1.4427
30107SOL    HW296414   2.754   3.681   3.970  2.3620  0.2362  0.0528
30108SOL     OW96415   0.779   3.839   2.725  0.2556 -0.4100 -0.0351
30108SOL    HW196416   0.815   3.778   2.660  0.0534  0.2014 -0.7294
30108SOL    HW296417   0.775   3.787   2.806  0.1118 -1.3190 -0.6027
30109SOL     OW96418   0.305   3.168   1.367 -0.3976 -0.0168  0.0500
30109SOL    HW196419   0.388   3.163   1.414 -1.1225  0.1832  1.3998
30109SOL    HW296420   0.269   3.253   1.390 -1.7662 -0.7801  0.8906
30110SOL     OW96421   1.222  10.361   3.536 -0.4152  0.6500 -0.2879
30110SOL    HW196422   1.158  10.415   3.583 -0.6132  1.0977 -1.0606
30110SOL    HW296423   1.223  10.397   3.447  0.6309  0.4087 -0.3844
30111SOL     OW96424   2.579   8.453  10.853  0.2667  0.2966  0.2731
30111SOL    HW196425   2.637   8.427  10.781  0.9417 -0.0969  0.9545
30111SOL    HW296426   2.546   8.539  10.826  0.1137 -0.0582 -0.7425
30112SOL     OW96427  10.536   2.289   4.597  0.1938 -0.4867  0.4686
30112SOL    HW196428  10.502   2.331   4.676 -3.0523 -1.9071 -0.0335
30112SOL    HW296429  10.541   2.196   4.620 -0.7478 -0.9108 -0.9487
30113SOL     OW96430  10.568   4.915   2.353 -0.6205 -0.2368  0.0671
30113SOL    HW196431  10.585   4.824   2.330 -0.2116 -0.4628  1.1931
30113SOL    HW296432  10.496   4.941   2.296 -1.2301 -1.4908  0.2302
30114SOL     OW96433   6.034   6.361   1.100 -0.0567  0.2048 -0.1056
30114SOL    HW196434   6.110   6.306   1.086 -0.1451  0.1457 -0.3542
30114SOL    HW296435   5.961   6.300   1.109 -0.3675  0.3048 -1.6682
30115SOL     OW96436   5.945   3.306   5.190  0.2423  0.0521 -0.1371
30115SOL    HW196437   5.906   3.331   5.106 -2.1756  1.3702  1.2633
30115SOL    HW296438   5.933   3.383   5.246  1.2534 -0.9903  1.6054
30116SOL     OW96439   2.795   3.164   3.055 -0.3291 -0.0742  0.1397
30116SOL    HW196440   2.790   3.249   3.100  0.0891 -0.5549  1.1285
30116SOL    HW296441   2.720   3.115   3.088 -0.2421 -0.2920  0.0149
30117SOL     OW96442  10.644   4.880   0.939  0.0705  0.1021  0.3352
30117SOL    HW196443  10.666   4.878   0.846  1.0936 -1.8362  0.5596
30117SOL    HW296444  10.724   4.852   0.983 -0.6178  0.2631  1.7529
30118SOL     OW96445   4.123   0.080   9.629 -0.9179 -0.0574  0.0960
30118SOL    HW196446   4.081   0.012   9.683 -2.2946  1.7936  1.5300
30118SOL    HW296447   4.214   0.080   9.657 -0.4821 -2.3333 -1.1002
30119SOL     OW96448   6.752   8.206   1.882 -0.2635 -0.3114 -0.2959
30119SOL    HW196449   6.750   8.292   1.841 -2.4710 -0.4421 -0.6015
30119SOL    HW296450   6.780   8.147   1.812 -2.7385 -0.3564 -1.3448
30120SOL     OW96451   7.523   8.897   4.199 -0.4059  0.2926  0.2029
30120SOL    HW196452   7.441   8.860   4.233 -1.1107  0.6174 -1.0633
30120SOL    HW296453   7.576   8.914   4.277  0.2112 -3.8234  0.8954
30121SOL     OW96454  10.218   7.965   9.769  0.0327 -0.2841 -0.3130
30121SOL    HW196455  10.202   8.043   9.715 -1.0257  0.3215  0.8215
30121SOL    HW296456  10.233   8.000   9.857 -0.6728 -1.3621  0.2567
30122SOL     OW96457  10.360   0.557   6.676 -0.1912  0.0456 -0.2181
30122SOL    HW196458  10.356   0.637   6.623  0.3338  1.4016  1.6893
30122SOL    HW296459  10.435   0.570   6.734 -0.8036 -1.3337  0.9466
30123SOL     OW96460   7.436   9.839   0.348  0.8659  0.8558  0.2653
30123SOL    HW196461   7.365   9.865   0.289  0.7538  0.7871  0.3692
30123SOL    HW296462   7.394   9.831   0.434  0.9423  0.5366  0.2737
30124SOL     OW96463   0.434   1.415   6.978 -0.2839 -0.3820  0.7324
30124SOL    HW196464   0.411   1.461   7.059  1.2041  1.0936  0.3945
30124SOL    HW296465   0.530   1.413   6.979 -0.2683 -0.9608 -0.6495
30125SOL     OW96466   0.983   1.645   6.901 -0.2528 -0.1628  0.0709
30125SOL    HW196467   0.909   1.653   6.840 -0.3178 -0.8584  0.0468
30125SOL    HW296468   0.942   1.628   6.986 -0.1869  1.3832  0.4385
30126SOL     OW96469   4.442   6.723   5.233 -0.9220 -0.6212 -0.4590
30126SOL    HW196470   4.537   6.715   5.228 -0.7653  0.2139  0.7086
30126SOL    HW296471   4.412   6.635   5.258 -0.5293 -1.0477 -1.4375
30127SOL     OW96472   7.656   5.029   4.768  0.3480 -0.1251 -0.2771
30127SOL    HW196473   7.726   5.073   4.721 -0.6235  3.3180  1.1845
30127SOL    HW296474   7.576   5.051   4.720 -0.1057 -1.0899 -0.0027
30128SOL     OW96475  10.910   7.411  10.795 -0.1530 -0.7700  0.4605
30128SOL    HW196476  10.893   7.491  10.745  0.0429 -0.5162  0.7969
30128SOL    HW296477  10.942   7.348  10.729 -1.4548 -0.9617 -0.0121
30129SOL     OW96478   4.799   5.230   8.226 -0.0095  0.6618  0.4336
30129SOL    HW196479   4.756   5.169   8.167 -0.3200  0.6670  0.6515
30129SOL    HW296480   4.888   5.195   8.235 -0.5774 -0.5913  1.6824
30130SOL     OW96481   1.566   4.296   5.240 -0.2117  0.0127  0.0669
30130SOL    HW196482   1.478   4.262   5.253  0.0207 -0.3913  0.6270
30130SOL    HW296483   1.591   4.333   5.325  1.1532 -2.2293  0.7094
30131SOL     OW96484   1.081   7.229   1.332 -0.2640 -0.1252 -0.0214
30131SOL    HW196485   0.999   7.198   1.294  0.3379 -0.1030 -1.3807
30131SOL    HW296486   1.133   7.259   1.258  0.7031  0.5355  0.8840
30132SOL     OW96487   9.652   4.188   9.296  0.2851  0.0142  0.1866
30132SOL    HW196488   9.620   4.128   9.230  1.9021 -1.0942  0.3490
30132SOL    HW296489   9.746   4.169   9.302  0.3488  0.7241  2.1207
30133SOL     OW96490   1.871   7.632  10.693 -1.1358 -0.1783  0.8898
30133SOL    HW196491   1.880   7.725  10.672  1.1729 -0.5536 -0.0208
30133SOL    HW296492   1.900   7.587  10.614  1.0914 -1.6430  2.4385
30134SOL     OW96493   6.286   4.630   4.706  0.1267 -0.4749 -0.0443
30134SOL    HW196494   6.330   4.704   4.665  0.7909 -0.7410  0.1756
30134SOL    HW296495   6.340   4.608   4.782 -1.0755  0.0052  0.9989
30135SOL     OW96496   2.680   7.391   7.726 -0.3138 -0.6306 -0.0406
30135SOL    HW196497   2.723   7.335   7.790 -1.4994 -2.8571 -1.1040
30135SOL    HW296498   2.746   7.458   7.705  1.7180 -2.4601  0.1770
30136SOL     OW96499   8.893   9.100   5.543 -0.1991  0.4158  0.6175
30136SOL    HW196500   8.859   9.066   5.461 -0.1077  1.9964 -0.1170
30136SOL    HW296501   8.967   9.155   5.518 -0.5645  1.4563  1.6731
30137SOL     OW96502   8.197   5.820   6.213  0.5488 -0.8018 -0.3716
30137SOL    HW196503   8.174   5.855   6.127  1.8236  0.3707 -0.2567
30137SOL    HW296504   8.288   5.791   6.204 -0.2796 -3.7498 -0.3240
30138SOL     OW96505   4.433   1.615   9.661  0.5002 -0.1985  0.0656
30138SOL    HW196506   4.409   1.655   9.577  1.7038 -0.0725 -0.2354
30138SOL    HW296507   4.383   1.664   9.726 -0.7385 -0.5463 -0.6022
30139SOL     OW96508   7.320   6.204   9.675  0.2964  0.2610  0.3344
30139SOL    HW196509   7.251   6.269   9.661  1.3437  1.8348  1.8999
30139SOL    HW296510   7.288   6.124   9.635 -0.6725  1.9611 -2.5390
30140SOL     OW96511   2.382   7.089   9.991 -0.6134 -0.3797 -0.2496
30140SOL    HW196512   2.461   7.053   9.950 -0.7721 -0.4216 -0.5207
30140SOL    HW296513   2.372   7.175   9.950 -0.5954 -0.2925 -0.0688
30141SOL     OW96514   3.228   4.704   4.324 -0.1662  0.4393 -0.4670
30141SOL    HW196515   3.238   4.633   4.261  1.2437  0.5590 -0.4021
30141SOL    HW296516   3.275   4.778   4.286 -1.7810  1.4436 -0.6284
30142SOL     OW96517   3.361   4.887  10.804 -0.2930  0.4927 -0.4897
30142SOL    HW196518   3.357   4.886  10.900  1.4460  2.0280 -0.3336
30142SOL    HW296519   3.279   4.928  10.777 -1.5276 -1.3855  0.2053
30143SOL     OW96520   2.929   1.907   5.276  0.1626  0.7456 -0.2226
30143SOL    HW196521   2.860   1.880   5.215 -0.4577  1.1010  0.3010
30143SOL    HW296522   3.000   1.844   5.262 -1.0761 -0.9539  0.6771
30144SOL     OW96523   7.443  10.707   5.145 -0.0855 -0.3955  0.0443
30144SOL    HW196524   7.461  10.761   5.068 -0.1575 -1.5271 -0.8018
30144SOL    HW296525   7.348  10.711   5.156 -0.0767 -0.2383  0.0602
30145SOL     OW96526   7.976   9.965   2.198  0.3014  0.5207 -0.2886
30145SOL    HW196527   8.048  10.002   2.250  0.6715  0.6611 -0.8863
30145SOL    HW296528   8.016   9.943   2.114 -0.2061 -0.0494 -0.3902
30146SOL     OW96529   0.903   5.599   7.484 -0.3233  0.4587 -0.4146
30146SOL    HW196530   0.966   5.623   7.416  0.1084  1.5763  0.3513
30146SOL    HW296531   0.828   5.565   7.437  0.4106  0.1661 -1.3963
30147SOL     OW96532   4.991   5.115   8.593  0.0533  0.3754 -0.2963
30147SOL    HW196533   5.021   5.205   8.608 -0.9135  0.4737  1.2140
30147SOL    HW296534   4.954   5.087   8.676  1.1639 -1.7911 -0.4481
30148SOL     OW96535   6.761   1.884  10.752 -0.4320  0.2820  0.0622
30148SOL    HW196536   6.794   1.802  10.789  1.5485 -0.2413 -2.5915
30148SOL    HW296537   6.668   1.867  10.736 -0.4049 -0.8825  0.9666
30149SOL     OW96538   9.641   3.655   9.593  0.0146  0.5615 -0.0920
30149SOL    HW196539   9.640   3.586   9.526  1.1464 -0.1537  0.5916
30149SOL    HW296540   9.575   3.718   9.563 -0.7198 -0.5750 -0.9808
30150SOL     OW96541   7.682   0.525   7.269  0.6252 -0.0475 -0.0684
30150SOL    HW196542   7.771   0.497   7.250 -0.0085 -1.2095 -1.4956
30150SOL    HW296543   7.657   0.578   7.194 -0.3184 -0.8225 -0.3254
30151SOL     OW96544   4.456   2.850   6.272  0.3047  0.4492 -0.2030
30151SOL    HW196545   4.401   2.907   6.325  1.0129  1.3581 -0.4135
30151SOL    HW296546   4.497   2.790   6.335  0.6093  1.0703  0.1904
30152SOL     OW96547   0.174   0.586   8.061 -0.7494 -0.4153 -1.0472
30152SOL    HW196548   0.108   0.580   7.992  0.6415  1.2609 -2.6380
30152SOL    HW296549   0.254   0.613   8.016 -0.0141  1.8166  1.3399
30153SOL     OW96550   3.229   8.651   3.897 -0.0287 -0.4246  0.2127
30153SOL    HW196551   3.167   8.579   3.913 -0.5257 -0.3873 -1.3933
30153SOL    HW296552   3.308   8.608   3.864 -0.3242 -0.2616 -0.7430
30154SOL     OW96553  10.542   3.934   1.145  0.3938 -0.4354 -0.2777
30154SOL    HW196554  10.577   3.989   1.215  0.1898 -1.5954  0.7538
30154SOL    HW296555  10.596   3.855   1.146  0.7220 -0.2737 -1.7837
30155SOL     OW96556   8.722  10.740   7.517  0.1499  0.1629  0.5970
30155SOL    HW196557   8.723  10.830   7.547 -1.1495  0.5353 -0.3572
30155SOL    HW296558   8.653  10.698   7.570  0.2807 -0.0899  0.5695
30156SOL     OW96559   3.069   4.392   2.110 -0.0169 -0.4064 -0.1629
30156SOL    HW196560   3.063   4.413   2.017  3.6500 -0.1752 -0.5003
30156SOL    HW296561   3.027   4.466   2.155  3.3372  2.6558 -1.5986
30157SOL     OW96562   4.542   6.404  10.924  0.1063  0.2695  0.0970
30157SOL    HW196563   4.563   6.312  10.938  0.5447  0.3986  0.2953
30157SOL    HW296564   4.616   6.439  10.875 -0.2847  0.4027 -0.4073
30158SOL     OW96565   3.083   2.944   5.362  0.5028  0.7502 -0.1238
30158SOL    HW196566   3.105   2.996   5.439  0.7915  1.4005 -0.6386
30158SOL    HW296567   3.025   3.000   5.310 -2.0800 -0.7511  0.9786
30159SOL     OW96568   7.695   8.946   2.450 -0.6235  0.1566 -0.0897
30159SOL    HW196569   7.603   8.966   2.470 -1.4870 -1.0111 -2.3899
30159SOL    HW296570   7.709   8.985   2.363  0.9923  0.1199  0.1317
30160SOL     OW96571   5.502   0.875   7.162 -0.1399 -0.2837  0.1749
30160SOL    HW196572   5.540   0.954   7.126  0.2732  0.2562  1.7448
30160SOL    HW296573   5.418   0.866   7.116  0.3601  0.3472 -0.9037
30161SOL     OW96574   3.226   1.183   0.978 -0.1791  0.3949  0.0113
30161SOL    HW196575   3.266   1.266   1.001 -1.4083  0.7037  1.1453
30161SOL    HW296576   3.224   1.133   1.060  0.0671 -0.5545 -0.5397
30162SOL     OW96577   1.093   1.299   6.395  0.3524  0.6694 -0.0826
30162SOL    HW196578   1.188   1.309   6.385  0.1528  1.6396 -1.1166
30162SOL    HW296579   1.079   1.300   6.489  1.3454  0.7481  0.0784
30163SOL     OW96580   2.730   6.823   4.243 -0.2091 -0.0134 -0.9046
30163SOL    HW196581   2.748   6.811   4.149  0.6957  2.0600 -1.0595
30163SOL    HW296582   2.659   6.887   4.245 -1.5226 -1.4271 -0.1424
30164SOL     OW96583   8.534   7.384   3.039  0.2193  0.6248 -0.1576
30164SOL    HW196584   8.552   7.306   3.093  3.7958 -0.3547 -2.3889
30164SOL    HW296585   8.584   7.454   3.082  2.7944 -0.0812 -1.7332
30165SOL     OW96586   1.462   2.630   1.113 -0.0238  0.0708  0.2776
30165SOL    HW196587   1.386   2.596   1.066 -0.5158 -1.0652  1.7815
30165SOL    HW296588   1.537   2.592   1.068 -0.3765  0.3760 -0.5954
30166SOL     OW96589  10.704   6.677   9.934  0.3371 -0.2529  0.7491
30166SOL    HW196590  10.769   6.621   9.891 -0.2161 -0.6967  0.4902
30166SOL    HW296591  10.727   6.766   9.906  0.9617 -0.3818  0.8286
30167SOL     OW96592   1.013   1.718   0.893  0.7708 -0.1591  0.6355
30167SOL    HW196593   0.993   1.796   0.944  0.8210  0.8338 -0.7966
30167SOL    HW296594   1.034   1.651   0.958 -1.4723  0.3579  2.0118
30168SOL     OW96595   6.842   3.879   4.855  0.2115  0.6907 -0.1074
30168SOL    HW196596   6.863   3.787   4.870 -0.7919  0.5066  0.2597
30168SOL    HW296597   6.879   3.899   4.769 -2.6653 -1.0939 -1.9371
30169SOL     OW96598   4.537   0.072   6.876 -0.6213 -0.8791  0.0564
30169SOL    HW196599   4.487   0.050   6.955 -2.1934 -0.5443 -0.8075
30169SOL    HW296600   4.561  -0.012   6.838 -0.9212 -1.0460  0.2364
30170SOL     OW96601   9.887   0.549   6.789 -0.4403 -0.4202  0.1428
30170SOL    HW196602   9.840   0.606   6.728 -1.6279 -1.6969 -0.2137
30170SOL    HW296603   9.962   0.517   6.740  0.2017  0.7822  0.3311
30171SOL     OW96604   4.507   8.377   5.801 -0.4559 -0.4539 -0.1126
30171SOL    HW196605   4.602   8.377   5.792 -0.6408  0.5970 -3.0810
30171SOL    HW296606   4.489   8.457   5.851  0.1385  0.8422 -1.8779
30172SOL     OW96607   1.683   9.208   4.692  0.7729 -0.3501 -0.9803
30172SOL    HW196608   1.605   9.153   4.677 -0.7415  0.6038  2.2671
30172SOL    HW296609   1.670   9.284   4.636 -0.8443 -0.1161 -0.3712
30173SOL     OW96610   4.886   9.391   3.075  0.3792  0.0678  0.1312
30173SOL    HW196611   4.826   9.413   3.145 -0.2073 -1.1535  0.0448
30173SOL    HW296612   4.832   9.344   3.011  0.9967  0.7418 -0.9228
30174SOL     OW96613   9.514   8.376   3.832  0.4220 -0.2000  0.5114
30174SOL    HW196614   9.437   8.325   3.858 -0.0850  0.3606  0.1369
30174SOL    HW296615   9.560   8.394   3.915  0.4151 -0.9470  0.6810
30175SOL     OW96616   9.148   0.307   8.440  0.0662 -0.0006  0.8084
30175SOL    HW196617   9.207   0.262   8.501  1.7578 -1.5984 -1.8185
30175SOL    HW296618   9.204   0.367   8.392 -1.1702  1.0064  0.5579
30176SOL     OW96619   9.959  10.528  10.305 -0.9951 -0.3657  0.2540
30176SOL    HW196620   9.901  10.469  10.256 -1.2113 -0.1297  0.2210
30176SOL    HW296621   9.980  10.480  10.385  0.2171 -1.1967 -0.5246
30177SOL     OW96622   8.181   9.108   3.343  0.0972  0.1174 -0.5256
30177SOL    HW196623   8.246   9.080   3.279 -0.2550 -1.2856 -0.3008
30177SOL    HW296624   8.227   9.103   3.427 -0.4542 -1.5617 -0.2828
30178SOL     OW96625   3.080   8.793   6.109  0.0398  0.5223  0.7092
30178SOL    HW196626   3.063   8.870   6.055 -0.8879  0.1592  0.4726
30178SOL    HW296627   3.103   8.829   6.195  0.1461  1.0648  0.4612
30179SOL     OW96628   8.380   5.175   4.795 -0.6491  0.6088  0.0081
30179SOL    HW196629   8.405   5.120   4.870 -0.2209  0.8260  0.0248
30179SOL    HW296630   8.325   5.244   4.833 -3.8484 -1.4977 -0.3918
30180SOL     OW96631  10.189   0.867   5.786  0.3099  0.1495 -0.0796
30180SOL    HW196632  10.168   0.961   5.785 -0.1901  0.0409 -0.5956
30180SOL    HW296633  10.254   0.857   5.716 -0.3217 -0.0267 -0.6591
30181SOL     OW96634   2.088  10.165   9.877 -0.0048  0.1189  0.1155
30181SOL    HW196635   2.004  10.124   9.858 -0.7956  1.3588  0.7944
30181SOL    HW296636   2.067  10.236   9.937  1.4572  0.8192 -0.1503
30182SOL     OW96637   5.457   7.676   6.934  0.0998 -0.1425 -0.7992
30182SOL    HW196638   5.486   7.737   7.002 -0.1267 -0.1360 -0.7086
30182SOL    HW296639   5.492   7.713   6.853 -0.5902  0.4701 -0.8293
30183SOL     OW96640   7.562   2.996   1.054  0.3818 -0.2395 -0.5957
30183SOL    HW196641   7.482   2.965   1.097  0.3932  0.3816 -0.1058
30183SOL    HW296642   7.632   2.975   1.115  0.5212 -0.2547 -0.7611
30184SOL     OW96643   0.593   0.819   8.446  0.1063 -0.5637 -0.1347
30184SOL    HW196644   0.590   0.915   8.438  1.2148 -0.5524 -0.6534
30184SOL    HW296645   0.686   0.799   8.453 -0.0760 -1.6533 -0.6199
30185SOL     OW96646   3.683   8.589   3.898 -0.5420  0.5607 -0.7687
30185SOL    HW196647   3.774   8.584   3.929 -0.5097 -0.9753 -1.0570
30185SOL    HW296648   3.676   8.676   3.860  0.2317  1.4699  1.0202
30186SOL     OW96649   2.883   4.483   5.494  0.0593 -0.0796  0.2527
30186SOL    HW196650   2.947   4.435   5.442 -0.3433  0.4232 -0.7385
30186SOL    HW296651   2.859   4.557   5.439 -0.9426  0.0573  0.8586
30187SOL     OW96652   8.133  10.846   5.898  0.2471  0.0632 -0.3664
30187SOL    HW196653   8.135  10.920   5.838 -1.7299  0.4722 -0.0025
30187SOL    HW296654   8.064  10.869   5.961  0.4793 -1.5196  0.5065
30188SOL     OW96655   2.874   5.345   2.128 -0.5211  0.1812  0.3156
30188SOL    HW196656   2.849   5.266   2.174 -1.6929  0.4505  0.1837
30188SOL    HW296657   2.792   5.394   2.118  0.0145  0.9595 -0.4477
30189SOL     OW96658   2.335   3.262   3.150 -0.1502  0.0712 -0.4344
30189SOL    HW196659   2.350   3.354   3.127  0.4194  0.2657  0.6707
30189SOL    HW296660   2.279   3.229   3.080  1.2119  0.7295 -1.8942
30190SOL     OW96661   6.563   3.930   3.657 -0.1750 -0.0760  0.2671
30190SOL    HW196662   6.480   3.883   3.650  0.4954 -1.2415 -0.2710
30190SOL    HW296663   6.539   4.022   3.660 -1.4470 -0.3433 -0.7473
30191SOL     OW96664   5.356   8.896   6.852  0.4814  0.5432  0.2989
30191SOL    HW196665   5.378   8.865   6.764  0.4197  0.1532  0.4189
30191SOL    HW296666   5.386   8.826   6.910  3.0997  1.9912  0.8323
30192SOL     OW96667   1.671   1.181   7.042  0.6221 -0.1757  0.4671
30192SOL    HW196668   1.576   1.192   7.047  0.6401  0.6420 -0.6858
30192SOL    HW296669   1.692   1.126   7.117 -0.7025  0.0138  1.0113
30193SOL     OW96670  10.579   7.287  10.497  0.1141 -0.0918  0.3653
30193SOL    HW196671  10.579   7.317  10.588 -0.9676  0.4114  0.2167
30193SOL    HW296672  10.518   7.212  10.498 -1.3886  1.0661 -0.2734
30194SOL     OW96673   5.021   6.387   9.051 -0.0706 -0.1631 -0.3866
30194SOL    HW196674   4.949   6.426   9.100 -0.0079  0.8387 -1.0659
30194SOL    HW296675   5.079   6.460   9.031 -0.1097 -0.5177 -1.9701
30195SOL     OW96676   9.243   7.432   3.217  0.8202  0.3885  0.5435
30195SOL    HW196677   9.328   7.474   3.231 -0.0351  1.6844  2.3011
30195SOL    HW296678   9.182   7.505   3.206 -0.2097 -0.4942  0.2540
30196SOL     OW96679   5.971   7.568   6.372  0.5958 -0.0313  0.4752
30196SOL    HW196680   6.029   7.501   6.335 -0.5806 -1.1883  0.6695
30196SOL    HW296681   5.896   7.570   6.313  1.1765  2.0727 -0.2623
30197SOL     OW96682   1.761   9.584   3.119 -0.0867  0.3141 -0.7266
30197SOL    HW196683   1.819   9.657   3.097  1.2576 -0.6841 -0.6244
30197SOL    HW296684   1.690   9.590   3.055  0.1403  1.5345 -0.8974
30198SOL     OW96685   2.564   5.802   2.415 -0.1914 -0.3211  0.3137
30198SOL    HW196686   2.486   5.790   2.361  0.5877 -1.6750 -0.5418
30198SOL    HW296687   2.550   5.887   2.457 -2.6374 -0.9809  1.0396
30199SOL     OW96688   4.896   6.063   5.751  0.1751  0.6841 -0.7129
30199SOL    HW196689   4.916   6.028   5.838 -0.5561  2.9689  0.4394
30199SOL    HW296690   4.946   6.144   5.745 -2.4427  2.3904 -0.9633
30200SOL     OW96691   6.490   7.645   9.676  0.3938  0.3233  0.2047
30200SOL    HW196692   6.549   7.720   9.682  0.1658  0.4299  1.1763
30200SOL    HW296693   6.544   7.570   9.700  0.7451  0.0894 -1.2078
30201SOL     OW96694   4.197   1.906   2.546 -0.6071  0.6887  0.3488
30201SOL    HW196695   4.243   1.822   2.546 -1.1205  0.4080  0.3315
30201SOL    HW296696   4.236   1.954   2.619 -0.8776  0.1207  0.8756
30202SOL     OW96697   7.344   5.011   8.486  0.0212 -0.2937  0.1574
30202SOL    HW196698   7.277   5.079   8.485 -0.2821 -0.5771  0.9372
30202SOL    HW296699   7.384   5.018   8.573 -0.2028 -1.2980  0.3441
30203SOL     OW96700   6.990  10.540  10.463  0.5061 -0.1021  0.0584
30203SOL    HW196701   6.964  10.457  10.503  0.2832  0.6023  1.4118
30203SOL    HW296702   6.911  10.572  10.419  0.5590 -0.5386 -0.3602
30204SOL     OW96703   3.046   8.744   5.331  0.2874  0.4374 -0.4950
30204SOL    HW196704   3.062   8.825   5.381  2.0895 -0.3338  0.2628
30204SOL    HW296705   2.951   8.735   5.329  0.1183  1.5115  1.1541
30205SOL     OW96706   1.464   6.238   0.886 -0.1271 -0.5879 -0.2784
30205SOL    HW196707   1.457   6.222   0.792 -2.0304  0.4280 -0.3686
30205SOL    HW296708   1.551   6.276   0.898 -0.6965  1.4483 -2.0323
30206SOL     OW96709   1.322  10.646   8.437 -0.3774 -0.1097 -0.6154
30206SOL    HW196710   1.375  10.664   8.515 -0.6312  0.3415 -0.5411
30206SOL    HW296711   1.276  10.564   8.458  0.8926 -0.9448 -1.0080
30207SOL     OW96712   7.315   0.730   3.371  0.3115  0.4104 -0.4346
30207SOL    HW196713   7.296   0.638   3.389  0.5240  0.7768  1.9128
30207SOL    HW296714   7.286   0.743   3.280 -0.4659 -1.7422 -0.5526
30208SOL     OW96715   0.269   3.709   6.784 -0.9187  0.2720 -0.0587
30208SOL    HW196716   0.309   3.637   6.834  0.7615  1.5438  0.5070
30208SOL    HW296717   0.197   3.739   6.840 -0.6836  0.0125  0.3938
30209SOL     OW96718   3.917  10.249   4.368  0.4004  0.3515 -0.7407
30209SOL    HW196719   3.862  10.211   4.437 -0.3458 -1.1521 -2.0929
30209SOL    HW296720   3.863  10.318   4.329 -0.2852 -0.6474 -1.6003
30210SOL     OW96721   8.799   6.882   9.887  0.4605 -0.1936  0.1363
30210SOL    HW196722   8.725   6.929   9.848 -0.5951 -2.2758 -0.5824
30210SOL    HW296723   8.779   6.878   9.980 -0.2539 -0.5797 -0.0288
30211SOL     OW96724   1.917   9.135   1.696  0.1595  0.1497 -0.0906
30211SOL    HW196725   1.828   9.107   1.718  0.4012  0.1272  0.9446
30211SOL    HW296726   1.950   9.067   1.637  0.0181 -0.6843  0.7564
30212SOL     OW96727   8.949   8.858   1.420 -0.1449 -0.4180 -0.0835
30212SOL    HW196728   8.888   8.861   1.493 -1.2220  0.1716 -0.9881
30212SOL    HW296729   8.952   8.947   1.387  2.2588 -0.1186  0.7553
30213SOL     OW96730   8.451   9.207  10.187  0.6938  0.4820  0.0384
30213SOL    HW196731   8.430   9.250  10.104  0.1558 -0.0638 -0.1130
30213SOL    HW296732   8.544   9.225  10.201  0.8061  0.5024 -0.7222
30214SOL     OW96733   1.542  10.306   9.507  0.2259  0.4469  0.0025
30214SOL    HW196734   1.537  10.240   9.438  1.1283  0.3933 -0.0292
30214SOL    HW296735   1.505  10.385   9.468  0.5023  0.3521 -0.4588
30215SOL     OW96736   2.593   4.288   8.676 -0.3638  0.0159 -0.0979
30215SOL    HW196737   2.580   4.287   8.581 -0.0214  2.9223 -0.2636
30215SOL    HW296738   2.671   4.342   8.689 -0.1003 -0.7519  1.8407
30216SOL     OW96739  10.220   6.196   5.474  0.1159  0.1160 -0.2962
30216SOL    HW196740  10.224   6.292   5.464 -0.7649  0.3867  1.5678
30216SOL    HW296741  10.132   6.173   5.443 -0.8631  0.3677  2.0880
30217SOL     OW96742  10.095   0.391   6.665  0.4858  0.1073 -0.4124
30217SOL    HW196743  10.165   0.454   6.681 -0.4565  0.9567  0.4758
30217SOL    HW296744  10.103   0.370   6.572  2.0890 -0.0533 -0.2819
30218SOL     OW96745   0.710   3.968   7.383 -0.6756 -0.2921  0.1736
30218SOL    HW196746   0.757   3.985   7.465 -0.2537  0.3926 -0.2019
30218SOL    HW296747   0.723   3.875   7.367  1.9702  0.1580 -0.7589
30219SOL     OW96748   2.753   7.867   2.730 -0.0600 -0.2409 -0.8421
30219SOL    HW196749   2.670   7.870   2.779 -1.4809  0.6169 -3.1362
30219SOL    HW296750   2.820   7.871   2.798 -1.8901  1.5664  1.0234
30220SOL     OW96751   6.360   5.545   9.693 -0.3526 -0.0316 -0.1794
30220SOL    HW196752   6.430   5.480   9.702 -0.0395  0.3814  0.5645
30220SOL    HW296753   6.284   5.495   9.664 -0.7370 -1.1743  2.4377
30221SOL     OW96754   9.577   1.656   0.085 -0.0495 -0.0109 -0.3298
30221SOL    HW196755   9.490   1.685   0.057 -0.6534 -0.9396  0.5386
30221SOL    HW296756   9.576   1.561   0.075 -0.0390 -0.3135  2.0467
30222SOL     OW96757   9.360   0.666   1.599  0.2165  0.0104 -0.0516
30222SOL    HW196758   9.421   0.686   1.670 -0.5235 -0.8059  0.8596
30222SOL    HW296759   9.274   0.675   1.640 -0.1985 -1.5553 -0.5284
30223SOL     OW96760   2.447   1.072   8.847  0.3723  0.2556  0.3169
30223SOL    HW196761   2.422   0.982   8.830  1.6623 -0.0023 -0.3510
30223SOL    HW296762   2.501   1.068   8.926 -0.4500  0.5954  0.9042
30224SOL     OW96763   6.365   1.601   2.492 -0.4628 -0.3441  0.3280
30224SOL    HW196764   6.381   1.631   2.581 -1.4724 -1.4555  0.9150
30224SOL    HW296765   6.289   1.544   2.499 -0.1171 -1.0409 -1.1277
30225SOL     OW96766   2.486   4.814   6.643  0.0486 -0.7123  0.1311
30225SOL    HW196767   2.486   4.741   6.705  1.4930  0.4237  1.5640
30225SOL    HW296768   2.507   4.775   6.559 -0.8316 -2.1485  0.5476
30226SOL     OW96769   7.300   2.763   8.830 -0.4077 -0.2747 -0.4814
30226SOL    HW196770   7.289   2.854   8.806 -2.5465 -0.5692 -0.7822
30226SOL    HW296771   7.239   2.749   8.902  0.6315 -1.2351  0.2587
30227SOL     OW96772   0.347  10.354   6.780  0.5334 -0.1268 -0.7411
30227SOL    HW196773   0.433  10.325   6.808  0.4522 -1.1753 -1.5185
30227SOL    HW296774   0.323  10.294   6.709  0.6511  2.2271 -2.9221
30228SOL     OW96775   3.297   1.385   2.661  0.1306 -0.5338  0.3195
30228SOL    HW196776   3.329   1.314   2.717  0.8122  0.2305  0.9223
30228SOL    HW296777   3.205   1.397   2.687  0.0847 -1.0218  0.3847
30229SOL     OW96778   3.620   1.765   8.839  0.2254  0.5221 -0.4102
30229SOL    HW196779   3.632   1.699   8.907  0.5428 -0.2421 -1.1851
30229SOL    HW296780   3.676   1.735   8.767  1.2280  2.2184 -0.3797
30230SOL     OW96781   6.326  10.067   1.690  0.1261 -0.0547  0.1683
30230SOL    HW196782   6.346   9.985   1.735  0.1657  0.9081  2.0206
30230SOL    HW296783   6.370  10.134   1.742  0.0083  1.1613 -1.2348
30231SOL     OW96784   6.035   8.828   1.338 -0.2400 -0.0665 -0.3622
30231SOL    HW196785   6.099   8.885   1.296  0.6238 -0.6189  0.1673
30231SOL    HW296786   6.086   8.752   1.367 -1.2698 -0.8677 -0.5916
30232SOL     OW96787   1.118   4.864   8.637  0.9026  0.1308  0.1746
30232SOL    HW196788   1.149   4.947   8.601  0.3438  0.5104  0.5468
30232SOL    HW296789   1.069   4.823   8.565  1.4744 -0.0457 -0.1208
30233SOL     OW96790   4.524   0.130   5.923 -0.4151 -0.5767 -0.6876
30233SOL    HW196791   4.571   0.195   5.975  0.1276 -0.6688 -1.0496
30233SOL    HW296792   4.476   0.078   5.987  0.6007 -0.9687 -0.2233
30234SOL     OW96793   8.802   1.100   5.571  0.5538 -0.3460 -0.0769
30234SOL    HW196794   8.885   1.142   5.552  0.3053  0.1486 -0.0699
30234SOL    HW296795   8.737   1.152   5.525  0.0233  0.4155  1.4620
30235SOL     OW96796   1.445   7.697   7.434  0.0950 -0.7778 -0.1100
30235SOL    HW196797   1.372   7.656   7.386 -2.2216  0.3380  2.2021
30235SOL    HW296798   1.457   7.782   7.391 -0.8848 -0.4318  0.2776
30236SOL     OW96799  10.739  10.644  10.883  0.4109 -0.0479  0.6839
30236SOL    HW196800  10.780  10.719  10.840 -0.0755  0.4373  1.0550
30236SOL    HW296801  10.680  10.683  10.947 -0.1037 -0.7442  0.6382
30237SOL     OW96802   6.228   5.874   2.198  0.8981 -0.5452  0.2214
30237SOL    HW196803   6.228   5.954   2.144  0.2886  0.2121  1.3040
30237SOL    HW296804   6.143   5.834   2.181  1.7484 -1.7526 -1.4038
30238SOL     OW96805   4.319   5.852   2.686 -0.8285  0.0674  0.1838
30238SOL    HW196806   4.257   5.923   2.703 -0.7863  0.0064  0.6042
30238SOL    HW296807   4.294   5.818   2.600  0.1031  1.5716 -0.7033
30239SOL     OW96808   3.646   4.730   7.421  0.0412  0.1440  0.1481
30239SOL    HW196809   3.677   4.742   7.331 -0.5670  1.4970  0.0928
30239SOL    HW296810   3.724   4.703   7.470  0.3092 -0.9468 -0.8308
30240SOL     OW96811   9.443   2.179   8.008  0.1348 -0.6200  0.1670
30240SOL    HW196812   9.372   2.116   7.999 -1.2942  0.3397  3.2873
30240SOL    HW296813   9.518   2.128   8.036  0.2700 -1.4232 -1.5369
30241SOL     OW96814   2.419   1.819   8.760 -0.2719  0.3721  0.1410
30241SOL    HW196815   2.330   1.785   8.767 -0.1316 -0.1507 -0.5023
30241SOL    HW296816   2.449   1.826   8.851 -0.0593 -1.9130  0.2984
30242SOL     OW96817   4.212   9.412   9.698  0.7385 -0.3698 -0.7792
30242SOL    HW196818   4.195   9.430   9.605  1.8641 -1.3667 -1.1923
30242SOL    HW296819   4.126   9.385   9.732  0.0273  1.2248 -1.2023
30243SOL     OW96820   4.184   5.896   0.267  0.4300  0.1664  0.1330
30243SOL    HW196821   4.111   5.907   0.328  0.0196  0.6273 -0.4303
30243SOL    HW296822   4.147   5.916   0.181  0.9979 -0.4866 -0.2752
30244SOL     OW96823   5.706   4.287   7.707 -0.2902  0.2016  0.0794
30244SOL    HW196824   5.644   4.257   7.774 -2.1366  1.0007 -1.1667
30244SOL    HW296825   5.726   4.209   7.656 -3.4130  0.4758 -1.8554
30245SOL     OW96826   0.538   1.057   7.821 -0.3149 -0.3012 -0.2216
30245SOL    HW196827   0.457   1.108   7.823 -0.4600 -0.5542  0.3177
30245SOL    HW296828   0.527   0.996   7.749  0.8314  2.0167 -2.5568
30246SOL     OW96829   5.119   7.963  10.329  0.0629  0.1234  0.2901
30246SOL    HW196830   5.188   7.901  10.304  0.1984  0.2924  0.2482
30246SOL    HW296831   5.130   8.037  10.269  0.1045  0.3304  0.5530
30247SOL     OW96832   0.387   1.326   2.564 -0.7159  0.2194  0.6215
30247SOL    HW196833   0.312   1.316   2.506 -0.2370  0.0210  0.0276
30247SOL    HW296834   0.415   1.417   2.554  1.4413 -0.6220 -2.0813
30248SOL     OW96835   1.708   1.560   7.746 -0.3707 -0.5717 -0.2464
30248SOL    HW196836   1.704   1.655   7.745 -1.5714 -0.5885 -1.9359
30248SOL    HW296837   1.638   1.533   7.806 -0.3037 -0.4008 -0.0912
30249SOL     OW96838   8.924   7.805   5.922 -0.4302  0.1763 -0.2789
30249SOL    HW196839   8.939   7.871   5.989  1.6410 -1.2277  0.7456
30249SOL    HW296840   8.837   7.770   5.940 -1.1309  1.8824 -0.2271
30250SOL     OW96841   8.653   0.931   3.646  0.1394 -0.0588  0.0092
30250SOL    HW196842   8.594   0.987   3.595 -1.2911 -0.5091  1.1090
30250SOL    HW296843   8.598   0.857   3.673  1.1046 -0.2951  1.4190
30251SOL     OW96844   3.563  10.206   9.168  0.0262 -0.0366  0.2422
30251SOL    HW196845   3.558  10.222   9.074 -0.5859  0.3837  0.3400
30251SOL    HW296846   3.559  10.111   9.177  2.8405 -0.3163 -0.3091
30252SOL     OW96847   3.406   6.982   4.766  0.2170 -0.2712  0.4432
30252SOL    HW196848   3.436   7.072   4.755 -0.2768 -0.1396  0.1501
30252SOL    HW296849   3.428   6.961   4.857  0.8386 -0.0478  0.3465
30253SOL     OW96850   6.294   2.613   8.842 -0.2059  0.4777  0.5602
30253SOL    HW196851   6.215   2.599   8.895  0.2237 -0.8627  0.8796
30253SOL    HW296852   6.306   2.531   8.795  0.5981  0.9274 -0.0322
30254SOL     OW96853   3.568   7.035   6.737  0.8721  0.0572 -0.5956
30254SOL    HW196854   3.577   6.990   6.821  1.0656  0.0522 -0.6189
30254SOL    HW296855   3.556   6.965   6.673  3.6343 -0.1649 -0.9952
30255SOL     OW96856   7.775   7.200   3.554 -0.2410  0.2763 -0.5566
30255SOL    HW196857   7.739   7.278   3.596 -0.9505 -0.2749 -0.1319
30255SOL    HW296858   7.754   7.128   3.614  0.9720 -0.1562 -0.6282
30256SOL     OW96859   8.564   5.981   9.257 -0.2534 -0.0900  0.4324
30256SOL    HW196860   8.529   6.024   9.335 -1.0641  1.7424 -0.8672
30256SOL    HW296861   8.650   6.021   9.244 -0.8699  0.9509 -0.5960
30257SOL     OW96862   2.133   0.932   4.618 -0.1858 -0.0621  0.2653
30257SOL    HW196863   2.095   0.864   4.673  0.5697 -2.9445 -2.4643
30257SOL    HW296864   2.064   0.953   4.555  0.2242  0.2587 -0.0844
30258SOL     OW96865   2.054   9.571   4.951  0.4044  0.3598 -0.7853
30258SOL    HW196866   2.113   9.510   4.995 -0.6971 -1.1080 -1.2960
30258SOL    HW296867   2.027   9.526   4.872  0.5940  2.0739 -1.8805
30259SOL     OW96868   7.446   4.091   6.249  0.0757 -0.3333 -0.5053
30259SOL    HW196869   7.374   4.044   6.207 -0.6349 -0.1530  0.4771
30259SOL    HW296870   7.434   4.074   6.342  0.6842  0.5758 -0.2530
30260SOL     OW96871   4.243   3.935  10.064 -0.2880 -0.4129  0.3042
30260SOL    HW196872   4.167   3.954  10.009  0.4246 -0.0813 -0.5837
30260SOL    HW296873   4.309   3.999  10.037  0.4769 -1.0083  0.7303
30261SOL     OW96874   1.288   1.795   5.791  0.2212 -0.2222  0.0051
30261SOL    HW196875   1.226   1.788   5.718  1.9265 -1.7011 -1.3829
30261SOL    HW296876   1.249   1.861   5.849 -1.8742  0.0008 -1.5404
30262SOL     OW96877   8.149   1.114   7.065  0.3115  0.1621 -0.1689
30262SOL    HW196878   8.061   1.099   7.100  0.2025  0.0636 -0.4809
30262SOL    HW296879   8.153   1.208   7.049 -1.1094 -0.2114 -3.6911
30263SOL     OW96880   7.567   6.980   0.771  0.1446 -0.1718  0.0689
30263SOL    HW196881   7.588   7.058   0.822 -1.0702 -0.2946  0.8106
30263SOL    HW296882   7.534   6.917   0.836  2.5762 -1.9244 -0.2437
30264SOL     OW96883   7.310   7.012   0.645 -1.0247  0.2931 -0.3258
30264SOL    HW196884   7.402   7.038   0.655 -1.5659  2.0491  0.4555
30264SOL    HW296885   7.301   6.935   0.701 -0.0998  0.3145 -0.1316
30265SOL     OW96886   4.677   8.214   7.333  0.3467 -0.4010  0.1992
30265SOL    HW196887   4.698   8.129   7.294  2.3242  0.6496 -1.2365
30265SOL    HW296888   4.615   8.254   7.273  1.7621  0.3542 -0.8190
30266SOL     OW96889   0.836   2.195   8.435 -0.4268  0.2826 -0.7125
30266SOL    HW196890   0.778   2.255   8.389 -2.7037 -1.4205 -0.2659
30266SOL    HW296891   0.821   2.110   8.393  0.0425 -0.6401  0.8907
30267SOL     OW96892   8.683   1.424   0.438 -0.4926  0.1813  0.4282
30267SOL    HW196893   8.764   1.375   0.448 -0.6997 -0.1318  0.5875
30267SOL    HW296894   8.703   1.492   0.374 -0.4469 -0.6362 -0.4404
30268SOL     OW96895   5.419   7.310   1.869 -0.0836 -0.6819 -0.2233
30268SOL    HW196896   5.472   7.385   1.896 -0.3662 -0.5487 -0.0310
30268SOL    HW296897   5.358   7.296   1.942  1.0279 -2.1268  0.4876
30269SOL     OW96898   5.489   8.494   5.507  0.7875  0.4382 -0.1623
30269SOL    HW196899   5.543   8.470   5.432 -0.8903 -0.9862 -0.9800
30269SOL    HW296900   5.399   8.491   5.474 -0.0908 -1.2513  2.1118
30270SOL     OW96901  10.093   9.917   1.484  0.5541 -0.0127 -0.4495
30270SOL    HW196902  10.058   9.957   1.404 -0.1152  0.5321  0.1069
30270SOL    HW296903  10.019   9.915   1.545  1.8393  2.9439  1.4364
30271SOL     OW96904   0.577   1.011   7.280 -0.0061 -0.3198 -0.7902
30271SOL    HW196905   0.636   1.032   7.208 -1.0726  1.0192 -1.3224
30271SOL    HW296906   0.603   1.070   7.351  0.3172 -0.8475 -0.4661
30272SOL     OW96907   8.614   9.911   8.161  0.1914 -0.2664 -0.3491
30272SOL    HW196908   8.673   9.983   8.186 -0.8369  0.4889 -0.0381
30272SOL    HW296909   8.565   9.892   8.241  0.0757 -0.9610 -0.5779
30273SOL     OW96910   6.622   8.917   7.843 -0.0718  0.1158 -0.5247
30273SOL    HW196911   6.558   8.868   7.895 -1.1204  0.7384 -1.2065
30273SOL    HW296912   6.665   8.851   7.789  0.6254 -0.4578  0.6707
30274SOL     OW96913   2.646   2.814   1.706  0.0118 -0.0070 -0.4906
30274SOL    HW196914   2.727   2.865   1.715  0.9953 -1.6674  0.4374
30274SOL    HW296915   2.576   2.878   1.721  1.1174  1.4980 -1.4519
30275SOL     OW96916   9.459   3.926   2.328  0.0275  0.3457 -0.1645
30275SOL    HW196917   9.543   3.928   2.375 -0.4020 -1.3544  0.7355
30275SOL    HW296918   9.479   3.884   2.245  0.3886  1.5642 -0.7248
30276SOL     OW96919   5.878   8.233   8.337 -0.3923  0.4593  0.5911
30276SOL    HW196920   5.824   8.199   8.267  0.0259 -0.5389  0.7440
30276SOL    HW296921   5.869   8.170   8.408  1.1410  0.1517  0.5409
30277SOL     OW96922   3.722   5.368  10.498 -0.3837 -0.3721 -0.2368
30277SOL    HW196923   3.713   5.286  10.449  0.5466  0.0920 -1.2340
30277SOL    HW296924   3.648   5.367  10.559 -0.3159 -2.0018 -0.1235
30278SOL     OW96925   2.238   4.875   1.939 -0.2095 -0.4010 -0.0541
30278SOL    HW196926   2.246   4.807   1.872  0.3891 -0.7169  0.3306
30278SOL    HW296927   2.275   4.953   1.899 -1.6928 -0.0422 -0.8253
30279SOL     OW96928   2.410   3.666   1.353 -0.0463  0.0736 -0.0653
30279SOL    HW196929   2.344   3.603   1.325  0.1442  0.2245 -0.8593
30279SOL    HW296930   2.481   3.657   1.290 -0.8489  2.4865 -1.4203
30280SOL     OW96931   8.711   4.227   7.226 -0.1492 -0.3593  0.7990
30280SOL    HW196932   8.727   4.317   7.256 -2.5795 -0.3713  2.3680
30280SOL    HW296933   8.763   4.172   7.285 -1.3546 -0.1275  2.1146
30281SOL     OW96934   0.286   0.163   2.015  0.5661  0.3403 -0.1416
30281SOL    HW196935   0.258   0.162   2.107  0.2980 -0.4090 -0.2177
30281SOL    HW296936   0.274   0.253   1.986 -0.5875  0.3019  0.1901
30282SOL     OW96937  10.108  10.073   8.741  0.1564  0.1561 -0.5367
30282SOL    HW196938  10.084  10.119   8.821  0.7447 -2.0521  1.0005
30282SOL    HW296939  10.029  10.025   8.716 -0.1408  1.1282 -1.5323
30283SOL     OW96940   8.658   0.975   1.663 -0.4704 -0.3634 -0.0956
30283SOL    HW196941   8.598   1.024   1.720 -1.9987  0.4982 -2.3119
30283SOL    HW296942   8.615   0.891   1.650 -0.9024 -0.0001 -1.1357
30284SOL     OW96943   4.470   9.523   8.244  0.4228  0.3762 -0.2359
30284SOL    HW196944   4.550   9.504   8.194  0.3910 -0.3551 -0.0101
30284SOL    HW296945   4.485   9.483   8.330  0.3747  1.4078  0.2705
30285SOL     OW96946   2.772   6.392   9.282 -0.0360 -0.0011  0.0219
30285SOL    HW196947   2.778   6.375   9.188  0.1685  0.3515 -0.0296
30285SOL    HW296948   2.794   6.309   9.323 -0.9159 -0.3895 -0.2509
30286SOL     OW96949  10.433   9.044   7.606  0.0915 -0.5422  0.4099
30286SOL    HW196950  10.486   8.969   7.636 -0.6921 -1.9683 -1.5680
30286SOL    HW296951  10.492   9.119   7.613  2.1035 -1.9134 -0.7738
30287SOL     OW96952   1.734   5.514   0.154  0.2638  0.1410 -0.1524
30287SOL    HW196953   1.643   5.541   0.152 -0.3149 -1.4892  1.2086
30287SOL    HW296954   1.761   5.514   0.062 -1.3632 -0.1548 -0.6662
30288SOL     OW96955   5.843  10.190   7.695 -0.1065  0.2255  0.1197
30288SOL    HW196956   5.894  10.209   7.616  0.3577 -1.1622  0.0549
30288SOL    HW296957   5.802  10.273   7.718  0.6619  0.9187 -0.9331
30289SOL     OW96958   4.655   9.641   1.976  0.1161  0.0722 -0.6433
30289SOL    HW196959   4.577   9.607   1.930  0.7141  1.3624 -2.7871
30289SOL    HW296960   4.620   9.702   2.040 -0.6980 -0.2126 -0.8040
30290SOL     OW96961   3.363   2.770   1.602  0.2646  0.5688 -0.4400
30290SOL    HW196962   3.329   2.854   1.570  1.7090  0.9033 -1.1871
30290SOL    HW296963   3.311   2.704   1.555 -0.4959  1.0345 -0.2768
30291SOL     OW96964  10.378  10.054   6.104 -0.5031  0.4888  0.4688
30291SOL    HW196965  10.353   9.999   6.030 -1.0752 -0.3368  1.2450
30291SOL    HW296966  10.421  10.130   6.065  0.9516 -0.8247 -0.6135
30292SOL     OW96967   1.828   2.014   6.449 -0.6054 -0.6027  0.3363
30292SOL    HW196968   1.897   2.021   6.515  0.1108  1.6335 -0.5481
30292SOL    HW296969   1.818   1.920   6.435  3.1247 -1.0606 -0.3297
30293SOL     OW96970   6.876   3.007   1.502 -0.2009 -0.6011  0.2715
30293SOL    HW196971   6.813   2.990   1.571  0.4233 -1.6351  0.6118
30293SOL    HW296972   6.868   3.101   1.484 -1.2608 -0.5722  0.8492
30294SOL     OW96973   7.129   0.895   3.823  0.1517  0.3545  0.5759
30294SOL    HW196974   7.180   0.814   3.814  0.9761  0.8412  0.7785
30294SOL    HW296975   7.194   0.965   3.819 -0.0308  0.9122  4.0027
30295SOL     OW96976   1.676   0.352   9.037  0.2540 -0.1954  0.3032
30295SOL    HW196977   1.581   0.366   9.037  0.4688  1.4371  0.3043
30295SOL    HW296978   1.711   0.428   9.082  1.6692 -0.0320 -1.0162
30296SOL     OW96979   9.182   5.564   6.296  0.3921  0.4345 -0.3213
30296SOL    HW196980   9.223   5.584   6.212  0.8335 -1.0077 -0.4740
30296SOL    HW296981   9.105   5.512   6.274  0.5272  0.0218  0.1507
30297SOL     OW96982   3.319   5.565   8.001 -0.1741  0.3680 -0.0994
30297SOL    HW196983   3.331   5.585   8.094  1.7948 -1.2617  0.0667
30297SOL    HW296984   3.398   5.600   7.959  0.2887 -1.3531 -0.7171
30298SOL     OW96985   5.172   6.122   2.195 -0.4527 -0.3469 -0.2012
30298SOL    HW196986   5.217   6.044   2.163 -0.3064 -1.3758  2.2904
30298SOL    HW296987   5.148   6.170   2.115  0.0556 -2.5615 -1.7927
30299SOL     OW96988   5.333   3.696   5.842 -0.2473 -0.1581 -0.0814
30299SOL    HW196989   5.251   3.681   5.795  0.2905  1.3661 -1.6106
30299SOL    HW296990   5.397   3.640   5.799 -0.4336 -1.3686  1.1287
30300SOL     OW96991  10.928   6.873  10.146 -0.0641  0.0865 -0.4860
30300SOL    HW196992  10.948   6.948  10.090  0.3134  0.9008  0.7071
30300SOL    HW296993  10.836   6.854  10.129  0.1062  0.1665 -1.5420
30301SOL     OW96994   9.832   6.868  10.487  0.3152 -0.1599  0.7089
30301SOL    HW196995   9.802   6.806  10.421  0.3631  0.9371 -0.3905
30301SOL    HW296996   9.920   6.837  10.511  0.5722 -0.2110 -0.2494
30302SOL     OW96997   7.192   7.549   6.908  0.2718  0.2844  0.6501
30302SOL    HW196998   7.134   7.497   6.852 -2.0315  0.9238  2.2680
30302SOL    HW296999   7.132   7.595   6.968  2.2544  3.4327  0.4685
30303SOL     OW97000   0.388   9.092   9.886 -0.0584  0.1494  0.3332
30303SOL    HW197001   0.381   9.000   9.863 -0.1286  0.4110 -0.7259
30303SOL    HW297002   0.396   9.092   9.982 -0.6887 -0.9118  0.4009
30304SOL     OW97003   7.484   3.256   8.569  0.5600  0.4227 -0.4658
30304SOL    HW197004   7.580   3.262   8.573  0.6417 -0.5740 -0.5133
30304SOL    HW297005   7.468   3.193   8.498 -0.1002 -0.0021  0.0498
30305SOL     OW97006   6.403   4.467   5.843 -0.2773 -0.3620  0.1165
30305SOL    HW197007   6.395   4.467   5.938 -0.8581 -1.5378  0.0843
30305SOL    HW297008   6.350   4.542   5.814  0.8940  0.7554  0.7626
30306SOL     OW97009   8.392   8.412   7.424 -0.1113  0.9274  0.0629
30306SOL    HW197010   8.453   8.390   7.495  1.3228 -0.1960 -1.4483
30306SOL    HW297011   8.323   8.346   7.430  0.4083  0.3747 -0.0598
30307SOL     OW97012   1.474  10.484   7.278  0.3431 -0.2008 -0.3426
30307SOL    HW197013   1.553  10.477   7.226 -0.3637  0.2285 -1.5056
30307SOL    HW297014   1.502  10.525   7.360  1.2996  0.0338 -0.7816
30308SOL     OW97015   5.054   7.010  10.273  0.3423 -0.0458 -0.1387
30308SOL    HW197016   5.124   6.979  10.216 -0.0136 -0.2113 -0.4865
30308SOL    HW297017   4.974   6.974  10.235 -0.0981  1.3531 -0.6160
30309SOL     OW97018   2.192   1.916  10.223  0.3131 -0.1508  0.7802
30309SOL    HW197019   2.243   1.835  10.230 -1.0103 -1.3493 -1.9745
30309SOL    HW297020   2.207   1.946  10.134 -0.2891  1.9804  1.3366
30310SOL     OW97021   8.674   8.694   3.435 -0.2017 -0.4080  0.3672
30310SOL    HW197022   8.706   8.738   3.514  1.1070  1.3814 -1.0525
30310SOL    HW297023   8.736   8.623   3.420  0.4909  0.2345  0.1170
30311SOL     OW97024   7.319   0.905   9.980  0.2297  0.2351  0.4407
30311SOL    HW197025   7.258   0.857  10.037  0.9109 -0.6810  0.4068
30311SOL    HW297026   7.374   0.837   9.941  1.1921  1.0418  0.3674
30312SOL     OW97027   8.095   1.376   4.115 -0.5656  0.2171 -0.8500
30312SOL    HW197028   8.147   1.456   4.106 -0.1334  0.0408 -0.0597
30312SOL    HW297029   8.012   1.396   4.073 -0.8357  1.4355  0.1967
30313SOL     OW97030   6.705   5.519   4.822 -0.1613 -0.3048  0.4888
30313SOL    HW197031   6.790   5.498   4.784  0.6215  1.2514  1.2513
30313SOL    HW297032   6.703   5.470   4.904  0.9116  1.1076  1.4306
30314SOL     OW97033   3.891   7.376   9.531 -0.2044 -0.8351 -0.8555
30314SOL    HW197034   3.965   7.429   9.504 -0.1535 -0.5303 -0.1326
30314SOL    HW297035   3.814   7.422   9.497 -0.0903 -0.9096 -1.2129
30315SOL     OW97036   9.509   2.257   6.434  0.0437  0.3806 -0.2090
30315SOL    HW197037   9.594   2.221   6.456  0.8827  0.8381 -2.4940
30315SOL    HW297038   9.519   2.352   6.447  0.0400  0.4816 -0.9017
30316SOL     OW97039   0.998   0.199   1.982  0.1772  0.0658 -0.1555
30316SOL    HW197040   1.004   0.104   1.994 -1.5421 -0.0628 -0.0813
30316SOL    HW297041   0.976   0.211   1.890  1.5951  0.4806 -0.4653
30317SOL     OW97042   0.798   6.522   5.232 -0.8202 -0.1753 -0.2355
30317SOL    HW197043   0.798   6.509   5.327 -0.0408 -0.7558 -0.3023
30317SOL    HW297044   0.878   6.572   5.214 -1.1837  0.3027 -0.5442
30318SOL     OW97045  10.354   1.559   3.827  0.4556 -0.2225  0.3450
30318SOL    HW197046  10.367   1.467   3.804  0.5113 -0.4065  1.0796
30318SOL    HW297047  10.319   1.556   3.916  1.7249  0.5112  0.8925
30319SOL     OW97048   8.557   8.582   3.805  0.7475 -0.4140  0.0219
30319SOL    HW197049   8.595   8.494   3.807  0.0550 -0.7288 -0.4927
30319SOL    HW297050   8.519   8.591   3.718  0.3680  0.2084  0.2407
30320SOL     OW97051   3.516   5.161   8.534  0.0325  0.2426  0.6295
30320SOL    HW197052   3.529   5.150   8.439  1.3500 -0.2616  0.8423
30320SOL    HW297053   3.490   5.252   8.544  0.0049  0.3393 -0.2029
30321SOL     OW97054  10.055   0.989   9.647 -0.5528  0.0455  0.3394
30321SOL    HW197055  10.092   0.910   9.686  2.0882  0.9704 -0.0476
30321SOL    HW297056  10.068   1.056   9.715  2.2079  1.2186 -1.1562
30322SOL     OW97057   0.134   0.342  10.110  0.0070 -0.3550  0.7055
30322SOL    HW197058   0.202   0.288  10.068  0.2246 -0.3109  0.9997
30322SOL    HW297059   0.052   0.302  10.082  0.1512 -0.3403  0.2529
30323SOL     OW97060   3.206   7.295   0.569  0.0558  0.1933  0.3663
30323SOL    HW197061   3.124   7.344   0.562 -0.7920 -1.3116 -1.3119
30323SOL    HW297062   3.212   7.272   0.662 -1.4500  0.3244  0.5242
30324SOL     OW97063   6.188   7.164   0.653  0.1148  0.4258  0.8004
30324SOL    HW197064   6.218   7.122   0.572 -1.8962  2.3941 -1.0927
30324SOL    HW297065   6.171   7.091   0.712 -1.8763 -1.4619 -1.8300
30325SOL     OW97066   0.692   8.757   4.065  0.2685 -0.3317  0.5449
30325SOL    HW197067   0.758   8.712   4.013 -3.0175 -3.6690 -1.2476
30325SOL    HW297068   0.699   8.717   4.152  0.5790 -0.7274  0.3403
30326SOL     OW97069   3.364   7.025  10.239  0.0872  0.8701  0.3002
30326SOL    HW197070   3.300   7.090  10.212  0.6000  1.2473 -0.0416
30326SOL    HW297071   3.314   6.945  10.250 -0.1989  0.7600 -1.5155
30327SOL     OW97072   4.536   9.787   8.067  0.1464  0.0062  0.6642
30327SOL    HW197073   4.485   9.868   8.066 -0.5386 -0.3854 -1.8064
30327SOL    HW297074   4.538   9.762   8.160 -2.3687  1.1503  1.1345
30328SOL     OW97075   4.502   2.377   0.257 -0.4426 -0.1515  0.4387
30328SOL    HW197076   4.423   2.328   0.232  0.5529 -2.1149  0.9402
30328SOL    HW297077   4.503   2.373   0.353  0.2649 -0.1079  0.4340
30329SOL     OW97078   7.615   1.815   1.506 -0.5216  0.3093 -0.0677
30329SOL    HW197079   7.587   1.892   1.457  1.5978  1.4077  0.3389
30329SOL    HW297080   7.710   1.812   1.495 -0.2219 -0.6296  2.1920
30330SOL     OW97081   7.212   7.852   0.311  0.4565  0.2287 -0.5838
30330SOL    HW197082   7.181   7.915   0.246 -0.0540  1.4407  0.7691
30330SOL    HW297083   7.286   7.895   0.353 -0.0587  0.0602  0.5355
30331SOL     OW97084   0.226   3.619   1.244  0.5480  0.5283  0.1959
30331SOL    HW197085   0.196   3.706   1.219  1.3151  0.4435 -1.0834
30331SOL    HW297086   0.276   3.588   1.169  0.1197 -1.1017  0.5365
30332SOL     OW97087   0.952  10.756   6.579  0.4262 -0.2153 -0.1609
30332SOL    HW197088   1.034  10.709   6.591 -0.2115 -0.8654  2.0866
30332SOL    HW297089   0.889  10.710   6.635 -1.2328  0.8775 -1.0378
30333SOL     OW97090   0.137   9.926   2.135  0.0991 -0.3273  0.1319
30333SOL    HW197091   0.075   9.994   2.106  0.1479  0.2766  1.3589
30333SOL    HW297092   0.213   9.938   2.079 -0.2683  0.0159 -0.3018
30334SOL     OW97093   9.802   1.305   3.068 -0.0492 -0.7458 -0.3245
30334SOL    HW197094   9.888   1.346   3.055 -0.3967 -0.0108 -0.3600
30334SOL    HW297095   9.822   1.216   3.095  0.7301 -0.5607 -0.2618
30335SOL     OW97096   6.794   8.237   1.349 -0.6580 -0.1181  0.5989
30335SOL    HW197097   6.771   8.321   1.388  0.3853  0.0327  0.9105
30335SOL    HW297098   6.762   8.172   1.411  0.2593  0.1002  1.3226
30336SOL     OW97099   0.307   8.401   0.415 -0.3645  0.0207 -0.5173
30336SOL    HW197100   0.238   8.411   0.481 -0.6114  0.9319 -0.9021
30336SOL    HW297101   0.378   8.457   0.445 -1.2588  2.0803 -2.0247
30337SOL     OW97102   6.161   0.939   9.164  0.3954  0.1901 -0.4665
30337SOL    HW197103   6.218   1.013   9.143  0.2448 -0.1698 -2.3558
30337SOL    HW297104   6.074   0.967   9.136 -0.1299  0.1885  1.0746
30338SOL     OW97105   7.429   9.807   2.292 -0.1502  0.0400 -0.2894
30338SOL    HW197106   7.460   9.858   2.218 -0.9232  0.4803 -0.3220
30338SOL    HW297107   7.495   9.739   2.304  0.1683  0.1887 -1.1438
30339SOL     OW97108   7.880   1.786   3.633 -0.0040 -0.4399 -0.1654
30339SOL    HW197109   7.851   1.806   3.544 -2.3748  1.8146  1.0089
30339SOL    HW297110   7.815   1.723   3.666 -0.1930  0.1180  0.5459
30340SOL     OW97111   4.834   5.967  10.091  0.4075  0.3566 -0.5254
30340SOL    HW197112   4.773   6.020  10.039  0.9611  1.4766 -0.0728
30340SOL    HW297113   4.918   6.013  10.084  1.1989 -1.0975 -1.0490
30341SOL     OW97114   2.082   5.105   6.928  0.2002 -0.1375  0.6169
30341SOL    HW197115   2.093   5.199   6.944 -1.7753  0.0105  1.2896
30341SOL    HW297116   2.005   5.100   6.871  0.3792 -1.3533  0.4729
30342SOL     OW97117   7.636   3.393   9.996  0.0280  0.1838  0.7144
30342SOL    HW197118   7.600   3.389   9.907  2.2218  1.3620 -0.3039
30342SOL    HW297119   7.694   3.317  10.001 -0.0037  0.1860  1.1217
30343SOL     OW97120   3.861   9.316   4.729  0.5172  0.1659 -0.1580
30343SOL    HW197121   3.820   9.399   4.706 -0.9741 -0.3668  0.4530
30343SOL    HW297122   3.886   9.277   4.645 -0.6294  0.3317 -0.5904
30344SOL     OW97123   3.841   1.641   0.293 -0.0627 -0.6199  0.2591
30344SOL    HW197124   3.910   1.620   0.356 -0.9004 -0.8633  1.1280
30344SOL    HW297125   3.790   1.560   0.285 -0.4180 -0.3616 -0.1451
30345SOL     OW97126   9.321   5.868   9.539  0.0887 -0.0143 -0.1514
30345SOL    HW197127   9.317   5.906   9.626 -0.7430 -1.0339  0.2727
30345SOL    HW297128   9.407   5.825   9.535  0.5440  0.8790 -0.2108
30346SOL     OW97129  10.901   3.431  10.441  0.1721 -0.4120 -0.0766
30346SOL    HW197130  10.877   3.341  10.419 -3.4213  0.5484 -0.7127
30346SOL    HW297131  10.938   3.467  10.360  0.5506 -0.9768 -0.1582
30347SOL     OW97132   7.038   9.619   4.741  0.7360  0.7087  0.0653
30347SOL    HW197133   7.110   9.637   4.680  0.9121 -1.2669 -0.3945
30347SOL    HW297134   6.966   9.673   4.709  1.3950  1.1598 -0.7217
30348SOL     OW97135   6.786   7.789   7.249 -0.2499  0.4422  0.0373
30348SOL    HW197136   6.760   7.745   7.169 -0.8676  0.7879  0.0440
30348SOL    HW297137   6.768   7.882   7.233  1.8989  0.8516 -0.3253
30349SOL     OW97138   1.642   4.351   2.880  0.1246 -0.4982  0.0348
30349SOL    HW197139   1.604   4.439   2.883  1.4077  0.0942 -0.0868
30349SOL    HW297140   1.568   4.292   2.891 -0.7821  0.5975  0.0046
30350SOL     OW97141   6.623   5.010   3.356 -0.0427  0.0163 -0.4546
30350SOL    HW197142   6.563   5.084   3.349 -0.7649 -0.3612  1.2217
30350SOL    HW297143   6.577   4.937   3.313 -1.5989 -0.6808  2.1387
30351SOL     OW97144   8.996   3.317   0.178 -0.1360 -0.4056 -0.3239
30351SOL    HW197145   8.947   3.242   0.145  0.5685 -0.7644 -0.5576
30351SOL    HW297146   9.087   3.300   0.154 -0.0595  0.8469 -0.9871
30352SOL     OW97147   6.585  10.190   5.690  0.1984  0.9922  0.2206
30352SOL    HW197148   6.626  10.132   5.755 -0.0474  1.4889  0.8354
30352SOL    HW297149   6.645  10.190   5.616  1.3617  1.7750  1.1363
30353SOL     OW97150   5.961   9.010   0.092 -0.3035  0.0826  0.6278
30353SOL    HW197151   5.893   8.952   0.127  1.2569 -1.7256  0.8341
30353SOL    HW297152   6.011   8.955   0.032  1.0368  1.3128  0.5664
30354SOL     OW97153   5.840   1.875   3.696 -0.2610  0.2913  0.4634
30354SOL    HW197154   5.774   1.808   3.716  0.4996 -0.8168 -0.5950
30354SOL    HW297155   5.923   1.827   3.695  0.1589  0.9609 -1.6040
30355SOL     OW97156   5.117   0.296   7.709 -0.2709  0.1222  0.0019
30355SOL    HW197157   5.118   0.268   7.618  1.5266 -1.0859  0.3362
30355SOL    HW297158   5.190   0.357   7.716  0.3294 -0.6723  0.8649
30356SOL     OW97159   2.498  10.302   5.770  0.0448 -0.1551 -0.0207
30356SOL    HW197160   2.495  10.210   5.797  0.8550 -0.4263 -0.7954
30356SOL    HW297161   2.492  10.351   5.852 -0.0254 -0.9001  0.4329
30357SOL     OW97162   9.798   0.266   9.645 -0.0088  1.0934 -0.3065
30357SOL    HW197163   9.866   0.252   9.710  0.3149 -0.2996 -0.8974
30357SOL    HW297164   9.819   0.351   9.606  1.4534  0.6792 -0.5063
30358SOL     OW97165   9.867   8.548   1.485  0.4208  0.0625  0.4086
30358SOL    HW197166   9.937   8.485   1.501  0.6483  0.6816  2.1180
30358SOL    HW297167   9.798   8.497   1.443  1.2663 -0.9175  0.1652
30359SOL     OW97168   9.258   4.195   6.866 -0.0977 -0.5410  0.2412
30359SOL    HW197169   9.327   4.143   6.907  1.3852  2.4880  1.9558
30359SOL    HW297170   9.300   4.279   6.846 -2.8407  0.8044 -0.3691
30360SOL     OW97171   7.602   8.849   0.648  0.2518 -0.1238 -0.3845
30360SOL    HW197172   7.625   8.844   0.555  2.0246  1.5208 -0.1000
30360SOL    HW297173   7.512   8.883   0.648 -0.1323 -1.0400 -1.4736
30361SOL     OW97174   0.188   7.800   7.573 -0.0626  0.4381 -0.3201
30361SOL    HW197175   0.242   7.865   7.617 -0.3638  0.4249  0.0707
30361SOL    HW297176   0.250   7.750   7.520  0.1406  1.1725 -0.7884
30362SOL     OW97177   3.801   1.441   5.088  0.5582 -0.2124  0.8562
30362SOL    HW197178   3.726   1.427   5.030  0.8732  0.9864  0.1239
30362SOL    HW297179   3.812   1.536   5.090  1.4579 -0.3242  1.7390
30363SOL     OW97180   8.695   4.547   9.307  0.2627 -0.0005  0.0943
30363SOL    HW197181   8.772   4.525   9.254 -0.3071  2.1502 -1.7893
30363SOL    HW297182   8.731   4.578   9.390  1.3273 -0.8706 -0.0230
30364SOL     OW97183  10.003   9.417   6.797  0.1941 -0.3601  0.0684
30364SOL    HW197184  10.046   9.396   6.879 -0.4852 -1.7833  0.1006
30364SOL    HW297185  10.074   9.439   6.737  0.6878  0.7684  1.0304
30365SOL     OW97186   1.034   4.026   5.382  0.0554 -0.4768  0.5311
30365SOL    HW197187   1.037   4.035   5.287  0.4544 -0.3955  0.5482
30365SOL    HW297188   0.989   3.942   5.396 -0.7789 -0.0811  0.2989
30366SOL     OW97189   4.490  10.412   7.005  0.0860  0.1795  0.1538
30366SOL    HW197190   4.475  10.504   7.025  0.8593  0.6527 -1.2961
30366SOL    HW297191   4.559  10.385   7.067 -1.8412 -0.1709  2.2747
30367SOL     OW97192   6.745   6.574   6.927  0.1000  0.6194 -0.7002
30367SOL    HW197193   6.746   6.479   6.917  2.5252  0.5783 -0.6084
30367SOL    HW297194   6.721   6.606   6.840  0.8936 -0.0794 -1.1962
30368SOL     OW97195   1.160   4.289   1.103  0.1861  0.5747 -0.1756
30368SOL    HW197196   1.161   4.384   1.111 -0.0730  0.4392  2.0321
30368SOL    HW297197   1.070   4.264   1.121 -0.2824 -0.0002 -2.9428
30369SOL     OW97198   6.115   8.448  10.155  0.1299 -0.3209  0.0538
30369SOL    HW197199   6.106   8.354  10.140 -1.5361  0.1134 -2.1758
30369SOL    HW297200   6.209   8.463  10.162  0.5102 -1.9231 -1.2375
30370SOL     OW97201   7.246   1.449   2.271  0.6506 -0.7579  0.1876
30370SOL    HW197202   7.278   1.361   2.291  2.4901  0.2726  2.1394
30370SOL    HW297203   7.288   1.472   2.188  0.4257 -1.5655 -0.1594
30371SOL     OW97204   8.263   0.315   2.739 -0.1426 -0.0875  0.5657
30371SOL    HW197205   8.227   0.227   2.754 -1.5888  0.4590  0.5075
30371SOL    HW297206   8.305   0.337   2.822  0.1206 -0.7770  0.6260
30372SOL     OW97207   1.398   9.032   9.691 -0.3982 -0.5131 -0.4979
30372SOL    HW197208   1.357   8.991   9.767 -2.3369  1.4319 -0.3967
30372SOL    HW297209   1.352   8.996   9.616 -0.8115  0.0453 -0.5194
30373SOL     OW97210   5.680   9.411   1.683 -0.1420 -0.5626 -0.2522
30373SOL    HW197211   5.620   9.337   1.674 -0.5330 -0.2137 -0.6325
30373SOL    HW297212   5.626   9.487   1.660  0.4129 -0.2251 -0.4447
30374SOL     OW97213   7.859   3.126   2.319  0.3053  0.2150  0.4788
30374SOL    HW197214   7.898   3.213   2.331  1.1262 -0.1972  0.9432
30374SOL    HW297215   7.843   3.095   2.408 -0.1795 -0.0269  0.3090
30375SOL     OW97216   4.460   0.403   5.613 -0.6194  0.0688 -0.1804
30375SOL    HW197217   4.529   0.359   5.563 -0.8238 -0.2797 -0.1608
30375SOL    HW297218   4.405   0.332   5.646 -0.1504  0.2464  1.0459
30376SOL     OW97219   6.116   4.312   2.406 -0.1661  0.3200  0.3555
30376SOL    HW197220   6.136   4.373   2.335 -0.6845  0.7789  0.5960
30376SOL    HW297221   6.064   4.363   2.467  0.2583 -0.0815  1.0610
30377SOL     OW97222   2.867   8.817   4.739 -0.0683 -0.1269  0.2304
30377SOL    HW197223   2.787   8.866   4.722  0.6894  0.6320 -1.4051
30377SOL    HW297224   2.862   8.793   4.832 -0.9801  2.0952  0.8111
30378SOL     OW97225   0.601   3.836   1.401  0.3370  0.0538 -0.4495
30378SOL    HW197226   0.593   3.750   1.442 -1.4711  0.0496 -0.7682
30378SOL    HW297227   0.594   3.898   1.474 -0.9682 -0.0109 -0.5036
30379SOL     OW97228   8.572   5.384   5.043 -0.2867  0.0504  0.2279
30379SOL    HW197229   8.522   5.348   5.116  0.1700  2.1383  1.6185
30379SOL    HW297230   8.622   5.309   5.010 -1.2480 -1.1518  1.3777
30380SOL     OW97231  10.746   7.265   6.741  0.3420 -0.3497  0.0421
30380SOL    HW197232  10.681   7.306   6.798  1.2036 -1.0909  1.6356
30380SOL    HW297233  10.829   7.302   6.770  0.7290 -0.1676 -1.2765
30381SOL     OW97234   3.977   4.101   1.757 -0.0379 -0.2555 -1.2649
30381SOL    HW197235   3.915   4.034   1.786 -1.4347  1.3496 -0.3383
30381SOL    HW297236   3.924   4.161   1.704  1.2525 -0.0711 -2.4002
30382SOL     OW97237   3.912   5.255   2.052 -0.0222  0.1261  0.0202
30382SOL    HW197238   3.902   5.200   1.974 -0.9618  0.8400 -0.3819
30382SOL    HW297239   3.914   5.193   2.125 -0.3203 -0.4855 -0.4837
30383SOL     OW97240   4.552   2.789   8.727 -0.6217 -0.1226  0.1701
30383SOL    HW197241   4.647   2.792   8.717 -0.4954 -1.3059  0.7646
30383SOL    HW297242   4.525   2.710   8.681 -1.3550  0.3526 -0.2273
30384SOL     OW97243   2.723  10.907   6.325  0.4909  0.0258  0.2839
30384SOL    HW197244   2.712  10.981   6.265 -1.5716 -2.1966 -2.3203
30384SOL    HW297245   2.812  10.876   6.307  0.2740  0.0386 -0.9163
30385SOL     OW97246   6.309   7.411   8.889  0.1383 -0.2582  0.3480
30385SOL    HW197247   6.328   7.326   8.928  0.3287 -0.3567  0.0435
30385SOL    HW297248   6.340   7.404   8.799  1.0827  0.4699  0.6015
30386SOL     OW97249   0.502   8.844   9.395  0.1862  0.1258 -0.1691
30386SOL    HW197250   0.482   8.898   9.318  1.4372 -0.3897 -0.8885
30386SOL    HW297251   0.424   8.851   9.450 -0.6714  0.6465 -1.4045
30387SOL     OW97252   4.144   5.383   2.906  0.1456  0.5784  0.2884
30387SOL    HW197253   4.145   5.293   2.874  1.7265  0.9061 -0.6675
30387SOL    HW297254   4.170   5.375   2.998  0.3138  0.0587  0.2014
30388SOL     OW97255   8.470   9.872   2.216  0.4628 -0.2287  0.7303
30388SOL    HW197256   8.428   9.817   2.282 -0.0622  0.4728  0.9876
30388SOL    HW297257   8.404   9.881   2.147 -0.2096  1.6723  1.5744
30389SOL     OW97258   1.124   7.363   7.790 -0.4640  0.6059  0.3120
30389SOL    HW197259   1.118   7.459   7.793  1.1494  0.7198  0.9606
30389SOL    HW297260   1.033   7.334   7.784 -0.9440  2.2011 -1.1055
30390SOL     OW97261   8.773   1.159   7.256  0.2964 -0.5210 -0.6335
30390SOL    HW197262   8.748   1.213   7.181  0.4661 -0.7840 -0.8845
30390SOL    HW297263   8.716   1.187   7.327 -0.1804 -0.5847 -0.9860
30391SOL     OW97264  10.156   0.186   9.408  0.6270  0.4397  0.1089
30391SOL    HW197265  10.193   0.218   9.491 -0.3412  1.0693  0.3154
30391SOL    HW297266  10.090   0.251   9.385 -1.8704 -1.6597  0.8428
30392SOL     OW97267  10.571   1.033   6.224 -0.0286  0.7106 -0.0997
30392SOL    HW197268  10.584   0.943   6.253 -0.9049  0.2004 -1.2135
30392SOL    HW297269  10.476   1.045   6.224  0.1002  1.8891  0.7513
30393SOL     OW97270   2.574   9.238   3.736  0.3736  0.3122 -0.0980
30393SOL    HW197271   2.496   9.279   3.774  1.5510  1.8616  0.7626
30393SOL    HW297272   2.540   9.162   3.687 -1.4325 -0.4631  2.1819
30394SOL     OW97273   1.263   8.592   0.155 -0.0689  0.4234 -0.1041
30394SOL    HW197274   1.302   8.608   0.069 -1.6900 -0.8224 -1.1394
30394SOL    HW297275   1.170   8.612   0.143 -0.6837 -1.6288  0.7773
30395SOL     OW97276   6.320   5.997   1.086 -0.4014  0.0534  0.4734
30395SOL    HW197277   6.241   6.035   1.125 -1.3369 -1.4850  0.1621
30395SOL    HW297278   6.313   6.019   0.993  0.2788  1.1067  0.6503
30396SOL     OW97279   0.262   1.259   9.798  0.1986  0.7439  0.3820
30396SOL    HW197280   0.270   1.242   9.892  1.0267  1.0496  0.3757
30396SOL    HW297281   0.173   1.231   9.776  1.1063 -2.7528  0.5476
30397SOL     OW97282   0.979   2.520   2.486  0.0839  0.3446  0.1433
30397SOL    HW197283   0.937   2.603   2.507  0.7209  0.6624  0.2022
30397SOL    HW297284   1.073   2.537   2.499  0.1848 -0.5138  0.6082
30398SOL     OW97285   2.923   8.967   7.285 -0.4307  0.0126  0.6425
30398SOL    HW197286   2.920   9.045   7.340  0.5353 -0.8912  2.0488
30398SOL    HW297287   3.016   8.953   7.267 -0.5437 -1.0028  0.7367
30399SOL     OW97288   5.322   1.960   2.185  0.0514 -0.3053 -0.2933
30399SOL    HW197289   5.238   1.980   2.144 -0.8849 -1.7717  0.7956
30399SOL    HW297290   5.385   1.964   2.114 -1.5523 -3.2537 -2.0818
30400SOL     OW97291   5.029   8.513   4.503  0.2492 -0.0307 -0.5300
30400SOL    HW197292   5.037   8.478   4.414 -1.5037 -0.4876 -0.5444
30400SOL    HW297293   5.054   8.439   4.559  1.3095  0.2421 -0.6322
30401SOL     OW97294   1.244   1.017   6.566 -0.1211 -0.0605  0.3261
30401SOL    HW197295   1.189   1.091   6.589 -0.0561  0.6276 -1.6042
30401SOL    HW297296   1.262   1.027   6.472 -0.1268 -2.5250 -0.0101
30402SOL     OW97297   7.582   5.441   7.532  0.5696  0.2276 -0.3445
30402SOL    HW197298   7.580   5.359   7.482 -2.4025 -0.0346  0.0189
30402SOL    HW297299   7.526   5.501   7.482  0.1940  1.0234  0.9881
30403SOL     OW97300   4.859   9.949   1.196  0.0282 -0.6274  0.1337
30403SOL    HW197301   4.819  10.032   1.220 -1.1954 -1.3139  0.5900
30403SOL    HW297302   4.801   9.883   1.234 -0.4689 -1.7326 -2.3103
30404SOL     OW97303   1.459  10.915   8.836 -0.0127  0.1264  0.4048
30404SOL    HW197304   1.505  10.996   8.814 -0.2017 -0.2630 -1.5747
30404SOL    HW297305   1.375  10.944   8.871  0.2583  0.7800  0.5436
30405SOL     OW97306   1.756   5.976  10.688  0.5610 -0.0272  0.2789
30405SOL    HW197307   1.832   6.034  10.696  0.5622 -0.2481  2.3408
30405SOL    HW297308   1.691   6.029  10.643  1.2639  0.8548  0.2615
30406SOL     OW97309   1.154   7.593   4.858  0.2779 -0.1164  0.1044
30406SOL    HW197310   1.116   7.679   4.841 -0.1593 -0.4407 -0.6165
30406SOL    HW297311   1.080   7.539   4.885  0.7352  0.0172  1.7008
30407SOL     OW97312   2.682   1.722   6.171 -0.1535 -0.3167 -0.1312
30407SOL    HW197313   2.680   1.727   6.266  0.9595 -0.0637 -0.1038
30407SOL    HW297314   2.756   1.777   6.146  0.8910 -2.0312 -1.0022
30408SOL     OW97315   8.297   4.507   6.794 -0.0145 -0.1980  0.3485
30408SOL    HW197316   8.215   4.555   6.781 -0.2009 -0.8192 -0.8727
30408SOL    HW297317   8.270   4.425   6.835  0.0985 -0.0669  0.6931
30409SOL     OW97318   2.570   4.957   4.879  0.7343  0.1265 -0.3508
30409SOL    HW197319   2.633   4.929   4.813 -0.3364  0.9213 -1.7529
30409SOL    HW297320   2.542   5.044   4.851  1.2672  1.1136  1.9266
30410SOL     OW97321   7.771   6.900   0.082  0.0103 -0.5126 -0.6282
30410SOL    HW197322   7.710   6.952   0.135  1.2866  1.0431 -0.5983
30410SOL    HW297323   7.814   6.842   0.144 -0.1308 -0.2976 -0.3271
30411SOL     OW97324  10.386  10.631   8.599  0.1810 -0.9819  0.7627
30411SOL    HW197325  10.450  10.658   8.533  0.0512 -1.4615  0.4296
30411SOL    HW297326  10.435  10.623   8.680  0.0845  0.9746  1.0443
30412SOL     OW97327   3.855   9.513   9.653 -0.3093 -0.1020  0.1470
30412SOL    HW197328   3.910   9.473   9.586 -1.9142  0.7322 -1.7865
30412SOL    HW297329   3.886   9.603   9.660 -0.1866 -0.1684  0.4879
30413SOL     OW97330   0.324   0.069  10.210  0.7978 -0.6623 -0.1005
30413SOL    HW197331   0.326  -0.017  10.169 -0.4561 -0.6736 -0.1897
30413SOL    HW297332   0.358   0.128  10.142 -0.5633 -0.7860 -0.9471
30414SOL     OW97333   5.280   9.001   1.894 -0.0781  0.1294  0.1887
30414SOL    HW197334   5.244   9.026   1.978 -1.6602  1.3229 -0.7833
30414SOL    HW297335   5.361   8.954   1.915 -0.3727  0.4905  2.3295
30415SOL     OW97336   9.760   2.401   4.848  0.0326 -0.3965  0.5272
30415SOL    HW197337   9.792   2.395   4.938 -0.4374 -3.5951  0.6229
30415SOL    HW297338   9.673   2.361   4.851  0.4570 -1.6440 -1.4852
30416SOL     OW97339   2.674   3.460   0.875 -0.5950  0.1539  0.3138
30416SOL    HW197340   2.639   3.410   0.949  0.8103  0.7246  1.4021
30416SOL    HW297341   2.745   3.512   0.912 -0.5435  1.2633 -1.2404
30417SOL     OW97342   0.538  10.482  10.348  0.2035  0.1808  0.6912
30417SOL    HW197343   0.562  10.390  10.364 -0.1594  0.2598  1.8110
30417SOL    HW297344   0.621  10.526  10.333  0.3894 -0.3203  0.2232
30418SOL     OW97345   2.947   7.162   7.434  0.2050 -0.1453  0.1437
30418SOL    HW197346   2.929   7.131   7.523  1.1686  0.0751  0.4245
30418SOL    HW297347   2.867   7.143   7.386  0.1501 -1.4971  0.7205
30419SOL     OW97348   1.631   8.009   5.631 -0.4230  0.7783  0.7612
30419SOL    HW197349   1.587   8.000   5.716  0.3913 -0.5946  1.0729
30419SOL    HW297350   1.719   8.041   5.653  0.1226 -0.5016  0.5683
30420SOL     OW97351   7.869   0.808   1.200  0.1034 -0.5025  0.1442
30420SOL    HW197352   7.868   0.903   1.192  0.4634 -0.4791  0.3518
30420SOL    HW297353   7.955   0.783   1.166  0.1065 -0.7313  0.3204
30421SOL     OW97354   4.850   7.587   0.022  0.5200 -0.2388 -0.3591
30421SOL    HW197355   4.863   7.493   0.014  2.3370 -0.1303  0.8099
30421SOL    HW297356   4.896   7.624  -0.053 -0.6563 -0.2814 -1.1239
30422SOL     OW97357   6.764   5.249   4.916  0.4447  0.3242 -0.4070
30422SOL    HW197358   6.680   5.233   4.873 -0.1331  1.0209  0.4189
30422SOL    HW297359   6.827   5.198   4.866  0.0258  2.0416 -2.8510
30423SOL     OW97360   8.452   8.135   4.429 -0.2552 -0.2520 -0.2491
30423SOL    HW197361   8.499   8.212   4.460 -0.5930  0.4957 -1.5256
30423SOL    HW297362   8.449   8.146   4.334 -0.5622 -1.6967 -0.4234
30424SOL     OW97363   7.745   5.871   8.201 -0.3010 -0.2091  0.8187
30424SOL    HW197364   7.775   5.917   8.279 -1.2866 -0.5927  1.4402
30424SOL    HW297365   7.766   5.930   8.128  0.1459  0.3826  1.4178
30425SOL     OW97366   3.992   8.765   2.912 -0.1427  0.0210  0.2979
30425SOL    HW197367   3.955   8.714   2.985  2.1426 -0.4277  1.2263
30425SOL    HW297368   3.931   8.750   2.839  0.1704 -3.8024  0.6188
30426SOL     OW97369   2.573   9.756   0.986 -0.2932 -0.3609  0.4741
30426SOL    HW197370   2.559   9.845   1.019  1.2334  0.3771 -0.7668
30426SOL    HW297371   2.638   9.719   1.045  1.2130  0.3902 -0.6407
30427SOL     OW97372   2.751   8.758  10.542  0.6924  0.0008 -0.0936
30427SOL    HW197373   2.725   8.774  10.633 -0.2148 -1.3941 -0.0829
30427SOL    HW297374   2.810   8.831  10.521  1.4025  0.0254  1.7889
30428SOL     OW97375   1.492   0.070   7.160 -0.0494  0.0999  0.3173
30428SOL    HW197376   1.432   0.107   7.225  0.7821  0.2730  1.0130
30428SOL    HW297377   1.488  -0.025   7.175 -1.9741 -0.1313 -1.2847
30429SOL     OW97378   8.396   8.879   5.160 -0.2655 -0.5117 -0.4362
30429SOL    HW197379   8.353   8.915   5.083 -1.1568 -0.3941  0.1119
30429SOL    HW297380   8.356   8.924   5.234  0.4773 -0.7271  0.1155
30430SOL     OW97381   0.904   8.666   6.337  0.1751 -0.1009 -0.0780
30430SOL    HW197382   0.837   8.689   6.402 -0.6944 -0.0968 -0.9483
30430SOL    HW297383   0.911   8.571   6.342  0.5259 -0.0517  0.4160
30431SOL     OW97384   3.042   6.846   6.097  0.2964 -0.2750 -0.0887
30431SOL    HW197385   3.009   6.820   6.182  0.2119 -0.4496 -0.1749
30431SOL    HW297386   3.047   6.765   6.047 -0.3252 -0.0811 -0.4782
30432SOL     OW97387   4.984   1.153   9.523  0.0003  0.2579  0.4818
30432SOL    HW197388   4.919   1.162   9.593  0.1604 -1.3839  0.8731
30432SOL    HW297389   5.058   1.108   9.564  1.1541  1.5199 -0.1250
30433SOL     OW97390   9.585   0.467   1.183  0.2007 -0.0470 -0.2993
30433SOL    HW197391   9.605   0.518   1.262  1.9958  0.2129 -0.8698
30433SOL    HW297392   9.597   0.376   1.210 -2.5299 -0.2359  0.5877
30434SOL     OW97393   3.924   1.080   1.745 -0.6592  0.5322 -0.3481
30434SOL    HW197394   4.003   1.082   1.799  0.8817  2.2144 -2.4850
30434SOL    HW297395   3.864   1.141   1.788  0.1623  1.1191 -0.0138
30435SOL     OW97396  10.751   1.666   5.967  0.0519  0.4887  0.2679
30435SOL    HW197397  10.845   1.679   5.976  0.3566  2.3293 -3.8187
30435SOL    HW297398  10.741   1.573   5.950  0.6237 -0.3893  3.8218
30436SOL     OW97399   9.601   7.640   8.340 -0.0015 -0.7345 -0.1068
30436SOL    HW197400   9.552   7.661   8.261  0.4279 -0.5914 -0.3375
30436SOL    HW297401   9.554   7.566   8.379 -0.5517 -0.4252 -0.1802
30437SOL     OW97402   0.199  10.146   9.564 -0.9596 -0.8990 -0.0875
30437SOL    HW197403   0.137  10.076   9.585 -1.1817 -0.4623  0.7592
30437SOL    HW297404   0.197  10.203   9.641  1.1850 -1.3638  0.3695
30438SOL     OW97405   6.057   7.740   5.321  0.1943  0.3606 -0.3875
30438SOL    HW197406   6.009   7.705   5.246 -0.7159  0.4017  0.1641
30438SOL    HW297407   6.145   7.704   5.312 -0.0061  0.0619 -1.2685
30439SOL     OW97408   9.318   9.019   9.979 -0.1112  0.5491  0.5455
30439SOL    HW197409   9.314   9.114   9.991 -1.0431  0.5033  0.7419
30439SOL    HW297410   9.250   9.001   9.913 -0.3864 -0.0405  0.9781
30440SOL     OW97411  10.458   6.809   9.753 -0.2645  0.8388 -0.1943
30440SOL    HW197412  10.536   6.814   9.808  0.1652  0.4148 -0.7598
30440SOL    HW297413  10.484   6.844   9.668 -0.5559  0.2712 -0.5271
30441SOL     OW97414   8.138   7.467   4.974  0.1539  0.4240  0.2388
30441SOL    HW197415   8.114   7.397   4.913  0.1180  0.2241  0.4804
30441SOL    HW297416   8.055   7.495   5.012  0.2526  0.0025  0.7825
30442SOL     OW97417   4.612   2.871   1.687 -0.6605  0.4699 -0.8107
30442SOL    HW197418   4.640   2.817   1.613 -0.3293 -0.2629 -0.1497
30442SOL    HW297419   4.658   2.955   1.673  2.3688 -0.8343  0.5079
30443SOL     OW97420   4.791   5.945   1.045  0.1635 -0.0780  0.2601
30443SOL    HW197421   4.710   5.938   0.996 -0.4151  0.3086  1.1343
30443SOL    HW297422   4.795   5.866   1.099  0.4462 -0.1703  0.1078
30444SOL     OW97423   2.572   0.993  10.384  0.7193 -0.3874 -0.0182
30444SOL    HW197424   2.613   0.920  10.338 -0.1244 -0.1750 -1.1658
30444SOL    HW297425   2.517   0.952  10.451  1.5111 -0.7254  0.4386
30445SOL     OW97426   4.486   5.321  10.807 -0.2578  0.5966  0.3422
30445SOL    HW197427   4.503   5.318  10.901  0.9174 -2.5432  0.1489
30445SOL    HW297428   4.405   5.270  10.796 -0.1023  0.4987 -0.3951
30446SOL     OW97429   1.285   6.348  10.668  0.6868 -0.0366  0.4214
30446SOL    HW197430   1.238   6.347  10.584 -0.5907  1.4322  1.0553
30446SOL    HW297431   1.342   6.425  10.662 -0.4045  0.8814  1.3666
30447SOL     OW97432   0.743   1.331   7.557 -0.6942 -0.0234 -0.8490
30447SOL    HW197433   0.782   1.328   7.644  0.6894 -0.2860 -1.4480
30447SOL    HW297434   0.738   1.424   7.535 -3.0001  0.1934  0.3073
30448SOL     OW97435  10.590   3.561   9.918  0.1716 -0.0878  0.2137
30448SOL    HW197436  10.520   3.553   9.854 -1.0136  1.6147  1.1921
30448SOL    HW297437  10.548   3.541  10.002  0.7658  1.1296  0.8329
30449SOL     OW97438   6.732   1.964   1.769  0.3364 -0.0395 -0.0604
30449SOL    HW197439   6.651   1.968   1.717 -0.0860  2.0063  0.6739
30449SOL    HW297440   6.777   2.045   1.749 -0.2470  1.2698  3.3394
30450SOL     OW97441   5.203   5.846   3.447  0.9086 -0.0946  0.1791
30450SOL    HW197442   5.111   5.852   3.421  1.3931 -0.9535 -1.9533
30450SOL    HW297443   5.214   5.755   3.473  1.3527 -0.2061 -0.4008
30451SOL     OW97444   5.925   9.034   4.845 -0.4184 -0.1542  0.1083
30451SOL    HW197445   5.973   9.054   4.765 -1.1053  0.9017 -0.0682
30451SOL    HW297446   5.989   9.047   4.915 -0.3513  1.0058 -0.1381
30452SOL     OW97447   2.973   1.084   0.402 -0.1666  0.2212  0.1553
30452SOL    HW197448   3.050   1.141   0.393  0.3754 -0.4084  0.6380
30452SOL    HW297449   2.934   1.109   0.486 -0.5518  0.6130 -0.1404
30453SOL     OW97450   6.779   8.340   9.630  0.1029 -0.0826  0.5388
30453SOL    HW197451   6.712   8.337   9.698 -1.1214  0.7261 -0.5809
30453SOL    HW297452   6.862   8.339   9.678 -0.6840 -1.3728  1.9469
30454SOL     OW97453  10.002   2.499   0.609 -0.0155  0.1241  0.1753
30454SOL    HW197454  10.094   2.521   0.626  0.3474 -0.2365 -1.1920
30454SOL    HW297455   9.964   2.578   0.572  0.3329 -0.3591 -1.2898
30455SOL     OW97456   1.971   8.455   2.890  0.2978  0.6187  0.0307
30455SOL    HW197457   1.976   8.537   2.840 -0.3615  0.1150 -0.8951
30455SOL    HW297458   1.877   8.441   2.904  0.4053  0.0188  0.1843
30456SOL     OW97459   2.386   7.755   7.005 -0.4140  0.2629  0.7108
30456SOL    HW197460   2.295   7.750   6.976 -0.5056 -1.2427  1.1932
30456SOL    HW297461   2.382   7.751   7.100  0.2058 -0.8623  0.7041
30457SOL     OW97462   3.211   7.070   7.409 -0.7080  0.5769  0.0583
30457SOL    HW197463   3.228   7.022   7.490  0.1089  0.0419 -0.4102
30457SOL    HW297464   3.116   7.068   7.399 -0.6799 -1.3462 -0.1571
30458SOL     OW97465   6.126  10.488   4.011  0.4510  0.2143  0.0031
30458SOL    HW197466   6.052  10.433   4.033 -0.0869  0.2973 -1.4754
30458SOL    HW297467   6.201  10.449   4.057 -0.2241 -0.7558  0.2960
30459SOL     OW97468  10.714   8.477   8.684  0.3834  0.0982  0.0982
30459SOL    HW197469  10.697   8.419   8.609  1.8209 -1.1321  0.6777
30459SOL    HW297470  10.686   8.564   8.653 -0.4776 -0.6364 -1.3121
30460SOL     OW97471   9.033   7.569   1.821  0.0894 -0.1748  0.3142
30460SOL    HW197472   9.017   7.553   1.728 -0.6591 -1.1029  0.5820
30460SOL    HW297473   8.945   7.567   1.860  0.4975 -0.9174  1.2020
30461SOL     OW97474   1.315   5.438   9.200 -0.0300 -0.4546  0.4029
30461SOL    HW197475   1.396   5.410   9.158 -0.2221 -1.0201  0.3991
30461SOL    HW297476   1.284   5.511   9.147  0.1814 -0.6048  0.0706
30462SOL     OW97477   6.573   0.256  10.305  0.3443 -0.0312 -0.0214
30462SOL    HW197478   6.559   0.257  10.400  1.4733  0.3481  0.1482
30462SOL    HW297479   6.519   0.328  10.272 -0.5645 -0.5742  0.2450
30463SOL     OW97480   8.254   1.261   9.224 -0.1166 -0.2597 -0.1627
30463SOL    HW197481   8.278   1.354   9.233  3.2863 -0.9495 -0.6184
30463SOL    HW297482   8.337   1.214   9.234 -1.8209 -3.3501  0.6638
30464SOL     OW97483   3.445   6.309   4.132 -0.1030  0.1072  0.8383
30464SOL    HW197484   3.437   6.214   4.125  1.0204  0.1443 -1.9527
30464SOL    HW297485   3.354   6.340   4.136 -0.4801 -1.0391  2.1859
30465SOL     OW97486  10.153   1.663   7.111 -0.7933 -0.0504  0.4294
30465SOL    HW197487  10.063   1.695   7.109 -0.0487  2.2341  0.0838
30465SOL    HW297488  10.162   1.622   7.197 -2.1812 -0.4096  0.4215
30466SOL     OW97489   0.758   0.692   2.981 -0.0347 -0.3817  0.0843
30466SOL    HW197490   0.781   0.633   3.053  1.1391 -1.5756 -1.2266
30466SOL    HW297491   0.818   0.669   2.911 -0.0904  1.8444 -0.7635
30467SOL     OW97492   8.771   4.629   0.357 -0.3090  0.4707  0.0710
30467SOL    HW197493   8.773   4.706   0.414 -0.9319  0.5713 -0.0371
30467SOL    HW297494   8.728   4.659   0.277 -1.7969 -0.3080  0.5366
30468SOL     OW97495   6.261   2.457   9.187  0.6355  0.4380 -0.1635
30468SOL    HW197496   6.318   2.519   9.231 -1.0457  2.2228 -0.3878
30468SOL    HW297497   6.296   2.371   9.212  2.2210  1.4177  1.2310
30469SOL     OW97498   0.044  10.612   7.620 -0.2722  0.1299  0.2128
30469SOL    HW197499   0.102  10.683   7.650  0.5544  0.5077 -2.1110
30469SOL    HW297500  -0.031  10.617   7.680  0.5785  1.7824  1.2486
30470SOL     OW97501   6.924   7.782   4.371  0.1085 -0.2161  0.0260
30470SOL    HW197502   6.891   7.871   4.384  2.4931  0.6897  0.4944
30470SOL    HW297503   6.919   7.742   4.458 -0.3644 -0.3140 -0.0464
30471SOL     OW97504   5.541   6.057  10.315  0.0621 -0.6685  0.0619
30471SOL    HW197505   5.554   6.130  10.254 -0.5428 -0.9159 -0.3742
30471SOL    HW297506   5.549   6.097  10.402  1.0926 -0.3428 -0.1707
30472SOL     OW97507   6.532   6.079   9.024 -0.1117 -0.0413  0.1968
30472SOL    HW197508   6.582   6.074   8.943 -1.1463 -0.5249 -0.4287
30472SOL    HW297509   6.590   6.126   9.085  1.1682 -0.7531 -0.4302
30473SOL     OW97510   0.265   3.828   9.775 -0.5549 -0.6162 -0.6335
30473SOL    HW197511   0.280   3.746   9.729 -1.2963 -0.7488 -0.6607
30473SOL    HW297512   0.211   3.804   9.851 -2.9219  0.1325 -1.9630
30474SOL     OW97513   3.039   0.331  10.580 -0.4850  0.0719  0.1673
30474SOL    HW197514   3.031   0.421  10.609 -1.1085  0.5316 -1.3556
30474SOL    HW297515   2.949   0.299  10.572 -0.2716 -1.1061  1.8308
30475SOL     OW97516   9.028   5.247   5.608 -0.2461 -0.2117  0.3123
30475SOL    HW197517   8.941   5.259   5.647 -1.1952  0.2511 -1.7811
30475SOL    HW297518   9.010   5.210   5.521  1.7595 -1.5346  0.3924
30476SOL     OW97519   0.267   1.654   7.778  0.1808 -0.2295 -0.3248
30476SOL    HW197520   0.248   1.735   7.824 -0.3383 -0.8380  0.5537
30476SOL    HW297521   0.226   1.586   7.831  0.0161 -1.0015 -1.4201
30477SOL     OW97522  10.518  10.894   5.851 -0.0854  0.5637  0.0476
30477SOL    HW197523  10.447  10.832   5.837 -0.0246  0.6166 -0.5193
30477SOL    HW297524  10.588  10.841   5.889 -0.1877  0.3762 -0.0213
30478SOL     OW97525   6.444  10.282   0.421  0.0301  0.2336 -0.4316
30478SOL    HW197526   6.368  10.283   0.363  0.3751  1.6842 -0.9068
30478SOL    HW297527   6.477  10.192   0.417 -1.1018 -0.1680 -0.9475
30479SOL     OW97528   3.750   9.057   3.047 -0.5048 -0.3466 -0.1899
30479SOL    HW197529   3.689   9.001   3.095 -0.8996  0.2405 -0.0064
30479SOL    HW297530   3.739   9.031   2.955  0.2842 -1.4991  0.0239
30480SOL     OW97531   3.901   8.173  10.832 -0.2164  0.0410 -0.2259
30480SOL    HW197532   3.935   8.262  10.824 -1.4277  0.4339 -1.5538
30480SOL    HW297533   3.962   8.129  10.891  0.9411  1.4803 -0.2839
30481SOL     OW97534  10.307   6.071   5.693  0.1147  0.3932  0.0763
30481SOL    HW197535  10.281   6.109   5.610  0.1874 -0.9178 -0.5734
30481SOL    HW297536  10.383   6.017   5.673 -0.0589 -0.1991  0.9182
30482SOL     OW97537   1.999   4.542   2.108 -0.7333 -0.4730  0.1994
30482SOL    HW197538   2.017   4.552   2.202 -0.7262  1.5760  0.0354
30482SOL    HW297539   1.913   4.500   2.104 -1.9175  1.6517  1.2355
30483SOL     OW97540   3.880   4.734   8.167  0.2583 -0.1950 -0.2516
30483SOL    HW197541   3.914   4.805   8.112 -2.8344  1.5748 -0.1337
30483SOL    HW297542   3.940   4.730   8.241  0.7804  2.1029 -0.4671
30484SOL     OW97543   5.357  10.133   1.945  0.0163 -0.7325 -0.0593
30484SOL    HW197544   5.338  10.193   2.018 -0.9380 -0.4040 -0.5725
30484SOL    HW297545   5.403  10.060   1.987 -1.1213 -0.8828  0.9961
30485SOL     OW97546  10.042   7.421   0.449  0.4094 -0.0012 -0.3669
30485SOL    HW197547  10.105   7.363   0.493 -0.3972 -0.3327  0.3898
30485SOL    HW297548   9.958   7.378   0.463  0.1083 -0.0579 -2.1738
30486SOL     OW97549  10.350   3.058   5.996 -0.0280  0.0502  0.1870
30486SOL    HW197550  10.364   2.981   6.051 -0.4967  0.0104  0.2544
30486SOL    HW297551  10.354   3.132   6.057 -0.9453 -0.0233  0.3400
30487SOL     OW97552   7.100   7.866   1.665 -0.0997 -0.5813  0.1678
30487SOL    HW197553   7.155   7.942   1.648 -0.2729 -0.8612 -1.8633
30487SOL    HW297554   7.154   7.809   1.720 -0.1042  1.1030  2.0511
30488SOL     OW97555   2.547   6.679   2.449 -0.1665 -0.0895 -0.0066
30488SOL    HW197556   2.603   6.607   2.480 -0.4105 -0.3378 -0.1378
30488SOL    HW297557   2.539   6.664   2.355  1.6023  1.3726 -0.4392
30489SOL     OW97558   3.890   2.372   1.805  0.0488  0.2647 -0.0350
30489SOL    HW197559   3.876   2.401   1.895 -1.6999 -1.7407  0.4103
30489SOL    HW297560   3.934   2.445   1.763 -0.3999  1.8317  2.0647
30490SOL     OW97561   4.922   8.458   0.542  1.2096  0.2439 -0.1730
30490SOL    HW197562   4.945   8.493   0.628  2.6622  0.5038 -0.6413
30490SOL    HW297563   4.830   8.433   0.550  0.1960  3.6430  0.3669
30491SOL     OW97564   4.052   5.834   8.601 -0.0008 -0.8415 -0.0649
30491SOL    HW197565   4.044   5.773   8.528  0.8208 -2.1037  0.8607
30491SOL    HW297566   3.975   5.891   8.594 -1.0185 -2.2470 -0.7249
30492SOL     OW97567  10.893   9.113   8.318 -0.1203  0.2443  0.5487
30492SOL    HW197568  10.873   9.107   8.225  0.9927  2.6886  0.0541
30492SOL    HW297569  10.808   9.125   8.361 -0.4833  1.5931 -0.4743
30493SOL     OW97570   6.487   9.676   6.880  0.7709 -0.5157  0.0238
30493SOL    HW197571   6.519   9.643   6.964  0.7969  3.0228  1.5720
30493SOL    HW297572   6.555   9.736   6.850 -0.8049  1.0477 -0.6242
30494SOL     OW97573   3.742  10.007   5.932 -0.1714  0.2760  0.0279
30494SOL    HW197574   3.819  10.001   5.876  0.4903  0.2791  0.9216
30494SOL    HW297575   3.709  10.096   5.919  0.8322  0.7641  0.7362
30495SOL     OW97576   3.108   2.819  10.424  0.2076  0.0547 -0.3531
30495SOL    HW197577   3.132   2.815  10.516  0.2017  0.0744 -0.3508
30495SOL    HW297578   3.190   2.843  10.379  0.4442 -0.9219 -0.4551
30496SOL     OW97579  10.213   1.797   6.576 -0.1250  0.4428 -0.0314
30496SOL    HW197580  10.186   1.821   6.665  1.0322 -1.0695  0.7964
30496SOL    HW297581  10.174   1.864   6.520 -2.5895  0.3253  1.3773
30497SOL     OW97582   1.152   9.094   6.366  0.1328  0.3027  0.3121
30497SOL    HW197583   1.090   9.158   6.401  0.3723  0.1399  1.0386
30497SOL    HW297584   1.133   9.013   6.415  0.6750  0.1542  0.2799
30498SOL     OW97585   4.382   0.572   2.324 -0.3339  0.1613 -0.1382
30498SOL    HW197586   4.394   0.600   2.233 -0.2123 -0.4443 -0.3137
30498SOL    HW297587   4.470   0.569   2.361 -0.3549  0.0990 -0.0921
30499SOL     OW97588   9.208   2.699   1.595 -0.2862 -0.6491 -0.7928
30499SOL    HW197589   9.175   2.688   1.506  0.8026 -1.8897 -1.0707
30499SOL    HW297590   9.260   2.780   1.591  0.0717 -0.8989 -1.4005
30500SOL     OW97591   2.075   9.741   2.220  0.6158 -0.0753  0.0573
30500SOL    HW197592   2.003   9.709   2.166  0.4928 -0.6128  0.5280
30500SOL    HW297593   2.047   9.828   2.249  0.2259 -0.2162  0.1053
30501SOL     OW97594  10.593   1.711   5.563  0.6102  0.4604  0.0260
30501SOL    HW197595  10.581   1.798   5.601 -1.6414  0.1221  0.2078
30501SOL    HW297596  10.613   1.728   5.471 -0.5419  1.1679 -0.1107
30502SOL     OW97597   4.317   6.412   9.637 -0.3471  0.3256 -0.0914
30502SOL    HW197598   4.231   6.452   9.626  0.1953  1.1000 -1.8709
30502SOL    HW297599   4.378   6.479   9.608  0.7509 -0.8043 -0.4549
30503SOL     OW97600   2.084   6.595   7.903 -0.0710  0.1313 -0.1274
30503SOL    HW197601   2.010   6.648   7.935  1.1220  0.4655  2.3033
30503SOL    HW297602   2.161   6.647   7.925  0.9525 -0.8065 -1.4228
30504SOL     OW97603   4.496   7.285   7.887 -0.1144  0.1394  0.1654
30504SOL    HW197604   4.537   7.369   7.909  0.0859  0.1699 -0.2965
30504SOL    HW297605   4.490   7.238   7.970 -0.3658  0.6723  0.4503
30505SOL     OW97606   7.217   5.174   2.897 -0.4259 -0.0774 -0.3421
30505SOL    HW197607   7.149   5.175   2.965 -0.5094  0.2879 -0.4273
30505SOL    HW297608   7.194   5.100   2.842  1.2886 -2.2366  1.6584
30506SOL     OW97609   5.537   9.517   0.294 -0.2572 -0.0040 -0.6430
30506SOL    HW197610   5.615   9.465   0.277  0.4953  0.4067  1.2608
30506SOL    HW297611   5.464   9.457   0.276  0.4016 -0.0981 -3.3722
30507SOL     OW97612   4.354   4.395  10.205 -0.6814  0.2749 -0.1592
30507SOL    HW197613   4.413   4.455  10.251 -0.2737 -0.4618  0.3068
30507SOL    HW297614   4.402   4.368  10.127  0.2107 -1.3896  0.9076
30508SOL     OW97615   3.507   2.330   1.812  0.1194  0.0157  0.3792
30508SOL    HW197616   3.508   2.272   1.736  0.9464  1.4033 -0.7170
30508SOL    HW297617   3.550   2.279   1.881  3.3071  0.1937 -1.2936
30509SOL     OW97618   2.069   7.652   1.986 -0.1183 -0.4541 -0.4357
30509SOL    HW197619   2.030   7.647   2.074 -1.3474  0.5970 -0.9027
30509SOL    HW297620   2.159   7.623   1.999  0.3396  1.5865  1.5649
30510SOL     OW97621   7.780   9.388   6.071  0.3579 -0.3420  0.1440
30510SOL    HW197622   7.852   9.432   6.115 -1.3275  2.3159  0.4433
30510SOL    HW297623   7.759   9.314   6.128  1.7154 -0.1448  0.9293
30511SOL     OW97624   5.501   9.221   8.528  0.0341  0.4106  0.2019
30511SOL    HW197625   5.519   9.196   8.618  0.3567  1.2554  0.3858
30511SOL    HW297626   5.581   9.265   8.499 -0.0046  0.0062 -0.5486
30512SOL     OW97627   0.756   6.981   5.333 -0.0270 -0.2190 -0.0802
30512SOL    HW197628   0.700   7.051   5.366 -2.7807 -3.4459  2.8458
30512SOL    HW297629   0.810   7.023   5.265 -1.3759  4.6081  1.4644
30513SOL     OW97630   0.083   0.622   9.895 -0.1663  1.2119  0.0174
30513SOL    HW197631   0.166   0.585   9.862 -0.1396 -0.5839  1.9232
30513SOL    HW297632   0.107   0.709   9.928  0.8110  1.0152 -0.1451
30514SOL     OW97633   3.240   0.193  10.485  0.0915  0.1662 -0.5230
30514SOL    HW197634   3.160   0.241  10.510  0.5652  0.1531  1.1720
30514SOL    HW297635   3.269   0.152  10.566  2.1415  0.6279 -0.9690
30515SOL     OW97636   9.948  10.069   2.199 -0.4589 -0.5972  0.0921
30515SOL    HW197637   9.904  10.013   2.264  1.8188 -0.2402  2.1008
30515SOL    HW297638  10.004  10.009   2.150  1.3185 -0.3110  1.6581
30516SOL     OW97639   2.545   9.879   8.618  0.2516 -0.4766  0.0161
30516SOL    HW197640   2.597   9.954   8.588  0.7701 -0.6981  0.3683
30516SOL    HW297641   2.558   9.876   8.713  0.3572 -1.1142 -0.0163
30517SOL     OW97642   6.665   6.194   9.256 -0.5287 -0.1100 -0.3734
30517SOL    HW197643   6.617   6.197   9.338 -1.1123  1.4385 -0.7392
30517SOL    HW297644   6.732   6.262   9.264  0.1498 -0.7038 -0.7590
30518SOL     OW97645   5.464   7.087   3.795  0.0436  0.1953  0.0568
30518SOL    HW197646   5.424   7.159   3.748  0.8552  1.1301  0.7482
30518SOL    HW297647   5.404   7.068   3.867  0.4189  1.0569  0.6204
30519SOL     OW97648   5.736   8.887   8.987  0.0085 -0.2111 -0.4729
30519SOL    HW197649   5.769   8.797   8.993  0.5883  0.0227 -0.0897
30519SOL    HW297650   5.719   8.900   8.893  0.5251 -0.5064 -0.6127
30520SOL     OW97651   9.918   2.761   8.671 -0.4562 -0.3573 -0.2208
30520SOL    HW197652   9.919   2.794   8.581  0.3705 -1.9677 -0.8534
30520SOL    HW297653   9.826   2.743   8.689 -0.6497  0.1252 -0.6904
30521SOL     OW97654   2.359   8.938   2.913  0.0029 -0.8157 -0.0400
30521SOL    HW197655   2.450   8.918   2.934  0.0670 -1.3700 -0.8181
30521SOL    HW297656   2.363   8.998   2.839 -0.2109  1.6073  1.7995
30522SOL     OW97657   7.338   4.134   9.165  0.0116  0.0202  0.3447
30522SOL    HW197658   7.363   4.061   9.108 -0.7459  2.3905 -3.3554
30522SOL    HW297659   7.374   4.110   9.251  1.6308 -3.6521 -1.1170
30523SOL     OW97660   0.380   3.456   5.204 -0.7938  0.3710  0.2286
30523SOL    HW197661   0.315   3.441   5.272 -0.2155 -0.1836  0.6786
30523SOL    HW297662   0.346   3.410   5.127  0.4439 -2.6121  1.2918
30524SOL     OW97663  10.475  10.055   2.888  0.1555  0.2755 -0.2462
30524SOL    HW197664  10.459  10.144   2.856 -0.5617 -0.0325 -0.7899
30524SOL    HW297665  10.570  10.048   2.896  0.2380  0.9650 -0.5651
30525SOL     OW97666  10.557   9.700   6.034 -0.7384 -0.1157  0.0719
30525SOL    HW197667  10.490   9.767   6.051 -1.4222 -0.5859 -0.7067
30525SOL    HW297668  10.588   9.719   5.945  0.7023  0.5383  0.6812
30526SOL     OW97669   4.313   3.910   8.739 -0.1343 -0.1686  0.2754
30526SOL    HW197670   4.258   3.984   8.715 -0.3665 -0.8086 -1.2924
30526SOL    HW297671   4.289   3.841   8.676  1.8802 -0.7394  0.0772
30527SOL     OW97672   6.077   3.573   6.472 -0.3455  1.0041 -0.1142
30527SOL    HW197673   6.104   3.550   6.384 -0.7316  1.6387 -0.4090
30527SOL    HW297674   5.996   3.624   6.460 -1.4273 -0.4367  0.6913
30528SOL     OW97675   3.801   2.015   0.591  0.6052 -0.1654 -0.4140
30528SOL    HW197676   3.793   1.991   0.499  0.3151 -1.6575 -0.0263
30528SOL    HW297677   3.711   2.019   0.622  0.7352 -0.8985  0.0865
30529SOL     OW97678   9.407   6.345   3.503  0.1158  0.0455  0.1283
30529SOL    HW197679   9.495   6.323   3.475 -0.4299 -1.4863 -0.4623
30529SOL    HW297680   9.352   6.329   3.426 -0.2963  4.4942 -0.7847
30530SOL     OW97681   2.214   0.234   9.702  0.4382 -0.4837  0.0820
30530SOL    HW197682   2.282   0.193   9.648 -0.6005 -0.6004 -1.1831
30530SOL    HW297683   2.263   0.278   9.771  2.1529  2.2075 -2.5634
30531SOL     OW97684   8.416   6.781   4.425  0.2342  0.1810 -0.2091
30531SOL    HW197685   8.478   6.840   4.468  0.8150 -0.0433 -0.7212
30531SOL    HW297686   8.465   6.744   4.352 -1.0390  1.3035 -1.6834
30532SOL     OW97687   8.380   8.886   9.822 -0.1111  0.0845 -0.4531
30532SOL    HW197688   8.350   8.831   9.749  2.0812 -0.4934 -1.0054
30532SOL    HW297689   8.307   8.887   9.884 -0.7738 -2.2698 -1.1082
30533SOL     OW97690   5.067   0.653   3.663 -0.2326  0.0308  0.3364
30533SOL    HW197691   5.062   0.567   3.621  2.1533 -0.2777  0.5126
30533SOL    HW297692   5.038   0.638   3.753 -1.9636 -0.0643 -0.1982
30534SOL     OW97693   2.151   8.054   8.343 -0.1290  0.2023  0.1487
30534SOL    HW197694   2.215   8.125   8.352 -1.7289  1.7096  0.1709
30534SOL    HW297695   2.196   7.976   8.376  1.8815  1.0750 -0.3913
30535SOL     OW97696   6.438   0.964   8.220 -0.3116  0.0237 -0.1548
30535SOL    HW197697   6.377   0.897   8.251 -0.2504 -0.3102 -0.7422
30535SOL    HW297698   6.383   1.027   8.175 -0.2078 -0.3899 -0.8756
30536SOL     OW97699   2.543   1.897   9.251  0.0328 -0.4848 -0.4600
30536SOL    HW197700   2.627   1.852   9.265  1.0414  1.5312  0.4485
30536SOL    HW297701   2.517   1.872   9.163  1.7415 -0.9615 -0.8734
30537SOL     OW97702   9.063   1.696   2.728  0.0547 -0.8450  0.2790
30537SOL    HW197703   9.147   1.720   2.767 -0.4682  0.7576  0.5031
30537SOL    HW297704   9.086   1.653   2.645  1.0977 -0.2379  0.2370
30538SOL     OW97705  10.391   3.196   1.699 -0.3708  1.0153  0.3417
30538SOL    HW197706  10.406   3.290   1.690  3.6559  0.4777 -0.5237
30538SOL    HW297707  10.423   3.174   1.787 -2.2231  0.4890  0.9530
30539SOL     OW97708   4.112   4.708   7.335 -0.6277  0.4569 -0.3635
30539SOL    HW197709   4.193   4.676   7.376  0.1421  1.5371 -0.9730
30539SOL    HW297710   4.106   4.799   7.364 -0.5773  0.9633 -1.8670
30540SOL     OW97711   3.965   1.970   5.069  0.0948 -0.4182 -0.0591
30540SOL    HW197712   4.056   1.945   5.080  0.5849  0.7962 -1.1903
30540SOL    HW297713   3.958   2.002   4.980 -1.3449 -0.0731  0.1407
30541SOL     OW97714   4.854   2.843   2.111 -0.0177  0.4683 -0.5265
30541SOL    HW197715   4.933   2.824   2.161  0.8372  0.3639 -1.8731
30541SOL    HW297716   4.873   2.814   2.022 -0.9980  1.8349 -1.2372
30542SOL     OW97717   8.667   9.684   6.154 -0.0503  0.4195  0.7161
30542SOL    HW197718   8.621   9.736   6.220 -1.0316  1.5391 -0.7819
30542SOL    HW297719   8.685   9.746   6.083  1.4718 -0.6113  0.1407
30543SOL     OW97720   4.196   0.963   3.210  0.2217 -0.0061  0.1093
30543SOL    HW197721   4.263   0.962   3.278 -0.0613 -1.4091  0.3935
30543SOL    HW297722   4.133   1.030   3.238 -0.1275 -0.8850  1.4888
30544SOL     OW97723  10.338   3.233   1.317 -0.0523  0.8134 -0.2150
30544SOL    HW197724  10.401   3.191   1.375  0.1211  1.3509 -0.0077
30544SOL    HW297725  10.257   3.236   1.368 -0.0852  0.6631 -0.2582
30545SOL     OW97726   4.849   9.645   4.780  0.0055 -0.3517  0.4027
30545SOL    HW197727   4.873   9.737   4.795 -1.0228 -0.2286  1.4032
30545SOL    HW297728   4.759   9.638   4.813 -0.7048 -1.2275 -1.5487
30546SOL     OW97729   2.735   7.650  10.479  0.1682 -0.3041  0.0406
30546SOL    HW197730   2.811   7.706  10.464 -0.0879  0.4093  1.2151
30546SOL    HW297731   2.678   7.667  10.404 -1.9055  4.5039  2.2679
30547SOL     OW97732   4.562   1.803   0.673 -0.4431 -0.3665 -0.0575
30547SOL    HW197733   4.562   1.892   0.709  1.0857  0.9538 -2.9608
30547SOL    HW297734   4.645   1.766   0.702 -0.0688 -0.0038 -0.6512
30548SOL     OW97735   1.508   3.652   3.255 -0.2356  0.2484  0.2035
30548SOL    HW197736   1.427   3.699   3.236 -1.0929 -1.4560 -0.5280
30548SOL    HW297737   1.481   3.562   3.268  1.4792 -0.2351  0.6298
30549SOL     OW97738   5.789   9.565   8.759 -0.1518  0.3964 -0.3111
30549SOL    HW197739   5.846   9.504   8.712  2.6762  3.2706 -0.9157
30549SOL    HW297740   5.784   9.530   8.848 -0.1698 -1.6285 -1.0508
30550SOL     OW97741   9.053   5.598   0.109 -0.6759  0.2461 -0.7188
30550SOL    HW197742   8.959   5.609   0.102 -0.5530  2.1530  0.0424
30550SOL    HW297743   9.081   5.574   0.020 -1.9860 -1.6788 -0.6612
30551SOL     OW97744   6.521   2.064   7.384  0.1158  0.0433 -0.1437
30551SOL    HW197745   6.540   1.971   7.375  0.5813  0.1090  0.0838
30551SOL    HW297746   6.537   2.100   7.297  1.6230  0.1800  0.1484
30552SOL     OW97747   3.809   6.911   1.322  0.1327 -0.2573 -0.5401
30552SOL    HW197748   3.792   6.898   1.229  0.7729 -1.0630 -0.5565
30552SOL    HW297749   3.730   6.953   1.355  0.0256  0.3363 -1.5057
30553SOL     OW97750   0.464  10.191  10.127  0.1791  0.2792  0.0824
30553SOL    HW197751   0.454  10.222  10.217 -1.5544  2.2013 -0.6656
30553SOL    HW297752   0.379  10.153  10.105  0.6940 -0.4990 -0.6356
30554SOL     OW97753   6.253   1.812   9.783 -0.4035  0.1582 -0.2372
30554SOL    HW197754   6.195   1.802   9.858 -0.9149 -2.2749 -0.8766
30554SOL    HW297755   6.196   1.842   9.712  0.0859  2.4921  0.2904
30555SOL     OW97756   9.095   2.854   2.054 -0.2145 -0.1566 -0.0562
30555SOL    HW197757   9.073   2.809   1.973 -0.2279  0.7391 -0.5653
30555SOL    HW297758   9.026   2.920   2.064 -0.6129 -0.7042  1.0579
30556SOL     OW97759   3.255   2.132   8.684  0.2104  0.0168  0.1060
30556SOL    HW197760   3.223   2.126   8.594  2.3347 -2.2118 -0.6030
30556SOL    HW297761   3.308   2.212   8.685 -0.5692  0.5532 -0.3420
30557SOL     OW97762   8.531   3.385   9.470  0.2182 -0.2599  0.1896
30557SOL    HW197763   8.482   3.354   9.394 -1.4199  0.1493  1.0280
30557SOL    HW297764   8.540   3.479   9.457  0.0656 -0.2117  0.4123
30558SOL     OW97765  10.492  10.773   9.743  0.0118  0.0045 -0.5836
30558SOL    HW197766  10.402  10.779   9.710 -0.6895  3.0818  1.4679
30558SOL    HW297767  10.497  10.840   9.811  3.2026 -1.6799  1.0650
30559SOL     OW97768   6.006  10.540   5.881  0.1430 -0.2975 -0.0966
30559SOL    HW197769   5.930  10.587   5.915 -0.7475 -1.5621 -0.2804
30559SOL    HW297770   6.066  10.610   5.854 -0.2923  0.7329  1.4327
30560SOL     OW97771  10.321   2.261   7.795  0.2414 -0.3206 -0.2015
30560SOL    HW197772  10.234   2.263   7.832  0.7267 -0.6147  0.9934
30560SOL    HW297773  10.341   2.352   7.773 -0.7027 -0.3645 -1.3645
30561SOL     OW97774  10.458   9.769   7.973 -0.2262 -0.4971  0.5073
30561SOL    HW197775  10.486   9.718   7.896  0.4590  1.3386 -0.5052
30561SOL    HW297776  10.374   9.806   7.947 -1.1319 -1.7361  1.5616
30562SOL     OW97777   8.276   5.980  10.219 -0.1659 -0.3615 -0.4829
30562SOL    HW197778   8.256   5.888  10.237  1.4335 -0.5392  0.6777
30562SOL    HW297779   8.243   6.027  10.295 -1.9646  0.2175 -1.5654
30563SOL     OW97780   0.699   0.025   0.097 -0.8212 -0.0050 -0.0070
30563SOL    HW197781   0.625   0.084   0.110 -0.1264  0.6435  1.1045
30563SOL    HW297782   0.684  -0.047   0.158 -0.4484  0.2140  0.3450
30564SOL     OW97783   4.219   4.111  10.908 -0.6074  0.1788  0.8006
30564SOL    HW197784   4.157   4.159  10.854  1.4947  0.4461 -1.5892
30564SOL    HW297785   4.284   4.176  10.933  0.3501 -0.6554  0.5745
30565SOL     OW97786   3.546   8.786   8.959 -0.0657 -0.2333  0.2893
30565SOL    HW197787   3.494   8.796   9.039  1.2207 -0.9321  1.2533
30565SOL    HW297788   3.579   8.874   8.940 -0.1790 -0.1079  0.6727
30566SOL     OW97789   7.898   6.640   1.038 -0.1872  0.3814 -0.1229
30566SOL    HW197790   7.980   6.670   1.077 -1.1706 -0.1169  2.5236
30566SOL    HW297791   7.918   6.553   1.004  0.5009  0.4472  0.1023
30567SOL     OW97792   1.600   0.620   3.043 -0.2196 -0.4683 -0.3909
30567SOL    HW197793   1.597   0.681   2.969  0.2594 -0.6209 -0.5424
30567SOL    HW297794   1.562   0.539   3.008 -0.4402 -0.3904 -0.3268
30568SOL     OW97795   5.996   6.715   7.511 -0.3405 -0.2462 -0.1227
30568SOL    HW197796   5.966   6.661   7.584 -0.6546 -1.8056 -1.3461
30568SOL    HW297797   5.916   6.738   7.464 -0.2623  1.7055  0.5967
30569SOL     OW97798   8.268  10.200   9.873  0.4670 -0.2185  0.2891
30569SOL    HW197799   8.258  10.137   9.945  0.8843 -0.2387  0.3306
30569SOL    HW297800   8.265  10.286   9.916  1.7089 -0.2516  0.4560
30570SOL     OW97801   5.947   9.954   5.184 -0.8060  0.1449 -0.1396
30570SOL    HW197802   6.031   9.919   5.212  0.4457  1.4574 -2.0443
30570SOL    HW297803   5.951  10.047   5.204 -1.4992  0.3638 -0.9532
30571SOL     OW97804   6.483   4.500   6.821 -0.9226  0.6856 -0.1217
30571SOL    HW197805   6.550   4.488   6.754  0.0590  1.9001  0.5976
30571SOL    HW297806   6.426   4.424   6.812  0.5713 -0.4028 -0.7327
30572SOL     OW97807   6.399  10.675   0.742  0.5626  0.1681 -0.2520
30572SOL    HW197808   6.495  10.670   0.750  0.6089  1.2253 -0.0145
30572SOL    HW297809   6.380  10.630   0.660  1.3790  0.9349 -0.8753
30573SOL     OW97810   3.856   7.083   2.199 -0.1469  0.4755  0.3821
30573SOL    HW197811   3.874   7.008   2.143 -1.8998  0.7283 -0.5926
30573SOL    HW297812   3.923   7.147   2.176  0.6368 -0.3394  0.3670
30574SOL     OW97813   5.986   7.746  10.570  0.2431 -0.4868 -0.0785
30574SOL    HW197814   5.978   7.779  10.660 -1.6786 -0.6799 -0.1354
30574SOL    HW297815   5.980   7.651  10.578 -1.7699 -0.4472 -0.5047
30575SOL     OW97816   0.952   7.709   8.422  0.5302 -0.0178  0.0004
30575SOL    HW197817   0.888   7.733   8.489 -0.2440  0.6459 -0.9501
30575SOL    HW297818   1.023   7.773   8.431  0.2170  0.3441 -0.1001
30576SOL     OW97819   0.352   6.609   9.396  0.0935  0.3058  0.0548
30576SOL    HW197820   0.346   6.573   9.307  1.1725 -0.8611  0.4173
30576SOL    HW297821   0.277   6.667   9.404 -0.4779 -0.1990 -1.3398
30577SOL     OW97822   8.914   1.436   3.773  0.0848 -0.1388 -0.1874
30577SOL    HW197823   8.849   1.414   3.841 -0.8057 -2.4076 -1.6640
30577SOL    HW297824   8.983   1.371   3.785  1.1435  0.9847  0.0399
30578SOL     OW97825   3.591   3.608  10.707 -0.0331  0.3919  0.1885
30578SOL    HW197826   3.503   3.572  10.716  0.3188 -0.3820  0.6161
30578SOL    HW297827   3.577   3.700  10.687 -0.9466  0.0983 -0.5975
30579SOL     OW97828   8.024   1.598   7.874  0.2661  0.2415 -0.0319
30579SOL    HW197829   8.078   1.627   7.947  1.8735 -0.5713 -0.8420
30579SOL    HW297830   8.085   1.551   7.817 -1.8257 -3.1464  0.3099
30580SOL     OW97831   4.937   9.823   1.739  0.4475  0.1520  0.1445
30580SOL    HW197832   4.866   9.878   1.774  0.4537 -0.3855  1.0207
30580SOL    HW297833   4.897   9.777   1.665 -0.1427 -0.2129  0.6865
30581SOL     OW97834   9.062  10.409   5.333  0.2640  0.2638  0.3884
30581SOL    HW197835   9.149  10.381   5.361  0.5607  2.3482  1.7541
30581SOL    HW297836   9.057  10.381   5.242  3.1613  1.7308 -0.3597
30582SOL     OW97837   8.769   0.736   0.463  0.1004 -0.1646 -0.0282
30582SOL    HW197838   8.735   0.733   0.552  1.2384  1.9612  0.5458
30582SOL    HW297839   8.864   0.728   0.473  0.4419  2.1626 -0.7951
30583SOL     OW97840   3.837   8.094   4.075 -0.7791  0.1913 -0.1076
30583SOL    HW197841   3.905   8.044   4.031 -1.5578  0.2956 -1.4792
30583SOL    HW297842   3.817   8.044   4.154  2.6452  1.4464  1.7328
30584SOL     OW97843  10.656   4.088  10.024  0.0415  0.2740  0.3293
30584SOL    HW197844  10.614   4.071   9.940  1.0187  1.9844 -0.5532
30584SOL    HW297845  10.748   4.065  10.010 -0.2794 -2.4341  1.9222
30585SOL     OW97846   3.866   9.315   6.872  0.4623  0.5987 -0.3418
30585SOL    HW197847   3.907   9.308   6.786  0.3464 -1.3336 -0.2977
30585SOL    HW297848   3.804   9.388   6.865  1.3628  1.2739 -1.4844
30586SOL     OW97849   1.731   2.101   7.621  0.4454  0.4114  0.4214
30586SOL    HW197850   1.796   2.048   7.575  1.0211  0.0080  1.6522
30586SOL    HW297851   1.667   2.125   7.554 -1.1777 -3.7747  0.1740
30587SOL     OW97852   4.011   3.080   1.427 -0.7854 -0.0280 -0.1462
30587SOL    HW197853   3.989   3.166   1.464  0.0870  0.0483  0.2246
30587SOL    HW297854   3.932   3.028   1.438 -0.5458 -0.0442  1.9784
30588SOL     OW97855   3.248  10.120   3.620 -0.6585 -0.1755  0.6018
30588SOL    HW197856   3.237  10.208   3.584 -1.7767 -0.0291  1.2335
30588SOL    HW297857   3.310  10.130   3.691 -0.4512  0.0215  0.3931
30589SOL     OW97858   9.379   4.632   8.603  0.3995  0.9144  0.0862
30589SOL    HW197859   9.447   4.598   8.544  0.7492  2.2726 -0.3361
30589SOL    HW297860   9.412   4.613   8.691 -1.3225 -3.4973 -0.0044
30590SOL     OW97861   6.964   9.044   6.558  0.0261  0.5554  0.0396
30590SOL    HW197862   6.971   9.099   6.636  1.1577  0.3989  0.0659
30590SOL    HW297863   6.999   9.098   6.487  2.5510 -0.5637  0.3116
30591SOL     OW97864   8.397  10.016   1.861  0.2847 -0.3030  0.5144
30591SOL    HW197865   8.431  10.106   1.861 -0.2513 -0.0961  0.7716
30591SOL    HW297866   8.400   9.990   1.769  0.1370  0.0977  0.3920
30592SOL     OW97867   4.004   5.476   9.704  0.2917  0.7411  0.1100
30592SOL    HW197868   4.005   5.571   9.691 -0.2881  0.9242  1.2462
30592SOL    HW297869   3.996   5.465   9.798  1.7075 -0.4682  0.1223
30593SOL     OW97870   3.202   7.824   5.922  0.2152 -0.6683  0.1242
30593SOL    HW197871   3.165   7.910   5.904 -0.7912 -1.1140  0.0015
30593SOL    HW297872   3.127   7.766   5.926  0.9747 -1.7989 -1.1584
30594SOL     OW97873   5.493  10.168   4.473  0.5224 -0.7640 -0.6422
30594SOL    HW197874   5.548  10.120   4.535  2.4752 -0.6615 -2.1939
30594SOL    HW297875   5.520  10.259   4.484 -1.6873 -0.2082  0.8205
30595SOL     OW97876   2.833   6.507   2.137  0.2876  0.1022  0.3143
30595SOL    HW197877   2.868   6.478   2.052 -0.5032 -1.2467  0.4074
30595SOL    HW297878   2.773   6.578   2.115 -1.1448 -1.2766 -0.4987
30596SOL     OW97879   7.888   5.726   9.551  0.0517 -0.4156  0.1074
30596SOL    HW197880   7.883   5.768   9.638 -0.4377 -0.7852  0.2560
30596SOL    HW297881   7.828   5.652   9.556 -1.0306  0.3509 -0.9986
30597SOL     OW97882   9.700   3.269   8.658  0.0993 -0.5841 -0.5417
30597SOL    HW197883   9.660   3.335   8.601 -1.7945 -0.7877  0.4555
30597SOL    HW297884   9.778   3.240   8.610 -0.2428  0.7783 -2.0168
30598SOL     OW97885   7.536   3.580   0.073 -0.1347 -0.0618  0.6484
30598SOL    HW197886   7.506   3.668   0.053 -2.5284 -0.8547  0.3980
30598SOL    HW297887   7.575   3.586   0.160  1.3816  1.5499 -0.0994
30599SOL     OW97888   0.354   6.262   0.361 -0.0573 -0.4250  0.2274
30599SOL    HW197889   0.314   6.302   0.439 -1.1130 -2.5553  0.8702
30599SOL    HW297890   0.389   6.335   0.311  1.0528  1.0101  2.9159
30600SOL     OW97891   7.231   5.323   0.679 -0.3300 -0.2886  0.3098
30600SOL    HW197892   7.259   5.232   0.668 -1.2023 -0.4137 -1.0665
30600SOL    HW297893   7.178   5.322   0.759  0.0302 -0.8921  0.5466
30601SOL     OW97894  10.095   7.925   5.435  0.5051 -0.5075  0.0541
30601SOL    HW197895  10.010   7.909   5.395 -0.0194  0.4218  0.7635
30601SOL    HW297896  10.128   7.837   5.457  0.7012 -1.0383 -2.1006
30602SOL     OW97897   2.200   6.385  10.261  0.2711  0.5670 -0.1651
30602SOL    HW197898   2.148   6.462  10.239 -0.5894  0.5786  1.6806
30602SOL    HW297899   2.137   6.324  10.301  1.4184  0.0151  0.8811
30603SOL     OW97900   4.655   0.601   1.328 -0.0897 -0.2830 -0.5268
30603SOL    HW197901   4.626   0.683   1.367 -0.9442 -1.1403  0.7329
30603SOL    HW297902   4.744   0.588   1.360  0.1516  0.2827 -0.9625
30604SOL     OW97903   2.198   4.415   6.918  0.2255  0.0953 -0.4906
30604SOL    HW197904   2.266   4.466   6.962 -0.5729 -0.3270  1.2789
30604SOL    HW297905   2.237   4.329   6.904  0.3440  0.1114 -0.2553
30605SOL     OW97906   3.147   3.837   8.027 -0.3932  0.5830  0.2543
30605SOL    HW197907   3.202   3.775   7.978  0.1351 -0.2702  1.8584
30605SOL    HW297908   3.165   3.922   7.987  0.9789  0.0991 -0.2287
30606SOL     OW97909   6.935   6.588   9.598  0.1548  0.1754  0.2852
30606SOL    HW197910   7.006   6.647   9.623  1.5749  0.1661 -3.1932
30606SOL    HW297911   6.856   6.641   9.603  0.9362  1.3306  0.6229
30607SOL     OW97912   3.543   7.266   0.017  0.5384  0.2636  0.1693
30607SOL    HW197913   3.452   7.248  -0.009  0.3319  2.2946 -0.6417
30607SOL    HW297914   3.592   7.261  -0.065  1.3763 -1.7210  0.7270
30608SOL     OW97915   3.282   9.561   0.730 -0.4740  0.8743  0.5618
30608SOL    HW197916   3.270   9.476   0.688 -0.7071  0.7800  0.8197
30608SOL    HW297917   3.365   9.554   0.776  0.6434  1.5389 -1.2476
30609SOL     OW97918   7.268   2.476   4.875 -0.1704  0.3504 -0.4085
30609SOL    HW197919   7.198   2.413   4.893  0.3844 -0.3561 -0.6778
30609SOL    HW297920   7.292   2.460   4.783 -0.8442  1.7846 -0.8639
30610SOL     OW97921   9.372   1.123   2.202 -0.0901 -0.2128  0.2383
30610SOL    HW197922   9.313   1.047   2.202 -1.7194  0.8862 -2.6448
30610SOL    HW297923   9.403   1.129   2.112  0.2370  2.3652  0.4654
30611SOL     OW97924   0.288   8.301   9.562 -0.0493 -0.0229 -0.3087
30611SOL    HW197925   0.277   8.352   9.643 -1.3101 -1.6122  0.5740
30611SOL    HW297926   0.255   8.359   9.494  0.6948  1.2147  0.3352
30612SOL     OW97927   2.182   5.714   2.631 -0.2761 -0.5196 -0.6093
30612SOL    HW197928   2.130   5.720   2.711  2.0115 -0.3908  0.9640
30612SOL    HW297929   2.175   5.622   2.605  1.1601 -1.2714  1.3919
30613SOL     OW97930  10.791   1.432   7.500  0.6083  0.4084  0.4319
30613SOL    HW197931  10.753   1.520   7.503 -0.1864  0.0873  0.0018
30613SOL    HW297932  10.757   1.389   7.578  1.1477  0.5269  0.7440
30614SOL     OW97933   1.446   5.970   5.430  0.3198  0.1398  0.1583
30614SOL    HW197934   1.458   5.936   5.519 -0.1519  0.2389  0.2594
30614SOL    HW297935   1.526   5.944   5.384  0.2279 -0.5806  0.3959
30615SOL     OW97936   6.042   1.927   9.667  0.0103  0.3848  0.5404
30615SOL    HW197937   5.961   1.926   9.617  0.1744 -0.1768  0.2753
30615SOL    HW297938   6.025   1.987   9.740 -0.3904  0.8280  0.0808
30616SOL     OW97939   0.486   3.487   9.931 -0.0397  0.0822  0.2197
30616SOL    HW197940   0.399   3.488   9.891  0.0590  0.5108  0.0040
30616SOL    HW297941   0.535   3.421   9.881 -0.7410 -1.4450  1.4635
30617SOL     OW97942   0.404   8.140   1.797 -0.1548 -0.2256  0.0688
30617SOL    HW197943   0.428   8.185   1.878 -2.2299 -0.4564  0.8723
30617SOL    HW297944   0.370   8.210   1.741 -1.2311 -0.4358  0.4427
30618SOL     OW97945   2.478   8.501   5.236  0.4249 -0.2162 -0.1355
30618SOL    HW197946   2.425   8.435   5.281  0.0276 -0.7254 -1.3076
30618SOL    HW297947   2.419   8.576   5.225 -0.2274 -0.9283 -1.7921
30619SOL     OW97948   9.247  10.427   2.721 -0.4938  0.1491 -0.5762
30619SOL    HW197949   9.224  10.335   2.710 -0.8422  0.2209 -0.4725
30619SOL    HW297950   9.170  10.475   2.689 -0.0060  0.4177 -1.3908
30620SOL     OW97951   9.922   7.652   5.104  0.0487  0.4813  0.4932
30620SOL    HW197952   9.911   7.684   5.194  0.4679  1.4255  0.2204
30620SOL    HW297953   9.975   7.573   5.113 -1.2774 -0.3706  1.2113
30621SOL     OW97954   1.432   7.448   2.198 -0.3693  0.0036  0.2076
30621SOL    HW197955   1.453   7.410   2.113 -1.1566 -1.8646  0.7974
30621SOL    HW297956   1.339   7.429   2.211  0.0575 -1.0887  2.0942
30622SOL     OW97957   8.343   7.784   2.640  0.0778 -0.4552 -0.1405
30622SOL    HW197958   8.271   7.721   2.633  0.2428 -0.7890  0.9263
30622SOL    HW297959   8.410   7.751   2.580 -0.3582 -0.5683 -0.5680
30623SOL     OW97960   7.050   9.098   7.332 -0.1964  0.4242  0.7842
30623SOL    HW197961   7.022   9.186   7.309 -0.5645 -0.3916 -2.3607
30623SOL    HW297962   7.145   9.104   7.340  0.0639  0.7524 -1.7466
30624SOL     OW97963   5.239   2.438   2.785 -0.1215  0.1102  0.1007
30624SOL    HW197964   5.274   2.472   2.868 -0.1634 -1.3555  0.7488
30624SOL    HW297965   5.229   2.344   2.800  1.5389 -0.5249 -2.1503
30625SOL     OW97966   1.262   6.779   7.016  0.4387 -0.3198  0.7779
30625SOL    HW197967   1.355   6.798   7.014  0.3397  0.1477 -0.5809
30625SOL    HW297968   1.220   6.863   7.033  0.1860 -0.0397 -1.0351
30626SOL     OW97969   5.129   5.958   9.558  0.1091  0.0472 -0.0500
30626SOL    HW197970   5.160   5.971   9.468 -0.4456 -1.4843 -0.4990
30626SOL    HW297971   5.208   5.967   9.612  0.9783 -1.5925 -0.9570
30627SOL     OW97972  10.926   5.725   9.845  0.0457  0.3403  0.1631
30627SOL    HW197973  10.997   5.762   9.897  0.3695 -0.0593  0.0147
30627SOL    HW297974  10.970   5.676   9.775 -0.3623  2.0118 -1.3436
30628SOL     OW97975  10.314   0.303   6.397 -0.2292  0.0559 -0.2067
30628SOL    HW197976  10.254   0.246   6.348 -1.6783  1.0661  0.2971
30628SOL    HW297977  10.297   0.391   6.362  1.6966  0.2712 -0.7223
30629SOL     OW97978   6.500   9.417   3.955 -0.7383  0.9627 -1.0123
30629SOL    HW197979   6.409   9.389   3.944 -0.4836 -1.2069  1.4165
30629SOL    HW297980   6.544   9.385   3.877 -1.6504 -0.0866 -1.1215
30630SOL     OW97981   7.643  10.555   7.942  0.3905 -0.2819 -0.1643
30630SOL    HW197982   7.696  10.629   7.970  0.9192 -0.7694  0.1602
30630SOL    HW297983   7.589  10.589   7.871  0.0796  0.6045  0.4798
30631SOL     OW97984   4.015   8.579   9.988 -0.1146  0.2290 -0.2821
30631SOL    HW197985   3.932   8.592  10.033  0.0404 -0.4088  0.1904
30631SOL    HW297986   4.080   8.619  10.045  0.2460 -1.6796  0.7155
30632SOL     OW97987   7.190   3.120   8.175 -0.3279  0.3853  0.0182
30632SOL    HW197988   7.136   3.188   8.216  0.2503  1.2195 -0.5783
30632SOL    HW297989   7.233   3.164   8.102  1.3907 -0.1563  0.6399
30633SOL     OW97990   3.227   9.764   9.630  0.1521  0.4016  0.3575
30633SOL    HW197991   3.201   9.718   9.709 -0.2787  0.3002  0.1595
30633SOL    HW297992   3.166   9.734   9.563  0.7423  0.2076 -0.1075
30634SOL     OW97993   2.170   6.566   6.822  0.1406 -0.0821 -0.0595
30634SOL    HW197994   2.128   6.619   6.754 -1.6219 -1.5908 -0.2129
30634SOL    HW297995   2.123   6.588   6.902  2.1114  1.5707  0.7429
30635SOL     OW97996   9.633   3.615   5.621  0.0611  0.2438 -0.1369
30635SOL    HW197997   9.575   3.539   5.620 -0.2931  0.4898 -1.9735
30635SOL    HW297998   9.694   3.599   5.549  2.6593 -0.2339  2.0264
30636SOL     OW97999   6.915   0.738   5.433  0.2237  0.0408 -0.8464
30636SOL    HW198000   6.901   0.722   5.527 -0.7260 -4.0845 -1.5084
30636SOL    HW298001   6.826   0.736   5.396  0.7498 -1.1620 -2.1136
30637SOL     OW98002   5.458   0.481   1.245  0.2724  0.6691 -0.0959
30637SOL    HW198003   5.526   0.548   1.255 -0.3902  1.7885 -2.3301
30637SOL    HW298004   5.490   0.407   1.296  1.0102  2.6617  2.5454
30638SOL     OW98005   0.683   8.765  10.251  0.2460 -0.6555  0.0391
30638SOL    HW198006   0.714   8.678  10.228  0.6943 -0.6074  0.4381
30638SOL    HW298007   0.599   8.750  10.295  0.6861 -0.9471  0.7903
30639SOL     OW98008   0.093   3.253   2.417 -0.1003 -0.0307 -0.1911
30639SOL    HW198009   0.186   3.246   2.437 -0.0860  0.6793 -0.0095
30639SOL    HW298010   0.088   3.321   2.349 -0.4232 -0.5171 -0.6641
30640SOL     OW98011   1.043   2.071   5.078  0.0092  0.0919 -0.0394
30640SOL    HW198012   0.979   2.009   5.043  1.5036 -1.1943 -0.5992
30640SOL    HW298013   1.116   2.017   5.108  1.2308  1.5562 -0.2278
30641SOL     OW98014   3.256   0.303   6.437 -0.0527  0.4360  0.0270
30641SOL    HW198015   3.275   0.244   6.364  1.9581  1.8480 -0.6814
30641SOL    HW298016   3.259   0.246   6.515 -0.4817 -0.7855 -0.8208
30642SOL     OW98017  10.045  10.118   9.408 -0.1399 -0.6560  0.1796
30642SOL    HW198018  10.109  10.052   9.434 -0.5803 -1.2531 -0.2509
30642SOL    HW298019  10.026  10.099   9.317 -1.4352 -0.8968  0.4858
30643SOL     OW98020   8.530   3.123   7.436 -0.2727  0.1269 -0.0418
30643SOL    HW198021   8.478   3.193   7.477  0.5243  0.8252 -0.2020
30643SOL    HW298022   8.619   3.138   7.466 -0.3844 -2.1140  1.6563
30644SOL     OW98023   1.456  10.833   4.352 -0.0553 -0.2423 -0.3942
30644SOL    HW198024   1.517  10.762   4.333 -0.0099 -0.6609  1.1679
30644SOL    HW298025   1.370  10.792   4.351  0.0246 -0.4967  1.1789
30645SOL     OW98026   1.595   9.271  10.719 -0.0331  0.0586  0.1528
30645SOL    HW198027   1.647   9.233  10.648 -1.5121 -0.6688 -0.6029
30645SOL    HW298028   1.652   9.266  10.795  1.4503  0.4649 -0.8784
30646SOL     OW98029   8.698   2.008   8.687 -0.2711  0.7713  0.1833
30646SOL    HW198030   8.768   2.016   8.623  0.6338  1.8401  1.2628
30646SOL    HW298031   8.644   1.935   8.655 -0.1681  1.6020 -2.0454
30647SOL     OW98032   7.183   1.305   9.707  0.3051 -0.8613  0.3610
30647SOL    HW198033   7.126   1.280   9.633 -1.0204  1.2839  0.5390
30647SOL    HW298034   7.148   1.257   9.782 -0.9664 -0.0364  0.3405
30648SOL     OW98035   1.435   0.561   4.626 -0.8426 -0.0575 -0.4686
30648SOL    HW198036   1.474   0.648   4.613  0.8065 -0.7515 -0.4292
30648SOL    HW298037   1.438   0.548   4.721  0.5339 -0.8278 -0.5900
30649SOL     OW98038   4.030   4.259   2.798  0.5177 -0.2819  0.2604
30649SOL    HW198039   3.979   4.201   2.855 -0.7974  0.4581 -0.1217
30649SOL    HW298040   4.101   4.204   2.766  0.7806 -0.9593  1.9065
30650SOL     OW98041   0.191   8.939  10.691  0.0871 -0.0261 -0.3180
30650SOL    HW198042   0.192   8.874  10.620 -1.1275 -0.9476  0.4702
30650SOL    HW298043   0.269   8.919  10.743 -0.1027 -0.6510 -0.2672
30651SOL     OW98044   6.886   2.678   4.188  0.6290  0.3759  0.1377
30651SOL    HW198045   6.844   2.595   4.165 -2.5585  1.2827  1.9542
30651SOL    HW298046   6.938   2.701   4.111 -3.4300 -0.2667 -3.1694
30652SOL     OW98047   6.663  10.710   8.679  0.0095 -0.3339  0.5425
30652SOL    HW198048   6.741  10.669   8.641  1.2241  2.2318  0.0338
30652SOL    HW298049   6.694  10.753   8.758 -0.4724  2.0409 -0.4783
30653SOL     OW98050   2.042   0.438   8.998 -0.2217 -0.3498 -0.3368
30653SOL    HW198051   2.132   0.408   8.982 -0.8765 -2.0255 -1.0575
30653SOL    HW298052   1.987   0.371   8.958 -1.8069  0.7546 -0.0759
30654SOL     OW98053   2.524   8.388   9.961  0.0018  0.8321 -0.4640
30654SOL    HW198054   2.551   8.407   9.871  1.3839  0.8695 -0.0606
30654SOL    HW298055   2.429   8.397   9.960 -0.1241 -0.2070 -2.1760
30655SOL     OW98056   1.846   3.315   4.310 -0.3072 -0.0485  0.3211
30655SOL    HW198057   1.832   3.301   4.216 -1.9947  0.3982  0.4686
30655SOL    HW298058   1.837   3.410   4.322 -1.5403 -0.2443  1.1161
30656SOL     OW98059   1.738   1.851   7.295  0.5687 -0.1796 -0.4573
30656SOL    HW198060   1.758   1.790   7.365  0.9546 -1.3171 -1.5129
30656SOL    HW298061   1.788   1.930   7.315  0.3280 -0.3266  0.7537
30657SOL     OW98062   3.451   6.305   6.955  0.1400 -0.3653  0.3348
30657SOL    HW198063   3.371   6.301   7.006 -1.0039  1.9484 -1.1273
30657SOL    HW298064   3.462   6.397   6.934  0.6983 -1.0978 -3.2523
30658SOL     OW98065   7.351   2.784   3.045 -0.6792  0.0859 -0.3495
30658SOL    HW198066   7.353   2.865   3.097 -1.3903 -0.7175  1.0103
30658SOL    HW298067   7.389   2.718   3.103 -0.2768 -0.5992 -1.3717
30659SOL     OW98068   8.607   8.483   7.688  0.5447 -0.5388 -0.6876
30659SOL    HW198069   8.687   8.534   7.682 -0.0171  0.7227  1.5188
30659SOL    HW298070   8.537   8.548   7.695 -0.4106 -1.5982 -0.0670
30660SOL     OW98071   3.966  10.072   2.458  0.3357 -0.2299 -0.3670
30660SOL    HW198072   3.883  10.090   2.502  0.3987 -0.6836 -0.0528
30660SOL    HW298073   3.995   9.988   2.495 -0.0522 -1.0985 -1.9283
30661SOL     OW98074  10.916   4.494   3.899 -0.3828 -0.1399 -0.3110
30661SOL    HW198075  10.854   4.492   3.826  1.3312 -0.0341 -1.8581
30661SOL    HW298076  10.993   4.446   3.866  1.0474  1.2519  0.8485
30662SOL     OW98077   9.893   3.080   4.421 -0.3360  0.1488  0.1772
30662SOL    HW198078   9.917   3.167   4.451  1.0280 -0.1465  0.0265
30662SOL    HW298079   9.945   3.068   4.341  0.7966 -1.4216  1.0895
30663SOL     OW98080   7.210   3.768   6.725 -0.4546 -0.2029  1.0053
30663SOL    HW198081   7.156   3.844   6.703  1.7031  1.0485 -0.3763
30663SOL    HW298082   7.201   3.710   6.649 -0.9850 -0.6796  1.4268
30664SOL     OW98083   3.690   4.662   7.962  0.4309 -0.7288 -0.2692
30664SOL    HW198084   3.741   4.655   8.043 -1.1462 -3.0483  0.6154
30664SOL    HW298085   3.749   4.628   7.894  0.5927 -2.1220  0.5247
30665SOL     OW98086   0.175   2.325   6.336  0.7973 -0.3011  0.3352
30665SOL    HW198087   0.181   2.321   6.431 -1.6892 -2.1625  0.5044
30665SOL    HW298088   0.146   2.238   6.310 -0.1014  0.6157 -1.9735
30666SOL     OW98089   8.803   1.668   9.639  0.1917  0.1036 -0.4473
30666SOL    HW198090   8.827   1.613   9.565  1.5960  0.2331 -0.1112
30666SOL    HW298091   8.782   1.606   9.709 -0.0200 -0.0049 -0.6048
30667SOL     OW98092   5.311   3.025   9.335  0.3756 -0.3954  0.5129
30667SOL    HW198093   5.241   3.062   9.388  1.0369 -1.1619  2.0150
30667SOL    HW298094   5.309   3.074   9.253 -2.6509 -1.1866  0.0144
30668SOL     OW98095   1.002   3.613   7.924  0.0733 -0.1438  0.3026
30668SOL    HW198096   0.949   3.658   7.859 -0.4381 -1.4709 -0.2413
30668SOL    HW298097   0.942   3.593   7.996  0.7191  1.6672  1.4381
30669SOL     OW98098   1.551   8.669   1.808 -0.3100  0.5032 -0.0225
30669SOL    HW198099   1.594   8.587   1.834 -1.1961 -0.7225 -2.1701
30669SOL    HW298100   1.621   8.734   1.812  1.2627 -0.9885 -1.2287
30670SOL     OW98101  10.855   9.159   4.613 -0.1211  0.2812  0.3998
30670SOL    HW198102  10.887   9.112   4.536  1.5819  0.7971  0.7446
30670SOL    HW298103  10.772   9.199   4.585  0.1821 -0.0031 -0.9737
30671SOL     OW98104   7.306   7.621   7.272 -0.0368 -0.4204 -0.0445
30671SOL    HW198105   7.229   7.654   7.225  0.5729  1.2281  0.0358
30671SOL    HW298106   7.279   7.620   7.364  0.9904  3.5936  0.5076
30672SOL     OW98107   5.211   4.808   7.291 -0.3764  0.1311 -0.8384
30672SOL    HW198108   5.273   4.776   7.356 -1.9226 -1.1525  0.0680
30672SOL    HW298109   5.211   4.903   7.303  0.7560  0.0833 -0.2851
30673SOL     OW98110   3.026   2.185   9.197  0.0152 -0.1451  0.8031
30673SOL    HW198111   3.056   2.145   9.115  0.7408  1.6333  0.1642
30673SOL    HW298112   2.955   2.244   9.171 -0.1057  0.0426  1.5340
30674SOL     OW98113   3.766  10.350   5.536 -0.2079  0.3621  0.0684
30674SOL    HW198114   3.744  10.257   5.543 -0.5442  0.5662  2.2834
30674SOL    HW298115   3.810  10.357   5.451  2.4572 -2.3477  1.0623
30675SOL     OW98116   3.572   1.941   6.699  0.1181  0.2988  0.1309
30675SOL    HW198117   3.562   1.870   6.762  1.0366  1.1532  1.2681
30675SOL    HW298118   3.662   1.972   6.712 -0.2733  1.6702 -0.3443
30676SOL     OW98119   0.839   3.898   4.270  0.2056 -0.2188 -0.1789
30676SOL    HW198120   0.791   3.832   4.221 -3.4160  0.9804  1.3658
30676SOL    HW298121   0.894   3.848   4.331 -1.2887 -1.8215 -0.0723
30677SOL     OW98122   8.168   8.494   9.875  0.2162  0.1399 -0.3554
30677SOL    HW198123   8.144   8.493   9.968  0.3570 -0.8187 -0.3211
30677SOL    HW298124   8.088   8.468   9.830 -0.6001  2.9590 -0.7208
30678SOL     OW98125   7.154   4.918  10.010 -0.6859  0.3915 -0.2398
30678SOL    HW198126   7.193   4.845   9.962 -0.5993  0.3231 -0.0691
30678SOL    HW298127   7.220   4.987  10.006 -0.3174  0.0991  0.4887
30679SOL     OW98128  10.282   9.117   4.499  0.6544  0.0597  0.1734
30679SOL    HW198129  10.319   9.187   4.445  0.5635 -0.3857 -0.4811
30679SOL    HW298130  10.249   9.053   4.436 -4.6049  2.0306  0.4238
30680SOL     OW98131   9.757   2.980   8.107 -0.2909 -0.2689 -0.0918
30680SOL    HW198132   9.733   3.054   8.051 -0.9130 -0.6642 -0.3528
30680SOL    HW298133   9.849   2.996   8.129  0.0153 -0.1926 -1.3543
30681SOL     OW98134   1.482  10.583   9.150  0.1530  0.4502  0.5791
30681SOL    HW198135   1.573  10.569   9.124  0.1925  0.8439  0.5002
30681SOL    HW298136   1.485  10.660   9.206 -0.3872  1.6375 -0.9601
30682SOL     OW98137   2.525   7.526   2.690 -0.0284 -0.0712  0.0856
30682SOL    HW198138   2.478   7.464   2.745  0.1643 -0.8570 -0.6123
30682SOL    HW298139   2.617   7.519   2.717 -0.0364  0.0631  0.1488
30683SOL     OW98140   0.821  10.670   5.221  0.0447 -0.3131  0.2839
30683SOL    HW198141   0.898  10.673   5.278 -1.0045  0.6204  1.7336
30683SOL    HW298142   0.827  10.586   5.176  1.1564 -0.9004  1.4708
30684SOL     OW98143   5.341   6.729   4.728  0.0099  0.1352  0.1539
30684SOL    HW198144   5.280   6.778   4.783 -1.2334 -0.7225 -0.4157
30684SOL    HW298145   5.364   6.652   4.780  0.3295  0.2694  0.2169
30685SOL     OW98146   6.297  10.639   7.320 -0.0303 -0.5125  0.2297
30685SOL    HW198147   6.365  10.593   7.272 -0.7851 -2.3556  0.8232
30685SOL    HW298148   6.284  10.721   7.272  0.3471 -1.5596 -1.7502
30686SOL     OW98149   3.463  10.282   0.298 -0.0749  0.5840  0.8315
30686SOL    HW198150   3.521  10.261   0.371 -1.2278  0.9271  1.8831
30686SOL    HW298151   3.378  10.299   0.339 -1.6089 -2.2898 -0.7909
30687SOL     OW98152   3.020   9.565   9.627  0.2918 -0.1124 -0.1404
30687SOL    HW198153   2.969   9.488   9.602  1.1307 -0.3053 -1.3822
30687SOL    HW298154   2.955   9.631   9.650 -0.4447 -1.0957  0.6781
30688SOL     OW98155   4.408   7.741   1.510 -0.4631  0.0781  0.3055
30688SOL    HW198156   4.389   7.709   1.422 -0.3564 -1.0619  0.6806
30688SOL    HW298157   4.469   7.814   1.497  0.3470 -0.7206 -0.5259
30689SOL     OW98158   7.924   3.132   4.897  0.2259 -0.4496  0.4861
30689SOL    HW198159   7.993   3.177   4.946 -1.0707  0.9463  1.1166
30689SOL    HW298160   7.909   3.186   4.820  0.9964 -1.6720 -0.5575
30690SOL     OW98161   1.681   5.410   6.053  0.5053 -0.2082  0.0954
30690SOL    HW198162   1.633   5.330   6.074  0.9708 -0.4890  0.1005
30690SOL    HW298163   1.614   5.478   6.052  0.3846 -0.2329  2.1135
30691SOL     OW98164   0.609   0.783  10.817 -0.7898  0.3554 -0.6617
30691SOL    HW198165   0.591   0.872  10.846  1.6868  1.8245 -3.1712
30691SOL    HW298166   0.557   0.773  10.737 -2.2546 -1.1281  0.3895
30692SOL     OW98167   4.487  10.345   6.737 -0.1274  0.6202 -0.2731
30692SOL    HW198168   4.500  10.362   6.830  0.9520 -1.8887  0.0911
30692SOL    HW298169   4.391  10.345   6.726 -0.2785  0.3879  0.9369
30693SOL     OW98170   9.465   1.241   7.354 -0.6054  0.5957 -0.3876
30693SOL    HW198171   9.396   1.185   7.317 -0.9170  1.1459 -0.6475
30693SOL    HW298172   9.545   1.212   7.309 -0.5667 -0.3889  0.2796
30694SOL     OW98173  10.710   8.282   8.381 -0.2124 -0.7011 -0.2509
30694SOL    HW198174  10.725   8.228   8.303 -1.3922 -1.3206 -0.0654
30694SOL    HW298175  10.631   8.246   8.421 -2.1295  2.2795 -1.0631
30695SOL     OW98176   7.078   5.022   0.471  0.1608  0.1005  0.6462
30695SOL    HW198177   6.989   5.012   0.436  0.1643  1.5365  0.1529
30695SOL    HW298178   7.081   5.111   0.504  1.5207  0.1897  0.3572
30696SOL     OW98179  10.202   0.741   7.199  0.3082 -0.1657 -0.2768
30696SOL    HW198180  10.227   0.761   7.108 -0.9116  1.2035 -0.3543
30696SOL    HW298181  10.235   0.816   7.249  2.2567 -1.5889  0.6963
30697SOL     OW98182   5.917   1.567   8.151 -0.3535 -0.3128  0.8479
30697SOL    HW198183   5.960   1.566   8.237  0.6533  0.2047  0.3683
30697SOL    HW298184   5.968   1.506   8.098  0.5455  1.1435 -0.0549
30698SOL     OW98185   1.453   9.806   2.653  0.0626 -0.1346  0.2368
30698SOL    HW198186   1.462   9.828   2.746  0.0106  0.0376  0.2012
30698SOL    HW298187   1.474   9.887   2.607  0.0788 -0.2181  0.0972
30699SOL     OW98188   8.819   3.772   9.883  0.6861  0.3327  0.3773
30699SOL    HW198189   8.888   3.800   9.943 -1.1690  2.5725  1.5792
30699SOL    HW298190   8.777   3.853   9.855 -0.7958 -0.9091 -1.1888
30700SOL     OW98191  10.453   8.263   4.817 -0.1599 -0.2762  0.1938
30700SOL    HW198192  10.465   8.218   4.901 -1.4635 -0.6986  0.1693
30700SOL    HW298193  10.358   8.270   4.806 -0.0209 -0.4660 -1.3824
30701SOL     OW98194   7.450   9.486   2.969 -0.1697  0.3048 -0.1210
30701SOL    HW198195   7.487   9.456   2.885  1.5948  1.2807  0.2608
30701SOL    HW298196   7.358   9.501   2.950 -0.2685 -1.4864 -1.3384
30702SOL     OW98197   2.174   0.483   4.491  0.0148 -0.1607  0.8134
30702SOL    HW198198   2.222   0.408   4.526  4.0312  1.0310 -1.4235
30702SOL    HW298199   2.126   0.449   4.415  0.4472 -0.7690  0.8113
30703SOL     OW98200   5.472   5.953   0.728  0.6455  0.4958 -0.3128
30703SOL    HW198201   5.414   5.950   0.804 -0.3413 -0.9499 -1.0908
30703SOL    HW298202   5.433   6.019   0.670 -0.6676 -0.9534 -1.1401
30704SOL     OW98203   6.352   1.824   6.197  0.2403  0.1584  0.6883
30704SOL    HW198204   6.427   1.883   6.190  0.1861  0.0175 -1.6775
30704SOL    HW298205   6.376   1.764   6.268  2.2605  0.2907  0.1918
30705SOL     OW98206   1.103   8.552   7.082 -0.3628 -0.5038  0.2679
30705SOL    HW198207   1.046   8.480   7.112  3.0212 -3.5883 -0.0034
30705SOL    HW298208   1.125   8.599   7.162 -3.2089  0.8711  0.3666
30706SOL     OW98209   3.328   5.029   6.192 -0.1921 -0.7746  0.1494
30706SOL    HW198210   3.283   4.961   6.241 -1.1725  0.7328  1.4496
30706SOL    HW298211   3.286   5.111   6.220  3.4232  0.7919  1.5929
30707SOL     OW98212   7.571   3.641   0.339 -0.1887 -0.3502 -0.5016
30707SOL    HW198213   7.489   3.690   0.350 -1.1690 -1.4226 -2.4258
30707SOL    HW298214   7.640   3.705   0.354 -1.4167  1.2604 -1.4359
30708SOL     OW98215   7.046   0.295  10.132 -0.3054 -0.1295  0.1907
30708SOL    HW198216   7.032   0.390  10.128  0.3578 -0.0075  0.6411
30708SOL    HW298217   7.026   0.272  10.222  1.6726 -0.0468  0.7065
30709SOL     OW98218   5.396   3.506   7.341 -0.0904  0.1684 -0.3186
30709SOL    HW198219   5.368   3.595   7.364  2.5493  0.9095  0.3664
30709SOL    HW298220   5.404   3.508   7.245 -2.5004 -0.1728 -0.5732
30710SOL     OW98221  10.589   4.946   6.836  0.5618 -0.0682  0.2536
30710SOL    HW198222  10.617   4.910   6.920 -1.9220  1.9319  2.0644
30710SOL    HW298223  10.499   4.916   6.826  1.3084 -1.7598 -2.6983
30711SOL     OW98224  10.618   4.277   3.682 -0.3661 -0.0945 -0.5129
30711SOL    HW198225  10.527   4.251   3.667 -0.3035 -0.1330 -0.8440
30711SOL    HW298226  10.669   4.206   3.643 -0.1936 -0.0592 -0.3522
30712SOL     OW98227   4.506   3.513   2.381  0.3262  0.4449 -0.0595
30712SOL    HW198228   4.487   3.458   2.305  0.7804  0.8407 -0.4635
30712SOL    HW298229   4.567   3.461   2.434  1.4909  0.9246 -0.9035
30713SOL     OW98230  10.753  10.778   4.411 -0.1013 -0.4363 -0.2850
30713SOL    HW198231  10.833  10.726   4.412  0.3446  0.0368 -2.7480
30713SOL    HW298232  10.696  10.732   4.349 -0.8454  0.4178 -0.2575
30714SOL     OW98233   3.405   1.387   4.124  0.3440 -0.3491  0.2118
30714SOL    HW198234   3.324   1.437   4.111 -0.2111 -1.2176  0.2590
30714SOL    HW298235   3.388   1.303   4.083  0.8218 -0.9472  1.2056
30715SOL     OW98236   7.069   3.090   3.202  0.0999 -0.3307 -0.7425
30715SOL    HW198237   7.157   3.129   3.201  0.4394 -1.0006  0.4054
30715SOL    HW298238   7.019   3.144   3.263  0.0539 -0.6093 -0.5297
30716SOL     OW98239   9.305  10.191   8.118  0.1910  0.2344 -0.2369
30716SOL    HW198240   9.376  10.241   8.078 -0.3744  2.0128  0.9014
30716SOL    HW298241   9.283  10.239   8.197 -0.4799 -1.7752  0.8664
30717SOL     OW98242   9.466   3.813   3.195 -0.5271 -0.0778  0.2517
30717SOL    HW198243   9.553   3.778   3.175 -0.1245  0.7946  0.4106
30717SOL    HW298244   9.416   3.801   3.115  0.5224  1.7238 -0.7445
30718SOL     OW98245   2.461   7.599   5.456 -0.3236 -0.3592 -0.4966
30718SOL    HW198246   2.423   7.663   5.517  1.0580 -0.2038  0.2582
30718SOL    HW298247   2.410   7.519   5.471 -1.9440  0.4794 -1.3090
30719SOL     OW98248   4.129  10.034   5.958 -0.3169 -0.0949 -0.1305
30719SOL    HW198249   4.215  10.075   5.962  0.2108 -1.2053  0.4174
30719SOL    HW298250   4.093  10.042   6.046  0.8228 -2.8430  0.6929
30720SOL     OW98251   1.496   4.000   5.188  0.5925  0.4127 -0.7888
30720SOL    HW198252   1.434   4.069   5.212 -1.4643 -1.3921 -0.6062
30720SOL    HW298253   1.480   3.930   5.251  1.4654 -0.8932 -1.9478
30721SOL     OW98254   5.050   6.086  10.884 -0.0465 -0.5651  0.2657
30721SOL    HW198255   4.990   6.085  10.958  1.6569 -1.0787  1.7100
30721SOL    HW298256   5.055   6.178  10.858  1.0842  0.0365  2.3486
30722SOL     OW98257   7.583   1.250   1.683  0.4136 -0.4625 -0.1114
30722SOL    HW198258   7.672   1.225   1.708 -0.3174 -2.3860  0.7813
30722SOL    HW298259   7.563   1.194   1.608 -0.4976 -1.0233  0.5325
30723SOL     OW98260   4.781  10.107   2.087 -0.0529 -0.1735  0.3500
30723SOL    HW198261   4.856  10.167   2.092 -0.4240  0.5151 -1.5639
30723SOL    HW298262   4.811  10.028   2.131  2.5146 -0.5837 -1.9024
30724SOL     OW98263   9.377   8.569   0.526 -0.3447 -0.4543 -0.2699
30724SOL    HW198264   9.358   8.655   0.490 -1.2730 -0.6610 -0.3082
30724SOL    HW298265   9.433   8.527   0.461  0.6016  0.3271  0.0263
30725SOL     OW98266  10.824   6.232   9.532 -0.1800 -0.0542 -0.2495
30725SOL    HW198267  10.754   6.282   9.575  0.1282  1.2515 -1.2143
30725SOL    HW298268  10.790   6.211   9.445  0.6449  0.6826 -0.7686
30726SOL     OW98269   0.285  10.099   2.898 -0.2768 -0.5194  0.4246
30726SOL    HW198270   0.265  10.014   2.937 -0.6219  0.0386  1.5193
30726SOL    HW298271   0.353  10.136   2.955 -0.1466 -0.0443 -0.0266
30727SOL     OW98272   7.836   0.588   4.017 -0.8839 -0.2300  0.4060
30727SOL    HW198273   7.777   0.523   3.977 -2.0483  1.1947 -0.2767
30727SOL    HW298274   7.781   0.632   4.082  0.0497 -0.2519  1.2218
30728SOL     OW98275   3.018   0.008   6.370 -0.2740  0.3505  0.4982
30728SOL    HW198276   3.097  -0.033   6.405  0.2801  1.9562  1.2202
30728SOL    HW298277   2.998   0.078   6.432 -1.3510  0.9775 -0.5180
30729SOL     OW98278   3.421  10.066   6.300  0.1918  0.2229  0.2719
30729SOL    HW198279   3.448  10.022   6.381 -0.7932 -0.7187  0.1030
30729SOL    HW298280   3.326  10.057   6.298  0.2947 -0.9505 -1.6368
30730SOL     OW98281  10.572   8.745   5.160 -0.0401 -0.4399  0.3339
30730SOL    HW198282  10.528   8.824   5.193 -0.7020 -0.8476  0.4275
30730SOL    HW298283  10.579   8.688   5.236 -0.4389 -0.8679  0.0531
30731SOL     OW98284   9.198   4.215  10.701 -0.6161 -0.1587  0.4900
30731SOL    HW198285   9.157   4.300  10.685 -1.1883 -0.3447  0.9346
30731SOL    HW298286   9.147   4.177  10.773 -1.6834 -1.7629 -1.0318
30732SOL     OW98287   3.925   2.508   8.496 -0.2268  0.2288  0.1724
30732SOL    HW198288   3.995   2.447   8.519 -2.4173 -3.1427 -1.3203
30732SOL    HW298289   3.902   2.550   8.579  1.8204 -0.4354  1.1542
30733SOL     OW98290   2.228   0.085   7.514 -0.3639 -0.3552 -0.0316
30733SOL    HW198291   2.321   0.088   7.493  0.3068 -0.8227  2.5205
30733SOL    HW298292   2.187   0.140   7.448  1.7580  0.1463 -1.0281
30734SOL     OW98293   0.942   3.603   6.385  0.8140 -0.0643  0.0442
30734SOL    HW198294   0.985   3.644   6.310 -0.1279  0.2181 -0.3644
30734SOL    HW298295   0.926   3.675   6.446 -1.5788  0.4388 -1.0214
30735SOL     OW98296   4.657   9.630   9.944 -0.4021  0.3988 -0.0698
30735SOL    HW198297   4.618   9.591  10.022 -1.1177  0.0393 -0.6001
30735SOL    HW298298   4.749   9.641   9.967  0.3307 -3.4058 -0.5410
30736SOL     OW98299   4.526   4.442  10.693 -0.0690  0.2474  0.7460
30736SOL    HW198300   4.466   4.410  10.625  0.5177 -3.1885  1.6666
30736SOL    HW298301   4.481   4.517  10.731 -2.4308 -0.3976 -0.5621
30737SOL     OW98302   3.780   0.891   1.016  0.0071 -0.7877  0.0774
30737SOL    HW198303   3.834   0.825   1.058  0.5676 -1.2087 -1.2401
30737SOL    HW298304   3.792   0.875   0.922 -0.1954  0.9054 -0.2684
30738SOL     OW98305   9.611   8.994   4.268  0.2090 -0.8939  0.4597
30738SOL    HW198306   9.531   9.048   4.264 -0.3435 -1.6889  0.6149
30738SOL    HW298307   9.629   8.986   4.362 -0.7316 -2.4318  0.5452
30739SOL     OW98308   8.368  10.477   8.980 -0.0700 -0.2067 -0.8690
30739SOL    HW198309   8.450  10.439   9.014  0.0054 -0.1960 -1.0379
30739SOL    HW298310   8.317  10.401   8.951  0.0857 -0.1808 -1.2165
30740SOL     OW98311   8.979   8.449  10.198 -0.4894  0.3722 -0.0907
30740SOL    HW198312   9.065   8.492  10.199 -0.5533  0.5012 -0.1231
30740SOL    HW298313   8.936   8.480  10.278 -0.1837 -0.3586  0.3694
30741SOL     OW98314   4.938   4.267   7.251  0.8213 -0.2728 -0.5613
30741SOL    HW198315   4.954   4.216   7.172  2.4539  0.2224 -0.5711
30741SOL    HW298316   4.880   4.212   7.304  3.0833 -2.5162 -0.2476
30742SOL     OW98317   1.501   2.116   1.285 -0.4804 -0.0079 -0.4945
30742SOL    HW198318   1.560   2.110   1.360 -0.5158 -1.2203 -0.5328
30742SOL    HW298319   1.553   2.157   1.217  0.2956 -0.9464 -0.4882
30743SOL     OW98320  10.802   1.409   8.408 -0.5933  0.1987  0.8555
30743SOL    HW198321  10.886   1.369   8.386 -1.2867 -0.2176 -1.3640
30743SOL    HW298322  10.769   1.359   8.482  0.3060 -0.8096  0.5924
30744SOL     OW98323   7.483   9.848   4.120  0.4254  0.3242  0.5253
30744SOL    HW198324   7.563   9.808   4.087  1.1575  2.4859 -0.5517
30744SOL    HW298325   7.460   9.797   4.197  1.9054 -1.3721 -0.0939
30745SOL     OW98326   2.440   0.085   3.988 -0.4984  0.3869 -0.3204
30745SOL    HW198327   2.498   0.033   3.932 -1.1780  0.6087 -1.2481
30745SOL    HW298328   2.498   0.121   4.055  0.5945  1.1685 -1.6140
30746SOL     OW98329   8.422   8.787   1.258 -0.3066  0.2070 -0.0805
30746SOL    HW198330   8.481   8.717   1.286 -2.6838 -0.4919  4.0066
30746SOL    HW298331   8.338   8.744   1.245 -1.5018  2.0440  1.1224
30747SOL     OW98332  10.928   1.893   9.931 -0.3148 -0.3471  0.0459
30747SOL    HW198333  10.963   1.942   9.857  1.6292 -3.1724 -1.0376
30747SOL    HW298334  10.833   1.894   9.917 -0.2723  1.9462 -0.5784
30748SOL     OW98335   2.984   6.009   1.698  1.1401  0.2807 -0.1611
30748SOL    HW198336   3.064   5.976   1.658  0.3606  0.2387 -1.7443
30748SOL    HW298337   2.913   5.961   1.655  0.2842 -1.2178  2.6576
30749SOL     OW98338   5.756   0.567   2.609  0.3402 -0.0934 -0.6125
30749SOL    HW198339   5.836   0.518   2.589  1.0110  0.6591  0.1652
30749SOL    HW298340   5.701   0.555   2.531  0.5591 -1.8906 -0.5351
30750SOL     OW98341   1.231   6.722   6.371 -0.1381  0.2107  0.6739
30750SOL    HW198342   1.296   6.724   6.441 -0.7323  1.4052  1.2290
30750SOL    HW298343   1.264   6.657   6.310  1.0416  0.0394  1.4470
30751SOL     OW98344   9.928   7.813   7.004  0.3734 -0.0355 -0.7509
30751SOL    HW198345   9.851   7.757   6.995 -1.3314  2.2088 -0.8846
30751SOL    HW298346   9.964   7.793   7.090  0.4904 -2.0631 -1.2227
30752SOL     OW98347   7.258  10.905   9.126 -0.2626 -0.2905 -0.4559
30752SOL    HW198348   7.201  10.905   9.049 -0.2408  0.2296 -0.4724
30752SOL    HW298349   7.205  10.866   9.195 -0.2571 -0.8312 -0.7502
30753SOL     OW98350   5.432   3.563   5.355  0.5334  0.6547  0.4332
30753SOL    HW198351   5.408   3.484   5.401  1.6314 -0.7270 -1.2146
30753SOL    HW298352   5.526   3.573   5.372  0.7659  0.6071 -0.7215
30754SOL     OW98353   9.953   1.910   4.415  0.0781 -0.0790 -0.4002
30754SOL    HW198354   9.867   1.920   4.456 -0.2777 -2.3823 -0.4757
30754SOL    HW298355   9.980   1.821   4.437  2.4566  0.5776 -0.4104
30755SOL     OW98356   7.015   1.909   9.336 -0.3500 -0.3410  0.5398
30755SOL    HW198357   7.031   1.875   9.424 -0.6941 -0.8481  0.4129
30755SOL    HW298358   6.983   1.834   9.287 -0.5871  0.0423  0.0985
30756SOL     OW98359   9.216   1.498   1.000 -0.4382  0.5224  0.0978
30756SOL    HW198360   9.174   1.462   1.078 -0.6606 -0.5275 -0.4864
30756SOL    HW298361   9.307   1.470   1.007 -0.7561 -0.8299 -0.7027
30757SOL     OW98362   4.254   5.284   8.140  0.0054 -0.0774 -0.0678
30757SOL    HW198363   4.330   5.300   8.083 -0.3401  0.6082 -0.3476
30757SOL    HW298364   4.193   5.234   8.086  0.5455 -1.2915  0.3928
30758SOL     OW98365   1.612   8.226   3.909  0.3592  0.3428 -0.4173
30758SOL    HW198366   1.668   8.249   3.983  1.1483 -0.4620 -0.7518
30758SOL    HW298367   1.633   8.134   3.890 -4.0817 -1.5194  2.1701
30759SOL     OW98368   9.198   7.543   5.617 -0.4160  0.3148 -0.4280
30759SOL    HW198369   9.176   7.530   5.709  1.6273  1.5371  0.3008
30759SOL    HW298370   9.265   7.478   5.599 -0.0052  0.8174 -0.7277
30760SOL     OW98371   8.537   7.647   0.923 -0.0663 -0.2110 -0.0473
30760SOL    HW198372   8.605   7.714   0.916 -0.9796  0.9657  1.6390
30760SOL    HW298373   8.556   7.603   1.007 -0.8748 -0.4495  0.0157
30761SOL     OW98374   7.718   5.991  10.853  0.4140  0.1080 -0.7303
30761SOL    HW198375   7.676   5.923  10.906  2.5793 -1.5457 -1.0095
30761SOL    HW298376   7.664   5.997  10.775 -1.7276  1.2037  0.7356
30762SOL     OW98377   4.387   0.439   0.005  0.4424  0.4180 -0.0178
30762SOL    HW198378   4.352   0.353  -0.018 -1.1907  0.2762  2.6319
30762SOL    HW298379   4.457   0.420   0.067 -1.1033  0.9640  1.9890
30763SOL     OW98380   1.633   9.016   1.699 -0.3372  0.1846  0.3208
30763SOL    HW198381   1.663   9.037   1.611 -0.1086  0.4963  0.4714
30763SOL    HW298382   1.542   8.987   1.688 -1.0169  2.2404  0.2181
30764SOL     OW98383   0.563  10.801   0.288  0.3917 -0.4140  0.1077
30764SOL    HW198384   0.553  10.877   0.345  1.0173  0.5708 -1.0381
30764SOL    HW298385   0.486  10.747   0.305 -1.1595  1.4936 -0.5439
30765SOL     OW98386  10.682   2.504   9.328  0.1656  0.3953 -0.1351
30765SOL    HW198387  10.615   2.474   9.266 -0.9485  2.2490  0.0816
30765SOL    HW298388  10.732   2.426   9.350 -2.3557 -1.2426  0.1886
30766SOL     OW98389   2.556   5.439   8.111  0.1283  0.3993 -0.0483
30766SOL    HW198390   2.517   5.429   8.024 -2.4935 -0.9168  1.1614
30766SOL    HW298391   2.510   5.513   8.150  0.0529 -0.0614  0.7824
30767SOL     OW98392   6.515   8.854   1.654 -0.2020 -0.2913 -0.6587
30767SOL    HW198393   6.511   8.948   1.638  0.7486  0.0769  1.0143
30767SOL    HW298394   6.609   8.834   1.654 -0.4261 -1.7600 -3.4889
30768SOL     OW98395  10.124   2.627   6.784  0.2040 -0.2165 -0.0968
30768SOL    HW198396  10.089   2.552   6.738  1.2521 -0.5542 -0.3617
30768SOL    HW298397  10.050   2.661   6.834 -0.1701 -1.7098  0.4135
30769SOL     OW98398   1.444   1.178   1.016  0.2017  0.6961 -0.2713
30769SOL    HW198399   1.418   1.137   1.099  0.3216 -1.5115 -1.2470
30769SOL    HW298400   1.490   1.109   0.969  1.5385  2.3779 -1.5562
30770SOL     OW98401   1.767   5.527   9.357 -0.5972  0.0571 -0.5995
30770SOL    HW198402   1.840   5.482   9.316  0.7709  1.3763  0.2363
30770SOL    HW298403   1.780   5.512   9.451 -1.3139  0.4357 -0.4355
30771SOL     OW98404   9.911   1.647  10.508 -0.2200 -0.0633  0.2964
30771SOL    HW198405   9.983   1.706  10.488 -0.9265  0.9513  0.6627
30771SOL    HW298406   9.953   1.562  10.522  0.6200 -0.1830 -2.3320
30772SOL     OW98407   4.422   6.317   9.154  0.3818 -0.7429  0.2397
30772SOL    HW198408   4.397   6.260   9.081 -1.6374 -1.3227  1.2928
30772SOL    HW298409   4.489   6.267   9.201  1.0580 -0.7486 -0.7136
30773SOL     OW98410   0.498   0.134   0.355 -0.6039  0.1179  0.1384
30773SOL    HW198411   0.404   0.135   0.376 -0.9801 -0.8964 -1.3698
30773SOL    HW298412   0.507   0.190   0.278  0.4909  2.3717  1.7881
30774SOL     OW98413  10.340   7.818   0.317  0.1014 -0.3369  0.3681
30774SOL    HW198414  10.265   7.759   0.327 -0.5099  0.5049  0.8178
30774SOL    HW298415  10.309   7.903   0.349  1.3373 -0.0433  0.8495
30775SOL     OW98416   8.407   8.396   6.747 -0.0620 -0.2772 -0.0161
30775SOL    HW198417   8.472   8.429   6.809  0.4296 -0.3615 -0.4810
30775SOL    HW298418   8.361   8.473   6.717  1.1161  0.0285 -1.1371
30776SOL     OW98419   7.991  10.083   4.230  0.9162 -0.0545 -0.1611
30776SOL    HW198420   8.025  10.056   4.145  1.6167 -1.3381  0.4925
30776SOL    HW298421   8.054  10.048   4.293 -0.4484 -0.5533  0.9822
30777SOL     OW98422   7.306   2.933   4.267 -0.6128 -0.1443  0.0669
30777SOL    HW198423   7.214   2.922   4.293  0.0277 -2.7328  1.6764
30777SOL    HW298424   7.336   2.844   4.249  1.3102  0.7619 -1.5808
30778SOL     OW98425   6.027   4.277   8.521  0.2346  0.7165  0.2980
30778SOL    HW198426   5.945   4.291   8.472  0.3510  0.6681  0.0863
30778SOL    HW298427   6.096   4.305   8.461  0.4974 -0.8896 -0.2227
30779SOL     OW98428   9.036   5.894   3.448 -0.7291 -0.4347  0.0767
30779SOL    HW198429   8.944   5.900   3.421 -0.3342  0.4711 -1.1756
30779SOL    HW298430   9.068   5.984   3.444  1.0888 -1.0716 -2.9270
30780SOL     OW98431   2.413   3.038   1.280 -0.0513  0.0626  0.0134
30780SOL    HW198432   2.450   2.950   1.271  0.3189  0.2965 -0.7910
30780SOL    HW298433   2.343   3.042   1.214  1.1914  1.0098 -1.3030
30781SOL     OW98434   6.983   0.680   4.922 -0.2163 -0.2659 -0.2383
30781SOL    HW198435   7.072   0.645   4.910  0.8192  1.5534  1.5807
30781SOL    HW298436   6.991   0.773   4.902 -2.3016 -0.4419 -2.2867
30782SOL     OW98437  10.605  10.026   6.253  0.5383  0.1162  0.8175
30782SOL    HW198438  10.517  10.039   6.220 -0.1364 -1.6338  1.7877
30782SOL    HW298439  10.661  10.030   6.176 -0.6018 -0.6261 -0.0738
30783SOL     OW98440  10.747   3.505   6.636  0.0576 -0.8267 -0.2629
30783SOL    HW198441  10.820   3.466   6.588 -0.8824 -1.7143 -1.0091
30783SOL    HW298442  10.693   3.545   6.568 -1.1479 -1.8523  0.0540
30784SOL     OW98443   6.110   2.984   8.761 -0.5026  0.1518 -0.7324
30784SOL    HW198444   6.141   2.955   8.675 -1.2344 -1.1455 -0.5804
30784SOL    HW298445   6.032   3.035   8.743 -0.2966  0.4193 -0.8749
30785SOL     OW98446   4.249   2.776  10.324 -0.1743  0.8598  0.0649
30785SOL    HW198447   4.241   2.808  10.234 -1.3935 -1.1351 -0.6089
30785SOL    HW298448   4.171   2.809  10.369 -0.0133  1.1341  0.1412
30786SOL     OW98449   5.392   9.972   2.644 -0.9811 -0.2779 -0.5005
30786SOL    HW198450   5.385  10.065   2.666 -1.1573 -0.6999  1.4238
30786SOL    HW298451   5.310   9.934   2.676 -0.3157 -1.3138  0.0445
30787SOL     OW98452   5.672   9.513   5.711 -0.1052  0.2790 -0.1877
30787SOL    HW198453   5.648   9.443   5.652  2.3003  1.4572 -2.8076
30787SOL    HW298454   5.594   9.568   5.717 -0.8280 -0.6135 -1.1728
30788SOL     OW98455   2.843   5.296   6.942 -0.3174  0.5033 -0.2561
30788SOL    HW198456   2.924   5.333   6.978 -1.0078  1.2766  0.5583
30788SOL    HW298457   2.871   5.220   6.893  0.8960  0.6672  0.1514
30789SOL     OW98458   2.765   2.577   4.056  0.8968  0.4282 -0.0775
30789SOL    HW198459   2.760   2.503   3.995  4.5186 -1.2277  1.3293
30789SOL    HW298460   2.734   2.542   4.140 -1.4067  1.8835 -0.2215
30790SOL     OW98461   0.280   1.094   7.368 -0.0246 -0.8211  0.1449
30790SOL    HW198462   0.256   1.003   7.384 -1.4004 -0.4202  0.4720
30790SOL    HW298463   0.373   1.090   7.344 -0.2574 -2.3769 -0.6096
30791SOL     OW98464   9.316  10.898  10.270 -0.2410 -0.8638  0.4464
30791SOL    HW198465   9.328  10.937  10.184 -0.8306 -0.7923  0.3943
30791SOL    HW298466   9.374  10.947  10.328 -0.0915 -0.6967  0.1525
30792SOL     OW98467   8.916  10.809   8.944 -0.0094  0.5699 -0.3306
30792SOL    HW198468   8.996  10.795   8.995  0.9515 -0.8648 -2.0912
30792SOL    HW298469   8.845  10.791   9.006  1.0344  0.9707  1.0381
30793SOL     OW98470   5.971   8.237   6.747  0.6511  0.2321 -0.2072
30793SOL    HW198471   6.032   8.196   6.808  1.7105  1.9262 -0.0579
30793SOL    HW298472   5.962   8.174   6.676  1.0479 -0.8780  0.7116
30794SOL     OW98473   6.875   5.583   2.409 -0.1907 -0.2254  0.3372
30794SOL    HW198474   6.855   5.535   2.329  0.6060 -0.5097  0.2945
30794SOL    HW298475   6.847   5.525   2.480 -0.8887  0.0227  0.2677
30795SOL     OW98476   4.959   1.411   7.215 -0.6596  0.2787  0.3215
30795SOL    HW198477   4.942   1.501   7.187  0.8882  0.7033  0.6385
30795SOL    HW298478   4.953   1.414   7.311  2.2262  0.7506  0.5607
30796SOL     OW98479   5.312   4.860   3.727 -0.6254 -0.2185 -0.3447
30796SOL    HW198480   5.248   4.824   3.788 -1.2432  0.2710 -0.6910
30796SOL    HW298481   5.267   4.935   3.687  0.8984  1.4994  0.9831
30797SOL     OW98482  10.652   7.101  10.131 -0.4936  0.5160 -0.1494
30797SOL    HW198483  10.747   7.111  10.120 -0.0568 -1.0832  1.5393
30797SOL    HW298484  10.622   7.188  10.158  0.7721  0.7213  0.7164
30798SOL     OW98485   7.585   2.357   1.546  0.4935  0.3498 -0.4410
30798SOL    HW198486   7.519   2.407   1.498  1.9087  1.7300 -1.0449
30798SOL    HW298487   7.540   2.277   1.573 -0.6186 -0.1646 -3.4120
30799SOL     OW98488   8.234   2.684   7.352 -0.1904  0.3475 -0.2283
30799SOL    HW198489   8.170   2.690   7.281 -0.1926  0.3924 -0.2230
30799SOL    HW298490   8.295   2.755   7.336  2.0137 -1.8149 -2.3390
30800SOL     OW98491   1.302  10.553   9.675 -0.1056 -0.4639 -0.5092
30800SOL    HW198492   1.237  10.486   9.697 -2.0600  1.5065  0.0116
30800SOL    HW298493   1.257  10.612   9.615  2.4130 -0.9592 -3.1417
30801SOL     OW98494   5.086   7.809   3.264  0.4743  0.3180  0.1272
30801SOL    HW198495   5.006   7.795   3.213  0.4182 -0.1420  0.3327
30801SOL    HW298496   5.063   7.878   3.326  0.7694  1.4218 -0.9445
30802SOL     OW98497   4.768   9.268   0.593  0.0902 -0.0695  0.0491
30802SOL    HW198498   4.723   9.352   0.609 -1.0217 -0.5296 -0.5413
30802SOL    HW298499   4.698   9.203   0.598  0.9316 -0.9617  0.4077
30803SOL     OW98500   0.854   8.815   7.065  0.1391 -0.2142  0.0778
30803SOL    HW198501   0.814   8.730   7.083  0.7977 -1.0000 -1.8607
30803SOL    HW298502   0.924   8.824   7.130  0.4923 -1.4763 -0.1148
30804SOL     OW98503   3.206   5.279   7.750 -0.0270  0.2766  0.5733
30804SOL    HW198504   3.120   5.238   7.739  0.2717 -0.4580  0.9610
30804SOL    HW298505   3.206   5.311   7.840 -0.6846  2.1611 -0.0477
30805SOL     OW98506   8.641   1.349   0.176  0.4673  0.5570  0.1041
30805SOL    HW198507   8.621   1.368   0.268 -0.1615  0.7257 -0.0683
30805SOL    HW298508   8.579   1.280   0.151 -0.1735  1.3505 -0.5372
30806SOL     OW98509   3.181   4.996   5.710 -0.6191 -0.6559 -0.1162
30806SOL    HW198510   3.227   5.068   5.754 -1.3274 -0.1033 -0.2678
30806SOL    HW298511   3.095   5.032   5.690 -0.6115 -1.1998 -1.1511
30807SOL     OW98512   6.735  10.708   4.973  0.9579 -0.4641 -0.0283
30807SOL    HW198513   6.689  10.752   5.045  1.3320 -1.1221  0.6306
30807SOL    HW298514   6.811  10.666   5.015  2.0099  0.3648 -1.0422
30808SOL     OW98515   0.459   0.789   3.702  0.4560 -0.3208 -0.5648
30808SOL    HW198516   0.506   0.786   3.619  1.2247  2.0870 -0.3087
30808SOL    HW298517   0.495   0.866   3.746 -1.4098 -0.3355  1.0893
30809SOL     OW98518   6.819   5.753   3.233 -0.4891  0.0270  0.3382
30809SOL    HW198519   6.789   5.820   3.294 -1.8486 -0.7651  0.5623
30809SOL    HW298520   6.830   5.674   3.286 -0.1491 -0.2701 -0.1603
30810SOL     OW98521   8.422   5.755   5.397  0.6989 -0.6429  0.3426
30810SOL    HW198522   8.454   5.698   5.326 -1.6691  0.4563 -1.7797
30810SOL    HW298523   8.350   5.705   5.436 -0.0879  0.0207 -0.2162
30811SOL     OW98524   0.900   8.540   5.488  0.2341  0.2229  0.5093
30811SOL    HW198525   0.963   8.591   5.437  0.9856 -2.7635 -1.8095
30811SOL    HW298526   0.817   8.554   5.443  0.2153  0.2519  0.5529
30812SOL     OW98527   6.317   0.773  10.091  1.2297 -0.0745 -0.4060
30812SOL    HW198528   6.267   0.694  10.112  1.7662 -0.2946  0.0673
30812SOL    HW298529   6.358   0.754  10.006  0.8432 -0.0504 -0.5996
30813SOL     OW98530   3.473   2.691   9.546 -0.3465  0.3146  0.0706
30813SOL    HW198531   3.552   2.736   9.514  0.3845 -0.5888  0.5446
30813SOL    HW298532   3.476   2.703   9.641  0.1422 -1.1124  0.2695
30814SOL     OW98533   6.143  10.882   8.204 -0.2559  0.2160 -0.5013
30814SOL    HW198534   6.205  10.954   8.196 -0.0089  0.0678  0.0554
30814SOL    HW298535   6.106  10.872   8.116 -0.3865  1.0997 -0.5510
30815SOL     OW98536   2.722   5.589   4.183  0.2768  0.3740  0.3108
30815SOL    HW198537   2.756   5.597   4.094  0.8212  1.1101  0.5767
30815SOL    HW298538   2.740   5.673   4.223 -0.3846  0.2011  0.9805
30816SOL     OW98539   0.696   5.361   6.128 -0.3212  0.3075  0.6248
30816SOL    HW198540   0.731   5.360   6.217 -0.5431  2.5304  0.7810
30816SOL    HW298541   0.604   5.384   6.138 -0.2992  0.8029 -0.1996
30817SOL     OW98542   7.864   0.263   8.526 -0.3164 -0.1007 -0.0603
30817SOL    HW198543   7.773   0.282   8.506 -0.3097  0.6879  0.5876
30817SOL    HW298544   7.898   0.220   8.447 -1.5368 -1.4739  0.1362
30818SOL     OW98545   9.711   7.948  10.460  0.2204 -0.6047 -0.0303
30818SOL    HW198546   9.675   8.032  10.432 -0.2650 -0.3492  1.2916
30818SOL    HW298547   9.656   7.882  10.417 -0.1581 -0.2351 -0.1195
30819SOL     OW98548   9.837   7.246   0.566  0.5039 -0.2304 -0.0154
30819SOL    HW198549   9.754   7.268   0.608 -0.6202  0.0161 -2.2279
30819SOL    HW298550   9.812   7.193   0.490  2.1824  1.4223 -1.8306
30820SOL     OW98551   6.981   4.783   9.207 -0.0763 -0.1576  0.3957
30820SOL    HW198552   7.061   4.731   9.195  0.6269  0.7978  0.8002
30820SOL    HW298553   7.004   4.869   9.173 -0.6087  0.4079  1.4337
30821SOL     OW98554   9.227   8.022   3.235 -0.1797  0.5014  0.8150
30821SOL    HW198555   9.185   7.994   3.154  0.0793  1.1175  0.4606
30821SOL    HW298556   9.251   7.941   3.279  0.3946  0.1629 -0.1021
30822SOL     OW98557   7.777   1.835   5.295  1.1190 -0.0840 -0.5922
30822SOL    HW198558   7.779   1.873   5.383 -1.2548  1.6574 -1.1826
30822SOL    HW298559   7.854   1.872   5.251  1.7373 -0.1439  0.4221
30823SOL     OW98560   4.598   5.887   2.633 -0.1204  0.1444  0.0825
30823SOL    HW198561   4.509   5.904   2.665 -0.4000 -0.5315 -0.3200
30823SOL    HW298562   4.599   5.925   2.545  0.3041  1.0224  0.4526
30824SOL     OW98563   8.060  10.697   3.098 -0.1486  0.3044  0.0515
30824SOL    HW198564   8.055  10.674   3.005 -2.4327 -0.2918  0.2652
30824SOL    HW298565   8.054  10.793   3.099  0.5327  0.3617 -0.4301
30825SOL     OW98566   1.199   7.801   6.853  0.1818 -0.0246 -0.4285
30825SOL    HW198567   1.182   7.737   6.784  2.2536  0.5500 -1.5465
30825SOL    HW298568   1.163   7.761   6.932  1.2475 -2.5071 -1.1121
30826SOL     OW98569   8.180   0.855   0.352  0.0194 -0.8511 -0.4412
30826SOL    HW198570   8.119   0.781   0.349 -0.6825 -0.3931  1.2498
30826SOL    HW298571   8.258   0.821   0.396 -0.4915 -0.5134  0.7872
30827SOL     OW98572   9.251   9.847   4.444 -0.1737 -0.3236 -0.3573
30827SOL    HW198573   9.193   9.924   4.437  1.0208  0.8351  1.6239
30827SOL    HW298574   9.211   9.794   4.513  0.5720  0.0056  0.3383
30828SOL     OW98575   4.221   9.640   8.224 -0.0373 -0.5521  0.3280
30828SOL    HW198576   4.218   9.703   8.152 -0.9672 -0.4473  0.4495
30828SOL    HW298577   4.308   9.600   8.216  0.2420  0.1336 -0.2638
30829SOL     OW98578   7.827   6.466   8.560 -0.1195 -0.5010 -0.0787
30829SOL    HW198579   7.800   6.541   8.614  1.4958  0.2718 -0.2590
30829SOL    HW298580   7.889   6.419   8.616 -0.3949 -1.1599 -0.3263
30830SOL     OW98581   1.916   9.789   1.591 -0.0959 -0.3880 -0.9540
30830SOL    HW198582   1.952   9.878   1.589 -0.8101 -0.0170  1.0087
30830SOL    HW298583   1.877   9.781   1.678  0.1677 -2.7174 -0.9981
30831SOL     OW98584   0.816   7.293   8.546 -0.8527 -0.1839  0.7870
30831SOL    HW198585   0.888   7.346   8.514 -0.8499  0.8504  2.3965
30831SOL    HW298586   0.830   7.207   8.508 -0.2852  0.6853 -1.0655
30832SOL     OW98587   7.361   2.346   6.141  0.3213  0.5604 -0.7034
30832SOL    HW198588   7.325   2.396   6.214 -0.8568  0.7883 -1.4046
30832SOL    HW298589   7.293   2.349   6.074  1.2091  0.0363 -1.6733
30833SOL     OW98590  10.461   8.400   0.026  0.2422  0.1726 -0.1655
30833SOL    HW198591  10.372   8.378  -0.001 -0.1346  0.9157  0.4086
30833SOL    HW298592  10.468   8.495   0.012  0.9491  0.1212 -0.2192
30834SOL     OW98593   6.820   5.814  10.487  0.0288  0.0903 -0.1949
30834SOL    HW198594   6.898   5.868  10.501  0.5669 -0.8065  0.3658
30834SOL    HW298595   6.755   5.874  10.450  1.1333  0.7603 -1.1221
30835SOL     OW98596   9.992   7.081   7.190  0.6098  0.6238 -0.5662
30835SOL    HW198597  10.008   7.132   7.269 -1.1620  1.2283 -0.5571
30835SOL    HW298598   9.900   7.056   7.196  0.7405 -0.2902 -1.8959
30836SOL     OW98599   3.551   3.157   7.039  0.9824 -0.2380  0.2677
30836SOL    HW198600   3.611   3.096   7.082  1.0257  0.3643  1.0686
30836SOL    HW298601   3.479   3.167   7.100  0.3604 -0.4479 -0.4112
30837SOL     OW98602   5.145  10.633   3.930 -0.4336 -0.2761  0.0718
30837SOL    HW198603   5.142  10.616   4.025 -0.4300 -0.2221  0.0816
30837SOL    HW298604   5.211  10.571   3.897  2.5501  2.3060  0.6685
30838SOL     OW98605   9.905   9.771   7.066  0.7640 -0.0558 -0.2681
30838SOL    HW198606   9.823   9.812   7.041  1.3761  0.9097 -0.7402
30838SOL    HW298607   9.969   9.804   7.002  1.9661  0.9148  1.3792
30839SOL     OW98608   2.216   7.061   8.629  0.1086  0.3882  0.3020
30839SOL    HW198609   2.254   7.099   8.708 -0.3884 -0.5681  1.0169
30839SOL    HW298610   2.287   7.011   8.589  0.1569  0.2642  0.5455
30840SOL     OW98611   1.607   1.427   0.447 -0.3123  0.2107  0.2867
30840SOL    HW198612   1.702   1.432   0.438 -0.1841  1.4185  1.7551
30840SOL    HW298613   1.580   1.517   0.467 -1.9973  0.2385 -1.7691
30841SOL     OW98614   2.851   8.139   5.682  0.1347 -0.1394 -0.4627
30841SOL    HW198615   2.768   8.173   5.714  1.2221  1.2492  1.0506
30841SOL    HW298616   2.868   8.189   5.602 -1.1614 -1.5214 -1.6757
30842SOL     OW98617   9.377   6.657  10.702  0.0932 -0.1726 -0.2589
30842SOL    HW198618   9.387   6.726  10.768  2.2980 -0.4559 -0.2096
30842SOL    HW298619   9.376   6.704  10.619 -2.3444  0.1568 -0.1274
30843SOL     OW98620   8.977  10.363   4.999 -0.4367 -0.0198  0.0863
30843SOL    HW198621   8.902  10.304   5.000  0.4184 -1.1856 -0.8297
30843SOL    HW298622   9.052  10.305   4.982  0.6006  1.1727  0.4500
30844SOL     OW98623  10.090   1.526   0.970 -0.0136 -0.3799 -0.0646
30844SOL    HW198624  10.107   1.524   0.876  1.1054 -2.3687  0.1389
30844SOL    HW298625  10.123   1.611   0.999 -1.4597  0.7795 -1.6059
30845SOL     OW98626   3.728   7.374   5.899 -0.4620  0.1247 -0.0619
30845SOL    HW198627   3.821   7.354   5.910 -0.8867 -1.0131  2.2642
30845SOL    HW298628   3.699   7.318   5.827 -0.1536 -2.8619  1.9421
30846SOL     OW98629   3.625   1.930   6.303 -0.0828 -0.2821  0.4167
30846SOL    HW198630   3.641   2.017   6.266  1.0646  0.2750  2.1144
30846SOL    HW298631   3.706   1.881   6.287  0.4758  0.0026  2.1889
30847SOL     OW98632   7.507  10.435   5.360  0.1654 -0.1595  0.1627
30847SOL    HW198633   7.492  10.346   5.389  1.0096  0.2893  2.1180
30847SOL    HW298634   7.465  10.490   5.426  0.6814  0.9145 -0.3614
30848SOL     OW98635   0.679   8.811   8.630 -0.0589  0.3654 -0.3659
30848SOL    HW198636   0.609   8.859   8.675  0.1796 -0.1657  0.6073
30848SOL    HW298637   0.736   8.781   8.700  0.2664 -0.5954 -1.0223
30849SOL     OW98638   4.146   5.871   3.479  0.4978 -0.2867 -0.1982
30849SOL    HW198639   4.165   5.778   3.466  0.8441 -0.2058 -0.2953
30849SOL    HW298640   4.063   5.885   3.433 -1.7832 -1.4330  3.1995
30850SOL     OW98641   5.664   4.940   6.232 -0.2064 -0.4927 -0.1263
30850SOL    HW198642   5.703   4.876   6.291 -0.2015 -0.4924 -0.1291
30850SOL    HW298643   5.697   5.024   6.264 -1.4905 -0.3393  0.8935
30851SOL     OW98644   3.164   7.363   5.920  0.3576  0.3744  0.2747
30851SOL    HW198645   3.257   7.381   5.934  0.7085 -1.1303  0.0906
30851SOL    HW298646   3.153   7.272   5.947 -1.5638  1.1534  2.4951
30852SOL     OW98647   5.482   0.801   1.310 -0.9982 -0.2707 -0.5327
30852SOL    HW198648   5.451   0.883   1.347 -1.4217 -0.1690 -1.1000
30852SOL    HW298649   5.532   0.759   1.381 -2.3837 -0.4190  0.3795
30853SOL     OW98650   7.322   6.452  10.500  0.3789  0.1090 -0.2442
30853SOL    HW198651   7.277   6.466  10.584 -0.3693  1.1912 -0.8097
30853SOL    HW298652   7.412   6.433  10.525  0.7508  2.7672  0.7542
30854SOL     OW98653   8.729   1.423   9.035 -0.5866  0.3428 -0.6715
30854SOL    HW198654   8.686   1.345   8.999 -0.0505 -0.5678  0.5999
30854SOL    HW298655   8.807   1.434   8.980 -1.2874  0.7305 -1.6223
30855SOL     OW98656   3.236   1.100   4.494 -0.4562 -0.2218  0.3686
30855SOL    HW198657   3.215   1.193   4.481 -0.7439 -0.4868 -1.3295
30855SOL    HW298658   3.318   1.088   4.445 -1.0982 -1.1317 -0.5036
30856SOL     OW98659   1.663   1.985   2.005 -0.7112 -0.4725 -0.0198
30856SOL    HW198660   1.697   2.075   2.002 -1.6259  0.0523  2.5914
30856SOL    HW298661   1.589   1.985   1.944 -0.4097  0.3894 -0.4100
30857SOL     OW98662   4.097   4.490   0.230  0.6763  1.1773 -0.1292
30857SOL    HW198663   4.069   4.473   0.140 -0.3352  0.0224  0.3690
30857SOL    HW298664   4.189   4.515   0.223  1.4627 -1.6497 -1.2723
30858SOL     OW98665   9.224   2.874   2.301  0.4046 -0.5345  0.5452
30858SOL    HW198666   9.194   2.851   2.213 -0.6152  1.4402  0.3046
30858SOL    HW298667   9.253   2.791   2.340 -1.0417 -1.7916 -0.9199
30859SOL     OW98668   2.818   3.501   6.340 -0.1168 -0.3370 -0.3210
30859SOL    HW198669   2.849   3.499   6.430  1.3431 -1.4107 -0.7975
30859SOL    HW298670   2.865   3.573   6.299 -0.2330 -0.3059 -0.4015
30860SOL     OW98671   4.579   3.923   0.643  0.2096  0.0978 -0.0667
30860SOL    HW198672   4.561   3.953   0.732 -0.1334 -0.3533  0.0161
30860SOL    HW298673   4.589   3.828   0.650  1.9932  0.2265 -0.2172
30861SOL     OW98674   6.551   5.375  10.225  0.1384 -0.1694  0.1080
30861SOL    HW198675   6.614   5.377  10.297  1.7172 -2.0418 -1.0852
30861SOL    HW298676   6.537   5.281  10.209 -1.6771  0.2111 -0.7752
30862SOL     OW98677   0.773   0.686   7.902 -0.2852 -0.6389 -0.3685
30862SOL    HW198678   0.788   0.616   7.839 -1.5599 -1.9369  0.7029
30862SOL    HW298679   0.853   0.689   7.955 -1.2906 -3.3847  1.4794
30863SOL     OW98680   6.188   3.125   0.053  0.2500 -0.3014 -0.3589
30863SOL    HW198681   6.112   3.097   0.001 -1.3843  2.2439  0.4578
30863SOL    HW298682   6.189   3.065   0.128 -2.3412  0.8070  0.6917
30864SOL     OW98683   9.192   0.548   6.813  0.0537 -0.3363 -0.1179
30864SOL    HW198684   9.218   0.607   6.884 -0.7521  0.7764 -0.7085
30864SOL    HW298685   9.243   0.576   6.738  1.2417 -1.8049  0.0911
30865SOL     OW98686  10.683   3.728   7.333  0.0848 -0.1127 -0.1982
30865SOL    HW198687  10.709   3.691   7.248  1.8086 -2.0292  1.0656
30865SOL    HW298688  10.675   3.822   7.317  2.7226 -0.0818 -1.9926
30866SOL     OW98689   8.699  10.605   0.943 -0.1294  0.3836 -0.3328
30866SOL    HW198690   8.740  10.533   0.896  0.4723  0.6691 -0.2534
30866SOL    HW298691   8.770  10.666   0.961 -0.5170  0.7062  0.1503
30867SOL     OW98692   2.838   3.031   0.832 -0.4843 -0.8509  0.6414
30867SOL    HW198693   2.891   3.042   0.911  0.8538  0.4777 -0.3780
30867SOL    HW298694   2.775   3.104   0.835 -0.3986 -0.7680  0.4682
30868SOL     OW98695   7.019   3.097   4.877  0.1998  0.1283 -0.1940
30868SOL    HW198696   7.015   3.025   4.815 -0.7692  0.7490 -0.8720
30868SOL    HW298697   7.019   3.055   4.963  0.0852 -0.6918 -0.5928
30869SOL     OW98698   3.274   0.328   8.493 -0.2996 -0.0399  0.0029
30869SOL    HW198699   3.310   0.345   8.406  0.9984 -0.4178  0.4523
30869SOL    HW298700   3.215   0.402   8.509  2.2640  2.0523  0.3181
30870SOL     OW98701   3.151   0.625   2.513 -0.4853  0.2435  0.4219
30870SOL    HW198702   3.108   0.673   2.584 -0.9834 -1.3833  1.2938
30870SOL    HW298703   3.242   0.618   2.541 -0.2311  1.3125 -0.0888
30871SOL     OW98704  10.092   8.194   0.329  1.0076  0.4929  0.2238
30871SOL    HW198705  10.118   8.283   0.351  1.7861  0.6280 -1.1123
30871SOL    HW298706  10.172   8.143   0.340  1.0541  0.3153 -0.8166
30872SOL     OW98707   9.057   2.057   8.506  0.2295 -0.3042 -0.5320
30872SOL    HW198708   8.968   2.069   8.472 -0.0653 -0.4344  0.1824
30872SOL    HW298709   9.085   1.973   8.470  0.0483 -0.2848 -0.7198
30873SOL     OW98710  10.864   1.587   0.107  0.1998 -0.0718 -0.0873
30873SOL    HW198711  10.929   1.522   0.133  1.1807  0.6703 -0.5930
30873SOL    HW298712  10.870   1.655   0.175 -0.1019 -0.0243 -0.1054
30874SOL     OW98713   1.110   4.536   4.013  0.5747 -0.2379 -0.0715
30874SOL    HW198714   1.111   4.442   3.994 -0.7656 -0.1778 -0.5260
30874SOL    HW298715   1.020   4.564   3.993  1.1038  1.2568 -0.4791
30875SOL     OW98716   8.221   9.864   1.340 -0.0548 -0.0394 -0.3147
30875SOL    HW198717   8.282   9.791   1.334 -0.1833 -0.2752  0.9028
30875SOL    HW298718   8.236   9.915   1.261 -0.0639 -1.4587 -1.2618
30876SOL     OW98719   4.463   8.870   1.823 -0.1845 -0.0569 -0.2018
30876SOL    HW198720   4.383   8.834   1.785 -0.5542  0.9876 -0.4301
30876SOL    HW298721   4.441   8.885   1.915  0.3550 -1.5114  0.2028
30877SOL     OW98722   6.225   1.452   0.351  0.5295 -0.3647 -0.6521
30877SOL    HW198723   6.250   1.450   0.258  0.0655 -1.3353 -0.7718
30877SOL    HW298724   6.166   1.377   0.361 -0.6225  0.6115  0.0979
30878SOL     OW98725   1.975   8.215   9.154 -0.1559  0.2629 -0.2048
30878SOL    HW198726   1.925   8.139   9.123 -0.0827 -0.0181  0.3382
30878SOL    HW298727   1.922   8.291   9.129 -0.6036 -0.0060 -0.0826
30879SOL     OW98728  10.229   5.622   8.800  0.3292  0.4213 -0.3758
30879SOL    HW198729  10.140   5.591   8.821 -1.3727  3.8564 -1.6748
30879SOL    HW298730  10.257   5.566   8.728 -0.0442 -1.7725  1.0929
30880SOL     OW98731   8.900   1.130   3.335 -0.2763  0.2926 -0.4699
30880SOL    HW198732   8.817   1.110   3.293 -0.1884  1.2978 -1.1452
30880SOL    HW298733   8.964   1.132   3.264  0.9495 -3.3461  0.3216
30881SOL     OW98734   3.132   8.439   4.211  0.5077 -0.0466 -0.0601
30881SOL    HW198735   3.082   8.409   4.135  0.9415  1.0029 -0.7764
30881SOL    HW298736   3.208   8.381   4.214  0.7915  0.2872 -0.7835
30882SOL     OW98737   4.094   5.754   8.853 -0.4558 -0.4112  0.0539
30882SOL    HW198738   4.114   5.795   8.769 -1.1894 -0.1970 -0.0209
30882SOL    HW298739   4.040   5.679   8.831 -1.0610 -0.0734  0.3699
30883SOL     OW98740   8.599   8.123   3.542 -0.5413 -0.1612 -0.7102
30883SOL    HW198741   8.694   8.130   3.530 -0.6938  2.3594 -0.8621
30883SOL    HW298742   8.564   8.122   3.452 -0.8073  2.9355 -0.7388
30884SOL     OW98743   2.893  10.827   7.481 -0.5085  0.3298  0.1178
30884SOL    HW198744   2.900  10.863   7.392 -0.5934  0.7389  0.2720
30884SOL    HW298745   2.921  10.736   7.472  1.3442  0.8719  0.0265
30885SOL     OW98746   8.718   5.639   5.397  0.1293  0.3367  0.3392
30885SOL    HW198747   8.700   5.593   5.479  2.2690 -1.7397 -0.2391
30885SOL    HW298748   8.646   5.616   5.339 -1.0176  1.2233  1.3765
30886SOL     OW98749   4.163   8.769   4.670  0.8962  0.3471 -0.1000
30886SOL    HW198750   4.181   8.824   4.593 -2.4800 -1.1441 -2.1713
30886SOL    HW298751   4.088   8.811   4.712  1.7163  0.2479  1.5136
30887SOL     OW98752   6.459   0.836   9.077  0.0167 -0.2949 -0.1673
30887SOL    HW198753   6.435   0.848   9.169  1.6090 -1.1073  0.3897
30887SOL    HW298754   6.555   0.843   9.076 -0.0671  3.3076 -2.3262
30888SOL     OW98755   6.337   7.598   4.361 -0.0173 -0.1137  0.1707
30888SOL    HW198756   6.320   7.507   4.385  0.5346 -0.2550  0.0480
30888SOL    HW298757   6.252   7.633   4.335  0.1226 -1.2797 -2.0471
30889SOL     OW98758   0.023   3.265   8.215  0.5517  0.6373 -0.1108
30889SOL    HW198759  -0.014   3.330   8.155 -0.0132  0.8754  0.4888
30889SOL    HW298760   0.066   3.201   8.157 -0.1356  0.7670 -0.7813
30890SOL     OW98761   8.583   9.614   8.606  0.0028 -0.2377  0.1657
30890SOL    HW198762   8.556   9.611   8.698 -0.8946  1.4259  0.0029
30890SOL    HW298763   8.504   9.590   8.558  0.0837  0.1990 -0.1943
30891SOL     OW98764   5.617   4.495  10.488 -0.5456  0.5475 -0.0221
30891SOL    HW198765   5.628   4.418  10.432 -1.2294  1.7503 -1.9067
30891SOL    HW298766   5.535   4.480  10.535 -0.4614 -0.0497 -0.0619
30892SOL     OW98767   2.336   9.134   5.248  0.0406  0.3026  0.0330
30892SOL    HW198768   2.422   9.103   5.220 -0.1777  1.8659 -2.7519
30892SOL    HW298769   2.350   9.225   5.274 -0.4720  0.0108  1.3989
30893SOL     OW98770   3.789   7.008   7.419 -0.3523  0.1130 -0.8541
30893SOL    HW198771   3.759   7.093   7.450  0.4769  0.0314  0.2386
30893SOL    HW298772   3.882   7.022   7.400  0.1943 -0.9365  0.8892
30894SOL     OW98773   3.916   0.179   6.858 -0.0343 -0.6782 -0.5814
30894SOL    HW198774   3.972   0.230   6.799 -0.4825  1.4894  0.7684
30894SOL    HW298775   3.875   0.115   6.800 -0.9203  1.7155 -2.8387
30895SOL     OW98776  10.137   3.258   6.549 -0.3365  0.0268  0.0908
30895SOL    HW198777  10.097   3.331   6.502 -3.5799 -1.1875  0.7529
30895SOL    HW298778  10.135   3.286   6.641 -0.4962 -0.4313  0.2269
30896SOL     OW98779   4.248   3.696   3.695 -0.5608  0.1242  0.0680
30896SOL    HW198780   4.211   3.608   3.688 -3.0348  0.9791  1.2884
30896SOL    HW298781   4.334   3.682   3.735 -0.8096 -1.7426  0.0771
30897SOL     OW98782   0.881   7.669   7.415 -0.2058  0.0053 -0.0019
30897SOL    HW198783   0.796   7.697   7.449 -0.8586 -1.2154 -0.5311
30897SOL    HW298784   0.944   7.730   7.453 -1.3675  1.2388  0.0209
30898SOL     OW98785   1.501   0.775   5.381 -0.1762  0.1407 -0.0340
30898SOL    HW198786   1.456   0.820   5.452  0.1709  0.5898 -0.0857
30898SOL    HW298787   1.433   0.725   5.336 -0.4901  0.2681  0.2962
30899SOL     OW98788   7.171   9.019   7.014 -0.2804 -0.1314 -0.0946
30899SOL    HW198789   7.254   9.052   6.981  0.8651 -1.2629  1.5276
30899SOL    HW298790   7.174   9.035   7.108 -1.4266 -1.1424  0.1462
30900SOL     OW98791   2.295   8.871   3.640  0.0041  0.4461 -0.5095
30900SOL    HW198792   2.272   8.818   3.564  1.8711  2.2429 -2.4675
30900SOL    HW298793   2.391   8.867   3.643  0.2193  3.4163 -0.6136
30901SOL     OW98794   6.039   8.048   6.541  0.4523 -0.1822  0.5009
30901SOL    HW198795   6.082   7.963   6.527  1.4173  0.3392  0.1599
30901SOL    HW298796   5.947   8.033   6.518  0.8164 -0.8758 -0.6021
30902SOL     OW98797   1.240   2.964  10.530  0.0315  0.0152  0.1638
30902SOL    HW198798   1.268   3.026  10.462  0.1896 -0.1676  0.0597
30902SOL    HW298799   1.151   2.990  10.551  0.3759  0.7991  0.7182
30903SOL     OW98800   6.283   4.280   5.270 -0.1082  0.5556 -0.7911
30903SOL    HW198801   6.330   4.347   5.319 -1.5237  1.4304 -0.5609
30903SOL    HW298802   6.285   4.311   5.180  2.6455 -1.1410 -1.4298
30904SOL     OW98803   9.654   9.865   5.623  0.8843 -0.0490 -0.1811
30904SOL    HW198804   9.652   9.794   5.687 -1.7574  0.5620  0.5145
30904SOL    HW298805   9.618   9.940   5.669 -2.2430  0.1306 -2.6015
30905SOL     OW98806   0.100   0.624   3.672  0.3452 -0.3586 -0.0900
30905SOL    HW198807   0.006   0.631   3.684  0.2677 -0.5082 -0.5740
30905SOL    HW298808   0.137   0.693   3.728 -0.0878  0.0944 -0.3508
30906SOL     OW98809  10.463  10.384   9.058  0.2429 -0.4069 -0.1963
30906SOL    HW198810  10.552  10.351   9.042 -0.7249 -2.7479 -1.1769
30906SOL    HW298811  10.454  10.381   9.153  0.0517 -3.8465 -0.1665
30907SOL     OW98812   2.583   9.519   9.624  0.5318 -0.1198 -0.6368
30907SOL    HW198813   2.515   9.528   9.690  0.1600 -0.6277 -0.9445
30907SOL    HW298814   2.650   9.465   9.666  1.2229  1.1858  0.0171
30908SOL     OW98815   8.157   3.040   3.281 -0.2433 -0.1070 -0.4441
30908SOL    HW198816   8.220   3.065   3.348 -1.9272  0.5202  0.9912
30908SOL    HW298817   8.171   3.103   3.210 -0.1546  0.9011  0.4405
30909SOL     OW98818   9.553   0.923   2.368  0.1786  0.2086 -0.4867
30909SOL    HW198819   9.522   0.940   2.279  1.8271 -1.6902 -1.5228
30909SOL    HW298820   9.492   0.860   2.404  1.7303 -2.2483 -1.9045
30910SOL     OW98821   5.506   1.668   4.210  0.1247  0.2457 -0.1611
30910SOL    HW198822   5.479   1.648   4.120  1.0245  0.1669 -0.4170
30910SOL    HW298823   5.538   1.585   4.245  0.7224  0.4898 -0.1118
30911SOL     OW98824   8.495   1.609   0.181 -0.6720  1.1112  0.2973
30911SOL    HW198825   8.580   1.630   0.220  0.8255 -0.1486 -2.0658
30911SOL    HW298826   8.451   1.555   0.246  0.4892  1.4422  1.3972
30912SOL     OW98827   8.003   0.853   2.846  0.3373 -0.1746  0.5823
30912SOL    HW198828   8.033   0.765   2.822  0.8103 -0.1607  1.0904
30912SOL    HW298829   7.928   0.870   2.788  0.8140 -0.5368 -0.1555
30913SOL     OW98830   0.501   5.605   9.648  0.0499  0.0447  0.3717
30913SOL    HW198831   0.560   5.581   9.718 -0.1670 -0.5759  0.3418
30913SOL    HW298832   0.498   5.529   9.591 -1.6887 -0.4028  0.9932
30914SOL     OW98833   7.132   7.019   4.630 -0.4220 -1.1456  0.1539
30914SOL    HW198834   7.134   6.923   4.630 -1.7608 -1.2614 -2.5208
30914SOL    HW298835   7.225   7.045   4.633  0.0700 -2.6046 -0.9949
30915SOL     OW98836   1.201   4.564   5.608 -0.4328  0.2749  0.0913
30915SOL    HW198837   1.133   4.509   5.647 -0.6427 -0.3813 -1.1390
30915SOL    HW298838   1.277   4.506   5.603 -0.0839  0.6930  0.5225
30916SOL     OW98839   5.623   6.953   9.093  0.3414  0.2358  0.4969
30916SOL    HW198840   5.703   6.905   9.069  0.7031  1.6404 -1.3103
30916SOL    HW298841   5.598   6.999   9.014 -0.5455  2.2453  1.8645
30917SOL     OW98842   0.919   5.700   0.413 -0.1503 -0.4204 -0.1338
30917SOL    HW198843   0.978   5.626   0.399 -0.9331 -1.2023  0.5560
30917SOL    HW298844   0.858   5.696   0.340 -0.8826 -1.1744  0.4868
30918SOL     OW98845   5.611   3.991   9.125 -0.1313 -0.1037 -0.3253
30918SOL    HW198846   5.526   4.031   9.137  0.9714  2.0458  0.8819
30918SOL    HW298847   5.661   4.016   9.202  1.7292 -0.9528 -1.1806
30919SOL     OW98848   1.207   7.337   5.032  0.0462  0.2820 -0.2177
30919SOL    HW198849   1.148   7.284   4.979  0.9730 -0.8888 -0.1138
30919SOL    HW298850   1.204   7.424   4.992 -1.0656  0.0189 -0.7334
30920SOL     OW98851   3.273   2.908   8.327 -0.4926 -0.0300 -0.5907
30920SOL    HW198852   3.364   2.896   8.303  0.3060  2.4688  0.7722
30920SOL    HW298853   3.252   2.832   8.382  1.5825  0.5234  1.0874
30921SOL     OW98854   3.857   2.779  10.151  0.0378 -0.5304  0.4083
30921SOL    HW198855   3.833   2.770  10.058 -3.5968  0.8698  1.0469
30921SOL    HW298856   3.854   2.873  10.168 -0.4733 -0.8299  2.1612
30922SOL     OW98857   0.477   5.882   6.878 -0.1192 -0.1849  0.0505
30922SOL    HW198858   0.562   5.838   6.884  0.0930  0.1928 -0.1863
30922SOL    HW298859   0.441   5.877   6.966  0.0265 -0.5838  0.0922
30923SOL     OW98860   7.853   6.819  10.181 -0.3936 -0.0124  0.0225
30923SOL    HW198861   7.881   6.818  10.090 -0.4110 -0.2175  0.0188
30923SOL    HW298862   7.791   6.747  10.188  1.5258 -1.6884  0.8076
30924SOL     OW98863   8.759  10.162   9.047  0.4508 -0.3451 -0.4813
30924SOL    HW198864   8.780  10.077   9.011 -0.7392 -1.0557  0.4293
30924SOL    HW298865   8.748  10.147   9.141  0.9932  0.9642 -0.1739
30925SOL     OW98866   9.761   1.860   5.870  0.2201  0.6315 -0.0458
30925SOL    HW198867   9.748   1.942   5.821  0.6024  1.4509  1.1644
30925SOL    HW298868   9.685   1.854   5.927  0.6172  0.6032  0.4881
30926SOL     OW98869   6.100   7.982   1.322  0.7100 -0.0576  0.1086
30926SOL    HW198870   6.045   7.918   1.368  1.1854 -0.3291  0.3111
30926SOL    HW298871   6.153   7.929   1.262 -0.4762  0.3687 -1.3665
30927SOL     OW98872   6.830   7.440   3.415 -0.1969  0.5184 -0.0806
30927SOL    HW198873   6.805   7.523   3.456  2.0376  0.2401  2.0904
30927SOL    HW298874   6.914   7.459   3.373  0.3198 -0.5871  0.4079
30928SOL     OW98875   7.713   0.301   5.536  0.5302 -0.0855  0.0523
30928SOL    HW198876   7.695   0.385   5.578  0.5676 -0.4094  0.7303
30928SOL    HW298877   7.698   0.236   5.605 -1.3346 -0.7986 -0.9656
30929SOL     OW98878   6.467   8.438   7.956  0.0412 -0.0963  0.0821
30929SOL    HW198879   6.419   8.439   8.039 -3.3197 -0.3180 -1.6721
30929SOL    HW298880   6.466   8.346   7.929 -0.7562  0.2393 -1.1120
30930SOL     OW98881   8.096   0.723   4.792 -0.3573 -0.0864  0.3402
30930SOL    HW198882   8.053   0.754   4.872 -0.6566  1.4892 -0.4050
30930SOL    HW298883   8.045   0.762   4.721 -0.3037 -1.7262 -0.6531
30931SOL     OW98884  10.720   2.189   3.744  0.1794 -0.3468  0.3717
30931SOL    HW198885  10.743   2.180   3.837  0.0132  0.9413  0.5630
30931SOL    HW298886  10.778   2.257   3.711  1.1963 -1.7380 -0.8547
30932SOL     OW98887   6.630   6.271   2.952 -0.4796 -0.2477 -0.4051
30932SOL    HW198888   6.570   6.218   2.899 -0.1005 -2.6849  1.4231
30932SOL    HW298889   6.707   6.216   2.963 -0.1518  0.5525  1.8340
30933SOL     OW98890   6.461   6.613   1.520  0.0405 -0.0311 -0.7600
30933SOL    HW198891   6.508   6.542   1.477  0.3674 -0.2603 -0.0348
30933SOL    HW298892   6.513   6.633   1.598 -0.1711  0.8440 -0.8276
30934SOL     OW98893   3.621   7.966   9.544  0.0545 -0.2990 -0.1555
30934SOL    HW198894   3.555   8.036   9.545 -1.2008 -1.3436  3.0208
30934SOL    HW298895   3.581   7.897   9.492 -1.6318 -1.0295  1.9623
30935SOL     OW98896   4.021   0.203   7.126 -0.7036 -0.6222  1.0955
30935SOL    HW198897   3.982   0.189   7.039 -0.1089 -0.6028  0.8273
30935SOL    HW298898   3.992   0.290   7.152  0.6743  0.1566  0.0941
30936SOL     OW98899   0.709   2.287   8.954 -0.0264  0.5884  0.6377
30936SOL    HW198900   0.717   2.348   9.027  0.8916  2.2478 -0.7596
30936SOL    HW298901   0.796   2.248   8.945  0.1904  1.2299 -0.2187
30937SOL     OW98902   8.924   9.838   4.033  0.5849  0.3973 -0.1632
30937SOL    HW198903   8.851   9.814   3.976 -0.4383  1.7723  0.5141
30937SOL    HW298904   8.939   9.931   4.015  1.9878  0.2048 -0.0690
30938SOL     OW98905  10.006   4.665   6.806  0.1701  0.6555 -0.0808
30938SOL    HW198906  10.022   4.670   6.712 -0.2129 -0.4845 -0.2098
30938SOL    HW298907   9.919   4.703   6.818  0.2366  0.8390 -0.1734
30939SOL     OW98908   1.596   9.224   1.880  0.1586 -0.4447 -0.2016
30939SOL    HW198909   1.654   9.150   1.863 -1.1873 -1.4618 -0.6343
30939SOL    HW298910   1.557   9.205   1.965  1.2110  0.7711  0.5891
30940SOL     OW98911   2.533   0.414  10.496 -0.2555 -0.5255  0.5059
30940SOL    HW198912   2.479   0.426  10.417 -0.1455  0.7459  0.5899
30940SOL    HW298913   2.614   0.462  10.477 -0.6017  0.6185  1.7303
30941SOL     OW98914   3.544   3.933   3.813  0.2340  0.8219 -0.1283
30941SOL    HW198915   3.461   3.929   3.861 -0.4149  1.3639 -1.1596
30941SOL    HW298916   3.545   3.853   3.760  1.1815 -0.0251  1.1160
30942SOL     OW98917  10.089   6.407   7.414 -0.2823 -0.1544 -0.3416
30942SOL    HW198918  10.111   6.403   7.321  4.1251  0.9698  0.4147
30942SOL    HW298919  10.112   6.496   7.440  0.3331 -0.9687  2.1566
30943SOL     OW98920   9.283  10.109   7.473  0.2928 -0.6731  0.4493
30943SOL    HW198921   9.239  10.186   7.509  1.0931  0.1610 -0.3224
30943SOL    HW298922   9.376  10.123   7.491  0.4450 -1.4678  0.3159
30944SOL     OW98923   4.111   0.653   2.329  0.2461 -0.1209  0.2624
30944SOL    HW198924   4.135   0.743   2.352  2.0492 -0.2719 -0.8619
30944SOL    HW298925   4.185   0.600   2.358 -0.3342 -1.1238 -0.0368
30945SOL     OW98926   2.194  10.189   5.429  0.2145  0.2486  0.3611
30945SOL    HW198927   2.212  10.267   5.378 -0.0964  1.0379  1.4123
30945SOL    HW298928   2.129  10.140   5.378 -1.5905  1.9813  0.8507
30946SOL     OW98929   1.742   1.121  10.475 -0.5342  0.4534 -0.3338
30946SOL    HW198930   1.808   1.073  10.424 -1.5652 -0.3129 -0.9769
30946SOL    HW298931   1.658   1.092  10.440 -1.2333  1.4165  0.4719
30947SOL     OW98932   1.068   6.196  10.057 -0.4005  0.2509  0.2544
30947SOL    HW198933   1.076   6.264  10.124 -0.4526 -0.5919  1.1520
30947SOL    HW298934   1.008   6.232   9.993 -1.2776  0.6484  1.2660
30948SOL     OW98935   0.176   8.837   9.005  1.1106 -0.7164  0.1678
30948SOL    HW198936   0.090   8.809   8.973  0.8499 -0.6727  0.8017
30948SOL    HW298937   0.232   8.761   8.993  1.7310  0.0952 -2.8529
30949SOL     OW98938   5.719   0.384   4.627  0.2475 -0.2417 -0.0511
30949SOL    HW198939   5.663   0.343   4.694 -1.8714 -0.9050 -2.1073
30949SOL    HW298940   5.690   0.475   4.623  0.9015 -0.0021  0.4147
30950SOL     OW98941  10.080   0.311   6.926  0.4075  0.2831 -0.1029
30950SOL    HW198942  10.175   0.307   6.938  0.2695 -0.2721  0.9080
30950SOL    HW298943  10.069   0.340   6.835  1.5309  1.5122  0.1198
30951SOL     OW98944   5.198   1.578   9.291  0.1123  0.4454  0.4889
30951SOL    HW198945   5.193   1.483   9.279 -1.2224  0.2422  2.2200
30951SOL    HW298946   5.201   1.613   9.202 -2.7297 -1.1199 -0.3803
30952SOL     OW98947   1.384   7.810   7.904  0.3983  0.3591 -0.1494
30952SOL    HW198948   1.436   7.764   7.839 -0.7819  1.0230 -1.6068
30952SOL    HW298949   1.294   7.807   7.870  0.2133  3.5736 -0.2625
30953SOL     OW98950   8.170  10.062   5.884  0.5737  0.1030 -0.0620
30953SOL    HW198951   8.197   9.981   5.927  0.5923  0.5600  0.8169
30953SOL    HW298952   8.250  10.095   5.843  1.9093  2.2149  3.7572
30954SOL     OW98953   8.682   0.270   9.699  0.4513  0.4818 -0.3702
30954SOL    HW198954   8.750   0.212   9.666 -0.7957 -0.5621 -1.1891
30954SOL    HW298955   8.611   0.264   9.635 -1.3693 -0.3039  1.6156
30955SOL     OW98956   0.897   2.564   1.828  0.0898 -0.6691 -0.3854
30955SOL    HW198957   0.828   2.500   1.810 -0.8114  0.5365 -1.3412
30955SOL    HW298958   0.948   2.524   1.899 -2.2738 -1.0949  1.1843
30956SOL     OW98959   2.194   6.702   3.883  0.1232 -0.0733  0.1485
30956SOL    HW198960   2.115   6.755   3.887  0.7653  0.8314  2.0535
30956SOL    HW298961   2.194   6.653   3.965  1.0660 -0.8146 -0.2697
30957SOL     OW98962   9.006   6.045   9.950 -0.5923  0.6245  0.2087
30957SOL    HW198963   8.910   6.050   9.953 -0.5880  0.6635  0.3233
30957SOL    HW298964   9.031   6.105   9.880 -0.6377  0.8321  0.3685
30958SOL     OW98965   6.395   2.308   9.960 -0.0641 -0.1873  0.6973
30958SOL    HW198966   6.400   2.320   9.865  1.2572  1.2023  0.9069
30958SOL    HW298967   6.393   2.214   9.973 -1.1655 -0.3868 -0.7416
30959SOL     OW98968   9.450   0.712   5.640  0.0578 -0.2626  0.9632
30959SOL    HW198969   9.442   0.742   5.731  0.8016  0.6193  0.7632
30959SOL    HW298970   9.540   0.736   5.616 -0.7467  1.3939 -0.6282
30960SOL     OW98971   0.821   1.626   2.401 -0.2814 -0.5030 -0.6157
30960SOL    HW198972   0.767   1.696   2.437 -0.9348 -0.5882 -1.4082
30960SOL    HW298973   0.902   1.670   2.374  0.1135 -0.3968  0.6701
30961SOL     OW98974   5.416   0.467   3.862  0.5185 -0.4563 -0.5128
30961SOL    HW198975   5.510   0.465   3.849  0.5942  0.8064 -0.2913
30961SOL    HW298976   5.390   0.556   3.836 -0.4542 -0.4584  0.3784
30962SOL     OW98977   1.640   3.942   3.256 -0.3336  0.1342  0.5032
30962SOL    HW198978   1.585   3.963   3.332  0.1302 -1.3081  1.2563
30962SOL    HW298979   1.667   4.028   3.223  1.5839  0.8415  3.5240
30963SOL     OW98980   8.890   5.091   0.320 -0.2907  0.1617  0.2438
30963SOL    HW198981   8.853   5.179   0.323  0.1916  0.4065 -0.8689
30963SOL    HW298982   8.824   5.037   0.365 -0.1132  1.2224  1.8937
30964SOL     OW98983   9.228   0.904   4.162  0.4583 -0.2605  0.3566
30964SOL    HW198984   9.322   0.906   4.178  0.7855 -0.7921 -1.2603
30964SOL    HW298985   9.216   0.832   4.099 -1.1962 -1.0251  1.4576
30965SOL     OW98986   5.676   9.424   8.385  0.0251 -0.7128 -0.1979
30965SOL    HW198987   5.764   9.393   8.407 -0.5002 -1.4898  0.9166
30965SOL    HW298988   5.688   9.516   8.363  1.1874 -0.9351 -0.6126
30966SOL     OW98989   0.245   5.568   2.658 -0.0215 -0.4045 -0.2827
30966SOL    HW198990   0.161   5.556   2.614 -0.2911  0.8214 -0.1507
30966SOL    HW298991   0.225   5.629   2.729  0.7168 -1.1557  0.5930
30967SOL     OW98992   5.540   1.493   9.387  0.2452  0.1030  0.0110
30967SOL    HW198993   5.505   1.568   9.435 -1.2468  1.3950 -2.8321
30967SOL    HW298994   5.485   1.420   9.413 -0.1175  0.6174  0.7260
30968SOL     OW98995   9.679   8.150   0.749  0.3570 -0.0316  0.1187
30968SOL    HW198996   9.681   8.054   0.746 -1.0290 -0.1636  1.9276
30968SOL    HW298997   9.759   8.176   0.704 -1.1091 -1.8689 -4.0988
30969SOL     OW98998   6.538   3.837   5.036  0.2436 -0.5178 -0.4137
30969SOL    HW198999   6.598   3.910   5.049 -0.5931  0.4169 -1.5821
30969SOL    HW299000   6.486   3.834   5.116  0.8794 -0.4376  0.0141
30970SOL     OW99001   7.805   7.350   6.205  0.2060 -0.2116  0.4520
30970SOL    HW199002   7.751   7.295   6.261  1.4396 -1.2917  0.6140
30970SOL    HW299003   7.862   7.398   6.265  0.9442 -0.7291  0.1735
30971SOL     OW99004   4.134   7.490  10.222 -0.5442 -0.7171  0.0325
30971SOL    HW199005   4.061   7.519  10.167 -0.1472  0.4238  0.0697
30971SOL    HW299006   4.112   7.401  10.247 -0.7918 -1.2582 -1.9029
30972SOL     OW99007   5.049   0.684   8.462 -0.0936 -0.2902  0.1522
30972SOL    HW199008   5.091   0.620   8.404 -3.4723 -2.6071 -0.0334
30972SOL    HW299009   5.026   0.757   8.405  0.4871 -0.5924 -0.4815
30973SOL     OW99010   4.116   6.690   1.963 -0.0155 -0.2470 -0.4353
30973SOL    HW199011   4.193   6.715   2.014 -1.3635  2.0055  0.6542
30973SOL    HW299012   4.138   6.718   1.874  0.0400  1.4848  0.0717
30974SOL     OW99013  10.697   1.642   0.395  0.1594  0.3802  0.1104
30974SOL    HW199014  10.687   1.730   0.359  0.3285 -0.3593 -1.8435
30974SOL    HW299015  10.628   1.636   0.462 -1.1721  1.3012 -1.1289
30975SOL     OW99016   8.712   0.192   1.000  0.2206  0.4155  0.0071
30975SOL    HW199017   8.765   0.128   0.953 -0.2503 -0.3518  0.4959
30975SOL    HW299018   8.659   0.140   1.061  0.1883  1.3129  0.7745
30976SOL     OW99019   5.668  10.409  10.255  0.0075  0.0817  0.4056
30976SOL    HW199020   5.756  10.447  10.254  0.5176 -1.0900 -0.0466
30976SOL    HW299021   5.679  10.321  10.219 -1.5502  0.3339 -0.7674
30977SOL     OW99022   3.720   1.136   1.418 -0.4246 -0.1628 -0.0968
30977SOL    HW199023   3.685   1.169   1.500 -1.2389  1.1950 -0.9538
30977SOL    HW299024   3.812   1.163   1.418 -0.4939  0.0715  0.2449
30978SOL     OW99025   6.153   3.849   6.190 -0.4528 -0.3906  0.0648
30978SOL    HW199026   6.108   3.848   6.106  0.5886 -0.3794 -0.5105
30978SOL    HW299027   6.245   3.835   6.168 -0.2491 -1.1113  1.2617
30979SOL     OW99028   1.494   7.194   8.434  0.2289  0.2181  0.1494
30979SOL    HW199029   1.486   7.177   8.341 -1.6930  0.9295  0.1488
30979SOL    HW299030   1.575   7.150   8.459  0.3896 -0.6311 -1.6907
30980SOL     OW99031   5.517   6.108   6.141 -0.1121 -0.4379  0.7122
30980SOL    HW199032   5.583   6.161   6.186  1.2571 -0.2438 -1.3800
30980SOL    HW299033   5.553   6.095   6.053 -3.5234  0.9085 -1.0523
30981SOL     OW99034   7.272   4.325   5.891 -0.4065  0.0993 -0.0971
30981SOL    HW199035   7.273   4.340   5.985  1.2562 -0.1438 -0.0569
30981SOL    HW299036   7.363   4.313   5.867 -0.6212  1.6786 -2.0002
30982SOL     OW99037   1.046   5.509   6.877 -0.3505  0.2336  0.3874
30982SOL    HW199038   1.127   5.514   6.825  0.6671  0.4741  1.9261
30982SOL    HW299039   0.986   5.569   6.832  0.6728  0.8619 -0.2042
30983SOL     OW99040   2.661   6.967   1.594 -0.2411 -0.5968 -0.0310
30983SOL    HW199041   2.659   6.888   1.648 -2.0120  0.2065  1.1621
30983SOL    HW299042   2.601   6.948   1.522 -1.2373 -0.1163  0.6473
30984SOL     OW99043   7.892   1.199   0.617  0.0934  0.0191 -0.2227
30984SOL    HW199044   7.952   1.174   0.546 -0.3276  2.9112 -1.7476
30984SOL    HW299045   7.947   1.200   0.696  1.7823  1.2592 -1.3450
30985SOL     OW99046  10.874   1.587   1.896  0.3018 -0.5900  0.4396
30985SOL    HW199047  10.790   1.546   1.876  0.5772 -0.4776 -1.1122
30985SOL    HW299048  10.878   1.589   1.991 -1.4855 -0.5156  0.5445
30986SOL     OW99049   0.392   0.861   7.072 -0.3546  0.6031 -0.8819
30986SOL    HW199050   0.452   0.809   7.017  0.3751  0.5905 -0.0943
30986SOL    HW299051   0.346   0.796   7.125 -0.6046  0.6594 -1.0272
30987SOL     OW99052  10.400   7.625  10.862 -0.0442  0.1485 -0.3422
30987SOL    HW199053  10.402   7.699  10.922  0.9553  0.4201 -0.6937
30987SOL    HW299054  10.337   7.564  10.901  1.3268 -0.1522  1.5525
30988SOL     OW99055   7.652   1.484   9.806 -0.0397 -0.1403  0.4560
30988SOL    HW199056   7.729   1.495   9.862 -0.6251 -0.6431  1.4072
30988SOL    HW299057   7.669   1.403   9.758  0.0232 -0.2631  0.6802
30989SOL     OW99058   5.657   7.305   4.324  0.3674  0.1264 -0.2545
30989SOL    HW199059   5.627   7.346   4.243  1.8868 -0.7981 -1.3406
30989SOL    HW299060   5.711   7.372   4.366  0.4056  0.2655 -0.5213
30990SOL     OW99061  10.667  10.483   5.808  0.2644 -0.2451  0.3252
30990SOL    HW199062  10.619  10.492   5.725  0.3432 -0.4381  0.2592
30990SOL    HW299063  10.747  10.535   5.796  0.1932 -0.1307  0.3442
30991SOL     OW99064   2.288   5.861   2.960  0.4672 -0.4530 -0.1208
30991SOL    HW199065   2.255   5.904   3.039 -1.1759 -2.7496  0.5183
30991SOL    HW299066   2.259   5.918   2.889 -0.7071  0.0677  0.7387
30992SOL     OW99067   9.270   6.135   8.172 -0.4630  0.0348  0.0147
30992SOL    HW199068   9.175   6.142   8.181 -0.1969  3.2419  1.5183
30992SOL    HW299069   9.296   6.071   8.238 -1.5065 -0.7225 -0.2742
30993SOL     OW99070   7.525   5.326   9.473 -0.5483  0.2954 -0.2464
30993SOL    HW199071   7.481   5.408   9.448  0.4340  0.8172 -0.3020
30993SOL    HW299072   7.475   5.258   9.429 -1.6042  0.8298  0.0922
30994SOL     OW99073   6.807   9.618   7.283 -0.4541 -0.4451 -0.4130
30994SOL    HW199074   6.743   9.643   7.216 -0.4733  1.4393  0.2208
30994SOL    HW299075   6.782   9.530   7.309 -2.4390  0.0128 -0.6250
30995SOL     OW99076   1.785   7.925   5.036  0.8735  0.5035 -0.0580
30995SOL    HW199077   1.713   7.861   5.037 -1.2297  2.6638 -1.6534
30995SOL    HW299078   1.862   7.874   5.061 -1.2236 -1.8547  2.2894
30996SOL     OW99079   5.815   5.815   5.781  0.3526 -0.3392 -0.3026
30996SOL    HW199080   5.902   5.792   5.746 -0.3904 -0.7211 -2.0241
30996SOL    HW299081   5.764   5.837   5.703 -0.7319  1.2066  0.7900
30997SOL     OW99082   3.423   4.410   1.894  0.1121 -0.0157  0.2555
30997SOL    HW199083   3.374   4.337   1.930 -0.9243  0.5098 -0.0598
30997SOL    HW299084   3.377   4.434   1.813  0.7132  0.6706  0.0964
30998SOL     OW99085   6.874   5.957   4.682  0.4485  0.4222  0.0594
30998SOL    HW199086   6.870   5.962   4.586 -0.5463 -2.3099 -0.1418
30998SOL    HW299087   6.967   5.944   4.701  0.4320 -1.1511 -0.7676
30999SOL     OW99088   9.252   8.105   4.386  0.7056 -0.2763  0.2673
30999SOL    HW199089   9.320   8.153   4.434  0.2982 -0.5427  1.1349
30999SOL    HW299090   9.210   8.050   4.452 -1.3373  0.9503  0.0810
31000SOL     OW99091   7.423   6.623   9.671 -0.3723 -0.3014  0.0184
31000SOL    HW199092   7.396   6.566   9.599 -0.7526 -0.4225  0.2497
31000SOL    HW299093   7.381   6.707   9.653  1.0429  0.2402 -0.8838
31001SOL     OW99094  10.447   8.464   1.370  0.3163 -0.2155 -0.7995
31001SOL    HW199095  10.437   8.369   1.357  2.3018 -0.6902  0.6450
31001SOL    HW299096  10.413   8.503   1.289 -1.3509 -2.0812 -1.0757
31002SOL     OW99097   3.715   8.148  10.517  0.7171  0.2997 -0.3637
31002SOL    HW199098   3.745   8.078  10.576  0.0031  0.6335  0.4032
31002SOL    HW299099   3.623   8.129  10.502  0.7649  0.5190 -0.9565
31003SOL     OW99100   8.406  10.582  10.095  0.1800  0.0241 -0.1718
31003SOL    HW199101   8.343  10.566  10.165 -0.3138  1.7635 -0.1920
31003SOL    HW299102   8.452  10.661  10.121 -0.4570  1.0831 -2.0858
31004SOL     OW99103   8.071   2.963   5.452 -0.2768 -0.2543 -0.4978
31004SOL    HW199104   8.134   2.943   5.382 -1.0286  0.2906 -1.3463
31004SOL    HW299105   7.986   2.959   5.410 -0.7452  0.1477  0.3852
31005SOL     OW99106   6.220   7.602   4.957  0.2151  0.3973 -0.9734
31005SOL    HW199107   6.162   7.538   4.998  0.5178 -0.1910 -1.4484
31005SOL    HW299108   6.170   7.684   4.959 -0.5112 -0.0322 -1.1032
31006SOL     OW99109   8.248   0.047   2.301 -0.0720 -0.3813  0.0257
31006SOL    HW199110   8.157   0.037   2.331 -0.1091  0.7282  0.3146
31006SOL    HW299111   8.301   0.027   2.379 -0.1002 -0.1392  0.1095
31007SOL     OW99112  10.749  10.759   5.583  0.1065  0.0172 -0.1096
31007SOL    HW199113  10.794  10.751   5.667 -1.0183 -2.2914  0.3531
31007SOL    HW299114  10.812  10.725   5.519  0.3681  0.2664  0.0121
31008SOL     OW99115   4.033   2.369   6.640 -0.3967 -0.1464 -0.3764
31008SOL    HW199116   4.119   2.406   6.661  0.2269 -2.3428  1.2919
31008SOL    HW299117   4.015   2.401   6.551  2.0531  0.5063 -0.7271
31009SOL     OW99118   3.845   5.104   1.862  0.0672 -0.1491  0.0689
31009SOL    HW199119   3.755   5.132   1.882  0.8477  1.4687  1.6668
31009SOL    HW299120   3.836   5.015   1.829 -2.1226 -0.0144  0.1610
31010SOL     OW99121   5.822   4.639   2.957 -0.4451  0.3967 -0.3612
31010SOL    HW199122   5.839   4.551   2.988  0.0185  0.6698  0.1708
31010SOL    HW299123   5.806   4.628   2.863 -1.2010 -0.3459 -0.1530
31011SOL     OW99124   0.428   9.056   1.518 -0.4445 -0.1028 -0.0442
31011SOL    HW199125   0.415   8.986   1.582  1.2720 -1.3392 -0.9512
31011SOL    HW299126   0.485   9.118   1.562 -3.3902  1.7891  1.4280
31012SOL     OW99127   1.108   0.926   8.425  0.6342 -0.1959  0.5429
31012SOL    HW199128   1.095   0.917   8.331  0.1133 -1.2502  0.6961
31012SOL    HW299129   1.080   1.015   8.445  0.8498  0.0718 -0.3092
31013SOL     OW99130   4.841   1.760   9.697 -0.2399  0.7753 -0.3744
31013SOL    HW199131   4.929   1.729   9.722  0.4958  3.1166  0.1572
31013SOL    HW299132   4.784   1.729   9.767 -0.0898 -1.5972 -1.1941
31014SOL     OW99133   6.176  10.124   4.975 -0.1664 -0.0985  0.1584
31014SOL    HW199134   6.193  10.181   5.050  3.0026 -0.4527 -0.1281
31014SOL    HW299135   6.162  10.037   5.014  1.3763 -0.2639  0.4336
31015SOL     OW99136   5.780  10.632   0.262  0.5806 -0.1080  0.0679
31015SOL    HW199137   5.786  10.700   0.329  0.5348 -0.4562  0.4281
31015SOL    HW299138   5.797  10.678   0.179 -1.6738  0.7968  0.0341
31016SOL     OW99139   1.623   7.463  10.737  0.0988  0.6650  1.2899
31016SOL    HW199140   1.703   7.515  10.737 -1.1508  2.6782  0.5571
31016SOL    HW299141   1.590   7.469  10.648 -0.3192 -1.0753  1.2949
31017SOL     OW99142   2.200   3.588   7.353 -0.6855  0.2160  0.7043
31017SOL    HW199143   2.152   3.556   7.276  0.5062  0.7987 -0.3181
31017SOL    HW299144   2.258   3.516   7.377  1.7186  1.3089 -1.3615
31018SOL     OW99145   1.133   4.872   0.392  0.6401  0.0305 -0.6126
31018SOL    HW199146   1.226   4.870   0.414  0.3998 -0.6954  0.4540
31018SOL    HW299147   1.089   4.883   0.477 -0.2664 -0.5558 -0.9882
31019SOL     OW99148   2.487   6.593   4.117 -0.2658 -0.4371 -0.1491
31019SOL    HW199149   2.532   6.666   4.075  1.0530 -0.8879  0.4241
31019SOL    HW299150   2.535   6.579   4.198 -0.4553 -1.9937 -0.2859
31020SOL     OW99151   1.989   7.545   9.243 -0.0366 -0.1812  0.1174
31020SOL    HW199152   1.950   7.590   9.318  0.5307 -0.5082  0.6075
31020SOL    HW299153   1.939   7.578   9.168 -0.5609  0.2001  0.6219
31021SOL     OW99154   7.943  10.634   4.801 -0.1578 -0.0223  0.6157
31021SOL    HW199155   7.945  10.541   4.822 -1.7922 -0.2131  0.0704
31021SOL    HW299156   7.850  10.657   4.798  0.1211  1.1362 -1.2595
31022SOL     OW99157   6.545   0.265   4.127 -0.0834  0.4841 -0.3416
31022SOL    HW199158   6.593   0.183   4.114 -0.5313 -0.1317  1.6225
31022SOL    HW299159   6.613   0.332   4.136  0.3714 -0.1084  0.7268
31023SOL     OW99160   5.220  10.234   4.521 -0.3667 -0.1465  0.5735
31023SOL    HW199161   5.239  10.327   4.533  0.1709 -0.2040  0.2272
31023SOL    HW299162   5.295  10.189   4.559  0.3609 -0.3724 -1.0312
31024SOL     OW99163   4.489   9.834   4.267 -0.3174  0.1265  0.0359
31024SOL    HW199164   4.513   9.793   4.184 -1.0827 -2.1315  0.8526
31024SOL    HW299165   4.433   9.907   4.242  0.3385  0.1506 -1.4714
31025SOL     OW99166   8.549   3.007   2.141 -0.0014  0.0215 -0.0105
31025SOL    HW199167   8.598   2.963   2.211  1.7698  0.0028 -1.1859
31025SOL    HW299168   8.549   3.099   2.168 -0.8782 -0.2143  0.8559
31026SOL     OW99169   7.753   9.584   8.073  0.5012 -0.1083  0.4343
31026SOL    HW199170   7.704   9.571   8.155 -1.3875 -0.9677 -0.7728
31026SOL    HW299171   7.740   9.677   8.052 -0.6041 -0.3206  0.1494
31027SOL     OW99172   7.267   3.408   0.607  0.2406  0.1808  0.1082
31027SOL    HW199173   7.324   3.367   0.542 -0.5312  1.5107 -1.4846
31027SOL    HW299174   7.301   3.497   0.617 -1.0259  0.7261 -0.2348
31028SOL     OW99175   2.206   7.018   1.249 -0.4757  0.2047  0.0565
31028SOL    HW199176   2.176   7.003   1.338  0.1050  1.8288  0.5611
31028SOL    HW299177   2.292   7.060   1.259 -0.1160 -0.1509 -1.2792
31029SOL     OW99178   2.945  10.036   2.110  0.1342  0.4924 -0.1237
31029SOL    HW199179   2.872  10.041   2.171 -2.2995 -1.8995 -2.5150
31029SOL    HW299180   2.913  10.080   2.031  1.6704  0.2434 -0.9221
31030SOL     OW99181   3.193   2.987   7.246 -0.1718  0.0589 -0.1340
31030SOL    HW199182   3.140   2.915   7.212 -0.1923  0.0116 -0.0009
31030SOL    HW299183   3.129   3.047   7.285 -0.3126  0.8616 -1.5173
31031SOL     OW99184   5.252   8.850   9.720 -0.0568 -0.5000  0.3001
31031SOL    HW199185   5.197   8.857   9.798 -0.0280 -1.9548  0.4722
31031SOL    HW299186   5.316   8.921   9.729  1.2973 -1.8902  2.7080
31032SOL     OW99187   3.172   5.336  10.926 -0.0060  0.5538  0.3580
31032SOL    HW199188   3.177   5.426  10.957 -0.9395  0.6245  0.3452
31032SOL    HW299189   3.090   5.332  10.877  0.2426 -0.1895 -0.0110
31033SOL     OW99190   1.346   7.133   4.371 -0.0919 -0.1004  0.1192
31033SOL    HW199191   1.303   7.047   4.369  0.0689 -0.1746 -0.4146
31033SOL    HW299192   1.405   7.131   4.295 -2.2098  1.5965 -1.6791
31034SOL     OW99193   4.012   1.114   5.633 -0.2281  0.5838  0.1595
31034SOL    HW199194   4.043   1.023   5.629 -0.1882  0.4150  2.7014
31034SOL    HW299195   4.046   1.154   5.553  0.8815 -1.3075 -0.3813
31035SOL     OW99196   0.565   6.733   8.107  0.3648 -0.3766 -0.6528
31035SOL    HW199197   0.510   6.688   8.044 -0.8973  1.3619 -0.8560
31035SOL    HW299198   0.652   6.694   8.096  0.5368  0.7657 -4.4312
31036SOL     OW99199   0.345   5.916   7.956  0.1114 -0.4797 -0.6334
31036SOL    HW199200   0.433   5.879   7.960  0.3226  0.0791  0.1291
31036SOL    HW299201   0.358   6.010   7.971 -0.3806 -0.0095 -2.7199
31037SOL     OW99202  10.498   6.659   8.860  0.0483 -0.7174  0.1930
31037SOL    HW199203  10.417   6.672   8.910  0.4775 -0.7592  0.9176
31037SOL    HW299204  10.565   6.644   8.927  0.9590  0.9024 -0.3093
31038SOL     OW99205   3.834   4.644  10.574  0.4097  0.3010  0.1132
31038SOL    HW199206   3.821   4.607  10.662  0.1892  2.3825  1.0197
31038SOL    HW299207   3.789   4.728  10.577  2.4984  1.5397 -1.1981
31039SOL     OW99208   1.525   2.328  10.333 -0.1157  0.1277  0.4565
31039SOL    HW199209   1.620   2.321  10.328 -0.0870  0.7886 -0.1368
31039SOL    HW299210   1.493   2.253  10.282  0.0702 -0.4419  1.1579
31040SOL     OW99211   9.198   7.887   9.882 -0.3538 -0.0719 -0.0660
31040SOL    HW199212   9.259   7.937   9.936  1.9572  0.6875 -3.1161
31040SOL    HW299213   9.217   7.796   9.903  0.4202  0.2114  0.5042
31041SOL     OW99214   8.394   6.060   9.052  0.1212 -0.3989 -0.2124
31041SOL    HW199215   8.455   6.030   9.119 -0.5764  0.6339  0.9361
31041SOL    HW299216   8.348   6.133   9.093 -0.3102  0.2865 -1.8475
31042SOL     OW99217   3.944   8.943   5.826  0.6590  0.2129  0.4295
31042SOL    HW199218   3.969   8.940   5.918  0.3981 -1.2833  0.4699
31042SOL    HW299219   3.892   8.864   5.812  2.2341 -0.5856 -1.4318
31043SOL     OW99220   2.839   9.575  10.398  0.0159  0.0826  0.2175
31043SOL    HW199221   2.825   9.484  10.373 -0.8183  0.3388 -0.2823
31043SOL    HW299222   2.934   9.583  10.408  0.0579 -0.9996  0.9022
31044SOL     OW99223   8.472   0.740   6.705 -0.1750 -0.1358  0.1695
31044SOL    HW199224   8.512   0.820   6.673 -1.6280  0.2607 -0.7629
31044SOL    HW299225   8.442   0.694   6.627 -3.4912  0.6775  0.8258
31045SOL     OW99226   9.467   7.391   1.202 -0.5705  0.2416 -0.4080
31045SOL    HW199227   9.553   7.434   1.202 -0.5675  0.3485 -2.7669
31045SOL    HW299228   9.487   7.298   1.201 -0.5207  0.2405  0.1610
31046SOL     OW99229   3.309   5.112   3.585  0.2141 -0.4668  0.7583
31046SOL    HW199230   3.351   5.035   3.623  1.5079 -0.0556  0.2177
31046SOL    HW299231   3.371   5.183   3.600 -0.6498  0.3339  0.6368
31047SOL     OW99232  10.265   0.121   1.131 -0.3020 -0.3910 -0.4111
31047SOL    HW199233  10.226   0.115   1.218 -0.2131 -0.3709 -0.3696
31047SOL    HW299234  10.309   0.037   1.119  0.4148 -0.0705 -0.0863
31048SOL     OW99235   1.129   6.905   5.710 -0.0911 -0.4924  0.1564
31048SOL    HW199236   1.074   6.870   5.640  0.5999  2.6666 -2.1995
31048SOL    HW299237   1.195   6.838   5.725 -1.3719 -2.0392 -0.8243
31049SOL     OW99238   5.705   7.652   8.245 -0.4637  0.2778 -0.0274
31049SOL    HW199239   5.758   7.641   8.166 -0.8091 -0.5277 -0.1607
31049SOL    HW299240   5.683   7.745   8.247  0.6037  0.5421 -0.1875
31050SOL     OW99241   7.505   2.099   3.749 -0.0703  0.3702  0.3177
31050SOL    HW199242   7.467   2.177   3.789 -0.1219  0.0861  0.8251
31050SOL    HW299243   7.549   2.131   3.670 -1.2249  0.7301 -0.1979
31051SOL     OW99244   0.299   8.243   5.989 -0.0368  0.4908 -0.1406
31051SOL    HW199245   0.209   8.232   5.959  0.1681 -0.7385 -0.3461
31051SOL    HW299246   0.316   8.167   6.044  1.2021  0.1643 -0.9342
31052SOL     OW99247   4.843   8.478   1.652  0.5985 -0.6067 -0.2984
31052SOL    HW199248   4.777   8.424   1.695 -1.5341  2.2498  0.3308
31052SOL    HW299249   4.926   8.434   1.670 -0.8193 -2.7383  1.5249
31053SOL     OW99250   4.968   3.339   5.207 -0.5870 -0.1242 -0.2807
31053SOL    HW199251   4.970   3.425   5.250  1.4229 -0.2117 -0.1110
31053SOL    HW299252   5.034   3.346   5.138 -0.1586 -1.6391 -0.0530
31054SOL     OW99253   7.639   7.878   3.409  0.4438  0.2999  0.1177
31054SOL    HW199254   7.678   7.830   3.337 -0.9460 -0.4055 -0.2114
31054SOL    HW299255   7.583   7.814   3.453 -0.4020  1.2659  0.5005
31055SOL     OW99256   6.630   5.249   1.745 -0.2959 -0.8325 -0.3466
31055SOL    HW199257   6.681   5.208   1.675  0.1786 -0.6724 -0.0949
31055SOL    HW299258   6.539   5.237   1.718 -0.4372 -5.0816  1.2739
31056SOL     OW99259  10.671   4.054   0.790  0.1875 -0.5872  0.3640
31056SOL    HW199260  10.709   4.079   0.874  0.0850  0.3222  0.1582
31056SOL    HW299261  10.686   3.960   0.783  0.3427 -0.6390  1.3212
31057SOL     OW99262  10.777   7.817   7.952  1.1756  0.6418  0.1704
31057SOL    HW199263  10.730   7.752   8.005  1.2680  0.3190 -0.1431
31057SOL    HW299264  10.857   7.835   8.001  1.7255 -0.3790 -0.3254
31058SOL     OW99265   5.152   7.158   5.316 -0.6142  0.6064  0.4299
31058SOL    HW199266   5.063   7.183   5.292 -1.0805  0.4039  1.8341
31058SOL    HW299267   5.149   7.062   5.320 -0.2811  0.5902  0.3273
31059SOL     OW99268   5.576   2.235   7.413  0.0756 -0.3695 -0.6437
31059SOL    HW199269   5.592   2.323   7.377  1.7872  0.2289  1.3476
31059SOL    HW299270   5.492   2.242   7.457  1.0552  0.9755  1.1911
31060SOL     OW99271   9.385   5.461  10.094  0.4892  0.3943 -0.8821
31060SOL    HW199272   9.335   5.380  10.097  1.7442 -0.3763 -0.0508
31060SOL    HW299273   9.372   5.494  10.005 -0.0794 -0.6950 -1.2139
31061SOL     OW99274   9.182   0.066   7.474 -0.7188  0.2595 -0.1872
31061SOL    HW199275   9.199  -0.020   7.435 -0.7417 -0.1106  0.5946
31061SOL    HW299276   9.091   0.084   7.453 -0.5589  0.3614 -0.8388
31062SOL     OW99277  10.779   9.573   7.007  0.0915  0.1184 -0.2733
31062SOL    HW199278  10.704   9.632   7.008 -0.7637 -0.9464  0.1498
31062SOL    HW299279  10.791   9.550   6.915 -0.3160  0.0227 -0.3011
31063SOL     OW99280  10.431   6.071   9.420 -0.1833  0.4914 -0.1710
31063SOL    HW199281  10.351   6.018   9.414  0.7261 -1.1216  1.2817
31063SOL    HW299282  10.416   6.127   9.496  0.5750 -0.8020  0.9757
31064SOL     OW99283   1.743   8.370   9.096 -0.1234 -0.3144 -0.0394
31064SOL    HW199284   1.754   8.465   9.084 -0.8244 -0.4122 -1.6270
31064SOL    HW299285   1.655   8.352   9.064 -0.2126 -1.4374  0.8006
31065SOL     OW99286   0.632   9.187   3.534 -0.1905  0.1098  0.3667
31065SOL    HW199287   0.656   9.193   3.626  0.6603 -1.0897  0.2502
31065SOL    HW299288   0.579   9.108   3.528  0.2375 -0.1345 -0.2663
31066SOL     OW99289   2.701   0.947  10.802 -0.3383  0.3964 -0.1898
31066SOL    HW199290   2.754   1.008  10.751  0.8541  0.0933  0.6372
31066SOL    HW299291   2.699   0.984  10.890  0.1236 -0.5782  0.2466
31067SOL     OW99292   1.450   4.877   4.467 -0.2423 -0.3882 -0.0103
31067SOL    HW199293   1.403   4.794   4.459 -1.1685  0.1087  0.0591
31067SOL    HW299294   1.390   4.933   4.516  0.1242  0.5046 -0.5639
31068SOL     OW99295   2.749  10.345   6.293 -0.2625 -0.7709  0.2295
31068SOL    HW199296   2.809  10.330   6.366  0.0174  0.9475  0.4083
31068SOL    HW299297   2.663  10.320   6.326  0.0867 -1.5069  0.5992
31069SOL     OW99298  10.411   9.813   2.771 -0.6371  0.1940  0.2690
31069SOL    HW199299  10.439   9.900   2.798 -0.1850 -0.0483  0.5956
31069SOL    HW299300  10.399   9.764   2.853  0.5323 -0.4816  0.0545
31070SOL     OW99301   1.014   0.744   7.336  0.6426 -0.3344 -0.4643
31070SOL    HW199302   1.010   0.649   7.331 -1.9175 -0.2987 -0.4457
31070SOL    HW299303   0.951   0.767   7.405  1.3806  1.3626 -0.3140
31071SOL     OW99304   5.763   6.158   4.471 -0.4048  0.1408  0.6202
31071SOL    HW199305   5.708   6.079   4.467 -1.3385  0.8160 -0.9943
31071SOL    HW299306   5.702   6.230   4.453  0.7170  1.0817  0.4885
31072SOL     OW99307   3.006   9.833   3.424 -0.3285  0.0557 -0.5528
31072SOL    HW199308   2.981   9.883   3.502 -2.6276 -0.7651 -0.6870
31072SOL    HW299309   3.052   9.895   3.369 -1.6666  1.5935 -0.0110
31073SOL     OW99310   1.107   0.458   9.980 -0.2087 -0.6222 -0.2446
31073SOL    HW199311   1.085   0.434   9.890 -1.8512  0.3637 -0.1372
31073SOL    HW299312   1.114   0.374  10.026  0.5341 -1.1284 -1.2420
31074SOL     OW99313   1.576   7.557   0.284  0.0879 -0.0680  0.4131
31074SOL    HW199314   1.619   7.582   0.202  0.1204  0.5177  0.6078
31074SOL    HW299315   1.493   7.518   0.257  0.1676 -0.0189  0.0947
31075SOL     OW99316   5.617   8.675   2.681 -0.1311  0.0400  0.6495
31075SOL    HW199317   5.602   8.581   2.692  0.5286 -0.1269  0.1711
31075SOL    HW299318   5.699   8.681   2.632 -0.7016  0.8504 -0.2220
31076SOL     OW99319  10.101   3.330   4.669  0.2033 -0.2237  0.4340
31076SOL    HW199320  10.029   3.301   4.725 -1.0225 -1.0984 -1.5047
31076SOL    HW299321  10.060   3.391   4.608  1.5440  0.8291  0.5493
31077SOL     OW99322   6.615   8.794   8.392 -0.2282  0.0283  0.1467
31077SOL    HW199323   6.619   8.856   8.319 -1.1735  1.3299  1.1243
31077SOL    HW299324   6.667   8.719   8.364  0.8831  1.2254 -1.1470
31078SOL     OW99325   0.443   1.441   7.242 -0.0679  0.4883  0.0775
31078SOL    HW199326   0.449   1.375   7.311 -1.7052 -0.3047 -0.4717
31078SOL    HW299327   0.359   1.485   7.258 -0.9489 -0.3547 -1.9188
31079SOL     OW99328   9.536   6.806   3.593 -0.1265 -0.4410  0.0044
31079SOL    HW199329   9.536   6.813   3.688 -0.7270 -0.3290  0.0029
31079SOL    HW299330   9.613   6.856   3.565 -0.4108  0.2277  0.3843
31080SOL     OW99331   9.888   2.898   3.549  0.3679 -0.0527  0.0172
31080SOL    HW199332   9.976   2.881   3.583  0.0601 -1.6034  0.1360
31080SOL    HW299333   9.830   2.880   3.622 -0.0882  0.5211 -0.1936
31081SOL     OW99334   3.541   3.109  10.164  0.4206 -0.7398  0.4764
31081SOL    HW199335   3.553   3.180  10.102 -1.0524 -1.5508 -0.7951
31081SOL    HW299336   3.481   3.144  10.230 -0.1214 -0.7135 -0.0238
31082SOL     OW99337   0.498   7.929   2.041 -0.6858  0.1260  0.5140
31082SOL    HW199338   0.495   8.022   2.019  0.2842 -0.1133 -0.7943
31082SOL    HW299339   0.550   7.890   1.971  2.2491 -0.8339  3.0457
31083SOL     OW99340  10.374   1.128   9.581 -0.1682  0.1360  0.2413
31083SOL    HW199341  10.468   1.147   9.585 -0.0459 -0.4280  0.0813
31083SOL    HW299342  10.366   1.060   9.514 -0.9090  1.5424 -1.1624
31084SOL     OW99343   7.988   7.831   6.034  0.7695 -0.0841  0.5042
31084SOL    HW199344   8.011   7.865   5.948 -1.9990  0.0326 -0.2889
31084SOL    HW299345   7.958   7.742   6.018  0.5205 -0.1704  1.3732
31085SOL     OW99346  10.004   7.557   0.823 -0.4299  0.0983  0.2553
31085SOL    HW199347   9.965   7.517   0.901  0.9319  2.5753  2.3717
31085SOL    HW299348   9.940   7.624   0.796 -0.8664 -0.7058 -0.7757
31086SOL     OW99349   4.775   4.490   5.222 -0.1602 -0.1137  0.3457
31086SOL    HW199350   4.699   4.503   5.279  0.4593  1.2225  0.9094
31086SOL    HW299351   4.738   4.462   5.138 -1.2036 -0.3625  0.8733
31087SOL     OW99352   2.742   0.206   9.592  0.0979 -0.0384 -0.1378
31087SOL    HW199353   2.787   0.229   9.673  2.8043 -2.4549 -0.8173
31087SOL    HW299354   2.768   0.274   9.530 -0.8981  1.0533  0.5775
31088SOL     OW99355   4.764   1.691   2.010  0.2221  0.1686 -0.1675
31088SOL    HW199356   4.741   1.771   2.058  1.3918  1.0424 -1.0085
31088SOL    HW299357   4.732   1.708   1.921  0.7768 -0.1596 -0.4294
31089SOL     OW99358   0.473   3.933   0.958  0.0198  0.2522  0.2282
31089SOL    HW199359   0.411   3.941   0.885  0.3010 -0.4379 -0.0887
31089SOL    HW299360   0.541   3.997   0.938  0.1771 -0.0446 -0.1950
31090SOL     OW99361   0.210  10.383   2.170 -0.0125  0.5673  0.4881
31090SOL    HW199362   0.263  10.458   2.143 -0.4952  1.5466  2.0777
31090SOL    HW299363   0.133  10.385   2.113 -0.3207  1.6831  0.9156
31091SOL     OW99364   4.141   6.805   7.409 -0.0672 -0.3477  0.2655
31091SOL    HW199365   4.204   6.747   7.451 -0.1003 -1.4454 -1.1143
31091SOL    HW299366   4.072   6.816   7.473  1.1012  0.1889  1.4830
31092SOL     OW99367   9.352   2.607   6.431 -0.1777 -0.3006  0.1402
31092SOL    HW199368   9.380   2.688   6.473 -1.6329  0.1957  0.2031
31092SOL    HW299369   9.402   2.604   6.349 -1.8593  1.9714 -1.0612
31093SOL     OW99370   2.046   5.162   0.306 -0.0408 -0.1140  0.8235
31093SOL    HW199371   2.078   5.083   0.264  1.4400  1.0885 -0.4312
31093SOL    HW299372   2.036   5.225   0.234 -2.2577  0.5517  1.6173
31094SOL     OW99373   0.292   9.936   2.353  0.0759 -0.2727  0.1641
31094SOL    HW199374   0.226   9.934   2.284 -0.6123 -2.1298  0.8014
31094SOL    HW299375   0.263  10.006   2.411 -0.2268  0.2421 -0.5948
31095SOL     OW99376   4.731   8.462   0.778 -0.1753 -0.5618 -0.0597
31095SOL    HW199377   4.733   8.503   0.864 -1.2333 -0.3815 -0.1132
31095SOL    HW299378   4.638   8.449   0.759  0.0809 -1.7779 -0.6138
31096SOL     OW99379   9.478   2.813   3.158 -0.3399 -0.0471  0.3009
31096SOL    HW199380   9.532   2.768   3.092  1.8137  1.8221  0.6472
31096SOL    HW299381   9.389   2.808   3.123  0.2758 -1.6853 -1.2495
31097SOL     OW99382   3.047   8.264   6.493 -0.0995  0.4626 -0.0859
31097SOL    HW199383   2.990   8.227   6.561  0.9177 -0.1663  0.4507
31097SOL    HW299384   3.003   8.243   6.411 -0.8269  0.3182  0.3283
31098SOL     OW99385   3.338   6.433  10.015 -0.1042 -0.2547  0.6348
31098SOL    HW199386   3.279   6.491   9.966 -0.3162 -0.3928  0.7261
31098SOL    HW299387   3.279   6.371  10.058  0.1849 -1.5852 -0.7921
31099SOL     OW99388   8.876   1.472   5.041 -0.0907  0.6444 -0.2030
31099SOL    HW199389   8.786   1.440   5.033 -0.1570  0.7658  0.0601
31099SOL    HW299390   8.883   1.503   5.131  0.0872  1.0236 -0.3442
31100SOL     OW99391   8.776   0.874   1.255  0.6177 -0.2414  0.4747
31100SOL    HW199392   8.847   0.814   1.279  1.0334  0.2375  0.4409
31100SOL    HW299393   8.701   0.816   1.239  0.7355 -0.6833  1.4446
31101SOL     OW99394   1.294   3.150   7.006 -0.0808  0.3088  0.2713
31101SOL    HW199395   1.263   3.062   6.983 -0.7279  0.5202  0.3160
31101SOL    HW299396   1.389   3.145   6.996  0.1696 -1.0793  2.4980
31102SOL     OW99397   0.273   5.103   7.996  0.4674 -0.9635 -0.4468
31102SOL    HW199398   0.196   5.152   7.965 -0.3134 -1.8688 -0.0101
31102SOL    HW299399   0.286   5.035   7.930  0.0615 -1.6264  0.1367
31103SOL     OW99400   2.981   0.441  10.207 -0.0345  0.3915  0.1087
31103SOL    HW199401   2.898   0.442  10.161 -0.9901 -1.7571  1.5829
31103SOL    HW299402   3.046   0.462  10.141 -1.6453  1.0466 -1.3298
31104SOL     OW99403   4.675   7.078   4.089 -0.9845 -0.5073  0.7657
31104SOL    HW199404   4.698   7.143   4.155  1.5243  0.2692 -0.7542
31104SOL    HW299405   4.738   7.007   4.102 -1.0174 -0.7317 -0.2257
31105SOL     OW99406   1.865   0.758   7.078  0.2722  0.3152  0.1475
31105SOL    HW199407   1.780   0.801   7.087  0.7131  1.0035  1.2367
31105SOL    HW299408   1.848   0.682   7.023 -1.1543  0.1811  0.7365
31106SOL     OW99409   7.972   0.004   6.129 -0.0658  0.1510  0.3989
31106SOL    HW199410   7.879   0.023   6.143 -0.2175 -0.3964  0.1392
31106SOL    HW299411   8.012   0.091   6.121 -0.9483  0.4313 -1.9794
31107SOL     OW99412   9.787   3.211   9.612  0.1463 -0.2547  0.1556
31107SOL    HW199413   9.850   3.282   9.616  0.7272 -0.7992  1.2660
31107SOL    HW299414   9.731   3.232   9.537  2.6054 -0.6000 -1.8886
31108SOL     OW99415   4.469  10.551   9.189 -0.2234 -0.4661  0.4850
31108SOL    HW199416   4.559  10.519   9.198  0.4892  1.2468 -0.0838
31108SOL    HW299417   4.469  10.634   9.237 -1.3407 -0.1682 -0.0126
31109SOL     OW99418   7.672   3.087   3.246  0.0848  0.4619  0.1115
31109SOL    HW199419   7.745   3.031   3.272 -0.8867 -0.5030  0.8396
31109SOL    HW299420   7.704   3.176   3.260 -0.0653  0.0873  4.0857
31110SOL     OW99421   8.712   7.456   9.575 -0.2498  0.0455 -0.0562
31110SOL    HW199422   8.658   7.486   9.502  0.6951  2.1878  0.0509
31110SOL    HW299423   8.649   7.425   9.640 -1.2778  0.9210 -0.5951
31111SOL     OW99424  10.108   8.380   3.666  0.6072  0.1885 -0.3759
31111SOL    HW199425  10.123   8.352   3.756 -0.2826 -0.3708 -0.3912
31111SOL    HW299426  10.105   8.298   3.616 -0.4295  0.4026 -0.6759
31112SOL     OW99427   2.938   3.388   9.406  0.5614 -0.6502  0.7011
31112SOL    HW199428   2.898   3.330   9.341  0.1524 -0.3842  0.7076
31112SOL    HW299429   2.956   3.469   9.358  0.4250 -0.5167  0.8712
31113SOL     OW99430   0.166   2.678   7.051 -0.1883 -0.1514  0.1338
31113SOL    HW199431   0.184   2.746   7.116 -1.5879 -0.4934  0.9214
31113SOL    HW299432   0.184   2.596   7.097 -0.1205 -0.3666 -0.2744
31114SOL     OW99433   2.348   5.226   7.208 -0.2182 -0.5106 -0.3767
31114SOL    HW199434   2.423   5.239   7.150  0.5751 -0.2244  0.6722
31114SOL    HW299435   2.273   5.258   7.158  0.3699 -0.7133 -1.4148
31115SOL     OW99436   9.995   6.435   1.966 -0.5560  0.2413  0.4201
31115SOL    HW199437   9.997   6.524   1.930 -2.4739  0.5182  0.8860
31115SOL    HW299438   9.951   6.383   1.899  0.8440 -0.4559  0.0127
31116SOL     OW99439   7.408   8.770   7.739  0.3251 -0.2779 -0.0814
31116SOL    HW199440   7.391   8.678   7.757  2.9975 -0.7317  0.4547
31116SOL    HW299441   7.388   8.815   7.821 -1.4222 -0.2698 -0.4775
31117SOL     OW99442   2.152   5.340   8.820  0.5382  0.0348 -0.2744
31117SOL    HW199443   2.105   5.284   8.882  1.4999 -0.2589  0.2061
31117SOL    HW299444   2.085   5.366   8.756 -0.0824 -1.0826 -0.1105
31118SOL     OW99445   6.895   1.126   6.131 -0.5721 -0.2796  0.1058
31118SOL    HW199446   6.938   1.062   6.074 -1.9642  0.4707 -1.8932
31118SOL    HW299447   6.823   1.077   6.171  0.2835 -0.7516  1.1335
31119SOL     OW99448   0.188   2.822   0.679  0.1009 -0.2763 -0.2238
31119SOL    HW199449   0.143   2.889   0.730  0.2132  0.4725 -1.0978
31119SOL    HW299450   0.281   2.844   0.686  0.3174 -1.4010  0.9720
31120SOL     OW99451   5.976   2.136   9.897  0.0130 -0.3718 -0.1007
31120SOL    HW199452   6.030   2.212   9.920  0.7598 -1.0949  0.5744
31120SOL    HW299453   5.886   2.166   9.911  0.2275  0.7646 -0.9903
31121SOL     OW99454   1.189  10.638   3.270 -0.1968  0.1434  1.0739
31121SOL    HW199455   1.101  10.612   3.245 -0.5549 -1.1011  3.3481
31121SOL    HW299456   1.244  10.562   3.248 -0.0712  0.0975  1.5252
31122SOL     OW99457   4.943   5.200   5.494  0.5141 -0.6518 -0.1837
31122SOL    HW199458   4.966   5.277   5.546 -1.5727  0.4242 -0.7608
31122SOL    HW299459   5.028   5.160   5.473  1.5978  0.8552  1.0443
31123SOL     OW99460   3.411   8.528  10.288  0.0783 -0.0180 -0.4086
31123SOL    HW199461   3.382   8.581  10.214  0.0208  1.1555  0.4270
31123SOL    HW299462   3.494   8.567  10.315 -1.3327  1.6117  2.0377
31124SOL     OW99463   2.689   1.986   1.205 -0.2889 -0.3063 -0.1821
31124SOL    HW199464   2.611   2.040   1.203  0.3306  0.7665  1.8223
31124SOL    HW299465   2.695   1.955   1.296  0.7230 -1.7117 -0.6908
31125SOL     OW99466   9.857   5.900   9.631  0.2893 -0.0328  0.4135
31125SOL    HW199467   9.834   5.857   9.549  0.8581 -1.2387  0.8499
31125SOL    HW299468   9.953   5.894   9.635  0.3233  0.6822  0.8083
31126SOL     OW99469   4.700   7.667   3.292  0.4116  0.5875 -0.1069
31126SOL    HW199470   4.692   7.573   3.277  1.8774  0.4244 -0.0689
31126SOL    HW299471   4.775   7.693   3.239  0.9569  1.4463  1.0409
31127SOL     OW99472   0.790   6.354   7.479 -0.0276 -0.2059  0.0047
31127SOL    HW199473   0.717   6.337   7.539  0.2173  1.0194  0.6674
31127SOL    HW299474   0.836   6.270   7.474 -1.0504 -0.7963  0.1536
31128SOL     OW99475   8.599   9.061   0.095  0.2161 -0.3248 -0.4833
31128SOL    HW199476   8.517   9.085   0.052 -2.4393 -3.3430  2.3490
31128SOL    HW299477   8.609   9.126   0.165 -0.0434 -0.2845 -0.4841
31129SOL     OW99478   3.472   7.956   6.787  0.0039 -0.0781  0.5039
31129SOL    HW199479   3.447   7.932   6.698 -0.8820 -0.1542  0.7635
31129SOL    HW299480   3.505   7.874   6.825  1.6633  0.2414 -0.1554
31130SOL     OW99481  10.186   9.534   0.940  0.4498  0.1362  0.4668
31130SOL    HW199482  10.156   9.522   0.849 -0.7665  1.6905  0.6093
31130SOL    HW299483  10.141   9.614   0.969  0.4916 -0.5596  2.5837
31131SOL     OW99484   1.619   7.520   3.225 -0.4175 -0.1364 -0.0458
31131SOL    HW199485   1.557   7.593   3.222  0.8367  0.9592 -0.5445
31131SOL    HW299486   1.691   7.548   3.168  2.3253  0.3552  3.3668
31132SOL     OW99487   7.294   3.694   7.696 -0.1743  0.2378 -0.5893
31132SOL    HW199488   7.294   3.691   7.792  0.8114  2.7886 -0.4276
31132SOL    HW299489   7.212   3.650   7.671  0.0840 -1.4676  1.3263
31133SOL     OW99490  10.908   6.565  10.520 -0.8672  0.1282 -0.2081
31133SOL    HW199491  10.959   6.510  10.460  0.2207  0.6456  0.2060
31133SOL    HW299492  10.823   6.575  10.478 -1.6208 -3.0149  0.3450
31134SOL     OW99493   8.931   2.043   3.945  0.0251 -0.1200 -0.1048
31134SOL    HW199494   8.924   2.042   4.041 -2.7579  2.1052 -0.1572
31134SOL    HW299495   8.972   2.127   3.925  0.7944 -0.6722 -0.8831
31135SOL     OW99496   5.146   1.586   8.077  0.1933 -0.2590 -0.7117
31135SOL    HW199497   5.235   1.618   8.089  0.0263 -0.1726  0.3203
31135SOL    HW299498   5.157   1.492   8.062  0.4976 -0.1445 -1.2341
31136SOL     OW99499   0.989  10.688   7.563  0.0892  0.3229  0.1216
31136SOL    HW199500   1.036  10.627   7.506  1.5298 -0.0211  1.5893
31136SOL    HW299501   1.058  10.735   7.609 -1.0264  1.3232  0.8143
31137SOL     OW99502   6.388   6.599   4.138  0.0062 -0.3996 -0.1004
31137SOL    HW199503   6.344   6.663   4.082  0.5573 -0.4992 -0.6695
31137SOL    HW299504   6.326   6.579   4.207 -0.9485 -0.7515 -1.0372
31138SOL     OW99505   7.148   9.276   7.910 -0.0784  0.0122  0.4375
31138SOL    HW199506   7.156   9.186   7.877  0.8038 -0.1212  0.9566
31138SOL    HW299507   7.203   9.277   7.989 -0.5262  0.8612  0.7549
31139SOL     OW99508   8.572   1.526   2.095 -0.0400 -0.0874 -0.1063
31139SOL    HW199509   8.626   1.483   2.161  0.9271  1.2461  0.0097
31139SOL    HW299510   8.631   1.545   2.023 -0.6759  0.0968 -0.5926
31140SOL     OW99511   9.916   2.740   5.509 -0.7417 -0.4437  0.4175
31140SOL    HW199512   9.822   2.743   5.526 -0.3662 -0.8324  2.9723
31140SOL    HW299513   9.947   2.665   5.560  0.7268 -1.5775 -1.9223
31141SOL     OW99514   2.588   9.306   4.674  0.4500 -0.4481 -0.4293
31141SOL    HW199515   2.575   9.216   4.646  0.5894 -1.4862  2.4533
31141SOL    HW299516   2.676   9.329   4.643  0.5821 -1.4443 -0.8125
31142SOL     OW99517   5.600   8.721   6.743 -0.4367  0.3824 -0.4698
31142SOL    HW199518   5.645   8.793   6.699 -1.7326  1.2532 -0.4232
31142SOL    HW299519   5.525   8.702   6.687 -0.8903  0.0158  0.2477
31143SOL     OW99520  10.093   9.983   7.120 -0.5160 -0.3282 -0.2686
31143SOL    HW199521  10.063   9.931   7.195  0.2952 -0.4231  0.0074
31143SOL    HW299522  10.019  10.038   7.097 -1.4568 -1.7238 -0.6687
31144SOL     OW99523   8.538   0.229   9.457  0.1934  0.8730 -0.9196
31144SOL    HW199524   8.555   0.177   9.378 -1.0914 -0.4666 -0.3648
31144SOL    HW299525   8.468   0.289   9.432 -0.3748  0.2910 -0.7583
31145SOL     OW99526   9.985   7.470   5.411  0.2638 -0.3273  0.2925
31145SOL    HW199527   9.909   7.520   5.439 -0.3604 -0.4347 -1.1588
31145SOL    HW299528   9.950   7.384   5.386  1.1424 -1.0815  1.4984
31146SOL     OW99529   7.652   0.605   5.043  0.1378  0.4053 -0.0432
31146SOL    HW199530   7.640   0.553   5.122 -0.0873  2.1605  1.1560
31146SOL    HW299531   7.708   0.552   4.987  0.4237 -0.8363  1.3547
31147SOL     OW99532   3.896   6.764   0.614  0.6981 -0.1325  0.3545
31147SOL    HW199533   3.802   6.779   0.619  0.4404 -1.1835 -0.8869
31147SOL    HW299534   3.920   6.789   0.525  1.3829 -0.9673  0.2898
31148SOL     OW99535   6.791   1.599   3.566 -0.7154 -0.2033  0.6153
31148SOL    HW199536   6.722   1.665   3.556 -0.7257 -0.1671  0.9344
31148SOL    HW299537   6.824   1.586   3.477 -0.2758  0.7086  0.6316
31149SOL     OW99538   9.337   8.027   0.445 -0.0661 -0.0754  0.3259
31149SOL    HW199539   9.259   8.080   0.462  1.0403  1.2181  1.6076
31149SOL    HW299540   9.354   7.983   0.528  1.4551  0.8982  0.5696
31150SOL     OW99541   6.877   3.097   2.343  0.1531 -0.3784 -0.3243
31150SOL    HW199542   6.955   3.043   2.336  0.5428  0.0327  0.6187
31150SOL    HW299543   6.815   3.043   2.391 -0.2176 -0.7656 -1.2111
31151SOL     OW99544   4.853   2.499   2.359  0.3027  0.3072 -0.2347
31151SOL    HW199545   4.800   2.567   2.401 -1.0950 -0.1866 -1.1421
31151SOL    HW299546   4.917   2.474   2.426  2.5420  4.2006 -0.6473
31152SOL     OW99547   9.824   9.667   0.762  0.3900  0.0622  0.1853
31152SOL    HW199548   9.761   9.667   0.833 -0.0843 -1.1855 -0.2057
31152SOL    HW299549   9.800   9.591   0.708 -0.1035  1.6838 -2.0509
31153SOL     OW99550   3.500   9.306   0.219 -0.6004 -0.0321 -0.4409
31153SOL    HW199551   3.515   9.242   0.149  0.0703 -0.3244 -0.0359
31153SOL    HW299552   3.571   9.369   0.209 -0.7808  0.1900 -0.3221
31154SOL     OW99553   2.885  10.412   5.238  0.1915 -0.4722 -0.2917
31154SOL    HW199554   2.802  10.369   5.257  0.1319  0.3276  1.5473
31154SOL    HW299555   2.883  10.430   5.144 -1.6696 -0.5612 -0.2977
31155SOL     OW99556   9.629   4.170   7.978  0.2361  0.0122 -0.0520
31155SOL    HW199557   9.594   4.250   7.940 -2.6839 -0.8368  0.5527
31155SOL    HW299558   9.584   4.099   7.931  0.4824 -1.1699  1.3980
31156SOL     OW99559   8.849  10.874   4.949 -0.6846  0.0802  0.0414
31156SOL    HW199560   8.763  10.833   4.950 -0.9522  0.5835 -1.2650
31156SOL    HW299561   8.879  10.867   4.858  0.0797  1.0927  0.1933
31157SOL     OW99562   4.931   9.432   7.270 -0.4074  0.3618 -0.1435
31157SOL    HW199563   4.907   9.470   7.185  1.5776  1.1243 -0.4166
31157SOL    HW299564   4.990   9.497   7.309 -1.1674 -0.0421  1.7826
31158SOL     OW99565   6.903  10.554   8.612 -0.1231  0.1546 -0.3505
31158SOL    HW199566   6.925  10.473   8.657  1.5407  1.5348  1.5118
31158SOL    HW299567   6.985  10.604   8.610 -1.1223  1.8625 -1.2633
31159SOL     OW99568   4.411   6.599   2.270 -0.5476 -0.3523 -0.4420
31159SOL    HW199569   4.484   6.542   2.247  1.1935  1.5511  0.0409
31159SOL    HW299570   4.405   6.662   2.198 -1.4014 -0.1781 -0.2357
31160SOL     OW99571   7.299   4.881   9.192 -0.0105 -0.0739 -0.4771
31160SOL    HW199572   7.224   4.926   9.152 -0.6731  0.0975  0.9234
31160SOL    HW299573   7.298   4.794   9.153 -0.6794  0.0667 -0.7872
31161SOL     OW99574   3.217   5.346   1.397  0.3079 -0.9827 -0.0937
31161SOL    HW199575   3.173   5.360   1.314  0.5395  2.4009  0.2225
31161SOL    HW299576   3.301   5.391   1.388  0.6597 -1.1911  1.6842
31162SOL     OW99577   3.113   4.005  10.058  0.0719 -0.1895 -0.1817
31162SOL    HW199578   3.128   3.917  10.025  1.0621 -1.1030  2.4621
31162SOL    HW299579   3.039   3.997  10.118 -1.2451  1.2707 -1.5023
31163SOL     OW99580   4.321   8.184   5.352  0.2901  0.4072 -0.0058
31163SOL    HW199581   4.391   8.233   5.309 -0.0198  0.4229 -0.5103
31163SOL    HW299582   4.306   8.229   5.435 -0.3996  1.5487 -0.7239
31164SOL     OW99583   6.938   3.894   1.064  0.2356 -0.3513 -0.2388
31164SOL    HW199584   6.886   3.828   1.018  1.5504 -1.6373  0.0442
31164SOL    HW299585   7.017   3.848   1.092 -0.2025  0.5049  2.8041
31165SOL     OW99586   3.033   2.103   8.926 -0.0073  0.1797  0.1745
31165SOL    HW199587   3.061   2.170   8.863 -0.3605  0.8318  0.6885
31165SOL    HW299588   2.940   2.090   8.906  0.2658 -0.8204 -0.5014
31166SOL     OW99589   5.842   4.619   5.693  0.3982  0.5993 -0.7760
31166SOL    HW199590   5.853   4.620   5.788 -0.9836 -0.1339 -0.5781
31166SOL    HW299591   5.901   4.687   5.661  0.8280  0.9100  0.6061
31167SOL     OW99592   7.160   4.010   3.271  0.0133 -0.1943  0.0221
31167SOL    HW199593   7.156   3.915   3.275 -1.3853 -0.1239  2.0185
31167SOL    HW299594   7.239   4.033   3.320  0.8853 -0.3318 -1.2909
31168SOL     OW99595   7.139   0.719   2.564  0.3010  0.0378 -0.1213
31168SOL    HW199596   7.136   0.785   2.494  0.4112 -0.7444 -0.8781
31168SOL    HW299597   7.230   0.720   2.594  0.5511 -0.4891 -0.8433
31169SOL     OW99598   8.887   1.468   7.343 -0.1749 -0.0968 -0.5826
31169SOL    HW199599   8.956   1.401   7.341 -0.2467 -0.1797 -0.3053
31169SOL    HW299600   8.872   1.490   7.251 -0.0173 -0.3251 -0.6626
31170SOL     OW99601   0.654   3.715   1.075 -0.7074  0.0730 -0.3922
31170SOL    HW199602   0.616   3.801   1.055  1.0810  1.0797  0.3033
31170SOL    HW299603   0.706   3.694   0.997  0.5093  0.6195  0.2512
31171SOL     OW99604  10.700   9.746   4.067  0.2064  0.0960  0.5221
31171SOL    HW199605  10.688   9.655   4.095 -0.8108 -0.1191 -0.5427
31171SOL    HW299606  10.680   9.745   3.974  1.6840  1.1353  0.1518
31172SOL     OW99607   1.283   4.272   9.457 -0.2683 -0.2990  0.3126
31172SOL    HW199608   1.219   4.221   9.407  2.4078 -3.0149 -0.6463
31172SOL    HW299609   1.241   4.286   9.541 -3.3176  0.8437 -1.2554
31173SOL     OW99610   5.038   7.147  10.881  0.5217 -0.2742 -0.5422
31173SOL    HW199611   5.040   7.066  10.829 -2.2201 -0.0797 -1.1068
31173SOL    HW299612   4.994   7.211  10.825 -0.9002  0.4614  1.2974
31174SOL     OW99613  10.401   9.221   8.161 -0.8230 -0.7359  0.3094
31174SOL    HW199614  10.488   9.237   8.197 -0.5789 -0.2095 -0.4874
31174SOL    HW299615  10.353   9.302   8.176 -1.1878 -1.0288  0.7551
31175SOL     OW99616   4.083   7.423   8.866  0.0196  0.0258  0.1160
31175SOL    HW199617   4.126   7.377   8.938 -1.6348  0.9338  1.7523
31175SOL    HW299618   4.028   7.489   8.908 -0.1946  1.3385 -2.0302
31176SOL     OW99619  10.825   1.313   8.108  0.1669 -0.2054  0.1337
31176SOL    HW199620  10.822   1.242   8.045 -2.3687  1.0110 -1.2558
31176SOL    HW299621  10.747   1.300   8.162 -0.4239  1.5524 -0.2486
31177SOL     OW99622   6.929   4.389   0.226  0.0802  0.2098  0.6383
31177SOL    HW199623   6.933   4.481   0.200 -0.1285  0.1753  0.4902
31177SOL    HW299624   6.891   4.344   0.151  0.1652  0.0034  0.7177
31178SOL     OW99625   5.767   3.964   2.375  0.0598  0.2454 -0.4851
31178SOL    HW199626   5.720   4.027   2.320  2.1571  0.9551 -1.5680
31178SOL    HW299627   5.842   4.013   2.409 -0.4181 -0.5740  1.9705
31179SOL     OW99628   8.590   6.977  10.373  0.3956  0.0115 -0.2174
31179SOL    HW199629   8.631   6.929  10.301 -0.4816  0.4880 -1.0510
31179SOL    HW299630   8.585   7.067  10.342 -1.8271 -0.1287 -0.4262
31180SOL     OW99631   1.348   1.660   2.724 -0.2854 -0.2443 -0.0825
31180SOL    HW199632   1.269   1.670   2.777 -0.5621 -0.8723 -0.3688
31180SOL    HW299633   1.390   1.746   2.727 -0.8834  0.0408  0.2249
31181SOL     OW99634   5.807   3.946   0.029  0.0762 -0.4360 -0.4566
31181SOL    HW199635   5.836   3.893  -0.046  1.2489 -0.0505 -0.2932
31181SOL    HW299636   5.814   4.036  -0.001 -0.9241 -0.3186 -0.3773
31182SOL     OW99637   7.504  10.718   7.752  0.8820 -0.3420  0.2877
31182SOL    HW199638   7.422  10.689   7.712  1.5014  0.4084 -1.6918
31182SOL    HW299639   7.494  10.812   7.762  0.8620 -0.4824  1.6875
31183SOL     OW99640   4.683   0.101   7.706 -0.1590 -0.3467 -0.3002
31183SOL    HW199641   4.752   0.160   7.676 -0.9855  0.8548  0.0753
31183SOL    HW299642   4.649   0.060   7.626  0.6083 -0.5284 -0.5362
31184SOL     OW99643   2.601   0.841   4.002 -0.6849  0.6201 -0.2521
31184SOL    HW199644   2.614   0.925   4.047 -0.9593 -0.0122  1.0587
31184SOL    HW299645   2.512   0.845   3.969 -1.1558  0.3636  0.9322
31185SOL     OW99646   6.088   8.573   6.310  0.3995  0.4100  0.4783
31185SOL    HW199647   6.051   8.575   6.222  0.5189 -0.8507  0.3707
31185SOL    HW299648   6.158   8.508   6.305  0.3872  0.2990  1.5086
31186SOL     OW99649   1.075   7.212   0.889 -0.0144 -0.2919  0.5912
31186SOL    HW199650   1.152   7.171   0.850  0.1804 -0.5862  1.2725
31186SOL    HW299651   1.006   7.146   0.881  0.4011 -0.9486  2.0536
31187SOL     OW99652   3.652   8.451   1.964  0.0796  0.1721  0.4370
31187SOL    HW199653   3.745   8.457   1.987  0.1755  1.2110 -0.1930
31187SOL    HW299654   3.645   8.371   1.913  0.0033 -1.8232  3.2987
31188SOL     OW99655   2.993   1.306   8.524  0.1870 -0.3905 -0.6831
31188SOL    HW199656   2.976   1.398   8.546  0.5459  0.1054 -2.3329
31188SOL    HW299657   2.926   1.257   8.572  0.3418  0.6594  0.6816
31189SOL     OW99658   8.314   0.027   1.794 -0.3339 -0.0737 -0.4754
31189SOL    HW199659   8.269  -0.016   1.866  0.4127 -1.5101 -0.8062
31189SOL    HW299660   8.245   0.070   1.744 -1.2101 -1.2810 -0.3534
31190SOL     OW99661   9.415   1.931   7.539  0.3477  0.1284  0.3401
31190SOL    HW199662   9.379   1.895   7.620  2.3704 -1.0059  0.8100
31190SOL    HW299663   9.342   1.927   7.477 -0.8962 -0.1463  1.7565
31191SOL     OW99664   4.837   9.931   4.777  0.4631 -0.0003 -0.3539
31191SOL    HW199665   4.803   9.998   4.837  1.2155 -0.4715  0.6153
31191SOL    HW299666   4.895   9.980   4.718  1.2628  0.1761  0.5497
31192SOL     OW99667   3.332   3.845   9.301 -0.2205  0.5828 -0.2512
31192SOL    HW199668   3.242   3.844   9.333 -0.3601 -1.8910 -0.5431
31192SOL    HW299669   3.329   3.899   9.222 -1.1968  1.4574  0.3680
31193SOL     OW99670   2.366   9.838  10.562  0.5332 -0.0961  0.3400
31193SOL    HW199671   2.429   9.781  10.517  1.8816  2.6156 -1.5353
31193SOL    HW299672   2.417   9.878  10.633  0.6145  1.1853 -0.4158
31194SOL     OW99673   8.974   5.859   0.651 -0.2861  0.0792  0.3080
31194SOL    HW199674   8.999   5.840   0.742  2.1563  0.8111 -0.1269
31194SOL    HW299675   9.029   5.801   0.598 -0.1062  1.1353 -0.7230
31195SOL     OW99676   6.380   6.319   3.982  0.4221  0.3743  0.3386
31195SOL    HW199677   6.453   6.322   3.920 -0.3367 -0.6012 -0.6562
31195SOL    HW299678   6.402   6.385   4.048  2.8122 -0.7597  0.7857
31196SOL     OW99679   7.208   9.820   2.940  0.0444  0.3292  0.5779
31196SOL    HW199680   7.118   9.852   2.946  0.2697  1.0152  0.3562
31196SOL    HW299681   7.225   9.817   2.845 -0.5056 -1.9732  0.4829
31197SOL     OW99682  10.495   7.824   7.028 -0.0134  0.2290  0.8794
31197SOL    HW199683  10.464   7.913   7.013  0.3786  0.7531  2.9166
31197SOL    HW299684  10.474   7.777   6.947 -2.6503  1.4953  0.7229
31198SOL     OW99685   4.936   0.112   8.938 -0.1486 -0.5598  0.5348
31198SOL    HW199686   4.943   0.031   8.988 -1.7777 -0.4292  1.0511
31198SOL    HW299687   5.019   0.157   8.952 -0.8106 -0.1085  3.9302
31199SOL     OW99688   8.547   9.650   9.806  0.7324  0.5969  0.1497
31199SOL    HW199689   8.632   9.626   9.843  1.0816  0.4785 -0.7013
31199SOL    HW299690   8.528   9.736   9.845 -0.5010 -0.9041  3.1492
31200SOL     OW99691   9.193   8.245   6.483 -0.2688 -0.1707  0.1926
31200SOL    HW199692   9.225   8.176   6.541 -0.0623  0.0203  0.3099
31200SOL    HW299693   9.267   8.306   6.476 -0.3660 -0.0863 -0.1035
31201SOL     OW99694   2.766   6.015   9.045  0.3361  0.2122 -0.0496
31201SOL    HW199695   2.851   5.983   9.076 -0.0664  0.5117  1.4602
31201SOL    HW299696   2.705   5.944   9.065 -0.1463  0.9104  1.0785
31202SOL     OW99697   6.740   8.393   4.079  0.6066  0.1135  0.1079
31202SOL    HW199698   6.712   8.316   4.129 -0.1459 -0.1393 -0.6850
31202SOL    HW299699   6.822   8.366   4.037  1.0237  0.1871  0.8556
31203SOL     OW99700   5.046   8.096   9.859  0.7842  0.0040  0.4457
31203SOL    HW199701   4.965   8.110   9.910 -0.1420  1.1994 -1.2598
31203SOL    HW299702   5.110   8.154   9.900  0.0505  0.9563  0.2769
31204SOL     OW99703   9.193   0.276   4.519 -0.2748  0.0710  0.6221
31204SOL    HW199704   9.250   0.311   4.587 -0.3499  0.5882  0.4282
31204SOL    HW299705   9.172   0.352   4.464  0.8809 -0.5771 -0.7880
31205SOL     OW99706   1.690   4.917   9.215 -0.3506 -0.6080  0.1161
31205SOL    HW199707   1.765   4.950   9.264  0.5214 -1.6205 -0.5089
31205SOL    HW299708   1.618   4.977   9.239  0.1018 -0.8801  2.3727
31206SOL     OW99709   2.987   8.698   8.650 -0.0344  0.2010  0.2128
31206SOL    HW199710   3.054   8.707   8.581 -0.5230 -0.6313 -0.3905
31206SOL    HW299711   2.942   8.616   8.629 -0.0305 -0.2058  1.6751
31207SOL     OW99712   7.335   0.693   9.557  0.4860  0.5883  0.2831
31207SOL    HW199713   7.306   0.604   9.576  0.1370  0.5156 -0.5443
31207SOL    HW299714   7.285   0.748   9.616 -0.1507  0.3292 -0.0098
31208SOL     OW99715   4.899   7.406   2.931 -0.0958  0.2151  0.1496
31208SOL    HW199716   4.841   7.330   2.939  0.5662 -0.2863  0.2372
31208SOL    HW299717   4.841   7.477   2.901 -0.4954 -0.6200 -1.1087
31209SOL     OW99718   7.996   9.553   5.403  0.1257 -0.4016  0.5776
31209SOL    HW199719   7.920   9.603   5.373 -0.3094 -1.0345  0.5934
31209SOL    HW299720   8.002   9.572   5.496  0.6862  0.5429  0.3618
31210SOL     OW99721   4.952   2.119   1.822 -0.2820  0.4182 -0.2074
31210SOL    HW199722   4.951   2.044   1.763  2.2222 -0.4542  0.6785
31210SOL    HW299723   4.992   2.190   1.772  2.4950 -0.5209  0.5011
31211SOL     OW99724   7.905   9.901   9.428  0.5823  0.2466 -0.0762
31211SOL    HW199725   7.926   9.880   9.337  2.3572  0.2739  0.2955
31211SOL    HW299726   7.908   9.817   9.474  0.2616  0.3134  0.0726
31212SOL     OW99727   7.522   2.708   6.091  0.3588 -0.2658 -0.4040
31212SOL    HW199728   7.579   2.635   6.114 -1.2332 -1.8698 -1.3078
31212SOL    HW299729   7.580   2.785   6.094  1.9739 -1.4457  1.0597
31213SOL     OW99730  10.923   8.706   4.746 -0.0728  0.3248  0.0248
31213SOL    HW199731  10.882   8.657   4.818  0.4823  0.4939  0.4676
31213SOL    HW299732  10.861   8.777   4.727  0.1957  0.8468  0.9956
31214SOL     OW99733   3.314   0.329   0.941 -0.3962 -0.4875 -0.7143
31214SOL    HW199734   3.280   0.261   0.883  1.9487 -1.3834 -1.1746
31214SOL    HW299735   3.408   0.330   0.923 -0.1297  1.7755  0.4724
31215SOL     OW99736   8.150   9.029  10.472 -0.1498 -0.2613 -0.1021
31215SOL    HW199737   8.201   9.109  10.482  0.3403 -0.5308 -0.4107
31215SOL    HW299738   8.059   9.057  10.481 -0.1824  0.7669 -2.7185
31216SOL     OW99739   4.186   8.786   4.165  0.7071 -0.8211  0.0255
31216SOL    HW199740   4.161   8.807   4.074 -0.1718 -1.9713 -0.0149
31216SOL    HW299741   4.129   8.713   4.189  0.8382 -0.4415  1.5638
31217SOL     OW99742   0.945   4.206   4.546  0.3321  0.5455  0.1559
31217SOL    HW199743   1.035   4.176   4.537 -0.5331 -1.9961 -0.9870
31217SOL    HW299744   0.928   4.205   4.640  0.6189 -1.9994  0.2432
31218SOL     OW99745   9.256   3.421   6.979 -0.5572  0.0893  0.0735
31218SOL    HW199746   9.253   3.334   6.941 -1.0699 -0.0034  0.3083
31218SOL    HW299747   9.174   3.462   6.951  0.2653  0.9718 -1.1378
31219SOL     OW99748   9.773   7.662  10.482 -0.9700 -0.1274  0.5356
31219SOL    HW199749   9.822   7.732  10.525 -1.5277  1.0023 -0.5939
31219SOL    HW299750   9.805   7.662  10.391 -2.1481 -0.1978  0.0985
31220SOL     OW99751   6.013   7.721   7.729 -0.0180  0.3399  0.0475
31220SOL    HW199752   6.021   7.636   7.684 -1.4359  0.2309 -0.0386
31220SOL    HW299753   5.974   7.779   7.663 -0.5320  0.6369  0.6135
31221SOL     OW99754   2.105   5.487   2.526 -0.1215 -0.2801 -0.4085
31221SOL    HW199755   2.143   5.421   2.467 -1.6022 -1.8119  0.2729
31221SOL    HW299756   2.081   5.437   2.604 -2.5282  0.8041 -0.4009
31222SOL     OW99757   3.144   4.634   4.561 -0.4513 -0.0781 -0.0330
31222SOL    HW199758   3.168   4.664   4.648 -0.5092 -0.5970  0.1679
31222SOL    HW299759   3.199   4.685   4.501  1.2318 -1.2990  0.4164
31223SOL     OW99760   6.513   1.310   7.563 -0.0485 -0.0365 -0.4327
31223SOL    HW199761   6.609   1.306   7.560 -0.0496 -1.3571  0.6760
31223SOL    HW299762   6.484   1.261   7.487  0.1693 -1.1775  0.1943
31224SOL     OW99763   0.865   7.500   2.495 -0.0740 -0.2784 -0.1817
31224SOL    HW199764   0.793   7.539   2.545 -0.5575  0.0961 -1.1454
31224SOL    HW299765   0.882   7.417   2.539 -0.6364 -0.0627  0.4688
31225SOL     OW99766  10.766  10.552   4.237  0.3922  0.1922  0.0546
31225SOL    HW199767  10.725  10.564   4.151 -0.1126 -0.0359  0.2644
31225SOL    HW299768  10.693  10.543   4.298  0.7253 -1.6457  0.2460
31226SOL     OW99769   7.710   3.542   4.954  0.4043  0.4920 -0.0617
31226SOL    HW199770   7.722   3.509   4.865 -0.2950  1.5637 -0.5693
31226SOL    HW299771   7.717   3.637   4.946  1.4048  0.5633  1.2155
31227SOL     OW99772   5.701   0.820   6.251 -0.7341 -0.2477 -0.4645
31227SOL    HW199773   5.650   0.893   6.216 -1.3448 -0.0215  0.8135
31227SOL    HW299774   5.780   0.861   6.286 -0.9879 -0.2022  0.0772
31228SOL     OW99775   2.030   8.758   3.072 -0.2784 -0.3377 -0.2272
31228SOL    HW199776   2.113   8.737   3.115 -0.7615 -0.1646  0.8304
31228SOL    HW299777   2.038   8.722   2.984  1.5872  1.1316 -0.7197
31229SOL     OW99778   1.006   5.334   6.018 -0.3262 -0.6396  0.0715
31229SOL    HW199779   1.024   5.422   6.049 -2.0568 -0.3234  0.2640
31229SOL    HW299780   0.930   5.305   6.068 -1.4221 -1.2155 -1.7970
31230SOL     OW99781   6.623   9.604   9.250  0.0724  0.5046  0.1721
31230SOL    HW199782   6.529   9.588   9.239 -0.0586  1.3669 -0.0440
31230SOL    HW299783   6.633   9.623   9.344 -0.0961  1.1906  0.0538
31231SOL     OW99784   4.708   2.095   9.388 -0.2650  0.2160  0.0434
31231SOL    HW199785   4.694   2.096   9.294 -0.9520 -0.1240  0.1366
31231SOL    HW299786   4.620   2.088   9.426  0.0323 -0.1365  0.6948
31232SOL     OW99787   7.528   2.668   5.649  0.0161 -0.3505  0.1525
31232SOL    HW199788   7.507   2.614   5.573 -1.2562  0.3569 -0.0242
31232SOL    HW299789   7.604   2.720   5.621 -2.2558  2.1896 -1.8783
31233SOL     OW99790   1.860   1.148   5.824  0.0777  0.2906  0.3556
31233SOL    HW199791   1.897   1.235   5.813  0.5071  0.1015  0.2959
31233SOL    HW299792   1.866   1.131   5.918 -0.6587  0.6087  0.4690
31234SOL     OW99793   1.955   5.532  10.624 -0.0002  0.6178  0.0008
31234SOL    HW199794   1.880   5.541  10.683  0.4047  0.9564  0.4693
31234SOL    HW299795   1.996   5.449  10.649  0.8015  1.2813  0.9374
31235SOL     OW99796   4.694   1.951   1.567 -0.3815 -0.5399  0.2246
31235SOL    HW199797   4.728   1.930   1.481 -0.6952 -0.2107  0.0199
31235SOL    HW299798   4.676   1.865   1.607 -2.1352 -0.6919 -0.7946
31236SOL     OW99799   6.125   9.653   9.530 -0.0026  0.0298  0.1512
31236SOL    HW199800   6.125   9.652   9.434  0.3860 -0.1352  0.1538
31236SOL    HW299801   6.111   9.562   9.556  2.3823 -0.3696  0.2495
31237SOL     OW99802   8.288   8.906   7.797 -0.9909  0.7345 -0.1599
31237SOL    HW199803   8.198   8.919   7.825 -1.1415  0.7796 -0.6476
31237SOL    HW299804   8.338   8.973   7.845 -1.0447  0.0295  0.9168
31238SOL     OW99805   4.395   0.408   1.971  0.0587 -0.2085  1.3049
31238SOL    HW199806   4.403   0.502   1.988  1.8748 -0.4140  1.8275
31238SOL    HW299807   4.338   0.403   1.895  0.1586  1.3433  1.0821
31239SOL     OW99808   3.714   3.859   9.793  0.6942 -0.4778 -0.0431
31239SOL    HW199809   3.647   3.924   9.813  2.2780  1.3014 -0.1406
31239SOL    HW299810   3.729   3.812   9.875  0.1759 -0.0718  0.2867
31240SOL     OW99811   2.428   2.594   0.392 -0.7119  0.2613 -0.3540
31240SOL    HW199812   2.473   2.640   0.321 -1.9630 -0.0046 -1.3770
31240SOL    HW299813   2.354   2.651   0.413 -0.3342  0.3501  0.7843
31241SOL     OW99814   3.700   6.033   0.254 -0.1083 -0.0719  0.2759
31241SOL    HW199815   3.754   6.104   0.220  1.0173 -1.2551 -0.5295
31241SOL    HW299816   3.681   5.979   0.177  0.4233 -1.4909  1.1078
31242SOL     OW99817  10.319   7.060   0.756 -0.1960 -0.0616 -0.0441
31242SOL    HW199818  10.294   6.968   0.769 -0.3492 -0.2452 -1.5257
31242SOL    HW299819  10.387   7.076   0.822 -0.4481 -1.1116  0.4912
31243SOL     OW99820  10.613   3.149   6.500 -0.3869 -0.2710  0.2732
31243SOL    HW199821  10.586   3.172   6.589 -0.7435 -0.4078  0.1996
31243SOL    HW299822  10.643   3.058   6.506 -2.0703 -0.8783 -0.0910
31244SOL     OW99823   6.477   2.920   8.089 -0.4441 -0.3471  0.1601
31244SOL    HW199824   6.562   2.897   8.127 -1.3338 -1.6162  1.4929
31244SOL    HW299825   6.448   2.996   8.139 -0.9106 -1.0649  1.0133
31245SOL     OW99826   6.831   8.386   0.854  0.2182  0.2486  0.4980
31245SOL    HW199827   6.789   8.300   0.861 -0.1960  0.3514 -0.4886
31245SOL    HW299828   6.815   8.427   0.938  0.8873 -0.8440  1.1801
31246SOL     OW99829   0.865   0.681   6.030  0.3578  0.6656  0.1022
31246SOL    HW199830   0.852   0.769   6.064  0.2367  0.4924  0.5078
31246SOL    HW299831   0.836   0.623   6.100 -0.1724  0.3021 -0.4136
31247SOL     OW99832  10.552   7.182   8.668  0.3796 -0.0905  0.2658
31247SOL    HW199833  10.489   7.235   8.718 -1.0458 -1.0959 -0.4038
31247SOL    HW299834  10.527   7.196   8.577 -0.3698 -2.2540  0.0822
31248SOL     OW99835  10.925   2.708   2.712  0.4079  0.0807 -0.0538
31248SOL    HW199836  10.851   2.670   2.759  0.6158  0.1823  0.3576
31248SOL    HW299837  10.985   2.635   2.699 -0.3831 -0.3387 -1.6623
31249SOL     OW99838   5.832   0.060   3.356 -0.3161 -0.3720 -0.0362
31249SOL    HW199839   5.815   0.040   3.264  1.0741 -0.3799 -0.3164
31249SOL    HW299840   5.747   0.051   3.399 -0.8306 -1.1444 -1.1730
31250SOL     OW99841   4.013   4.946  10.532  0.1904  0.2030 -0.6526
31250SOL    HW199842   3.918   4.941  10.523 -0.2481  3.3304  0.7897
31250SOL    HW299843   4.047   4.893  10.461 -2.5682 -2.8694  0.0974
31251SOL     OW99844   5.300   7.390   0.379  0.1798 -0.2984 -0.3523
31251SOL    HW199845   5.239   7.369   0.308 -0.8209  1.0242  0.0737
31251SOL    HW299846   5.386   7.365   0.345 -0.2067  0.7533 -2.2540
31252SOL     OW99847   6.264   1.373   9.324  0.0473 -0.4966 -0.1289
31252SOL    HW199848   6.194   1.402   9.266  1.1816  2.2373 -0.2636
31252SOL    HW299849   6.329   1.334   9.265 -0.0325 -0.2838 -0.3604
31253SOL     OW99850   1.618   2.222   4.108 -0.0758 -0.1603  0.2091
31253SOL    HW199851   1.600   2.254   4.196  1.1050  1.6908 -0.1798
31253SOL    HW299852   1.706   2.184   4.115  0.1169  0.2047 -0.2128
31254SOL     OW99853   1.598   7.928   1.257  0.1796 -0.0948 -0.2113
31254SOL    HW199854   1.597   7.937   1.162 -0.3944 -2.3714 -0.4732
31254SOL    HW299855   1.691   7.936   1.281  0.3272  0.4748 -0.9395
31255SOL     OW99856   5.921   6.111   4.257 -0.1304 -0.1541 -0.0774
31255SOL    HW199857   5.881   6.160   4.185 -0.0207 -0.1188 -0.1140
31255SOL    HW299858   5.861   6.125   4.331  0.5193  1.0381  0.2447
31256SOL     OW99859  10.221   2.746  10.526  0.6817 -0.1138  0.6196
31256SOL    HW199860  10.199   2.833  10.557  4.6405  0.6828  1.7464
31256SOL    HW299861  10.172   2.687  10.584 -2.1969  1.1787 -0.2727
31257SOL     OW99862   6.092   3.439   2.741  0.3476  0.5011 -0.0530
31257SOL    HW199863   6.136   3.368   2.789  2.3920  1.3096 -0.6027
31257SOL    HW299864   6.164   3.494   2.710 -1.0957  1.8064 -1.2217
31258SOL     OW99865   7.471   0.549   8.539 -0.0014  0.4183  0.1039
31258SOL    HW199866   7.428   0.464   8.552 -3.0683  2.2035  3.5432
31258SOL    HW299867   7.529   0.559   8.614  2.5028  0.4200 -1.6699
31259SOL     OW99868   3.504   9.728   2.655  0.3954  0.1003 -0.0534
31259SOL    HW199869   3.577   9.672   2.631 -1.0858 -1.2275 -1.6776
31259SOL    HW299870   3.509   9.802   2.595  1.1815  0.7505  0.7764
31260SOL     OW99871   3.208   6.924   1.722  0.8013  0.3865 -0.3460
31260SOL    HW199872   3.139   6.875   1.768  0.4823  0.0381 -1.1749
31260SOL    HW299873   3.265   6.956   1.792 -0.5683  1.2531  0.4107
31261SOL     OW99874   8.324   1.808   8.726  0.3934  0.7265  0.2828
31261SOL    HW199875   8.245   1.786   8.775  1.1204  0.7088  1.4867
31261SOL    HW299876   8.302   1.889   8.680 -0.4159  0.5752  0.3916
31262SOL     OW99877   7.548  10.713   9.281 -0.5891 -0.3024 -0.0835
31262SOL    HW199878   7.599  10.756   9.349 -0.5067 -0.2736 -0.1643
31262SOL    HW299879   7.475  10.672   9.329 -1.3301  0.9091 -0.1419
31263SOL     OW99880   6.666   1.075   5.689  0.0765 -0.1260  0.2580
31263SOL    HW199881   6.624   0.992   5.668 -0.3120 -0.4416  2.0956
31263SOL    HW299882   6.702   1.106   5.606 -0.2204 -1.8717 -0.5587
31264SOL     OW99883   3.663   0.978  10.743  0.4321  0.5011 -0.0758
31264SOL    HW199884   3.650   0.999  10.651 -2.1416  2.0426  0.5536
31264SOL    HW299885   3.693   0.887  10.743 -1.9582 -0.4003 -2.3603
31265SOL     OW99886   2.270   7.678   5.080 -0.3774  0.3038  0.5123
31265SOL    HW199887   2.343   7.739   5.064 -0.3586 -0.0306 -0.7866
31265SOL    HW299888   2.310   7.591   5.073 -0.2673  0.0925  3.0301
31266SOL     OW99889   6.888  10.801   4.701 -0.4511 -0.2920  0.4708
31266SOL    HW199890   6.868  10.717   4.660  1.4551 -0.8471  0.5774
31266SOL    HW299891   6.828  10.807   4.775 -1.1255 -1.2053  0.0048
31267SOL     OW99892   9.920   0.388   3.253 -0.0047 -0.4145  1.0540
31267SOL    HW199893   9.928   0.293   3.245  0.6809 -0.5085  2.5033
31267SOL    HW299894   9.999   0.422   3.211  0.0834 -0.5172  1.1359
31268SOL     OW99895   7.129   1.951   3.439 -0.3326  0.8940 -0.1451
31268SOL    HW199896   7.170   1.866   3.459  0.8060  1.2072 -1.0785
31268SOL    HW299897   7.073   1.968   3.515  0.4409 -0.0675  0.6733
31269SOL     OW99898   1.172   9.332   7.994  0.5148 -0.2342 -0.2329
31269SOL    HW199899   1.113   9.365   7.926  2.9423 -0.5650 -2.6770
31269SOL    HW299900   1.128   9.254   8.028 -0.9989  0.2151 -1.0512
31270SOL     OW99901   1.066   2.650   2.137 -0.1231  0.0466 -0.2062
31270SOL    HW199902   1.049   2.566   2.093 -0.1960  0.1487 -0.3751
31270SOL    HW299903   0.981   2.675   2.173 -0.1304  0.1114 -0.2678
31271SOL     OW99904   8.556   4.367   0.035  0.5668  0.6843  0.4253
31271SOL    HW199905   8.510   4.283   0.029  0.5508  0.7911 -1.8950
31271SOL    HW299906   8.599   4.376  -0.050  2.2699  2.0827  1.3903
31272SOL     OW99907   5.869   8.529  10.743 -0.6573  0.2944  0.4027
31272SOL    HW199908   5.947   8.516  10.689 -1.1507  0.4719 -0.3659
31272SOL    HW299909   5.807   8.463  10.712 -1.5807  1.5350 -0.4797
31273SOL     OW99910   9.294   2.173   1.286 -0.1081 -0.1836 -0.5314
31273SOL    HW199911   9.209   2.145   1.318  0.4720 -0.3554  0.9540
31273SOL    HW299912   9.308   2.259   1.327  0.3904 -0.1187 -0.8271
31274SOL     OW99913   2.619   9.079  10.792  0.2350  0.6457  0.2354
31274SOL    HW199914   2.565   9.112  10.864  0.7644  1.1022  0.4279
31274SOL    HW299915   2.670   9.008  10.830  0.4229  0.8047  0.2816
31275SOL     OW99916   7.005   4.336   8.380  0.1035 -0.4682  0.3770
31275SOL    HW199917   7.010   4.409   8.318  1.2563 -0.5249  0.3723
31275SOL    HW299918   7.092   4.334   8.420 -0.3055 -1.0857  1.2478
31276SOL     OW99919   0.811   3.008   0.196 -0.2405  0.1064 -0.0940
31276SOL    HW199920   0.806   3.065   0.273 -0.5401  1.5082 -1.1237
31276SOL    HW299921   0.722   2.973   0.187 -1.1239  2.5160 -1.6551
31277SOL     OW99922   7.187   0.325   9.399 -0.3296  0.6226  0.1545
31277SOL    HW199923   7.274   0.347   9.430 -0.9510  2.9209  0.5190
31277SOL    HW299924   7.145   0.280   9.472  0.3964 -0.0623  0.1467
31278SOL     OW99925   3.583  10.497   9.429 -0.0648  0.5289  0.5187
31278SOL    HW199926   3.667  10.452   9.432 -0.3149 -0.4042 -2.5878
31278SOL    HW299927   3.530  10.452   9.495  0.8624 -1.2334  0.1274
31279SOL     OW99928   6.859   2.936   1.083  0.4302 -0.4809 -0.3334
31279SOL    HW199929   6.912   3.011   1.055  0.5604 -0.2836  0.4148
31279SOL    HW299930   6.902   2.905   1.163 -0.2656 -0.6626 -0.0285
31280SOL     OW99931   2.759   0.089  10.855  0.1533  0.3100  0.4360
31280SOL    HW199932   2.692   0.071  10.920  0.3112 -0.0818  0.4923
31280SOL    HW299933   2.713   0.138  10.786  0.1909  1.5563  1.2699
31281SOL     OW99934   5.545  10.011   4.963 -0.1291 -0.2316  0.2367
31281SOL    HW199935   5.613  10.038   4.902  0.2829  1.0603  1.2218
31281SOL    HW299936   5.583   9.937   5.011 -0.1473 -0.7180 -0.4922
31282SOL     OW99937   3.794   9.237   1.488 -0.0800 -0.0798 -0.4192
31282SOL    HW199938   3.886   9.236   1.516 -0.2519 -0.9565  0.1298
31282SOL    HW299939   3.762   9.149   1.505 -1.3568  0.5334  0.4977
31283SOL     OW99940   6.985   4.037   8.560 -0.0884 -0.1091 -0.1993
31283SOL    HW199941   6.943   3.960   8.520  0.1744  0.9402 -2.6622
31283SOL    HW299942   7.050   4.064   8.496 -0.3452  2.3294  0.4905
31284SOL     OW99943   3.247   2.157   5.600 -0.0495  0.4308  0.2896
31284SOL    HW199944   3.173   2.103   5.574  0.8796 -0.4827 -0.5574
31284SOL    HW299945   3.238   2.167   5.695 -0.1534 -1.3675  0.5005
31285SOL     OW99946   5.113   6.281   1.196 -0.2584 -0.1022  0.0603
31285SOL    HW199947   5.099   6.285   1.290  2.4585 -1.5791  0.6195
31285SOL    HW299948   5.191   6.226   1.185 -1.4750 -1.4718 -3.1445
31286SOL     OW99949   6.922   7.464   6.226 -0.2194  0.2995 -0.0101
31286SOL    HW199950   6.871   7.397   6.181  0.6175 -0.8530  0.7008
31286SOL    HW299951   6.975   7.504   6.156 -0.5663  0.0785 -0.4052
31287SOL     OW99952   0.554   2.194   2.589  0.2522 -0.4086 -0.1317
31287SOL    HW199953   0.488   2.192   2.519 -1.3695 -2.4121  1.3159
31287SOL    HW299954   0.609   2.117   2.572  2.0101  0.9908 -1.0599
31288SOL     OW99955   1.001   7.333  10.571  0.2074 -0.2286  0.2085
31288SOL    HW199956   1.050   7.285  10.638  0.9421  0.0335 -0.1236
31288SOL    HW299957   1.062   7.341  10.499 -0.9319 -1.4530 -0.9449
31289SOL     OW99958   1.189   0.570   9.346  0.6024  0.3757 -0.2643
31289SOL    HW199959   1.146   0.489   9.319 -0.7132  0.5108  1.3062
31289SOL    HW299960   1.117   0.633   9.357  1.4264  1.2529  0.2428
31290SOL     OW99961   2.738   3.360   4.081  0.6034 -0.2250  0.0474
31290SOL    HW199962   2.727   3.448   4.045 -2.0434  0.2153  1.6923
31290SOL    HW299963   2.717   3.301   4.008 -1.0239  0.5868 -0.1752
31291SOL     OW99964   5.925   4.405   1.764  0.2101  0.1136 -0.4322
31291SOL    HW199965   5.859   4.475   1.768 -0.7306 -0.4700 -3.1908
31291SOL    HW299966   5.879   4.327   1.794 -0.1208 -0.1158 -1.4891
31292SOL     OW99967   5.123   9.174   2.461 -0.2470 -0.4083  0.0110
31292SOL    HW199968   5.134   9.208   2.550 -2.7455  0.6786 -0.0018
31292SOL    HW299969   5.149   9.246   2.404  1.0742 -1.0037 -0.1674
31293SOL     OW99970   7.329   4.781   6.133 -0.3455 -0.1531  0.3057
31293SOL    HW199971   7.329   4.706   6.191 -0.3366  0.0859  0.6163
31293SOL    HW299972   7.286   4.851   6.183 -0.5871 -0.0214 -0.0722
31294SOL     OW99973   1.816   1.613   9.658  0.1173 -0.6472 -0.1901
31294SOL    HW199974   1.846   1.653   9.576 -2.3410  1.6386 -0.0910
31294SOL    HW299975   1.759   1.541   9.630 -1.6729  0.8688 -0.5912
31295SOL     OW99976   9.171  10.119   9.808  0.0002  0.3599 -0.8822
31295SOL    HW199977   9.100  10.145   9.749 -1.5677  0.2620  0.8759
31295SOL    HW299978   9.220  10.199   9.823 -1.6946  1.2168  0.3917
31296SOL     OW99979   2.075   8.189   6.103 -0.3210 -0.3188  0.9078
31296SOL    HW199980   2.170   8.184   6.114 -0.1093  2.4913  1.0030
31296SOL    HW299981   2.039   8.173   6.190  0.1841  0.4000  1.2581
31297SOL     OW99982   8.764   9.049   3.576  0.2466  0.2088  0.1134
31297SOL    HW199983   8.738   9.063   3.667 -1.3007  0.4775 -0.3335
31297SOL    HW299984   8.681   9.047   3.527  1.0047 -0.3881 -1.2300
31298SOL     OW99985   6.354   8.914   2.705 -0.5012  0.3445  0.0505
31298SOL    HW199986   6.365   8.901   2.799 -3.0631  0.1415  0.4007
31298SOL    HW299987   6.348   8.826   2.669 -1.1558  0.4168 -0.0348
31299SOL     OW99988   3.351   0.230   7.791  0.2548 -0.4719 -0.3499
31299SOL    HW199989   3.340   0.268   7.704  1.5069  0.3158 -0.1899
31299SOL    HW299990   3.444   0.205   7.796 -0.0129 -1.4117  0.4125
31300SOL     OW99991   6.976   0.515   2.460 -0.2581 -0.3730 -0.2691
31300SOL    HW199992   7.049   0.496   2.400 -1.5615 -0.4752 -1.9007
31300SOL    HW299993   7.006   0.590   2.512  0.2861  0.8844 -2.2913
31301SOL     OW99994   5.309   3.618   5.124  0.0747  0.1605  0.2077
31301SOL    HW199995   5.350   3.611   5.210 -0.7262  4.0097  1.0623
31301SOL    HW299996   5.380   3.640   5.065  0.4469 -1.4108  0.0210
31302SOL     OW99997   8.716   3.148   0.970  0.1046  0.3276 -0.6014
31302SOL    HW199998   8.731   3.227   0.918 -0.5066  0.4720 -0.5577
31302SOL    HW299999   8.670   3.088   0.911  0.8482 -0.1327 -0.7406
31303SOL     OW    0   9.113   6.313   3.137 -0.4711  0.0005  0.3799
31303SOL    HW1    1   9.035   6.308   3.193 -1.0960  0.4937 -0.4208
31303SOL    HW2    2   9.092   6.255   3.064 -0.4975  0.8777 -0.3172
31304SOL     OW    3   8.635   8.032   1.444 -0.8921  0.0825  0.1940
31304SOL    HW1    4   8.593   7.951   1.417  2.7262 -1.7500 -0.5442
31304SOL    HW2    5   8.639   8.026   1.540 -1.9713  0.1679  0.2577
31305SOL     OW    6   6.538   9.667   1.054  0.1426  0.0346  0.1413
31305SOL    HW1    7   6.631   9.672   1.073  0.1280 -0.1353  0.2594
31305SOL    HW2    8   6.523   9.734   0.987  0.3150  0.1900  0.2555
31306SOL     OW    9   5.980   2.491   3.832  0.1093 -0.2703 -0.6449
31306SOL    HW1   10   5.925   2.534   3.897 -0.4389 -2.2546  0.2726
31306SOL    HW2   11   6.011   2.563   3.776 -0.9393  1.2575  0.6357
31307SOL     OW   12   9.884   9.733   3.279  0.4425  0.5716 -0.4849
31307SOL    HW1   13   9.920   9.790   3.211 -1.4819  2.9812  0.3136
31307SOL    HW2   14   9.955   9.722   3.342  1.1832  1.2907 -1.1753
31308SOL     OW   15   7.624   4.107   7.165 -0.5546  0.1175 -0.7067
31308SOL    HW1   16   7.590   4.050   7.233 -2.9054  1.3002 -0.7743
31308SOL    HW2   17   7.620   4.195   7.203  1.1783  0.4784 -1.2610
31309SOL     OW   18  10.265   9.214   9.767 -0.2085  0.1062 -0.3916
31309SOL    HW1   19  10.340   9.215   9.825 -0.0643 -1.1495 -0.5242
31309SOL    HW2   20  10.269   9.297   9.720 -0.4438  1.2386  1.5025
31310SOL     OW   21   3.879   7.035  10.846 -0.3144 -0.5155 -0.3181
31310SOL    HW1   22   3.967   7.047  10.809 -0.3080  0.8337  0.0824
31310SOL    HW2   23   3.890   6.966  10.912  0.1409 -1.3328 -1.2253
31311SOL     OW   24   3.408   9.372   4.895  0.0930  0.8153 -0.4316
31311SOL    HW1   25   3.438   9.456   4.928 -0.2796  0.8359 -0.1301
31311SOL    HW2   26   3.488   9.323   4.876  0.3116  1.4022 -1.0419
31312SOL     OW   27   6.290   3.331   0.215 -0.5051 -0.4425  0.1675
31312SOL    HW1   28   6.359   3.393   0.192  0.5483 -0.8482  2.0257
31312SOL    HW2   29   6.290   3.268   0.143 -0.1653  0.5431 -0.7238
31313SOL     OW   30   2.121   1.538   1.953 -0.0107 -0.0649 -0.1574
31313SOL    HW1   31   2.030   1.562   1.937 -0.1918 -2.4140 -3.7156
31313SOL    HW2   32   2.172   1.613   1.922 -0.6647  0.6120  0.3668
31314SOL     OW   33   5.704   5.451   7.560 -0.2554  0.2855  0.2772
31314SOL    HW1   34   5.800   5.458   7.566 -0.2131  0.1563 -0.1694
31314SOL    HW2   35   5.688   5.357   7.548 -0.4393  0.3056  0.3750
31315SOL     OW   36  10.445   3.422   9.000  0.4680 -0.8414 -0.4186
31315SOL    HW1   37  10.459   3.493   8.937 -0.9316 -0.6915 -0.5953
31315SOL    HW2   38  10.350   3.410   9.001  0.6825 -2.8416 -0.5299
31316SOL     OW   39  10.513  10.554   9.508  0.5115 -0.1401 -0.1827
31316SOL    HW1   40  10.461  10.515   9.578  0.6738  1.1886  0.7111
31316SOL    HW2   41  10.575  10.485   9.484  0.1945 -0.7620  0.7105
31317SOL     OW   42  10.022   3.691   1.553 -0.0295 -0.3126 -0.4192
31317SOL    HW1   43  10.014   3.731   1.466  2.3110  1.5688  0.1081
31317SOL    HW2   44   9.945   3.722   1.601 -1.0405 -0.8935 -1.6075
31318SOL     OW   45   7.829   2.124   6.712  0.2994  0.1197 -0.3651
31318SOL    HW1   46   7.836   2.114   6.617 -1.0436  0.5582 -0.5240
31318SOL    HW2   47   7.744   2.164   6.726 -0.3944 -1.7430  1.1495
31319SOL     OW   48   5.991   0.230   1.948  0.4269  0.0831  0.1955
31319SOL    HW1   49   5.985   0.175   1.870  2.7229 -0.7755  0.5378
31319SOL    HW2   50   6.051   0.301   1.924  1.8963 -0.6870  1.3768
31320SOL     OW   51   5.826   0.534   3.736  0.8391 -0.3579 -0.4122
31320SOL    HW1   52   5.885   0.604   3.765  1.0832 -0.6991 -0.0698
31320SOL    HW2   53   5.750   0.579   3.700  0.3888  0.0902  1.0382
31321SOL     OW   54   0.740   0.981   1.145  0.3243  0.6766  0.0041
31321SOL    HW1   55   0.663   0.960   1.199 -0.7121 -1.9506 -2.2662
31321SOL    HW2   56   0.814   0.962   1.203 -0.7314 -1.7679  0.7256
31322SOL     OW   57   4.593   0.130   2.518 -0.0882  0.1287 -0.0457
31322SOL    HW1   58   4.601   0.165   2.607 -0.4512 -0.1824  0.1123
31322SOL    HW2   59   4.633   0.197   2.463  2.3268 -0.7194  0.5466
31323SOL     OW   60   4.639   8.191   6.775  0.3021 -0.1443 -0.4871
31323SOL    HW1   61   4.699   8.243   6.721  2.0442 -3.4189 -1.9679
31323SOL    HW2   62   4.680   8.190   6.861  0.2945  0.8133 -0.4612
31324SOL     OW   63   1.928   1.462   9.237 -0.6999  0.6971 -0.4077
31324SOL    HW1   64   1.949   1.480   9.145  1.5483  0.4183 -0.0059
31324SOL    HW2   65   1.858   1.398   9.233 -0.8217  0.8738 -1.9311
31325SOL     OW   66   2.333   5.555   0.073 -0.3077 -0.3756 -0.2487
31325SOL    HW1   67   2.389   5.632   0.082 -0.9219 -0.0020  0.5537
31325SOL    HW2   68   2.362   5.496   0.143 -0.0674 -0.7286 -0.6428
31326SOL     OW   69   3.957   3.222   3.196 -0.5947  0.3186 -0.2183
31326SOL    HW1   70   4.045   3.257   3.180  0.0423 -1.2815 -0.3204
31326SOL    HW2   71   3.967   3.127   3.194 -2.5136  0.0830 -1.2666
31327SOL     OW   72   7.741   6.761   8.631 -0.1771  0.1288 -0.2380
31327SOL    HW1   73   7.695   6.721   8.557 -0.8340  0.6429 -0.1139
31327SOL    HW2   74   7.675   6.767   8.700  0.6514 -1.1340  0.6997
31328SOL     OW   75  10.751   2.422   7.926 -0.2665  0.0629  0.2467
31328SOL    HW1   76  10.806   2.364   7.978  0.1116 -0.1954 -0.4319
31328SOL    HW2   77  10.806   2.500   7.912 -0.1418 -0.1189 -0.2750
31329SOL     OW   78   0.237   8.350   8.954 -0.0231  0.5207 -0.9061
31329SOL    HW1   79   0.237   8.254   8.952  3.5182  0.3494 -0.3903
31329SOL    HW2   80   0.213   8.376   8.865  0.8586 -0.9603 -1.6210
31330SOL     OW   81   5.309   9.082   8.375 -0.2059 -0.7020 -0.2349
31330SOL    HW1   82   5.259   9.154   8.337 -2.3765 -1.8554  0.2993
31330SOL    HW2   83   5.373   9.125   8.432 -1.6865  0.8060  0.3551
31331SOL     OW   84   4.641   9.620   8.660 -0.2594 -0.1383 -0.2392
31331SOL    HW1   85   4.641   9.537   8.612  1.1766 -1.1635  1.4202
31331SOL    HW2   86   4.582   9.606   8.734 -1.0068  0.7843 -0.6405
31332SOL     OW   87   8.540   2.569   1.040 -0.7120  0.5689 -0.4779
31332SOL    HW1   88   8.518   2.477   1.056  0.7285  0.7023  3.1423
31332SOL    HW2   89   8.620   2.565   0.988  1.1588 -0.4586  2.2445
31333SOL     OW   90   3.436   9.480   8.072 -0.0988  0.5651  0.0854
31333SOL    HW1   91   3.372   9.552   8.075  0.6246  1.2009  0.8148
31333SOL    HW2   92   3.468   9.474   8.162  1.5766  0.9092 -0.4554
31334SOL     OW   93   7.967   5.092   6.976  0.6031  0.1127 -0.2748
31334SOL    HW1   94   7.880   5.107   7.012  0.1798 -0.4651 -1.0134
31334SOL    HW2   95   8.027   5.129   7.040 -0.0027 -2.6614  2.0894
31335SOL     OW   96  10.848   1.001   6.123 -0.0414 -0.3073 -0.0590
31335SOL    HW1   97  10.841   0.982   6.029 -0.4141 -1.6640  0.2310
31335SOL    HW2   98  10.758   1.022   6.150 -0.1127 -0.8906  0.1813
31336SOL     OW   99   6.625   7.273   4.478  0.2886  0.1446  0.2904
31336SOL    HW1  100   6.641   7.212   4.550 -0.4880 -0.9936 -0.4537
31336SOL    HW2  101   6.576   7.345   4.517  1.6747  0.5899  1.2931
31337SOL     OW  102   7.337   4.196  10.580 -0.4766  0.0547 -0.4479
31337SOL    HW1  103   7.419   4.148  10.587  0.2448  1.2328 -0.5994
31337SOL    HW2  104   7.275   4.132  10.545 -0.4963 -1.7887  2.6169
31338SOL     OW  105   6.213   2.460   5.486  0.0064 -0.0353  0.2872
31338SOL    HW1  106   6.118   2.469   5.477 -0.0179 -0.9349 -0.5723
31338SOL    HW2  107   6.227   2.366   5.500  0.7808  0.0638  0.2255
31339SOL     OW  108   6.345   2.411   9.709  0.1853  0.0156  0.0923
31339SOL    HW1  109   6.335   2.385   9.617 -0.1809  0.4833 -0.0023
31339SOL    HW2  110   6.259   2.395   9.748  0.0273  0.8503  0.0926
31340SOL     OW  111   7.948   1.338   4.611  0.4966  0.3624 -0.2975
31340SOL    HW1  112   7.995   1.312   4.532 -0.4831  0.9972 -1.1038
31340SOL    HW2  113   7.986   1.422   4.635  1.4589 -0.2663  0.4882
31341SOL     OW  114   1.032  10.664   4.144 -0.1006 -0.3988  0.0069
31341SOL    HW1  115   0.994  10.596   4.200 -0.3923 -0.8047 -0.6719
31341SOL    HW2  116   0.972  10.669   4.069  0.2946  0.1261 -0.2753
31342SOL     OW  117   9.838   7.921   3.329  0.0200 -0.1702  0.3215
31342SOL    HW1  118   9.842   7.867   3.407 -0.4073  0.8097  1.0359
31342SOL    HW2  119   9.746   7.918   3.302 -0.0504  0.3790  0.4952
31343SOL     OW  120   8.639   2.087   3.968 -0.1970 -0.5376 -0.7178
31343SOL    HW1  121   8.617   2.052   3.882 -1.3967  0.5562 -0.8793
31343SOL    HW2  122   8.714   2.143   3.953 -0.5902 -0.1107 -1.1194
31344SOL     OW  123   6.452   7.490  10.762 -0.3928  0.2616 -0.1319
31344SOL    HW1  124   6.509   7.561  10.732 -0.5681  0.0657 -0.9437
31344SOL    HW2  125   6.511   7.418  10.781 -0.2236  0.5717  0.5955
31345SOL     OW  126   8.503   8.167   6.492 -0.1297 -0.5606  0.1336
31345SOL    HW1  127   8.415   8.202   6.474  0.0186  0.3924  1.1320
31345SOL    HW2  128   8.496   8.129   6.579 -0.0911 -2.4695 -0.6545
31346SOL     OW  129   1.594  10.886   8.417  0.4358 -0.4830  0.6417
31346SOL    HW1  130   1.590  10.833   8.496 -0.2595 -0.6552  0.4927
31346SOL    HW2  131   1.508  10.926   8.409  0.4497 -0.5780 -0.1019
31347SOL     OW  132   5.420   2.979   3.666 -0.1998  0.2434 -0.5161
31347SOL    HW1  133   5.466   3.062   3.663  1.6087 -0.6611  0.2346
31347SOL    HW2  134   5.419   2.956   3.759 -0.8867 -0.4805 -0.6854
31348SOL     OW  135   3.663   9.037   8.909  0.0529 -0.6415 -0.0051
31348SOL    HW1  136   3.637   9.119   8.951 -0.2288 -0.5154 -0.4083
31348SOL    HW2  137   3.711   9.065   8.831  0.1880 -0.8629 -0.0020
31349SOL     OW  138   0.520   1.909   9.457 -0.1655  0.0380  0.1568
31349SOL    HW1  139   0.547   1.866   9.537 -0.3868 -1.3300 -0.4834
31349SOL    HW2  140   0.572   1.868   9.388  1.0764  2.1703 -0.2755
31350SOL     OW  141   4.596   7.307  10.198  0.0974 -0.3846 -0.5684
31350SOL    HW1  142   4.576   7.399  10.180 -1.2468 -0.0022  2.2728
31350SOL    HW2  143   4.513   7.261  10.184 -0.0116 -0.6402  0.7290
31351SOL     OW  144   9.129   8.998   2.844 -0.8023 -0.7521 -0.0642
31351SOL    HW1  145   9.163   9.019   2.931 -0.4945 -1.3528 -0.0323
31351SOL    HW2  146   9.173   9.059   2.785 -1.9058  0.4853  0.3279
31352SOL     OW  147   1.939   2.946   6.688 -0.5786 -0.2516 -0.1461
31352SOL    HW1  148   1.943   2.851   6.699 -2.7247 -0.6376 -1.8645
31352SOL    HW2  149   2.026   2.971   6.658  0.1363 -1.5980  0.7519
31353SOL     OW  150   6.061   5.907   0.950 -0.3147 -0.0220  0.5815
31353SOL    HW1  151   6.000   5.834   0.937 -2.3495  1.4296  1.3828
31353SOL    HW2  152   6.062   5.920   1.045  0.6428  0.5164  0.5079
31354SOL     OW  153   4.783   8.273  10.459 -0.3611  0.2593  0.0412
31354SOL    HW1  154   4.721   8.241  10.395 -1.3510  1.9947  0.0735
31354SOL    HW2  155   4.841   8.332  10.410 -0.5391  0.8641  0.5386
31355SOL     OW  156   6.338   8.762   7.026 -0.5529 -0.3789  0.0348
31355SOL    HW1  157   6.347   8.857   7.029 -0.6428 -0.3431 -0.7716
31355SOL    HW2  158   6.300   8.744   6.940 -0.9197 -1.1124  0.3425
31356SOL     OW  159  10.058   9.328   6.031 -0.1529  0.1062 -0.0873
31356SOL    HW1  160   9.982   9.361   6.079 -1.3313 -0.4028 -1.5478
31356SOL    HW2  161  10.066   9.385   5.956  2.8324  2.0869  1.5214
31357SOL     OW  162   7.652  10.396   3.370 -0.1752 -0.0680  0.9210
31357SOL    HW1  163   7.627  10.325   3.429 -0.3694 -0.9836 -0.2277
31357SOL    HW2  164   7.742  10.376   3.345  0.0928  0.6171  1.3414
31358SOL     OW  165   2.922   9.273   1.926 -0.1465 -0.3736  0.1187
31358SOL    HW1  166   3.011   9.290   1.955 -0.2880 -0.1280  0.4119
31358SOL    HW2  167   2.933   9.228   1.842  0.2521  0.0261 -0.0528
31359SOL     OW  168  10.131   4.015   7.824  0.1588  0.2649 -0.1894
31359SOL    HW1  169  10.168   4.066   7.751  2.6160 -2.7677 -1.3039
31359SOL    HW2  170  10.152   3.924   7.802 -4.5019 -1.4491  1.3092
31360SOL     OW  171   3.497   7.228   7.266  0.4021  0.0058 -0.0664
31360SOL    HW1  172   3.523   7.138   7.247 -0.5235 -0.8617  2.3439
31360SOL    HW2  173   3.402   7.226   7.267  0.3759  0.7318  1.0401
31361SOL     OW  174   7.043   8.197   2.460 -0.1983  0.0845  0.1075
31361SOL    HW1  175   6.992   8.203   2.380 -1.1695  3.8610  0.7875
31361SOL    HW2  176   7.125   8.156   2.434 -0.5520  1.0068 -2.8120
31362SOL     OW  177   6.373   1.088   4.335  0.2434  0.5533 -0.1140
31362SOL    HW1  178   6.345   1.179   4.322 -1.2411 -0.2723 -4.1145
31362SOL    HW2  179   6.298   1.046   4.378  0.0118  0.7794 -0.2897
31363SOL     OW  180   5.118  10.819  10.185  0.0784  0.0124 -0.5337
31363SOL    HW1  181   5.051  10.829  10.117  0.1364 -0.8733 -0.7364
31363SOL    HW2  182   5.093  10.740  10.232 -0.8651  1.4734  1.5544
31364SOL     OW  183   0.672  10.700  10.074  0.6403 -0.3281 -0.1931
31364SOL    HW1  184   0.714  10.674   9.992 -0.5735  2.4672 -1.8488
31364SOL    HW2  185   0.719  10.779  10.101  0.3342 -0.6037  1.2805
31365SOL     OW  186   9.043   6.659  10.383  0.4384  0.4201 -0.3821
31365SOL    HW1  187   9.015   6.569  10.399 -0.9146  0.6580 -1.2794
31365SOL    HW2  188   9.020   6.705  10.464 -2.0275  0.6316 -1.1156
31366SOL     OW  189   9.310   1.840   0.797 -0.1859 -0.3706  0.0579
31366SOL    HW1  190   9.304   1.876   0.885  0.6837  0.8547 -0.3478
31366SOL    HW2  191   9.382   1.889   0.756 -0.1042 -1.4054 -1.0968
31367SOL     OW  192  10.230   5.391   7.464  0.2506 -0.4276  0.2077
31367SOL    HW1  193  10.146   5.405   7.421 -0.2708  0.7172  1.5078
31367SOL    HW2  194  10.295   5.401   7.394 -0.5478  1.6233 -0.3269
31368SOL     OW  195   0.866   7.904   4.010 -0.5658  0.3275  0.2388
31368SOL    HW1  196   0.880   7.998   4.017 -1.1383  0.3069  1.9706
31368SOL    HW2  197   0.932   7.865   4.067  0.7309 -0.4517 -1.6868
31369SOL     OW  198   2.740   3.847   6.097 -0.1007 -0.4829  0.4018
31369SOL    HW1  199   2.826   3.843   6.138  0.3223 -0.2821 -0.4450
31369SOL    HW2  200   2.685   3.892   6.161  0.6169  0.0834  0.6332
31370SOL     OW  201   6.980  10.581   7.024  0.1072 -0.3271 -0.8663
31370SOL    HW1  202   6.957  10.642   7.095 -0.2280 -0.1270 -1.1394
31370SOL    HW2  203   6.981  10.636   6.946 -0.7862 -0.7757 -1.2085
31371SOL     OW  204   6.236   9.836   8.512 -0.7301 -0.1153  0.4240
31371SOL    HW1  205   6.166   9.791   8.466 -2.3451  0.8890  1.8024
31371SOL    HW2  206   6.250   9.917   8.463  0.3057 -0.8324 -0.5078
31372SOL     OW  207   7.572   1.456  10.088 -0.4600 -0.0206  0.7125
31372SOL    HW1  208   7.623   1.536  10.103  0.9050 -1.0403  1.7952
31372SOL    HW2  209   7.582   1.439   9.994  0.1060  0.5065  0.6681
31373SOL     OW  210   2.636   2.016  10.715 -0.4782 -0.2530 -0.5616
31373SOL    HW1  211   2.647   1.925  10.744 -0.9442 -0.4668 -1.0306
31373SOL    HW2  212   2.706   2.064  10.759  0.9914 -1.1711 -1.8011
31374SOL     OW  213   7.277   2.258   6.770 -0.2059 -0.3606  0.2424
31374SOL    HW1  214   7.307   2.273   6.860  1.9031 -2.7816  0.0918
31374SOL    HW2  215   7.224   2.178   6.776 -0.8815  0.0206 -0.5372
31375SOL     OW  216   6.319   9.759   7.287 -0.1795  0.5214 -0.0213
31375SOL    HW1  217   6.278   9.745   7.202 -2.4127  1.3450  0.8509
31375SOL    HW2  218   6.316   9.854   7.300 -2.2279  0.2646  2.0115
31376SOL     OW  219   5.863   2.610   3.469 -0.0147 -0.2937  0.4218
31376SOL    HW1  220   5.920   2.561   3.410  0.5166 -0.6098  1.1745
31376SOL    HW2  221   5.797   2.547   3.497 -0.3566 -0.1034  0.0566
31377SOL     OW  222   3.149   6.513   1.975  0.3161  0.6492  0.0329
31377SOL    HW1  223   3.166   6.505   2.069  0.6348 -2.1057 -0.1711
31377SOL    HW2  224   3.149   6.422   1.943  0.8060  1.5378 -2.7441
31378SOL     OW  225   7.298   3.306   3.862  0.0182  0.9746  0.2146
31378SOL    HW1  226   7.315   3.244   3.933  3.5478  1.3062 -0.1693
31378SOL    HW2  227   7.257   3.254   3.793  3.6279 -1.3220 -0.4380
31379SOL     OW  228   6.570   4.997   8.930  0.1937 -0.1752  0.1077
31379SOL    HW1  229   6.582   5.028   9.020 -0.2837  0.2726  0.0188
31379SOL    HW2  230   6.542   4.905   8.940  0.7752 -0.3261  0.3950
31380SOL     OW  231  10.010   2.554   0.277  0.1992  0.3387 -0.4309
31380SOL    HW1  232  10.033   2.514   0.193  1.3857  0.5705 -0.2342
31380SOL    HW2  233  10.071   2.517   0.340  0.0906  1.0429  0.1166
31381SOL     OW  234   1.227   2.888   0.835 -0.5856 -0.1964  0.2180
31381SOL    HW1  235   1.233   2.984   0.834 -0.8262 -0.1822 -1.1778
31381SOL    HW2  236   1.172   2.866   0.760  1.3030 -1.5545 -0.8373
31382SOL     OW  237   7.437   5.573   9.514 -0.4116 -0.2831  0.6902
31382SOL    HW1  238   7.511   5.603   9.566  0.7031 -0.1465 -0.8850
31382SOL    HW2  239   7.381   5.649   9.505 -1.3241 -0.6463  2.7487
31383SOL     OW  240   2.067   2.471   9.942 -0.2053 -0.3239  0.0089
31383SOL    HW1  241   2.033   2.499  10.027 -0.1776  0.6814 -0.3027
31383SOL    HW2  242   1.991   2.432   9.898 -0.1691 -1.0568  0.5665
31384SOL     OW  243   8.551   8.397   4.481 -0.2800  0.1467 -0.2803
31384SOL    HW1  244   8.513   8.484   4.469 -0.0594  0.5767  1.9020
31384SOL    HW2  245   8.645   8.412   4.490 -0.4814  0.0606  2.8635
31385SOL     OW  246   3.085   6.749  10.096  0.4544 -0.1610  0.6849
31385SOL    HW1  247   3.109   6.832  10.055  0.7044  0.4231  1.9554
31385SOL    HW2  248   3.163   6.723  10.145  0.2322 -0.9303  0.6393
31386SOL     OW  249   0.584   4.701   9.706 -0.6395  0.1430 -0.2470
31386SOL    HW1  250   0.575   4.607   9.724 -1.9353  0.3798  0.4161
31386SOL    HW2  251   0.577   4.708   9.611  1.1925 -0.5903 -0.4772
31387SOL     OW  252   7.958   9.588   5.673  0.0383  0.2315  0.0454
31387SOL    HW1  253   7.884   9.591   5.734 -1.2361 -1.9637 -1.2605
31387SOL    HW2  254   8.032   9.564   5.728 -0.6058  0.5764  1.1006
31388SOL     OW  255   5.733   7.058   0.931 -0.2825  0.7344  0.6885
31388SOL    HW1  256   5.711   7.063   1.024  0.1727 -0.0232  0.8435
31388SOL    HW2  257   5.736   6.964   0.912 -0.3418  0.8819 -0.0836
31389SOL     OW  258   3.489   5.301   3.188 -0.6800  0.3492 -0.0587
31389SOL    HW1  259   3.407   5.260   3.215 -0.4266 -0.5258 -0.5800
31389SOL    HW2  260   3.505   5.368   3.254 -0.9225 -0.6456  1.0415
31390SOL     OW  261   4.288   5.148   4.732 -0.0978 -0.5434  0.1452
31390SOL    HW1  262   4.231   5.083   4.774  0.1716 -0.5605  0.4902
31390SOL    HW2  263   4.370   5.143   4.781 -0.7756  1.6082  1.6409
31391SOL     OW  264   7.959   4.170   5.459  0.8300  0.3813  0.6918
31391SOL    HW1  265   7.940   4.212   5.376 -1.2467 -0.1906  0.8280
31391SOL    HW2  266   7.936   4.235   5.525  1.5084  0.4729  0.8465
31392SOL     OW  267   1.308   4.691   0.764  0.1076  0.1774  0.6761
31392SOL    HW1  268   1.342   4.646   0.842 -0.2294  0.0821  0.7687
31392SOL    HW2  269   1.321   4.628   0.693 -3.8702 -1.7564  1.3902
31393SOL     OW  270  10.478  10.741   7.927 -0.2996  0.2376  0.4859
31393SOL    HW1  271  10.419  10.669   7.905  0.1341  0.1799 -0.5261
31393SOL    HW2  272  10.452  10.812   7.869  0.9502  0.0439 -0.3475
31394SOL     OW  273   3.975   4.368   0.434  0.4585  0.2184 -0.0316
31394SOL    HW1  274   4.000   4.393   0.345  2.3737  0.5122  0.5491
31394SOL    HW2  275   4.016   4.433   0.490 -1.3605  0.4899  1.0616
31395SOL     OW  276   4.612   6.230   0.636  0.3813  0.1981 -0.5149
31395SOL    HW1  277   4.519   6.238   0.656  0.6118  2.0970 -0.0717
31395SOL    HW2  278   4.621   6.272   0.551  0.6255 -1.3290 -1.2849
31396SOL     OW  279   9.762   8.939   5.040 -0.4505  0.3950  0.2828
31396SOL    HW1  280   9.675   8.901   5.051  0.9043 -2.7187  1.4080
31396SOL    HW2  281   9.782   8.979   5.125 -0.0243 -0.7205  0.7230
31397SOL     OW  282   9.554   2.496  10.143 -0.1568  0.0665 -0.3873
31397SOL    HW1  283   9.466   2.459  10.141  0.4890 -1.6577  0.3992
31397SOL    HW2  284   9.611   2.419  10.143  1.3175  1.1190  0.2659
31398SOL     OW  285   7.760   0.784   1.780 -0.7781  0.5744 -0.4967
31398SOL    HW1  286   7.739   0.701   1.823  1.6521  0.7436  1.2648
31398SOL    HW2  287   7.739   0.769   1.688 -0.5288 -1.9693 -0.2215
31399SOL     OW  288   3.120   0.733   3.715  0.2263  0.3609  0.0915
31399SOL    HW1  289   3.176   0.779   3.777  0.0194  0.3143  0.3133
31399SOL    HW2  290   3.181   0.694   3.652  0.5498 -0.8214  1.0823
31400SOL     OW  291   4.568   7.087  10.565 -0.3469 -0.3256 -0.3280
31400SOL    HW1  292   4.624   7.094  10.488 -0.6030  1.0984 -0.4127
31400SOL    HW2  293   4.525   7.172  10.571 -0.0046 -0.2578  1.6448
31401SOL     OW  294   4.581   9.313   3.232 -0.1710 -0.0141  0.1255
31401SOL    HW1  295   4.571   9.298   3.327  0.4935  1.1796  0.4067
31401SOL    HW2  296   4.622   9.400   3.226 -0.3155 -0.0250 -1.2680
31402SOL     OW  297   2.539   6.165   0.816  0.6360  0.2813 -0.1228
31402SOL    HW1  298   2.514   6.124   0.899 -1.1119  1.0583 -0.2225
31402SOL    HW2  299   2.603   6.105   0.779  1.4553 -0.1005  1.7566
31403SOL     OW  300   7.410   6.607   4.037  0.0776  0.0856 -0.0324
31403SOL    HW1  301   7.477   6.603   4.106  0.9850  0.1926 -0.8857
31403SOL    HW2  302   7.381   6.516   4.027  0.1964  0.0143  0.2417
31404SOL     OW  303  10.661   2.764   2.843  0.4661  0.2856 -0.5081
31404SOL    HW1  304  10.736   2.805   2.885  0.4719  1.2866 -1.4612
31404SOL    HW2  305  10.593   2.832   2.843 -0.0981 -0.2663 -0.5927
31405SOL     OW  306   6.804   5.868   6.533 -0.2646 -0.2270 -0.1567
31405SOL    HW1  307   6.876   5.805   6.524 -0.5496 -0.7970  1.2687
31405SOL    HW2  308   6.783   5.867   6.626 -1.5941  0.5264 -0.4231
31406SOL     OW  309   5.576   3.887   5.564  0.0987  0.2810 -0.1321
31406SOL    HW1  310   5.521   3.900   5.641  1.3001  0.6431  0.6940
31406SOL    HW2  311   5.579   3.973   5.521 -1.6099 -0.2054 -1.3509
31407SOL     OW  312   5.181   8.869   7.613  0.1343  0.1810 -0.0391
31407SOL    HW1  313   5.234   8.946   7.632 -0.4696  0.7677 -0.6641
31407SOL    HW2  314   5.219   8.800   7.667  0.0701  1.1511  1.3064
31408SOL     OW  315   2.236   3.491   1.920 -0.0208  0.0626 -0.2865
31408SOL    HW1  316   2.225   3.403   1.957  0.6496 -0.0445 -0.3149
31408SOL    HW2  317   2.177   3.493   1.845  0.7462 -0.7662 -0.9370
31409SOL     OW  318   1.382   7.380  10.852 -0.6007 -0.4169 -0.2700
31409SOL    HW1  319   1.461   7.397  10.801 -0.4677  0.4464  0.2103
31409SOL    HW2  320   1.313   7.368  10.786  0.0136 -1.7049 -0.7103
31410SOL     OW  321  10.912   7.728   8.653  0.0806 -0.4040 -0.1935
31410SOL    HW1  322  10.896   7.820   8.630  2.6905 -0.2128 -1.6751
31410SOL    HW2  323  10.989   7.731   8.710 -0.8198 -1.5951  1.1443
31411SOL     OW  324   0.717   5.307  10.604 -0.1077 -0.7415 -0.1294
31411SOL    HW1  325   0.720   5.336  10.513 -1.5874  0.0949  0.0391
31411SOL    HW2  326   0.634   5.342  10.637  1.0140  0.1801  1.9421
31412SOL     OW  327  10.691   5.336   2.571  0.1244 -0.2906 -0.0716
31412SOL    HW1  328  10.674   5.278   2.646  0.9976 -0.6498 -0.1443
31412SOL    HW2  329  10.630   5.409   2.583 -2.7299 -2.2945 -1.2194
31413SOL     OW  330   3.855   2.722   4.182 -0.7903 -0.0021  0.4551
31413SOL    HW1  331   3.792   2.781   4.138 -0.7059 -0.3266 -0.1145
31413SOL    HW2  332   3.846   2.743   4.275 -0.4863  1.1901  0.2432
31414SOL     OW  333   6.785   9.178   2.426  0.4651  0.0773 -0.1103
31414SOL    HW1  334   6.866   9.145   2.463  0.2475 -0.4656 -0.1126
31414SOL    HW2  335   6.716   9.138   2.479  0.1970  0.4566 -0.1679
31415SOL     OW  336   3.008   4.943   6.997 -0.0023 -0.3467  0.3002
31415SOL    HW1  337   3.070   4.979   7.059 -1.1654 -0.1659  1.4050
31415SOL    HW2  338   2.992   5.014   6.935  1.9827 -0.8772 -0.9182
31416SOL     OW  339   2.278   7.123   0.133 -0.1087  0.1024 -0.1874
31416SOL    HW1  340   2.234   7.197   0.174  0.7931  1.2432 -1.1900
31416SOL    HW2  341   2.230   7.108   0.052  0.3270  0.2730 -0.4831
31417SOL     OW  342  10.528   2.311  10.857  0.5574  0.1124 -0.2485
31417SOL    HW1  343  10.524   2.220  10.887  0.5020  0.4457  0.7953
31417SOL    HW2  344  10.484   2.361  10.926 -0.2763  0.8370 -1.2598
31418SOL     OW  345   3.322  10.122   6.600  0.4864  0.2296  0.0399
31418SOL    HW1  346   3.259  10.050   6.598  0.5805  0.0246  2.4287
31418SOL    HW2  347   3.277  10.191   6.649  0.2440  2.0510 -2.4935
31419SOL     OW  348   6.182   7.685   7.453 -0.7927 -0.1186 -0.3765
31419SOL    HW1  349   6.159   7.773   7.485 -2.2160  0.0502 -1.7653
31419SOL    HW2  350   6.104   7.632   7.469 -0.3775 -0.8245 -0.6461
31420SOL     OW  351   5.649   1.943   8.651  0.0463 -0.3027 -0.0356
31420SOL    HW1  352   5.648   2.015   8.715  0.3758  0.0664 -0.4367
31420SOL    HW2  353   5.671   1.985   8.568 -1.0619 -0.6693 -0.5346
31421SOL     OW  354   1.053   6.012   9.039  0.0330 -0.6806  0.0116
31421SOL    HW1  355   1.114   5.958   9.088 -0.5295 -1.3638 -0.0215
31421SOL    HW2  356   0.975   6.018   9.095 -0.8988 -2.0862 -1.0707
31422SOL     OW  357   7.771   6.408   2.040 -0.1351  0.2735  0.1493
31422SOL    HW1  358   7.856   6.398   2.083 -1.1964 -1.9876  1.9176
31422SOL    HW2  359   7.711   6.433   2.110 -0.8166  2.9222 -1.2625
31423SOL     OW  360   7.624   6.745  10.579 -0.0650  0.1196  0.0946
31423SOL    HW1  361   7.541   6.772  10.619  0.8451  2.1051  0.7281
31423SOL    HW2  362   7.691   6.791  10.629  1.3681 -0.5197 -1.1713
31424SOL     OW  363   2.067   5.317   5.791  0.0147  0.6428 -0.0825
31424SOL    HW1  364   2.130   5.388   5.799  1.4950 -0.7139  1.0356
31424SOL    HW2  365   2.118   5.238   5.808 -1.5891 -0.6967 -1.1738
31425SOL     OW  366   5.788   4.713   0.741  0.2925  0.0477  0.0671
31425SOL    HW1  367   5.764   4.795   0.697 -2.5249 -0.8379 -0.2276
31425SOL    HW2  368   5.747   4.719   0.827  0.5567 -0.8203  0.2614
31426SOL     OW  369   6.393   3.486   4.413  0.1522 -0.3424 -0.0147
31426SOL    HW1  370   6.434   3.420   4.357 -1.5679 -0.4023 -1.2807
31426SOL    HW2  371   6.467   3.533   4.453  1.4347 -2.6875  0.5829
31427SOL     OW  372   7.420  10.442   9.515 -0.2040  0.3895 -0.7739
31427SOL    HW1  373   7.366  10.509   9.474 -0.4174 -0.2074 -1.4928
31427SOL    HW2  374   7.494  10.490   9.553 -0.3289  1.0194 -1.3133
31428SOL     OW  375   7.864   2.782   8.892  0.5188 -0.3919 -0.1860
31428SOL    HW1  376   7.795   2.803   8.955 -0.1127  1.0780 -1.2983
31428SOL    HW2  377   7.850   2.690   8.871 -0.4049 -0.4107  0.4487
31429SOL     OW  378   9.351   6.257   4.849  0.6432 -0.1408 -0.1827
31429SOL    HW1  379   9.303   6.251   4.766  1.0039 -2.0498 -0.2872
31429SOL    HW2  380   9.437   6.291   4.825  0.6465 -0.4070 -0.5457
31430SOL     OW  381   4.120   2.278   0.595  0.8157  0.0493 -0.4933
31430SOL    HW1  382   4.171   2.359   0.596  1.7449 -0.5250  0.4080
31430SOL    HW2  383   4.159   2.227   0.524  1.9957 -0.6629  0.6152
31431SOL     OW  384   4.769   8.885   8.944  0.8025  0.3612 -0.1018
31431SOL    HW1  385   4.810   8.801   8.926  1.3575  0.3944  0.9113
31431SOL    HW2  386   4.782   8.898   9.038  0.2245  1.3143 -0.1407
31432SOL     OW  387   6.133   3.096   8.091 -0.3566  0.1435 -0.4696
31432SOL    HW1  388   6.120   3.111   8.185 -1.0204 -5.0307  0.5504
31432SOL    HW2  389   6.228   3.089   8.080 -0.2630  1.0316 -0.2896
31433SOL     OW  390  10.759   0.813   6.889  0.2757  0.0177  0.1389
31433SOL    HW1  391  10.671   0.834   6.920 -0.3391  0.0004 -1.4946
31433SOL    HW2  392  10.813   0.814   6.968 -1.0411  0.7656  1.0747
31434SOL     OW  393   7.147   1.669   0.516 -0.1435  0.2387 -0.0954
31434SOL    HW1  394   7.218   1.728   0.492 -0.1150  1.3329  2.3202
31434SOL    HW2  395   7.155   1.595   0.456  2.1614  0.9940 -0.8021
31435SOL     OW  396   6.031  10.835   3.499 -0.5500 -0.4703 -0.0230
31435SOL    HW1  397   5.949  10.867   3.463 -0.6835 -1.1366 -0.3264
31435SOL    HW2  398   6.077  10.914   3.528  0.2213  0.2841 -2.9833
31436SOL     OW  399   8.095   2.656   0.552 -0.6408 -0.5407  0.6130
31436SOL    HW1  400   8.082   2.699   0.637 -0.7600 -1.5596  1.1292
31436SOL    HW2  401   8.035   2.701   0.493 -1.4066 -0.5717  1.3432
31437SOL     OW  402   5.954   7.187  10.035 -0.1897  0.3703 -0.2154
31437SOL    HW1  403   5.862   7.160  10.044  0.1234 -1.5507 -2.0831
31437SOL    HW2  404   5.951   7.267   9.982 -0.7119 -0.8317 -2.0666
31438SOL     OW  405   9.669   0.822   4.502 -0.2418  0.3104  0.2281
31438SOL    HW1  406   9.695   0.733   4.525 -0.1589  0.3870  0.4379
31438SOL    HW2  407   9.594   0.840   4.559 -0.6353  0.1583 -0.2414
31439SOL     OW  408   1.904   2.241   7.310  0.0716 -0.3058  0.4408
31439SOL    HW1  409   1.827   2.205   7.265 -1.0280 -0.4888  2.3088
31439SOL    HW2  410   1.875   2.326   7.342  0.7752 -0.2044  0.8312
31440SOL     OW  411   0.223   6.553   7.251  0.0063  0.8114  0.5003
31440SOL    HW1  412   0.177   6.539   7.333 -1.3429 -3.1544 -0.7293
31440SOL    HW2  413   0.155   6.545   7.184  1.6284  0.3510 -1.1619
31441SOL     OW  414   8.926   4.256   9.751  0.1347  0.5585 -0.2849
31441SOL    HW1  415   8.987   4.245   9.678  0.3752 -0.4698  0.0580
31441SOL    HW2  416   8.848   4.207   9.724 -0.0887  0.8708 -0.2071
31442SOL     OW  417   2.502   0.877   9.485 -0.5816 -0.4237 -0.6017
31442SOL    HW1  418   2.542   0.792   9.468 -0.4660 -0.8483  1.5570
31442SOL    HW2  419   2.576   0.938   9.486  0.0247 -1.0542  2.3657
31443SOL     OW  420   4.368   1.774   4.927  0.4164  0.2584  0.5071
31443SOL    HW1  421   4.441   1.772   4.865  0.4594  0.2594  0.5579
31443SOL    HW2  422   4.326   1.689   4.918  0.5584  0.1743  0.6397
31444SOL     OW  423   3.486   6.541   9.212 -0.4093 -0.2132  0.4038
31444SOL    HW1  424   3.412   6.501   9.257 -0.1256  0.1289  1.1939
31444SOL    HW2  425   3.562   6.518   9.266  0.2125 -1.3425 -0.8867
31445SOL     OW  426   7.036   9.541   1.104 -0.0151  0.3004 -0.1910
31445SOL    HW1  427   6.954   9.554   1.153 -1.1704  0.9487 -2.1723
31445SOL    HW2  428   7.020   9.583   1.020  2.0978 -0.2698 -0.9304
31446SOL     OW  429   5.513   4.473   4.995  0.1915  0.3794  0.0593
31446SOL    HW1  430   5.601   4.455   4.962  0.2949  2.0256 -0.6398
31446SOL    HW2  431   5.519   4.561   5.031 -0.8507 -0.0089  1.2419
31447SOL     OW  432   0.673   1.308   6.969 -0.5623  0.1272 -0.0437
31447SOL    HW1  433   0.667   1.326   6.875 -0.2617  0.5153  0.0075
31447SOL    HW2  434   0.642   1.218   6.979 -1.4819  0.3876 -0.4018
31448SOL     OW  435   0.243   1.611   7.293  0.0603 -0.2680 -0.4337
31448SOL    HW1  436   0.314   1.638   7.350  1.3339 -1.5945 -1.2986
31448SOL    HW2  437   0.168   1.662   7.321  1.2278  0.8093  0.8507
31449SOL     OW  438   5.866   9.142   1.029  0.0423  0.5370  0.0603
31449SOL    HW1  439   5.921   9.154   0.952 -0.1226  0.2364 -0.1062
31449SOL    HW2  440   5.796   9.084   1.000 -0.2094  0.6941  0.3459
31450SOL     OW  441   8.498  10.824   6.122  0.5297 -0.3468  0.5775
31450SOL    HW1  442   8.449  10.788   6.048  1.6403 -0.9846  0.1166
31450SOL    HW2  443   8.435  10.878   6.169 -0.7565 -1.5756  0.3440
31451SOL     OW  444   7.572   2.720   7.534  0.6035  0.2370  0.3365
31451SOL    HW1  445   7.567   2.815   7.520  1.2539  0.4645  1.4848
31451SOL    HW2  446   7.551   2.709   7.627  0.5199 -0.7469  0.2045
31452SOL     OW  447   5.063   9.706  10.236  0.5735  0.1232 -0.0510
31452SOL    HW1  448   5.120   9.776  10.266  2.7133 -2.3129  2.1797
31452SOL    HW2  449   4.983   9.715  10.289  0.2023  1.6539 -0.8364
31453SOL     OW  450   7.136   0.887   8.118 -0.3841 -0.4717  0.0258
31453SOL    HW1  451   7.194   0.952   8.157 -1.2123 -0.5270  1.4404
31453SOL    HW2  452   7.048   0.916   8.143 -0.8137 -1.6803 -0.0028
31454SOL     OW  453   5.651   6.106   1.672  0.3593 -0.0190 -0.5514
31454SOL    HW1  454   5.677   6.054   1.749 -1.4365  1.8520  1.4582
31454SOL    HW2  455   5.721   6.170   1.662  2.0583 -2.0023 -2.3963
31455SOL     OW  456   3.699   2.136   1.055 -0.7210  0.0666 -0.2276
31455SOL    HW1  457   3.618   2.153   1.007 -0.9087  1.0261  0.3890
31455SOL    HW2  458   3.731   2.223   1.079  2.0671 -0.0648 -2.9508
31456SOL     OW  459   7.540   6.334  10.898 -0.0045 -0.5170  0.0991
31456SOL    HW1  460   7.484   6.270  10.854 -0.2583 -0.6410  0.6026
31456SOL    HW2  461   7.509   6.419  10.867 -0.0363 -0.6142 -0.1336
31457SOL     OW  462   1.128   1.008   9.504  0.4669 -0.1071  0.0090
31457SOL    HW1  463   1.132   1.099   9.474  0.9804 -0.0879  0.1225
31457SOL    HW2  464   1.132   0.956   9.423  0.5487 -0.0326 -0.0352
31458SOL     OW  465  10.236   9.285   2.975  0.0010  0.7264  0.1219
31458SOL    HW1  466  10.205   9.363   3.021  1.7007  1.1533  0.6115
31458SOL    HW2  467  10.230   9.215   3.040 -1.0758  0.5351 -0.1707
31459SOL     OW  468   5.136   6.888   3.878 -0.2897  0.3272  0.0189
31459SOL    HW1  469   5.077   6.816   3.856 -0.2587  0.6942 -1.3134
31459SOL    HW2  470   5.077   6.963   3.889 -0.2781  0.2139  0.9941
31460SOL     OW  471   7.775   9.805   2.911 -0.1477 -0.2168  0.4062
31460SOL    HW1  472   7.858   9.797   2.865  0.0588 -0.0593  0.7531
31460SOL    HW2  473   7.794   9.862   2.985 -0.6531  0.1515  0.2595
31461SOL     OW  474   7.565   4.815   9.187 -0.2705  0.2020 -0.2188
31461SOL    HW1  475   7.501   4.885   9.200  0.3489  0.7960 -0.3239
31461SOL    HW2  476   7.594   4.792   9.276 -0.9823 -0.4087 -0.1374
31462SOL     OW  477   3.635   8.121   6.238 -0.2005 -0.2539  0.1665
31462SOL    HW1  478   3.573   8.185   6.202  1.7931  0.7181 -1.7993
31462SOL    HW2  479   3.651   8.060   6.165  2.2955  0.4584  0.0204
31463SOL     OW  480  10.220   9.847   7.881 -0.1983 -0.3747 -0.1479
31463SOL    HW1  481  10.187   9.920   7.829  0.9656 -1.1869 -2.1179
31463SOL    HW2  482  10.178   9.770   7.843  2.8425 -1.3191 -1.9740
31464SOL     OW  483   3.038   7.413   4.822 -0.2893  0.1389 -0.0135
31464SOL    HW1  484   2.990   7.477   4.874  0.5160  0.0602  0.8569
31464SOL    HW2  485   3.127   7.415   4.858 -0.0211 -0.8089 -0.5864
31465SOL     OW  486  10.003   0.717   0.920 -1.2473 -0.2458  0.6853
31465SOL    HW1  487  10.067   0.664   0.966  0.4701  1.5663  0.5069
31465SOL    HW2  488   9.921   0.701   0.967 -0.1724 -0.7427  2.4961
31466SOL     OW  489   7.589   0.854   8.513  0.4295  0.3743 -0.6838
31466SOL    HW1  490   7.615   0.928   8.458  0.6764  1.0680  0.3393
31466SOL    HW2  491   7.672   0.816   8.541  0.3107  0.5487 -0.0981
31467SOL     OW  492   3.414  10.509  10.169 -0.8026  0.3175  0.4033
31467SOL    HW1  493   3.469  10.534  10.244 -0.6094  1.0423  0.0382
31467SOL    HW2  494   3.327  10.542  10.191 -0.5592  1.3335 -0.0555
31468SOL     OW  495   5.768   9.558   6.261 -0.2444  0.0992  0.1146
31468SOL    HW1  496   5.776   9.551   6.166  1.3145 -1.9561  0.3261
31468SOL    HW2  497   5.851   9.524   6.295 -0.2578  1.9042  2.2229
31469SOL     OW  498   4.738  10.655   7.708 -0.5076 -0.0350  0.0756
31469SOL    HW1  499   4.821  10.609   7.706 -0.2219  0.4876 -0.6705
31469SOL    HW2  500   4.736  10.699   7.793  0.7876  1.3815 -0.5892
31470SOL     OW  501   0.808   4.374   8.878  0.6390 -0.1142  0.6972
31470SOL    HW1  502   0.889   4.329   8.905  0.7103  0.7107  1.9263
31470SOL    HW2  503   0.835   4.430   8.806  0.3483 -2.7372 -1.6345
31471SOL     OW  504   8.645   7.285   6.407  0.0587 -0.1502  0.4531
31471SOL    HW1  505   8.692   7.367   6.392  1.5141 -1.0102  0.1131
31471SOL    HW2  506   8.713   7.222   6.431 -1.2626 -0.7368  3.0671
31472SOL     OW  507   2.784   8.238   1.599  0.2237 -0.8324  0.2163
31472SOL    HW1  508   2.800   8.254   1.506 -0.7579  0.4342  0.2498
31472SOL    HW2  509   2.869   8.253   1.640  0.0206  1.6416 -0.1251
31473SOL     OW  510   3.126   7.109   6.005 -0.6765  0.2427  0.0834
31473SOL    HW1  511   3.149   7.020   6.030  0.3901  0.5023  0.0502
31473SOL    HW2  512   3.139   7.111   5.910 -0.5735  0.4699  0.1018
31474SOL     OW  513   4.792   3.846  10.575 -0.4641  0.8447  0.3269
31474SOL    HW1  514   4.702   3.866  10.549 -0.1731  1.0515 -0.5385
31474SOL    HW2  515   4.841   3.842  10.493  0.1087 -0.3506  0.6956
31475SOL     OW  516   2.688   3.868   4.405  0.0042 -0.5520 -0.2950
31475SOL    HW1  517   2.607   3.821   4.387  1.8159 -3.3457 -1.9368
31475SOL    HW2  518   2.703   3.854   4.499 -0.0475 -2.4678 -0.5312
31476SOL     OW  519   9.502   0.311   7.801 -0.1248  0.3636 -0.0798
31476SOL    HW1  520   9.488   0.218   7.820 -0.5035  0.3719 -0.3069
31476SOL    HW2  521   9.547   0.311   7.717  0.0531  0.3824  0.0139
31477SOL     OW  522   8.341   7.044   3.030 -0.2193  0.3650 -0.0572
31477SOL    HW1  523   8.302   7.129   3.050  1.2390  0.5286  2.5601
31477SOL    HW2  524   8.354   7.003   3.115  0.6163 -1.8097 -1.1544
31478SOL     OW  525   6.572   1.041   0.503  0.1115 -0.8725 -0.4414
31478SOL    HW1  526   6.537   0.958   0.471 -0.0017 -0.4174 -1.5101
31478SOL    HW2  527   6.501   1.104   0.489  0.8068 -0.2518 -1.2388
31479SOL     OW  528   2.285   7.371   5.537  0.2305  0.4805  0.0405
31479SOL    HW1  529   2.205   7.327   5.510  0.4475 -0.1248  0.3731
31479SOL    HW2  530   2.282   7.371   5.632  0.1921  1.2670  0.0414
31480SOL     OW  531   7.656   5.407   8.737  0.0431  0.0284  0.3963
31480SOL    HW1  532   7.611   5.442   8.814 -0.8696  0.0690 -0.1466
31480SOL    HW2  533   7.723   5.472   8.717 -1.4904  1.4241 -0.4750
31481SOL     OW  534   8.037   3.074   2.978 -0.4927  0.0456 -0.4546
31481SOL    HW1  535   8.121   3.107   2.945 -1.3873  1.7223 -1.1959
31481SOL    HW2  536   8.010   3.139   3.043 -2.1290  0.6395 -1.6557
31482SOL     OW  537   7.255  10.504  10.551  0.2241  0.1407  0.1861
31482SOL    HW1  538   7.300  10.548  10.480 -2.4630 -0.5104 -2.0849
31482SOL    HW2  539   7.162  10.511  10.529 -0.5439 -3.1732  1.7597
31483SOL     OW  540  10.737   4.831   8.888  0.2200  0.2946 -0.4747
31483SOL    HW1  541  10.766   4.919   8.861 -1.1213  0.8266 -0.2782
31483SOL    HW2  542  10.738   4.780   8.807  0.1945  0.7232 -0.7502
31484SOL     OW  543   5.325   0.704   6.430  0.3016 -0.2825  0.4298
31484SOL    HW1  544   5.339   0.610   6.417  1.2327 -0.2738  1.2008
31484SOL    HW2  545   5.413   0.738   6.450 -0.3039  0.4128  2.1060
31485SOL     OW  546   2.224   1.448   5.178  1.2403 -0.3263 -0.2786
31485SOL    HW1  547   2.245   1.367   5.131  0.8087 -1.0461  0.7366
31485SOL    HW2  548   2.292   1.455   5.246  2.0778  0.8992 -1.1826
31486SOL     OW  549   8.419   6.377   8.081  0.0245 -0.4204 -0.4380
31486SOL    HW1  550   8.330   6.346   8.070  0.0943 -0.8385  0.1786
31486SOL    HW2  551   8.473   6.298   8.075  0.2058 -0.4437  1.0702
31487SOL     OW  552   6.197   6.458   5.405  0.1606  0.1863  0.1056
31487SOL    HW1  553   6.164   6.376   5.369 -1.2435  1.0472 -0.6301
31487SOL    HW2  554   6.243   6.499   5.332  1.6075 -0.2815  0.6988
31488SOL     OW  555   5.673   0.015   3.741 -0.1222 -0.0648 -0.2709
31488SOL    HW1  556   5.669  -0.056   3.806  0.3709  0.3034  0.1745
31488SOL    HW2  557   5.754   0.062   3.763 -2.1367  2.8048  1.7245
31489SOL     OW  558   9.568   5.414   4.792  0.0703 -0.3344  0.4876
31489SOL    HW1  559   9.495   5.450   4.842 -0.9961 -2.2442  0.4270
31489SOL    HW2  560   9.529   5.343   4.740  1.9967 -1.5641  0.5977
31490SOL     OW  561   6.304   3.504   2.603  0.1184  0.4222 -0.3338
31490SOL    HW1  562   6.280   3.515   2.511  0.6347  0.8581 -0.4168
31490SOL    HW2  563   6.395   3.476   2.601  0.0030  0.0095  0.0334
31491SOL     OW  564   0.398   6.435   0.757 -0.2205 -0.0929 -0.2595
31491SOL    HW1  565   0.335   6.445   0.685 -0.7450  0.4484  0.2642
31491SOL    HW2  566   0.476   6.481   0.726  0.0026 -0.9287 -0.9922
31492SOL     OW  567   0.011   7.625   0.147  0.1715  0.3200 -0.1568
31492SOL    HW1  568  -0.069   7.573   0.141  0.6670 -0.3416 -1.3518
31492SOL    HW2  569  -0.019   7.715   0.144 -0.5181  0.0766 -0.9520
31493SOL     OW  570   7.811   5.522  10.434  0.3944  0.4212  0.2381
31493SOL    HW1  571   7.793   5.455  10.369  0.3978  0.6642 -0.0156
31493SOL    HW2  572   7.726   5.562  10.451  0.5587  1.0503 -0.3860
31494SOL     OW  573   0.273   6.003   2.581 -0.1183 -0.4735 -0.4460
31494SOL    HW1  574   0.281   6.093   2.550 -1.0754 -0.3414 -0.3496
31494SOL    HW2  575   0.276   5.950   2.502  1.3530 -0.4362 -0.4329
31495SOL     OW  576   1.787   0.087   9.965  0.0711 -0.4551  0.4794
31495SOL    HW1  577   1.772   0.153  10.033 -0.8057 -3.2696  3.2656
31495SOL    HW2  578   1.865   0.040   9.995 -0.9359 -2.4109  0.1414
31496SOL     OW  579  10.247   6.330   9.901 -0.2202  0.3898  0.7423
31496SOL    HW1  580  10.306   6.257   9.915  0.8465  1.1832  0.5457
31496SOL    HW2  581  10.294   6.406   9.937 -0.4272  1.2990 -0.7995
31497SOL     OW  582   8.561   0.905   8.357  0.2577  0.0486  0.0351
31497SOL    HW1  583   8.628   0.972   8.343  0.4290 -0.3545 -1.1927
31497SOL    HW2  584   8.595   0.828   8.311 -0.1743 -0.7339  0.9966
31498SOL     OW  585   5.011   5.736   5.954 -0.0930 -0.1647  0.6660
31498SOL    HW1  586   5.076   5.737   6.025  0.4532  1.3360  0.1895
31498SOL    HW2  587   4.961   5.817   5.966 -1.4500 -0.9611  0.6093
31499SOL     OW  588   8.997   1.586   5.272  0.2370 -0.3831 -0.2877
31499SOL    HW1  589   8.962   1.675   5.270  0.4253 -0.3011  0.0511
31499SOL    HW2  590   9.039   1.578   5.358 -1.3978 -1.4134  0.4628
31500SOL     OW  591   5.730   5.383   4.759 -0.1477 -0.3760 -0.6802
31500SOL    HW1  592   5.724   5.298   4.803 -1.0644 -1.0096 -1.9395
31500SOL    HW2  593   5.673   5.441   4.810  1.2056 -0.2489  0.7245
31501SOL     OW  594   6.911  10.517   6.176  0.2692 -0.1768 -0.3094
31501SOL    HW1  595   6.970  10.528   6.101  0.7845  0.1055  0.1337
31501SOL    HW2  596   6.905  10.605   6.215  0.7772 -0.5174  0.5536
31502SOL     OW  597   9.592   6.953   6.878  0.2145 -0.4006 -0.5975
31502SOL    HW1  598   9.592   6.933   6.971 -2.2512 -0.5559 -0.5602
31502SOL    HW2  599   9.593   7.049   6.875 -1.0512 -0.3607 -0.3320
31503SOL     OW  600   7.533   1.479   2.809 -0.3717  0.2251 -0.3784
31503SOL    HW1  601   7.518   1.441   2.722  0.4029  0.0551 -0.4463
31503SOL    HW2  602   7.622   1.452   2.831 -0.1133  1.3012 -0.0565
31504SOL     OW  603   5.545   9.517   2.494 -0.4508  0.0128  0.0360
31504SOL    HW1  604   5.585   9.434   2.521 -2.4903 -1.3442 -0.8725
31504SOL    HW2  605   5.607   9.554   2.431  0.2068 -1.1235 -0.0100
31505SOL     OW  606   7.826   5.191   6.759  0.2887  0.2664 -0.1699
31505SOL    HW1  607   7.891   5.150   6.817 -0.0911  0.5702  0.4802
31505SOL    HW2  608   7.760   5.227   6.819 -1.5706 -1.7865 -0.8466
31506SOL     OW  609   2.564   4.936   1.809  0.3911 -0.3673 -0.3593
31506SOL    HW1  610   2.521   4.851   1.818 -2.6753  0.7418 -2.6424
31506SOL    HW2  611   2.509   4.996   1.860  2.7788  0.2752  1.6277
31507SOL     OW  612   6.495   4.660   4.864 -0.1639  0.0355  0.4080
31507SOL    HW1  613   6.571   4.603   4.851 -0.1217  0.3893 -1.0798
31507SOL    HW2  614   6.521   4.744   4.827 -0.9446  0.4369  0.7460
31508SOL     OW  615   2.127   1.299   7.387 -0.4318  0.0447  0.2962
31508SOL    HW1  616   2.167   1.298   7.300  1.8030 -1.3233  1.2476
31508SOL    HW2  617   2.155   1.381   7.426  0.3954 -0.2992  0.4604
31509SOL     OW  618   5.282   2.110   4.219 -0.1683 -0.0202 -0.4333
31509SOL    HW1  619   5.304   2.146   4.133  1.0281 -0.7881 -0.4815
31509SOL    HW2  620   5.206   2.055   4.204 -0.5867  0.6349 -0.7910
31510SOL     OW  621   7.649   0.645   0.839  0.5127  0.2329 -0.2024
31510SOL    HW1  622   7.569   0.685   0.803  0.6157 -0.3217 -1.0652
31510SOL    HW2  623   7.655   0.560   0.796  0.0604 -0.9433  1.9155
31511SOL     OW  624   8.897   3.601   9.662  0.2039 -0.0399  0.1507
31511SOL    HW1  625   8.851   3.644   9.734  0.3429 -0.9383  0.7923
31511SOL    HW2  626   8.918   3.513   9.695  1.0747 -0.1585 -0.6566
31512SOL     OW  627   2.053   3.154   9.724  0.3898  0.2078  0.7561
31512SOL    HW1  628   2.025   3.245   9.712  0.9958  0.2503 -0.4519
31512SOL    HW2  629   2.127   3.161   9.785  0.8806  0.6168  0.1345
31513SOL     OW  630   2.397  10.118   7.847 -0.1466 -0.0937  0.7018
31513SOL    HW1  631   2.492  10.116   7.840 -0.1327  0.7670  0.5084
31513SOL    HW2  632   2.374  10.039   7.897  0.5101 -1.2649 -0.7918
31514SOL     OW  633   2.801   9.305   3.853  0.1050 -0.4657 -0.2364
31514SOL    HW1  634   2.788   9.279   3.944  0.1375 -0.2064 -0.1571
31514SOL    HW2  635   2.721   9.278   3.809 -0.4639  0.5579  0.1268
31515SOL     OW  636   9.805   4.083   0.571 -0.9511  1.0532  1.2768
31515SOL    HW1  637   9.745   4.136   0.622 -0.4621  1.5914  1.3000
31515SOL    HW2  638   9.892   4.117   0.592 -0.7081  1.0080  0.4230
31516SOL     OW  639   9.329   7.993   1.145  0.0659  0.0665 -0.3702
31516SOL    HW1  640   9.246   8.001   1.191 -0.8712  2.8264 -2.3028
31516SOL    HW2  641   9.327   7.905   1.107 -1.3889 -0.3453  0.5858
31517SOL     OW  642   5.279   0.258   2.276  0.0318 -0.3313  0.5378
31517SOL    HW1  643   5.257   0.169   2.302 -1.0781 -0.5964 -1.1640
31517SOL    HW2  644   5.220   0.313   2.327  0.1457 -0.6127  0.9794
31518SOL     OW  645   9.852  10.198   5.914  0.2625 -0.2217  0.0701
31518SOL    HW1  646   9.836  10.287   5.945 -0.5508 -0.0773 -0.7101
31518SOL    HW2  647   9.879  10.209   5.823 -1.4024 -0.8335 -0.5454
31519SOL     OW  648   4.229   7.431   0.144 -0.5314 -0.0208  0.5622
31519SOL    HW1  649   4.285   7.360   0.176 -0.1162  0.1714  0.2636
31519SOL    HW2  650   4.150   7.386   0.113 -0.9316 -0.2214  1.7983
31520SOL     OW  651   4.748   4.162   9.795 -0.0050 -0.1326  0.0413
31520SOL    HW1  652   4.766   4.217   9.719 -2.0561  1.7506  0.8082
31520SOL    HW2  653   4.656   4.137   9.785 -0.2803  0.0691  1.8445
31521SOL     OW  654   6.363  10.625   1.808  0.0581  0.4834  0.1227
31521SOL    HW1  655   6.328  10.713   1.826 -0.2827 -0.0558  2.3022
31521SOL    HW2  656   6.370  10.584   1.893  0.9061 -1.3868 -0.8000
31522SOL     OW  657   5.827   9.665   3.229  0.7982 -0.2584  0.1982
31522SOL    HW1  658   5.741   9.706   3.236  2.2286  2.9097  0.6887
31522SOL    HW2  659   5.847   9.667   3.136 -0.0752 -2.1152 -0.0776
31523SOL     OW  660   0.877   1.708   6.131  0.0624 -0.6111  0.5063
31523SOL    HW1  661   0.787   1.736   6.144 -0.0698 -1.1194  0.7010
31523SOL    HW2  662   0.872   1.643   6.062  0.2850 -0.6221  0.5005
31524SOL     OW  663   8.860   3.243   7.328 -0.3638 -0.0859  0.3118
31524SOL    HW1  664   8.935   3.294   7.296 -2.3779  1.7782 -1.8111
31524SOL    HW2  665   8.848   3.176   7.261 -1.9954  1.1377 -0.6778
31525SOL     OW  666   3.844   7.691   2.015 -0.4576 -0.8450 -0.7492
31525SOL    HW1  667   3.755   7.725   2.002 -0.4925 -0.5880  0.1028
31525SOL    HW2  668   3.834   7.596   2.009 -0.9780 -0.8747  0.3064
31526SOL     OW  669   6.871   8.143   3.942  0.4082 -0.0108  0.3207
31526SOL    HW1  670   6.937   8.190   3.891 -0.7953  1.3585 -0.0409
31526SOL    HW2  671   6.921   8.096   4.009  1.6811  1.6812  0.6107
31527SOL     OW  672   2.031   7.288   9.182 -0.9683 -0.3108 -0.2728
31527SOL    HW1  673   2.018   7.374   9.223  0.8507  0.1773 -0.6239
31527SOL    HW2  674   2.087   7.240   9.242 -1.4814 -1.0550 -0.3683
31528SOL     OW  675   0.688   9.574  10.599 -0.0323  0.3059  0.0412
31528SOL    HW1  676   0.628   9.534  10.536 -1.7843  1.8234  0.6349
31528SOL    HW2  677   0.640   9.650  10.632  2.3217  1.6937  0.4632
31529SOL     OW  678   4.092   1.872   3.285 -0.3646  0.2930  0.4030
31529SOL    HW1  679   4.071   1.784   3.253  3.1854 -0.7365  0.4677
31529SOL    HW2  680   4.073   1.868   3.379  2.4182 -1.5220  1.0151
31530SOL     OW  681   6.542   1.455   5.736 -0.0228 -0.5090 -0.1480
31530SOL    HW1  682   6.492   1.482   5.814  1.0542 -0.2271  0.4605
31530SOL    HW2  683   6.501   1.373   5.709 -1.2011  0.0202 -0.0319
31531SOL     OW  684   1.232  10.314   2.580 -0.3164  0.6373  0.1787
31531SOL    HW1  685   1.232  10.361   2.664 -0.6126 -0.0723  0.5832
31531SOL    HW2  686   1.167  10.359   2.527 -1.7121 -0.2316  1.0942
31532SOL     OW  687   7.204   1.453   7.809  0.2859  0.6452 -0.2468
31532SOL    HW1  688   7.186   1.432   7.900  1.5458  1.3143  0.1791
31532SOL    HW2  689   7.215   1.368   7.766  0.0046  0.3330  0.2996
31533SOL     OW  690   1.970   7.548   7.458 -0.0647  0.0714 -0.0226
31533SOL    HW1  691   1.888   7.596   7.459  0.5173  1.1327 -0.8854
31533SOL    HW2  692   1.954   7.472   7.513 -1.4884  0.4699  0.1536
31534SOL     OW  693   2.456   6.976   3.443 -0.2983  0.2830 -0.0021
31534SOL    HW1  694   2.440   6.882   3.441  1.2669  0.0041 -1.2488
31534SOL    HW2  695   2.443   7.005   3.353  0.5297  0.9982  0.0943
31535SOL     OW  696   3.894   7.105   9.416 -0.2245 -0.3192 -0.0149
31535SOL    HW1  697   3.819   7.068   9.463 -0.2155 -0.9252 -0.4701
31535SOL    HW2  698   3.907   7.191   9.456 -1.3960 -0.0483 -0.1903
31536SOL     OW  699   1.965   8.892   6.072  0.3199 -0.1025 -0.1872
31536SOL    HW1  700   1.982   8.953   6.000  0.0589 -0.8817 -0.9236
31536SOL    HW2  701   2.051   8.855   6.092 -0.0048 -2.1518 -2.1981
31537SOL     OW  702   9.303   8.071  10.064  0.0094  0.1300 -0.5910
31537SOL    HW1  703   9.231   8.112  10.112 -0.0742  0.0742 -0.6675
31537SOL    HW2  704   9.371   8.056  10.130  0.2146  0.7895 -0.6391
31538SOL     OW  705   5.795   7.753   5.652 -0.5415  0.3641  0.9037
31538SOL    HW1  706   5.782   7.833   5.602  1.2855 -0.3510 -0.8027
31538SOL    HW2  707   5.796   7.683   5.587  2.5316 -0.5373  1.7569
31539SOL     OW  708   2.083   5.719  10.467  0.0672 -0.3710  0.5624
31539SOL    HW1  709   2.036   5.659  10.524 -0.3697 -1.4246 -0.8479
31539SOL    HW2  710   2.133   5.662  10.409 -0.0175  0.6459 -0.5392
31540SOL     OW  711   5.994   1.829  10.235  0.6498 -0.1737  0.0634
31540SOL    HW1  712   6.065   1.823  10.298  1.2720 -1.0597 -0.6954
31540SOL    HW2  713   5.919   1.789  10.280  0.6235  0.7530  0.8612
31541SOL     OW  714   6.049   6.824   0.486  0.0412  0.5053 -0.1305
31541SOL    HW1  715   6.091   6.758   0.431 -0.9081 -0.7712  0.6466
31541SOL    HW2  716   6.071   6.907   0.443  0.5675 -0.3491 -1.6015
31542SOL     OW  717   7.943   2.866   7.623  0.1029 -1.1220  0.2089
31542SOL    HW1  718   8.022   2.920   7.612 -0.0883 -0.9612 -0.4187
31542SOL    HW2  719   7.897   2.873   7.539 -1.0659 -0.4434  0.8807
31543SOL     OW  720   4.598   9.564   0.251 -0.0764  0.7935 -0.2859
31543SOL    HW1  721   4.669   9.570   0.316 -0.6142 -0.2320  0.4326
31543SOL    HW2  722   4.522   9.601   0.295 -0.3217  0.5838 -0.5333
31544SOL     OW  723   1.360   1.926   2.301  0.2237 -0.1023  0.0533
31544SOL    HW1  724   1.361   2.021   2.291 -0.0784 -0.2000 -1.0196
31544SOL    HW2  725   1.293   1.909   2.368  0.3801  0.4439  0.3480
31545SOL     OW  726   8.543  10.505   9.285 -0.2375  0.2584 -0.2821
31545SOL    HW1  727   8.489  10.547   9.352 -0.0657  1.6029 -0.9658
31545SOL    HW2  728   8.487  10.434   9.251 -0.8264  0.4067  0.3442
31546SOL     OW  729   0.402   6.527   9.146 -0.0558  0.1569  0.5148
31546SOL    HW1  730   0.404   6.612   9.101 -1.0129  1.0004  1.9869
31546SOL    HW2  731   0.370   6.466   9.080  0.6915  0.9155 -0.5866
31547SOL     OW  732   7.108   0.349   4.988 -0.0767  0.1931  0.0568
31547SOL    HW1  733   7.056   0.400   5.051 -0.4181  1.4887 -1.2192
31547SOL    HW2  734   7.047   0.283   4.955 -0.6425  1.0323 -0.6446
31548SOL     OW  735   1.553   7.852   0.500  0.0420  0.2743  0.3341
31548SOL    HW1  736   1.562   7.868   0.406  0.4213  0.1649  0.3513
31548SOL    HW2  737   1.636   7.811   0.526  0.3207  1.1843  0.9113
31549SOL     OW  738   0.168   9.677   0.095  0.4493  0.1645 -0.1279
31549SOL    HW1  739   0.125   9.603   0.137 -0.5812  0.8381  0.0340
31549SOL    HW2  740   0.220   9.718   0.164  0.3047  0.1214  0.0064
31550SOL     OW  741   4.926   8.046   2.431 -0.8844  0.7800  0.9024
31550SOL    HW1  742   5.002   7.999   2.465 -2.0420  0.0559  2.6363
31550SOL    HW2  743   4.885   7.984   2.371 -0.4766  0.9268  0.4669
31551SOL     OW  744   3.125   6.173   5.485 -0.0704 -0.1859  0.1621
31551SOL    HW1  745   3.058   6.182   5.553  0.9126 -2.7784  1.6090
31551SOL    HW2  746   3.089   6.110   5.423 -0.3111  0.9965 -0.9503
31552SOL     OW  747   2.951  10.639  10.502  0.1749  0.7062  0.0598
31552SOL    HW1  748   2.901  10.706  10.547 -0.9159  0.2301 -0.4029
31552SOL    HW2  749   2.898  10.559  10.512 -0.2493  0.6408 -2.2464
31553SOL     OW  750   3.468   0.439   5.048 -0.1411  0.3317 -0.2927
31553SOL    HW1  751   3.376   0.439   5.022  0.1391  2.4166 -1.4445
31553SOL    HW2  752   3.483   0.350   5.082 -2.4444 -0.1751 -0.4513
31554SOL     OW  753   0.109   2.990   4.578 -0.7390 -0.2995  0.0684
31554SOL    HW1  754   0.029   3.028   4.542 -0.4355 -0.6007 -0.9557
31554SOL    HW2  755   0.091   2.896   4.583 -1.1611 -0.1671  1.7492
31555SOL     OW  756   3.985   7.525  10.530 -0.5540  0.3567 -0.0022
31555SOL    HW1  757   3.973   7.616  10.557 -0.0158  0.5013 -0.2381
31555SOL    HW2  758   4.023   7.531  10.443  2.0439 -0.0354  1.0107
31556SOL     OW  759   0.376   7.643   7.424  0.7157 -0.0344 -0.0801
31556SOL    HW1  760   0.394   7.648   7.330 -0.7103  0.0376 -0.3631
31556SOL    HW2  761   0.333   7.558   7.435  1.9490 -0.5987  0.7244
31557SOL     OW  762   6.647   9.731   8.561  0.3443 -0.1949 -0.0430
31557SOL    HW1  763   6.559   9.713   8.594  0.0449  1.4828  0.2043
31557SOL    HW2  764   6.638   9.816   8.518  1.2915 -1.1631 -2.2961
31558SOL     OW  765   6.358   6.706   4.869  0.3963  0.1836 -0.3725
31558SOL    HW1  766   6.407   6.722   4.789 -1.3784  0.4627 -1.4683
31558SOL    HW2  767   6.274   6.671   4.839 -0.7594  1.3493  1.2872
31559SOL     OW  768   1.921  10.072   1.918  0.0369  0.0699 -0.4741
31559SOL    HW1  769   1.929  10.106   2.007 -0.7352  0.7195 -0.6386
31559SOL    HW2  770   1.826  10.068   1.903  0.1527 -0.6634 -1.0289
31560SOL     OW  771   5.232   5.596   5.445 -0.0485  0.0288 -0.2180
31560SOL    HW1  772   5.164   5.642   5.395 -0.4378  0.0794  0.3557
31560SOL    HW2  773   5.186   5.525   5.489  0.1732  0.3678  0.5756
31561SOL     OW  774   1.242  10.218   0.118 -0.1982  0.8355 -0.0395
31561SOL    HW1  775   1.301  10.292   0.111  0.7393  0.3291  1.8301
31561SOL    HW2  776   1.198  10.230   0.202 -0.0791 -0.6731  0.2694
31562SOL     OW  777  10.799   3.244   9.626 -0.4026  0.3216 -0.0057
31562SOL    HW1  778  10.791   3.153   9.598  0.1013  0.6715 -1.3955
31562SOL    HW2  779  10.856   3.284   9.560  0.4502  1.3387  1.2987
31563SOL     OW  780   7.183   4.195  10.819  0.2656  0.1968  0.3649
31563SOL    HW1  781   7.252   4.196  10.752  0.7394  1.5829  0.8530
31563SOL    HW2  782   7.102   4.189  10.769  0.6531  0.3811 -0.3018
31564SOL     OW  783   3.536   4.567   5.435 -0.0416  0.1029  0.1874
31564SOL    HW1  784   3.462   4.620   5.405  0.5975  0.4049 -0.9057
31564SOL    HW2  785   3.595   4.629   5.476 -0.3835 -0.1475  1.1106
31565SOL     OW  786   9.995   2.316   1.550  0.2307 -0.0846  0.1183
31565SOL    HW1  787  10.086   2.297   1.571  0.7228  1.8651 -0.0465
31565SOL    HW2  788   9.986   2.289   1.458  0.4271 -0.9440  0.3451
31566SOL     OW  789   6.825   0.887   1.750 -0.3981  0.4183  0.0022
31566SOL    HW1  790   6.863   0.813   1.798 -0.4515  0.4390  0.0757
31566SOL    HW2  791   6.735   0.892   1.781  0.4347  2.5374  2.4336
31567SOL     OW  792   6.913   8.409   8.457  0.1191  0.4647 -0.3645
31567SOL    HW1  793   6.931   8.318   8.432 -3.0367 -0.1611 -0.8789
31567SOL    HW2  794   6.967   8.461   8.398 -1.7211 -1.1168 -3.7692
31568SOL     OW  795   0.665   6.179   0.426  0.2402 -0.5960 -0.1901
31568SOL    HW1  796   0.659   6.245   0.357 -0.4006 -1.4263 -0.9533
31568SOL    HW2  797   0.714   6.222   0.495 -1.3050  1.1783 -0.0927
31569SOL     OW  798  10.930   7.663   2.433  0.6575 -0.2370 -0.1245
31569SOL    HW1  799  10.913   7.578   2.393  0.0614 -0.7440  1.1467
31569SOL    HW2  800  10.862   7.720   2.397 -0.5349 -0.9512  0.9151
31570SOL     OW  801   9.808   2.998   7.394 -0.4167 -0.0198  0.9796
31570SOL    HW1  802   9.865   3.057   7.444 -1.5624  0.3085  1.9438
31570SOL    HW2  803   9.868   2.946   7.341  0.6781  1.3837  0.7919
31571SOL     OW  804   0.511   5.752   7.655  0.8919  0.2678 -0.1703
31571SOL    HW1  805   0.418   5.742   7.675  0.9205 -0.0980 -0.2203
31571SOL    HW2  806   0.517   5.839   7.616  0.7681  0.8180  1.0013
31572SOL     OW  807   6.650   2.081   2.270 -0.7892 -0.1213  0.0184
31572SOL    HW1  808   6.741   2.058   2.292  0.1154  2.0878 -1.0724
31572SOL    HW2  809   6.626   2.146   2.336 -1.7029 -0.8580  0.4328
31573SOL     OW  810   9.367   6.008   0.475  0.0392  0.1830 -0.1631
31573SOL    HW1  811   9.381   5.963   0.392 -0.7118  0.6188 -0.5412
31573SOL    HW2  812   9.280   6.048   0.466 -0.4753 -0.5788  1.2160
31574SOL     OW  813   1.347   2.708   6.680 -0.1663  0.3968  0.9541
31574SOL    HW1  814   1.367   2.801   6.670 -1.2570  0.7697  2.0082
31574SOL    HW2  815   1.433   2.665   6.679  0.6051  1.7057  3.1935
31575SOL     OW  816  10.296   1.115   6.171 -0.4291  0.0177 -0.1164
31575SOL    HW1  817  10.235   1.051   6.209  0.1335 -0.8455 -0.6254
31575SOL    HW2  818  10.270   1.199   6.209 -0.3885 -0.6985  1.5484
31576SOL     OW  819   0.668  10.137   6.354 -0.2157  0.1999 -0.7331
31576SOL    HW1  820   0.652  10.100   6.441  1.8261 -1.1601 -0.8400
31576SOL    HW2  821   0.633  10.072   6.294  5.2853 -3.1642 -0.9882
31577SOL     OW  822   9.660   9.760  10.077 -0.0978  0.0315 -0.2901
31577SOL    HW1  823   9.567   9.782  10.077 -0.1261  0.1119  1.6387
31577SOL    HW2  824   9.676   9.723   9.991 -1.3700  2.1892 -1.5578
31578SOL     OW  825   0.226   6.329   1.240 -0.1850 -0.1035  0.4468
31578SOL    HW1  826   0.220   6.342   1.145 -0.5631  1.4477  0.6455
31578SOL    HW2  827   0.258   6.240   1.251  1.7512  0.3211 -1.1770
31579SOL     OW  828   7.221  10.153   7.681 -0.1270  0.1090 -1.1365
31579SOL    HW1  829   7.190  10.159   7.590 -0.7767  0.0649 -0.9209
31579SOL    HW2  830   7.218  10.059   7.701  1.0709 -0.0040 -1.4258
31580SOL     OW  831   6.928   7.533   8.712  0.1319  0.0560 -0.4016
31580SOL    HW1  832   6.866   7.558   8.780  0.8309  0.2315  0.1756
31580SOL    HW2  833   6.914   7.439   8.700 -0.8122  0.2452 -0.8613
31581SOL     OW  834   9.373   5.609   4.232  0.2756  0.8154 -0.4062
31581SOL    HW1  835   9.404   5.631   4.319 -0.6924 -0.6016  0.3239
31581SOL    HW2  836   9.302   5.671   4.215 -0.2464  0.4201  0.2730
31582SOL     OW  837   7.588   5.317   9.104 -0.2339 -0.1990  0.3551
31582SOL    HW1  838   7.594   5.353   9.016 -0.8501 -0.5039  0.1856
31582SOL    HW2  839   7.501   5.277   9.108 -0.2903 -0.0121  1.1662
31583SOL     OW  840   4.982   4.601   4.534 -0.5432  0.2346  0.2148
31583SOL    HW1  841   4.957   4.669   4.471 -0.2254 -0.3026 -0.5098
31583SOL    HW2  842   4.902   4.550   4.547 -0.4622 -0.0176 -0.2343
31584SOL     OW  843   3.816   6.644   4.698  0.3433 -0.4547  0.1142
31584SOL    HW1  844   3.889   6.703   4.714  0.5773 -0.6408 -0.2465
31584SOL    HW2  845   3.834   6.568   4.754  0.2409 -0.3484  0.2915
31585SOL     OW  846   2.738   4.600   2.848  0.1750 -0.2751  0.0804
31585SOL    HW1  847   2.805   4.567   2.909  0.5697 -1.4176 -0.9202
31585SOL    HW2  848   2.761   4.560   2.764 -0.9173  0.4999 -0.6108
31586SOL     OW  849   2.958   5.048   0.843 -0.1433 -0.0674 -0.0683
31586SOL    HW1  850   3.013   4.998   0.903 -1.5926 -0.7007  0.8034
31586SOL    HW2  851   2.880   5.070   0.895 -1.1401 -0.0338 -1.5184
31587SOL     OW  852   7.553   1.362   4.864 -0.6954 -0.1239  0.7748
31587SOL    HW1  853   7.599   1.417   4.801  1.0162 -0.7919  1.3701
31587SOL    HW2  854   7.502   1.301   4.810 -0.5704  0.3723  0.0800
31588SOL     OW  855   8.046  10.853  10.268  0.1174 -0.0396 -0.0668
31588SOL    HW1  856   8.058  10.859  10.363 -0.6207  1.5598 -0.0421
31588SOL    HW2  857   8.068  10.940  10.236  0.6741 -0.6509 -1.4197
31589SOL     OW  858   9.344   9.794   2.362  0.0353 -0.2263 -0.2884
31589SOL    HW1  859   9.393   9.822   2.439 -0.8270 -0.4511  0.3604
31589SOL    HW2  860   9.404   9.810   2.288  1.1952 -0.8042  0.4997
31590SOL     OW  861   7.160   7.905   8.245 -0.2125 -0.4664 -0.0132
31590SOL    HW1  862   7.070   7.880   8.265 -0.6001  1.3890  0.8201
31590SOL    HW2  863   7.172   7.880   8.154 -1.8724 -0.0090 -0.4021
31591SOL     OW  864   3.983   2.888   8.401 -0.3849 -0.2114 -0.5312
31591SOL    HW1  865   3.905   2.913   8.450  0.5560 -0.6980  1.3261
31591SOL    HW2  866   4.055   2.932   8.446  0.7348 -2.1129 -0.3250
31592SOL     OW  867   2.996   2.015   2.803 -0.3982  0.7069  0.2296
31592SOL    HW1  868   3.022   1.936   2.757  1.0681 -0.0602  2.2255
31592SOL    HW2  869   2.901   2.009   2.809 -0.4683  0.0346 -1.2125
31593SOL     OW  870   7.279   5.688   4.386  0.0251  0.0113 -0.3160
31593SOL    HW1  871   7.284   5.725   4.298  1.1190 -1.0682 -0.7442
31593SOL    HW2  872   7.248   5.599   4.372  0.5662 -0.2864  0.3533
31594SOL     OW  873   4.115  10.865   1.432 -0.1052 -0.3041  0.0480
31594SOL    HW1  874   4.050  10.854   1.363 -0.1129  1.5039 -0.2793
31594SOL    HW2  875   4.198  10.848   1.389 -0.1745 -0.0167 -0.2061
31595SOL     OW  876   3.741   4.442   5.208  0.7864  0.4223 -0.2253
31595SOL    HW1  877   3.743   4.353   5.245  1.0306  0.9243  1.0023
31595SOL    HW2  878   3.654   4.475   5.232  1.1031  0.9033  0.2609
31596SOL     OW  879   6.880   3.929   4.326  0.4510  0.0180  0.1520
31596SOL    HW1  880   6.798   3.978   4.323 -0.5189 -1.5688 -1.1361
31596SOL    HW2  881   6.943   3.983   4.279 -0.7287 -0.1413 -1.7048
31597SOL     OW  882   2.161   4.902   3.858  0.4310 -0.1949  0.4968
31597SOL    HW1  883   2.190   4.943   3.939  0.8945  0.9523 -0.2389
31597SOL    HW2  884   2.090   4.958   3.826 -0.6324 -1.3362  0.7305
31598SOL     OW  885   3.174   2.175  10.027 -0.1850 -0.0404 -0.0586
31598SOL    HW1  886   3.081   2.182  10.008 -0.2436  1.6428  0.6976
31598SOL    HW2  887   3.190   2.237  10.098  1.9851  1.7476 -1.9460
31599SOL     OW  888   0.737   8.946   9.256  0.0441 -0.3874  0.0031
31599SOL    HW1  889   0.666   8.913   9.310 -0.7602  0.4617 -0.4838
31599SOL    HW2  890   0.705   8.936   9.166 -0.0667  1.2677 -0.1751
31600SOL     OW  891   1.290   5.718   9.663  0.5625  0.0096  0.5834
31600SOL    HW1  892   1.194   5.718   9.664  0.5458  1.0140  0.1883
31600SOL    HW2  893   1.313   5.639   9.614 -0.1096  0.4423 -0.4858
31601SOL     OW  894   8.654  10.053   2.259 -0.3857 -0.2357 -0.2929
31601SOL    HW1  895   8.632  10.076   2.350  1.7901 -0.8163  0.4401
31601SOL    HW2  896   8.591   9.985   2.236 -1.3412  0.3321  0.5569
31602SOL     OW  897   6.882  10.172   7.274  0.1175 -0.5143  0.1202
31602SOL    HW1  898   6.856  10.083   7.250 -0.8191  0.1155 -1.3438
31602SOL    HW2  899   6.904  10.213   7.191 -1.5969  1.2636  0.4709
31603SOL     OW  900   7.707   5.279   6.555  0.3883  0.7213 -0.0595
31603SOL    HW1  901   7.714   5.374   6.558 -1.8010  0.9190  0.6725
31603SOL    HW2  902   7.771   5.248   6.619  0.0707  1.7894  0.7938
31604SOL     OW  903   5.064   8.417   1.821 -0.2817  0.3335  0.3738
31604SOL    HW1  904   5.021   8.492   1.861 -1.0112  0.8490 -1.3383
31604SOL    HW2  905   5.156   8.426   1.848 -1.0626 -0.6257  3.8172
31605SOL     OW  906   2.777   3.214   6.277 -0.8588  0.1856  0.6033
31605SOL    HW1  907   2.804   3.279   6.342  0.2500  0.2325  0.1092
31605SOL    HW2  908   2.855   3.160   6.262 -1.1547  0.0435 -0.5271
31606SOL     OW  909   6.104   4.118   2.114 -0.3215  0.3157  0.1301
31606SOL    HW1  910   6.182   4.137   2.062 -0.1904  0.2384  0.2932
31606SOL    HW2  911   6.137   4.109   2.204 -0.1779 -1.7741 -0.0750
31607SOL     OW  912   3.748   5.174   9.465  0.0538 -0.4414  0.1293
31607SOL    HW1  913   3.763   5.206   9.554 -0.6970  2.4135 -0.6416
31607SOL    HW2  914   3.653   5.168   9.458  0.0221  0.7383 -0.8480
31608SOL     OW  915   3.479   7.833   5.642 -0.3468  0.0048  0.3710
31608SOL    HW1  916   3.437   7.861   5.560 -0.0921  0.1955  0.3030
31608SOL    HW2  917   3.548   7.773   5.614  0.8937  1.4043  0.2900
31609SOL     OW  918   8.608   3.080   9.641  0.4295  0.2534 -0.1859
31609SOL    HW1  919   8.586   3.049   9.553  0.5725 -0.9396  0.1696
31609SOL    HW2  920   8.536   3.049   9.696  0.4621  0.7832  0.1585
31610SOL     OW  921  10.816   9.971   8.366 -0.0145 -0.7532 -0.9590
31610SOL    HW1  922  10.783   9.915   8.297 -1.0519  0.1848 -1.2620
31610SOL    HW2  923  10.908   9.984   8.346 -0.2472 -0.7010 -2.0264
31611SOL     OW  924   2.727   3.209   2.286  0.7264 -0.0548 -0.4084
31611SOL    HW1  925   2.686   3.149   2.349 -0.7158 -1.4597 -2.5764
31611SOL    HW2  926   2.821   3.202   2.304  0.6054 -2.9551 -0.5495
31612SOL     OW  927   8.998   8.506   5.659 -0.0674  0.1832 -0.0413
31612SOL    HW1  928   9.075   8.464   5.620  0.1393  1.5378 -1.2193
31612SOL    HW2  929   9.001   8.596   5.624 -2.1804  0.2631 -0.1231
31613SOL     OW  930   2.204   0.528   0.190  0.4375  0.5647 -0.2570
31613SOL    HW1  931   2.213   0.554   0.281  0.8066  1.1888 -0.4659
31613SOL    HW2  932   2.230   0.606   0.140 -0.4311  0.4628 -0.8900
31614SOL     OW  933   9.430   8.039   2.429  0.4339  0.4105 -0.0903
31614SOL    HW1  934   9.388   7.953   2.433  0.9608  0.1350 -0.3057
31614SOL    HW2  935   9.476   8.047   2.513  0.7319  0.2988 -0.2422
31615SOL     OW  936   3.072   4.029   4.084 -0.3304  0.6407  0.1384
31615SOL    HW1  937   3.008   4.094   4.055 -0.1997  0.4452 -0.6099
31615SOL    HW2  938   3.049   4.013   4.176  0.2801  2.4984  0.6702
31616SOL     OW  939   3.030   9.136   3.560 -0.6761  0.4373 -0.1937
31616SOL    HW1  940   3.091   9.073   3.599 -2.6366 -2.1624 -1.0612
31616SOL    HW2  941   3.087   9.201   3.519  1.4579 -0.2404  1.4618
31617SOL     OW  942   3.554  10.385   0.731  0.1466  0.3254  0.3362
31617SOL    HW1  943   3.505  10.466   0.742  0.3062  0.2961  1.3630
31617SOL    HW2  944   3.620  10.405   0.666 -1.4396  0.2597 -1.3662
31618SOL     OW  945   3.697   4.361   9.140 -0.0846  0.1945  0.9542
31618SOL    HW1  946   3.701   4.323   9.053  0.0795 -0.9858  1.4671
31618SOL    HW2  947   3.724   4.452   9.128  2.0020 -0.4967  0.1065
31619SOL     OW  948   1.226   8.226   8.263 -0.2864  0.5417 -0.0836
31619SOL    HW1  949   1.193   8.263   8.181  0.6503  1.1693 -0.1948
31619SOL    HW2  950   1.316   8.201   8.244 -0.4723 -0.5360  0.3916
31620SOL     OW  951   7.600   8.390   7.055 -0.2741  0.1955 -0.3050
31620SOL    HW1  952   7.644   8.310   7.081  2.1017  1.8486  1.2178
31620SOL    HW2  953   7.508   8.365   7.042  0.5289 -2.8677 -0.7755
31621SOL     OW  954   2.080   5.448   0.040  0.0459  0.1664  0.1648
31621SOL    HW1  955   2.081   5.400  -0.043 -0.1983  0.3840  0.0304
31621SOL    HW2  956   2.166   5.489   0.045  1.0559 -1.9715  1.3136
31622SOL     OW  957   9.639   6.672   8.930  0.6757  0.0814 -0.6727
31622SOL    HW1  958   9.609   6.763   8.923  0.1376  0.0143  0.5719
31622SOL    HW2  959   9.688   6.669   9.012 -0.7895 -1.1436  0.2037
31623SOL     OW  960   2.770   7.605   5.584 -0.3355 -0.0389  0.1884
31623SOL    HW1  961   2.755   7.555   5.504 -1.0789  0.8146 -0.2235
31623SOL    HW2  962   2.861   7.586   5.607  0.2658  0.6127 -1.5171
31624SOL     OW  963   0.953  10.428   5.177  0.1345 -0.3314  0.3411
31624SOL    HW1  964   0.926  10.393   5.092  1.4421  1.6649 -0.9940
31624SOL    HW2  965   0.988  10.352   5.224  1.1768 -1.2060 -1.6876
31625SOL     OW  966   9.510   4.416   1.204  0.0292  1.3666 -0.6125
31625SOL    HW1  967   9.529   4.470   1.282  1.8270  1.8504 -1.3289
31625SOL    HW2  968   9.429   4.370   1.226  1.0263  0.6438  2.0129
31626SOL     OW  969   1.414  10.399   5.889  0.3867  0.8000 -0.2480
31626SOL    HW1  970   1.490  10.385   5.945 -0.0754 -0.2098  0.1568
31626SOL    HW2  971   1.441  10.468   5.827  1.3260  1.0421  0.4147
31627SOL     OW  972   1.870   9.498   9.033 -0.2511  0.2042  0.0604
31627SOL    HW1  973   1.857   9.411   8.994  0.8009  0.3347 -0.6211
31627SOL    HW2  974   1.965   9.507   9.039 -0.3625  0.8144  1.2848
31628SOL     OW  975   4.749   4.762   0.536 -0.0946  0.5996  0.0808
31628SOL    HW1  976   4.666   4.808   0.534  0.1582  1.0555 -0.0220
31628SOL    HW2  977   4.788   4.777   0.450  0.5048  1.1653  0.4397
31629SOL     OW  978   2.741   6.256   8.606 -0.5679 -0.6243 -0.0469
31629SOL    HW1  979   2.670   6.214   8.556 -1.9604  1.6078 -0.1031
31629SOL    HW2  980   2.727   6.350   8.592  0.3689  0.0072  2.7194
31630SOL     OW  981   4.250  10.302   3.355  0.4040  0.7665 -0.3562
31630SOL    HW1  982   4.335  10.333   3.326  1.3784 -0.8722  0.6109
31630SOL    HW2  983   4.249  10.209   3.335 -0.3925  0.3631  1.3489
31631SOL     OW  984   9.031   9.465   7.204  0.2061 -0.5741 -0.0634
31631SOL    HW1  985   9.078   9.428   7.278 -0.3103  1.9350  1.6594
31631SOL    HW2  986   9.065   9.554   7.195 -2.3610  0.4979 -0.3191
31632SOL     OW  987   5.286  10.509   4.582 -0.0670  0.0427 -0.2201
31632SOL    HW1  988   5.336  10.539   4.658 -1.3564 -0.2345  0.7747
31632SOL    HW2  989   5.324  10.556   4.508  2.8955 -1.5186  0.1633
31633SOL     OW  990   8.485   7.493  10.200  0.5568 -0.3082 -0.0521
31633SOL    HW1  991   8.430   7.568  10.219 -0.4246 -0.3461 -2.4117
31633SOL    HW2  992   8.520   7.466  10.285 -2.1673  0.3883  1.3827
31634SOL     OW  993   5.793   1.859   4.864 -0.1448  0.1726 -0.6259
31634SOL    HW1  994   5.828   1.939   4.903 -2.1743  1.3237 -1.0486
31634SOL    HW2  995   5.788   1.877   4.770  1.2678 -1.2311 -1.0135
31635SOL     OW  996   9.424  10.829   5.238 -0.2604  0.0601 -0.0810
31635SOL    HW1  997   9.411  10.735   5.252 -1.8563  0.3072  0.2598
31635SOL    HW2  998   9.411  10.867   5.325  3.0270  0.4049  0.3972
31636SOL     OW  999   9.893   8.934   9.562  0.0808  0.1559  0.1539
31636SOL    HW1 1000   9.904   8.840   9.577 -0.6668 -0.1368 -1.0062
31636SOL    HW2 1001   9.893   8.944   9.467 -0.6067  1.2272  0.2453
31637SOL     OW 1002   4.763   5.126   7.344 -0.4634  0.0263  0.0510
31637SOL    HW1 1003   4.822   5.115   7.270 -0.0812  0.1104  0.3406
31637SOL    HW2 1004   4.772   5.044   7.393  0.5248  0.6165  0.8859
31638SOL     OW 1005   9.735   5.786   9.392  0.1776 -0.0010 -0.0618
31638SOL    HW1 1006   9.681   5.831   9.327 -1.3161 -0.4995  0.7756
31638SOL    HW2 1007   9.807   5.747   9.341 -0.9423 -0.3743 -1.4266
31639SOL     OW 1008   2.441  10.206   3.050  0.2595 -0.0525  0.4490
31639SOL    HW1 1009   2.473  10.127   3.095  0.7596  0.0439  0.2673
31639SOL    HW2 1010   2.416  10.175   2.963  2.0009  0.2633 -0.2034
31640SOL     OW 1011   4.110   8.612   2.147  0.5147 -0.0402 -0.7272
31640SOL    HW1 1012   4.038   8.650   2.198  0.9941 -0.7932  0.5389
31640SOL    HW2 1013   4.068   8.546   2.092  0.5193 -2.9407  2.4213
31641SOL     OW 1014   7.662   2.722   6.366 -0.4453  0.6255  0.0962
31641SOL    HW1 1015   7.670   2.803   6.316  0.7332  1.1408  1.0638
31641SOL    HW2 1016   7.745   2.716   6.415  0.1992 -1.9445 -1.1107
31642SOL     OW 1017  10.844   8.425   1.877 -0.2554  0.5777  0.2211
31642SOL    HW1 1018  10.914   8.362   1.861  1.0065  1.6743  1.1424
31642SOL    HW2 1019  10.815   8.407   1.967  0.2413  1.4098  0.5565
31643SOL     OW 1020   9.111   8.081   2.310  0.2637 -0.4148 -0.1214
31643SOL    HW1 1021   9.172   8.024   2.263  0.8711 -1.0327  1.3658
31643SOL    HW2 1022   9.165   8.125   2.376  0.2292  3.3285 -2.2711
31644SOL     OW 1023   2.626   0.046   1.713 -0.1032  0.3375  0.0136
31644SOL    HW1 1024   2.700   0.100   1.740 -0.7889  1.3186 -0.0215
31644SOL    HW2 1025   2.572   0.039   1.792 -0.2621  0.0908 -0.1150
31645SOL     OW 1026   0.677  10.437   0.400  0.3520 -0.1045 -0.7171
31645SOL    HW1 1027   0.732  10.377   0.449 -0.3736 -1.3772 -1.4014
31645SOL    HW2 1028   0.635  10.383   0.333 -0.7801  1.0437 -0.9960
31646SOL     OW 1029   4.759   5.775   6.594 -0.3579 -0.1519  0.3303
31646SOL    HW1 1030   4.734   5.718   6.522 -0.6277 -0.0856  0.3693
31646SOL    HW2 1031   4.793   5.716   6.661  1.2507 -0.1105 -0.3887
31647SOL     OW 1032   8.972   1.359  10.432  0.7912 -0.4855 -0.4581
31647SOL    HW1 1033   8.886   1.321  10.448  1.2496 -0.8987  1.2632
31647SOL    HW2 1034   8.956   1.454  10.427  0.3774 -0.4426  1.1501
31648SOL     OW 1035   1.443  10.858   2.020  0.3308  0.2366  0.3805
31648SOL    HW1 1036   1.490  10.805   2.084  0.4340  2.2583  2.1194
31648SOL    HW2 1037   1.470  10.948   2.040 -1.8438  1.1894 -0.6476
31649SOL     OW 1038  10.355   3.297   6.175 -0.7103 -0.1954  0.1600
31649SOL    HW1 1039  10.445   3.303   6.208 -1.1619  0.6248  1.2715
31649SOL    HW2 1040  10.319   3.385   6.186 -2.3977 -1.0310  1.9426
31650SOL     OW 1041   9.994   3.620   5.585  0.1912 -0.2266  0.5673
31650SOL    HW1 1042   9.962   3.565   5.513 -1.3702  2.3047 -0.8388
31650SOL    HW2 1043   9.975   3.570   5.664  0.4933 -2.4216 -0.6788
31651SOL     OW 1044   6.272   1.175   8.071 -0.2525  0.4517  0.2463
31651SOL    HW1 1045   6.207   1.246   8.070 -1.5820 -0.7218  0.4490
31651SOL    HW2 1046   6.309   1.176   7.982  1.1490  2.5717  0.7638
31652SOL     OW 1047  10.275   7.324   5.407  0.0531  0.1802  0.0610
31652SOL    HW1 1048  10.296   7.240   5.366  1.0820 -0.1916  1.2933
31652SOL    HW2 1049  10.184   7.316   5.434  0.4319 -0.9483  1.0859
31653SOL     OW 1050   5.847   7.870   0.914 -0.3397  0.2272 -0.3545
31653SOL    HW1 1051   5.850   7.958   0.878  0.2401  0.4921  0.3093
31653SOL    HW2 1052   5.758   7.859   0.946 -0.9261 -0.0778 -1.9776
31654SOL     OW 1053   2.334   4.681   3.635 -0.0964 -0.1194  0.1835
31654SOL    HW1 1054   2.404   4.643   3.582  1.0853  0.9813  0.8786
31654SOL    HW2 1055   2.375   4.757   3.677 -1.9312  0.9888  0.0490
31655SOL     OW 1056   8.522   8.721   7.192 -0.3181 -0.0091  0.5885
31655SOL    HW1 1057   8.459   8.714   7.263 -1.6564 -1.1596 -0.6605
31655SOL    HW2 1058   8.491   8.660   7.125  2.9598 -1.8666  0.5272
31656SOL     OW 1059   4.858  10.199  10.591 -0.6088  0.4336  0.1002
31656SOL    HW1 1060   4.857  10.292  10.615  0.4177  1.0482 -2.0127
31656SOL    HW2 1061   4.866  10.199  10.496 -1.8424 -1.8486 -0.0634
31657SOL     OW 1062   1.684  10.228   3.857 -0.0346  0.3001 -0.0980
31657SOL    HW1 1063   1.595  10.222   3.892  0.4616 -0.6031  1.0869
31657SOL    HW2 1064   1.682  10.305   3.801 -1.9066 -0.4154 -1.1369
31658SOL     OW 1065   9.882   3.816   2.958 -0.1843 -0.2251  0.0766
31658SOL    HW1 1066   9.869   3.745   2.894 -0.4203  1.3202 -1.6766
31658SOL    HW2 1067   9.972   3.846   2.942 -0.2891  0.2602  0.3805
31659SOL     OW 1068   4.337   6.630   7.567 -0.4143 -0.0783  0.1471
31659SOL    HW1 1069   4.346   6.698   7.635 -3.5233  0.4556  0.1724
31659SOL    HW2 1070   4.319   6.550   7.616 -2.0232  0.1812  0.0214
31660SOL     OW 1071   4.733   4.154   5.395  0.4691  0.5744 -0.1394
31660SOL    HW1 1072   4.826   4.139   5.376  0.3037 -0.6346 -0.0518
31660SOL    HW2 1073   4.731   4.239   5.438  1.3359  1.4365 -1.7082
31661SOL     OW 1074   1.914   5.614   0.525  0.3368  0.5183 -0.1062
31661SOL    HW1 1075   1.823   5.641   0.525 -1.2587 -3.8401  2.0238
31661SOL    HW2 1076   1.949   5.647   0.607 -1.1109 -2.1028  1.7160
31662SOL     OW 1077  10.834   1.795   8.025  0.3128  0.3974 -0.3600
31662SOL    HW1 1078  10.920   1.787   7.984  0.1848  0.4623 -0.6376
31662SOL    HW2 1079  10.831   1.722   8.088 -0.4885 -1.2804 -2.2445
31663SOL     OW 1080   7.992   8.034   5.798 -0.2592 -0.2563  0.1720
31663SOL    HW1 1081   8.034   7.980   5.732  1.0295 -0.8579  1.4334
31663SOL    HW2 1082   8.000   8.123   5.765  1.3489 -0.4339  0.0060
31664SOL     OW 1083   4.588   5.672   4.500 -0.0121 -0.2199  0.0539
31664SOL    HW1 1084   4.625   5.708   4.419 -0.3041  0.6591  0.3046
31664SOL    HW2 1085   4.631   5.587   4.509 -0.9638 -0.9654 -1.7392
31665SOL     OW 1086  10.724   0.619   0.690 -0.1088 -0.0803 -0.1077
31665SOL    HW1 1087  10.693   0.708   0.672 -0.2093 -0.1238 -0.1451
31665SOL    HW2 1088  10.645   0.566   0.693 -0.1345 -0.0084  0.8581
31666SOL     OW 1089   1.707   1.786   4.735  0.1318  0.1081  0.2171
31666SOL    HW1 1090   1.799   1.767   4.755 -0.3526  0.5523  3.4001
31666SOL    HW2 1091   1.657   1.721   4.784 -1.3121  0.2933 -0.9240
31667SOL     OW 1092   0.091   2.632   7.618 -0.4683 -0.2592 -0.1874
31667SOL    HW1 1093   0.186   2.646   7.618 -0.3661 -0.9196  0.2270
31667SOL    HW2 1094   0.061   2.670   7.535  0.0584  0.5781 -0.0141
31668SOL     OW 1095   3.585   1.299   4.325  0.1847  0.3122  0.0892
31668SOL    HW1 1096   3.659   1.359   4.338 -0.3511  0.9122  0.4178
31668SOL    HW2 1097   3.512   1.356   4.301 -0.2611 -0.2392  0.1267
31669SOL     OW 1098   6.272   0.819   0.718  0.0413 -0.2032  0.2183
31669SOL    HW1 1099   6.199   0.844   0.661  0.7887 -1.0645 -1.1748
31669SOL    HW2 1100   6.296   0.899   0.763 -0.6074  0.4927 -0.6423
31670SOL     OW 1101   6.212   9.376   3.974  0.1340  0.0047  0.0337
31670SOL    HW1 1102   6.195   9.332   3.891  0.0263 -0.9542  0.5531
31670SOL    HW2 1103   6.212   9.469   3.952  0.9116 -0.2660 -1.1835
31671SOL     OW 1104   9.349   1.240   3.195 -0.0062  0.7221 -0.0037
31671SOL    HW1 1105   9.419   1.286   3.241 -0.4630  0.1836  1.2732
31671SOL    HW2 1106   9.269   1.275   3.234 -0.3820 -0.5017  0.3559
31672SOL     OW 1107  10.106  10.074   4.216 -0.0849 -0.0795  0.6667
31672SOL    HW1 1108  10.059  10.052   4.296 -2.3787 -2.3743 -1.1466
31672SOL    HW2 1109  10.117   9.991   4.171 -0.5860  1.3070 -2.2689
31673SOL     OW 1110  10.197   3.827   8.969  0.5616 -0.0100 -0.1572
31673SOL    HW1 1111  10.103   3.806   8.966  0.6720 -0.5082 -0.1321
31673SOL    HW2 1112  10.211   3.862   9.057  0.1654  1.2121 -0.5478
31674SOL     OW 1113   3.872   9.547   6.084 -0.0971 -0.5907  0.4860
31674SOL    HW1 1114   3.874   9.538   5.989  0.9259  0.7415  0.3557
31674SOL    HW2 1115   3.779   9.536   6.107 -0.5957  0.6355 -0.8438
31675SOL     OW 1116   2.975   8.805   6.966  0.3713  0.1091 -0.5966
31675SOL    HW1 1117   2.968   8.900   6.974 -1.5236  0.2515 -2.8428
31675SOL    HW2 1118   2.915   8.770   7.032  1.5181  0.3889  0.6465
31676SOL     OW 1119   7.590   4.893   6.029  0.5466  0.4643  0.0928
31676SOL    HW1 1120   7.502   4.865   6.054  0.0655  1.5022 -0.3733
31676SOL    HW2 1121   7.648   4.845   6.088 -0.3313 -0.1303  0.4999
31677SOL     OW 1122   2.343   6.928  10.346  0.2591 -0.3994 -0.0674
31677SOL    HW1 1123   2.403   6.888  10.283  0.4505 -0.0762 -0.0932
31677SOL    HW2 1124   2.350   6.874  10.424  0.1682 -0.6887 -0.2576
31678SOL     OW 1125   6.650   1.855   9.315  0.6012 -0.1737 -0.1890
31678SOL    HW1 1126   6.727   1.801   9.298  1.1408  0.8856 -1.2610
31678SOL    HW2 1127   6.635   1.902   9.232 -2.2032 -1.5736 -0.6090
31679SOL     OW 1128   1.267   4.926   7.059  0.4305  0.3681 -0.1734
31679SOL    HW1 1129   1.202   4.990   7.085  1.7651  1.8574 -0.3822
31679SOL    HW2 1130   1.288   4.948   6.968  1.9095  0.5465  0.1790
31680SOL     OW 1131   1.804   2.285  10.033  0.1562  0.7168  0.1754
31680SOL    HW1 1132   1.740   2.353  10.013  0.4732  1.1094  0.4823
31680SOL    HW2 1133   1.795   2.222   9.962 -2.1578 -0.4033  1.3586
31681SOL     OW 1134  10.222   8.302   2.879  0.2969 -0.4767  0.3761
31681SOL    HW1 1135  10.250   8.225   2.928  0.7280  0.2799  1.3570
31681SOL    HW2 1136  10.300   8.357   2.875  0.1915 -0.3965 -0.9340
31682SOL     OW 1137   7.396  10.368  10.022 -0.0874  0.1519  0.1757
31682SOL    HW1 1138   7.378  10.427  10.095 -1.8984 -0.3763  0.1960
31682SOL    HW2 1139   7.315  10.366   9.971  1.1701  0.6179 -1.9815
31683SOL     OW 1140   7.727   7.289   3.974  0.3005 -0.2699  0.5328
31683SOL    HW1 1141   7.811   7.261   3.936  0.3890  0.4206  0.2066
31683SOL    HW2 1142   7.734   7.384   3.981 -0.9113 -0.0773 -0.6082
31684SOL     OW 1143   6.452   8.106   4.612 -0.7816 -0.5081  0.1085
31684SOL    HW1 1144   6.412   8.019   4.615  0.5135 -1.2399 -1.8581
31684SOL    HW2 1145   6.493   8.111   4.526  0.0801  1.6619  0.5715
31685SOL     OW 1146   3.744  10.169   2.575  0.4734 -0.1922 -0.1180
31685SOL    HW1 1147   3.704  10.250   2.545 -0.9396 -1.0046 -0.5316
31685SOL    HW2 1148   3.765  10.185   2.668 -0.1168  0.5119 -0.1001
31686SOL     OW 1149   8.082   8.888   3.051  0.1866  0.5188 -0.5644
31686SOL    HW1 1150   8.155   8.830   3.073  1.0165  1.4351 -0.8515
31686SOL    HW2 1151   8.024   8.834   2.998  1.2851  0.1338 -1.4032
31687SOL     OW 1152   3.481   2.217  10.678  0.0507  0.3234  0.3765
31687SOL    HW1 1153   3.418   2.163  10.630 -1.1124  2.2099 -0.3412
31687SOL    HW2 1154   3.506   2.164  10.754 -0.5954 -1.4087 -0.5618
31688SOL     OW 1155  10.455   7.089   1.011  0.5832 -0.4320 -0.3546
31688SOL    HW1 1156  10.435   7.010   1.061  1.7202 -0.7260 -0.3344
31688SOL    HW2 1157  10.496   7.148   1.075 -2.2394  1.1325  0.2186
31689SOL     OW 1158   4.417   8.780   4.798  0.0434  0.0573 -0.1956
31689SOL    HW1 1159   4.335   8.734   4.785  0.1025 -0.2345  0.4132
31689SOL    HW2 1160   4.392   8.872   4.810 -0.1241  0.0934 -0.7970
31690SOL     OW 1161   5.917   5.904   2.181 -0.1177  0.2629  0.0930
31690SOL    HW1 1162   5.913   6.000   2.177  0.2154  0.4491  2.3969
31690SOL    HW2 1163   5.948   5.886   2.270 -1.7290 -2.0162  0.2698
31691SOL     OW 1164   2.247   7.132   9.644  0.1261 -0.0150  0.0597
31691SOL    HW1 1165   2.284   7.050   9.677  0.1844 -0.3261 -0.7757
31691SOL    HW2 1166   2.295   7.201   9.691  1.8772 -0.3987 -1.1137
31692SOL     OW 1167   3.004   0.949   4.335 -0.4543  0.2717 -0.4430
31692SOL    HW1 1168   2.932   1.004   4.365 -1.2566 -1.5056  1.0427
31692SOL    HW2 1169   3.061   0.939   4.412 -1.2681 -2.3770 -0.0956
31693SOL     OW 1170   7.973  10.647   5.748  0.9161 -0.0234  0.6320
31693SOL    HW1 1171   7.968  10.649   5.653  1.9824 -1.8504  0.4957
31693SOL    HW2 1172   8.042  10.711   5.769  0.6816  0.3810  0.1985
31694SOL     OW 1173   7.373   5.401   9.710  0.3722  0.3802 -0.2894
31694SOL    HW1 1174   7.426   5.444   9.643  0.8132  0.3592  0.0346
31694SOL    HW2 1175   7.438   5.361   9.769 -0.0225 -2.1789 -1.4844
31695SOL     OW 1176   5.574   1.005   0.469 -0.3843  0.7474 -0.0187
31695SOL    HW1 1177   5.509   0.984   0.536 -0.5078  1.5456  0.1219
31695SOL    HW2 1178   5.549   0.953   0.393  0.3126 -0.9140  0.8343
31696SOL     OW 1179   1.566   7.944   9.267 -0.1055  0.1312 -0.4728
31696SOL    HW1 1180   1.658   7.926   9.246 -0.3088 -0.2622 -1.0478
31696SOL    HW2 1181   1.518   7.912   9.191 -0.6737  0.9120 -0.4495
31697SOL     OW 1182  10.772   7.830   8.330  0.1183 -0.6248  0.2410
31697SOL    HW1 1183  10.780   7.738   8.303 -1.2478 -0.3531 -1.1723
31697SOL    HW2 1184  10.694   7.832   8.385 -0.1861 -0.2125 -0.2017
31698SOL     OW 1185   1.196  10.211   0.390 -0.1628 -0.1978 -0.7400
31698SOL    HW1 1186   1.109  10.175   0.409  0.7016 -2.5504 -0.8191
31698SOL    HW2 1187   1.218  10.262   0.468 -0.9096 -1.0581  0.0628
31699SOL     OW 1188   9.906   8.893   5.270  0.7422  0.1376 -0.2967
31699SOL    HW1 1189   9.999   8.870   5.283  0.6556 -1.2526 -1.8166
31699SOL    HW2 1190   9.859   8.814   5.298 -0.1117  1.3075  1.7412
31700SOL     OW 1191   8.089   6.815   3.886  0.6641  0.5892 -0.3130
31700SOL    HW1 1192   8.025   6.880   3.915  0.9555 -0.0825  1.9989
31700SOL    HW2 1193   8.174   6.851   3.912  1.2334  1.0482 -2.5446
31701SOL     OW 1194   7.837   7.398   7.766  0.3053  0.4832  0.2015
31701SOL    HW1 1195   7.891   7.454   7.822  0.5174  0.1132  0.3650
31701SOL    HW2 1196   7.860   7.425   7.677  1.3728 -0.2379  0.2445
31702SOL     OW 1197   6.388  10.882   4.103 -0.1957 -0.0988 -0.5682
31702SOL    HW1 1198   6.303  10.838   4.105 -0.4931  0.4581 -0.5448
31702SOL    HW2 1199   6.432  10.848   4.025 -0.0169 -1.1538 -0.0166
31703SOL     OW 1200   7.138   9.607   8.484  0.3930 -0.4066  0.3366
31703SOL    HW1 1201   7.102   9.524   8.454 -0.7977 -1.1723  3.5092
31703SOL    HW2 1202   7.066   9.650   8.531  1.8392  0.9950  1.4090
31704SOL     OW 1203   8.200   5.031  10.348  0.2035 -0.0348  0.0749
31704SOL    HW1 1204   8.261   5.001  10.416 -1.7115 -0.7799  1.5584
31704SOL    HW2 1205   8.142   5.092  10.393 -1.6311 -1.1854 -0.6248
31705SOL     OW 1206   5.257   7.855   3.548  0.8580 -0.0779 -0.0143
31705SOL    HW1 1207   5.185   7.914   3.523  1.4461  0.5940 -0.1759
31705SOL    HW2 1208   5.324   7.914   3.585  0.8491 -0.8211  1.2535
31706SOL     OW 1209   0.743   2.664   2.828  0.2036  0.8023  0.4677
31706SOL    HW1 1210   0.734   2.591   2.767  0.0211  0.8227  0.4691
31706SOL    HW2 1211   0.829   2.702   2.807 -1.1870  2.8825 -2.0874
31707SOL     OW 1212   3.580   2.476   0.597  0.2191  0.4936  0.3292
31707SOL    HW1 1213   3.590   2.545   0.530  1.0443 -0.0201 -0.0894
31707SOL    HW2 1214   3.664   2.473   0.641  0.7633 -1.3341 -0.7270
31708SOL     OW 1215   1.725   7.248  10.360 -0.3571  0.6355  0.1704
31708SOL    HW1 1216   1.632   7.267  10.356  0.0483  2.7626 -0.1508
31708SOL    HW2 1217   1.733   7.182  10.430 -2.1027  0.1255 -0.0612
31709SOL     OW 1218  10.131   3.348   0.987  0.0931  0.2278  0.3207
31709SOL    HW1 1219  10.211   3.374   0.940 -0.1790  0.5328  0.0262
31709SOL    HW2 1220  10.062   3.400   0.948 -0.0463  0.9470  1.4924
31710SOL     OW 1221   4.649   6.282   1.838 -0.1310 -0.2160 -0.1668
31710SOL    HW1 1222   4.563   6.269   1.878  0.0327 -1.1872 -0.1173
31710SOL    HW2 1223   4.646   6.231   1.757  0.3425 -0.1183 -0.2466
31711SOL     OW 1224   6.326  10.139   4.125 -0.4494  0.0080 -0.0157
31711SOL    HW1 1225   6.360  10.178   4.206  0.2863 -0.9010  0.1196
31711SOL    HW2 1226   6.398  10.149   4.062 -0.7611  0.0712 -0.3626
31712SOL     OW 1227   9.399   2.358   0.922 -0.4663  0.1874  0.3639
31712SOL    HW1 1228   9.430   2.402   1.001 -1.0154  2.0481 -0.4079
31712SOL    HW2 1229   9.374   2.429   0.863 -0.6492 -1.1661 -1.2609
31713SOL     OW 1230   8.495  10.666   7.656 -0.0492 -0.0027  0.1317
31713SOL    HW1 1231   8.513  10.740   7.714 -0.0242  0.7526 -0.8202
31713SOL    HW2 1232   8.412  10.689   7.613 -1.4572 -1.7507  1.7487
31714SOL     OW 1233   3.062   2.506  10.440  0.0592 -0.4428  0.2292
31714SOL    HW1 1234   2.993   2.510  10.507  1.1550  1.2889  1.3629
31714SOL    HW2 1235   3.083   2.598  10.422 -0.5245 -0.8340 -2.9369
31715SOL     OW 1236   3.156   8.324   2.224 -0.9118  0.3011 -0.1524
31715SOL    HW1 1237   3.104   8.402   2.205 -1.4147  0.1008  0.3922
31715SOL    HW2 1238   3.092   8.260   2.255 -0.4116 -0.1270 -0.0028
31716SOL     OW 1239   2.902   6.662   6.305 -0.2572 -0.2464  0.2849
31716SOL    HW1 1240   2.807   6.654   6.310 -0.4037  0.3089 -1.1442
31716SOL    HW2 1241   2.929   6.693   6.392 -1.1509 -2.2036  1.3357
31717SOL     OW 1242   6.524   8.395   5.126 -0.0142  0.3724  0.0612
31717SOL    HW1 1243   6.465   8.400   5.202  0.1638  0.7142  0.1788
31717SOL    HW2 1244   6.612   8.390   5.165  0.0729  0.4759 -0.1232
31718SOL     OW 1245   7.014   7.485   7.183 -0.1141 -0.4455  0.1571
31718SOL    HW1 1246   6.925   7.480   7.217 -0.0534  0.6803  0.5321
31718SOL    HW2 1247   7.017   7.568   7.135  1.3194  0.6180  1.9767
31719SOL     OW 1248  10.729   4.716   7.639 -0.0951  0.1538 -0.1236
31719SOL    HW1 1249  10.741   4.808   7.618  0.6763  0.4324  1.3826
31719SOL    HW2 1250  10.698   4.716   7.729  0.9511 -1.0817  0.2700
31720SOL     OW 1251   4.523   4.090   7.196  0.7310 -0.1508  0.0231
31720SOL    HW1 1252   4.583   4.086   7.122 -1.8267 -0.1080 -2.1979
31720SOL    HW2 1253   4.516   4.183   7.216  1.6489 -0.1835  0.5649
31721SOL     OW 1254   5.128   2.424   0.522  0.6998 -0.2438 -0.1381
31721SOL    HW1 1255   5.199   2.361   0.532  0.9111 -0.0331 -0.2817
31721SOL    HW2 1256   5.157   2.482   0.451 -0.1007 -0.8171 -0.9650
31722SOL     OW 1257  10.301   1.537   8.306  0.1544 -0.1606  0.4676
31722SOL    HW1 1258  10.289   1.449   8.344  0.9167  0.6255  2.7220
31722SOL    HW2 1259  10.225   1.586   8.336  1.0589  0.6386  1.5331
31723SOL     OW 1260   7.587   4.414   0.627 -0.1959 -0.4767 -0.1504
31723SOL    HW1 1261   7.550   4.487   0.676 -2.1608 -0.5518 -1.4262
31723SOL    HW2 1262   7.631   4.456   0.552  0.8035 -0.4988  0.4030
31724SOL     OW 1263   4.975   2.095   5.787  0.1057  0.1754  0.1886
31724SOL    HW1 1264   5.048   2.106   5.848 -1.4599  1.5570  1.9446
31724SOL    HW2 1265   4.939   2.183   5.778 -0.2156 -0.1396 -2.1683
31725SOL     OW 1266   9.962   3.576   7.149 -0.4057 -0.0446 -0.0284
31725SOL    HW1 1267   9.974   3.481   7.160  1.0351  0.2298  1.1877
31725SOL    HW2 1268  10.051   3.611   7.153 -0.9911  1.4474  0.3960
31726SOL     OW 1269   8.881  10.510   2.081  0.1842 -0.1235  0.0096
31726SOL    HW1 1270   8.828  10.578   2.123 -1.0417 -1.1938  0.2636
31726SOL    HW2 1271   8.934  10.557   2.016 -0.1112  1.1504  0.6714
31727SOL     OW 1272   6.692   4.741   4.399  0.1231  0.2332 -0.3726
31727SOL    HW1 1273   6.751   4.678   4.441  0.1161  0.6173  0.2353
31727SOL    HW2 1274   6.622   4.688   4.363  0.6965 -0.2047 -0.8649
31728SOL     OW 1275   6.458   9.120   5.448 -0.4369  0.1735 -0.4016
31728SOL    HW1 1276   6.547   9.109   5.480 -0.0939  0.9166 -1.0703
31728SOL    HW2 1277   6.468   9.162   5.363 -1.3067 -2.2363 -1.7798
31729SOL     OW 1278   0.764   8.606   4.295  0.1711  0.5243  0.2316
31729SOL    HW1 1279   0.778   8.610   4.390 -0.0381 -1.5563  0.3967
31729SOL    HW2 1280   0.803   8.523   4.269  0.9486  1.4378 -1.6619
31730SOL     OW 1281   0.456   3.837   8.310  0.2059 -0.3566 -0.1347
31730SOL    HW1 1282   0.476   3.829   8.403 -1.5026 -0.9087  0.2093
31730SOL    HW2 1283   0.482   3.753   8.272  0.0611 -0.4671  0.0098
31731SOL     OW 1284   4.849   1.153   7.710  0.5683  0.2615 -0.0644
31731SOL    HW1 1285   4.857   1.110   7.625  0.3020  3.7290 -2.0486
31731SOL    HW2 1286   4.934   1.195   7.723  0.1622  0.8670  0.6855
31732SOL     OW 1287   1.567   3.000   5.928 -0.0461 -0.4681 -0.2270
31732SOL    HW1 1288   1.503   2.949   5.879  0.7727 -2.7607  0.8983
31732SOL    HW2 1289   1.539   2.992   6.019  1.1187 -0.4315  0.1515
31733SOL     OW 1290   9.043   3.743   7.121  0.4298  0.5507 -0.2188
31733SOL    HW1 1291   9.083   3.704   7.199  0.3982  1.0923  0.0741
31733SOL    HW2 1292   8.949   3.737   7.137  0.3966 -0.1710 -0.6346
31734SOL     OW 1293   9.682   2.099   8.079 -0.3231  0.4550  0.3048
31734SOL    HW1 1294   9.698   2.028   8.143  0.0532  0.1312 -0.1363
31734SOL    HW2 1295   9.761   2.099   8.025 -1.5198 -0.7470 -1.5584
31735SOL     OW 1296   4.073   3.862   6.750  0.0415  0.3420 -0.0841
31735SOL    HW1 1297   3.991   3.895   6.786 -1.6001 -1.0211 -2.3530
31735SOL    HW2 1298   4.122   3.941   6.728 -1.5132  1.2398 -0.4857
31736SOL     OW 1299   0.853   2.081   6.321  0.0754  0.0408 -0.6127
31736SOL    HW1 1300   0.908   2.044   6.253 -0.1167 -1.7454  0.1677
31736SOL    HW2 1301   0.823   2.164   6.284  1.1903 -0.1660 -2.0746
31737SOL     OW 1302   7.764   2.290   7.124 -0.0321 -0.1544  0.2314
31737SOL    HW1 1303   7.844   2.298   7.176  0.5298 -1.4325 -0.3854
31737SOL    HW2 1304   7.699   2.256   7.185  0.2597 -0.3631  0.4288
31738SOL     OW 1305   3.266   2.596   1.436 -0.0448  0.1112  0.2606
31738SOL    HW1 1306   3.173   2.592   1.410  0.0643  2.2929 -0.6358
31738SOL    HW2 1307   3.303   2.514   1.404 -1.0778  0.4310 -1.9764
31739SOL     OW 1308   8.777   6.245   9.379 -0.5315  0.0067 -0.5079
31739SOL    HW1 1309   8.853   6.213   9.427 -2.1209 -1.9973  0.8322
31739SOL    HW2 1310   8.809   6.259   9.290  1.7661  0.8890  0.3931
31740SOL     OW 1311   5.108   3.338   5.625 -0.1216 -0.1785 -0.1256
31740SOL    HW1 1312   5.021   3.354   5.589  0.1918  0.9010 -0.4399
31740SOL    HW2 1313   5.095   3.267   5.687 -1.2486  0.0125 -0.1172
31741SOL     OW 1314  10.051   2.295   5.136 -0.2242  0.3216  0.0351
31741SOL    HW1 1315  10.081   2.355   5.204 -1.1999  3.5197 -2.1362
31741SOL    HW2 1316  10.119   2.228   5.133  1.7247  2.0531  1.6932
31742SOL     OW 1317   8.675   5.322   6.329  0.5620  0.4276  0.3266
31742SOL    HW1 1318   8.694   5.326   6.423 -0.0482 -0.0713  0.4767
31742SOL    HW2 1319   8.681   5.229   6.307 -0.0085  0.4555  0.0270
31743SOL     OW 1320   1.705   0.927   2.295 -0.0013 -0.1648  0.1395
31743SOL    HW1 1321   1.723   0.966   2.210  0.3426  1.6625  1.0121
31743SOL    HW2 1322   1.789   0.891   2.323  0.2907  0.7116  0.4204
31744SOL     OW 1323   1.124   8.307   9.942  0.3169  0.9106 -0.0568
31744SOL    HW1 1324   1.039   8.307   9.986 -0.2438  0.9568 -1.1012
31744SOL    HW2 1325   1.126   8.389   9.893 -0.7550 -0.7181 -3.1383
31745SOL     OW 1326   8.143   1.683   9.577  0.0928 -0.1008 -0.0121
31745SOL    HW1 1327   8.105   1.704   9.662  0.8750 -0.4229  0.4309
31745SOL    HW2 1328   8.124   1.759   9.522  0.3171  0.4811  0.7001
31746SOL     OW 1329  10.052   8.244   2.274  0.4557  0.0132 -0.0438
31746SOL    HW1 1330   9.990   8.224   2.344  1.4588 -0.4793  0.7379
31746SOL    HW2 1331  10.098   8.161   2.258  0.6816  0.2796 -0.8324
31747SOL     OW 1332   0.335   2.066   4.456 -0.1986 -0.3085 -0.2995
31747SOL    HW1 1333   0.342   2.161   4.466  0.1272 -0.3388 -0.2130
31747SOL    HW2 1334   0.262   2.053   4.396  0.0139  0.0116 -0.6312
31748SOL     OW 1335   4.358  10.688   7.019 -0.7290 -0.0318 -0.2151
31748SOL    HW1 1336   4.330  10.777   6.999  3.0677  1.8371  1.6913
31748SOL    HW2 1337   4.278  10.642   7.043 -2.7903  2.9899 -0.8396
31749SOL     OW 1338   5.558   7.386   5.018  0.2286 -0.3121 -0.3169
31749SOL    HW1 1339   5.481   7.349   4.977  0.1315  0.5012 -0.8922
31749SOL    HW2 1340   5.612   7.311   5.042 -0.6626 -0.8767 -0.0512
31750SOL     OW 1341   3.373   3.654   7.896  0.2107 -0.1699  0.8211
31750SOL    HW1 1342   3.413   3.567   7.896 -1.4712 -0.9959  2.0818
31750SOL    HW2 1343   3.445   3.713   7.874  1.6172 -1.7797  0.8706
31751SOL     OW 1344   6.577   0.790   1.796  0.0490 -0.3978  0.0146
31751SOL    HW1 1345   6.538   0.803   1.883 -1.8449 -1.5156 -0.6119
31751SOL    HW2 1346   6.615   0.703   1.799 -0.4956 -0.6555 -0.4351
31752SOL     OW 1347   7.325   4.361  10.103  0.0285  0.0413  0.2594
31752SOL    HW1 1348   7.254   4.301  10.125 -0.6257  1.4124  2.0443
31752SOL    HW2 1349   7.404   4.315  10.130 -0.1387 -1.3843 -1.4978
31753SOL     OW 1350   5.775   8.938   5.647 -0.2100 -0.4572  0.0457
31753SOL    HW1 1351   5.788   9.018   5.699 -0.9818 -0.9821  1.0849
31753SOL    HW2 1352   5.772   8.969   5.556  1.3669  0.4646  0.2609
31754SOL     OW 1353   4.959   5.669   4.244  0.3858  0.2792  0.8074
31754SOL    HW1 1354   5.053   5.678   4.258  0.5134 -1.2152  1.0141
31754SOL    HW2 1355   4.937   5.583   4.279 -0.5653 -0.5775 -1.6753
31755SOL     OW 1356   4.600   7.455   4.000  0.6150  0.1596  0.3967
31755SOL    HW1 1357   4.626   7.384   3.941  1.8684 -0.9551  2.1808
31755SOL    HW2 1358   4.508   7.439   4.019  0.4504 -0.0015 -0.4814
31756SOL     OW 1359   6.805   3.106   6.894 -0.4528 -0.2742  0.0466
31756SOL    HW1 1360   6.843   3.137   6.976  0.9001 -1.1300 -0.2297
31756SOL    HW2 1361   6.847   3.022   6.877 -1.7002 -0.7607 -0.8495
31757SOL     OW 1362   5.716   6.877   4.452 -0.5222 -0.3678  0.1204
31757SOL    HW1 1363   5.659   6.810   4.415  2.3631 -2.2018 -1.3574
31757SOL    HW2 1364   5.751   6.923   4.376  1.4113 -0.6021  0.8300
31758SOL     OW 1365   1.581   4.493   8.749  0.0995 -0.2182 -0.2745
31758SOL    HW1 1366   1.582   4.404   8.715 -1.2010 -0.0573 -0.8194
31758SOL    HW2 1367   1.536   4.486   8.833 -1.5064  0.1214 -1.0632
31759SOL     OW 1368   8.156   0.455   8.392  0.0796  0.0607  0.2605
31759SOL    HW1 1369   8.164   0.445   8.297 -0.6632  0.1883  0.1793
31759SOL    HW2 1370   8.105   0.380   8.420  1.8812 -1.0094  0.8338
31760SOL     OW 1371   5.775   9.898  10.782  0.2976  0.3758  0.0381
31760SOL    HW1 1372   5.686   9.877  10.754  0.3879  0.9677 -0.7491
31760SOL    HW2 1373   5.825   9.819  10.764  0.0859  0.3065 -0.2591
31761SOL     OW 1374   5.150   0.087   8.639  0.7888 -0.0994 -0.3253
31761SOL    HW1 1375   5.174   0.161   8.694  0.4358  0.0498 -0.3675
31761SOL    HW2 1376   5.194   0.012   8.678 -1.2166 -0.4139  1.5109
31762SOL     OW 1377   8.992   6.970   8.649  0.2907 -0.5085 -0.3290
31762SOL    HW1 1378   8.912   7.006   8.689  0.6030 -0.2343  0.0526
31762SOL    HW2 1379   9.016   7.033   8.582  0.8038 -0.0224  0.2982
31763SOL     OW 1380  10.302   1.926   8.764 -0.1869 -0.0890  0.0401
31763SOL    HW1 1381  10.272   1.881   8.685 -1.2607  0.9025 -0.1515
31763SOL    HW2 1382  10.246   1.892   8.834  1.3599 -1.6437  0.6033
31764SOL     OW 1383   4.084   2.114   7.899  0.1107 -0.4282  0.2324
31764SOL    HW1 1384   4.121   2.114   7.810 -0.7548  1.2019 -0.1614
31764SOL    HW2 1385   4.154   2.079   7.954  1.7463  1.2372 -0.6902
31765SOL     OW 1386   2.969  10.008   3.630  0.7750  0.1764 -0.3520
31765SOL    HW1 1387   2.966   9.976   3.720 -1.2438  0.1352 -0.3909
31765SOL    HW2 1388   3.019  10.090   3.635  1.4975 -0.3061  0.6158
31766SOL     OW 1389   5.237   7.368   6.815  0.3072 -0.5865  0.3886
31766SOL    HW1 1390   5.187   7.419   6.751  0.2303  0.3830  1.1982
31766SOL    HW2 1391   5.241   7.424   6.892  1.2034 -1.3536  0.9177
31767SOL     OW 1392   3.984   2.105   4.140  0.1465 -0.4310 -0.7253
31767SOL    HW1 1393   4.061   2.056   4.167  0.9424  0.7188 -0.8270
31767SOL    HW2 1394   3.933   2.043   4.089  0.3066 -1.6191  0.5030
31768SOL     OW 1395   4.643  10.258  10.053  0.1629 -0.4876  0.1849
31768SOL    HW1 1396   4.721  10.256  10.109  0.7980 -0.9841 -0.6967
31768SOL    HW2 1397   4.588  10.327  10.091  2.3516  2.0600 -0.9308
31769SOL     OW 1398   3.048  10.155   7.530 -0.2239  0.4306  0.6593
31769SOL    HW1 1399   3.053  10.079   7.588  1.4045  0.2088  0.2750
31769SOL    HW2 1400   3.127  10.206   7.551 -0.3740  1.0957 -0.3250
31770SOL     OW 1401   5.421   4.500  10.835  0.2214  1.0290 -0.3366
31770SOL    HW1 1402   5.431   4.553  10.914  0.7819  0.9166 -0.3285
31770SOL    HW2 1403   5.352   4.437  10.856  1.9526 -0.5631  0.9365
31771SOL     OW 1404   5.687   7.020   1.652 -0.2474  0.5967 -0.3494
31771SOL    HW1 1405   5.754   6.951   1.655  0.3656  1.1051 -1.5207
31771SOL    HW2 1406   5.622   6.993   1.717  0.2129 -0.8344 -0.4402
31772SOL     OW 1407   9.070   5.940   8.529  0.0486 -0.5949  0.1933
31772SOL    HW1 1408   9.117   5.996   8.467 -0.1114 -1.8709 -1.1361
31772SOL    HW2 1409   9.051   5.997   8.604 -0.5743  1.2645 -1.3124
31773SOL     OW 1410   1.232   3.844   4.460  0.2172 -0.0010 -0.1314
31773SOL    HW1 1411   1.147   3.838   4.503  0.9206  0.3996  1.3846
31773SOL    HW2 1412   1.252   3.938   4.463  0.7403 -0.1058 -0.4120
31774SOL     OW 1413   2.946   6.327   0.469  0.0528  0.0713  0.0917
31774SOL    HW1 1414   2.929   6.420   0.480  2.1098  0.3853  1.0483
31774SOL    HW2 1415   2.957   6.294   0.558  0.1617 -0.9222 -0.2759
31775SOL     OW 1416   4.277   8.845   0.450  0.0184  0.2860 -0.1625
31775SOL    HW1 1417   4.312   8.757   0.464  1.5269  0.5057 -2.0965
31775SOL    HW2 1418   4.204   8.852   0.511 -0.1964 -2.3325 -0.0114
31776SOL     OW 1419   3.759   1.650   7.866 -0.1173 -0.1319  0.1906
31776SOL    HW1 1420   3.663   1.639   7.865 -0.2700  1.1160 -0.1790
31776SOL    HW2 1421   3.777   1.683   7.954 -0.1477  0.5946 -0.0731
31777SOL     OW 1422   7.919   4.890  10.012  0.2101 -0.0344 -0.1863
31777SOL    HW1 1423   8.007   4.885  10.048  0.9012 -0.8927 -1.9235
31777SOL    HW2 1424   7.887   4.800  10.011 -1.5632  0.4522  2.3549
31778SOL     OW 1425   2.523   3.443   6.771 -0.6015 -0.1400 -0.4950
31778SOL    HW1 1426   2.440   3.420   6.731 -0.2037  3.8777 -4.3861
31778SOL    HW2 1427   2.588   3.387   6.728 -0.8434 -0.3988 -0.5228
31779SOL     OW 1428   7.257   9.375   7.495 -0.0110  0.3631  0.5522
31779SOL    HW1 1429   7.327   9.335   7.546  0.5578 -1.0646 -1.2463
31779SOL    HW2 1430   7.178   9.330   7.523  0.5822 -2.0119 -1.2380
31780SOL     OW 1431  10.812   9.654   8.582  0.1072 -0.1896  0.5149
31780SOL    HW1 1432  10.874   9.693   8.520  1.1491 -0.5525  1.3078
31780SOL    HW2 1433  10.826   9.560   8.573  0.4180 -0.2438  1.4305
31781SOL     OW 1434  10.458   2.088   9.254  0.3071  0.6997  0.4613
31781SOL    HW1 1435  10.459   2.128   9.341  0.4050  0.3107  0.6414
31781SOL    HW2 1436  10.548   2.061   9.239  0.0598 -0.3306  0.7575
31782SOL     OW 1437  10.676   1.259  10.618 -0.2539  0.0133 -0.4236
31782SOL    HW1 1438  10.587   1.279  10.648 -0.9914 -2.2153 -0.9259
31782SOL    HW2 1439  10.676   1.283  10.526  0.5317  2.4083  0.1261
31783SOL     OW 1440   1.878   4.222   8.588 -0.1068 -0.3603 -0.1264
31783SOL    HW1 1441   1.792   4.202   8.550 -0.6190 -0.1370  0.8904
31783SOL    HW2 1442   1.871   4.196   8.680  1.2873 -1.3786 -0.2720
31784SOL     OW 1443   6.897   0.693   6.326 -0.0759  0.9980 -0.5155
31784SOL    HW1 1444   6.806   0.712   6.305 -0.0100  1.9872  0.0351
31784SOL    HW2 1445   6.943   0.775   6.310  0.5661  0.7613  0.0527
31785SOL     OW 1446   1.029   6.855   6.255  0.0668 -0.5991 -0.3052
31785SOL    HW1 1447   1.105   6.807   6.288  0.6157  0.2476 -0.2897
31785SOL    HW2 1448   1.063   6.902   6.178 -0.5502 -0.5468 -0.5495
31786SOL     OW 1449   6.180   2.852   0.232 -0.4776  0.1603  0.4029
31786SOL    HW1 1450   6.212   2.773   0.187 -0.0529 -0.6422  2.0153
31786SOL    HW2 1451   6.259   2.890   0.271 -1.0992 -0.5099  2.4226
31787SOL     OW 1452   4.016   1.229   4.913  0.7444 -0.3198 -0.1986
31787SOL    HW1 1453   4.070   1.233   4.993  0.8962 -1.2585 -0.2521
31787SOL    HW2 1454   3.955   1.157   4.929 -0.0515  0.2885 -0.4283
31788SOL     OW 1455  10.508   3.290   6.712  0.7761  0.4599 -0.0871
31788SOL    HW1 1456  10.526   3.275   6.805 -0.0225  0.8818  0.1444
31788SOL    HW2 1457  10.570   3.358   6.686  0.6953  0.6596  0.2464
31789SOL     OW 1458   8.118  10.558   8.536  0.2145 -0.3030 -0.1720
31789SOL    HW1 1459   8.204  10.562   8.494  0.3179 -0.8613 -0.0099
31789SOL    HW2 1460   8.078  10.643   8.514  0.9288  0.0982  0.0297
31790SOL     OW 1461   6.641   4.099  10.434 -0.5359  0.6408 -0.3002
31790SOL    HW1 1462   6.703   4.075  10.365  0.4719  1.6604  0.2071
31790SOL    HW2 1463   6.633   4.021  10.488  0.2639  0.4534 -0.4340
31791SOL     OW 1464   6.210   7.049   7.447  0.0552  0.5576  0.0810
31791SOL    HW1 1465   6.140   7.051   7.512  0.2063 -0.4572  0.2847
31791SOL    HW2 1466   6.282   7.099   7.488  1.3242 -2.6337  2.1173
31792SOL     OW 1467   7.731   0.850   8.932  0.1256  0.2347  0.8127
31792SOL    HW1 1468   7.637   0.847   8.949  0.3563 -0.4235  2.1550
31792SOL    HW2 1469   7.742   0.918   8.865 -1.3548 -0.1058  0.1864
31793SOL     OW 1470   8.370  10.809   2.984 -0.4200 -0.6135  0.2904
31793SOL    HW1 1471   8.403  10.758   3.059  1.7149  0.5701  0.2487
31793SOL    HW2 1472   8.362  10.898   3.018 -0.3379 -0.2499 -0.6252
31794SOL     OW 1473   8.750   7.306   7.315 -0.0099 -0.5489  0.3680
31794SOL    HW1 1474   8.787   7.349   7.238  1.5783  1.0174  1.9032
31794SOL    HW2 1475   8.656   7.300   7.297  0.3487 -0.3711 -1.7235
31795SOL     OW 1476   9.007  10.696   7.114 -0.5709  0.0615  0.2438
31795SOL    HW1 1477   8.986  10.627   7.177  0.5263  0.5817  1.2273
31795SOL    HW2 1478   9.073  10.749   7.159 -1.1310  1.5422 -0.6230
31796SOL     OW 1479   4.357   5.338   9.344  0.6977 -0.3272 -0.3001
31796SOL    HW1 1480   4.451   5.343   9.360  1.1902  1.5002 -3.0443
31796SOL    HW2 1481   4.319   5.399   9.406  1.3032 -1.0646  0.8227
31797SOL     OW 1482   1.830   5.490   6.593 -0.9104  0.2545 -0.2754
31797SOL    HW1 1483   1.853   5.580   6.614  1.3618 -0.7115  1.8487
31797SOL    HW2 1484   1.792   5.495   6.506  0.9479  3.0451 -1.0704
31798SOL     OW 1485   0.493   1.885   6.702  0.0481  0.1690 -0.2126
31798SOL    HW1 1486   0.561   1.908   6.766  0.1331 -0.2333 -0.1573
31798SOL    HW2 1487   0.452   1.806   6.737 -0.2972  0.2817 -0.3626
31799SOL     OW 1488   0.120   1.123  10.475  0.3223  0.1110 -0.4670
31799SOL    HW1 1489   0.069   1.184  10.421 -0.4705 -0.4731 -0.3966
31799SOL    HW2 1490   0.057   1.091  10.540  0.7507 -0.7181 -0.4523
31800SOL     OW 1491   3.866   8.114   9.535  0.0666  0.5041 -0.6171
31800SOL    HW1 1492   3.836   8.180   9.597  1.1657  0.6938 -0.2512
31800SOL    HW2 1493   3.795   8.051   9.529  0.3471 -0.0979  1.6883
31801SOL     OW 1494   5.320   3.598   2.952  0.1059  0.4703 -0.0003
31801SOL    HW1 1495   5.365   3.583   3.035  2.3056  0.1733 -1.1964
31801SOL    HW2 1496   5.287   3.512   2.927  0.5140  0.3198 -0.0273
31802SOL     OW 1497   5.055   9.411   2.016 -0.3692  0.2511  0.7008
31802SOL    HW1 1498   5.029   9.502   1.998 -0.3171  0.0290 -0.6375
31802SOL    HW2 1499   4.999   9.359   1.959  0.7673 -0.4331  0.1557
31803SOL     OW 1500   8.326   7.443   1.137  0.0388  0.1514 -0.0131
31803SOL    HW1 1501   8.368   7.483   1.214 -1.2482  0.7905  0.3753
31803SOL    HW2 1502   8.333   7.349   1.152 -2.0652  0.2331  1.9945
31804SOL     OW 1503   5.156   5.419  10.421 -0.0588 -0.1191  0.7007
31804SOL    HW1 1504   5.198   5.503  10.404 -1.4229  0.3215 -0.6375
31804SOL    HW2 1505   5.212   5.355  10.377 -1.4483  0.6027 -2.2897
31805SOL     OW 1506   8.066   0.599   7.260 -0.1931 -0.1026  0.0821
31805SOL    HW1 1507   8.029   0.531   7.203 -1.1996  2.1020 -2.1083
31805SOL    HW2 1508   7.992   0.631   7.311  0.0200  0.1378  0.2456
31806SOL     OW 1509  10.229   2.276   9.715  0.1438 -0.3760  0.4196
31806SOL    HW1 1510  10.202   2.365   9.690  0.3069 -0.6354 -0.7607
31806SOL    HW2 1511  10.147   2.230   9.732  0.0379 -0.1016  0.6573
31807SOL     OW 1512   5.639   6.569   6.940 -0.1481 -0.2016  0.2565
31807SOL    HW1 1513   5.638   6.524   6.856 -1.9832 -0.3070  0.2908
31807SOL    HW2 1514   5.732   6.571   6.966  0.4100 -0.3995 -1.6164
31808SOL     OW 1515   2.993   7.167  10.619  0.2197 -0.3757  0.4370
31808SOL    HW1 1516   2.942   7.090  10.597  0.6375 -0.9475  1.3748
31808SOL    HW2 1517   2.956   7.198  10.702 -1.5225  1.8932 -1.0923
31809SOL     OW 1518   3.562   2.023   4.409  0.4797  0.2369  0.1748
31809SOL    HW1 1519   3.630   1.957   4.422  0.5327  0.2651  0.0456
31809SOL    HW2 1520   3.600   2.084   4.345  0.0006 -0.2320 -0.5718
31810SOL     OW 1521   2.744   7.222   7.947  0.1061 -0.0521  0.4561
31810SOL    HW1 1522   2.703   7.258   8.026 -0.2326  0.1858  0.1790
31810SOL    HW2 1523   2.833   7.198   7.974  0.1194  0.3862  0.8091
31811SOL     OW 1524   0.227   9.348  10.828  0.0367  0.4068  0.0803
31811SOL    HW1 1525   0.308   9.322  10.872  0.0605  0.8923  0.3342
31811SOL    HW2 1526   0.251   9.358  10.736  0.4137  1.1582  0.2540
31812SOL     OW 1527  10.829   7.276   8.691  0.2011  0.0551  0.1712
31812SOL    HW1 1528  10.759   7.221   8.656 -0.2106 -0.1850  1.3358
31812SOL    HW2 1529  10.832   7.351   8.633  0.6815 -1.1177 -1.3800
31813SOL     OW 1530   1.052   9.067   3.182  0.2091  0.3228 -0.9824
31813SOL    HW1 1531   1.012   9.143   3.224 -1.0521 -0.1785 -1.2350
31813SOL    HW2 1532   1.002   9.054   3.102  0.5830 -0.6055 -1.0835
31814SOL     OW 1533   8.174  10.065   2.386 -0.2266  0.2603  0.4429
31814SOL    HW1 1534   8.261  10.095   2.357 -0.4852  0.9378  0.3333
31814SOL    HW2 1535   8.190  10.016   2.466  0.4791 -1.3921 -0.6627
31815SOL     OW 1536   1.001   2.149   8.652  0.2563  0.6718  0.2110
31815SOL    HW1 1537   0.939   2.160   8.580 -0.9924 -0.8922  0.9660
31815SOL    HW2 1538   1.048   2.232   8.658 -0.5192  1.2634 -1.5533
31816SOL     OW 1539   6.277   8.929   8.994  0.4277 -1.0173 -0.0102
31816SOL    HW1 1540   6.294   8.838   8.967  1.2839 -0.5810 -1.0233
31816SOL    HW2 1541   6.233   8.968   8.918  0.5382 -0.4414  0.2194
31817SOL     OW 1542   9.848   6.714   8.501  0.3664  0.3582  0.0531
31817SOL    HW1 1543   9.868   6.626   8.535 -2.0085  0.1853  1.2363
31817SOL    HW2 1544   9.753   6.723   8.513  0.2451  2.3932 -1.7705
31818SOL     OW 1545   8.796   5.755   0.272 -0.2969 -0.4091 -0.0561
31818SOL    HW1 1546   8.874   5.809   0.285 -0.2719 -0.6468  0.8997
31818SOL    HW2 1547   8.793   5.699   0.350 -0.7559 -1.2384 -0.6585
31819SOL     OW 1548   7.370   7.027   4.049 -0.2055 -0.8119  0.2452
31819SOL    HW1 1549   7.390   7.114   4.015 -0.8187 -0.4530  0.8014
31819SOL    HW2 1550   7.274   7.021   4.046 -0.1570 -1.6239 -0.1689
31820SOL     OW 1551   7.537   6.016   1.997 -0.1847  0.0697 -0.2086
31820SOL    HW1 1552   7.591   6.018   2.075  0.5426  0.8438 -0.7162
31820SOL    HW2 1553   7.572   6.086   1.941  0.2407 -1.3632 -1.8403
31821SOL     OW 1554   2.820   9.142   9.499  0.6431 -0.3274  0.3541
31821SOL    HW1 1555   2.835   9.214   9.560  1.3428 -1.2973  1.3722
31821SOL    HW2 1556   2.728   9.120   9.510  0.0255  1.3387 -1.0551
31822SOL     OW 1557   6.424   5.655   3.110 -0.5230  0.2796 -0.2479
31822SOL    HW1 1558   6.353   5.706   3.073  0.7002  0.7681 -2.0436
31822SOL    HW2 1559   6.503   5.688   3.067  0.4863 -2.1193 -0.4286
31823SOL     OW 1560   8.798   8.881   0.579 -0.0763  0.4465  0.0473
31823SOL    HW1 1561   8.710   8.898   0.546 -0.9918 -2.7410  0.5463
31823SOL    HW2 1562   8.850   8.862   0.500 -0.1034  1.1236 -0.1438
31824SOL     OW 1563   1.001  10.711   1.167 -0.3882  0.1487  0.1556
31824SOL    HW1 1564   0.992  10.735   1.259 -0.2983  0.8769 -0.0196
31824SOL    HW2 1565   1.096  10.702   1.154 -0.4450 -0.9370  0.3670
31825SOL     OW 1566  10.071   3.613   7.421  0.5128 -0.5867  0.0581
31825SOL    HW1 1567  10.027   3.699   7.416  0.5672 -0.5775 -0.3063
31825SOL    HW2 1568   9.999   3.551   7.428  0.4006 -0.6079 -1.0160
31826SOL     OW 1569   4.384   2.454   4.239  0.1527  0.0774 -0.0164
31826SOL    HW1 1570   4.477   2.441   4.255 -0.0249 -0.9174  0.2770
31826SOL    HW2 1571   4.365   2.539   4.279  0.3176 -1.0396  2.6913
31827SOL     OW 1572   5.418   2.348   0.183  0.1008 -0.3116 -0.2912
31827SOL    HW1 1573   5.395   2.255   0.186  0.9956 -0.5400 -0.1267
31827SOL    HW2 1574   5.514   2.349   0.180  0.1931  0.6214  1.4305
31828SOL     OW 1575  10.556   7.176   3.869  0.0997  0.2573 -0.0115
31828SOL    HW1 1576  10.528   7.189   3.778  0.6473 -0.5383 -0.3026
31828SOL    HW2 1577  10.592   7.088   3.870  0.5087  0.4297  0.8842
31829SOL     OW 1578   8.812   1.060   1.437 -0.2702 -0.8907  0.2279
31829SOL    HW1 1579   8.789   1.003   1.364 -1.0111 -0.4057  0.0777
31829SOL    HW2 1580   8.760   1.028   1.510  0.7297 -1.5947  0.6427
31830SOL     OW 1581   2.108   1.110   1.120 -0.4740 -0.3833  0.5715
31830SOL    HW1 1582   2.065   1.125   1.036 -0.2399 -0.4200  0.4464
31830SOL    HW2 1583   2.193   1.073   1.098 -0.7297 -1.1660  0.8459
31831SOL     OW 1584   3.942   7.630   7.024 -0.2483  0.6843  0.9163
31831SOL    HW1 1585   3.942   7.702   7.086 -0.4665 -0.7882  2.6997
31831SOL    HW2 1586   4.016   7.648   6.966 -1.6904  3.5625 -0.2719
31832SOL     OW 1587   8.306   0.775   2.496  0.1975 -0.4985  0.9388
31832SOL    HW1 1588   8.327   0.841   2.561  1.0688  0.4490 -0.2529
31832SOL    HW2 1589   8.326   0.816   2.412 -0.4152 -1.8470  0.0813
31833SOL     OW 1590   0.075   8.633   8.617 -0.3198 -0.4165 -0.5119
31833SOL    HW1 1591   0.022   8.555   8.630 -2.4768  0.8394 -1.2449
31833SOL    HW2 1592   0.016   8.696   8.575  2.0017  0.8177 -2.1499
31834SOL     OW 1593   4.638   5.852   1.837 -0.2832  0.6180  0.4393
31834SOL    HW1 1594   4.565   5.859   1.776 -0.6574  0.2899  0.8454
31834SOL    HW2 1595   4.709   5.902   1.796 -0.9135  1.4192  0.3036
31835SOL     OW 1596   1.411   2.141   6.053 -0.2748  0.1714  0.3166
31835SOL    HW1 1597   1.433   2.219   6.103  0.6626 -0.8478  1.5872
31835SOL    HW2 1598   1.491   2.123   6.002 -0.0833 -0.5404  0.8524
31836SOL     OW 1599   1.697   3.951   9.679 -0.2228 -0.6073  0.7031
31836SOL    HW1 1600   1.766   4.016   9.669 -1.5992  0.8105 -0.0643
31836SOL    HW2 1601   1.635   3.991   9.740 -1.6479 -0.6739 -0.6454
31837SOL     OW 1602   3.123  10.404   9.382  0.0896 -0.4310 -0.2342
31837SOL    HW1 1603   3.191  10.359   9.332 -0.0204  2.2645 -3.0945
31837SOL    HW2 1604   3.166  10.485   9.412 -0.9679 -0.2285  0.8152
31838SOL     OW 1605   5.183   7.873   9.390 -0.0710 -0.0475  1.0018
31838SOL    HW1 1606   5.221   7.889   9.477 -1.2359  1.5467  1.2782
31838SOL    HW2 1607   5.248   7.905   9.329 -0.5632  1.9171  1.4397
31839SOL     OW 1608   4.426  10.434   4.703  0.2803  0.1528  0.2548
31839SOL    HW1 1609   4.512  10.442   4.743  0.7692  1.4734 -1.0262
31839SOL    HW2 1610   4.366  10.426   4.778  1.4464 -0.4564  1.1589
31840SOL     OW 1611   3.113  10.248   8.048  0.7479 -0.1699 -0.0487
31840SOL    HW1 1612   3.153  10.303   7.981  0.7130 -0.9157 -0.6888
31840SOL    HW2 1613   3.097  10.308   8.121  0.3102  0.7544 -0.8856
31841SOL     OW 1614   3.286  10.316   1.325  0.0416  0.2223 -0.1931
31841SOL    HW1 1615   3.194  10.312   1.350  0.5001  0.8929  1.7816
31841SOL    HW2 1616   3.332  10.345   1.404  2.4977 -3.9098  0.1844
31842SOL     OW 1617   9.959   9.741   6.135  0.0645  0.0814  0.4242
31842SOL    HW1 1618   9.897   9.668   6.133 -0.9909  0.9377  0.6503
31842SOL    HW2 1619   9.928   9.801   6.067 -0.6120  1.4890  1.9090
31843SOL     OW 1620   9.540   6.781   0.733 -0.3675 -0.3448 -0.0181
31843SOL    HW1 1621   9.603   6.750   0.667  0.1046  0.7842 -0.1231
31843SOL    HW2 1622   9.456   6.745   0.704 -0.2848  0.6119 -1.6210
31844SOL     OW 1623   5.246  10.122  10.119  0.2773 -0.0532  0.1659
31844SOL    HW1 1624   5.339  10.138  10.102  0.3745  0.1299  0.8472
31844SOL    HW2 1625   5.241  10.028  10.136  0.0477 -0.4048 -1.6458
31845SOL     OW 1626   6.230   4.325   8.328  0.5178  1.1396 -0.4330
31845SOL    HW1 1627   6.304   4.265   8.337  1.4110  2.2628 -0.0045
31845SOL    HW2 1628   6.222   4.339   8.234 -1.1019 -1.2945 -0.7306
31846SOL     OW 1629   8.929   6.858   8.116  0.2810  0.0144  0.6789
31846SOL    HW1 1630   9.012   6.897   8.090 -0.4143  0.1963 -1.4681
31846SOL    HW2 1631   8.937   6.765   8.094  0.5723 -0.3580  2.2513
31847SOL     OW 1632   1.666   0.046   6.433  0.4928 -0.2667 -0.2197
31847SOL    HW1 1633   1.670   0.140   6.451 -0.0121 -0.0854 -1.0278
31847SOL    HW2 1634   1.669   0.005   6.520 -2.7318  0.6206  0.4414
31848SOL     OW 1635   0.048   5.283   6.153 -0.4179  0.1130  0.0252
31848SOL    HW1 1636  -0.025   5.345   6.164  0.0950  0.7931 -0.3140
31848SOL    HW2 1637   0.072   5.260   6.243 -0.9402  0.0143  0.1447
31849SOL     OW 1638   8.430   3.661   1.405  0.2368 -0.0457  0.4556
31849SOL    HW1 1639   8.397   3.690   1.490  3.5392  1.0321  1.5485
31849SOL    HW2 1640   8.400   3.727   1.343 -1.6501 -0.4862  0.8432
31850SOL     OW 1641   8.454   2.548   7.786 -0.2987 -0.3367 -0.6220
31850SOL    HW1 1642   8.514   2.592   7.725  3.0867 -1.7554  1.3733
31850SOL    HW2 1643   8.468   2.455   7.770  1.1603 -0.7968  2.4946
31851SOL     OW 1644   2.689   8.030   4.452 -0.2437 -0.3955  0.2971
31851SOL    HW1 1645   2.663   8.077   4.373 -1.4536  0.0329  0.9282
31851SOL    HW2 1646   2.764   8.079   4.485  0.0030 -0.3261 -0.3531
31852SOL     OW 1647   5.648   0.236   8.012 -0.9003  0.4564  0.3728
31852SOL    HW1 1648   5.561   0.202   7.989 -0.6564 -0.2300  0.4495
31852SOL    HW2 1649   5.630   0.318   8.058 -1.5104  0.3062  0.4126
31853SOL     OW 1650  10.676   8.134  10.227  0.0323 -0.3495  0.3298
31853SOL    HW1 1651  10.660   8.064  10.163 -0.3661  1.2494 -1.4143
31853SOL    HW2 1652  10.766   8.121  10.256 -0.4129 -2.2691  0.9532
31854SOL     OW 1653   5.523   6.719   5.184  0.0056  0.3667 -0.7216
31854SOL    HW1 1654   5.477   6.695   5.104 -0.5914 -2.3953  0.3191
31854SOL    HW2 1655   5.454   6.733   5.249  0.5201  1.1531 -0.3221
31855SOL     OW 1656   7.215   3.339   8.495 -0.1382 -0.0702 -0.3087
31855SOL    HW1 1657   7.298   3.297   8.518  0.6869  1.6302  0.0290
31855SOL    HW2 1658   7.241   3.418   8.447 -1.4865  1.0946  0.7808
31856SOL     OW 1659   2.289  10.740   9.153 -0.7968  0.1423  0.2255
31856SOL    HW1 1660   2.227  10.812   9.160  0.4519  1.2568  0.2660
31856SOL    HW2 1661   2.291  10.719   9.059  1.0307  2.2568 -0.3090
31857SOL     OW 1662   2.455   8.919   1.999 -0.3303 -0.2102 -0.1051
31857SOL    HW1 1663   2.442   8.835   2.044  0.2508 -0.6348 -0.7247
31857SOL    HW2 1664   2.375   8.929   1.946 -1.9193  1.1922  2.3584
31858SOL     OW 1665   6.132   6.456   6.085  0.1221  0.5719 -0.1921
31858SOL    HW1 1666   6.220   6.419   6.084  0.1122  0.4634  1.4873
31858SOL    HW2 1667   6.074   6.381   6.098 -0.1111  0.8240  0.2213
31859SOL     OW 1668   9.631   2.719   5.461  0.3214 -0.5436 -0.2994
31859SOL    HW1 1669   9.655   2.700   5.370  1.2784  1.4336 -0.5269
31859SOL    HW2 1670   9.577   2.798   5.456 -0.7405 -1.1691  0.7684
31860SOL     OW 1671  10.151   6.940   6.614  0.3468 -0.6541  0.3069
31860SOL    HW1 1672  10.242   6.921   6.591 -0.4662 -2.9544 -1.3983
31860SOL    HW2 1673  10.106   6.945   6.530 -0.8478  2.4107  1.0053
31861SOL     OW 1674   3.769   6.320   6.035  0.1816  0.4295 -0.0074
31861SOL    HW1 1675   3.752   6.382   6.106  0.7229  1.1660 -0.5048
31861SOL    HW2 1676   3.736   6.363   5.956 -2.0022 -1.1125 -0.0040
31862SOL     OW 1677   7.426   8.218   0.647 -0.0722  0.2312 -0.0948
31862SOL    HW1 1678   7.400   8.268   0.569  2.4106  1.3510 -0.3192
31862SOL    HW2 1679   7.393   8.270   0.720 -1.2209 -0.0887 -0.3770
31863SOL     OW 1680  10.520   1.437   7.907  0.0734  0.2780 -0.0210
31863SOL    HW1 1681  10.450   1.375   7.887 -0.4173  0.9296 -0.3644
31863SOL    HW2 1682  10.475   1.514   7.940  0.6486  0.6281 -0.0372
31864SOL     OW 1683   2.717  10.259  10.911 -0.7762  0.1513 -0.0334
31864SOL    HW1 1684   2.780  10.312  10.864 -1.7519  0.2855 -1.2399
31864SOL    HW2 1685   2.758  10.173  10.919 -0.2995  0.3328 -0.4833
31865SOL     OW 1686   9.343   4.085   0.102  0.4622 -0.2956 -0.1807
31865SOL    HW1 1687   9.353   4.135   0.183  1.2421 -0.3424 -0.2383
31865SOL    HW2 1688   9.362   3.994   0.128 -1.7895 -0.7327  0.1082
31866SOL     OW 1689   0.765   5.836   6.899 -0.4256  0.1191  0.0610
31866SOL    HW1 1690   0.775   5.925   6.865  2.4144  0.6835  1.9734
31866SOL    HW2 1691   0.781   5.779   6.824 -0.7869  1.2277 -0.8788
31867SOL     OW 1692   6.594   1.691   0.284  0.5405 -0.3140 -0.1207
31867SOL    HW1 1693   6.640   1.608   0.287  0.3306 -0.4445 -0.4311
31867SOL    HW2 1694   6.503   1.669   0.302  0.3935 -0.2273 -0.7192
31868SOL     OW 1695   5.208   9.709   1.623  0.6347 -0.1216  0.0424
31868SOL    HW1 1696   5.126   9.747   1.593  0.4222 -0.9939 -0.5084
31868SOL    HW2 1697   5.182   9.630   1.671  1.2030 -1.3474 -1.5636
31869SOL     OW 1698  10.315   3.541   7.465  0.2483 -0.5298  0.0575
31869SOL    HW1 1699  10.317   3.455   7.423 -0.5429 -1.2643  1.4582
31869SOL    HW2 1700  10.227   3.574   7.447  1.0439  0.7221 -1.8113
31870SOL     OW 1701   7.591   4.605   6.817 -0.2461 -0.4875 -0.1229
31870SOL    HW1 1702   7.539   4.628   6.894 -2.2023 -3.9193 -0.2047
31870SOL    HW2 1703   7.681   4.598   6.849 -0.9995 -1.8088  1.9144
31871SOL     OW 1704   0.995   8.052   7.215 -0.2436 -0.6983  0.3166
31871SOL    HW1 1705   0.984   7.967   7.174  1.4651 -0.6217 -0.3589
31871SOL    HW2 1706   1.073   8.090   7.174 -0.9642  1.2099  0.5744
31872SOL     OW 1707   7.846   6.893   2.421  0.4969  0.5243  0.3412
31872SOL    HW1 1708   7.781   6.825   2.436  0.9484 -0.1182 -0.5034
31872SOL    HW2 1709   7.925   6.846   2.396  0.8676  1.3545 -0.1053
31873SOL     OW 1710  10.350  10.120   7.287 -0.0678 -0.0236  0.1326
31873SOL    HW1 1711  10.412  10.150   7.220 -0.3082 -1.6216 -0.8521
31873SOL    HW2 1712  10.267  10.110   7.240 -1.0827  1.8971  1.3987
31874SOL     OW 1713   1.455   8.110   8.169 -0.2426 -0.0864 -0.4822
31874SOL    HW1 1714   1.507   8.181   8.206 -2.1167  0.8125  0.6145
31874SOL    HW2 1715   1.468   8.117   8.075 -0.5637  1.9021 -0.4282
31875SOL     OW 1716   2.972   8.345   8.569  0.3596 -0.3779  0.1401
31875SOL    HW1 1717   3.037   8.334   8.499  0.4496  1.3378 -0.0940
31875SOL    HW2 1718   2.935   8.432   8.554 -0.7666 -0.6272  1.3004
31876SOL     OW 1719   6.149   2.948   2.351  0.3312 -0.0702 -0.1243
31876SOL    HW1 1720   6.179   2.919   2.437  0.5265  2.0108  0.5607
31876SOL    HW2 1721   6.145   3.043   2.358  0.5450  0.1623 -2.4976
31877SOL     OW 1722   5.916   4.509   0.656  0.0881  0.1372 -0.0046
31877SOL    HW1 1723   5.959   4.467   0.731  1.1703  2.4204  0.7690
31877SOL    HW2 1724   5.885   4.593   0.691 -2.9464 -0.3588 -1.1695
31878SOL     OW 1725   2.022   6.480   3.174 -0.7897  0.5116 -0.3887
31878SOL    HW1 1726   1.941   6.528   3.160 -2.2316 -1.3395  1.1866
31878SOL    HW2 1727   2.086   6.547   3.199 -1.6378  2.0637 -2.1810
31879SOL     OW 1728   7.382   7.995   5.556 -0.8112  0.3636 -0.0698
31879SOL    HW1 1729   7.466   8.027   5.523 -0.8187  0.5067  0.0467
31879SOL    HW2 1730   7.330   7.980   5.477 -0.7165  0.3899 -0.1377
31880SOL     OW 1731   5.441   3.142   7.705  0.0062 -0.4465 -0.0017
31880SOL    HW1 1732   5.505   3.073   7.721 -1.9508 -2.3575  0.0123
31880SOL    HW2 1733   5.467   3.181   7.622  1.5467 -0.7103  0.3325
31881SOL     OW 1734   0.913   5.253   7.575 -0.0393 -0.1316  0.8256
31881SOL    HW1 1735   0.827   5.279   7.541  0.9819  1.9550 -0.3142
31881SOL    HW2 1736   0.956   5.335   7.598  2.8235 -0.7674 -1.6449
31882SOL     OW 1737  10.104   8.455   8.847 -0.2039  0.0577  0.1043
31882SOL    HW1 1738  10.163   8.416   8.913 -0.8991  0.8757  1.2417
31882SOL    HW2 1739  10.016   8.442   8.883 -0.5421  1.2658 -0.2409
31883SOL     OW 1740   7.960   5.070   7.797  0.0023  0.0991 -0.1303
31883SOL    HW1 1741   7.951   5.107   7.709 -0.1430  1.5866  0.4801
31883SOL    HW2 1742   7.950   5.145   7.856 -0.3254 -0.9357  1.1814
31884SOL     OW 1743   5.691   7.176   0.475  0.4917  0.5708  0.2250
31884SOL    HW1 1744   5.730   7.093   0.450  0.0635  0.4903 -0.1846
31884SOL    HW2 1745   5.755   7.216   0.535  0.9859  0.2391 -0.0790
31885SOL     OW 1746   9.521   5.070   9.772  0.5603 -0.4482 -0.3194
31885SOL    HW1 1747   9.465   5.119   9.711 -0.1695 -0.4758  0.3094
31885SOL    HW2 1748   9.540   5.131   9.842  1.3046 -0.4532 -0.5164
31886SOL     OW 1749   8.901   1.704   6.462 -0.6981  0.2803  0.0723
31886SOL    HW1 1750   8.870   1.697   6.552 -0.6147 -0.1631  0.0661
31886SOL    HW2 1751   8.903   1.799   6.445  0.5011  0.4289  0.9464
31887SOL     OW 1752   9.823   9.413   9.620  0.0298  0.2600 -0.2608
31887SOL    HW1 1753   9.847   9.359   9.545  3.8273 -0.2918  1.1414
31887SOL    HW2 1754   9.772   9.354   9.677 -0.8607  0.0014 -1.2889
31888SOL     OW 1755   0.258   8.968   7.130 -0.1562 -0.2394  0.6108
31888SOL    HW1 1756   0.170   8.989   7.099  0.5075  4.5681  1.1306
31888SOL    HW2 1757   0.246   8.949   7.224 -0.7039 -0.0900  0.5761
31889SOL     OW 1758   8.374   8.176  10.545  0.2204 -0.6180 -0.3411
31889SOL    HW1 1759   8.345   8.177  10.636 -2.6092  0.6587 -1.1726
31889SOL    HW2 1760   8.387   8.268  10.523 -0.0228 -0.8461 -1.4875
31890SOL     OW 1761   7.320   8.975   6.532 -0.3562  0.5046  0.1226
31890SOL    HW1 1762   7.378   9.013   6.598  0.1143 -0.1255  0.0837
31890SOL    HW2 1763   7.286   8.896   6.574 -0.0522  0.1016 -0.3841
31891SOL     OW 1764   0.595   1.313   8.984  0.3999  0.3566 -0.6019
31891SOL    HW1 1765   0.534   1.250   9.022  1.6063 -0.1551  0.5856
31891SOL    HW2 1766   0.540   1.377   8.940 -0.9330 -0.6075 -0.3979
31892SOL     OW 1767   0.574  10.241   2.375  0.5867  0.0108  0.0144
31892SOL    HW1 1768   0.507  10.226   2.308 -0.1668 -0.7959  0.9301
31892SOL    HW2 1769   0.557  10.329   2.407 -2.1186 -1.2495  2.4545
31893SOL     OW 1770   6.096   3.055   1.478  0.5089  0.5348 -0.0733
31893SOL    HW1 1771   6.120   3.131   1.532  0.9169 -0.5312  1.2940
31893SOL    HW2 1772   6.148   3.065   1.399  0.4298  1.7637  0.0086
31894SOL     OW 1773   3.480   0.834   3.696 -0.0550 -0.0930 -0.5550
31894SOL    HW1 1774   3.513   0.847   3.786  2.7657 -1.9398 -1.1720
31894SOL    HW2 1775   3.532   0.894   3.643 -0.1528 -0.5655 -1.1881
31895SOL     OW 1776   9.380   0.513   7.212 -0.2343  1.0388  0.0166
31895SOL    HW1 1777   9.366   0.436   7.157  0.9446  0.5137  0.4243
31895SOL    HW2 1778   9.333   0.494   7.293  0.2779  0.6103  0.2225
31896SOL     OW 1779  10.884   2.219   1.474 -0.1492  0.1084 -0.0938
31896SOL    HW1 1780  10.896   2.221   1.379  1.3919 -1.5278  0.0199
31896SOL    HW2 1781  10.890   2.311   1.501  0.9294  0.4542 -1.4184
31897SOL     OW 1782   0.163   1.713  10.042 -0.0070 -0.5938  0.3816
31897SOL    HW1 1783   0.254   1.744  10.041  0.3176 -1.5146 -0.0163
31897SOL    HW2 1784   0.115   1.777   9.990  0.5462 -0.4620  0.0245
31898SOL     OW 1785   9.876   1.062   0.401 -0.0832 -0.6485  0.5627
31898SOL    HW1 1786   9.836   1.126   0.459 -0.3008  1.1500 -1.4730
31898SOL    HW2 1787   9.812   1.048   0.332  1.7291  0.4005 -1.4250
31899SOL     OW 1788   5.467   5.042   7.484  0.4497 -0.0519 -0.7264
31899SOL    HW1 1789   5.400   5.090   7.533  0.5179 -1.7217  1.1588
31899SOL    HW2 1790   5.511   4.988   7.551  3.0104  0.2288 -2.0503
31900SOL     OW 1791   9.401   3.802   9.539  0.5036  0.1515 -0.0381
31900SOL    HW1 1792   9.336   3.732   9.526 -0.4410  0.6161  1.8732
31900SOL    HW2 1793   9.371   3.873   9.482 -1.3117  0.7307  1.5330
31901SOL     OW 1794   2.995  10.803   0.886 -0.3259 -0.3160 -0.4726
31901SOL    HW1 1795   2.987  10.715   0.847 -0.0879 -0.6747  0.2794
31901SOL    HW2 1796   2.916  10.813   0.939  0.5228 -0.8254  0.9166
31902SOL     OW 1797   2.005   4.417   6.069  0.1023  0.3184 -0.5198
31902SOL    HW1 1798   2.075   4.420   6.004 -1.0393  1.0563 -1.7725
31902SOL    HW2 1799   2.006   4.326   6.101  2.4647  0.6303  0.5294
31903SOL     OW 1800   1.043   5.682   9.749  0.2800 -0.1156 -0.1600
31903SOL    HW1 1801   1.002   5.596   9.735  2.7090 -1.3617 -0.1355
31903SOL    HW2 1802   0.977   5.732   9.796  0.2418 -3.5192  4.1445
31904SOL     OW 1803   9.513   8.146   1.866  0.4035  0.4512  0.0653
31904SOL    HW1 1804   9.491   8.150   1.773  0.5472 -0.3157 -0.0102
31904SOL    HW2 1805   9.466   8.070   1.899 -1.3578  1.9101  1.1264
31905SOL     OW 1806   4.623   7.467   7.104  0.2748 -0.0972 -0.2255
31905SOL    HW1 1807   4.560   7.414   7.153  0.7362  0.5573  1.1429
31905SOL    HW2 1808   4.702   7.466   7.158  1.9635 -2.0286 -2.5419
31906SOL     OW 1809   2.131   1.694  10.828  0.2515 -0.3005 -0.5262
31906SOL    HW1 1810   2.157   1.713  10.738 -1.1598  1.0921 -0.6921
31906SOL    HW2 1811   2.037   1.678  10.822 -0.5610  2.9271  1.0299
31907SOL     OW 1812   3.238   7.769   1.998  0.4512  0.5545  0.1414
31907SOL    HW1 1813   3.246   7.740   1.907 -1.9096 -0.4407  0.2022
31907SOL    HW2 1814   3.279   7.699   2.049 -2.0150 -1.0444  0.0565
31908SOL     OW 1815  10.024   2.567   1.889 -0.0418 -0.0307  0.3170
31908SOL    HW1 1816  10.097   2.550   1.829  0.8969  0.7321  1.2007
31908SOL    HW2 1817  10.046   2.651   1.929 -1.2931  0.0838  0.7933
31909SOL     OW 1818   1.954   0.399   9.963  0.1835 -0.3671  0.5252
31909SOL    HW1 1819   1.914   0.360   9.885 -0.1130 -2.5463  1.6691
31909SOL    HW2 1820   1.920   0.488   9.966  1.0577  0.1948 -2.3890
31910SOL     OW 1821   3.592   7.652  10.465 -0.2652 -0.1314  0.5692
31910SOL    HW1 1822   3.506   7.628  10.499 -0.5823  0.9471  0.5595
31910SOL    HW2 1823   3.646   7.574  10.481 -0.9054 -0.3695  1.7532
31911SOL     OW 1824   4.022   5.953  10.116 -0.4170 -0.0837  0.0418
31911SOL    HW1 1825   3.999   5.865  10.145  0.8348  0.5419  3.5158
31911SOL    HW2 1826   4.002   6.009  10.192  2.6527  1.9580 -0.4780
31912SOL     OW 1827   6.267   1.329   4.313 -0.4091 -0.2291  0.2449
31912SOL    HW1 1828   6.186   1.321   4.363 -0.8108 -1.2394 -0.5272
31912SOL    HW2 1829   6.283   1.423   4.307 -1.0559 -0.0528  1.1350
31913SOL     OW 1830   7.092   3.701   7.318  0.6837  0.4422 -0.1331
31913SOL    HW1 1831   7.031   3.726   7.249  1.0212 -1.3391 -1.1447
31913SOL    HW2 1832   7.046   3.721   7.399  0.1917  2.3895 -0.8325
31914SOL     OW 1833   6.688   7.339   7.948  0.3895  0.2031 -0.1039
31914SOL    HW1 1834   6.725   7.426   7.958  0.2615  0.2789 -0.2842
31914SOL    HW2 1835   6.762   7.279   7.957  0.4092  0.3095  0.4463
31915SOL     OW 1836   9.306   9.309   3.017  0.6992 -0.2568  0.4013
31915SOL    HW1 1837   9.338   9.219   3.013 -1.2845 -1.0711  1.4954
31915SOL    HW2 1838   9.356   9.349   3.089  1.9019 -0.3067 -0.3725
31916SOL     OW 1839   4.554   0.480   4.189  0.1271 -0.0530 -0.4142
31916SOL    HW1 1840   4.594   0.499   4.274  0.8030  2.4120 -1.2100
31916SOL    HW2 1841   4.507   0.398   4.203  0.8230 -0.1038  2.1308
31917SOL     OW 1842   6.360  10.140   3.661 -0.2373 -0.0119 -0.2763
31917SOL    HW1 1843   6.267  10.125   3.675  0.1064 -0.7569  1.6051
31917SOL    HW2 1844   6.368  10.234   3.649 -0.9261  0.6944  3.4178
31918SOL     OW 1845   0.955   7.900   6.418 -0.5981  0.2269  0.0462
31918SOL    HW1 1846   0.912   7.960   6.478  0.5970  0.3747  0.7958
31918SOL    HW2 1847   0.900   7.900   6.339 -0.4067  2.6278 -0.1493
31919SOL     OW 1848   0.373   3.782   8.690  0.0581  0.5752 -0.5599
31919SOL    HW1 1849   0.296   3.736   8.658  0.5134 -0.5441 -0.0722
31919SOL    HW2 1850   0.380   3.757   8.782  1.4816 -0.0278 -0.8060
31920SOL     OW 1851   9.104   2.601   9.285  0.3221 -0.1189 -0.6953
31920SOL    HW1 1852   9.086   2.677   9.230 -1.4416  0.5489  0.7119
31920SOL    HW2 1853   9.166   2.548   9.234  0.2837  1.4215 -2.4236
31921SOL     OW 1854   1.157   1.124   1.055  0.1386  0.6526  0.0321
31921SOL    HW1 1855   1.157   1.073   1.136 -0.1343  0.4980 -0.0602
31921SOL    HW2 1856   1.242   1.168   1.053  1.3599 -1.5682 -0.9987
31922SOL     OW 1857   4.438   5.289   1.585 -0.2735  0.2246 -0.7602
31922SOL    HW1 1858   4.468   5.243   1.664 -0.8811 -0.3784 -0.8723
31922SOL    HW2 1859   4.451   5.381   1.605 -1.9484  0.1813  0.7126
31923SOL     OW 1860   3.572   8.238   6.527  0.1690  0.0014  0.4952
31923SOL    HW1 1861   3.585   8.187   6.447 -0.1510  0.5478  0.0921
31923SOL    HW2 1862   3.521   8.314   6.500 -0.7096 -0.2405  1.3757
31924SOL     OW 1863   2.232   1.788   0.128 -0.0230 -0.4502  0.0794
31924SOL    HW1 1864   2.209   1.731   0.055 -1.5926 -1.1392  1.0353
31924SOL    HW2 1865   2.272   1.865   0.088 -2.7148  0.1526 -1.6979
31925SOL     OW 1866   2.137   9.884   5.815  0.3737 -0.0709 -0.3287
31925SOL    HW1 1867   2.222   9.842   5.803  0.2841 -0.3323 -0.0529
31925SOL    HW2 1868   2.074   9.826   5.773  0.1141 -0.7723  0.9755
31926SOL     OW 1869   6.384   3.968   8.578  0.0438 -0.2061 -0.5156
31926SOL    HW1 1870   6.375   3.874   8.593 -2.9268 -0.4963 -3.0736
31926SOL    HW2 1871   6.299   4.004   8.603 -0.0180  1.2779 -2.6188
31927SOL     OW 1872   9.959   4.521   9.088  0.1573  0.2869  0.7210
31927SOL    HW1 1873   9.889   4.487   9.143  1.1806  0.2476  2.0651
31927SOL    HW2 1874  10.019   4.447   9.077 -0.6107 -0.0847 -1.5331
31928SOL     OW 1875   1.192   6.683  10.862 -0.0000 -0.3304 -0.2358
31928SOL    HW1 1876   1.222   6.629  10.935 -0.7664  1.8109  1.7827
31928SOL    HW2 1877   1.097   6.670  10.860 -0.0203 -0.1411 -0.6396
31929SOL     OW 1878   0.993   2.977   2.959  0.4358  0.0761 -0.5560
31929SOL    HW1 1879   0.971   2.920   3.033 -0.2161 -1.1957 -1.6730
31929SOL    HW2 1880   1.061   3.035   2.993  0.7000 -0.9798  0.8163
31930SOL     OW 1881   0.016   8.202   2.333  0.6025 -0.2202  0.2349
31930SOL    HW1 1882  -0.073   8.186   2.365  1.2525 -0.2664  2.0947
31930SOL    HW2 1883   0.014   8.294   2.305 -1.0256 -1.1614 -3.4120
31931SOL     OW 1884   7.888   6.220   9.058  0.6119 -0.2742 -0.1828
31931SOL    HW1 1885   7.880   6.310   9.025 -1.0496 -0.2707  0.1757
31931SOL    HW2 1886   7.799   6.187   9.060  1.1945 -1.9270 -0.2228
31932SOL     OW 1887   0.958   4.313   4.295  0.3568 -0.1412 -0.0354
31932SOL    HW1 1888   0.941   4.267   4.377 -0.5709 -1.5869 -0.9803
31932SOL    HW2 1889   1.011   4.389   4.320  3.3624 -2.4953  1.4479
31933SOL     OW 1890   5.788   0.394   5.772 -0.2342  0.7484  0.1050
31933SOL    HW1 1891   5.842   0.325   5.810  0.4099  2.2188  1.9999
31933SOL    HW2 1892   5.707   0.350   5.746  0.8492 -1.0247 -0.4398
31934SOL     OW 1893  10.562   8.954   4.345 -0.0205 -0.1231  0.0264
31934SOL    HW1 1894  10.474   8.943   4.380  0.2194 -2.0754  0.1157
31934SOL    HW2 1895  10.549   8.961   4.250 -0.1719 -3.4057 -0.3136
31935SOL     OW 1896   1.928   2.602   9.279 -0.1721  0.3455 -0.8131
31935SOL    HW1 1897   1.916   2.695   9.295 -1.7376  0.3369 -1.7459
31935SOL    HW2 1898   2.006   2.597   9.224 -0.2480  1.1336 -1.0041
31936SOL     OW 1899   3.674   3.422  10.344 -0.3938 -0.4431  0.2542
31936SOL    HW1 1900   3.625   3.352  10.388  0.8972 -0.9155  0.9871
31936SOL    HW2 1901   3.634   3.503  10.376 -2.0661 -0.8003 -0.7818
31937SOL     OW 1902   7.233   3.500   4.619 -0.0678 -0.8479 -0.3137
31937SOL    HW1 1903   7.245   3.436   4.689 -1.2612  1.9116  2.6748
31937SOL    HW2 1904   7.300   3.566   4.635 -1.6170  0.8456 -0.4114
31938SOL     OW 1905   0.914   3.066  10.858 -0.4774 -0.5728 -0.5402
31938SOL    HW1 1906   0.840   3.126  10.850 -1.6259 -1.8774  0.0158
31938SOL    HW2 1907   0.927   3.057  10.952  1.2110  0.5846 -0.6241
31939SOL     OW 1908   4.057   5.277   0.772  0.1789  0.3010 -0.2243
31939SOL    HW1 1909   4.081   5.197   0.820 -1.0847  0.1745  0.2327
31939SOL    HW2 1910   4.112   5.276   0.694 -0.4524 -1.4908 -0.6829
31940SOL     OW 1911   2.694   3.295   6.018 -0.0162  0.2757 -0.4266
31940SOL    HW1 1912   2.730   3.263   6.101  0.9871  2.0791 -0.1167
31940SOL    HW2 1913   2.664   3.216   5.973 -0.0391 -0.8021  1.3863
31941SOL     OW 1914   5.145   8.435   3.652  0.5156 -0.0159  0.1340
31941SOL    HW1 1915   5.181   8.439   3.564 -0.2440  0.4280 -0.1677
31941SOL    HW2 1916   5.171   8.517   3.693 -2.6880  1.8345 -1.1351
31942SOL     OW 1917   6.970   5.565   8.704  0.1092  0.0547 -0.2390
31942SOL    HW1 1918   6.877   5.545   8.693  0.3840 -1.1993 -0.3418
31942SOL    HW2 1919   6.974   5.615   8.786 -0.6022 -0.3169  0.0294
31943SOL     OW 1920   4.369   8.354   4.678  0.1514  0.2384  0.2416
31943SOL    HW1 1921   4.422   8.373   4.756  0.3434 -1.6658  0.6299
31943SOL    HW2 1922   4.416   8.396   4.606  0.5285  1.1447  0.9955
31944SOL     OW 1923   0.512   9.764  10.613 -0.0505  0.3762 -0.5050
31944SOL    HW1 1924   0.449   9.738  10.681  0.3006  0.7188 -0.0482
31944SOL    HW2 1925   0.555   9.841  10.648  2.1365 -1.0536  0.1248
31945SOL     OW 1926   9.243   2.779   9.958 -0.0953 -0.2164 -0.4147
31945SOL    HW1 1927   9.282   2.862   9.929  0.7974 -0.8220 -0.9801
31945SOL    HW2 1928   9.187   2.752   9.886 -1.8685  0.8001  0.5130
31946SOL     OW 1929   7.471   0.956   0.976 -0.1061 -0.1946 -0.2999
31946SOL    HW1 1930   7.447   0.911   0.895 -1.4663 -0.0384 -0.0136
31946SOL    HW2 1931   7.536   1.021   0.949  0.0601 -0.6888 -1.1227
31947SOL     OW 1932   9.731   6.941   3.486 -0.0733 -0.0331 -0.1315
31947SOL    HW1 1933   9.687   7.010   3.437 -2.3729 -1.4160 -0.1250
31947SOL    HW2 1934   9.767   6.883   3.419  1.8079  1.0486 -0.1361
31948SOL     OW 1935   3.732   7.772   6.577 -0.3026 -1.0357 -0.2191
31948SOL    HW1 1936   3.742   7.677   6.575 -1.6708 -1.2014 -0.9432
31948SOL    HW2 1937   3.664   7.790   6.512  0.9746  0.5942 -1.1913
31949SOL     OW 1938   2.119   9.031   5.096  0.3871 -0.2436  0.7762
31949SOL    HW1 1939   2.191   9.057   5.154  0.5438  1.3628 -0.1005
31949SOL    HW2 1940   2.081   8.955   5.139  0.6902  0.6990  2.8302
31950SOL     OW 1941   5.398   5.324   3.521  0.1322  0.6250 -0.8235
31950SOL    HW1 1942   5.327   5.346   3.582 -0.0824 -0.8586 -0.4883
31950SOL    HW2 1943   5.401   5.228   3.523  3.2424  0.6333  0.4381
31951SOL     OW 1944   8.738  10.697   2.232 -0.0075  0.1900 -0.4143
31951SOL    HW1 1945   8.798  10.757   2.276  0.6489 -0.1694 -0.8126
31951SOL    HW2 1946   8.669  10.680   2.297 -0.2672  1.4544 -0.3336
31952SOL     OW 1947   0.353   9.636   8.889  0.7480 -0.0101 -0.0473
31952SOL    HW1 1948   0.400   9.672   8.814 -0.0072  0.2333 -0.4169
31952SOL    HW2 1949   0.384   9.687   8.964 -0.1156  1.2564 -0.5224
31953SOL     OW 1950   1.664   4.316   9.999 -0.4536  0.1141  0.2730
31953SOL    HW1 1951   1.654   4.406  10.030 -0.5778 -0.4109  1.8087
31953SOL    HW2 1952   1.657   4.262  10.077  3.7529 -1.0398  0.0984
31954SOL     OW 1953   3.398   1.160   0.346  0.8540 -0.1090  0.7352
31954SOL    HW1 1954   3.325   1.183   0.404  1.2631  0.2169  1.1343
31954SOL    HW2 1955   3.365   1.086   0.295 -0.0465  0.5625  0.3137
31955SOL     OW 1956   8.486   2.811   7.457 -0.0415 -0.6596  0.4006
31955SOL    HW1 1957   8.480   2.715   7.451 -1.0456 -0.5600 -0.5106
31955SOL    HW2 1958   8.436   2.833   7.536 -2.7541 -0.6932 -1.1620
31956SOL     OW 1959   6.680   8.499   1.475 -0.5235 -0.5714  0.1237
31956SOL    HW1 1960   6.663   8.420   1.526  0.7424 -0.8143  0.1907
31956SOL    HW2 1961   6.722   8.559   1.536 -2.6266  0.6979  0.4418
31957SOL     OW 1962   6.054   5.939   5.054 -0.4651  0.2606 -0.3103
31957SOL    HW1 1963   6.021   6.018   5.098 -0.9291  1.3033 -2.4295
31957SOL    HW2 1964   6.100   5.971   4.977  0.1990 -1.5207 -0.7140
31958SOL     OW 1965   3.711   0.183   9.028 -0.0556 -0.0586  0.8280
31958SOL    HW1 1966   3.785   0.124   9.014  2.5896  2.6270  2.2918
31958SOL    HW2 1967   3.667   0.186   8.943  2.7390 -0.2627 -0.7378
31959SOL     OW 1968   4.617   6.600   0.808  0.1483  0.0838  0.0711
31959SOL    HW1 1969   4.585   6.529   0.864  0.2328  0.2014  0.2662
31959SOL    HW2 1970   4.709   6.612   0.834  0.1163  0.3092  0.0823
31960SOL     OW 1971   5.983   7.525   7.531 -0.3764  0.7940  0.3291
31960SOL    HW1 1972   5.908   7.557   7.482  0.2511  1.4676 -0.2090
31960SOL    HW2 1973   5.985   7.431   7.513 -1.0079  0.7911  0.2455
31961SOL     OW 1974   4.024   6.235   0.551 -0.1612  0.3007 -0.4389
31961SOL    HW1 1975   3.933   6.212   0.531 -0.1621  0.3736 -0.5204
31961SOL    HW2 1976   4.019   6.326   0.581 -0.4490 -0.4530  1.9687
31962SOL     OW 1977   4.436   5.084   7.670 -0.5950 -0.0445 -0.1932
31962SOL    HW1 1978   4.433   5.173   7.705  2.0752 -0.2025  0.6299
31962SOL    HW2 1979   4.434   5.096   7.575 -0.0721  0.9174 -0.0988
31963SOL     OW 1980   6.537   8.105   8.123  0.0204  0.3116  0.2531
31963SOL    HW1 1981   6.443   8.118   8.136 -0.2318 -0.0596 -1.0504
31963SOL    HW2 1982   6.544   8.069   8.035  1.2458 -1.4265  1.0074
31964SOL     OW 1983   6.686   0.142   2.944 -0.0230 -0.2479 -0.6150
31964SOL    HW1 1984   6.735   0.064   2.917 -0.3508 -0.4654 -0.5907
31964SOL    HW2 1985   6.752   0.199   2.983 -0.0444 -1.3127  1.1391
31965SOL     OW 1986   1.854  10.383   8.192  0.5222  0.2876 -0.4231
31965SOL    HW1 1987   1.904  10.310   8.157 -0.0820 -0.3854  0.0881
31965SOL    HW2 1988   1.812  10.348   8.271  1.4199  1.6223  0.6890
31966SOL     OW 1989   6.539   9.816   6.183 -0.2113  0.2753 -0.0384
31966SOL    HW1 1990   6.520   9.907   6.202  0.0113  0.1287  0.9363
31966SOL    HW2 1991   6.635   9.810   6.184 -0.2254  0.0235 -0.0644
31967SOL     OW 1992   1.028   0.245   0.351  0.3800  0.0740 -0.4371
31967SOL    HW1 1993   1.117   0.242   0.315 -0.2085 -1.0489 -1.9095
31967SOL    HW2 1994   0.972   0.255   0.274 -0.8830 -1.3245  0.2538
31968SOL     OW 1995   7.049   4.876   8.235 -0.1973  0.0103  0.0854
31968SOL    HW1 1996   7.010   4.917   8.312  1.0608  0.1779  0.6407
31968SOL    HW2 1997   6.985   4.891   8.165 -1.6017 -0.6004  1.1949
31969SOL     OW 1998   1.904   1.929   8.097 -0.4466 -0.0350 -0.2879
31969SOL    HW1 1999   1.940   1.995   8.156 -1.3946  0.0514  0.2087
31969SOL    HW2 2000   1.935   1.956   8.010  1.0569 -0.2366  0.1500
31970SOL     OW 2001   2.743  10.142   9.644  0.0521 -0.5350  0.1164
31970SOL    HW1 2002   2.810  10.155   9.577 -1.8102 -1.7912 -2.1241
31970SOL    HW2 2003   2.691  10.068   9.612 -1.5428 -0.5439  2.4823
31971SOL     OW 2004   4.452  10.144   5.540  0.2870  0.2483 -0.0211
31971SOL    HW1 2005   4.483  10.185   5.459 -0.0404  2.4050  0.8898
31971SOL    HW2 2006   4.531  10.116   5.585  0.5497  0.3804 -0.3994
31972SOL     OW 2007  10.004   2.260   0.435  0.3114  0.2859  0.2040
31972SOL    HW1 2008   9.914   2.228   0.425  0.6573 -0.4290 -0.8518
31972SOL    HW2 2009  10.001   2.318   0.511 -0.2358 -2.7558  2.6931
31973SOL     OW 2010   4.368  10.738   7.385  0.2815  0.4245 -0.2269
31973SOL    HW1 2011   4.410  10.681   7.449  1.4120  0.0602 -1.2386
31973SOL    HW2 2012   4.284  10.696   7.366  0.1920  0.2323  0.5826
31974SOL     OW 2013   8.917   4.660  10.605 -0.0709  0.3286 -0.0580
31974SOL    HW1 2014   8.936   4.571  10.573  0.7777  0.7943 -0.8963
31974SOL    HW2 2015   9.002   4.698  10.623 -0.4761  0.6272  1.3542
31975SOL     OW 2016   5.702   7.056   9.970  1.2136  0.7052 -0.4735
31975SOL    HW1 2017   5.674   7.136   9.927  2.2983  0.5729 -1.4847
31975SOL    HW2 2018   5.763   7.016   9.909  1.0226 -0.6812  0.2000
31976SOL     OW 2019   9.834  10.909   5.089 -0.1307 -0.4813 -0.4628
31976SOL    HW1 2020   9.907  10.848   5.095 -0.2986 -0.6629 -0.2727
31976SOL    HW2 2021   9.765  10.860   5.045  0.0978 -0.0849 -1.2876
31977SOL     OW 2022   3.652  10.620   7.240  0.0212 -0.5388 -0.7738
31977SOL    HW1 2023   3.603  10.545   7.273  0.1781  0.0378  0.8501
31977SOL    HW2 2024   3.740  10.610   7.277  0.9188 -1.0642 -2.8916
31978SOL     OW 2025   3.481   1.323   2.464  0.1070  0.5272 -0.3582
31978SOL    HW1 2026   3.418   1.288   2.400  0.0380  1.7864 -1.0206
31978SOL    HW2 2027   3.428   1.339   2.542 -0.4813  1.7592 -0.9719
31979SOL     OW 2028   5.559   5.859   1.977 -0.3193 -0.0549  0.4263
31979SOL    HW1 2029   5.522   5.800   1.912 -0.6520  1.1363 -0.5131
31979SOL    HW2 2030   5.588   5.802   2.048 -2.2593 -1.2105  0.3856
31980SOL     OW 2031   2.152   7.076   3.578  0.1238 -0.3312  0.3398
31980SOL    HW1 2032   2.247   7.074   3.564 -0.0799 -1.4815 -1.0848
31980SOL    HW2 2033   2.127   6.984   3.588 -0.7800 -0.0027  1.2914
31981SOL     OW 2034   3.153   9.363   5.006 -0.5592  0.0791 -0.0791
31981SOL    HW1 2035   3.231   9.397   4.961 -1.1582  1.3440 -0.2021
31981SOL    HW2 2036   3.160   9.267   4.997 -0.3089  0.2543 -2.3083
31982SOL     OW 2037   0.147   8.272   3.271  0.1536 -0.6862  0.0478
31982SOL    HW1 2038   0.068   8.298   3.225  0.4016  0.2397  0.1183
31982SOL    HW2 2039   0.156   8.178   3.254  0.7945 -0.2231 -2.6804
31983SOL     OW 2040   4.372   0.289   8.580  0.0521  0.2250  0.3011
31983SOL    HW1 2041   4.292   0.242   8.557  0.8949 -0.5847 -1.0929
31983SOL    HW2 2042   4.376   0.362   8.518  1.2503 -0.7436 -0.8162
31984SOL     OW 2043   6.870   1.710   9.213  0.0213  0.3271  0.3113
31984SOL    HW1 2044   6.837   1.714   9.123 -0.6777  0.9663  0.5845
31984SOL    HW2 2045   6.849   1.621   9.242  0.8676 -0.1056 -0.3788
31985SOL     OW 2046   3.573   8.487   0.293 -0.3261  0.7321 -0.4584
31985SOL    HW1 2047   3.655   8.466   0.249 -0.4342 -0.6495 -0.0674
31985SOL    HW2 2048   3.597   8.494   0.386 -1.0317 -2.5634  0.0895
31986SOL     OW 2049   6.164  10.402   4.444  0.0718 -0.2014  0.3179
31986SOL    HW1 2050   6.078  10.376   4.410  0.2696  0.2785 -0.5797
31986SOL    HW2 2051   6.155  10.496   4.463  0.3010 -0.2236  0.5462
31987SOL     OW 2052   5.602   2.408   3.232  1.3996  0.0294 -0.2811
31987SOL    HW1 2053   5.596   2.503   3.222  0.8465  0.0336  0.0495
31987SOL    HW2 2054   5.624   2.375   3.145 -0.0652  0.3224 -0.7847
31988SOL     OW 2055   9.415  10.464   3.886  0.8981  0.0001  0.1161
31988SOL    HW1 2056   9.503  10.499   3.875  1.5398 -1.4818  0.3230
31988SOL    HW2 2057   9.428  10.380   3.930 -0.5917 -0.4294 -0.2105
31989SOL     OW 2058   0.962  10.655   0.626  0.0773 -0.2615  0.1225
31989SOL    HW1 2059   0.912  10.600   0.686  2.8528 -1.2366  1.7199
31989SOL    HW2 2060   0.903  10.727   0.605 -2.3001 -1.7926  1.0632
31990SOL     OW 2061  10.219   0.231   1.905 -0.9524 -0.6966  0.0398
31990SOL    HW1 2062  10.247   0.205   1.993  0.1997 -1.2734 -0.4732
31990SOL    HW2 2063  10.158   0.162   1.879 -0.7814 -0.8908  0.1393
31991SOL     OW 2064   0.380   3.112   8.790 -0.2828  0.2108 -0.4521
31991SOL    HW1 2065   0.286   3.093   8.797 -0.0547 -0.6029  0.6956
31991SOL    HW2 2066   0.417   3.035   8.747  0.0612 -0.1773  0.5015
31992SOL     OW 2067   0.587   1.537   2.234 -0.3697  0.1894  0.0288
31992SOL    HW1 2068   0.548   1.578   2.311 -1.4196 -2.5413  1.0987
31992SOL    HW2 2069   0.676   1.516   2.261 -0.2968  0.4840  0.0123
31993SOL     OW 2070   9.174   1.864   1.837 -0.5225 -0.3306 -0.0117
31993SOL    HW1 2071   9.190   1.845   1.745  1.6646 -0.3634  0.3119
31993SOL    HW2 2072   9.261   1.876   1.874 -1.1440 -2.5503  2.5179
31994SOL     OW 2073   0.148   2.748   2.493  0.4730  0.1990  0.6547
31994SOL    HW1 2074   0.109   2.798   2.421  1.2863  0.9482  0.7112
31994SOL    HW2 2075   0.075   2.726   2.550 -0.3417 -1.2357 -0.8668
31995SOL     OW 2076   4.150   9.587   8.641 -0.5111 -0.1582  0.2448
31995SOL    HW1 2077   4.179   9.610   8.729 -1.4297 -1.7615  1.0393
31995SOL    HW2 2078   4.174   9.495   8.632 -1.8266 -0.4589 -0.5354
31996SOL     OW 2079   3.915   3.501  10.164  0.3875  0.1995 -0.5683
31996SOL    HW1 2080   3.862   3.498  10.244  2.4690  0.0473  0.9004
31996SOL    HW2 2081   3.902   3.416  10.123  1.7680 -1.0300  1.3842
31997SOL     OW 2082   6.023  10.043  10.748  0.2373 -0.5214 -0.4612
31997SOL    HW1 2083   5.962   9.983  10.706 -0.6322 -0.6879  0.9848
31997SOL    HW2 2084   6.027  10.013  10.839 -0.6850  1.9424  0.4591
31998SOL     OW 2085   0.962   6.104   0.610  0.7228  0.5218  0.5226
31998SOL    HW1 2086   0.943   6.070   0.522  1.6542 -1.3389  0.9946
31998SOL    HW2 2087   1.009   6.186   0.594 -0.0619  0.7607 -0.6939
31999SOL     OW 2088   7.077   9.915   5.127 -0.1700 -0.0301 -0.0861
31999SOL    HW1 2089   7.012   9.965   5.177 -0.9607 -0.9819 -0.1221
31999SOL    HW2 2090   7.050   9.925   5.036  0.8100  1.0535 -0.2746
32000SOL     OW 2091   3.211   0.709   6.100 -0.1501 -0.6963  0.4479
32000SOL    HW1 2092   3.189   0.637   6.160  0.6254 -0.1308  1.4454
32000SOL    HW2 2093   3.203   0.671   6.013 -2.1793 -1.3066  0.8563
32001SOL     OW 2094   8.951   2.076   9.736  0.4133  0.5235 -0.3317
32001SOL    HW1 2095   8.905   2.153   9.702 -0.4292  0.8470  1.4659
32001SOL    HW2 2096   9.034   2.110   9.768  1.1188  0.2497 -1.7709
32002SOL     OW 2097  10.321   2.657   7.950  0.0871  0.2579 -0.0174
32002SOL    HW1 2098  10.263   2.731   7.931  0.6190  0.1169 -2.4590
32002SOL    HW2 2099  10.404   2.679   7.907 -0.4387 -2.7058 -2.8976
32003SOL     OW 2100   4.685   8.356   6.231  0.2749 -0.2102 -0.0965
32003SOL    HW1 2101   4.776   8.345   6.256  0.3226 -1.9871 -0.9474
32003SOL    HW2 2102   4.640   8.280   6.268 -1.1646  1.3019  1.4949
32004SOL     OW 2103   5.842   7.257   8.012  0.4113 -0.0775  0.3944
32004SOL    HW1 2104   5.771   7.229   8.070  0.4743 -1.5245 -0.1851
32004SOL    HW2 2105   5.903   7.184   8.011  1.3594  0.6877 -0.0184
32005SOL     OW 2106   4.130   6.917   6.670 -0.0973 -0.7622  0.0235
32005SOL    HW1 2107   4.172   6.954   6.592  0.3544 -0.2914  0.4779
32005SOL    HW2 2108   4.037   6.923   6.653  0.0037 -0.6820 -0.4977
32006SOL     OW 2109  10.534   2.349   7.237 -0.3294 -0.0529 -0.0964
32006SOL    HW1 2110  10.556   2.314   7.150 -0.1330  0.0030 -0.0716
32006SOL    HW2 2111  10.612   2.331   7.290 -1.3097 -2.1912  0.7209
32007SOL     OW 2112   1.887   1.022   6.512  0.1850  0.4943 -0.6962
32007SOL    HW1 2113   1.948   0.997   6.442  1.3871  0.7933  0.2209
32007SOL    HW2 2114   1.937   1.080   6.568 -1.3156  1.6846 -0.5259
32008SOL     OW 2115   7.156   6.406   4.391 -0.0776 -0.1261 -0.5641
32008SOL    HW1 2116   7.243   6.394   4.430  0.5569  0.5665 -1.7086
32008SOL    HW2 2117   7.107   6.457   4.456  0.2848 -0.6859  0.1751
32009SOL     OW 2118   1.182   7.950   8.191  0.4269 -0.2480 -0.0477
32009SOL    HW1 2119   1.264   7.999   8.188 -0.4510  1.2253 -0.5639
32009SOL    HW2 2120   1.132   7.989   8.263 -1.1838  1.1703 -1.8369
32010SOL     OW 2121  10.906   1.193   5.029 -0.3668 -0.1188  0.0190
32010SOL    HW1 2122  10.922   1.122   4.967  2.0425 -1.1606  1.6776
32010SOL    HW2 2123  10.931   1.272   4.982  2.2382 -0.9676 -0.1810
32011SOL     OW 2124   2.434   7.933   3.157  0.7850  0.5360  0.4917
32011SOL    HW1 2125   2.458   7.889   3.238 -0.2306 -0.7251  0.1307
32011SOL    HW2 2126   2.339   7.936   3.158  0.6617 -0.9243 -1.3496
32012SOL     OW 2127  10.863   7.553   9.768 -0.2308 -0.2334  0.0517
32012SOL    HW1 2128  10.823   7.508   9.843 -2.7965  1.0485 -0.4391
32012SOL    HW2 2129  10.853   7.646   9.788 -0.0795  0.1231 -1.4381
32013SOL     OW 2130   6.437   5.845   9.111 -0.2450 -0.6491 -0.7455
32013SOL    HW1 2131   6.456   5.932   9.077  1.9010 -1.3222 -1.4192
32013SOL    HW2 2132   6.424   5.791   9.033  0.4415 -1.3248 -0.4085
32014SOL     OW 2133   2.527   8.308   2.726 -0.3729  0.2558 -0.5126
32014SOL    HW1 2134   2.497   8.226   2.764 -2.2640  0.3729 -1.6196
32014SOL    HW2 2135   2.564   8.283   2.641  1.2136  0.3214  0.1216
32015SOL     OW 2136   6.203   6.590   0.385 -0.3933 -0.2497  0.4310
32015SOL    HW1 2137   6.288   6.603   0.344 -0.1002 -0.3770  0.9930
32015SOL    HW2 2138   6.143   6.575   0.312  0.0538 -0.1093  0.0312
32016SOL     OW 2139   8.976   3.034   5.352  0.3974 -0.9261  0.6016
32016SOL    HW1 2140   8.888   3.033   5.390 -0.0949  1.6505 -0.2653
32016SOL    HW2 2141   8.971   2.970   5.281 -0.6187 -1.2237  0.9199
32017SOL     OW 2142   1.953   7.152   1.195  0.0924  0.0954  0.0983
32017SOL    HW1 2143   2.048   7.141   1.199 -0.0642 -1.8159 -0.3405
32017SOL    HW2 2144   1.922   7.071   1.154 -1.6324  1.1732 -0.8201
32018SOL     OW 2145   2.824   0.727   4.367 -0.0536 -0.4551 -0.5408
32018SOL    HW1 2146   2.901   0.781   4.349 -0.0467 -0.5581 -0.8264
32018SOL    HW2 2147   2.750   0.779   4.336 -0.1764 -0.0212  0.4436
32019SOL     OW 2148   0.199   6.013   7.690  0.0031 -0.5027 -0.7472
32019SOL    HW1 2149   0.131   6.021   7.623 -2.3018 -2.0579  1.2535
32019SOL    HW2 2150   0.197   5.921   7.716  0.2306  0.1654  1.9766
32020SOL     OW 2151   5.157   7.297   9.510  0.5123 -0.2334 -0.4276
32020SOL    HW1 2152   5.154   7.376   9.456  0.2317 -0.8925 -1.4047
32020SOL    HW2 2153   5.221   7.240   9.467  0.3205 -0.7574 -0.0417
32021SOL     OW 2154   1.666   3.148   2.767 -0.1689 -0.5003 -0.4511
32021SOL    HW1 2155   1.710   3.228   2.741  0.1658 -0.0945  1.2520
32021SOL    HW2 2156   1.719   3.078   2.729  1.2274  0.0224  0.4514
32022SOL     OW 2157   0.042   3.687   5.717  0.1084 -0.1276  0.2363
32022SOL    HW1 2158  -0.021   3.673   5.788 -2.0750  2.8695 -0.9090
32022SOL    HW2 2159   0.114   3.736   5.758  1.0195 -2.1300  1.1853
32023SOL     OW 2160   2.450   9.191   8.662 -0.1220  0.4332  0.2775
32023SOL    HW1 2161   2.356   9.176   8.661 -0.1540  0.6389 -0.1862
32023SOL    HW2 2162   2.487   9.111   8.699 -0.4146 -0.0479 -0.4334
32024SOL     OW 2163   9.337   5.263  10.453  0.1302 -0.3312  0.0080
32024SOL    HW1 2164   9.358   5.353  10.430 -3.2245 -0.0252 -2.6431
32024SOL    HW2 2165   9.301   5.268  10.542  3.4862  0.1657  1.5092
32025SOL     OW 2166   5.759   9.955   2.450  0.3654  0.3952  0.9542
32025SOL    HW1 2167   5.680  10.008   2.444  1.4030  1.9244  0.1828
32025SOL    HW2 2168   5.806   9.973   2.368  0.6672 -1.9136  0.5540
32026SOL     OW 2169   1.672   8.180   5.884  0.4649 -0.2035 -0.2935
32026SOL    HW1 2170   1.620   8.156   5.961  1.7182  0.3911  0.7808
32026SOL    HW2 2171   1.702   8.269   5.903  1.4678 -0.3529 -1.0981
32027SOL     OW 2172   1.599  10.608   4.259  0.2747 -0.1919 -0.3804
32027SOL    HW1 2173   1.514  10.574   4.229 -1.5444  2.8447  0.8943
32027SOL    HW2 2174   1.638  10.647   4.181 -0.6806  0.5390 -0.5163
32028SOL     OW 2175   4.486   6.903  10.926  0.6907  0.2297 -0.2566
32028SOL    HW1 2176   4.535   6.985  10.928  2.6188 -0.8043 -1.7666
32028SOL    HW2 2177   4.511   6.859  11.007  0.9844  0.4107 -0.2473
32029SOL     OW 2178  10.887   8.634   2.770  0.0176  0.6654 -0.1645
32029SOL    HW1 2179  10.944   8.670   2.702  1.0402 -1.1831 -0.3541
32029SOL    HW2 2180  10.948   8.597   2.834 -0.8903 -1.7262 -0.5725
32030SOL     OW 2181   7.172   2.170  10.918  0.0899  0.4225 -0.0061
32030SOL    HW1 2182   7.246   2.111  10.927 -1.4445 -1.3801  1.4718
32030SOL    HW2 2183   7.098   2.114  10.893 -1.6978  1.4338  2.5591
32031SOL     OW 2184   0.729   8.349   8.299 -0.2200  0.3633  0.3546
32031SOL    HW1 2185   0.665   8.405   8.255  0.7075  1.1088 -0.0706
32031SOL    HW2 2186   0.814   8.381   8.268  0.3596 -0.6214  0.8982
32032SOL     OW 2187   2.587   0.960   2.958 -0.3454 -0.2716  0.0556
32032SOL    HW1 2188   2.536   1.041   2.952  0.9291  0.5222 -0.3533
32032SOL    HW2 2189   2.521   0.890   2.961 -1.5866  0.8719  3.5098
32033SOL     OW 2190   1.989   7.071   5.877 -0.3750  0.4854 -0.2171
32033SOL    HW1 2191   1.960   7.127   5.949 -0.3559 -0.8268  0.8401
32033SOL    HW2 2192   1.912   7.061   5.821 -1.2758 -0.8720  1.1978
32034SOL     OW 2193   9.055   0.199   6.683  0.1162 -0.1592  0.1303
32034SOL    HW1 2194   9.148   0.213   6.665  0.1724  0.5071  0.9317
32034SOL    HW2 2195   9.013   0.212   6.598  0.4418  2.3856  0.2972
32035SOL     OW 2196  10.391   8.723   8.358 -0.8474  0.1331 -0.4601
32035SOL    HW1 2197  10.317   8.714   8.418  0.9591  0.0209  1.8660
32035SOL    HW2 2198  10.422   8.634   8.345  1.7836  0.4711  2.5407
32036SOL     OW 2199   2.432   5.819   0.160 -0.3333 -0.1149  0.6362
32036SOL    HW1 2200   2.434   5.778   0.247  1.4990 -0.2466  0.5576
32036SOL    HW2 2201   2.340   5.844   0.148 -1.3001 -2.9079  1.2922
32037SOL     OW 2202  10.657   3.851  10.198 -0.7180  0.3691 -0.1885
32037SOL    HW1 2203  10.648   3.913  10.126  0.8471  1.8616  0.8302
32037SOL    HW2 2204  10.701   3.776  10.159  0.2625  1.2278 -0.7798
32038SOL     OW 2205   5.540   4.081   3.506 -0.5416 -0.0277  0.3383
32038SOL    HW1 2206   5.457   4.096   3.549 -0.8224  1.0589 -0.5569
32038SOL    HW2 2207   5.603   4.069   3.578 -1.3816 -0.4538  1.0153
32039SOL     OW 2208   5.949   1.054   3.428  1.0053  0.8169 -0.0366
32039SOL    HW1 2209   5.870   1.013   3.393  1.7579 -0.0229 -0.7929
32039SOL    HW2 2210   5.948   1.031   3.521  0.8783 -0.0606 -0.2426
32040SOL     OW 2211   9.404   4.373   2.529  0.0422  0.5905 -0.1625
32040SOL    HW1 2212   9.349   4.379   2.607 -0.6495  1.8632 -0.7404
32040SOL    HW2 2213   9.369   4.298   2.480  0.2734 -0.0074  0.5588
32041SOL     OW 2214   6.106   3.385   9.756  0.6381 -0.4249 -0.4478
32041SOL    HW1 2215   6.038   3.319   9.764  0.8734 -0.7727 -1.2216
32041SOL    HW2 2216   6.183   3.337   9.724  1.6050 -0.2537  1.4954
32042SOL     OW 2217   3.235   5.633   4.199 -0.2787  0.4847 -0.0098
32042SOL    HW1 2218   3.162   5.616   4.258 -0.4701  0.2879 -0.3026
32042SOL    HW2 2219   3.229   5.565   4.132  0.2685  0.3672  0.0502
32043SOL     OW 2220   9.730   3.273   9.913 -0.3074  0.1215 -0.0969
32043SOL    HW1 2221   9.678   3.309   9.842 -1.0977 -0.4150  0.1924
32043SOL    HW2 2222   9.679   3.199   9.945 -0.1420  0.5782  1.2769
32044SOL     OW 2223   8.014   4.422   6.184 -0.4116 -0.7888  0.6668
32044SOL    HW1 2224   8.088   4.442   6.242 -0.1260 -0.6726  0.2751
32044SOL    HW2 2225   7.943   4.477   6.216  0.1833  0.4415 -0.0045
32045SOL     OW 2226   3.176   0.886   4.656 -0.4819  0.2098  0.0690
32045SOL    HW1 2227   3.189   0.967   4.607  0.8394 -0.0337 -0.0325
32045SOL    HW2 2228   3.191   0.911   4.748  0.3792  0.0131 -0.0060
32046SOL     OW 2229   4.468   2.239   7.120  0.0578 -0.1841  0.2867
32046SOL    HW1 2230   4.410   2.182   7.171 -0.4490  0.5311  0.5198
32046SOL    HW2 2231   4.490   2.311   7.179  2.3551 -1.1487  0.6994
32047SOL     OW 2232   2.006   2.915   8.614  0.2331  0.0302  0.0594
32047SOL    HW1 2233   2.062   2.866   8.674  0.7679 -0.2540 -0.6686
32047SOL    HW2 2234   2.054   2.997   8.598 -0.0545  0.2412  0.2554
32048SOL     OW 2235   2.065   1.206   3.235  0.3659 -0.3948  0.5277
32048SOL    HW1 2236   2.112   1.226   3.316  0.6040 -0.7610  0.4809
32048SOL    HW2 2237   2.123   1.147   3.187 -0.4784 -1.5598  0.8576
32049SOL     OW 2238   0.021   5.267   7.922  0.1736 -0.2697 -0.6340
32049SOL    HW1 2239  -0.054   5.252   7.863  0.5174  1.1189 -1.4579
32049SOL    HW2 2240   0.004   5.352   7.961  0.6516 -0.5729  0.2507
32050SOL     OW 2241  10.378  10.769   6.195 -0.1215 -0.1299 -0.1820
32050SOL    HW1 2242  10.409  10.814   6.117 -0.4185  0.6480  0.1294
32050SOL    HW2 2243  10.434  10.693   6.204 -1.7737 -1.7880 -2.6935
32051SOL     OW 2244   5.422   4.419   2.975 -0.2139 -0.1886  0.0431
32051SOL    HW1 2245   5.440   4.392   3.064 -2.1995  0.4311  0.6932
32051SOL    HW2 2246   5.423   4.515   2.978 -2.8076 -0.0847  0.0651
32052SOL     OW 2247   9.358   8.603   3.838  0.0808 -0.3684  0.2276
32052SOL    HW1 2248   9.386   8.674   3.779 -2.0389  0.1201 -0.2872
32052SOL    HW2 2249   9.429   8.540   3.834  0.1312 -0.2982 -2.7933
32053SOL     OW 2250   6.282   7.093   4.839  0.0777 -0.4041  0.0718
32053SOL    HW1 2251   6.224   7.050   4.901 -0.1570  0.1009  0.2078
32053SOL    HW2 2252   6.357   7.120   4.892  1.6310 -3.1747 -0.5052
32054SOL     OW 2253   2.484   8.181   1.393  0.7524 -0.1602 -0.1082
32054SOL    HW1 2254   2.399   8.169   1.434  0.6665 -0.1884 -0.2958
32054SOL    HW2 2255   2.545   8.138   1.453  0.7028  0.3080  0.2902
32055SOL     OW 2256   5.947   4.694   1.432 -0.1194  0.2801  0.1566
32055SOL    HW1 2257   6.002   4.698   1.354 -0.2418  1.8279  0.1144
32055SOL    HW2 2258   5.961   4.606   1.467  1.5425  0.2752 -0.4522
32056SOL     OW 2259   4.124   1.358  10.118  0.1611 -0.3540  0.1590
32056SOL    HW1 2260   4.107   1.291  10.052 -0.9086 -0.7017  0.7664
32056SOL    HW2 2261   4.155   1.434  10.067  0.3651 -0.9465 -0.6272
32057SOL     OW 2262   4.455   5.486   0.989  0.6654  0.3698  0.6345
32057SOL    HW1 2263   4.363   5.509   0.980  0.1253 -1.4811  0.9610
32057SOL    HW2 2264   4.495   5.512   0.906 -0.1253  1.2887  0.5364
32058SOL     OW 2265   5.275   1.805   2.558 -0.2847  0.4727 -0.1259
32058SOL    HW1 2266   5.360   1.762   2.560  1.2762  3.2008 -1.1293
32058SOL    HW2 2267   5.238   1.781   2.473 -0.0246  0.1300 -0.1428
32059SOL     OW 2268   7.704   0.252   6.963 -0.0246 -0.0802 -0.2979
32059SOL    HW1 2269   7.722   0.254   7.057  0.6022 -0.3987 -0.4088
32059SOL    HW2 2270   7.729   0.164   6.935  0.4842  0.2416 -0.8924
32060SOL     OW 2271   8.431   6.691   9.060 -0.2341 -0.4286 -0.0524
32060SOL    HW1 2272   8.384   6.662   8.982 -0.2756 -0.5436  0.0156
32060SOL    HW2 2273   8.367   6.685   9.131 -1.7809  4.1112 -0.6940
32061SOL     OW 2274   4.703   8.425   2.683  0.3643  0.4522  0.9157
32061SOL    HW1 2275   4.735   8.363   2.748  0.8858 -0.2711  0.0002
32061SOL    HW2 2276   4.767   8.421   2.612 -2.0462 -1.6527 -1.3703
32062SOL     OW 2277   7.186   3.501   6.644  0.0532  0.8307 -0.3226
32062SOL    HW1 2278   7.273   3.511   6.684  0.9541 -0.0137 -1.9628
32062SOL    HW2 2279   7.203   3.509   6.550 -1.5804  0.0887 -0.6952
32063SOL     OW 2280   3.144   3.361   3.755 -0.2431 -0.1108  0.4680
32063SOL    HW1 2281   3.188   3.285   3.717 -0.4117 -0.7158  1.4484
32063SOL    HW2 2282   3.097   3.326   3.831 -0.8655  0.8581  0.5457
32064SOL     OW 2283   4.553   1.069   3.955  0.8108 -0.1449 -0.3887
32064SOL    HW1 2284   4.564   1.158   3.987  1.9640  0.3773 -2.0863
32064SOL    HW2 2285   4.484   1.032   4.010 -0.3547  2.0872 -0.2281
32065SOL     OW 2286   7.545   2.052   7.080 -0.2207  0.3462  0.0728
32065SOL    HW1 2287   7.567   1.960   7.067 -0.9849  0.0994  0.4535
32065SOL    HW2 2288   7.575   2.072   7.169  0.0216  0.4892 -0.0406
32066SOL     OW 2289  10.181  10.657   3.165  0.1174  0.0004 -0.5721
32066SOL    HW1 2290  10.216  10.605   3.092  0.5134  0.8522 -1.0017
32066SOL    HW2 2291  10.177  10.746   3.130 -1.2323  0.1408 -0.0813
32067SOL     OW 2292   3.747   0.111   5.104  0.2059  0.3538  0.8853
32067SOL    HW1 2293   3.823   0.161   5.133  0.6149 -0.1979  0.7954
32067SOL    HW2 2294   3.784   0.036   5.056 -0.4287  0.7535 -0.2792
32068SOL     OW 2295   7.410   6.911   5.843  0.3277  0.7280  0.4851
32068SOL    HW1 2296   7.420   6.962   5.924  1.3555  1.1613  0.1098
32068SOL    HW2 2297   7.368   6.972   5.782 -2.3992 -0.2338  1.2435
32069SOL     OW 2298   7.640   2.589   8.997 -0.4280 -0.2763  0.0078
32069SOL    HW1 2299   7.682   2.505   8.980 -0.6249 -0.3631 -0.0523
32069SOL    HW2 2300   7.548   2.567   9.016 -1.0978  0.1047 -2.4391
32070SOL     OW 2301   5.125   4.918   5.271  0.2266  0.3608 -0.5776
32070SOL    HW1 2302   5.084   4.882   5.350  1.5900 -0.5789 -0.2607
32070SOL    HW2 2303   5.192   4.978   5.304  1.6062 -0.9183 -0.9453
32071SOL     OW 2304   2.295   2.331  10.250  0.4728  0.2665 -0.1430
32071SOL    HW1 2305   2.301   2.241  10.280 -0.4215  1.1145  2.9217
32071SOL    HW2 2306   2.366   2.377  10.295 -0.8217  1.5927  0.6420
32072SOL     OW 2307   9.774   5.408   6.164 -0.0701 -0.5713 -0.3311
32072SOL    HW1 2308   9.760   5.501   6.181  3.4786 -0.2156  1.5872
32072SOL    HW2 2309   9.690   5.367   6.186 -2.1547  2.1658 -2.4220
32073SOL     OW 2310   4.862   3.027   9.741  0.2643 -0.5360  0.2873
32073SOL    HW1 2311   4.789   2.985   9.787  1.1030  0.0309  2.2083
32073SOL    HW2 2312   4.833   3.117   9.727  0.3543 -0.4694  0.5222
32074SOL     OW 2313   4.682   0.328   6.025 -0.4289  0.4140 -0.0094
32074SOL    HW1 2314   4.744   0.282   5.969 -1.4533 -2.3251  0.9175
32074SOL    HW2 2315   4.623   0.372   5.964 -1.3311 -2.2352 -1.2136
32075SOL     OW 2316   0.539   8.160   7.762  0.3624  0.3645  0.0669
32075SOL    HW1 2317   0.579   8.212   7.692  0.1704 -1.2449 -1.2876
32075SOL    HW2 2318   0.500   8.226   7.821  1.6128  1.7991 -0.6384
32076SOL     OW 2319   7.325   1.110   8.979 -0.0635 -0.1892  0.3750
32076SOL    HW1 2320   7.385   1.116   9.054  0.1896 -0.4875  0.1973
32076SOL    HW2 2321   7.268   1.035   9.000  0.3122 -0.5671  0.0510
32077SOL     OW 2322   7.125   0.106   4.274 -0.0794 -0.2455 -0.3339
32077SOL    HW1 2323   7.197   0.165   4.251  1.1272 -2.1521 -1.7826
32077SOL    HW2 2324   7.099   0.066   4.191  0.3944 -3.0559  0.7656
32078SOL     OW 2325   3.272   4.829   0.921  0.1737 -0.5640  0.6803
32078SOL    HW1 2326   3.364   4.844   0.898  0.4011 -3.2894 -0.7414
32078SOL    HW2 2327   3.239   4.775   0.849 -2.6308  0.5157  1.0566
32079SOL     OW 2328   0.078   2.566   1.294  0.7079 -0.0791  0.3758
32079SOL    HW1 2329   0.037   2.488   1.332  0.0554  0.2692  0.3833
32079SOL    HW2 2330   0.059   2.560   1.200  0.7164  0.0406  0.3667
32080SOL     OW 2331   8.463   8.311   5.310  0.0237 -0.9929  0.3860
32080SOL    HW1 2332   8.444   8.404   5.297 -0.3189 -1.4178 -3.1846
32080SOL    HW2 2333   8.377   8.269   5.309  0.2197 -1.4475  1.3869
32081SOL     OW 2334   6.286   8.789   8.367 -0.4947 -0.3942  0.0224
32081SOL    HW1 2335   6.380   8.788   8.387  0.2360 -0.3878 -2.9538
32081SOL    HW2 2336   6.261   8.881   8.372 -0.6397 -0.4950  1.7949
32082SOL     OW 2337   0.392   3.373   5.843 -0.8187  0.2936 -0.0760
32082SOL    HW1 2338   0.427   3.447   5.793 -1.0122 -1.1960 -2.5758
32082SOL    HW2 2339   0.322   3.338   5.788 -0.7206 -1.7566  1.0006
32083SOL     OW 2340   2.501   6.640   9.882 -0.2895 -0.6421  0.0176
32083SOL    HW1 2341   2.418   6.594   9.896 -0.0286 -0.6845  1.7035
32083SOL    HW2 2342   2.507   6.701   9.956 -0.0929  1.3491 -1.5598
32084SOL     OW 2343   5.897   8.825  10.047 -0.5628 -0.2483  0.1129
32084SOL    HW1 2344   5.979   8.777  10.038  0.8156  1.8766  0.5105
32084SOL    HW2 2345   5.861   8.794  10.130  0.1797 -0.7694  0.2547
32085SOL     OW 2346   3.207   2.678   2.108  0.4843  0.0143  0.1943
32085SOL    HW1 2347   3.272   2.744   2.133  0.4320  1.1608 -2.3429
32085SOL    HW2 2348   3.260   2.605   2.074  0.5344  0.6751 -1.2428
32086SOL     OW 2349  10.008   9.578   7.221  0.4051  0.1726  0.5150
32086SOL    HW1 2350   9.966   9.598   7.304  1.2011 -0.5728  1.1153
32086SOL    HW2 2351   9.971   9.641   7.159 -0.7577  0.2469  1.2561
32087SOL     OW 2352   4.727   1.837   2.568 -0.1650  0.4590  0.3314
32087SOL    HW1 2353   4.791   1.906   2.553  0.1593  0.0926  0.0012
32087SOL    HW2 2354   4.780   1.758   2.581 -0.4784  0.4793  1.9590
32088SOL     OW 2355   4.268   8.047   3.513  0.2360  0.0517  0.8470
32088SOL    HW1 2356   4.353   8.090   3.522 -0.0762  0.7605  0.5044
32088SOL    HW2 2357   4.281   7.984   3.442  0.0108  1.4244 -0.4715
32089SOL     OW 2358   3.438   0.216   5.789 -0.1536 -0.0077 -0.2652
32089SOL    HW1 2359   3.436   0.122   5.811  2.1173  0.1967  1.1116
32089SOL    HW2 2360   3.495   0.221   5.713 -0.5137  0.2313 -0.5178
32090SOL     OW 2361   3.772   3.397   7.771  0.0120  0.1395  0.7713
32090SOL    HW1 2362   3.796   3.419   7.681  1.5375 -0.6599  0.9427
32090SOL    HW2 2363   3.745   3.305   7.767 -1.3484  0.5083  0.9111
32091SOL     OW 2364   0.138   0.642   3.026  0.5906  0.4748 -0.5025
32091SOL    HW1 2365   0.056   0.690   3.032 -0.0341 -0.3636 -1.8152
32091SOL    HW2 2366   0.114   0.550   3.040  1.2444  0.1921 -1.1304
32092SOL     OW 2367   9.089   4.766   7.115 -0.5744  0.5641 -0.2588
32092SOL    HW1 2368   9.082   4.821   7.192 -2.5215  1.3309 -0.9205
32092SOL    HW2 2369   9.097   4.677   7.150 -1.5128  0.8844  0.8501
32093SOL     OW 2370   0.485   2.203   7.974 -0.4873  0.1443  0.1314
32093SOL    HW1 2371   0.514   2.130   8.028 -0.2645  1.1501  1.4326
32093SOL    HW2 2372   0.390   2.202   7.981 -0.5670 -0.7716 -0.9009
32094SOL     OW 2373   4.882   2.889   7.616 -0.0316 -0.1020 -0.1742
32094SOL    HW1 2374   4.822   2.890   7.691 -0.1261  0.6790 -0.2525
32094SOL    HW2 2375   4.831   2.852   7.544  0.2702 -1.5058  0.3074
32095SOL     OW 2376   3.859   1.217   5.235  0.1453 -0.3406 -0.7860
32095SOL    HW1 2377   3.820   1.139   5.196  0.2690 -0.4091 -0.7740
32095SOL    HW2 2378   3.827   1.290   5.181  1.9769 -0.6120 -2.3456
32096SOL     OW 2379   8.031   7.426   1.030  0.0251  0.6511  0.5289
32096SOL    HW1 2380   8.116   7.386   1.009 -1.0076 -1.1302 -0.4689
32096SOL    HW2 2381   8.053   7.501   1.086  2.2018 -0.1816  0.8869
32097SOL     OW 2382   8.283   9.608   9.149  0.3154 -0.6133  0.2917
32097SOL    HW1 2383   8.269   9.653   9.232 -1.4958 -1.6579  0.5871
32097SOL    HW2 2384   8.377   9.593   9.146  0.4835 -0.0710  1.8848
32098SOL     OW 2385   4.592   7.820   7.685  0.1296  0.2989 -0.1786
32098SOL    HW1 2386   4.508   7.847   7.724 -0.0451  0.6667 -0.7992
32098SOL    HW2 2387   4.620   7.896   7.634  0.5367 -0.0472 -0.4745
32099SOL     OW 2388   4.722   8.342   9.146  0.1907  0.0529 -0.1159
32099SOL    HW1 2389   4.808   8.313   9.179 -0.1510 -0.9067 -0.0532
32099SOL    HW2 2390   4.659   8.295   9.201 -0.3840 -0.4444 -1.1870
32100SOL     OW 2391   7.914   0.726   9.400 -0.7368  0.0476 -0.1022
32100SOL    HW1 2392   7.941   0.813   9.428  2.1554 -0.8023  0.1519
32100SOL    HW2 2393   7.966   0.666   9.454 -0.4439 -1.7554 -2.2132
32101SOL     OW 2394   5.274   9.281   5.489  0.2582  0.0591 -0.5095
32101SOL    HW1 2395   5.197   9.337   5.490  0.6083  0.5506  0.2442
32101SOL    HW2 2396   5.242   9.196   5.459 -0.7302  0.0462  0.5141
32102SOL     OW 2397   2.528   5.755   2.844  0.2316  0.5405  0.4563
32102SOL    HW1 2398   2.572   5.819   2.788  1.3689  0.5838  1.3770
32102SOL    HW2 2399   2.448   5.799   2.872  0.8558  1.4543  0.8378
32103SOL     OW 2400   7.353   3.912   1.895 -0.2584  0.0027  0.8568
32103SOL    HW1 2401   7.346   3.979   1.962  3.2134 -0.1306  1.5195
32103SOL    HW2 2402   7.334   3.830   1.941 -0.2098  0.1309  1.1042
32104SOL     OW 2403   9.594   1.801   7.388  0.1876 -0.2958 -0.5018
32104SOL    HW1 2404   9.534   1.832   7.455  0.7586 -2.5167  1.1298
32104SOL    HW2 2405   9.680   1.829   7.418  0.4540 -1.3551 -0.2472
32105SOL     OW 2406   8.530   6.972   5.300 -0.3139  0.3694 -0.3854
32105SOL    HW1 2407   8.595   7.041   5.285  0.8790 -0.1429  1.8653
32105SOL    HW2 2408   8.562   6.898   5.250  0.9623  0.1040  0.7441
32106SOL     OW 2409   0.272   0.925   9.480 -0.4715 -0.7805 -0.1737
32106SOL    HW1 2410   0.238   0.947   9.567 -1.3009 -1.1637 -0.3887
32106SOL    HW2 2411   0.198   0.883   9.436 -0.4301  0.4357 -1.4647
32107SOL     OW 2412   0.668   1.577   0.132 -0.2778  0.4478 -0.0234
32107SOL    HW1 2413   0.599   1.511   0.126  0.1629  0.0992 -1.8043
32107SOL    HW2 2414   0.622   1.660   0.129 -0.6274  0.2614 -3.1673
32108SOL     OW 2415   1.440   3.159   2.452  0.3590 -0.2792 -0.4889
32108SOL    HW1 2416   1.420   3.140   2.544  0.0040 -2.2853 -0.9243
32108SOL    HW2 2417   1.355   3.164   2.410  0.5283  0.4435 -0.7507
32109SOL     OW 2418   5.599  10.761   9.784 -0.2013  0.3673  0.2986
32109SOL    HW1 2419   5.632  10.851   9.791  0.4653  0.1174  0.4437
32109SOL    HW2 2420   5.678  10.707   9.785 -0.5602 -0.1838 -0.5176
32110SOL     OW 2421   7.710   5.177   7.990 -0.0838 -0.0551  0.4170
32110SOL    HW1 2422   7.744   5.094   8.023 -1.6617 -1.3490 -1.0233
32110SOL    HW2 2423   7.626   5.154   7.950 -0.3766  2.1844 -0.3816
32111SOL     OW 2424   2.381   8.230   6.862  0.0528  0.4510 -0.0315
32111SOL    HW1 2425   2.348   8.253   6.949  2.2822 -1.8628  1.5687
32111SOL    HW2 2426   2.443   8.159   6.878  2.8680  1.9270 -3.2137
32112SOL     OW 2427  10.620   2.350   7.711 -0.1812 -0.0184 -0.0523
32112SOL    HW1 2428  10.668   2.384   7.787 -1.6029  1.0708  0.4101
32112SOL    HW2 2429  10.534   2.390   7.718 -1.1064 -1.7454 -0.9732
32113SOL     OW 2430   7.154  10.368   8.990 -0.0966 -0.3714 -0.1479
32113SOL    HW1 2431   7.139  10.459   8.964 -0.2129  0.4283  2.4152
32113SOL    HW2 2432   7.068  10.336   9.018  0.2038 -0.8173  0.2796
32114SOL     OW 2433   5.681   5.808  10.543 -0.0796 -0.7405  0.1361
32114SOL    HW1 2434   5.683   5.873  10.473  3.2725  1.2240  1.7782
32114SOL    HW2 2435   5.645   5.854  10.618  0.2264 -1.5019  0.7680
32115SOL     OW 2436   0.420   4.373   5.795 -0.1481  0.1139  0.3090
32115SOL    HW1 2437   0.337   4.334   5.768  0.6817 -2.1778  0.8075
32115SOL    HW2 2438   0.460   4.307   5.852  1.2639  1.8728  1.4791
32116SOL     OW 2439   0.930   5.799   0.890  0.4169  0.5648 -0.1234
32116SOL    HW1 2440   0.900   5.744   0.818  0.8019 -1.9039  1.4879
32116SOL    HW2 2441   0.853   5.814   0.944  0.6305  0.2234  0.2850
32117SOL     OW 2442   2.735   6.902   2.694 -0.2662  0.1087  0.4207
32117SOL    HW1 2443   2.765   6.819   2.655 -0.3498  0.3882 -0.2592
32117SOL    HW2 2444   2.815   6.951   2.711 -0.1932 -0.2629  1.1881
32118SOL     OW 2445   4.770   8.361   9.535  0.1652  0.3060 -0.4947
32118SOL    HW1 2446   4.834   8.414   9.487  1.2195 -0.5755 -0.0984
32118SOL    HW2 2447   4.822   8.291   9.574 -1.1519 -0.8273 -0.7194
32119SOL     OW 2448   1.902   7.876   2.411 -0.0174  0.0291 -0.2265
32119SOL    HW1 2449   1.937   7.926   2.485  1.0390 -1.2923  0.2087
32119SOL    HW2 2450   1.845   7.810   2.451 -1.6513  0.9993 -0.8152
32120SOL     OW 2451   2.563   5.961  10.474  0.1733  0.2092 -0.0159
32120SOL    HW1 2452   2.574   5.979  10.567  0.4153 -1.1042  0.2370
32120SOL    HW2 2453   2.476   5.921  10.467  0.2777  0.0241 -0.2927
32121SOL     OW 2454   5.859   9.909   1.814 -0.3950 -0.2227  0.6711
32121SOL    HW1 2455   5.935   9.945   1.768 -1.4072  1.7792  0.4141
32121SOL    HW2 2456   5.896   9.849   1.879  1.5301  1.6335  1.4358
32122SOL     OW 2457   3.149   6.956   7.656 -0.2382 -0.2508  0.0460
32122SOL    HW1 2458   3.059   6.931   7.634 -0.7472  2.3105 -1.1911
32122SOL    HW2 2459   3.169   6.908   7.736 -3.5926  0.8330  1.7004
32123SOL     OW 2460   2.120   0.685   9.225  0.6202  0.1341 -0.3832
32123SOL    HW1 2461   2.177   0.699   9.300  0.9118 -2.3930 -0.0481
32123SOL    HW2 2462   2.031   0.700   9.259  0.7322 -1.1926  0.5583
32124SOL     OW 2463   6.335  10.809  10.256 -0.2144  0.0438 -0.2659
32124SOL    HW1 2464   6.292  10.829  10.172  0.1086 -2.4179 -1.1093
32124SOL    HW2 2465   6.281  10.739  10.294  1.2703 -0.9449  0.1093
32125SOL     OW 2466   7.920   6.666   3.707 -0.6262 -0.0651 -0.0773
32125SOL    HW1 2467   7.970   6.717   3.771 -0.0415 -0.9759  0.2032
32125SOL    HW2 2468   7.937   6.709   3.624 -0.1931  0.2402  0.1653
32126SOL     OW 2469   5.550   4.649   9.160  0.5893  0.3301  0.2836
32126SOL    HW1 2470   5.552   4.716   9.092  0.0213 -0.2621 -0.3377
32126SOL    HW2 2471   5.612   4.679   9.226  2.2400  0.2109 -1.1520
32127SOL     OW 2472   6.939  10.564   2.124 -0.1998  0.1526 -0.7338
32127SOL    HW1 2473   6.870  10.610   2.172 -0.3542 -0.6540 -0.1604
32127SOL    HW2 2474   6.943  10.478   2.165 -0.2062 -0.4936 -2.0483
32128SOL     OW 2475   7.391   9.726   7.269 -0.7375 -0.2045 -0.0001
32128SOL    HW1 2476   7.410   9.669   7.344 -1.6955  0.7073  0.9650
32128SOL    HW2 2477   7.428   9.811   7.293 -2.0885  0.4067 -0.0236
32129SOL     OW 2478   7.470   2.546   3.199 -0.4209 -0.3067 -0.2027
32129SOL    HW1 2479   7.559   2.513   3.213 -0.2579 -0.1358 -0.8191
32129SOL    HW2 2480   7.442   2.575   3.286  0.4078  0.3216 -0.1277
32130SOL     OW 2481   5.180   3.173   7.790 -0.6752 -0.0050  0.0722
32130SOL    HW1 2482   5.123   3.212   7.723 -1.2723 -2.4139 -0.9116
32130SOL    HW2 2483   5.266   3.168   7.749 -0.1222  1.8187  0.8646
32131SOL     OW 2484   6.325   2.009   4.778 -0.0754 -0.1384 -0.1651
32131SOL    HW1 2485   6.336   1.932   4.721  0.4383 -0.4361  0.3335
32131SOL    HW2 2486   6.402   2.008   4.834  0.4354  1.3047 -0.8079
32132SOL     OW 2487   1.598   3.647   9.675  0.0651  0.2933 -0.4155
32132SOL    HW1 2488   1.606   3.743   9.683  0.4035  0.5181 -2.7580
32132SOL    HW2 2489   1.681   3.614   9.711 -0.3103  0.8095  0.9933
32133SOL     OW 2490   1.344   4.054   3.375 -0.0101 -0.1614 -0.4009
32133SOL    HW1 2491   1.318   4.060   3.283  1.2798  1.0810 -0.7235
32133SOL    HW2 2492   1.265   4.024   3.420  0.0679 -3.5388 -2.2300
32134SOL     OW 2493   1.067   0.840   0.935 -0.2720  0.4439  0.2553
32134SOL    HW1 2494   1.079   0.934   0.944  0.3069  0.3068  1.1568
32134SOL    HW2 2495   1.019   0.829   0.853 -0.9727  1.5623  0.4903
32135SOL     OW 2496   0.497   7.190   4.636 -0.0453 -0.1795  0.2538
32135SOL    HW1 2497   0.591   7.173   4.626  0.0233  1.4347 -3.9109
32135SOL    HW2 2498   0.456   7.104   4.631  1.1352 -0.7978  0.8159
32136SOL     OW 2499   0.940   6.767   0.718  0.0549  0.4817 -0.2896
32136SOL    HW1 2500   0.892   6.696   0.677 -1.4235  1.2305  0.0613
32136SOL    HW2 2501   0.948   6.833   0.649 -0.5516  0.8677 -0.0022
32137SOL     OW 2502  10.883   8.604   9.170  0.2635 -0.2583 -0.6609
32137SOL    HW1 2503  10.973   8.600   9.203 -0.5602  0.7596  2.0397
32137SOL    HW2 2504  10.891   8.592   9.076  3.1294 -1.0841 -0.4062
32138SOL     OW 2505  10.804   8.873   3.482  0.0928  0.1699  0.9279
32138SOL    HW1 2506  10.889   8.846   3.446 -1.4655 -1.3374 -2.0389
32138SOL    HW2 2507  10.786   8.957   3.439 -0.8401 -0.5992 -0.2520
32139SOL     OW 2508   0.948   4.173   0.837  0.0852  0.0285  0.2166
32139SOL    HW1 2509   0.966   4.168   0.931 -0.0187 -0.2167  0.2256
32139SOL    HW2 2510   0.870   4.118   0.825  0.5671 -0.5804 -0.1361
32140SOL     OW 2511   1.992   3.363   4.633 -0.2593 -0.1257  0.7314
32140SOL    HW1 2512   2.074   3.345   4.587  1.5269  2.5204  2.5848
32140SOL    HW2 2513   1.978   3.457   4.622 -2.0067 -0.1654  2.1197
32141SOL     OW 2514   5.234   2.701   6.538  0.6798 -0.3555 -0.6248
32141SOL    HW1 2515   5.171   2.734   6.603  2.0190 -0.9993  1.0838
32141SOL    HW2 2516   5.184   2.696   6.457 -1.2881 -0.2159  0.5081
32142SOL     OW 2517   1.845   0.679   3.441  0.4233  0.2242 -0.1006
32142SOL    HW1 2518   1.766   0.637   3.473 -0.9897  2.0902 -0.9362
32142SOL    HW2 2519   1.851   0.654   3.349  2.0390 -1.5871  0.4216
32143SOL     OW 2520   6.146   4.051  10.433  0.7642 -0.3302 -0.2210
32143SOL    HW1 2521   6.212   4.118  10.453  0.4394 -0.1400  0.2078
32143SOL    HW2 2522   6.198   3.974  10.408  1.1469 -0.1037 -0.1389
32144SOL     OW 2523   6.012  10.353   5.684 -0.6850 -0.1775 -0.2478
32144SOL    HW1 2524   6.016  10.396   5.769 -0.6941 -0.0280 -0.3217
32144SOL    HW2 2525   5.921  10.362   5.656 -0.8343 -0.8281  0.0318
32145SOL     OW 2526   0.505  10.717   6.629  0.8973  0.4015 -0.1622
32145SOL    HW1 2527   0.535  10.629   6.652  0.4666  0.6086  1.3203
32145SOL    HW2 2528   0.565  10.747   6.561  0.5839 -1.3207 -1.2715
32146SOL     OW 2529   9.706   8.142   8.559 -0.0888  0.0232 -0.0725
32146SOL    HW1 2530   9.662   8.170   8.479  0.5739 -0.9275 -0.7960
32146SOL    HW2 2531   9.643   8.162   8.629 -0.6885  0.8372 -0.8206
32147SOL     OW 2532  10.758   4.079   1.045  0.3220  0.2536  0.5090
32147SOL    HW1 2533  10.671   4.045   1.066  1.1165 -1.6469  0.9947
32147SOL    HW2 2534  10.814   4.045   1.115  1.5645  0.8781 -0.1562
32148SOL     OW 2535   4.809   1.676   5.992  0.2307  0.2603 -0.2654
32148SOL    HW1 2536   4.725   1.629   5.991  1.7045 -2.6182 -0.0324
32148SOL    HW2 2537   4.810   1.725   5.910 -1.1201 -0.7117 -0.9078
32149SOL     OW 2538   6.415  10.118   8.566  0.3568  0.3355 -0.1833
32149SOL    HW1 2539   6.411  10.048   8.631  1.6830  0.5048  0.1026
32149SOL    HW2 2540   6.369  10.191   8.606  0.1856  0.0814  0.0926
32150SOL     OW 2541   4.877  10.090   7.203 -0.4104  0.1592 -0.4841
32150SOL    HW1 2542   4.883  10.077   7.108 -0.0773 -1.4771 -0.2839
32150SOL    HW2 2543   4.947  10.035   7.238 -2.0536 -1.2417  0.8112
32151SOL     OW 2544   7.125  10.578   4.751 -0.1973 -0.0213  0.3069
32151SOL    HW1 2545   7.031  10.588   4.734 -0.2796 -0.7160  0.3201
32151SOL    HW2 2546   7.146  10.491   4.716  0.3439 -0.0607  0.7283
32152SOL     OW 2547   4.720   6.869   2.097  0.4519  0.2579 -0.1070
32152SOL    HW1 2548   4.681   6.784   2.117 -0.9671  0.9476  0.2699
32152SOL    HW2 2549   4.705   6.881   2.004  2.9060 -0.9457 -0.7345
32153SOL     OW 2550   3.592   0.620   7.231  0.1211 -0.0128  0.2358
32153SOL    HW1 2551   3.633   0.639   7.315 -1.2821  1.1871  0.7019
32153SOL    HW2 2552   3.586   0.525   7.228  1.3578 -0.1289  0.8979
32154SOL     OW 2553  10.319   8.767   1.978 -0.1434  0.4340  0.1734
32154SOL    HW1 2554  10.270   8.814   2.047 -0.6408  0.4064 -0.1603
32154SOL    HW2 2555  10.283   8.800   1.896  1.4452  1.5603 -0.1239
32155SOL     OW 2556   8.499   3.279   5.592  0.1952 -0.0979 -0.0502
32155SOL    HW1 2557   8.413   3.304   5.627 -0.1780 -1.0139 -0.2916
32155SOL    HW2 2558   8.534   3.219   5.657  0.3852 -0.2093 -0.2567
32156SOL     OW 2559   0.602   0.106   1.439 -0.4534  0.3533 -0.1309
32156SOL    HW1 2560   0.537   0.083   1.505 -0.0900  0.3892  0.2438
32156SOL    HW2 2561   0.686   0.098   1.484 -0.1987  0.3597 -0.5935
32157SOL     OW 2562   9.270   9.515  10.245  0.1316  0.1401 -0.6089
32157SOL    HW1 2563   9.291   9.596  10.291 -0.2090 -1.3358  2.3859
32157SOL    HW2 2564   9.313   9.447  10.296 -0.0845 -1.6615 -2.6948
32158SOL     OW 2565   0.096   4.302   0.096  0.3617 -0.2327 -0.1586
32158SOL    HW1 2566   0.067   4.257   0.175  2.4022 -0.7106  0.3598
32158SOL    HW2 2567   0.064   4.247   0.024 -1.0830 -0.0505  0.3003
32159SOL     OW 2568   2.837   7.022   9.239  0.1861 -0.0001  0.0376
32159SOL    HW1 2569   2.811   6.935   9.269  0.6552 -0.8552 -1.8600
32159SOL    HW2 2570   2.930   7.028   9.261 -0.1809  0.6721  1.5257
32160SOL     OW 2571   4.305   7.993  10.646  0.2187  0.2278 -0.2031
32160SOL    HW1 2572   4.364   8.032  10.711 -0.3473  0.9634 -0.1228
32160SOL    HW2 2573   4.301   7.900  10.670 -1.4066  0.7858  1.9501
32161SOL     OW 2574   0.411   3.672   0.203  0.0770  0.2264  0.3754
32161SOL    HW1 2575   0.390   3.676   0.296  0.3844  2.7540  0.3974
32161SOL    HW2 2576   0.455   3.755   0.184  0.6907 -0.5332 -1.8770
32162SOL     OW 2577   0.537   2.176   1.350  0.2923  0.0748  0.1306
32162SOL    HW1 2578   0.450   2.180   1.311 -0.1787 -1.9893  0.8138
32162SOL    HW2 2579   0.559   2.266   1.373 -0.8728  0.8686 -1.7010
32163SOL     OW 2580   2.881   1.627   4.234  0.3761 -0.2306  0.4527
32163SOL    HW1 2581   2.976   1.617   4.239  0.5292  1.1681  0.8913
32163SOL    HW2 2582   2.847   1.538   4.239  1.6365 -0.7014  1.1449
32164SOL     OW 2583  10.134   8.207   0.738  0.0710  0.3252 -0.3277
32164SOL    HW1 2584  10.210   8.171   0.693  0.0163 -0.6872  0.3554
32164SOL    HW2 2585  10.167   8.231   0.825 -0.1959  0.7309 -0.3336
32165SOL     OW 2586   2.833   8.004   4.030 -0.0950 -0.3587 -0.2231
32165SOL    HW1 2587   2.897   8.026   4.098  1.6286  0.7315 -2.0843
32165SOL    HW2 2588   2.774   8.079   4.029 -1.8403 -1.5849  1.8360
32166SOL     OW 2589   4.570   8.951   3.961  0.3782  0.8636 -0.0534
32166SOL    HW1 2590   4.652   8.992   3.989  2.2677 -1.8232 -1.2714
32166SOL    HW2 2591   4.562   8.873   4.015 -2.1430  1.6589  0.9059
32167SOL     OW 2592   3.764   8.208   8.087  0.1230 -0.0773  0.1536
32167SOL    HW1 2593   3.731   8.247   8.168 -1.8522 -0.1772 -0.5442
32167SOL    HW2 2594   3.809   8.129   8.115 -0.4681 -0.0724  1.1822
32168SOL     OW 2595   1.708   1.264   9.175  0.5315  0.6454 -0.4750
32168SOL    HW1 2596   1.679   1.204   9.245  0.1718  0.8672 -0.4348
32168SOL    HW2 2597   1.785   1.221   9.138  0.8099  0.5925  0.1525
32169SOL     OW 2598   9.231   3.005   1.503  0.1146  0.1242  0.0321
32169SOL    HW1 2599   9.195   3.023   1.590  1.1397 -0.5438  0.6171
32169SOL    HW2 2600   9.186   2.925   1.476  0.4521 -0.1873  0.3637
32170SOL     OW 2601   7.870   5.896   6.745 -0.5230 -0.1979 -0.0270
32170SOL    HW1 2602   7.954   5.928   6.710 -1.0468  0.1973 -0.9482
32170SOL    HW2 2603   7.804   5.941   6.693 -1.2953 -1.6274 -0.3208
32171SOL     OW 2604   1.542   9.353   9.803  0.1644  0.3875 -0.0917
32171SOL    HW1 2605   1.495   9.425   9.844  1.0954  2.3850 -2.2768
32171SOL    HW2 2606   1.480   9.317   9.739  0.3590  0.6118 -0.4121
32172SOL     OW 2607   1.797   3.021   1.161 -0.5206  0.3221  0.1470
32172SOL    HW1 2608   1.823   2.983   1.245 -0.4790  1.5104  0.6955
32172SOL    HW2 2609   1.719   3.072   1.181 -0.7781  0.2476 -0.6382
32173SOL     OW 2610   2.454   1.301   5.940 -0.1852  0.2430  0.2984
32173SOL    HW1 2611   2.526   1.360   5.964  0.6831 -0.4606 -0.4524
32173SOL    HW2 2612   2.375   1.350   5.960  0.4981  1.8083 -0.6237
32174SOL     OW 2613   0.947   3.566   2.028  0.1057  0.2551 -0.6877
32174SOL    HW1 2614   1.028   3.600   1.990  0.0939  1.4119  0.2815
32174SOL    HW2 2615   0.894   3.540   1.952 -0.9836  4.7950 -1.7837
32175SOL     OW 2616   1.313   1.994   6.685 -0.5476 -0.0477  0.1839
32175SOL    HW1 2617   1.330   2.088   6.695 -0.2234 -0.1028  0.1838
32175SOL    HW2 2618   1.383   1.952   6.735 -0.3259 -0.2965 -0.3268
32176SOL     OW 2619   0.711  10.421   9.470 -0.1206  0.5187  0.5191
32176SOL    HW1 2620   0.784  10.362   9.451  0.6057  1.0583  1.5616
32176SOL    HW2 2621   0.633  10.371   9.447  0.5874  0.4155 -1.9553
32177SOL     OW 2622   6.152   8.827   8.087 -0.0639  0.1423  0.1736
32177SOL    HW1 2623   6.182   8.747   8.045  0.4816  0.7026 -0.5240
32177SOL    HW2 2624   6.204   8.833   8.167  0.2790  0.0784 -0.0416
32178SOL     OW 2625  10.427   8.363   4.163  0.0309 -0.1684  0.4096
32178SOL    HW1 2626  10.467   8.361   4.076  1.1511  1.7627  0.8273
32178SOL    HW2 2627  10.492   8.320   4.219  1.2938  2.2823  0.9536
32179SOL     OW 2628   9.177   6.248   4.649  0.3367  0.2051 -0.1190
32179SOL    HW1 2629   9.194   6.183   4.580 -0.3140 -1.6223  1.3709
32179SOL    HW2 2630   9.096   6.291   4.621  0.8337  0.5117 -1.1761
32180SOL     OW 2631   8.129  10.169   0.028  0.2628 -0.0695  0.0713
32180SOL    HW1 2632   8.177  10.105  -0.024 -0.3397 -1.4548  1.1357
32180SOL    HW2 2633   8.185  10.186   0.103 -0.1046 -0.2868  0.3978
32181SOL     OW 2634  10.604   2.320   2.816  0.3232  0.0209 -0.3431
32181SOL    HW1 2635  10.576   2.237   2.777  1.5442 -0.0775 -1.0658
32181SOL    HW2 2636  10.691   2.336   2.778  0.6537  0.9837  0.7624
32182SOL     OW 2637   9.844   0.083   8.702 -0.0379  0.3180 -0.0360
32182SOL    HW1 2638   9.909   0.032   8.655 -0.4956  0.9951 -1.4657
32182SOL    HW2 2639   9.762   0.065   8.656 -0.2845  1.9693 -0.3124
32183SOL     OW 2640   2.867  10.784   6.887 -0.4765  0.1845 -0.0787
32183SOL    HW1 2641   2.917  10.740   6.956 -1.3420 -0.0201  0.4287
32183SOL    HW2 2642   2.854  10.717   6.820  0.7639  0.5088 -0.6779
32184SOL     OW 2643   2.894   9.238   6.629  0.5044  0.4198 -0.2520
32184SOL    HW1 2644   2.807   9.277   6.633 -0.1037 -0.7858 -1.0576
32184SOL    HW2 2645   2.913   9.233   6.535 -0.6193 -3.5788 -0.4536
32185SOL     OW 2646   3.806   2.267   9.914 -0.4447 -0.2179 -0.0076
32185SOL    HW1 2647   3.766   2.241   9.997 -1.4566 -0.3357 -0.5195
32185SOL    HW2 2648   3.899   2.273   9.933 -0.7305  0.3428  1.2958
32186SOL     OW 2649   6.718   3.411   5.226 -0.0171  0.1559  0.7425
32186SOL    HW1 2650   6.679   3.467   5.292 -0.2538  0.9175 -0.0147
32186SOL    HW2 2651   6.787   3.465   5.187  1.0856 -0.7865  1.3246
32187SOL     OW 2652   3.973   8.356  10.503  0.0089  0.0814  0.1416
32187SOL    HW1 2653   4.007   8.366  10.593  1.4780 -1.0458 -0.2549
32187SOL    HW2 2654   3.878   8.358  10.513  0.1387 -0.6455  1.8081
32188SOL     OW 2655   3.967   7.105   8.817  0.2583  0.8486  0.5902
32188SOL    HW1 2656   3.971   7.016   8.852  1.7475  1.2970  1.6592
32188SOL    HW2 2657   4.058   7.126   8.795  0.0625  2.4007  1.1310
32189SOL     OW 2658   8.040   1.698   6.067  0.2493 -0.3978 -0.0050
32189SOL    HW1 2659   8.129   1.673   6.091  0.6613 -0.3991 -1.4254
32189SOL    HW2 2660   7.984   1.640   6.118  1.0637 -0.6338  0.6493
32190SOL     OW 2661   5.479   9.812  10.718 -0.3491  0.2209 -0.2244
32190SOL    HW1 2662   5.484   9.753  10.643 -1.5165  1.1280 -1.0675
32190SOL    HW2 2663   5.438   9.891  10.682 -3.3217 -0.2101  1.8832
32191SOL     OW 2664   3.263   7.447   7.618 -0.2869 -0.2770 -0.1918
32191SOL    HW1 2665   3.279   7.387   7.691  2.1984  0.9819  0.4378
32191SOL    HW2 2666   3.344   7.499   7.613 -0.8808  0.5170 -3.0628
32192SOL     OW 2667   6.713   7.687   6.999 -0.4908 -0.5089  0.1785
32192SOL    HW1 2668   6.746   7.746   6.932 -1.5677 -0.2696 -0.1572
32192SOL    HW2 2669   6.657   7.625   6.951 -2.5311  0.6054  1.0188
32193SOL     OW 2670   2.265   2.696   3.723  0.5152  0.5865  0.0257
32193SOL    HW1 2671   2.351   2.666   3.753 -1.4510 -2.8404  3.0398
32193SOL    HW2 2672   2.256   2.784   3.762  2.3933  0.8064  0.0813
32194SOL     OW 2673   6.072   9.729   3.641  0.0559 -0.0210 -0.6554
32194SOL    HW1 2674   6.053   9.654   3.586  1.2300  0.0840 -1.2502
32194SOL    HW2 2675   6.011   9.797   3.612 -0.7990 -0.6369 -0.3227
32195SOL     OW 2676   5.562   1.122   4.173  0.2835  0.4772 -0.5654
32195SOL    HW1 2677   5.600   1.129   4.086  0.8585  1.3179 -0.2654
32195SOL    HW2 2678   5.486   1.066   4.162  0.1288  0.8768 -1.6820
32196SOL     OW 2679   8.366  10.279   2.563  0.2626 -0.0074 -0.1819
32196SOL    HW1 2680   8.434  10.233   2.612  2.0535  1.9739 -0.6644
32196SOL    HW2 2681   8.384  10.258   2.471  0.6312  0.9834 -0.3515
32197SOL     OW 2682   3.492   6.301   7.864  0.3680 -0.4661 -0.3005
32197SOL    HW1 2683   3.521   6.381   7.909 -0.2714 -1.4498  2.0418
32197SOL    HW2 2684   3.423   6.331   7.804  1.1241  0.9040 -0.5286
32198SOL     OW 2685   0.706   3.703   6.799  0.0306 -0.2222 -0.5633
32198SOL    HW1 2686   0.638   3.672   6.740  0.9614 -1.1255 -1.2112
32198SOL    HW2 2687   0.763   3.757   6.745  1.0336 -1.2618 -0.5995
32199SOL     OW 2688   8.905   5.983   7.690 -0.2649  0.9400 -0.1078
32199SOL    HW1 2689   8.878   6.068   7.722 -2.1227  0.5626 -0.5808
32199SOL    HW2 2690   8.835   5.955   7.631  0.6052 -0.6363 -0.4738
32200SOL     OW 2691   8.833   1.801   5.606  0.0001 -0.0629 -1.0235
32200SOL    HW1 2692   8.772   1.728   5.591 -1.0576  0.7451 -0.7902
32200SOL    HW2 2693   8.777   1.874   5.631  1.1046  0.6470 -0.5474
32201SOL     OW 2694  10.881   2.766   4.873 -0.2320 -0.3009 -0.1303
32201SOL    HW1 2695  10.976   2.778   4.884  0.0445 -1.9883 -0.4180
32201SOL    HW2 2696  10.855   2.840   4.818  1.1139 -0.3472 -0.8940
32202SOL     OW 2697  10.531   1.781   0.820  0.0032  0.1746  0.2421
32202SOL    HW1 2698  10.499   1.861   0.778 -0.0150 -1.0646 -2.2488
32202SOL    HW2 2699  10.609   1.757   0.770  1.1919 -0.3248  2.2273
32203SOL     OW 2700   1.794   0.687   0.967  0.1611 -0.4054  0.4345
32203SOL    HW1 2701   1.771   0.770   0.925 -0.0810 -1.2501 -1.1697
32203SOL    HW2 2702   1.822   0.712   1.055 -0.7722  1.2880  0.3027
32204SOL     OW 2703   2.165   6.393   0.359 -0.2250  0.0414  0.1551
32204SOL    HW1 2704   2.179   6.433   0.444 -0.1483  0.9154 -0.2559
32204SOL    HW2 2705   2.185   6.463   0.296 -2.7985  0.2536 -0.5522
32205SOL     OW 2706   9.549  10.635   1.155 -0.3755  0.9337 -0.1064
32205SOL    HW1 2707   9.578  10.556   1.110 -2.5617  0.4225 -0.7604
32205SOL    HW2 2708   9.601  10.706   1.116  0.1856  0.0676 -0.9804
32206SOL     OW 2709   2.359   4.456   4.483  0.3377 -0.6333 -0.3108
32206SOL    HW1 2710   2.277   4.429   4.524 -0.1903 -1.0888 -1.6224
32206SOL    HW2 2711   2.428   4.419   4.539 -0.3407 -0.6034  0.5610
32207SOL     OW 2712   5.397   3.894   5.369  0.1296  0.2545  0.1788
32207SOL    HW1 2713   5.460   3.858   5.432  0.5828 -0.6764 -0.7522
32207SOL    HW2 2714   5.431   3.865   5.284  0.3966  2.7601 -0.6344
32208SOL     OW 2715   4.489   4.475   3.611 -0.3578 -0.1206  0.8098
32208SOL    HW1 2716   4.409   4.525   3.590 -1.1363 -1.8944 -0.6665
32208SOL    HW2 2717   4.508   4.425   3.532  1.5019 -0.7268  1.5912
32209SOL     OW 2718   2.479   7.415   9.561 -0.6114  0.2971 -0.0818
32209SOL    HW1 2719   2.455   7.498   9.521  3.2471  1.7234  0.1808
32209SOL    HW2 2720   2.480   7.353   9.487  0.0721  1.3794 -1.0148
32210SOL     OW 2721   0.249   5.739   7.688 -0.4712  0.1848  0.0032
32210SOL    HW1 2722   0.245   5.717   7.781 -1.3047 -1.0813 -0.3041
32210SOL    HW2 2723   0.229   5.657   7.643  0.1416  0.7197 -1.3080
32211SOL     OW 2724   9.746   4.513   7.581 -0.0344 -0.1440 -0.1661
32211SOL    HW1 2725   9.746   4.608   7.574 -0.1310 -0.2307 -1.4739
32211SOL    HW2 2726   9.827   4.492   7.629 -0.3357  0.6144  0.7067
32212SOL     OW 2727   1.782   4.258   4.910  0.2350  0.0266  0.0779
32212SOL    HW1 2728   1.822   4.174   4.935 -1.4584 -0.5705  0.9490
32212SOL    HW2 2729   1.798   4.265   4.816  2.1946 -0.2434  0.3419
32213SOL     OW 2730   0.141   9.223   9.892 -0.1849 -0.2178  0.3430
32213SOL    HW1 2731   0.215   9.163   9.884 -1.8461 -2.0748 -2.9194
32213SOL    HW2 2732   0.146   9.278   9.814 -1.1200  1.0007  1.1076
32214SOL     OW 2733   6.699   0.271   3.597 -0.0916  0.4113 -0.3021
32214SOL    HW1 2734   6.715   0.177   3.598  3.6965  0.8749  1.7518
32214SOL    HW2 2735   6.673   0.292   3.686  0.4124  1.4299 -0.3748
32215SOL     OW 2736   2.766   9.633   2.712  0.2079  0.2674 -0.0967
32215SOL    HW1 2737   2.846   9.658   2.667  0.6534  0.1493  0.6109
32215SOL    HW2 2738   2.701   9.697   2.683  0.0672 -0.7001 -2.0765
32216SOL     OW 2739   4.529   5.344   0.514 -0.1494  0.1358 -0.0375
32216SOL    HW1 2740   4.525   5.420   0.572 -0.4102  0.7054 -0.7773
32216SOL    HW2 2741   4.592   5.285   0.555  0.0157  0.7301  0.5780
32217SOL     OW 2742   2.618   7.964   4.877  0.4738  0.0737  0.3033
32217SOL    HW1 2743   2.660   8.044   4.843  0.0957 -0.6513 -2.0059
32217SOL    HW2 2744   2.684   7.926   4.935  1.6948  0.7217 -0.6159
32218SOL     OW 2745   3.177   7.848   8.499 -0.0279 -0.5839  0.3219
32218SOL    HW1 2746   3.100   7.803   8.534 -0.5386 -0.6218 -0.8220
32218SOL    HW2 2747   3.194   7.805   8.415  1.8736 -1.2706  1.0040
32219SOL     OW 2748   7.521   1.342  10.520 -0.0345 -0.0170 -0.4928
32219SOL    HW1 2749   7.469   1.419  10.496 -0.4465 -0.0172  0.3539
32219SOL    HW2 2750   7.459   1.283  10.563  0.3384 -0.7115 -0.8803
32220SOL     OW 2751   5.573   7.743   8.520 -0.3406 -0.0623  0.2796
32220SOL    HW1 2752   5.502   7.763   8.460  0.4373  0.4158 -0.5156
32220SOL    HW2 2753   5.610   7.661   8.486  0.8683  0.8289 -0.6652
32221SOL     OW 2754   1.476   1.490   6.015 -0.2360 -0.0445  0.0453
32221SOL    HW1 2755   1.422   1.474   5.937  0.6008 -0.6678 -0.4282
32221SOL    HW2 2756   1.499   1.403   6.046  1.6056  0.1795 -0.5678
32222SOL     OW 2757   9.645   1.062   8.526  0.7026 -0.0690 -0.2476
32222SOL    HW1 2758   9.699   1.011   8.465  1.2023  0.6315 -0.4101
32222SOL    HW2 2759   9.555   1.047   8.497  0.7703 -1.5376  0.2378
32223SOL     OW 2760   6.259   0.668   2.246 -0.5843 -0.0088 -0.0348
32223SOL    HW1 2761   6.218   0.597   2.295 -0.3667  0.3047  0.6155
32223SOL    HW2 2762   6.288   0.628   2.164 -1.3254 -0.4452 -0.0842
32224SOL     OW 2763   3.411   0.775  10.411 -0.4387  0.1045 -0.2177
32224SOL    HW1 2764   3.424   0.683  10.390 -1.5002 -0.2511  0.5800
32224SOL    HW2 2765   3.500   0.811  10.417  0.1837 -1.5632  2.3362
32225SOL     OW 2766   8.958   6.925  10.190 -0.0154 -0.7638  0.2025
32225SOL    HW1 2767   8.995   6.847  10.231 -0.3672  0.2374  2.6499
32225SOL    HW2 2768   9.028   6.990  10.196  0.1113 -0.7243 -1.3792
32226SOL     OW 2769   5.807   3.003   4.968  0.3209 -0.0440  0.4591
32226SOL    HW1 2770   5.713   2.986   4.960  0.4555 -0.1175 -1.8065
32226SOL    HW2 2771   5.840   2.932   5.023 -0.7839 -0.7702  0.2117
32227SOL     OW 2772   6.146   1.748   9.485 -0.1460  0.1599  0.2431
32227SOL    HW1 2773   6.228   1.785   9.452 -0.0881 -0.7781 -0.7332
32227SOL    HW2 2774   6.113   1.813   9.547  0.6783  1.1536 -0.3303
32228SOL     OW 2775   9.118   4.526   7.230  0.7972 -0.0412  0.2033
32228SOL    HW1 2776   9.110   4.439   7.191 -0.2380 -0.4451  1.2715
32228SOL    HW2 2777   9.147   4.509   7.320 -0.5593  0.6296  0.7899
32229SOL     OW 2778   9.090   9.693   4.631 -0.1964  1.0964 -0.6511
32229SOL    HW1 2779   9.058   9.618   4.580 -1.4027  1.0628  0.1168
32229SOL    HW2 2780   9.079   9.667   4.722  0.5477  1.7393 -0.3652
32230SOL     OW 2781  10.503  10.296  10.831  0.2444 -0.3146  0.1868
32230SOL    HW1 2782  10.582  10.290  10.778 -0.0902 -1.8076 -0.1899
32230SOL    HW2 2783  10.526  10.355  10.903  2.0284 -1.5244  0.6600
32231SOL     OW 2784   3.117   0.660   3.278 -0.3491  0.0122  0.7198
32231SOL    HW1 2785   3.041   0.621   3.236  0.1013 -0.5090  0.3605
32231SOL    HW2 2786   3.190   0.641   3.219 -0.1507  1.6835  0.3768
32232SOL     OW 2787   1.149   6.828  10.590  0.3773 -0.5671  0.0588
32232SOL    HW1 2788   1.193   6.789  10.665  1.7299 -0.7720 -0.7984
32232SOL    HW2 2789   1.220   6.866  10.538 -0.7292  1.5307 -0.0297
32233SOL     OW 2790   0.542   8.847   0.956 -0.1111 -0.6069  0.1311
32233SOL    HW1 2791   0.601   8.851   0.880 -0.8956  0.2525 -0.4500
32233SOL    HW2 2792   0.455   8.851   0.918 -0.5207 -0.3024  1.0912
32234SOL     OW 2793   4.027   0.929   7.503 -0.4225  0.2884 -0.2932
32234SOL    HW1 2794   4.010   0.897   7.592 -0.8093  1.5797  0.1281
32234SOL    HW2 2795   3.982   1.014   7.500 -1.1866 -0.1483 -2.0341
32235SOL     OW 2796   9.943   9.325   3.291  0.4110 -0.4463 -0.1629
32235SOL    HW1 2797   9.848   9.317   3.304  0.3711  0.5811  0.3073
32235SOL    HW2 2798   9.969   9.240   3.255 -0.9988 -0.0884 -2.2170
32236SOL     OW 2799   8.876   0.183   3.358  0.4723 -0.0826 -0.2689
32236SOL    HW1 2800   8.893   0.088   3.362  0.6224 -0.1135 -1.3432
32236SOL    HW2 2801   8.799   0.196   3.412  0.6380 -0.7797  0.1444
32237SOL     OW 2802  10.641  10.593   9.887  0.4015  0.4760  0.3007
32237SOL    HW1 2803  10.732  10.619   9.879  0.3345  0.3946 -0.8332
32237SOL    HW2 2804  10.593  10.655   9.832  0.0284 -0.7784 -0.8460
32238SOL     OW 2805   5.890   1.452   3.872 -0.2525 -0.0080 -0.2345
32238SOL    HW1 2806   5.898   1.373   3.925  1.1538 -1.0358 -1.8864
32238SOL    HW2 2807   5.813   1.496   3.907  1.8534  0.6933  4.3096
32239SOL     OW 2808   1.774   5.985   0.910  0.2595 -0.0709 -0.6197
32239SOL    HW1 2809   1.704   5.949   0.964  0.7553  1.6396  1.2860
32239SOL    HW2 2810   1.738   6.067   0.877  1.0162  0.3295 -0.4498
32240SOL     OW 2811   0.796   4.331   6.212 -0.0164 -0.0659  0.3542
32240SOL    HW1 2812   0.880   4.376   6.206  1.7194 -2.6432  2.7716
32240SOL    HW2 2813   0.805   4.253   6.157 -1.6544  0.6129 -0.9784
32241SOL     OW 2814   5.295   8.930   0.091  0.2676  0.2180  0.2600
32241SOL    HW1 2815   5.387   8.907   0.081  0.8249  2.9023 -1.8618
32241SOL    HW2 2816   5.295   9.008   0.146 -0.6651  0.6106 -0.2720
32242SOL     OW 2817   6.287   6.204   7.030  0.5562  0.0712  0.0214
32242SOL    HW1 2818   6.330   6.284   7.002 -0.4475  0.1883 -1.2974
32242SOL    HW2 2819   6.209   6.234   7.078  0.0863 -0.0885 -0.6220
32243SOL     OW 2820   3.418   8.919   0.208 -0.2510  0.1477  0.0101
32243SOL    HW1 2821   3.412   8.930   0.302  0.9116 -0.5961  0.1977
32243SOL    HW2 2822   3.500   8.870   0.195 -1.0907 -0.9759 -1.2734
32244SOL     OW 2823   0.731   6.075   6.115 -0.6581 -0.2122  0.3250
32244SOL    HW1 2824   0.675   6.060   6.191 -1.0041  0.2544  0.1677
32244SOL    HW2 2825   0.820   6.057   6.147 -0.8571 -0.5941  0.6753
32245SOL     OW 2826   7.074   2.525   7.824  0.4621  0.1822 -0.2633
32245SOL    HW1 2827   7.148   2.549   7.769  1.0084  4.3321  1.8462
32245SOL    HW2 2828   7.113   2.504   7.909 -0.6473 -0.2740  0.1548
32246SOL     OW 2829   7.534   1.656  10.742  0.6818  0.1152  0.1660
32246SOL    HW1 2830   7.579   1.678  10.661 -0.6870  1.0879 -0.3695
32246SOL    HW2 2831   7.604   1.632  10.803  1.7605 -0.2962 -1.1834
32247SOL     OW 2832   3.785   2.358   3.028  0.0284  0.4810 -0.1197
32247SOL    HW1 2833   3.748   2.281   2.985 -1.1099  0.9877 -0.0841
32247SOL    HW2 2834   3.709   2.406   3.059  0.6820  1.9673 -0.7367
32248SOL     OW 2835   0.983   8.770   1.889 -0.0049  0.2618  0.9374
32248SOL    HW1 2836   0.974   8.687   1.936 -1.4123 -0.3752 -0.3733
32248SOL    HW2 2837   1.076   8.774   1.865 -0.3154 -2.1783 -1.0794
32249SOL     OW 2838   7.664   6.693   8.261 -0.1967  0.3167 -0.5256
32249SOL    HW1 2839   7.686   6.635   8.187 -0.6482 -0.7040  0.1167
32249SOL    HW2 2840   7.729   6.762   8.257  1.9285 -1.5253  0.1102
32250SOL     OW 2841   3.052   0.500   3.892  0.3137  0.6405 -0.5869
32250SOL    HW1 2842   3.013   0.542   3.969 -0.2707  0.1817 -0.6289
32250SOL    HW2 2843   3.092   0.573   3.844  0.3529  0.9837 -0.0452
32251SOL     OW 2844   5.219   9.655   2.131  0.3117  0.7913 -0.2935
32251SOL    HW1 2845   5.144   9.658   2.072  0.1893 -1.3207 -0.3310
32251SOL    HW2 2846   5.180   9.649   2.218  0.4136  0.0325 -0.2911
32252SOL     OW 2847   7.637   0.978   9.551 -0.0921  0.0181 -0.2259
32252SOL    HW1 2848   7.563   1.032   9.576  0.5481  0.5247  0.5983
32252SOL    HW2 2849   7.690   1.033   9.493 -0.8799 -0.7004 -1.6903
32253SOL     OW 2850   7.898   6.558   9.149 -0.1958 -0.0866  0.0742
32253SOL    HW1 2851   7.981   6.604   9.161 -0.8112  0.6822  1.8294
32253SOL    HW2 2852   7.859   6.598   9.071  1.2714 -0.8181 -1.0785
32254SOL     OW 2853  10.276   0.977   2.682 -0.7289  0.0293 -0.4249
32254SOL    HW1 2854  10.325   0.906   2.640  0.0328  1.0845 -1.3559
32254SOL    HW2 2855  10.313   1.057   2.646 -1.3579  0.9318  0.8433
32255SOL     OW 2856   8.715   1.887  10.906  0.2089 -0.6149  0.0313
32255SOL    HW1 2857   8.798   1.882  10.954  0.8274 -1.4383 -1.0917
32255SOL    HW2 2858   8.669   1.960  10.947  1.1029 -0.7049  1.2666
32256SOL     OW 2859   2.812  10.281   5.898  0.5079  0.0821  0.2568
32256SOL    HW1 2860   2.810  10.194   5.857 -1.4643 -1.2913  2.9290
32256SOL    HW2 2861   2.806  10.342   5.825  0.1656 -2.0723 -1.6334
32257SOL     OW 2862   2.891   2.736   2.329 -0.2372 -0.1265 -0.5514
32257SOL    HW1 2863   2.908   2.820   2.287 -1.7742  0.0581 -0.8656
32257SOL    HW2 2864   2.956   2.731   2.399  0.5185  0.8646 -1.1478
32258SOL     OW 2865   1.680   7.399   7.734 -0.1666 -0.5966 -0.4544
32258SOL    HW1 2866   1.736   7.360   7.667 -0.2357 -1.0406 -0.2570
32258SOL    HW2 2867   1.591   7.375   7.709 -0.0941 -2.4312  0.8108
32259SOL     OW 2868   9.206   5.775  10.187  0.6948 -0.5529  0.3227
32259SOL    HW1 2869   9.150   5.701  10.167  0.9173 -0.5385 -0.3840
32259SOL    HW2 2870   9.198   5.787  10.281 -0.2143 -0.7693  0.2825
32260SOL     OW 2871   6.708   8.219  10.453 -0.2012  0.5195  0.2571
32260SOL    HW1 2872   6.789   8.176  10.480 -0.8675 -0.1430  1.2872
32260SOL    HW2 2873   6.651   8.214  10.530 -0.5712  2.6552  0.1982
32261SOL     OW 2874   5.225   7.751   7.268 -0.1118 -0.0326 -0.1725
32261SOL    HW1 2875   5.144   7.742   7.218  0.2563  0.6370 -0.9080
32261SOL    HW2 2876   5.206   7.709   7.352 -0.4152 -2.1049 -1.2135
32262SOL     OW 2877   6.575  10.268   5.190  0.4590 -0.2603  0.2608
32262SOL    HW1 2878   6.543  10.216   5.264 -0.1723  0.1685  0.2968
32262SOL    HW2 2879   6.574  10.358   5.222  2.7005 -0.2926  0.6113
32263SOL     OW 2880   4.708   6.050  10.292 -0.0946  0.4309  0.1153
32263SOL    HW1 2881   4.777   6.021  10.233  0.7731  0.4125  1.1033
32263SOL    HW2 2882   4.675   6.131  10.253  1.3824  1.1363  0.2793
32264SOL     OW 2883   2.489   9.616   9.231  0.0162  0.5119 -0.5741
32264SOL    HW1 2884   2.401   9.625   9.267  0.3128  0.0156  0.2996
32264SOL    HW2 2885   2.475   9.591   9.140 -0.7562 -0.6259 -0.1652
32265SOL     OW 2886  10.702   0.455   9.444  0.6997 -0.1694  0.2820
32265SOL    HW1 2887  10.624   0.495   9.406  1.1396  0.0440 -0.4263
32265SOL    HW2 2888  10.750   0.528   9.483  1.1154 -0.1230 -0.3120
32266SOL     OW 2889   5.903   0.329   7.310 -0.1036 -0.3547  0.5848
32266SOL    HW1 2890   5.898   0.424   7.321 -1.1267 -0.6618  3.4540
32266SOL    HW2 2891   5.812   0.301   7.302  0.0327 -1.2835  2.0267
32267SOL     OW 2892   9.461   8.342   5.463 -0.3851  0.3318 -0.6099
32267SOL    HW1 2893   9.514   8.282   5.411 -0.1089 -0.4557  0.5330
32267SOL    HW2 2894   9.488   8.325   5.554 -0.5778  1.9099 -0.2252
32268SOL     OW 2895   2.980   4.185   9.920 -0.6470 -0.0242 -0.1476
32268SOL    HW1 2896   3.028   4.243   9.860 -0.6679  0.8770  0.6770
32268SOL    HW2 2897   3.043   4.116   9.942 -0.8557 -0.7543 -1.7162
32269SOL     OW 2898   3.429   9.954   7.320  0.1931 -0.1584  0.2354
32269SOL    HW1 2899   3.349  10.005   7.305  0.0081 -0.2380  0.9241
32269SOL    HW2 2900   3.400   9.877   7.368  0.6819 -0.1907  0.4856
32270SOL     OW 2901   4.487   9.822   6.990  0.5828 -0.7334  0.0015
32270SOL    HW1 2902   4.431   9.899   6.986 -2.1793 -2.3881  2.4567
32270SOL    HW2 2903   4.561   9.848   7.044  0.0669  0.3587  0.2043
32271SOL     OW 2904   1.901   4.530   8.678  0.2839 -0.3005  0.2953
32271SOL    HW1 2905   1.982   4.482   8.657 -0.9460 -2.2347 -0.3425
32271SOL    HW2 2906   1.910   4.553   8.770  1.0619 -1.5825  0.5729
32272SOL     OW 2907   4.212   9.236   6.873  0.0904  0.1783 -0.0817
32272SOL    HW1 2908   4.290   9.287   6.848  0.2401 -0.2539 -0.5140
32272SOL    HW2 2909   4.143   9.269   6.816  0.5190 -1.0679 -1.3906
32273SOL     OW 2910   5.085   7.967   1.817 -0.4175 -0.4324  0.0845
32273SOL    HW1 2911   5.133   7.885   1.808  0.0168 -0.3619  1.4949
32273SOL    HW2 2912   5.125   8.010   1.893 -2.2937 -0.0769  0.9261
32274SOL     OW 2913   3.803   6.391   2.910 -0.0691 -0.2544  0.3657
32274SOL    HW1 2914   3.752   6.460   2.952  1.3452  1.4939 -0.6555
32274SOL    HW2 2915   3.891   6.400   2.947 -0.3558 -3.1129  1.9946
32275SOL     OW 2916   6.226   2.063   8.232 -0.5125  0.2848 -0.2944
32275SOL    HW1 2917   6.231   1.970   8.209 -0.5367 -0.4393  2.3156
32275SOL    HW2 2918   6.132   2.081   8.236 -0.6774 -0.6575  2.7086
32276SOL     OW 2919   5.638   4.908   0.338  0.7454 -0.4478 -0.1991
32276SOL    HW1 2920   5.692   4.912   0.417  0.6808  2.1870 -0.2232
32276SOL    HW2 2921   5.664   4.984   0.287 -2.0408  0.1949 -0.8124
32277SOL     OW 2922   2.049  10.424  10.277  0.7030 -0.1818 -0.7059
32277SOL    HW1 2923   2.029  10.383  10.361 -0.1521 -0.3627 -0.9921
32277SOL    HW2 2924   2.067  10.516  10.298 -1.8557  0.3516 -0.5697
32278SOL     OW 2925  10.369   0.879   5.560 -0.6717 -0.3524  0.1119
32278SOL    HW1 2926  10.332   0.939   5.495 -0.8072 -1.2562 -0.6705
32278SOL    HW2 2927  10.435   0.829   5.512  1.6676  1.2188  1.4662
32279SOL     OW 2928   0.153  10.891   4.056 -0.1062  0.3945 -0.5638
32279SOL    HW1 2929   0.137  10.814   4.110  0.5423  0.2352 -0.5981
32279SOL    HW2 2930   0.068  10.936   4.053 -0.0139  0.7491  1.1037
32280SOL     OW 2931   5.595   2.979  10.798 -0.3268  0.3837  0.5746
32280SOL    HW1 2932   5.665   2.958  10.859 -1.8876 -0.3413  2.2224
32280SOL    HW2 2933   5.570   2.894  10.760 -1.4473  0.3334  1.3562
32281SOL     OW 2934   3.961   4.393   4.087 -0.2219  0.5263 -0.1740
32281SOL    HW1 2935   3.867   4.402   4.067  0.0088 -1.1051 -2.2861
32281SOL    HW2 2936   4.005   4.429   4.010  0.9390  1.4544  0.8849
32282SOL     OW 2937   3.751   3.034   0.014  0.0619  0.3269 -0.2864
32282SOL    HW1 2938   3.742   3.091  -0.063 -3.8386  1.5281  0.8183
32282SOL    HW2 2939   3.730   2.947  -0.019 -1.0459  0.7414 -0.7387
32283SOL     OW 2940   2.670   1.856   4.275 -0.7260 -0.6370  0.2133
32283SOL    HW1 2941   2.602   1.799   4.310 -0.4469  0.7014  3.3541
32283SOL    HW2 2942   2.728   1.798   4.226 -2.4308 -2.3294  0.0780
32284SOL     OW 2943  10.819   8.900   6.047  0.2116  0.1130 -0.0837
32284SOL    HW1 2944  10.912   8.922   6.054  0.1377  0.8831 -1.2529
32284SOL    HW2 2945  10.810   8.819   6.098  1.2531  0.7136  1.1232
32285SOL     OW 2946   8.306   6.967   9.296  0.1818 -0.3523  0.3821
32285SOL    HW1 2947   8.312   6.879   9.259  0.4320 -0.6311  1.0731
32285SOL    HW2 2948   8.397   6.990   9.318  0.0818 -0.0358  0.4740
32286SOL     OW 2949   7.003   8.497   9.151 -0.1081 -0.6560 -0.4289
32286SOL    HW1 2950   7.075   8.434   9.149  1.5067  0.9549  1.7419
32286SOL    HW2 2951   7.041   8.578   9.117 -1.1042  0.0448  0.0810
32287SOL     OW 2952   9.515   8.828   8.348 -0.1405  0.4403 -0.1020
32287SOL    HW1 2953   9.456   8.753   8.345  0.3930  0.0299 -1.8347
32287SOL    HW2 2954   9.548   8.836   8.258  2.0726  0.9359  0.6899
32288SOL     OW 2955  10.227   6.018   3.181 -0.5448  0.2073  0.0816
32288SOL    HW1 2956  10.251   5.928   3.200 -2.3165 -0.4941 -0.7911
32288SOL    HW2 2957  10.293   6.071   3.226  1.9388 -1.5042 -1.3645
32289SOL     OW 2958   4.371   2.784   5.911 -0.7030 -0.2418 -0.8923
32289SOL    HW1 2959   4.353   2.847   5.842 -0.3740 -1.9720 -2.6619
32289SOL    HW2 2960   4.467   2.776   5.913 -0.6929 -0.0693 -0.0789
32290SOL     OW 2961   1.533   0.173   1.027 -0.1368 -0.1385  0.0007
32290SOL    HW1 2962   1.536   0.184   0.932  0.0955 -0.8003 -0.0789
32290SOL    HW2 2963   1.458   0.115   1.042  0.3459 -0.7339  0.1410
32291SOL     OW 2964   8.163   0.010   0.532  0.3383 -0.2945 -0.1580
32291SOL    HW1 2965   8.220  -0.015   0.458 -1.4146 -0.3235 -1.5579
32291SOL    HW2 2966   8.164  -0.067   0.589  0.6992 -0.7874 -0.8053
32292SOL     OW 2967   1.407   2.342   3.424  0.3345 -0.1524  0.4116
32292SOL    HW1 2968   1.478   2.298   3.470  1.4143  1.1189  0.0276
32292SOL    HW2 2969   1.328   2.317   3.472  0.7451 -3.1676 -0.3076
32293SOL     OW 2970   3.007   1.662   5.211  0.2086  0.2988  0.1752
32293SOL    HW1 2971   3.036   1.690   5.124  0.3052  0.3650  0.2292
32293SOL    HW2 2972   3.016   1.566   5.210  0.0707  0.2862  0.0619
32294SOL     OW 2973   1.384   1.100   0.126  0.3818 -0.2101 -0.0435
32294SOL    HW1 2974   1.369   1.068   0.037  0.7216 -0.6414  0.0472
32294SOL    HW2 2975   1.456   1.045   0.159 -0.8620 -1.2321  1.1017
32295SOL     OW 2976   8.411   6.765   9.533  0.3504 -0.3772 -0.1486
32295SOL    HW1 2977   8.358   6.686   9.525  0.0422 -0.5749  2.7024
32295SOL    HW2 2978   8.494   6.735   9.571  1.2150  0.3919 -1.3353
32296SOL     OW 2979   2.530   4.108  10.802 -0.1563 -0.0719  0.0399
32296SOL    HW1 2980   2.457   4.137  10.858  0.4500 -0.8857  1.2813
32296SOL    HW2 2981   2.605   4.158  10.833 -0.6612  3.2469 -3.3391
32297SOL     OW 2982   7.492   8.511   9.525  0.5689 -0.1637  0.7241
32297SOL    HW1 2983   7.493   8.417   9.545  1.4643 -0.5207 -0.7691
32297SOL    HW2 2984   7.583   8.538   9.536  0.8107 -0.0541 -1.1648
32298SOL     OW 2985   5.591   3.331   2.153  0.5511 -0.2379 -0.1565
32298SOL    HW1 2986   5.675   3.292   2.131  0.3745 -0.5559 -0.2703
32298SOL    HW2 2987   5.530   3.257   2.158  0.3167 -0.0315  0.1099
32299SOL     OW 2988   7.883   6.158   7.339 -0.3001  0.3791  0.6333
32299SOL    HW1 2989   7.926   6.114   7.412  1.5826 -2.0531 -1.7532
32299SOL    HW2 2990   7.860   6.087   7.278 -1.6843  2.2730 -1.1978
32300SOL     OW 2991   0.772   8.082   8.303  0.0797  0.0139  0.3436
32300SOL    HW1 2992   0.779   8.064   8.209 -0.2110 -1.9157  0.6333
32300SOL    HW2 2993   0.734   8.169   8.308  0.4531  0.3115 -1.3305
32301SOL     OW 2994   2.786   9.667   1.175  0.2015  0.6782 -0.5739
32301SOL    HW1 2995   2.803   9.602   1.107 -0.1691  1.1163 -1.0993
32301SOL    HW2 2996   2.838   9.638   1.250 -0.3172 -0.4730 -0.6435
32302SOL     OW 2997   9.389   4.007   1.608 -0.4080  0.0745  0.0205
32302SOL    HW1 2998   9.328   4.052   1.667 -0.1156  0.5205 -0.0125
32302SOL    HW2 2999   9.333   3.954   1.551 -0.7389  0.1777  0.2485
32303SOL     OW 3000   8.159   8.902   9.510 -0.1194  0.0433 -0.2574
32303SOL    HW1 3001   8.192   8.827   9.558 -1.4858 -0.1161  0.4840
32303SOL    HW2 3002   8.162   8.974   9.572  1.7364  0.7807 -1.1386
32304SOL     OW 3003   5.575   7.287   9.919 -0.6402 -0.3262 -0.4766
32304SOL    HW1 3004   5.516   7.344   9.871 -1.8719 -0.5912  0.6482
32304SOL    HW2 3005   5.550   7.298  10.011  0.5359 -1.0500 -0.0404
32305SOL     OW 3006   0.047   0.399   5.468 -0.1616 -0.1829  0.0161
32305SOL    HW1 3007   0.027   0.411   5.561 -0.6173 -0.5623 -0.0311
32305SOL    HW2 3008   0.129   0.349   5.468 -0.6389 -0.9802  0.2212
32306SOL     OW 3009   5.612   5.496  10.468  0.1524  0.3350 -0.2997
32306SOL    HW1 3010   5.525   5.524  10.497  0.2917 -0.4367  0.9596
32306SOL    HW2 3011   5.599   5.469  10.377 -0.8040  0.7678 -0.3047
32307SOL     OW 3012   0.316   3.094   9.359  0.5057  0.1607 -0.3846
32307SOL    HW1 3013   0.269   3.014   9.383 -1.6114  1.0048 -1.4882
32307SOL    HW2 3014   0.398   3.088   9.407 -0.0040 -2.1915  0.3488
32308SOL     OW 3015   0.043   1.988   2.458  0.4643 -0.3855 -0.3551
32308SOL    HW1 3016   0.040   1.973   2.364  0.3248 -0.5111 -0.3323
32308SOL    HW2 3017  -0.049   1.985   2.486  0.4999 -0.2870 -0.2256
32309SOL     OW 3018   1.578   5.541   5.704  0.3648 -0.0296  0.8955
32309SOL    HW1 3019   1.661   5.508   5.736 -0.1115  0.1744  2.4268
32309SOL    HW2 3020   1.512   5.480   5.737 -0.1886  0.3843  0.5979
32310SOL     OW 3021   6.043   8.689   4.430  0.0860 -0.0457  0.2796
32310SOL    HW1 3022   6.017   8.605   4.394  1.0725 -0.1615 -0.1958
32310SOL    HW2 3023   6.136   8.678   4.452  0.8066  1.5294 -1.7009
32311SOL     OW 3024   6.490   9.591   8.793 -0.4661  0.1724 -0.2727
32311SOL    HW1 3025   6.466   9.513   8.741 -0.5123 -0.6387  0.9323
32311SOL    HW2 3026   6.585   9.584   8.804 -0.5008  0.1748  0.0202
32312SOL     OW 3027   6.647   6.701   9.648 -0.1627  0.3947  0.4677
32312SOL    HW1 3028   6.618   6.677   9.560 -0.9512  0.2896  0.7474
32312SOL    HW2 3029   6.701   6.779   9.635 -1.1351  1.0062 -0.0148
32313SOL     OW 3030  10.336   7.741   6.014 -0.0385  0.3450 -0.0271
32313SOL    HW1 3031  10.393   7.687   6.069  0.4169 -0.4342 -1.2266
32313SOL    HW2 3032  10.397   7.792   5.961 -0.4609  1.9454  0.9518
32314SOL     OW 3033   0.683   9.455   2.113 -0.3360 -0.1968 -0.0203
32314SOL    HW1 3034   0.773   9.470   2.084 -0.6864 -0.7718 -1.5190
32314SOL    HW2 3035   0.681   9.362   2.136 -0.7308 -0.3923 -0.7970
32315SOL     OW 3036   7.570   3.317   1.141  0.0401 -0.0617 -0.0284
32315SOL    HW1 3037   7.485   3.353   1.166  0.9791  1.4809  1.1931
32315SOL    HW2 3038   7.565   3.307   1.046 -2.3238 -2.4055  0.2490
32316SOL     OW 3039   6.777   1.980   8.413 -0.2455 -0.2285  0.0886
32316SOL    HW1 3040   6.839   2.030   8.466 -0.6831  0.7409 -0.2829
32316SOL    HW2 3041   6.694   1.987   8.459 -0.2193 -1.0219  0.2722
32317SOL     OW 3042   3.661   7.612   1.568  0.3436 -0.6696  0.2694
32317SOL    HW1 3043   3.741   7.563   1.585  0.3777 -0.9827 -0.7353
32317SOL    HW2 3044   3.601   7.548   1.529 -0.1515 -0.2712  0.3649
32318SOL     OW 3045   7.659   0.301   8.028 -0.0640 -0.6168 -0.0883
32318SOL    HW1 3046   7.628   0.217   8.062  1.4096 -1.2189 -0.1376
32318SOL    HW2 3047   7.635   0.365   8.095 -1.2114 -1.0570 -0.0564
32319SOL     OW 3048   7.261   0.912   4.804 -0.8536 -0.0527  0.2469
32319SOL    HW1 3049   7.322   0.855   4.850 -0.0174  0.8683  0.2934
32319SOL    HW2 3050   7.268   0.997   4.848 -0.6965  0.6019 -0.9973
32320SOL     OW 3051   6.037   5.344   4.870 -0.6144  0.1919 -0.1288
32320SOL    HW1 3052   5.998   5.411   4.813 -1.4620  0.0131  0.2177
32320SOL    HW2 3053   6.046   5.386   4.955 -2.3369 -0.4773  0.4316
32321SOL     OW 3054   1.916  10.735   6.504  0.3354  0.4938  0.1356
32321SOL    HW1 3055   1.891  10.713   6.415  0.1107  1.7040 -0.1198
32321SOL    HW2 3056   1.916  10.652   6.551 -0.0411 -0.0821 -0.8698
32322SOL     OW 3057   2.306   8.316   5.751 -0.0820 -0.0116  0.0842
32322SOL    HW1 3058   2.298   8.388   5.815 -0.8495 -0.7348  0.8300
32322SOL    HW2 3059   2.229   8.261   5.767  1.9319 -2.6365  1.6057
32323SOL     OW 3060   3.310   0.487  10.406 -0.3501  0.4050 -0.2463
32323SOL    HW1 3061   3.219   0.474  10.381 -0.8405  1.0981  1.0830
32323SOL    HW2 3062   3.333   0.407  10.455 -1.0914  1.2854  1.6467
32324SOL     OW 3063   3.744  10.469   5.016  0.0302 -0.8576  0.3561
32324SOL    HW1 3064   3.815  10.525   4.985 -0.1997  0.1607  1.6170
32324SOL    HW2 3065   3.664  10.515   4.991 -0.1659 -0.9294  0.8445
32325SOL     OW 3066   0.984   7.865   9.227 -0.1406 -0.8440 -0.3077
32325SOL    HW1 3067   1.018   7.791   9.276  1.8663  0.4492  0.3940
32325SOL    HW2 3068   1.062   7.914   9.201 -1.4006  1.8249  0.5479
32326SOL     OW 3069   0.362   3.725   4.687  0.0676  0.2603 -0.4177
32326SOL    HW1 3070   0.380   3.692   4.775 -1.0900 -1.8895 -0.9235
32326SOL    HW2 3071   0.430   3.791   4.672  1.7302 -0.9715  1.2079
32327SOL     OW 3072   2.991   0.597   6.646 -0.1696  0.0159  0.0723
32327SOL    HW1 3073   3.083   0.569   6.650 -0.2807 -0.2812  1.1122
32327SOL    HW2 3074   2.988   0.675   6.701 -0.7350 -0.6402  1.0180
32328SOL     OW 3075   9.025   8.352   6.252  0.2490 -0.0501 -0.3614
32328SOL    HW1 3076   9.098   8.344   6.314  0.7295 -1.0664 -1.0320
32328SOL    HW2 3077   8.960   8.289   6.284 -0.4372  0.9756  0.3346
32329SOL     OW 3078  10.836   9.048   9.132 -0.1052 -0.1056  0.1483
32329SOL    HW1 3079  10.766   9.006   9.083  0.1402 -1.6400  1.0507
32329SOL    HW2 3080  10.829   9.141   9.109  0.0566 -0.7142 -2.8130
32330SOL     OW 3081   8.521   4.890   4.944 -0.0540 -0.5157 -0.2168
32330SOL    HW1 3082   8.566   4.806   4.951  0.5968 -0.2215 -0.7335
32330SOL    HW2 3083   8.443   4.871   4.892 -1.5967 -1.4159  2.2528
32331SOL     OW 3084   9.982   4.011   8.760  0.3821  0.5532 -0.3570
32331SOL    HW1 3085   9.968   4.105   8.776  0.2844  0.4179  0.4174
32331SOL    HW2 3086   9.941   3.968   8.836 -0.6302 -0.1844 -1.2862
32332SOL     OW 3087   9.760   3.962  10.314 -0.4655 -0.7329  0.0027
32332SOL    HW1 3088   9.746   3.871  10.337  0.3767 -0.4009  2.0120
32332SOL    HW2 3089   9.685   4.009  10.350 -0.6882 -0.5622 -0.6615
32333SOL     OW 3090  10.284   0.646   1.782  0.1534 -0.4552 -0.2838
32333SOL    HW1 3091  10.226   0.702   1.730  0.0329  0.6246  0.9662
32333SOL    HW2 3092  10.286   0.563   1.735 -1.6026 -0.1893 -0.8910
32334SOL     OW 3093   2.751   3.149   8.679  0.5532  0.0515 -0.2871
32334SOL    HW1 3094   2.785   3.084   8.619  0.8389 -0.9085  0.8698
32334SOL    HW2 3095   2.820   3.215   8.685 -0.1344  1.0305 -2.2208
32335SOL     OW 3096   8.238   8.053   4.021  0.5035  0.0155  0.2007
32335SOL    HW1 3097   8.294   8.004   3.960 -0.6556  0.0796 -0.9737
32335SOL    HW2 3098   8.209   8.129   3.971 -0.6635 -0.0471  0.7425
32336SOL     OW 3099   2.866   5.294   9.608 -0.3810  0.5709  0.1782
32336SOL    HW1 3100   2.888   5.338   9.526 -3.2539  2.0432  0.0444
32336SOL    HW2 3101   2.856   5.366   9.671 -0.1511 -0.3681  1.3120
32337SOL     OW 3102  10.896   4.967   6.319 -0.1326  0.0399  0.3103
32337SOL    HW1 3103  10.828   4.915   6.276 -1.1588  1.8470 -0.3584
32337SOL    HW2 3104  10.978   4.937   6.279 -0.8440  0.0138 -1.2087
32338SOL     OW 3105   7.425   6.095   3.342  0.5084 -0.0040  0.6621
32338SOL    HW1 3106   7.355   6.057   3.394 -0.0998  1.1544  0.7237
32338SOL    HW2 3107   7.385   6.110   3.256  0.8311  0.2172  0.5504
32339SOL     OW 3108   2.690   3.312   9.284  0.5557  0.7449  0.2133
32339SOL    HW1 3109   2.747   3.236   9.272 -1.1087 -0.3270 -1.6018
32339SOL    HW2 3110   2.740   3.386   9.249  2.1270  0.5171  1.8431
32340SOL     OW 3111   2.162   6.317   4.081  0.2817 -0.5799 -0.3484
32340SOL    HW1 3112   2.214   6.398   4.080  2.0650 -1.6912 -0.7841
32340SOL    HW2 3113   2.071   6.348   4.089  0.9715  1.4214  0.4223
32341SOL     OW 3114   4.121   8.053  10.430 -0.1176  0.2112  0.1987
32341SOL    HW1 3115   4.035   8.060  10.472  0.6474 -0.2902  1.9395
32341SOL    HW2 3116   4.182   8.038  10.502  1.3332 -0.3328 -1.0806
32342SOL     OW 3117   3.503   0.995   9.151  0.2021 -0.0406  0.1402
32342SOL    HW1 3118   3.583   1.047   9.140 -0.2282  0.7265  0.5828
32342SOL    HW2 3119   3.483   1.001   9.244  0.9130 -2.1681  0.4722
32343SOL     OW 3120   4.293   2.843   3.969  0.8400  0.4430  0.1481
32343SOL    HW1 3121   4.261   2.933   3.957 -0.1096 -0.0986 -1.8292
32343SOL    HW2 3122   4.275   2.823   4.061 -1.5237  1.3562 -0.0386
32344SOL     OW 3123  10.371   2.205   0.478 -0.1003 -0.0862 -0.0244
32344SOL    HW1 3124  10.304   2.141   0.454 -1.1724  0.8010  0.5250
32344SOL    HW2 3125  10.427   2.211   0.401  1.3669 -3.2723  0.6253
32345SOL     OW 3126   2.260   0.949   7.946 -0.2647 -0.0643  0.6234
32345SOL    HW1 3127   2.343   0.918   7.909 -0.6421  0.6829 -0.9372
32345SOL    HW2 3128   2.195   0.885   7.915 -0.4979  0.2465  0.4675
32346SOL     OW 3129   2.462   3.148   6.653 -0.0036 -0.0622  0.3749
32346SOL    HW1 3130   2.487   3.082   6.718  1.2832 -0.7073 -0.7298
32346SOL    HW2 3131   2.540   3.201   6.642 -0.8436  1.3127  0.7949
32347SOL     OW 3132   2.795   4.524  10.521 -0.1208 -0.1362 -0.2758
32347SOL    HW1 3133   2.837   4.592  10.574 -0.4341  0.1759 -0.4210
32347SOL    HW2 3134   2.847   4.521  10.441 -1.1082  1.1697 -1.0170
32348SOL     OW 3135   8.837   1.122   0.936  0.3768 -0.3951  0.1152
32348SOL    HW1 3136   8.867   1.209   0.908  0.2201 -0.9053 -1.7590
32348SOL    HW2 3137   8.761   1.104   0.881 -0.7987 -0.9312  1.8362
32349SOL     OW 3138  10.296   7.353   4.464 -0.4535  0.7018 -0.2866
32349SOL    HW1 3139  10.241   7.277   4.482 -1.0257  0.9206 -1.0654
32349SOL    HW2 3140  10.379   7.316   4.433 -0.0582  0.3660  1.0986
32350SOL     OW 3141   4.697   5.326   2.991 -0.0626 -0.0892  0.1640
32350SOL    HW1 3142   4.744   5.243   2.988 -1.1326 -0.7493  0.9882
32350SOL    HW2 3143   4.658   5.334   2.904 -0.2542 -0.6474  0.1906
32351SOL     OW 3144  10.673   5.189   6.196  0.3533  0.5494  0.6331
32351SOL    HW1 3145  10.593   5.140   6.217  0.1334  1.1401  1.2062
32351SOL    HW2 3146  10.741   5.146   6.249  0.5187 -0.2300 -0.1803
32352SOL     OW 3147   1.079   4.607   6.313  0.5528 -0.3014  0.0337
32352SOL    HW1 3148   1.145   4.675   6.325  0.7634 -0.1673 -1.6368
32352SOL    HW2 3149   1.083   4.555   6.393  0.0627  1.8889  1.5809
32353SOL     OW 3150   2.507   7.771   7.282  0.4423 -0.0334  0.2270
32353SOL    HW1 3151   2.445   7.841   7.304  1.0761  0.3125  1.0006
32353SOL    HW2 3152   2.561   7.763   7.361  3.4306  1.8577 -1.4446
32354SOL     OW 3153   6.225   3.556   4.989 -0.4294  0.1885 -0.2748
32354SOL    HW1 3154   6.217   3.461   4.998 -2.8884  0.2773 -0.6579
32354SOL    HW2 3155   6.279   3.569   4.911  2.0959 -0.8022  1.2023
32355SOL     OW 3156   8.230  10.741   2.618  0.2790  0.0343 -0.5575
32355SOL    HW1 3157   8.309  10.785   2.586  0.8331 -0.2698  0.3582
32355SOL    HW2 3158   8.260  10.656   2.647 -0.1566  0.3688  0.9337
32356SOL     OW 3159   3.483   5.857   2.263  0.2486 -0.3353 -0.9227
32356SOL    HW1 3160   3.481   5.871   2.168 -0.3013  0.8643 -0.7625
32356SOL    HW2 3161   3.392   5.838   2.286  0.6249 -2.1162 -0.8120
32357SOL     OW 3162   6.478   6.849   3.794  0.0717  0.3691 -0.0655
32357SOL    HW1 3163   6.548   6.912   3.782 -0.4069  1.1865  1.2546
32357SOL    HW2 3164   6.417   6.891   3.855 -1.4470 -0.4163 -0.9579
32358SOL     OW 3165   8.841   2.438  10.023  0.5379 -0.1118 -0.0568
32358SOL    HW1 3166   8.926   2.403   9.995 -0.2670 -1.3376 -1.1113
32358SOL    HW2 3167   8.841   2.528   9.992  1.3244 -0.2052 -0.3568
32359SOL     OW 3168   5.864   0.986   0.433  0.2579  0.0627  1.5331
32359SOL    HW1 3169   5.776   0.964   0.465 -0.6214  1.2047  0.0451
32359SOL    HW2 3170   5.849   1.052   0.366  2.2066 -0.3623  0.6062
32360SOL     OW 3171   2.246   6.254   9.503 -0.1271  0.0661 -0.0525
32360SOL    HW1 3172   2.240   6.162   9.477 -0.6948  0.8980 -3.2587
32360SOL    HW2 3173   2.317   6.289   9.449 -0.4492  1.7017  0.5520
32361SOL     OW 3174  10.367   6.677  10.183 -0.3322  0.2732  0.1851
32361SOL    HW1 3175  10.446   6.665  10.236  0.6929 -0.2762 -1.3890
32361SOL    HW2 3176  10.368   6.604  10.121 -0.4934  1.8110 -1.7379
32362SOL     OW 3177   3.614  10.500   8.552  0.4565 -0.0056 -0.0864
32362SOL    HW1 3178   3.595  10.552   8.473  2.6639 -0.6836 -1.1486
32362SOL    HW2 3179   3.569  10.417   8.538  1.2935 -0.3368 -0.9522
32363SOL     OW 3180  10.918   9.275   9.529  0.0695 -0.3874  0.1318
32363SOL    HW1 3181  10.970   9.324   9.593  0.3893 -0.1875 -0.2735
32363SOL    HW2 3182  10.889   9.341   9.466  1.6747 -0.8727 -1.2084
32364SOL     OW 3183   8.436  10.899   2.485 -0.7603 -0.2125 -0.3317
32364SOL    HW1 3184   8.520  10.874   2.523  1.5535 -0.3435 -4.7887
32364SOL    HW2 3185   8.438  10.995   2.483 -0.0049 -0.2254 -1.5705
32365SOL     OW 3186   9.529   9.099   7.732 -0.1285  0.3994  0.2174
32365SOL    HW1 3187   9.613   9.133   7.763  0.5837 -1.0663 -0.0024
32365SOL    HW2 3188   9.535   9.004   7.745 -1.4970  0.1953 -0.4069
32366SOL     OW 3189   6.071   6.737  10.665 -0.5631 -0.8126 -0.2216
32366SOL    HW1 3190   6.094   6.825  10.695 -0.6675 -0.7010 -0.4577
32366SOL    HW2 3191   6.120   6.727  10.583  0.8663 -1.6761  0.6974
32367SOL     OW 3192   7.944   9.785  10.351  0.0794 -0.3446  0.0091
32367SOL    HW1 3193   7.882   9.780  10.423 -1.6488  0.0278 -1.3677
32367SOL    HW2 3194   7.997   9.706  10.358  0.3300 -0.0455  1.9720
32368SOL     OW 3195   3.212   5.448   4.023 -0.2422  0.0030 -0.2442
32368SOL    HW1 3196   3.253   5.384   3.964 -1.1720  0.0278 -0.9435
32368SOL    HW2 3197   3.127   5.409   4.044 -0.6287  0.7946 -0.3080
32369SOL     OW 3198   7.775   6.994   4.822 -0.2542  0.1786  0.5805
32369SOL    HW1 3199   7.772   7.079   4.778  0.2753 -0.2018 -0.2213
32369SOL    HW2 3200   7.848   6.948   4.780  0.7394  0.0488  2.3575
32370SOL     OW 3201   4.273   7.599   9.152 -0.1945 -0.5180 -0.2890
32370SOL    HW1 3202   4.261   7.678   9.205  0.0541 -1.4438  1.1866
32370SOL    HW2 3203   4.291   7.633   9.064 -0.4722  1.0601  0.2211
32371SOL     OW 3204  10.100   6.872   9.109  0.3423 -0.5701  0.5880
32371SOL    HW1 3205  10.186   6.905   9.135 -0.3846  0.6691  1.5429
32371SOL    HW2 3206  10.039   6.938   9.141 -0.8874 -0.7699 -1.2189
32372SOL     OW 3207   1.266   5.325  10.354  0.3847 -0.2592 -0.1136
32372SOL    HW1 3208   1.182   5.286  10.379  0.0797 -0.4121 -1.2847
32372SOL    HW2 3209   1.267   5.410  10.398  0.5482 -1.0881  1.5639
32373SOL     OW 3210   1.854   8.579   5.363  0.5722  0.0554  0.5848
32373SOL    HW1 3211   1.867   8.485   5.371 -0.6600 -0.0869  1.1264
32373SOL    HW2 3212   1.766   8.589   5.326  0.1676  0.9885  1.7119
32374SOL     OW 3213   6.913   8.071   0.763  0.4402  0.5078  0.4804
32374SOL    HW1 3214   6.818   8.073   0.749  0.6550  2.0952 -1.1056
32374SOL    HW2 3215   6.923   8.075   0.858 -1.0700 -0.2427  0.7069
32375SOL     OW 3216   6.277   9.413   4.234 -0.4326 -0.4051  0.2945
32375SOL    HW1 3217   6.243   9.388   4.148 -2.1290  0.5878  0.6378
32375SOL    HW2 3218   6.328   9.492   4.217 -0.6876 -0.2635  0.1741
32376SOL     OW 3219   6.662  10.577   2.540 -0.3518 -0.0611  0.4177
32376SOL    HW1 3220   6.588  10.595   2.598 -0.3354  1.2413  0.0628
32376SOL    HW2 3221   6.726  10.645   2.562  0.6206 -0.9974  0.5128
32377SOL     OW 3222   7.106   0.188   1.086 -0.4467 -0.1620  0.4024
32377SOL    HW1 3223   7.177   0.132   1.119 -1.2101 -1.6079 -0.3619
32377SOL    HW2 3224   7.107   0.176   0.991  0.6472  2.6948 -0.0689
32378SOL     OW 3225   4.726   3.202  10.474  0.2610 -0.5207  0.5346
32378SOL    HW1 3226   4.633   3.202  10.499 -0.1400 -1.6001 -0.8290
32378SOL    HW2 3227   4.769   3.253  10.542 -1.4476  0.7010  0.7640
32379SOL     OW 3228   3.271   9.391   5.997  0.0239 -0.3430  0.9578
32379SOL    HW1 3229   3.235   9.465   5.947  1.3698  1.4667  2.5358
32379SOL    HW2 3230   3.357   9.376   5.959 -0.7968 -2.1730 -0.3321
32380SOL     OW 3231   3.455   0.059   0.198  0.0221 -0.3124 -0.1019
32380SOL    HW1 3232   3.407   0.142   0.188 -0.0859 -0.3494  0.1031
32380SOL    HW2 3233   3.496   0.066   0.285  1.4383  0.2635 -0.7699
32381SOL     OW 3234   4.076   1.559   6.505 -0.3720 -0.6005 -0.0909
32381SOL    HW1 3235   4.104   1.546   6.595  1.4029 -1.7556 -0.7590
32381SOL    HW2 3236   4.051   1.471   6.475 -0.3821 -0.3275 -0.9035
32382SOL     OW 3237   9.713   1.059   9.266 -0.0403  0.3133  0.7564
32382SOL    HW1 3238   9.764   1.117   9.322  0.6997  0.7379 -0.3285
32382SOL    HW2 3239   9.732   1.088   9.176 -3.8028  1.8883  0.2677
32383SOL     OW 3240   3.381   1.974   1.089 -0.5717  0.0730 -0.1434
32383SOL    HW1 3241   3.427   1.966   1.173 -0.2590 -1.3482 -0.4122
32383SOL    HW2 3242   3.337   1.889   1.078 -0.4354  0.1515 -1.4989
32384SOL     OW 3243   0.193   3.695   7.399  0.3875  0.3820 -0.1818
32384SOL    HW1 3244   0.255   3.693   7.472  0.3996  0.8292 -0.1757
32384SOL    HW2 3245   0.221   3.770   7.346 -0.4143  0.8608  0.0642
32385SOL     OW 3246   2.728   3.084   0.231  0.3329 -0.0258 -0.0794
32385SOL    HW1 3247   2.756   3.002   0.189  2.7987 -0.3247  1.9177
32385SOL    HW2 3248   2.734   3.150   0.162  2.1563 -0.8657 -0.7803
32386SOL     OW 3249   2.519   1.648   5.808  0.2054  0.0463 -0.1902
32386SOL    HW1 3250   2.477   1.691   5.882  0.1996 -0.0465 -0.1404
32386SOL    HW2 3251   2.611   1.676   5.813 -0.5349  3.6651 -2.6432
32387SOL     OW 3252   0.621   5.936   0.242  0.2161 -0.0169 -0.0838
32387SOL    HW1 3253   0.568   5.964   0.168 -1.5156 -2.7548 -0.0273
32387SOL    HW2 3254   0.642   6.017   0.289 -1.1677  1.4926 -1.9145
32388SOL     OW 3255   3.277   9.772   6.256  0.3155 -0.0293 -0.3513
32388SOL    HW1 3256   3.250   9.680   6.248  0.5406 -0.0535 -0.8327
32388SOL    HW2 3257   3.310   9.779   6.346 -1.2656  0.0019  0.2678
32389SOL     OW 3258   4.907   7.783  10.156 -0.1672 -0.4280 -0.1929
32389SOL    HW1 3259   4.933   7.802  10.246  1.9159 -0.4436 -0.7261
32389SOL    HW2 3260   4.981   7.734  10.120 -1.2110 -0.9326 -1.7468
32390SOL     OW 3261   5.526   0.012   7.075 -0.4640  0.3048 -0.0397
32390SOL    HW1 3262   5.561   0.098   7.100 -1.2732  0.6194  0.0335
32390SOL    HW2 3263   5.597  -0.049   7.096  0.2975  0.9963 -0.5044
32391SOL     OW 3264   8.701   9.182   5.248  0.7379 -0.0205 -0.1135
32391SOL    HW1 3265   8.659   9.267   5.255  0.1788 -0.2005 -1.0784
32391SOL    HW2 3266   8.793   9.201   5.229  0.8939  0.3674  0.9622
32392SOL     OW 3267   4.607   4.163   2.914  0.3863  0.1469  0.4714
32392SOL    HW1 3268   4.676   4.097   2.922  0.3970  0.0919 -0.0668
32392SOL    HW2 3269   4.639   4.223   2.847 -0.1074  0.0960  0.1869
32393SOL     OW 3270   7.867   5.748   6.022 -0.6340  0.0965  0.2745
32393SOL    HW1 3271   7.910   5.668   6.052  1.7403  1.0737 -0.3055
32393SOL    HW2 3272   7.886   5.812   6.091 -2.1721  0.3097  0.5404
32394SOL     OW 3273   2.175   1.017   5.195  0.2735  0.0805 -0.0555
32394SOL    HW1 3274   2.091   1.020   5.242  0.8145  1.5809  0.8987
32394SOL    HW2 3275   2.153   0.984   5.108 -1.1950 -0.1876  0.3918
32395SOL     OW 3276  10.924   2.476   0.827  0.2657 -0.0252 -0.0948
32395SOL    HW1 3277  10.930   2.469   0.732  0.4785 -0.8629 -0.0197
32395SOL    HW2 3278  10.832   2.494   0.844  0.7436  3.9882 -0.6783
32396SOL     OW 3279   4.358   0.556   6.545 -0.3676 -0.3194 -0.1415
32396SOL    HW1 3280   4.387   0.480   6.595  1.8324 -1.1306 -2.4426
32396SOL    HW2 3281   4.436   0.587   6.500 -1.4611  2.5733 -0.3269
32397SOL     OW 3282   2.267   1.287   2.351  0.0322  0.1174 -0.5555
32397SOL    HW1 3283   2.214   1.345   2.405 -0.1800 -0.7177  0.1403
32397SOL    HW2 3284   2.243   1.198   2.378  0.3710 -0.3134 -1.5817
32398SOL     OW 3285  10.153   3.873   6.173 -0.5294 -0.2491  0.5379
32398SOL    HW1 3286  10.203   3.950   6.148 -2.8789  0.5090 -2.4542
32398SOL    HW2 3287  10.062   3.895   6.150 -1.5946 -3.1963  1.4085
32399SOL     OW 3288   1.004   7.173   4.889  0.5976 -0.3838  0.6341
32399SOL    HW1 3289   0.994   7.144   4.798 -1.3090  1.6312  0.1278
32399SOL    HW2 3290   0.969   7.262   4.890  1.4636  0.0058  3.1651
32400SOL     OW 3291   3.405   9.793   0.585  0.1279  0.1648  0.1004
32400SOL    HW1 3292   3.326   9.817   0.536 -0.1632  0.3018  0.6287
32400SOL    HW2 3293   3.375   9.731   0.651 -0.1244  2.4394  2.2781
32401SOL     OW 3294   7.628   7.645   0.532  0.4999  0.2151  0.4743
32401SOL    HW1 3295   7.656   7.728   0.493  0.5272  1.8524  3.5894
32401SOL    HW2 3296   7.569   7.606   0.468  1.1379  2.2271 -1.4575
32402SOL     OW 3297  10.170   5.401   0.281 -0.4347 -0.0019  0.1874
32402SOL    HW1 3298  10.115   5.433   0.353 -1.1034  0.1626 -0.3940
32402SOL    HW2 3299  10.256   5.390   0.321 -0.4584  1.4359  0.6825
32403SOL     OW 3300   8.784   9.423   8.335  0.0596 -0.1975  0.6345
32403SOL    HW1 3301   8.703   9.389   8.372  0.8116 -1.9537  0.7497
32403SOL    HW2 3302   8.853   9.376   8.381  1.1450  0.8978  0.1753
32404SOL     OW 3303   1.303   2.748   8.348  0.2927  0.1320 -0.3043
32404SOL    HW1 3304   1.233   2.777   8.406  0.3483 -1.3952  0.5882
32404SOL    HW2 3305   1.259   2.694   8.282  0.6155 -0.9799  0.3638
32405SOL     OW 3306   6.017   4.605   7.281 -0.2473 -0.4105 -0.6590
32405SOL    HW1 3307   5.995   4.696   7.260  0.6580 -0.0087  0.0837
32405SOL    HW2 3308   6.105   4.592   7.244  1.1949  0.1667  2.2880
32406SOL     OW 3309   5.869   6.630   2.402  0.0809 -0.8246  0.3055
32406SOL    HW1 3310   5.817   6.707   2.427  3.5850  2.3035 -1.0533
32406SOL    HW2 3311   5.915   6.605   2.482 -0.1263 -0.7266  0.4578
32407SOL     OW 3312   3.558   1.968   7.996  0.5140 -0.3866 -0.1506
32407SOL    HW1 3313   3.484   2.023   7.974  1.2501 -0.0931 -2.0047
32407SOL    HW2 3314   3.632   2.028   8.003  1.1693 -1.0143 -1.4071
32408SOL     OW 3315   2.714   6.462   7.638 -0.1328 -0.2135  0.1582
32408SOL    HW1 3316   2.650   6.502   7.698 -0.7258 -2.3389  1.0441
32408SOL    HW2 3317   2.660   6.413   7.576  0.5985 -0.9642  0.1068
32409SOL     OW 3318   5.649  10.350  10.896 -0.3407  0.5111  0.5422
32409SOL    HW1 3319   5.739  10.351  10.863 -0.7221  2.6760 -0.6208
32409SOL    HW2 3320   5.626  10.257  10.901  1.5000 -0.0453 -0.4181
32410SOL     OW 3321   2.668   4.017   7.285  0.0999 -0.0968 -0.0814
32410SOL    HW1 3322   2.753   4.000   7.326  0.1608  2.0873  0.8314
32410SOL    HW2 3323   2.690   4.039   7.194  0.4638 -0.0197  0.0220
32411SOL     OW 3324   6.557   5.403  10.848  0.0260 -0.1797  0.3319
32411SOL    HW1 3325   6.480   5.446  10.885  1.5538  1.5664  1.6666
32411SOL    HW2 3326   6.578   5.453  10.769  0.9282  0.6533  1.0718
32412SOL     OW 3327   9.051   1.855   9.242  0.0105 -0.3504 -0.3819
32412SOL    HW1 3328   8.982   1.804   9.201  0.8205 -1.9499  0.1307
32412SOL    HW2 3329   9.116   1.868   9.173  0.2714 -0.9391 -0.2552
32413SOL     OW 3330   2.356   6.325   2.409 -0.0496  0.0083  0.0137
32413SOL    HW1 3331   2.406   6.355   2.333  0.6292  0.7767  0.7439
32413SOL    HW2 3332   2.323   6.406   2.449  0.2089 -0.3419  0.9549
32414SOL     OW 3333   6.802  10.517   5.608  0.4173  0.2440  0.2980
32414SOL    HW1 3334   6.806  10.526   5.704 -0.6741 -1.2152  0.5002
32414SOL    HW2 3335   6.894  10.520   5.581  0.6879  1.9457  1.2351
32415SOL     OW 3336   6.930  10.205  10.812  0.5407  0.0101  0.3106
32415SOL    HW1 3337   6.865  10.228  10.746  1.1572  1.1910  0.0812
32415SOL    HW2 3338   6.884  10.211  10.895  0.0541 -0.3484  0.0669
32416SOL     OW 3339   0.095   7.929   8.309 -0.0161  0.1993  0.8326
32416SOL    HW1 3340   0.007   7.892   8.317 -0.2526  0.7312  0.7005
32416SOL    HW2 3341   0.123   7.946   8.399 -0.5561  1.2088  0.8240
32417SOL     OW 3342   1.471  10.580   9.458  0.6729  0.6441  0.2282
32417SOL    HW1 3343   1.563  10.594   9.479  0.9650  0.0727 -0.5854
32417SOL    HW2 3344   1.424  10.594   9.540  1.5054  0.7844  0.6855
32418SOL     OW 3345   7.072   2.717   6.182 -0.5289  0.1127 -0.9400
32418SOL    HW1 3346   7.085   2.631   6.142 -0.0794 -0.6269  0.7255
32418SOL    HW2 3347   7.035   2.698   6.268 -0.7424  1.6103 -0.6760
32419SOL     OW 3348   0.172   1.088   3.820  0.5027  0.1573  0.4341
32419SOL    HW1 3349   0.099   1.149   3.824 -0.8577 -1.4132  0.5239
32419SOL    HW2 3350   0.249   1.144   3.811 -0.9167  1.8634 -3.4410
32420SOL     OW 3351   5.424   5.945   3.945  0.5592 -0.7186  0.5858
32420SOL    HW1 3352   5.467   5.953   3.860  1.1963 -0.8824  0.8872
32420SOL    HW2 3353   5.339   5.906   3.925  1.2664 -2.0924  0.1784
32421SOL     OW 3354   6.778   1.251   1.146 -0.2839  0.0543 -0.5630
32421SOL    HW1 3355   6.808   1.203   1.224 -1.6897 -3.9738 -2.2473
32421SOL    HW2 3356   6.700   1.299   1.176 -0.5269 -1.0400  0.6285
32422SOL     OW 3357   4.040   3.898   3.349 -0.1129 -0.3517  0.0820
32422SOL    HW1 3358   4.082   3.919   3.432  1.4911 -2.9064  0.0378
32422SOL    HW2 3359   3.953   3.866   3.373 -0.8018  1.6957  0.4699
32423SOL     OW 3360   8.401   1.471   0.398 -0.2960 -0.4326  1.0148
32423SOL    HW1 3361   8.467   1.450   0.464 -0.2450 -2.9634  0.2780
32423SOL    HW2 3362   8.342   1.396   0.399  0.2886 -1.1133 -2.4426
32424SOL     OW 3363   9.696   8.857   5.614 -0.4174  0.1600 -0.0908
32424SOL    HW1 3364   9.658   8.944   5.600 -0.8498 -0.1966 -1.2892
32424SOL    HW2 3365   9.628   8.808   5.660 -0.0393  0.5409  0.9032
32425SOL     OW 3366   2.800   7.210   3.465  0.2462  0.1451 -0.2091
32425SOL    HW1 3367   2.830   7.277   3.403 -0.4403  1.1992  0.5462
32425SOL    HW2 3368   2.709   7.193   3.440 -0.7440  2.0846  1.6371
32426SOL     OW 3369   9.826   1.780   1.289  0.1605 -0.8124 -0.1110
32426SOL    HW1 3370   9.853   1.691   1.311  1.1078 -0.7931 -1.0823
32426SOL    HW2 3371   9.733   1.784   1.311  0.2611 -1.8273  0.5580
32427SOL     OW 3372   1.423   3.370   0.004 -0.1311  0.1136 -0.2416
32427SOL    HW1 3373   1.450   3.410   0.086 -1.0636  0.2381  0.0205
32427SOL    HW2 3374   1.380   3.288   0.030  1.1438 -0.7292 -0.7290
32428SOL     OW 3375   7.312   2.039   0.649 -0.2640 -0.3330 -0.9745
32428SOL    HW1 3376   7.384   1.987   0.613 -0.6655 -1.9277  0.3948
32428SOL    HW2 3377   7.354   2.115   0.688  0.9184 -2.0010  1.1902
32429SOL     OW 3378   4.182   4.993   4.147 -0.2577  0.1543  0.0768
32429SOL    HW1 3379   4.211   4.975   4.236 -0.1521 -2.2835 -0.3839
32429SOL    HW2 3380   4.091   5.021   4.156 -0.0300  0.6228  0.9894
32430SOL     OW 3381   6.222   7.268   2.012 -0.1855 -0.2353  0.0530
32430SOL    HW1 3382   6.211   7.173   2.020 -0.9247 -0.1061  0.7238
32430SOL    HW2 3383   6.134   7.303   2.028  0.1435  0.5785  0.0966
32431SOL     OW 3384   8.270   0.742   3.447  0.1671 -0.0642 -0.0378
32431SOL    HW1 3385   8.282   0.647   3.446  0.2395 -0.0594 -1.2217
32431SOL    HW2 3386   8.270   0.767   3.354 -1.5563  0.8768  0.1732
32432SOL     OW 3387   1.550   7.476   5.119 -0.8703  0.1956 -0.1231
32432SOL    HW1 3388   1.509   7.407   5.172 -1.7549 -0.0143 -1.0454
32432SOL    HW2 3389   1.585   7.431   5.043  4.1449 -0.2192  2.0041
32433SOL     OW 3390   8.127   5.120   0.718 -0.2677  0.4843 -0.1316
32433SOL    HW1 3391   8.044   5.113   0.765 -0.3596 -3.0990 -0.5931
32433SOL    HW2 3392   8.106   5.094   0.628  1.3070 -0.3034 -0.3045
32434SOL     OW 3393   6.993   9.144  10.211 -0.1730  0.0390  0.5753
32434SOL    HW1 3394   6.997   9.238  10.199 -0.9622 -0.0716 -0.7824
32434SOL    HW2 3395   7.062   9.124  10.275  2.7468  1.0869 -2.0156
32435SOL     OW 3396  10.919   6.116   0.707  0.5548  0.1649 -0.1033
32435SOL    HW1 3397  10.841   6.085   0.661  1.9069 -1.7268 -1.2599
32435SOL    HW2 3398  10.988   6.055   0.681  1.6433 -0.5391  3.7762
32436SOL     OW 3399   4.119   7.956   6.283 -0.2055  0.1650  0.4853
32436SOL    HW1 3400   4.055   8.010   6.329 -0.2993 -0.4061  1.0293
32436SOL    HW2 3401   4.121   7.993   6.194 -2.5138 -0.8109 -0.0570
32437SOL     OW 3402   4.496   7.010   8.947  0.2569 -0.2867  0.5406
32437SOL    HW1 3403   4.547   6.988   8.869  1.8418  1.7682  0.9042
32437SOL    HW2 3404   4.546   6.972   9.020  0.6353  0.6832  0.8023
32438SOL     OW 3405   2.684   8.138   3.308 -0.4167  0.3738 -0.1143
32438SOL    HW1 3406   2.633   8.218   3.321 -0.6699  0.2114 -0.0964
32438SOL    HW2 3407   2.631   8.086   3.248 -0.1582  0.3012 -0.2824
32439SOL     OW 3408  10.871   0.242   1.947 -0.4523  0.2630  0.2952
32439SOL    HW1 3409  10.877   0.225   2.041  0.9924 -2.3828 -0.1594
32439SOL    HW2 3410  10.897   0.333   1.937  0.1571  0.3696  2.4028
32440SOL     OW 3411   1.432   9.493   2.133  0.2417 -0.1666 -0.5213
32440SOL    HW1 3412   1.439   9.404   2.098 -1.1595 -0.9862  1.1830
32440SOL    HW2 3413   1.515   9.507   2.179 -0.4819 -1.5697  1.3025
32441SOL     OW 3414   5.145   8.392   2.900  0.2082  0.3615  0.4678
32441SOL    HW1 3415   5.097   8.374   2.819  3.3186 -0.8531 -1.3126
32441SOL    HW2 3416   5.183   8.479   2.886  0.9161  0.0644  0.4550
32442SOL     OW 3417   6.367   4.933   5.520 -0.2821  0.3895 -0.2511
32442SOL    HW1 3418   6.444   4.989   5.521  0.2763 -0.3583  0.0484
32442SOL    HW2 3419   6.295   4.990   5.548  0.5378  0.5935  1.5936
32443SOL     OW 3420  10.149   5.472   1.631 -0.2768  0.0599  0.6108
32443SOL    HW1 3421  10.116   5.383   1.617  0.2360 -0.0124 -0.1975
32443SOL    HW2 3422  10.085   5.512   1.690 -0.4564 -0.8726  1.0659
32444SOL     OW 3423   7.791   6.236   0.027 -0.6376  0.1939  0.2573
32444SOL    HW1 3424   7.711   6.285   0.008 -1.6033 -1.5657 -0.4241
32444SOL    HW2 3425   7.768   6.144   0.011  1.0446 -0.5316  1.6445
32445SOL     OW 3426   4.590   4.423   6.350 -0.3612 -0.7112 -0.2506
32445SOL    HW1 3427   4.663   4.419   6.288 -0.6110 -1.8214 -0.4881
32445SOL    HW2 3428   4.534   4.493   6.316  1.4721  1.4973  0.9580
32446SOL     OW 3429   0.364   0.330  10.645  0.5616  0.3182 -0.0465
32446SOL    HW1 3430   0.272   0.309  10.660  0.2500  2.2428  1.0467
32446SOL    HW2 3431   0.374   0.326  10.550 -0.0964 -1.9054 -0.0730
32447SOL     OW 3432   8.752   9.116   7.872  0.0629  0.2387 -0.5570
32447SOL    HW1 3433   8.674   9.083   7.827  0.4585 -0.7141 -0.5707
32447SOL    HW2 3434   8.717   9.175   7.939 -0.6486  0.1161 -0.8054
32448SOL     OW 3435   5.789  10.564  10.582  0.1059  0.7322  0.1311
32448SOL    HW1 3436   5.835  10.517  10.512 -0.1625  2.6062 -1.4143
32448SOL    HW2 3437   5.729  10.499  10.619  2.0083 -1.0050  0.3570
32449SOL     OW 3438   1.312   6.502   8.878  0.3070  0.2870  0.1947
32449SOL    HW1 3439   1.236   6.444   8.886  0.0879  0.3951 -1.0186
32449SOL    HW2 3440   1.321   6.541   8.965 -1.4489  0.8031  0.1723
32450SOL     OW 3441   9.920   4.804   6.030 -0.2403 -0.2761  0.4390
32450SOL    HW1 3442   9.860   4.736   6.001 -0.9735  0.6432 -0.2551
32450SOL    HW2 3443   9.979   4.759   6.091 -1.0945 -1.3842  0.4889
32451SOL     OW 3444   5.698   6.408   1.682 -0.5468  0.4521 -0.0571
32451SOL    HW1 3445   5.756   6.402   1.758  1.5296  0.2765 -1.5768
32451SOL    HW2 3446   5.610   6.407   1.719  0.3959  2.0072  2.4410
32452SOL     OW 3447   9.706   2.776   4.264  0.3435 -0.0848  0.2165
32452SOL    HW1 3448   9.721   2.855   4.212 -1.5372 -0.5818 -1.2002
32452SOL    HW2 3449   9.789   2.729   4.261  0.6512  0.5045 -1.3277
32453SOL     OW 3450   3.694   8.840   1.572 -0.6676  0.2470 -0.2301
32453SOL    HW1 3451   3.630   8.882   1.514 -0.5008  0.3197 -0.3635
32453SOL    HW2 3452   3.715   8.907   1.637 -1.0032  0.0977  0.0311
32454SOL     OW 3453   3.431   7.762   4.335  0.1484 -0.0288 -0.3135
32454SOL    HW1 3454   3.365   7.703   4.300  0.4238 -0.3499 -0.2949
32454SOL    HW2 3455   3.474   7.799   4.257  0.0221  0.0933 -0.3244
32455SOL     OW 3456   6.294   1.556  10.195 -0.0825 -0.1684  0.0134
32455SOL    HW1 3457   6.231   1.547  10.124  1.0681  2.4432 -1.4568
32455SOL    HW2 3458   6.240   1.562  10.274 -1.5467 -0.0470 -0.9617
32456SOL     OW 3459   9.585   3.341   6.103  0.3901 -0.3482  0.7044
32456SOL    HW1 3460   9.643   3.271   6.070  0.4722 -0.7990  1.7430
32456SOL    HW2 3461   9.506   3.295   6.130 -0.4009  0.2474 -0.5284
32457SOL     OW 3462   9.396   2.702   0.875  0.1390 -0.3013 -0.3886
32457SOL    HW1 3463   9.462   2.705   0.944 -0.3821 -1.1198  0.1549
32457SOL    HW2 3464   9.342   2.780   0.890 -0.8847 -1.2384  1.0723
32458SOL     OW 3465   1.406   2.616   3.732  0.4307 -0.1492 -0.2733
32458SOL    HW1 3466   1.467   2.565   3.785  0.0282 -0.2113  0.1370
32458SOL    HW2 3467   1.320   2.582   3.756  0.2634 -0.3916 -1.2044
32459SOL     OW 3468   1.404  10.264   4.374  0.1225  0.4810  0.3853
32459SOL    HW1 3469   1.390  10.188   4.431 -0.3475  0.7844  0.6851
32459SOL    HW2 3470   1.325  10.267   4.320  0.5215  0.2548 -0.2141
32460SOL     OW 3471   7.896   2.854  10.779  0.0759 -0.2090  0.4616
32460SOL    HW1 3472   7.901   2.841  10.685 -0.0725  0.1723  0.3971
32460SOL    HW2 3473   7.962   2.921  10.798 -0.0857 -0.0815  0.5851
32461SOL     OW 3474   9.397  10.431   2.465  0.8413  0.0939 -0.0545
32461SOL    HW1 3475   9.360  10.435   2.553  0.8971 -0.4542 -0.0002
32461SOL    HW2 3476   9.345  10.493   2.414  0.3260 -0.1229  0.1927
32462SOL     OW 3477   3.762   0.738   8.427 -1.0812  0.2479 -0.3857
32462SOL    HW1 3478   3.668   0.744   8.441 -1.0548  0.5996 -0.3421
32462SOL    HW2 3479   3.794   0.828   8.438 -0.6364  0.0095  0.3515
32463SOL     OW 3480   6.954   7.187   9.435 -0.5589  0.0940 -0.4258
32463SOL    HW1 3481   7.035   7.234   9.456 -0.7673 -0.2216  1.1859
32463SOL    HW2 3482   6.884   7.248   9.458 -0.8100  0.3561 -1.7940
32464SOL     OW 3483   8.734   7.741   3.889  0.3262 -0.4203 -0.2406
32464SOL    HW1 3484   8.767   7.792   3.963  2.5122 -2.6158  0.4198
32464SOL    HW2 3485   8.641   7.732   3.907  0.3620  1.0647  0.9795
32465SOL     OW 3486   8.184   5.722  10.260  0.2294 -0.1339 -0.3271
32465SOL    HW1 3487   8.095   5.689  10.272  0.8340 -1.9357 -0.4830
32465SOL    HW2 3488   8.215   5.742  10.349 -0.3178  0.4964 -0.2747
32466SOL     OW 3489   7.685   0.456   0.176  0.4395  0.2998  0.1034
32466SOL    HW1 3490   7.641   0.394   0.118  0.9670  0.3862 -0.4028
32466SOL    HW2 3491   7.757   0.407   0.214 -0.2605  0.0717  1.1653
32467SOL     OW 3492   9.088  10.210   2.645 -0.0698 -0.1984  0.5784
32467SOL    HW1 3493   9.007  10.217   2.696 -0.9687  2.0942 -1.0100
32467SOL    HW2 3494   9.065  10.152   2.572 -0.1728  0.1471  0.3347
32468SOL     OW 3495   2.766  10.434   4.101 -0.2132  0.1540 -0.8722
32468SOL    HW1 3496   2.677  10.456   4.127 -0.4871 -0.7789 -0.9891
32468SOL    HW2 3497   2.818  10.444   4.181 -0.5732 -0.1082 -0.6065
32469SOL     OW 3498   5.976   5.471   2.740 -0.0487  0.6292 -0.1600
32469SOL    HW1 3499   5.997   5.383   2.709 -1.5545  0.1878 -0.0084
32469SOL    HW2 3500   6.037   5.528   2.694  2.0435 -0.6038  0.9184
32470SOL     OW 3501   2.398   5.247   9.102 -0.1771  0.3808  0.1513
32470SOL    HW1 3502   2.451   5.194   9.042  0.2414  1.0821 -0.1086
32470SOL    HW2 3503   2.315   5.200   9.107 -0.0217  0.0085 -0.5317
32471SOL     OW 3504   5.510  10.003  10.258 -0.1152  0.2009  0.5648
32471SOL    HW1 3505   5.509   9.924  10.204  2.1379 -0.1861  1.0151
32471SOL    HW2 3506   5.565   9.981  10.333  1.7524  2.5591  0.0350
32472SOL     OW 3507   2.993   4.087   8.827 -0.2149  0.1464 -0.0778
32472SOL    HW1 3508   2.977   4.091   8.921 -1.5309  3.1656 -0.3234
32472SOL    HW2 3509   3.088   4.093   8.818 -0.1839  2.9914  1.0843
32473SOL     OW 3510   8.302   6.291   4.820 -0.2814 -0.0465  0.3956
32473SOL    HW1 3511   8.237   6.361   4.817  0.1102  0.2999 -0.5817
32473SOL    HW2 3512   8.256   6.217   4.860 -1.4590  0.0177 -0.7432
32474SOL     OW 3513   1.417   1.620   9.617  0.0779 -0.0165 -0.4797
32474SOL    HW1 3514   1.414   1.639   9.710 -0.3601 -2.1352 -0.0183
32474SOL    HW2 3515   1.327   1.601   9.593  0.3793 -0.7790 -1.0435
32475SOL     OW 3516   0.019   1.587   3.770  0.5045 -0.6442  0.1497
32475SOL    HW1 3517   0.040   1.539   3.690  0.2899  0.7056 -0.7608
32475SOL    HW2 3518   0.101   1.632   3.793  0.3588 -0.4363  0.2598
32476SOL     OW 3519   6.015   4.149   1.456  0.4025  0.1849 -0.0456
32476SOL    HW1 3520   5.978   4.107   1.534 -0.4164  0.5801 -0.2098
32476SOL    HW2 3521   6.103   4.175   1.483  0.0912  0.4163  0.7850
32477SOL     OW 3522   7.283   2.232   6.476 -0.3101  0.2084 -0.2688
32477SOL    HW1 3523   7.331   2.235   6.559 -2.0011 -1.7011  0.8418
32477SOL    HW2 3524   7.236   2.315   6.472  0.6699  0.7959  0.1003
32478SOL     OW 3525   3.006   9.513   6.727  0.4171 -0.1709  0.3640
32478SOL    HW1 3526   3.062   9.586   6.753 -0.7321  1.1543 -0.7369
32478SOL    HW2 3527   3.061   9.461   6.669  0.6382  0.9481 -0.4696
32479SOL     OW 3528   5.266   2.782   4.045 -0.6363  0.2589  0.0010
32479SOL    HW1 3529   5.295   2.694   4.069 -1.7452  0.1264  0.9638
32479SOL    HW2 3530   5.184   2.768   3.997 -0.4064  0.7375 -0.5500
32480SOL     OW 3531   8.322   3.055   5.091 -0.3188  0.1597 -0.4617
32480SOL    HW1 3532   8.271   2.976   5.107  0.5341 -0.4327 -0.6341
32480SOL    HW2 3533   8.257   3.119   5.061 -1.1982 -0.1159  0.7575
32481SOL     OW 3534  10.792   4.978   7.607 -0.9475  0.1588  0.2553
32481SOL    HW1 3535  10.750   5.051   7.563  1.2463  1.1442 -0.3693
32481SOL    HW2 3536  10.782   4.997   7.701 -3.0266 -0.3798  0.1801
32482SOL     OW 3537   8.670   3.557   9.977 -0.2522  0.0848  0.2341
32482SOL    HW1 3538   8.660   3.560  10.072  0.8560 -0.5740  0.3762
32482SOL    HW2 3539   8.726   3.632   9.957 -2.3741  1.6869 -0.2035
32483SOL     OW 3540   7.731   2.472   2.268 -0.4856 -0.0538 -0.0885
32483SOL    HW1 3541   7.774   2.396   2.307 -1.7015 -0.3924  0.6427
32483SOL    HW2 3542   7.773   2.547   2.309  0.6318 -0.3192 -0.7111
32484SOL     OW 3543   0.423   6.972   5.639  0.3403 -0.0737  0.4266
32484SOL    HW1 3544   0.519   6.976   5.645  0.3591  0.1134  0.0199
32484SOL    HW2 3545   0.393   7.033   5.706  0.5067 -0.1412  0.5638
32485SOL     OW 3546   9.023   7.757   8.514 -0.2111  0.1687 -0.1040
32485SOL    HW1 3547   9.044   7.798   8.430  1.8557  0.1318  0.3238
32485SOL    HW2 3548   9.103   7.769   8.566 -2.1227  2.0579  2.6321
32486SOL     OW 3549   9.252   3.054   0.690 -0.2190  0.2409 -0.0403
32486SOL    HW1 3550   9.157   3.047   0.685 -0.2379 -0.0719  0.5756
32486SOL    HW2 3551   9.275   3.121   0.627 -0.8506  0.3247 -0.1879
32487SOL     OW 3552  10.048   9.451   9.004  0.0401  0.0737  0.3590
32487SOL    HW1 3553   9.991   9.470   8.929  1.3228 -0.6865 -0.8805
32487SOL    HW2 3554  10.053   9.356   9.007 -0.8675  0.0481  2.1552
32488SOL     OW 3555   3.033   4.766   2.703  0.2798  0.0295 -0.0042
32488SOL    HW1 3556   3.018   4.708   2.778  0.4298 -0.1888 -0.1418
32488SOL    HW2 3557   2.948   4.772   2.660  0.4475 -0.7746 -0.4757
32489SOL     OW 3558   5.758   8.055   5.836 -0.0478 -0.0326  0.2521
32489SOL    HW1 3559   5.672   8.020   5.859  0.0554 -0.1736  0.4227
32489SOL    HW2 3560   5.744   8.097   5.751 -0.3382  0.1391  0.3806
32490SOL     OW 3561   8.525   0.782   4.661 -0.3876 -0.2624 -0.2033
32490SOL    HW1 3562   8.439   0.820   4.647 -0.5033  0.3251  1.7796
32490SOL    HW2 3563   8.586   0.856   4.657 -0.3428 -0.1861  1.3425
32491SOL     OW 3564   8.780   8.922   5.363 -0.2473 -0.9017 -0.1397
32491SOL    HW1 3565   8.741   8.867   5.430  0.9011 -2.4535 -0.6930
32491SOL    HW2 3566   8.706   8.972   5.327 -1.2461 -1.7262  0.6999
32492SOL     OW 3567   9.446   7.935   9.638 -0.0314  0.1906 -0.1749
32492SOL    HW1 3568   9.393   7.906   9.712 -0.2044  1.1028  0.0645
32492SOL    HW2 3569   9.393   7.915   9.561  1.0831 -2.9007 -0.2766
32493SOL     OW 3570  10.300   0.562   1.016 -0.4586 -0.1495  0.3883
32493SOL    HW1 3571  10.388   0.527   1.029 -0.3910  0.2802  1.1656
32493SOL    HW2 3572  10.289   0.626   1.087 -0.9678  0.6374 -0.3815
32494SOL     OW 3573   9.371   1.578   1.380 -0.8032  0.8112  0.3434
32494SOL    HW1 3574   9.286   1.610   1.350 -0.1316  0.7331 -1.7642
32494SOL    HW2 3575   9.435   1.638   1.343  0.1772 -0.1193  0.4452
32495SOL     OW 3576   6.053   0.506   0.750  0.0963 -0.5535 -0.4314
32495SOL    HW1 3577   5.985   0.559   0.790  0.7835 -0.4954  0.6909
32495SOL    HW2 3578   6.011   0.468   0.673 -0.6895  0.8428 -0.7319
32496SOL     OW 3579   2.282   8.301   9.405  0.1782 -0.3753 -0.2603
32496SOL    HW1 3580   2.202   8.249   9.406 -0.8050  1.0681  0.8658
32496SOL    HW2 3581   2.252   8.391   9.420  1.9823  0.2552 -0.2003
32497SOL     OW 3582   3.607   0.721   4.709 -0.5710 -0.3257  0.4711
32497SOL    HW1 3583   3.561   0.644   4.741  0.0036 -0.8605  0.0220
32497SOL    HW2 3584   3.591   0.722   4.615  0.1941 -0.4344  0.3292
32498SOL     OW 3585   1.393   2.041   4.236 -0.2994 -1.0094  0.0947
32498SOL    HW1 3586   1.453   1.967   4.245 -1.4652 -2.1138 -1.0054
32498SOL    HW2 3587   1.308   2.007   4.262 -0.6706  0.2887  0.7063
32499SOL     OW 3588   1.597   3.461   7.365  0.5134 -0.4099  0.5025
32499SOL    HW1 3589   1.675   3.430   7.410  1.1193  0.8448  0.3476
32499SOL    HW2 3590   1.624   3.542   7.322 -0.8973  0.1277  0.5571
32500SOL     OW 3591   6.060   0.648  10.889  0.0911 -0.3365 -0.0411
32500SOL    HW1 3592   5.993   0.628  10.954 -0.1348  0.1221 -0.1229
32500SOL    HW2 3593   6.106   0.566  10.875 -1.1184 -0.9268 -0.7402
32501SOL     OW 3594   8.774   8.934   1.078  0.5238 -0.0793 -0.0456
32501SOL    HW1 3595   8.768   8.865   1.011  0.2741  0.5795 -0.7133
32501SOL    HW2 3596   8.738   9.012   1.036  1.0769  0.5402  0.6048
32502SOL     OW 3597   8.515   8.242   1.244 -0.6370  0.1512 -0.0094
32502SOL    HW1 3598   8.585   8.203   1.297  0.6763  0.4562 -1.4687
32502SOL    HW2 3599   8.529   8.209   1.156 -1.2816  1.5927 -0.6910
32503SOL     OW 3600   4.621   1.727   3.300 -0.4982 -0.3553 -0.5185
32503SOL    HW1 3601   4.572   1.655   3.339 -1.7928  0.8637  0.1771
32503SOL    HW2 3602   4.565   1.804   3.311 -0.2059  0.3863 -3.2728
32504SOL     OW 3603  10.413   2.775   6.417 -0.1110  0.1960  0.6070
32504SOL    HW1 3604  10.325   2.796   6.385  0.0458  0.1980  0.1683
32504SOL    HW2 3605  10.399   2.729   6.500 -0.5415 -0.4374  0.1808
32505SOL     OW 3606   2.534   3.832   3.785 -0.3824  0.5603 -0.1713
32505SOL    HW1 3607   2.601   3.892   3.817  0.3845 -0.7627  0.7995
32505SOL    HW2 3608   2.457   3.887   3.773  0.6194  1.9580 -0.5004
32506SOL     OW 3609   8.620   3.086   6.899  0.0910  0.5265 -0.0464
32506SOL    HW1 3610   8.537   3.134   6.903  0.2072  0.6577  1.0644
32506SOL    HW2 3611   8.613   3.033   6.820 -0.9848  0.6565 -0.0557
32507SOL     OW 3612   3.268   8.026   0.914 -0.3627  0.6419 -0.5909
32507SOL    HW1 3613   3.201   7.981   0.862  0.3976  0.1175 -1.1439
32507SOL    HW2 3614   3.318   8.077   0.850  0.3489  0.2892 -0.3295
32508SOL     OW 3615   2.519   9.054   3.188  0.1269  0.7466  0.0983
32508SOL    HW1 3616   2.555   9.114   3.253 -1.0425  1.9597 -0.3267
32508SOL    HW2 3617   2.596   9.010   3.151  0.9833  1.6601  0.7297
32509SOL     OW 3618   0.461   2.846  10.845  0.0941  0.5544 -0.4868
32509SOL    HW1 3619   0.506   2.893  10.915 -0.2268  1.8818 -1.1327
32509SOL    HW2 3620   0.425   2.768  10.887  0.5052  0.9726  0.6664
32510SOL     OW 3621   4.340   4.204   6.266  0.4076  0.4176 -0.2469
32510SOL    HW1 3622   4.382   4.120   6.284  0.5495 -0.2412 -3.1910
32510SOL    HW2 3623   4.275   4.184   6.198 -1.7214  2.1760  1.1466
32511SOL     OW 3624   0.091   8.694   2.252 -0.0288  0.2025 -0.1755
32511SOL    HW1 3625   0.139   8.686   2.169 -1.1214 -0.8492 -0.7310
32511SOL    HW2 3626   0.008   8.735   2.227  0.2940  1.4632  0.6866
32512SOL     OW 3627   3.578   6.964   6.293 -0.5357  0.1113 -0.7479
32512SOL    HW1 3628   3.504   7.021   6.313 -0.8169 -0.5638  0.2266
32512SOL    HW2 3629   3.617   6.944   6.378  0.6437  0.2833 -1.2276
32513SOL     OW 3630   5.844   9.789   7.024 -0.0912  0.2018  0.4755
32513SOL    HW1 3631   5.863   9.748   7.108 -0.4418  0.7022  0.8031
32513SOL    HW2 3632   5.876   9.726   6.959 -0.3305 -0.4448  0.9720
32514SOL     OW 3633   0.554  10.545   5.307 -0.0388  0.2493 -0.2208
32514SOL    HW1 3634   0.602  10.463   5.321  0.3794  0.8757  2.5132
32514SOL    HW2 3635   0.593  10.606   5.369 -0.6892  2.4157 -1.8466
32515SOL     OW 3636   3.610   3.432   1.828  0.1091 -0.2919  0.3763
32515SOL    HW1 3637   3.625   3.337   1.819  0.3143 -0.4318  1.8659
32515SOL    HW2 3638   3.616   3.466   1.739  3.5910 -1.1704  0.1151
32516SOL     OW 3639   6.471   2.416   1.212  0.1227 -0.5170 -0.3275
32516SOL    HW1 3640   6.538   2.448   1.151 -0.8875  0.2841 -1.0521
32516SOL    HW2 3641   6.406   2.376   1.155 -1.0344  0.5900  0.1846
32517SOL     OW 3642   8.016   2.467   7.014 -0.2755  0.2109  0.5036
32517SOL    HW1 3643   8.036   2.377   6.988  0.5839  0.2350  1.0565
32517SOL    HW2 3644   7.927   2.482   6.981  0.8136  0.3603 -2.7102
32518SOL     OW 3645   5.869   5.264   2.176 -0.5868  0.4691 -0.4711
32518SOL    HW1 3646   5.814   5.279   2.099 -1.0191  0.4385 -0.1718
32518SOL    HW2 3647   5.815   5.291   2.250 -0.8782 -1.2425 -0.0281
32519SOL     OW 3648   3.528   4.294   2.293  0.0755 -0.5133  0.1688
32519SOL    HW1 3649   3.575   4.360   2.344 -0.4213 -1.1071  1.4266
32519SOL    HW2 3650   3.526   4.217   2.349  1.1365 -1.8254 -1.4953
32520SOL     OW 3651   0.102   8.354   4.587 -0.3011  0.1503  0.5407
32520SOL    HW1 3652   0.056   8.435   4.561 -0.6213 -0.1653  0.1118
32520SOL    HW2 3653   0.077   8.290   4.520  1.2618  0.1227 -0.0531
32521SOL     OW 3654   1.147   3.990   3.553 -0.2322  0.4707  0.2006
32521SOL    HW1 3655   1.165   3.898   3.573 -1.0398  0.2780  0.0712
32521SOL    HW2 3656   1.082   4.016   3.617  0.1071  0.9988  0.3303
32522SOL     OW 3657   8.609   7.672   9.815  0.6955  0.4825 -0.4114
32522SOL    HW1 3658   8.669   7.607   9.850 -0.1275  0.6617  1.4465
32522SOL    HW2 3659   8.522   7.643   9.843  0.2237  1.9165 -0.2628
32523SOL     OW 3660   9.813   0.170   4.851 -0.5871  0.1110 -0.0803
32523SOL    HW1 3661   9.816   0.116   4.930  2.0017  0.0210 -0.1517
32523SOL    HW2 3662   9.870   0.244   4.870 -0.7398  0.6323 -1.5045
32524SOL     OW 3663  10.646   9.726   0.043  0.2666 -0.0364 -0.1606
32524SOL    HW1 3664  10.557   9.749   0.071 -0.0806  1.0401 -1.9157
32524SOL    HW2 3665  10.637   9.641   0.001  0.2078 -0.2675  0.3199
32525SOL     OW 3666   2.186   1.129   8.551  0.2665  1.0191 -0.6549
32525SOL    HW1 3667   2.239   1.191   8.603  2.0993 -0.4567 -0.6579
32525SOL    HW2 3668   2.147   1.071   8.616  2.2104 -0.5576 -0.7888
32526SOL     OW 3669   1.132   9.253   3.621 -0.3680 -0.0334  0.7383
32526SOL    HW1 3670   1.147   9.309   3.545  0.0693  0.2921  1.0653
32526SOL    HW2 3671   1.046   9.213   3.604 -0.1168 -0.2371 -0.0920
32527SOL     OW 3672   5.998   7.956   9.168  0.8370 -0.2050 -0.4302
32527SOL    HW1 3673   6.060   7.886   9.188 -0.6957 -1.4858  0.0520
32527SOL    HW2 3674   5.913   7.920   9.192 -0.1334  1.4057 -1.2895
32528SOL     OW 3675   7.408   1.976  10.412 -0.2614 -0.1450  0.0695
32528SOL    HW1 3676   7.358   1.928  10.346 -0.5144  0.9526 -0.5743
32528SOL    HW2 3677   7.387   1.933  10.495  0.6450 -2.0401 -0.6251
32529SOL     OW 3678   3.640   2.712   7.835 -0.1029  0.0392 -0.0883
32529SOL    HW1 3679   3.599   2.625   7.843  0.3646 -0.0963  0.9906
32529SOL    HW2 3680   3.734   2.694   7.831  0.0606  0.5188  1.0879
32530SOL     OW 3681   4.038   5.227   7.030  0.6144  0.6672 -0.1780
32530SOL    HW1 3682   3.987   5.242   6.950  1.5907  2.3861 -0.5244
32530SOL    HW2 3683   4.127   5.255   7.007  1.5340 -1.3359  0.7105
32531SOL     OW 3684   5.843   0.850  10.396  0.8285 -0.2236 -0.3777
32531SOL    HW1 3685   5.897   0.926  10.420 -2.5735  1.6860  2.1808
32531SOL    HW2 3686   5.795   0.879  10.318 -1.6052  1.1097  1.4613
32532SOL     OW 3687   3.656   4.557   8.529 -0.5720  0.4102 -0.1080
32532SOL    HW1 3688   3.591   4.502   8.573 -0.2793  0.5821  0.5441
32532SOL    HW2 3689   3.607   4.635   8.502 -1.4129 -0.8694 -2.6023
32533SOL     OW 3690   8.499   6.007   5.441  0.2510  0.5773  0.5148
32533SOL    HW1 3691   8.546   6.035   5.362 -2.0191 -0.4114 -1.3159
32533SOL    HW2 3692   8.479   5.915   5.425 -0.9710  0.5761  1.8774
32534SOL     OW 3693   5.057   9.380   5.153  0.0287 -0.4510 -0.1429
32534SOL    HW1 3694   5.133   9.436   5.167  0.1499  0.4429 -3.4866
32534SOL    HW2 3695   4.982   9.436   5.170  0.0113 -1.1663  2.5757
32535SOL     OW 3696   6.543   6.030   0.634  0.6751 -0.5227 -0.0215
32535SOL    HW1 3697   6.601   5.954   0.636  0.2319 -0.8559  0.4690
32535SOL    HW2 3698   6.570   6.079   0.556  0.5374 -1.5125 -0.7126
32536SOL     OW 3699   8.821   7.025   1.289  0.0312 -0.9749 -0.7199
32536SOL    HW1 3700   8.859   6.945   1.323 -0.0435 -1.4312 -1.6661
32536SOL    HW2 3701   8.811   7.009   1.195  0.3090  0.2585 -0.9802
32537SOL     OW 3702   9.276   7.557   1.287  0.1297 -1.1919  0.8095
32537SOL    HW1 3703   9.342   7.489   1.271 -0.2891 -1.6270  0.9346
32537SOL    HW2 3704   9.301   7.628   1.227  0.1223 -1.7586  0.1199
32538SOL     OW 3705   1.294   6.355   8.358 -0.3158 -0.0437 -0.7130
32538SOL    HW1 3706   1.375   6.360   8.409 -1.1903 -1.3141  0.8722
32538SOL    HW2 3707   1.229   6.321   8.419 -2.0388  0.8151 -1.9956
32539SOL     OW 3708   3.453   1.312   6.832  0.0165  0.2161 -0.1313
32539SOL    HW1 3709   3.485   1.401   6.815 -1.5671  0.8296 -0.0692
32539SOL    HW2 3710   3.366   1.310   6.793 -0.0818 -1.2322  0.1126
32540SOL     OW 3711   7.100   2.946   5.078 -0.3458  0.2796  0.0066
32540SOL    HW1 3712   7.080   2.896   5.157  1.3459  1.0198  0.9462
32540SOL    HW2 3713   7.151   2.886   5.023 -0.5118  0.1480 -0.0037
32541SOL     OW 3714   9.501   0.883   4.234 -0.0148  0.2316  0.3475
32541SOL    HW1 3715   9.448   0.805   4.218 -2.5300  1.7064  0.9941
32541SOL    HW2 3716   9.550   0.863   4.313  2.1009 -1.9268 -1.3528
32542SOL     OW 3717   6.078   5.672   8.911  0.0760  0.7692 -0.5736
32542SOL    HW1 3718   6.050   5.581   8.910  0.3690  0.5759  2.0505
32542SOL    HW2 3719   5.997   5.722   8.916 -0.1071  0.3920  2.2464
32543SOL     OW 3720   8.374   7.561   8.543  0.0473  0.2884  0.4615
32543SOL    HW1 3721   8.392   7.477   8.584  0.4557  0.9455  1.6732
32543SOL    HW2 3722   8.425   7.560   8.462 -1.0783 -1.1862 -0.2932
32544SOL     OW 3723  10.630   8.444   4.709  0.2417  0.5391  0.0028
32544SOL    HW1 3724  10.556   8.387   4.730  0.0748  0.5577 -0.5043
32544SOL    HW2 3725  10.619   8.520   4.766  0.1116  0.3469  0.2374
32545SOL     OW 3726   8.431   1.796   1.931  0.7649  0.3320 -0.1271
32545SOL    HW1 3727   8.444   1.881   1.888  1.5212  0.4518  0.3153
32545SOL    HW2 3728   8.512   1.782   1.981  0.5240 -0.5102  0.0432
32546SOL     OW 3729   5.470   6.532  10.873  0.2689  0.2661 -0.4924
32546SOL    HW1 3730   5.400   6.526  10.938  1.6755  1.0316  1.1774
32546SOL    HW2 3731   5.445   6.605  10.817 -1.6964 -1.3289 -1.7834
32547SOL     OW 3732   0.384  10.112   5.969  0.4301 -0.0509 -0.0555
32547SOL    HW1 3733   0.305  10.059   5.958 -1.3158  2.3923 -0.0675
32547SOL    HW2 3734   0.391  10.161   5.887  0.5641  1.4503  0.8059
32548SOL     OW 3735   8.056   2.368   5.884 -0.6475  0.4077  0.6823
32548SOL    HW1 3736   8.017   2.297   5.833 -0.1009  2.2052 -2.4996
32548SOL    HW2 3737   8.010   2.366   5.968 -2.8390 -1.6926 -0.4506
32549SOL     OW 3738   2.990   7.048   2.658  0.2053  0.3733 -0.2060
32549SOL    HW1 3739   3.009   7.092   2.741 -0.5879  1.2161 -0.4505
32549SOL    HW2 3740   3.059   7.078   2.599 -0.0773  0.9563 -0.2497
32550SOL     OW 3741   9.321   9.409   4.588 -0.2070 -0.2253 -0.0897
32550SOL    HW1 3742   9.266   9.423   4.511  1.0045 -1.3456 -1.1965
32550SOL    HW2 3743   9.320   9.315   4.602  1.0692 -0.2308  0.1193
32551SOL     OW 3744   5.611   0.144  10.739  0.5792 -0.1398 -0.3369
32551SOL    HW1 3745   5.560   0.063  10.734 -0.8693  0.5177  2.1315
32551SOL    HW2 3746   5.547   0.210  10.765  2.4283  1.0006  1.5778
32552SOL     OW 3747   7.253   6.024   9.420 -0.6184 -0.4127 -0.0712
32552SOL    HW1 3748   7.181   6.087   9.415  1.0941  1.7496  0.5214
32552SOL    HW2 3749   7.252   5.978   9.336  0.5789  3.4899 -2.4999
32553SOL     OW 3750   2.592   9.089   5.158 -0.1755 -0.1109 -0.2109
32553SOL    HW1 3751   2.683   9.075   5.184 -0.4146  0.8014  1.2554
32553SOL    HW2 3752   2.597   9.154   5.088  0.2435  1.6683  1.3676
32554SOL     OW 3753   4.839   3.344   6.487  0.0910 -0.4809 -0.4311
32554SOL    HW1 3754   4.784   3.415   6.456  0.8925  1.1878  1.7280
32554SOL    HW2 3755   4.921   3.355   6.439  0.3200  0.2561  0.1230
32555SOL     OW 3756   8.759   6.069   3.654 -0.0506  0.1261 -0.1356
32555SOL    HW1 3757   8.670   6.082   3.622 -0.5134 -1.4049  0.4503
32555SOL    HW2 3758   8.784   5.982   3.622  0.5766 -0.1892  1.1164
32556SOL     OW 3759   8.528   8.292   3.807 -0.2722  0.2247  0.4811
32556SOL    HW1 3760   8.512   8.276   3.714 -0.3315  0.0551  0.5205
32556SOL    HW2 3761   8.441   8.309   3.844 -0.1252  1.5254  0.2730
32557SOL     OW 3762  10.592   4.803   9.603 -0.5188  0.3662 -0.3199
32557SOL    HW1 3763  10.497   4.797   9.594 -0.7588  2.1439  0.4904
32557SOL    HW2 3764  10.612   4.759   9.685 -0.4870 -0.9227 -0.9992
32558SOL     OW 3765   0.340   7.671   3.680 -0.5000 -0.5102  0.5254
32558SOL    HW1 3766   0.248   7.692   3.697 -1.4192 -2.4071 -1.6642
32558SOL    HW2 3767   0.371   7.742   3.623 -0.1618  0.7833  2.2156
32559SOL     OW 3768   8.714   9.893   1.386 -0.4834 -0.3463  0.1173
32559SOL    HW1 3769   8.727   9.987   1.396  0.3439 -0.5838  1.6102
32559SOL    HW2 3770   8.641   9.885   1.325 -1.3859  1.2826  0.9316
32560SOL     OW 3771   4.663   2.372   9.011  0.7597  0.3082  0.3364
32560SOL    HW1 3772   4.666   2.438   9.081 -0.6293  0.0941  0.6345
32560SOL    HW2 3773   4.748   2.329   9.015  2.0067  2.5400 -0.3413
32561SOL     OW 3774   0.156   7.623   0.841 -0.4321 -0.0611 -0.4605
32561SOL    HW1 3775   0.063   7.639   0.859 -0.7206 -0.1914 -1.7578
32561SOL    HW2 3776   0.157   7.574   0.759  0.7589 -0.6537 -0.1107
32562SOL     OW 3777   6.946   6.833   7.870 -0.5179  0.2901  0.4260
32562SOL    HW1 3778   6.980   6.845   7.958 -0.5559 -0.0512  0.4865
32562SOL    HW2 3779   7.004   6.769   7.829 -0.5580  0.3735  0.2346
32563SOL     OW 3780   2.581   7.656   3.736 -0.1090 -0.6892  0.0356
32563SOL    HW1 3781   2.494   7.691   3.752 -1.0770 -1.6528 -2.5970
32563SOL    HW2 3782   2.638   7.705   3.795 -2.2174  0.8977  0.8732
32564SOL     OW 3783   3.951   2.235   3.621  0.7139  0.1813 -0.0584
32564SOL    HW1 3784   3.918   2.272   3.703  0.1281  1.0994 -0.7033
32564SOL    HW2 3785   3.951   2.308   3.559 -0.0472 -0.7646 -1.2267
32565SOL     OW 3786   1.452   0.230   4.766 -0.1984 -0.3975 -0.3384
32565SOL    HW1 3787   1.442   0.176   4.688  0.0429  1.5975 -1.8310
32565SOL    HW2 3788   1.544   0.258   4.765  0.0802 -1.1043  1.2386
32566SOL     OW 3789   4.700   3.906   2.324 -0.5013  0.0846  0.3183
32566SOL    HW1 3790   4.788   3.926   2.293 -0.9246 -0.7052 -1.5585
32566SOL    HW2 3791   4.713   3.840   2.392  0.3373 -0.3516 -0.2468
32567SOL     OW 3792   8.537   1.583   2.584 -0.1396 -0.2761  0.3487
32567SOL    HW1 3793   8.571   1.597   2.495 -1.2387 -2.1318 -0.4397
32567SOL    HW2 3794   8.615   1.571   2.638  0.5466 -0.7641 -0.7066
32568SOL     OW 3795   9.059   3.337   8.629  0.1953 -0.0110  0.3242
32568SOL    HW1 3796   9.129   3.397   8.654  0.1993  0.2396 -0.2828
32568SOL    HW2 3797   8.979   3.381   8.658  0.2671 -0.1956  0.8156
32569SOL     OW 3798   0.356   0.960   6.243 -0.1910  0.1510  0.7778
32569SOL    HW1 3799   0.430   1.021   6.240  0.7318 -0.7875  2.7051
32569SOL    HW2 3800   0.280   1.015   6.223  1.0570  0.9077 -2.3878
32570SOL     OW 3801   6.516   2.804   0.599  0.5621 -0.0524 -0.3526
32570SOL    HW1 3802   6.551   2.741   0.536  1.9366  0.9872 -0.6676
32570SOL    HW2 3803   6.593   2.839   0.643 -0.2779  0.4114  0.7986
32571SOL     OW 3804   6.194   0.623   5.757  0.0144  0.1039  0.0923
32571SOL    HW1 3805   6.189   0.528   5.760 -1.6513  0.1060 -1.3296
32571SOL    HW2 3806   6.233   0.643   5.672 -0.1902  0.7103  0.1360
32572SOL     OW 3807   9.671   9.253  10.794 -0.3875  0.1332 -0.4927
32572SOL    HW1 3808   9.658   9.171  10.841  3.6381 -0.9813 -0.9238
32572SOL    HW2 3809   9.691   9.317  10.862 -3.8855  1.0619 -0.1206
32573SOL     OW 3810   7.990   0.212   0.559 -0.0386 -0.0387 -0.0932
32573SOL    HW1 3811   8.059   0.162   0.516  0.1110 -0.5579  0.7420
32573SOL    HW2 3812   7.951   0.152   0.622  1.5095  1.4439  2.4390
32574SOL     OW 3813  10.104  10.928   1.866  0.5371 -0.0946  0.5122
32574SOL    HW1 3814  10.132  10.887   1.785 -1.4955  0.3573 -0.4881
32574SOL    HW2 3815  10.112  10.860   1.932 -3.6910 -2.6916 -1.2419
32575SOL     OW 3816   2.451   7.553   4.247  0.1230 -0.5941  0.2384
32575SOL    HW1 3817   2.496   7.488   4.300  0.1757  0.5698  1.6860
32575SOL    HW2 3818   2.472   7.637   4.288 -0.5330  0.2849 -1.1331
32576SOL     OW 3819   7.017   7.470   7.570 -0.0482 -0.4310 -0.2882
32576SOL    HW1 3820   6.963   7.466   7.649  0.9559 -0.3701  0.4109
32576SOL    HW2 3821   7.037   7.378   7.550 -0.1082 -0.4335 -0.3372
32577SOL     OW 3822   2.640   3.135   5.022  0.2327 -0.4648 -0.0409
32577SOL    HW1 3823   2.709   3.073   5.048  1.7469  1.3574  0.5052
32577SOL    HW2 3824   2.685   3.200   4.969 -1.1449  0.6549  0.1142
32578SOL     OW 3825   4.510   5.408   3.178 -0.1962  0.0451 -0.3183
32578SOL    HW1 3826   4.541   5.382   3.264  1.1467  0.2078 -0.7227
32578SOL    HW2 3827   4.569   5.365   3.117 -1.7968 -0.9684 -1.2238
32579SOL     OW 3828   1.505   3.046   4.200 -0.7964  0.0515  0.1928
32579SOL    HW1 3829   1.443   2.996   4.253 -0.5672  1.0605  1.4559
32579SOL    HW2 3830   1.586   3.045   4.251  0.1099 -0.8329 -1.2093
32580SOL     OW 3831  10.558   2.604   4.547  0.0282 -0.6034  0.5349
32580SOL    HW1 3832  10.559   2.548   4.469  0.9841  0.0256  0.0786
32580SOL    HW2 3833  10.476   2.582   4.591  0.0022 -1.7862 -0.0510
32581SOL     OW 3834   1.960   2.247   6.281  0.2241 -0.3390  0.2321
32581SOL    HW1 3835   1.921   2.160   6.273  1.6997 -1.1220  1.1842
32581SOL    HW2 3836   1.930   2.294   6.202  0.3283 -2.0712 -0.8804
32582SOL     OW 3837   2.540   5.816   6.818  0.2314 -0.5995 -0.1540
32582SOL    HW1 3838   2.497   5.813   6.904 -0.3187  1.3108 -0.3253
32582SOL    HW2 3839   2.540   5.909   6.794  0.3243 -1.0872 -2.2549
32583SOL     OW 3840   5.088   5.626   8.608  0.2473  0.2935  0.2308
32583SOL    HW1 3841   5.082   5.694   8.675  0.0072  0.4291  0.0752
32583SOL    HW2 3842   5.171   5.643   8.564 -0.2159  1.0381 -0.3868
32584SOL     OW 3843   7.399   8.218   8.865 -0.5199  0.4327 -0.2075
32584SOL    HW1 3844   7.495   8.221   8.859 -0.4630  1.0700  0.8400
32584SOL    HW2 3845   7.374   8.304   8.898 -1.2331 -0.5830  2.1329
32585SOL     OW 3846   6.224   7.106   1.216  0.5392 -0.0552  0.2152
32585SOL    HW1 3847   6.179   7.141   1.139 -1.4183 -2.2159  0.2565
32585SOL    HW2 3848   6.316   7.102   1.191  0.0339 -0.0507 -1.7761
32586SOL     OW 3849  10.631   5.496  10.043  0.4694  0.0511  0.2569
32586SOL    HW1 3850  10.678   5.565  10.090 -0.5745  1.1046 -0.1933
32586SOL    HW2 3851  10.592   5.540   9.968  1.0522 -1.3592 -0.9064
32587SOL     OW 3852   1.923   6.557   7.010  0.1668  0.3196  0.0585
32587SOL    HW1 3853   1.860   6.517   6.950 -0.7917 -0.6065  1.6245
32587SOL    HW2 3854   1.870   6.593   7.081  1.3267  0.5466  0.8386
32588SOL     OW 3855   9.004   4.129   8.377  0.5994 -0.1401  0.0719
32588SOL    HW1 3856   8.972   4.068   8.444 -0.9337  0.0323 -0.4681
32588SOL    HW2 3857   9.069   4.078   8.328 -0.0350 -1.0598  0.1676
32589SOL     OW 3858   8.174  10.651   5.275 -0.1045  0.6267  0.2350
32589SOL    HW1 3859   8.268  10.638   5.260 -0.4275 -0.0749 -1.4119
32589SOL    HW2 3860   8.151  10.727   5.222 -0.3079  1.4214  1.4181
32590SOL     OW 3861  10.036   5.439   8.647 -0.4842  0.4164 -0.7957
32590SOL    HW1 3862   9.972   5.452   8.717  0.1996 -1.2572  0.1949
32590SOL    HW2 3863  10.028   5.346   8.625  2.6515 -0.2860  0.4930
32591SOL     OW 3864   3.955   5.320   6.582 -0.4324  0.4063  0.1919
32591SOL    HW1 3865   3.997   5.386   6.526 -0.0582 -1.3843 -1.7357
32591SOL    HW2 3866   4.027   5.281   6.631  0.1257 -1.6927 -2.0910
32592SOL     OW 3867   6.778   7.669   3.552  0.2249  0.3781  0.2441
32592SOL    HW1 3868   6.789   7.755   3.511  1.1450  0.8379  1.3814
32592SOL    HW2 3869   6.688   7.671   3.586 -1.0156 -0.5007 -2.7087
32593SOL     OW 3870   7.490   7.829   7.230 -0.0290 -0.5424  0.1678
32593SOL    HW1 3871   7.434   7.752   7.244  0.2566 -0.3469  3.1696
32593SOL    HW2 3872   7.429   7.903   7.229 -0.2277 -0.6688 -1.9461
32594SOL     OW 3873   3.020   5.897   9.061 -0.5332  0.2279 -0.0533
32594SOL    HW1 3874   3.041   5.891   8.968 -1.1656 -0.2607 -0.1713
32594SOL    HW2 3875   3.095   5.942   9.100  0.9351 -1.7747 -0.3844
32595SOL     OW 3876   9.482   1.696   1.722 -0.1828 -0.1362 -0.7660
32595SOL    HW1 3877   9.513   1.786   1.729 -0.7852 -0.0094  0.7159
32595SOL    HW2 3878   9.401   1.703   1.670 -0.4035  0.2362 -0.3822
32596SOL     OW 3879   6.959   4.462   4.263 -0.0910 -0.0021 -0.3399
32596SOL    HW1 3880   6.923   4.375   4.246 -0.5041  0.5810 -2.7593
32596SOL    HW2 3881   7.053   4.452   4.248  0.2737 -0.5656  1.9354
32597SOL     OW 3882   0.982   4.888   9.183 -0.2534  0.5665  0.7661
32597SOL    HW1 3883   1.030   4.853   9.108 -1.2118  1.7452 -0.4348
32597SOL    HW2 3884   1.050   4.911   9.246  0.5562 -0.7143  0.4160
32598SOL     OW 3885   1.795   2.747   4.373 -0.2256 -0.3021 -0.0997
32598SOL    HW1 3886   1.715   2.739   4.424 -0.3322 -0.8405 -0.3415
32598SOL    HW2 3887   1.790   2.833   4.333  0.0511  0.2997  1.1167
32599SOL     OW 3888   1.010   9.214   2.481  0.3995  0.5666  0.5647
32599SOL    HW1 3889   1.060   9.156   2.538 -0.6887 -0.2114  0.7590
32599SOL    HW2 3890   0.938   9.246   2.536  1.7293  3.2283  0.8927
32600SOL     OW 3891   2.568   3.388  10.038 -0.5418 -0.4101 -0.2359
32600SOL    HW1 3892   2.581   3.390   9.944 -1.0482  1.2156 -0.3003
32600SOL    HW2 3893   2.476   3.362  10.049 -0.2376 -1.4908 -0.1410
32601SOL     OW 3894   5.141   2.963   3.666 -0.1725  0.2605  0.3312
32601SOL    HW1 3895   5.232   2.991   3.665 -0.6627  2.1489  1.6350
32601SOL    HW2 3896   5.122   2.937   3.576  1.9473 -1.3378  0.2833
32602SOL     OW 3897   5.800   0.318   0.152  0.0636 -0.1028  0.1397
32602SOL    HW1 3898   5.816   0.243   0.094 -0.1198 -0.3189  0.3688
32602SOL    HW2 3899   5.751   0.282   0.226  2.8122 -0.4260  1.9373
32603SOL     OW 3900   7.976   9.862   0.330 -0.0696  0.0479  0.2105
32603SOL    HW1 3901   7.990   9.792   0.266  0.4177 -2.1388  2.5419
32603SOL    HW2 3902   7.890   9.897   0.309  0.5088  0.1699 -2.2502
32604SOL     OW 3903   8.893  10.877   3.650 -0.1659  0.3907 -0.4498
32604SOL    HW1 3904   8.866  10.957   3.696 -0.9175  0.8093 -1.5771
32604SOL    HW2 3905   8.988  10.875   3.657 -0.0990  1.6732 -0.8648
32605SOL     OW 3906   1.389   1.723   0.127  0.3279 -0.2168 -0.3351
32605SOL    HW1 3907   1.327   1.764   0.067  1.0349  0.6710 -0.4694
32605SOL    HW2 3908   1.356   1.746   0.214  1.1566  1.3640 -0.4015
32606SOL     OW 3909   7.345   1.488   9.554  0.1492  0.3168  0.5135
32606SOL    HW1 3910   7.414   1.552   9.574 -0.9174  1.3671  0.9296
32606SOL    HW2 3911   7.310   1.463   9.639 -1.1996  1.1891  0.2458
32607SOL     OW 3912   9.972   0.323   6.395 -0.1831 -0.0518 -0.1070
32607SOL    HW1 3913  10.005   0.254   6.338  0.2480 -2.8567  3.1855
32607SOL    HW2 3914   9.918   0.276   6.459 -0.6542  2.8267  1.7619
32608SOL     OW 3915   8.168   9.454   6.554  0.5065  0.1298  0.1171
32608SOL    HW1 3916   8.213   9.398   6.491 -1.9551  0.0881 -1.7604
32608SOL    HW2 3917   8.109   9.396   6.602 -0.5242  0.7371 -0.3695
32609SOL     OW 3918   4.703   6.119   8.415  0.7266  0.2202  0.2413
32609SOL    HW1 3919   4.630   6.093   8.358 -1.6244 -0.0377  3.0867
32609SOL    HW2 3920   4.742   6.036   8.442  0.5617  0.2303  0.5130
32610SOL     OW 3921   4.376   8.132   1.176 -0.0134 -0.0220 -0.5854
32610SOL    HW1 3922   4.455   8.116   1.228  0.6631 -0.4632 -1.7051
32610SOL    HW2 3923   4.392   8.216   1.134 -0.0649 -0.1834 -0.9316
32611SOL     OW 3924   2.676   7.017   0.094  0.1317  0.3149 -0.4900
32611SOL    HW1 3925   2.631   6.951   0.147 -0.1936 -0.0920 -1.2528
32611SOL    HW2 3926   2.632   7.099   0.114  0.1298  0.1944  0.0039
32612SOL     OW 3927   8.733   9.513   2.393 -0.2603  0.4953  0.0885
32612SOL    HW1 3928   8.706   9.555   2.312  1.7594  1.2503 -0.2454
32612SOL    HW2 3929   8.818   9.473   2.373  0.0211  0.2128  1.6805
32613SOL     OW 3930   5.664   0.220   1.676 -0.0896  0.2640  0.2198
32613SOL    HW1 3931   5.692   0.130   1.691 -1.9374 -0.3143  0.5092
32613SOL    HW2 3932   5.681   0.265   1.758  1.7205  0.4762 -0.2199
32614SOL     OW 3933   4.026   8.557   1.150 -0.1873  0.5625  0.7706
32614SOL    HW1 3934   3.931   8.570   1.144 -0.2862  0.2272  1.4854
32614SOL    HW2 3935   4.062   8.614   1.083 -0.8664  1.0932  0.8382
32615SOL     OW 3936   1.361   7.682   5.995  0.0765 -0.1493 -0.3247
32615SOL    HW1 3937   1.416   7.725   6.061 -0.5339  0.8898 -0.4702
32615SOL    HW2 3938   1.400   7.707   5.911 -0.9206  1.0889 -0.4546
32616SOL     OW 3939   1.265   1.523   5.847 -0.3570  0.3428 -0.1805
32616SOL    HW1 3940   1.282   1.615   5.826 -0.3091  0.6664  1.1691
32616SOL    HW2 3941   1.180   1.524   5.890  0.0706 -0.0915  0.7026
32617SOL     OW 3942   9.272   6.115   6.237 -0.0950  0.0780  0.1856
32617SOL    HW1 3943   9.244   6.067   6.159  0.4930  0.4613 -0.2751
32617SOL    HW2 3944   9.191   6.148   6.276 -0.5143 -1.2622  0.5140
32618SOL     OW 3945   7.212   8.032   9.695 -0.4826  0.0003 -0.1847
32618SOL    HW1 3946   7.296   7.997   9.666 -0.4678  2.0759 -2.9978
32618SOL    HW2 3947   7.233   8.085   9.772  0.4042 -1.0727  0.3512
32619SOL     OW 3948   8.724   8.829   2.486 -0.3187 -0.1174  0.1160
32619SOL    HW1 3949   8.705   8.890   2.415  1.2578  0.0233 -0.2373
32619SOL    HW2 3950   8.762   8.884   2.555 -0.1496 -0.5049  0.3379
32620SOL     OW 3951   2.354   9.144   0.005  0.8266  0.3661 -0.4989
32620SOL    HW1 3952   2.327   9.064   0.050 -0.5283 -0.1668 -2.1273
32620SOL    HW2 3953   2.394   9.198   0.073  1.0177 -1.3415  0.8165
32621SOL     OW 3954   3.540   1.166   1.068  0.0524 -0.2870  0.0174
32621SOL    HW1 3955   3.500   1.137   1.150  1.1653 -0.0509  0.6641
32621SOL    HW2 3956   3.625   1.124   1.067  0.8833  1.3146  0.0050
32622SOL     OW 3957   4.120   1.284  10.693 -0.1796 -0.2772  0.2733
32622SOL    HW1 3958   4.160   1.367  10.667 -2.3211  1.3392  1.8716
32622SOL    HW2 3959   4.158   1.220  10.633  2.4448  1.6160 -0.2444
32623SOL     OW 3960   0.519   8.991   8.749 -0.2359 -0.1990 -0.1487
32623SOL    HW1 3961   0.553   9.079   8.733 -0.0918 -0.2739 -0.2572
32623SOL    HW2 3962   0.567   8.960   8.826 -0.9380  0.1684  0.4593
32624SOL     OW 3963   4.480   3.688   5.218 -0.2790  0.1626 -0.4601
32624SOL    HW1 3964   4.450   3.632   5.147 -0.7677  0.7237 -0.7045
32624SOL    HW2 3965   4.539   3.751   5.176 -2.3945  2.0204 -0.8556
32625SOL     OW 3966  10.006   1.849   0.261  0.5820 -0.2044 -0.3318
32625SOL    HW1 3967  10.073   1.913   0.237 -1.0449  1.3911 -0.7714
32625SOL    HW2 3968   9.923   1.889   0.236 -0.6100 -1.9218  0.6239
32626SOL     OW 3969   0.727   1.368   2.800  0.0895 -0.3339  0.0770
32626SOL    HW1 3970   0.792   1.313   2.845  1.3763  0.6966 -0.4473
32626SOL    HW2 3971   0.761   1.377   2.710 -1.5920 -1.0267 -0.6675
32627SOL     OW 3972   9.506   2.618   9.817 -0.3589  0.1620 -0.4597
32627SOL    HW1 3973   9.569   2.597   9.886 -0.5962  0.0188 -0.2834
32627SOL    HW2 3974   9.444   2.678   9.859 -0.9689 -0.5521 -0.3016
32628SOL     OW 3975   6.372   9.603   9.653 -0.0196  0.3538 -0.1107
32628SOL    HW1 3976   6.281   9.625   9.636 -0.1179 -0.8024 -1.2382
32628SOL    HW2 3977   6.383   9.514   9.618  1.8373  0.9339 -1.1971
32629SOL     OW 3978   7.665   3.021  10.465 -0.3439 -0.1253 -0.0702
32629SOL    HW1 3979   7.642   3.095  10.408  2.2263  0.5866 -0.3116
32629SOL    HW2 3980   7.661   3.057  10.554  2.6043  0.9583 -0.2633
32630SOL     OW 3981  10.738   2.649   5.459  0.2226 -0.2634  0.0526
32630SOL    HW1 3982  10.645   2.632   5.475  0.3376  0.8046  2.2353
32630SOL    HW2 3983  10.746   2.744   5.469  1.3330 -0.1404 -1.5966
32631SOL     OW 3984  10.407   9.812   2.240 -0.3452 -0.3943  0.2956
32631SOL    HW1 3985  10.350   9.736   2.228 -0.5535  0.1621 -3.5897
32631SOL    HW2 3986  10.495   9.778   2.223 -0.3712  0.0660 -0.8268
32632SOL     OW 3987   1.579   6.130  10.517  0.0895  0.5276 -0.5463
32632SOL    HW1 3988   1.591   6.064  10.449 -0.2413  0.1337 -0.2290
32632SOL    HW2 3989   1.507   6.185  10.485 -0.3959  0.0470 -0.2966
32633SOL     OW 3990   2.846   0.865   9.304  0.0779  0.0324  0.0186
32633SOL    HW1 3991   2.799   0.793   9.262  1.4636 -0.9512  0.0963
32633SOL    HW2 3992   2.891   0.824   9.378  1.3154  0.8615 -0.2450
32634SOL     OW 3993   5.865   5.138   7.213  0.4210  0.1803  0.4875
32634SOL    HW1 3994   5.863   5.045   7.193  0.2335  0.2661  0.0905
32634SOL    HW2 3995   5.958   5.159   7.226  0.5680  0.1620 -0.5041
32635SOL     OW 3996   4.063   5.545  10.025  0.7272 -0.4691  0.0923
32635SOL    HW1 3997   4.101   5.460  10.048  2.9768 -0.0116 -1.5050
32635SOL    HW2 3998   4.136   5.607  10.033 -1.0988  1.6082  2.2987
32636SOL     OW 3999  10.755  10.417   6.190 -0.1448 -0.7822  0.6606
32636SOL    HW1 4000  10.836  10.467   6.197 -0.0763 -0.7405 -0.2540
32636SOL    HW2 4001  10.756  10.358   6.265 -0.3048  0.6822  1.8526
32637SOL     OW 4002   7.091   6.864   8.429 -0.2542 -0.1247 -0.3219
32637SOL    HW1 4003   7.007   6.826   8.455  0.3662 -0.2715  1.5773
32637SOL    HW2 4004   7.156   6.798   8.451  0.6143  1.0606  0.8625
32638SOL     OW 4005   7.593   8.389   4.705  0.7634 -0.2714  0.2882
32638SOL    HW1 4006   7.576   8.472   4.659  1.4616  0.3149  1.0598
32638SOL    HW2 4007   7.688   8.377   4.699  0.8018 -0.4276  1.1682
32639SOL     OW 4008   5.185   0.099   2.881  0.5839  0.3941  0.3529
32639SOL    HW1 4009   5.146   0.046   2.812 -0.4249  0.7338  0.6487
32639SOL    HW2 4010   5.149   0.187   2.867  0.9305  0.6219  0.8782
32640SOL     OW 4011  10.561   5.681   8.494  0.5777  0.3407  0.3905
32640SOL    HW1 4012  10.474   5.721   8.489  1.0917  1.5328  0.7288
32640SOL    HW2 4013  10.546   5.599   8.541 -0.7760 -0.7902 -1.8644
32641SOL     OW 4014   1.502   6.220   0.069  0.6617 -0.1903 -0.0508
32641SOL    HW1 4015   1.541   6.158   0.007  0.2618 -0.6816  0.1862
32641SOL    HW2 4016   1.411   6.230   0.040  0.5039 -0.3327  0.3811
32642SOL     OW 4017   6.618   7.622   2.134  0.3307 -0.5353 -0.2074
32642SOL    HW1 4018   6.602   7.690   2.199 -0.8190  0.0454 -1.0490
32642SOL    HW2 4019   6.534   7.578   2.124  0.6424 -1.0114 -0.8555
32643SOL     OW 4020   8.594   6.447   1.377  0.3951 -0.3242  0.3555
32643SOL    HW1 4021   8.528   6.427   1.310  1.6574  1.3984 -1.5126
32643SOL    HW2 4022   8.636   6.363   1.394 -0.0836 -0.8575 -0.9189
32644SOL     OW 4023   3.186   5.472   2.686  0.1509 -0.0214  0.0799
32644SOL    HW1 4024   3.242   5.541   2.721  0.0107 -0.0539  0.3692
32644SOL    HW2 4025   3.135   5.515   2.617  0.4607  0.0308 -0.1215
32645SOL     OW 4026   2.372   3.308   4.693  0.1445  0.1819  0.6556
32645SOL    HW1 4027   2.418   3.390   4.707 -0.2634  0.4085  0.6851
32645SOL    HW2 4028   2.326   3.319   4.610  2.5004 -1.1431 -0.9184
32646SOL     OW 4029   0.931   2.092   8.921  0.0307 -0.1088 -0.2670
32646SOL    HW1 4030   0.967   2.127   8.839  1.5594  1.7009  1.0773
32646SOL    HW2 4031   1.006   2.052   8.965 -0.9546 -1.8568 -0.0984
32647SOL     OW 4032   0.295   2.773   8.291 -0.2476  0.2542  0.1301
32647SOL    HW1 4033   0.381   2.808   8.311 -1.0136  1.5187  1.3923
32647SOL    HW2 4034   0.279   2.797   8.200  0.9492 -0.5101 -0.2976
32648SOL     OW 4035   7.884   1.417   2.344  0.6490  0.1431 -0.1124
32648SOL    HW1 4036   7.942   1.435   2.269  1.2235  0.1015  0.3112
32648SOL    HW2 4037   7.868   1.323   2.339  3.3229 -0.5286  1.6082
32649SOL     OW 4038   9.260   3.341   5.834 -0.2155 -0.1110 -0.5463
32649SOL    HW1 4039   9.175   3.348   5.878  0.0828  1.5485 -0.1470
32649SOL    HW2 4040   9.308   3.275   5.884 -1.0943 -0.7039 -0.4756
32650SOL     OW 4041   6.005   6.002   8.933  0.2532  1.0256  0.0730
32650SOL    HW1 4042   5.962   6.071   8.984  0.3946  0.5439  0.8665
32650SOL    HW2 4043   6.097   6.005   8.961 -0.4427 -2.3788  3.6275
32651SOL     OW 4044   7.864   8.517   3.480 -0.3378  0.0514  0.1010
32651SOL    HW1 4045   7.860   8.537   3.387  0.4554 -0.9476 -0.1646
32651SOL    HW2 4046   7.861   8.422   3.485  0.6187  0.0434  1.0297
32652SOL     OW 4047   4.859   1.511   8.490  0.4843 -0.0678 -0.0461
32652SOL    HW1 4048   4.773   1.532   8.452 -0.0651 -0.4882  0.9379
32652SOL    HW2 4049   4.915   1.495   8.414 -0.4080 -0.1515 -0.7042
32653SOL     OW 4050   3.575   9.435   0.737  0.1671  0.1499 -0.6827
32653SOL    HW1 4051   3.633   9.363   0.710  1.9220  0.7030  1.3454
32653SOL    HW2 4052   3.523   9.398   0.808 -0.6472  0.2289 -1.2221
32654SOL     OW 4053   2.643   4.289   5.461 -0.0852  0.5823 -0.0862
32654SOL    HW1 4054   2.580   4.282   5.390 -0.1277 -0.0434  0.0082
32654SOL    HW2 4055   2.664   4.382   5.466 -0.3218  0.6686 -0.7065
32655SOL     OW 4056   9.225   3.562   8.685  0.0798  0.0078 -0.1202
32655SOL    HW1 4057   9.188   3.645   8.716 -1.5166 -0.4194 -0.7592
32655SOL    HW2 4058   9.227   3.572   8.590 -0.4834 -0.8264 -0.2233
32656SOL     OW 4059   7.650   9.784   5.015 -0.3683 -0.1757 -0.2269
32656SOL    HW1 4060   7.657   9.804   4.921 -0.5091  0.5295 -0.0906
32656SOL    HW2 4061   7.559   9.803   5.036 -0.6576 -1.5178 -0.2102
32657SOL     OW 4062   9.025   3.594   8.066 -0.1292 -0.2227 -0.7610
32657SOL    HW1 4063   9.109   3.631   8.040 -0.5017  1.4005  0.1824
32657SOL    HW2 4064   9.037   3.569   8.157 -0.5573 -0.3312 -0.7306
32658SOL     OW 4065   9.973   1.356   4.547 -0.8797  0.0765 -0.1967
32658SOL    HW1 4066   9.941   1.284   4.602  1.2806  0.5845  1.9026
32658SOL    HW2 4067  10.002   1.314   4.466 -1.7742 -1.0785  0.0611
32659SOL     OW 4068   8.534   5.053   4.617 -0.1339  0.6299 -0.2715
32659SOL    HW1 4069   8.472   5.111   4.661  0.1596  1.8197 -1.3605
32659SOL    HW2 4070   8.487   4.971   4.605 -0.3273  0.3574  1.9306
32660SOL     OW 4071   0.954   5.183   6.853 -0.1365 -0.1019  0.3103
32660SOL    HW1 4072   1.012   5.258   6.845  0.4822 -0.6013  0.0749
32660SOL    HW2 4073   0.980   5.125   6.781  0.0469 -0.9828  1.0774
32661SOL     OW 4074   1.770   8.263   3.165  0.3603 -0.1844  0.0724
32661SOL    HW1 4075   1.742   8.315   3.090  0.9207 -1.4782 -1.0942
32661SOL    HW2 4076   1.797   8.327   3.231 -0.8530  0.9985 -0.5419
32662SOL     OW 4077   4.621   7.260   6.293 -0.2554  0.6749  0.1424
32662SOL    HW1 4078   4.551   7.208   6.253 -0.4914  0.5763  0.6744
32662SOL    HW2 4079   4.601   7.259   6.386  1.1322 -0.3641  0.4606
32663SOL     OW 4080   9.655  10.401   1.073  0.0813 -0.5790 -0.4399
32663SOL    HW1 4081   9.721  10.360   1.018 -0.1762 -2.2178  0.4037
32663SOL    HW2 4082   9.635  10.336   1.140 -1.9303  0.0950 -0.2939
32664SOL     OW 4083   5.427   3.053   2.981  0.2691  0.2761 -0.1033
32664SOL    HW1 4084   5.399   2.961   2.978  0.5417  0.2231 -1.4084
32664SOL    HW2 4085   5.509   3.051   3.030 -0.6661  0.0940  1.5176
32665SOL     OW 4086   0.347   8.813   9.799  0.3939 -0.1544  0.1529
32665SOL    HW1 4087   0.309   8.801   9.712  1.0702  1.2748 -0.3672
32665SOL    HW2 4088   0.336   8.728   9.842 -1.1284 -0.4952 -0.8458
32666SOL     OW 4089   6.690   9.056   5.586  0.7318 -0.0470  0.1247
32666SOL    HW1 4090   6.665   9.106   5.663  0.0986  0.9668 -0.7097
32666SOL    HW2 4091   6.770   9.099   5.554 -1.1564  2.1777 -2.0393
32667SOL     OW 4092   7.581   0.428   3.414  0.1098  0.0867  0.0751
32667SOL    HW1 4093   7.589   0.375   3.493  6.4068  0.9622  0.5646
32667SOL    HW2 4094   7.531   0.505   3.440  0.1673 -0.6483  2.5518
32668SOL     OW 4095   1.175   9.835   8.162  0.0210  0.1978 -0.6708
32668SOL    HW1 4096   1.173   9.824   8.257  1.5276  0.8043 -0.5348
32668SOL    HW2 4097   1.103   9.895   8.143 -0.0886  0.3248  0.1228
32669SOL     OW 4098   6.387   3.710   2.811 -0.4938  0.4185  0.1479
32669SOL    HW1 4099   6.358   3.629   2.768 -1.7691  0.7083  0.4151
32669SOL    HW2 4100   6.471   3.687   2.850 -0.2377 -0.4188 -0.8268
32670SOL     OW 4101   0.182   3.952   0.198 -0.0334  0.0174 -0.7313
32670SOL    HW1 4102   0.129   3.872   0.207  0.5667 -0.2979  0.1176
32670SOL    HW2 4103   0.269   3.920   0.172  0.0639  0.4408 -0.9323
32671SOL     OW 4104   3.345  10.607   4.729  0.2636 -0.0168  0.1528
32671SOL    HW1 4105   3.333  10.523   4.686  0.3963 -0.6020  1.2292
32671SOL    HW2 4106   3.432  10.637   4.701 -1.0580  1.4301 -2.9475
32672SOL     OW 4107   3.701   7.540   6.972  0.1314 -0.0426 -0.1866
32672SOL    HW1 4108   3.675   7.596   6.899 -1.2665 -0.9541 -0.4243
32672SOL    HW2 4109   3.785   7.576   7.002 -0.7422  2.2017 -0.2686
32673SOL     OW 4110   0.957   6.612   9.000 -0.6711 -0.3248  0.5702
32673SOL    HW1 4111   0.874   6.630   9.045 -1.1585  1.2968 -0.8373
32673SOL    HW2 4112   1.019   6.674   9.040 -0.6657 -0.1159  0.2428
32674SOL     OW 4113  10.912   8.442   9.730 -0.0266 -0.7212  0.4111
32674SOL    HW1 4114  10.856   8.365   9.741 -1.1791 -0.1445 -1.0157
32674SOL    HW2 4115  10.852   8.516   9.740  0.9249 -0.0240  1.0728
32675SOL     OW 4116   6.909   1.149   8.573  0.1652  0.3910  0.2165
32675SOL    HW1 4117   6.939   1.204   8.646 -2.1385  1.2055  0.6276
32675SOL    HW2 4118   6.847   1.204   8.525  0.2683 -0.7600 -1.3140
32676SOL     OW 4119   1.419   8.930   0.646  0.2263 -0.3782 -0.1705
32676SOL    HW1 4120   1.387   8.841   0.663  1.0182 -0.7721 -0.6750
32676SOL    HW2 4121   1.504   8.935   0.689 -0.4655  0.6583  1.1417
32677SOL     OW 4122   0.837   9.166   2.211  0.2212 -0.0234 -0.0376
32677SOL    HW1 4123   0.864   9.075   2.199 -0.8117 -0.2418 -0.8839
32677SOL    HW2 4124   0.864   9.188   2.300 -1.6973 -1.9715  1.1277
32678SOL     OW 4125  10.548   0.755   0.126 -0.4503  0.6149 -0.4274
32678SOL    HW1 4126  10.458   0.774   0.150 -0.5492  0.3747 -0.5953
32678SOL    HW2 4127  10.541   0.689   0.057 -0.2738  2.6818 -2.5647
32679SOL     OW 4128   1.842   7.848   7.241 -0.1349  0.3512  0.3638
32679SOL    HW1 4129   1.898   7.911   7.288 -0.8376 -0.0815  1.8390
32679SOL    HW2 4130   1.804   7.899   7.170  1.1564  0.9716  0.0812
32680SOL     OW 4131   9.483   6.694   6.389 -0.2693 -0.2666  0.0163
32680SOL    HW1 4132   9.489   6.775   6.440 -0.6793 -0.4036  0.2863
32680SOL    HW2 4133   9.539   6.710   6.313 -0.2794  0.2398  0.1085
32681SOL     OW 4134   7.201   5.042   7.102  0.0663 -0.2296 -0.0372
32681SOL    HW1 4135   7.178   5.005   7.188 -0.4684  0.6382  0.2050
32681SOL    HW2 4136   7.138   5.003   7.042  0.7721 -1.2474 -0.1391
32682SOL     OW 4137   6.415   4.170   3.542  0.9589 -0.1854  0.0643
32682SOL    HW1 4138   6.322   4.148   3.538  1.5029 -2.8018 -0.2583
32682SOL    HW2 4139   6.420   4.242   3.605 -1.3345  0.6124 -0.5528
32683SOL     OW 4140   7.578   9.631   0.676  0.3021 -0.6011  0.2353
32683SOL    HW1 4141   7.516   9.585   0.619  0.3465 -0.1311 -0.2009
32683SOL    HW2 4142   7.586   9.575   0.753 -0.2808 -0.9157  0.0744
32684SOL     OW 4143   6.737   2.965  10.193 -0.6904  0.3392  0.1479
32684SOL    HW1 4144   6.674   2.896  10.172 -0.4758  0.2994 -0.3914
32684SOL    HW2 4145   6.706   3.041  10.144 -1.1956  0.7753  1.1175
32685SOL     OW 4146   7.550   3.579   2.033 -0.0096  0.1183  0.1388
32685SOL    HW1 4147   7.618   3.512   2.035  1.8642  1.8078 -2.0459
32685SOL    HW2 4148   7.593   3.658   2.065 -0.8400  1.2801 -1.4908
32686SOL     OW 4149   4.500   7.433   4.491  0.3927  0.2376  0.0309
32686SOL    HW1 4150   4.539   7.450   4.406 -1.2205  1.9250 -0.4268
32686SOL    HW2 4151   4.516   7.339   4.507  0.2182 -0.2595 -2.3727
32687SOL     OW 4152   1.812   8.751   9.686 -0.0128 -0.4274  0.1049
32687SOL    HW1 4153   1.769   8.836   9.697  0.3885 -0.2177  0.0816
32687SOL    HW2 4154   1.896   8.761   9.732 -0.4580 -1.1960  1.0942
32688SOL     OW 4155   0.568  10.718   6.932  0.3246  0.4715 -0.1755
32688SOL    HW1 4156   0.651  10.744   6.893  0.6466 -0.8103 -0.3833
32688SOL    HW2 4157   0.591  10.687   7.019  0.2002 -0.6417 -0.5177
32689SOL     OW 4158   6.379   8.631   0.205 -0.1523  0.3800  0.3100
32689SOL    HW1 4159   6.418   8.664   0.286  0.0095 -0.4539  0.5835
32689SOL    HW2 4160   6.415   8.687   0.136  0.6313  0.3536  0.6887
32690SOL     OW 4161   3.366  10.125   0.080 -0.7129  0.0713 -0.0305
32690SOL    HW1 4162   3.359  10.030   0.094 -0.0835  0.1863  1.1774
32690SOL    HW2 4163   3.412  10.157   0.157 -1.4935  1.4629 -0.1173
32691SOL     OW 4164   6.753   0.922   3.120 -0.2786 -0.1917  0.7483
32691SOL    HW1 4165   6.673   0.971   3.138 -0.0286  1.6076 -2.3742
32691SOL    HW2 4166   6.814   0.948   3.190 -2.1960 -1.2756  2.9292
32692SOL     OW 4167   0.310   0.042   4.482 -0.3849 -0.0444  0.3929
32692SOL    HW1 4168   0.324  -0.012   4.404  1.7580  0.4209  0.3958
32692SOL    HW2 4169   0.301   0.131   4.448  0.2026  0.1150  0.6624
32693SOL     OW 4170   6.924   6.359   2.858  0.0554 -0.3015  0.6007
32693SOL    HW1 4171   6.899   6.276   2.817 -0.3947 -0.8702  1.9485
32693SOL    HW2 4172   6.879   6.425   2.806  0.0637 -0.9290 -0.2344
32694SOL     OW 4173   6.413   2.303   2.113  0.1804  0.4300  0.2816
32694SOL    HW1 4174   6.350   2.352   2.060  1.0476  2.2077  0.8176
32694SOL    HW2 4175   6.452   2.240   2.052 -0.8505  0.4903 -0.4659
32695SOL     OW 4176   5.480   4.635   5.299  0.1240 -0.4621 -0.2106
32695SOL    HW1 4177   5.544   4.596   5.359  0.8920  2.2873  0.9028
32695SOL    HW2 4178   5.530   4.651   5.219  0.3785  0.0575  0.0440
32696SOL     OW 4179   4.900   6.882   6.200  0.2005 -1.1329 -0.0989
32696SOL    HW1 4180   4.958   6.837   6.139  0.5932  0.2003 -0.7584
32696SOL    HW2 4181   4.954   6.951   6.238 -1.2819  1.2732 -2.0148
32697SOL     OW 4182   5.888   0.157   4.623  0.5202 -0.4266 -0.1629
32697SOL    HW1 4183   5.843   0.241   4.631  3.1491  0.9888  1.6297
32697SOL    HW2 4184   5.939   0.165   4.542  2.1590  0.5801  0.8897
32698SOL     OW 4185   3.433   2.252   7.425 -0.0707 -0.1689 -0.3100
32698SOL    HW1 4186   3.405   2.283   7.339  0.6046  0.0965 -0.4428
32698SOL    HW2 4187   3.354   2.251   7.478 -0.0963  1.9827 -0.2351
32699SOL     OW 4188   2.553   3.069   9.708 -0.0156  0.3330 -0.0125
32699SOL    HW1 4189   2.588   3.134   9.647  1.5869  0.8029  1.3303
32699SOL    HW2 4190   2.473   3.109   9.744  0.0062  0.8019 -0.4871
32700SOL     OW 4191   5.107   3.190   9.457  0.5999 -0.4318 -0.2401
32700SOL    HW1 4192   5.097   3.260   9.393 -0.6076  1.2524  1.6632
32700SOL    HW2 4193   5.018   3.155   9.468  0.5533  0.0818  1.2743
32701SOL     OW 4194  10.849   8.277   3.065 -0.1836 -0.1309  0.0094
32701SOL    HW1 4195  10.794   8.339   3.113  0.5912  0.4782  0.1299
32701SOL    HW2 4196  10.788   8.225   3.013 -1.0368 -0.7404  1.5619
32702SOL     OW 4197   2.660   9.761   0.593  0.0052 -0.1619 -0.0815
32702SOL    HW1 4198   2.640   9.853   0.575  0.5212  0.0090  0.2176
32702SOL    HW2 4199   2.755   9.757   0.600  0.1377 -0.9988 -1.6927
32703SOL     OW 4200   2.191  10.446   3.319  0.2212 -0.0408 -0.0038
32703SOL    HW1 4201   2.259  10.475   3.259 -0.8233  0.6214 -0.9199
32703SOL    HW2 4202   2.127  10.403   3.263 -1.0937  1.1618  0.5057
32704SOL     OW 4203   4.537   0.305   1.505  0.9304 -0.7911  0.1996
32704SOL    HW1 4204   4.621   0.276   1.471  1.3979  1.3437 -0.6517
32704SOL    HW2 4205   4.559   0.350   1.587  0.3907 -1.6355  0.8298
32705SOL     OW 4206   1.817   5.248  10.882  0.0610 -0.4190  0.2524
32705SOL    HW1 4207   1.805   5.236  10.976  0.1316  0.0503  0.3245
32705SOL    HW2 4208   1.908   5.222  10.866 -0.3283 -1.7493  0.0913
32706SOL     OW 4209   7.643   0.742   3.815  0.8584  0.0110  1.0036
32706SOL    HW1 4210   7.609   0.757   3.903  0.1128  0.6056  0.6294
32706SOL    HW2 4211   7.604   0.812   3.762 -0.8646 -1.8169 -0.3336
32707SOL     OW 4212   9.792   0.526  10.638 -0.5267  0.2405  0.0081
32707SOL    HW1 4213   9.840   0.589  10.692 -1.8951  0.9772  0.4163
32707SOL    HW2 4214   9.803   0.443  10.683  0.4498  0.3625  0.0204
32708SOL     OW 4215   7.882  10.909   0.116  0.4599  0.1338 -0.1400
32708SOL    HW1 4216   7.827  10.895   0.194 -0.4036  0.7188 -0.6249
32708SOL    HW2 4217   7.880  11.004   0.103  1.7817  0.1848 -0.0475
32709SOL     OW 4218   4.699   3.408   5.037 -0.0340 -0.4579  0.1964
32709SOL    HW1 4219   4.647   3.333   5.010  0.4180 -0.3627 -0.9756
32709SOL    HW2 4220   4.773   3.410   4.976 -0.0307  0.9257  0.2034
32710SOL     OW 4221   2.692   7.962   1.562 -0.1366  0.5969 -0.1834
32710SOL    HW1 4222   2.725   7.882   1.521 -2.1102 -0.6790  0.5589
32710SOL    HW2 4223   2.768   8.019   1.569  1.1473 -0.8561 -1.5553
32711SOL     OW 4224   2.803   2.862   0.111 -0.2658  0.6037  0.5260
32711SOL    HW1 4225   2.890   2.823   0.121 -0.5968  0.3211  2.9057
32711SOL    HW2 4226   2.744   2.788   0.101 -0.4118  0.7069  0.6202
32712SOL     OW 4227   1.545   1.509   9.239  0.1556 -0.1157  0.2982
32712SOL    HW1 4228   1.592   1.426   9.229  0.0165 -0.2807  0.9902
32712SOL    HW2 4229   1.498   1.500   9.321 -0.2436  0.4678  0.1380
32713SOL     OW 4230   9.726   8.013  10.716 -0.0461  0.2724 -0.4057
32713SOL    HW1 4231   9.712   7.969  10.632  1.1749 -1.4164  0.2168
32713SOL    HW2 4232   9.820   8.034  10.716 -0.7278  4.1816 -1.2095
32714SOL     OW 4233   8.139   5.110   7.190  0.2335 -0.4878 -0.0583
32714SOL    HW1 4234   8.120   5.165   7.266  0.3553  0.9115 -0.9853
32714SOL    HW2 4235   8.231   5.086   7.200  0.1504 -0.6138  0.4135
32715SOL     OW 4236   1.312   7.519   1.771  0.3732 -0.3162  0.2593
32715SOL    HW1 4237   1.289   7.583   1.839 -0.5823  0.0868 -0.4154
32715SOL    HW2 4238   1.248   7.535   1.701  0.6973 -1.4053 -0.3055
32716SOL     OW 4239   8.356   9.394   2.042 -0.3707  0.2542 -0.4167
32716SOL    HW1 4240   8.273   9.352   2.062 -0.0980  0.2645  0.8681
32716SOL    HW2 4241   8.386   9.429   2.126  0.7130  0.6416 -0.9371
32717SOL     OW 4242   6.456  10.654   3.360  0.2682 -0.2262 -0.3780
32717SOL    HW1 4243   6.437  10.747   3.349  0.4784  0.2060  2.3460
32717SOL    HW2 4244   6.549  10.650   3.379  0.1814 -0.9705 -0.0707
32718SOL     OW 4245   9.622   6.182   3.917  0.2888  0.1459  0.7937
32718SOL    HW1 4246   9.701   6.193   3.865 -0.4535  1.1539 -0.1696
32718SOL    HW2 4247   9.550   6.197   3.856 -0.6490 -0.1458  1.7795
32719SOL     OW 4248   6.764   0.750   5.067  0.6006 -0.1764  0.8839
32719SOL    HW1 4249   6.701   0.808   5.024  1.2212 -0.1609 -0.0253
32719SOL    HW2 4250   6.838   0.746   5.007  0.4580 -2.1468  0.7841
32720SOL     OW 4251   7.207   9.201   1.414 -0.6059  0.5972 -0.4478
32720SOL    HW1 4252   7.239   9.113   1.392 -1.7653 -0.1375  0.6765
32720SOL    HW2 4253   7.276   9.238   1.468 -0.2348  0.2739 -0.6892
32721SOL     OW 4254   9.999   0.532   2.019  0.2882  0.3297 -0.5942
32721SOL    HW1 4255  10.006   0.596   1.948 -0.0311 -0.5038 -1.3867
32721SOL    HW2 4256  10.036   0.578   2.095 -1.0942  1.9107 -0.8220
32722SOL     OW 4257   5.873   3.446   5.913  0.2231  0.1926 -0.3279
32722SOL    HW1 4258   5.844   3.358   5.937 -1.8873  0.3900 -1.8488
32722SOL    HW2 4259   5.913   3.480   5.993  1.1294 -2.1210  0.2837
32723SOL     OW 4260   4.687   8.584  10.575  0.3255 -0.1544 -0.4538
32723SOL    HW1 4261   4.781   8.565  10.566  0.2864  0.2160 -1.8887
32723SOL    HW2 4262   4.651   8.570  10.487 -0.6740  1.2209 -0.2894
32724SOL     OW 4263   9.671  10.585   2.662  0.3809 -1.2980  0.0408
32724SOL    HW1 4264   9.757  10.611   2.628 -1.1585  0.6611 -2.7380
32724SOL    HW2 4265   9.652  10.502   2.618  0.2212 -0.9518 -0.5524
32725SOL     OW 4266   6.057   3.376   2.042  0.7436 -0.3338  0.5206
32725SOL    HW1 4267   6.109   3.432   1.985  2.1839 -1.2561  0.8629
32725SOL    HW2 4268   6.047   3.426   2.123 -0.0733  0.3905 -0.0145
32726SOL     OW 4269   6.029   3.740   0.849 -0.4796 -0.8792 -0.1854
32726SOL    HW1 4270   6.083   3.807   0.892  0.6168 -1.4985 -0.5490
32726SOL    HW2 4271   5.964   3.716   0.915  0.6658 -1.2307  0.8643
32727SOL     OW 4272   9.652   5.628   5.631 -0.2273  0.7475 -0.0670
32727SOL    HW1 4273   9.668   5.577   5.711 -1.3795  1.0821  0.3910
32727SOL    HW2 4274   9.580   5.687   5.654 -0.2863  1.1501 -1.2270
32728SOL     OW 4275   5.670   1.888   5.134 -0.6249  0.5832  0.5821
32728SOL    HW1 4276   5.634   1.961   5.083  0.5941  1.2513  0.6271
32728SOL    HW2 4277   5.706   1.829   5.068 -1.6620 -0.0152  0.5433
32729SOL     OW 4278   5.079   2.698   7.562 -0.3750  0.3413  0.0314
32729SOL    HW1 4279   5.033   2.782   7.569  1.4082  1.4271 -0.8117
32729SOL    HW2 4280   5.024   2.646   7.503 -0.8002  1.4182 -0.5553
32730SOL     OW 4281   3.658   0.713   6.036 -0.2596 -0.0804 -0.0047
32730SOL    HW1 4282   3.626   0.627   6.065 -1.0227  0.4177  0.6739
32730SOL    HW2 4283   3.590   0.774   6.064  0.8238  0.8899  0.5801
32731SOL     OW 4284  10.017   2.007   1.667  0.8882 -0.2604  0.5147
32731SOL    HW1 4285   9.974   2.015   1.752  0.7803 -1.4905  0.5929
32731SOL    HW2 4286   9.956   2.047   1.605 -0.1374 -1.4739  0.7028
32732SOL     OW 4287   4.047   9.362   6.682 -0.1443  0.5144  0.7183
32732SOL    HW1 4288   4.106   9.335   6.612 -0.2190 -0.7716  1.1263
32732SOL    HW2 4289   3.975   9.406   6.638  0.4692  0.9185  0.1059
32733SOL     OW 4290   3.897   0.832   6.063 -0.0577 -0.2022  0.7662
32733SOL    HW1 4291   3.887   0.926   6.082  1.3977 -0.1598  1.4749
32733SOL    HW2 4292   3.807   0.801   6.050 -0.5101  1.4725 -0.4892
32734SOL     OW 4293   7.133   0.655   7.145 -0.2005 -0.0436  0.0217
32734SOL    HW1 4294   7.162   0.609   7.224  0.8840  0.5922  0.0065
32734SOL    HW2 4295   7.132   0.588   7.077  0.2447 -0.2978  0.2606
32735SOL     OW 4296   8.674   2.019   6.983 -0.9123 -0.1830 -0.2783
32735SOL    HW1 4297   8.748   2.076   6.962 -1.4786  0.6408 -0.0902
32735SOL    HW2 4298   8.598   2.064   6.948 -1.5472 -0.1043  1.1179
32736SOL     OW 4299   8.457  10.574   7.968 -0.2596  0.0276  0.3967
32736SOL    HW1 4300   8.372  10.559   8.011 -0.1628  0.9599  0.9409
32736SOL    HW2 4301   8.467  10.669   7.967  0.6602 -0.0634  0.0937
32737SOL     OW 4302   6.684   1.536  10.572  0.5572  0.6675 -0.5836
32737SOL    HW1 4303   6.706   1.444  10.590  2.2385  1.3165  1.0283
32737SOL    HW2 4304   6.643   1.534  10.486 -0.1523 -1.6830 -0.2889
32738SOL     OW 4305   4.204   1.030   3.992 -0.5576 -0.0173  0.3811
32738SOL    HW1 4306   4.145   0.983   4.051 -0.8754 -0.1550 -0.0433
32738SOL    HW2 4307   4.276   1.059   4.048 -0.3572 -0.9959  0.6582
32739SOL     OW 4308   8.701   8.538   6.320 -0.2380  0.3051 -0.0455
32739SOL    HW1 4309   8.771   8.556   6.257 -0.0099  0.4621  0.2479
32739SOL    HW2 4310   8.710   8.444   6.338  0.2824  0.4402  0.4373
32740SOL     OW 4311   0.278   2.260   1.278 -0.0254  0.2227  0.2790
32740SOL    HW1 4312   0.293   2.315   1.355  0.7009  0.6883 -0.1811
32740SOL    HW2 4313   0.194   2.218   1.295  0.4394 -0.2144  1.6381
32741SOL     OW 4314  10.140   1.669  10.026 -0.2943  0.0152 -0.2197
32741SOL    HW1 4315  10.204   1.693  10.093  0.6921  1.9414 -1.7451
32741SOL    HW2 4316  10.075   1.739  10.029 -0.6843 -0.3185 -0.7022
32742SOL     OW 4317   9.829   9.266   9.385 -0.0353  0.7614 -0.7537
32742SOL    HW1 4318   9.771   9.269   9.310  0.7836  1.3049 -1.3832
32742SOL    HW2 4319   9.854   9.173   9.393 -0.9547  0.5276 -0.4803
32743SOL     OW 4320   1.787   1.821   8.818  0.2730 -0.2884  0.0503
32743SOL    HW1 4321   1.759   1.749   8.875 -1.2559 -2.0369 -2.6699
32743SOL    HW2 4322   1.709   1.874   8.804  0.7846  0.5003  0.0853
32744SOL     OW 4323   0.257   2.851   7.266 -0.0787  0.0409  0.2494
32744SOL    HW1 4324   0.289   2.913   7.200 -1.7361 -0.1652 -0.8150
32744SOL    HW2 4325   0.336   2.812   7.302  0.9185  0.8955 -0.9079
32745SOL     OW 4326   0.112   3.485  10.203  0.2876  0.7519 -0.3479
32745SOL    HW1 4327   0.175   3.441  10.260 -1.3289 -0.5350  0.5088
32745SOL    HW2 4328   0.135   3.456  10.115  0.4512 -0.2945  0.0212
32746SOL     OW 4329   7.503   2.610   1.084 -0.8263  0.3915  0.0732
32746SOL    HW1 4330   7.586   2.651   1.059 -0.0658  0.5384  2.5874
32746SOL    HW2 4331   7.444   2.683   1.100 -1.3580  0.2939 -1.2990
32747SOL     OW 4332   7.935   6.770   6.063  0.3494 -0.0345  0.1742
32747SOL    HW1 4333   7.903   6.797   6.149 -1.0391 -1.7151  0.2568
32747SOL    HW2 4334   7.878   6.815   6.000 -0.2839 -0.7127  0.2405
32748SOL     OW 4335   9.412   1.104   8.751 -0.3571  0.2098  0.3126
32748SOL    HW1 4336   9.373   1.109   8.838 -0.2251  0.4239  0.3594
32748SOL    HW2 4337   9.348   1.055   8.699 -0.1253 -0.5207  0.7019
32749SOL     OW 4338   3.381   7.182   8.021  0.4835  0.0486  0.4983
32749SOL    HW1 4339   3.332   7.181   7.938  0.2917  2.9075  0.4851
32749SOL    HW2 4340   3.406   7.091   8.035 -1.0289 -0.8039 -1.7785
32750SOL     OW 4341   8.859   6.795   6.719  0.2573 -0.0904  0.1192
32750SOL    HW1 4342   8.859   6.786   6.624 -0.9457 -0.1052  0.1075
32750SOL    HW2 4343   8.843   6.888   6.735 -0.8506 -0.2961  0.2978
32751SOL     OW 4344   4.328   7.075   4.441  0.4559  0.6540  0.0592
32751SOL    HW1 4345   4.411   7.047   4.402  0.7659  0.2762  0.9608
32751SOL    HW2 4346   4.334   7.046   4.532 -0.3597  1.2850  0.3178
32752SOL     OW 4347   0.129   9.596   6.177  1.0223  0.2759  0.1906
32752SOL    HW1 4348   0.034   9.601   6.189  1.0441  2.5133 -0.3268
32752SOL    HW2 4349   0.155   9.519   6.229 -1.2093 -1.2734 -0.8392
32753SOL     OW 4350   8.564   8.017   5.924 -0.0005  0.5762  0.0496
32753SOL    HW1 4351   8.650   8.034   5.886  0.7061 -0.6485  0.9834
32753SOL    HW2 4352   8.518   8.100   5.918  1.7994  1.7200  0.8610
32754SOL     OW 4353   1.525   3.148   6.866 -0.2698 -0.2052  0.4982
32754SOL    HW1 4354   1.577   3.227   6.856 -0.1413 -0.1145  1.7662
32754SOL    HW2 4355   1.587   3.076   6.855  0.1284 -0.0984  1.9119
32755SOL     OW 4356   7.488   5.866   9.639 -0.3582 -0.6273 -0.0298
32755SOL    HW1 4357   7.396   5.876   9.664  0.2683  1.6434  1.6481
32755SOL    HW2 4358   7.494   5.909   9.554 -0.6884  0.1418  0.3188
32756SOL     OW 4359   6.983   3.604   1.307  0.0220 -0.0510 -0.2430
32756SOL    HW1 4360   6.987   3.681   1.250 -0.2837 -0.4378 -0.7998
32756SOL    HW2 4361   6.966   3.531   1.247 -0.4980 -0.4387  0.3655
32757SOL     OW 4362   5.855   1.930   2.153 -0.1863  0.0148 -0.2182
32757SOL    HW1 4363   5.934   1.973   2.120 -0.4699  0.2932 -0.5408
32757SOL    HW2 4364   5.815   1.994   2.212 -0.5364  0.1481 -0.5929
32758SOL     OW 4365   2.732   4.830   9.023 -0.6473  0.0610  0.3412
32758SOL    HW1 4366   2.690   4.759   9.070 -0.9425 -0.0223 -0.0470
32758SOL    HW2 4367   2.686   4.835   8.939  1.5206 -1.5078 -1.0560
32759SOL     OW 4368   7.983   1.439   5.179  0.9359  0.0548 -0.6577
32759SOL    HW1 4369   7.903   1.426   5.130  0.3449  0.8189  0.0640
32759SOL    HW2 4370   7.985   1.368   5.243  0.8769 -0.0137 -0.7334
32760SOL     OW 4371   5.202   1.321   2.189 -0.4376 -0.8648  0.2044
32760SOL    HW1 4372   5.143   1.257   2.230  0.0476 -1.2987  0.2451
32760SOL    HW2 4373   5.206   1.295   2.097 -1.9454  0.4302 -0.2645
32761SOL     OW 4374  10.861   6.248   8.302 -0.0817  0.1997  0.1378
32761SOL    HW1 4375  10.806   6.212   8.371  0.2105  2.3705  1.5941
32761SOL    HW2 4376  10.802   6.258   8.227 -0.9006 -0.3182  0.6966
32762SOL     OW 4377   0.604   9.248   9.765 -0.5819  1.1282  0.5276
32762SOL    HW1 4378   0.534   9.204   9.813 -1.6390  2.3961  0.2149
32762SOL    HW2 4379   0.657   9.289   9.833  0.5648 -0.7500  0.8390
32763SOL     OW 4380   5.653   2.318   1.090 -0.0273 -0.1891 -0.2700
32763SOL    HW1 4381   5.690   2.281   1.010  1.7401 -2.0789  1.3137
32763SOL    HW2 4382   5.715   2.388   1.115  0.0550 -0.3615  0.0193
32764SOL     OW 4383   6.712   5.773   2.537  0.5948  0.5562 -0.4332
32764SOL    HW1 4384   6.783   5.711   2.519 -0.3876 -0.6129 -0.4466
32764SOL    HW2 4385   6.666   5.782   2.454 -0.3203 -0.1107 -0.0247
32765SOL     OW 4386   3.105   6.096   6.635 -0.3682 -0.4779 -0.3482
32765SOL    HW1 4387   3.086   6.004   6.615 -0.9311 -0.7001  1.1228
32765SOL    HW2 4388   3.198   6.098   6.654 -0.4860 -0.8905  0.2998
32766SOL     OW 4389   9.762   2.161   6.469  0.3144  0.1735  0.0277
32766SOL    HW1 4390   9.803   2.232   6.420  1.8184 -1.5394 -1.3032
32766SOL    HW2 4391   9.730   2.100   6.402 -0.2546 -0.7881  1.1304
32767SOL     OW 4392   1.247   6.200   7.061  0.1475  0.5574  0.2299
32767SOL    HW1 4393   1.217   6.283   7.099  0.3454  0.8849 -0.3174
32767SOL    HW2 4394   1.338   6.193   7.087 -0.1215  0.0517  1.0555
32768SOL     OW 4395   4.999   8.919  10.450 -0.4758  0.0997  0.8078
32768SOL    HW1 4396   5.034   8.892  10.365 -0.2070 -0.0647  0.9717
32768SOL    HW2 4397   4.998   9.015  10.446  0.5866  0.1234  1.0417
32769SOL     OW 4398   4.127   8.831   7.987  0.2960  0.0660  0.3526
32769SOL    HW1 4399   4.092   8.771   8.052 -1.7314  1.2874  0.4596
32769SOL    HW2 4400   4.107   8.790   7.903 -0.5860  0.3093  0.4374
32770SOL     OW 4401   0.167   1.508   4.631 -0.2103  0.3281 -0.2825
32770SOL    HW1 4402   0.082   1.551   4.638  0.1719  1.4970 -2.1441
32770SOL    HW2 4403   0.198   1.501   4.721 -1.4476  1.5992  0.2712
32771SOL     OW 4404   5.705   9.519   7.211 -0.2874  0.0442 -0.1313
32771SOL    HW1 4405   5.793   9.553   7.224 -0.0376 -0.5258 -0.2902
32771SOL    HW2 4406   5.650   9.597   7.201  0.2538  0.3998 -0.3861
32772SOL     OW 4407   7.659   2.498   6.206  0.0639 -0.3451 -0.3072
32772SOL    HW1 4408   7.633   2.419   6.253 -1.8932  0.5830  0.2869
32772SOL    HW2 4409   7.650   2.568   6.270  0.3113  0.5592 -1.2381
32773SOL     OW 4410   2.373  10.205   2.359 -0.3757 -0.4366 -0.2585
32773SOL    HW1 4411   2.301  10.212   2.421 -0.3327 -1.5851 -0.0688
32773SOL    HW2 4412   2.448  10.176   2.412 -0.3449 -1.4456 -0.8311
32774SOL     OW 4413   6.046   8.721   4.073 -0.2940 -0.2995  0.1138
32774SOL    HW1 4414   6.032   8.682   3.986 -1.7217  0.5648 -0.0705
32774SOL    HW2 4415   5.965   8.703   4.121  0.1803 -0.0936  1.0056
32775SOL     OW 4416   4.311   0.673   5.935  0.5702  0.2480 -0.5219
32775SOL    HW1 4417   4.226   0.644   5.967  0.8732 -0.2798 -0.1676
32775SOL    HW2 4418   4.305   0.768   5.932  0.3416  0.2803  0.5864
32776SOL     OW 4419   6.465   4.771   6.505  0.1258  0.4218 -0.2285
32776SOL    HW1 4420   6.450   4.685   6.465 -1.6350  0.5264  0.1580
32776SOL    HW2 4421   6.528   4.813   6.446  0.4223 -0.8241 -0.8468
32777SOL     OW 4422   1.116   5.051   8.235  0.3449  0.7779 -0.5323
32777SOL    HW1 4423   1.081   5.141   8.238  2.1293  1.5235 -0.6154
32777SOL    HW2 4424   1.140   5.032   8.326 -1.0068 -0.0603 -0.3254
32778SOL     OW 4425  10.920   8.056   4.855 -0.3942 -0.2817  0.3101
32778SOL    HW1 4426  10.861   8.129   4.837  1.5797  1.0262 -1.2763
32778SOL    HW2 4427  10.911   7.998   4.779 -1.2240 -1.2471  1.1080
32779SOL     OW 4428   3.555   1.648  10.189  0.0575  0.2803 -0.3009
32779SOL    HW1 4429   3.514   1.562  10.178  0.7680 -0.3864  1.7145
32779SOL    HW2 4430   3.624   1.651  10.123  1.1118 -1.4469  0.6413
32780SOL     OW 4431   6.918   4.033   0.424  0.6402 -0.5424 -0.3172
32780SOL    HW1 4432   6.919   4.021   0.329  2.6575  1.9346 -0.6762
32780SOL    HW2 4433   6.845   4.093   0.440  0.0213 -1.3033 -0.2096
32781SOL     OW 4434   3.810   1.093   3.017 -0.1138  0.0674  0.0957
32781SOL    HW1 4435   3.865   1.106   3.095 -0.5781 -0.6637  0.5531
32781SOL    HW2 4436   3.759   1.174   3.010  1.5332  1.0920 -0.7779
32782SOL     OW 4437   7.520   6.841   5.377  0.2943  0.1261  0.2464
32782SOL    HW1 4438   7.581   6.863   5.447 -0.6368 -0.8274  1.3896
32782SOL    HW2 4439   7.437   6.825   5.421 -0.1366 -1.2551 -0.9921
32783SOL     OW 4440   0.740   4.002   1.222 -0.2172  0.5250 -0.1387
32783SOL    HW1 4441   0.793   4.013   1.301 -1.4658  2.9763  0.4712
32783SOL    HW2 4442   0.719   3.909   1.220 -0.0569  0.3591  2.3826
32784SOL     OW 4443   7.476   3.240   2.574  0.1050  0.0233 -0.3487
32784SOL    HW1 4444   7.444   3.180   2.642  1.9813  1.3696  1.8632
32784SOL    HW2 4445   7.528   3.185   2.516  0.2142 -0.8491  0.5390
32785SOL     OW 4446   2.416  10.309   8.995 -0.3096 -0.7307  0.1883
32785SOL    HW1 4447   2.337  10.315   8.942 -0.4521 -1.0598  0.3613
32785SOL    HW2 4448   2.436  10.400   9.019 -1.0031 -0.7018  0.6745
32786SOL     OW 4449   9.404   8.264   4.824 -0.1625 -0.3005  0.0481
32786SOL    HW1 4450   9.325   8.316   4.807  0.5410  1.5542  1.9280
32786SOL    HW2 4451   9.378   8.201   4.891 -0.5256 -1.0694 -0.8021
32787SOL     OW 4452   1.859   1.961   1.313  0.7966  0.0884  0.0557
32787SOL    HW1 4453   1.805   2.021   1.365 -0.0242 -0.9213  0.4258
32787SOL    HW2 4454   1.927   2.016   1.274  0.7943  1.0453  1.3446
32788SOL     OW 4455   6.566   2.176   0.401  0.3512 -0.4451  0.6192
32788SOL    HW1 4456   6.544   2.210   0.488 -0.9449 -0.6664  0.3896
32788SOL    HW2 4457   6.494   2.205   0.345  1.8300  0.9182 -0.7188
32789SOL     OW 4458   6.373   7.289   7.176 -0.0468  0.6326 -0.2868
32789SOL    HW1 4459   6.300   7.330   7.223 -0.6480 -0.4599 -0.2261
32789SOL    HW2 4460   6.387   7.344   7.099  0.3704  1.9514  0.6995
32790SOL     OW 4461   8.781   2.340   1.076  0.4126  0.2193 -0.2762
32790SOL    HW1 4462   8.773   2.432   1.099 -0.2985  0.2967 -0.8145
32790SOL    HW2 4463   8.847   2.338   1.007  0.5643  0.3019 -0.1345
32791SOL     OW 4464   0.213   1.361   2.870 -0.7518  0.8127 -0.1861
32791SOL    HW1 4465   0.285   1.384   2.812 -0.7525  1.3021  0.0015
32791SOL    HW2 4466   0.255   1.317   2.944 -0.9182 -1.7025 -1.4610
32792SOL     OW 4467   8.435  10.434   6.721 -0.4048 -0.9377  0.4139
32792SOL    HW1 4468   8.493  10.394   6.655 -2.7298 -1.9824 -1.1080
32792SOL    HW2 4469   8.454  10.385   6.801  1.7395 -0.3442  0.3490
32793SOL     OW 4470  10.889   2.104   8.347  0.1854 -0.6294  0.4684
32793SOL    HW1 4471  10.942   2.182   8.364 -0.3170  0.0250 -0.7823
32793SOL    HW2 4472  10.867   2.070   8.434  0.4960  0.5811  1.0420
32794SOL     OW 4473   5.951   5.945   3.066 -0.5329 -0.3393 -0.3445
32794SOL    HW1 4474   5.872   5.932   3.120 -0.9415 -0.2448 -0.9108
32794SOL    HW2 4475   5.995   6.020   3.106  0.1300 -1.3961  0.9598
32795SOL     OW 4476   7.222   9.872  10.615 -0.3618 -0.0202  0.2976
32795SOL    HW1 4477   7.190   9.846  10.702  0.6249 -0.1337  0.6397
32795SOL    HW2 4478   7.317   9.866  10.622 -0.2773 -0.2120 -0.8583
32796SOL     OW 4479   2.584   0.571   2.815 -0.3375 -0.1440 -0.4846
32796SOL    HW1 4480   2.624   0.639   2.761  1.1022 -0.0073  0.6916
32796SOL    HW2 4481   2.513   0.616   2.861 -0.2354  0.2347 -0.6938
32797SOL     OW 4482   2.537   9.582   3.781  0.2457  0.0665  0.0180
32797SOL    HW1 4483   2.502   9.563   3.868  0.0956  1.3905  0.2703
32797SOL    HW2 4484   2.491   9.523   3.723 -0.3091 -0.2088  0.7223
32798SOL     OW 4485   2.220   9.022   0.306  0.5916  0.2273 -0.0501
32798SOL    HW1 4486   2.208   8.927   0.310  0.3353  0.2862  1.7751
32798SOL    HW2 4487   2.314   9.035   0.318  0.9701  0.1684 -2.5274
32799SOL     OW 4488   2.277   5.701   3.602 -0.9010 -0.3322  0.2107
32799SOL    HW1 4489   2.353   5.650   3.576 -0.4729 -0.0611  0.9167
32799SOL    HW2 4490   2.281   5.705   3.697 -1.0525  0.8219  0.1859
32800SOL     OW 4491   6.022   8.473   8.719 -0.0298  0.4155 -0.0950
32800SOL    HW1 4492   6.040   8.494   8.627 -0.0032 -0.0829 -0.2089
32800SOL    HW2 4493   6.101   8.429   8.749  1.0593  2.8625  0.9391
32801SOL     OW 4494   7.276   0.943   4.486  0.3611  0.2279  0.5883
32801SOL    HW1 4495   7.270   0.902   4.572  0.2457  0.6216  0.7718
32801SOL    HW2 4496   7.186   0.963   4.462  0.1970 -1.5854 -0.4796
32802SOL     OW 4497  10.207   7.263   8.556  0.6090 -0.1285 -0.1409
32802SOL    HW1 4498  10.175   7.337   8.504  0.3176 -0.7785 -0.9194
32802SOL    HW2 4499  10.259   7.211   8.494  1.3867 -0.2131  0.5703
32803SOL     OW 4500   5.111   4.359   7.792  0.2021  0.1569 -0.1597
32803SOL    HW1 4501   5.172   4.389   7.860  1.0602  0.1415 -0.9011
32803SOL    HW2 4502   5.124   4.265   7.788 -0.3083  0.0695  0.0741
32804SOL     OW 4503   5.472   4.379   2.726  0.0735 -0.5314 -0.2085
32804SOL    HW1 4504   5.457   4.393   2.820 -2.5365  1.6865 -0.8115
32804SOL    HW2 4505   5.386   4.353   2.693  0.8023 -0.6384 -2.0977
32805SOL     OW 4506   9.579   8.126   5.980 -0.1050 -0.2670 -0.2351
32805SOL    HW1 4507   9.602   8.109   5.889  4.2507  0.7256  0.4691
32805SOL    HW2 4508   9.590   8.220   5.991 -1.9247 -0.1431  1.0694
32806SOL     OW 4509   3.316   2.413   6.019 -0.5266 -0.3396 -0.0728
32806SOL    HW1 4510   3.382   2.421   5.950 -0.4502 -1.1879 -0.1189
32806SOL    HW2 4511   3.352   2.461   6.093  0.0071 -0.5371 -0.1980
32807SOL     OW 4512   3.079   8.487   9.158 -0.2374  0.8173  0.4124
32807SOL    HW1 4513   3.024   8.555   9.197  0.0465  1.0581  0.3895
32807SOL    HW2 4514   3.162   8.494   9.204  0.3123  1.5115 -0.6533
32808SOL     OW 4515   7.509   5.085   8.706  0.4052  0.1904  0.0396
32808SOL    HW1 4516   7.527   5.033   8.784  1.0683 -0.3334 -0.4424
32808SOL    HW2 4517   7.595   5.097   8.665  0.2034  1.3185 -0.0835
32809SOL     OW 4518   6.652   3.337   0.716  0.1382 -0.1311 -0.0814
32809SOL    HW1 4519   6.744   3.321   0.737  0.4512  0.1629 -1.2022
32809SOL    HW2 4520   6.648   3.333   0.621 -1.1012 -0.5738 -0.0232
32810SOL     OW 4521   0.881   6.166   7.898 -0.3479  0.6483  0.6246
32810SOL    HW1 4522   0.896   6.087   7.846 -1.1157 -0.1626  1.5859
32810SOL    HW2 4523   0.968   6.191   7.929  0.0024  0.6471 -0.3276
32811SOL     OW 4524   3.431   9.903   4.053  0.1206 -0.1971  0.0172
32811SOL    HW1 4525   3.482   9.822   4.052 -0.0959 -0.3327 -1.5268
32811SOL    HW2 4526   3.340   9.874   4.044 -0.1879  0.1112  1.7074
32812SOL     OW 4527   2.869   7.338   3.217 -0.7135 -0.1164  0.3900
32812SOL    HW1 4528   2.925   7.377   3.150 -1.6398  1.7742  0.6476
32812SOL    HW2 4529   2.782   7.338   3.178 -1.0215 -0.3235  1.0631
32813SOL     OW 4530   8.537   5.061   8.837 -0.5809  0.1172  0.2317
32813SOL    HW1 4531   8.624   5.026   8.819 -0.9937 -0.9792  0.3265
32813SOL    HW2 4532   8.543   5.153   8.812  0.3910 -0.1199 -0.4664
32814SOL     OW 4533   8.093   7.474   3.896 -0.0463  0.2164  0.0809
32814SOL    HW1 4534   8.056   7.563   3.905  0.6425  0.6346 -1.1097
32814SOL    HW2 4535   8.068   7.446   3.808  2.5949  0.6017 -0.8719
32815SOL     OW 4536   8.969   6.020   7.261 -0.0306 -0.0592  0.2414
32815SOL    HW1 4537   8.881   6.047   7.237  0.0916  0.0735 -0.0702
32815SOL    HW2 4538   9.026   6.074   7.207  0.2778  0.6894  1.2825
32816SOL     OW 4539   3.107   2.704   9.044 -0.0914  0.1440 -0.3415
32816SOL    HW1 4540   3.175   2.750   8.995  0.6040 -0.6333 -0.1191
32816SOL    HW2 4541   3.067   2.773   9.098 -0.7236  0.9588 -1.8073
32817SOL     OW 4542   0.663   0.133   8.590 -0.3423 -0.0584  0.6576
32817SOL    HW1 4543   0.584   0.167   8.547 -0.6833 -0.3086  1.0753
32817SOL    HW2 4544   0.690   0.203   8.649 -0.2535  0.0262  0.5167
32818SOL     OW 4545   6.065   9.983   0.100 -0.6160 -0.0813 -0.4675
32818SOL    HW1 4546   6.138   9.921   0.092 -1.4505 -0.9159 -2.2904
32818SOL    HW2 4547   5.995   9.932   0.142 -0.3969  0.5403  0.7194
32819SOL     OW 4548   6.003   7.136   4.785  0.2144 -0.0525  0.2039
32819SOL    HW1 4549   5.993   7.147   4.690  3.7921 -2.2461 -0.5895
32819SOL    HW2 4550   6.095   7.155   4.802  0.3983 -2.5765  2.7089
32820SOL     OW 4551   6.469   2.338   4.075  0.3799 -0.3191 -0.4729
32820SOL    HW1 4552   6.430   2.251   4.077  2.2926 -1.2580 -1.5420
32820SOL    HW2 4553   6.525   2.338   3.997  1.2839  1.4835  0.1080
32821SOL     OW 4554   9.689   4.898   5.799 -0.5062  0.0178 -0.3109
32821SOL    HW1 4555   9.680   4.805   5.821 -1.3884  0.6545  2.3927
32821SOL    HW2 4556   9.602   4.935   5.815 -0.4229  1.1778 -2.2755
32822SOL     OW 4557   1.812   0.202   0.267 -0.5701  0.0739 -0.2327
32822SOL    HW1 4558   1.801   0.291   0.300  0.0784 -0.1084  0.5149
32822SOL    HW2 4559   1.732   0.184   0.218 -0.4798  1.2524 -0.8312
32823SOL     OW 4560   9.736   2.407   5.805  0.0890  0.0612 -0.0955
32823SOL    HW1 4561   9.660   2.350   5.805  1.1213 -1.3805 -0.4013
32823SOL    HW2 4562   9.781   2.387   5.722  0.4883  1.3243 -0.2088
32824SOL     OW 4563   2.444   6.317   4.830 -0.4879  0.7242  0.1818
32824SOL    HW1 4564   2.531   6.340   4.863 -0.6391  0.1517  1.0153
32824SOL    HW2 4565   2.401   6.400   4.813  0.7185  1.0470 -1.6553
32825SOL     OW 4566   4.106   3.076   9.284 -0.0201  0.6593 -0.4460
32825SOL    HW1 4567   4.066   3.093   9.370 -0.4601 -0.4385 -0.4232
32825SOL    HW2 4568   4.048   3.121   9.222 -1.1201 -0.6222 -0.3782
32826SOL     OW 4569   3.882   9.480   6.523  0.2618 -0.1122 -0.1826
32826SOL    HW1 4570   3.879   9.573   6.499 -1.2635  0.1372  0.7988
32826SOL    HW2 4571   3.804   9.442   6.482  0.9771 -1.0175 -0.7378
32827SOL     OW 4572   1.282   3.136   1.455  0.0763  0.1454 -0.3187
32827SOL    HW1 4573   1.298   3.066   1.519 -2.7585  0.2646  0.6752
32827SOL    HW2 4574   1.226   3.095   1.389  0.3559  0.8735 -1.0168
32828SOL     OW 4575   1.553   2.717   2.207 -0.3482  0.6865  0.0541
32828SOL    HW1 4576   1.611   2.658   2.256 -0.4996  0.8005  0.3796
32828SOL    HW2 4577   1.466   2.681   2.221 -0.2791  0.0305 -1.1341
32829SOL     OW 4578   0.095   5.615   9.593 -0.1480  0.3376  0.0148
32829SOL    HW1 4579   0.032   5.557   9.550  0.9119  0.1784 -1.3891
32829SOL    HW2 4580   0.165   5.557   9.624 -0.5646  0.5322  1.4133
32830SOL     OW 4581   4.167   0.855   1.621  0.1078 -0.7899 -0.3045
32830SOL    HW1 4582   4.248   0.903   1.636  0.5264 -0.8469 -2.1822
32830SOL    HW2 4583   4.114   0.914   1.567 -0.9013 -0.9549  0.4828
32831SOL     OW 4584   6.810   6.170   3.584 -0.2323  0.7160 -0.5660
32831SOL    HW1 4585   6.874   6.227   3.627 -0.8844  0.9985  0.0554
32831SOL    HW2 4586   6.738   6.229   3.560 -0.2442  0.4126 -1.3153
32832SOL     OW 4587   8.334   3.856   1.233 -0.0067  0.4608 -0.3106
32832SOL    HW1 4588   8.317   3.950   1.246 -0.2320  0.4701 -0.6858
32832SOL    HW2 4589   8.260   3.825   1.181  0.7992  0.3780 -1.4459
32833SOL     OW 4590   3.215   7.250   3.209 -0.3760  0.2446  0.4102
32833SOL    HW1 4591   3.274   7.207   3.148 -1.7378  1.0271 -1.5713
32833SOL    HW2 4592   3.201   7.337   3.172 -1.1783  0.7894  1.9146
32834SOL     OW 4593   7.817   0.228   4.685  0.1443 -0.3832 -0.1665
32834SOL    HW1 4594   7.739   0.277   4.712  2.1918  2.6030  0.8381
32834SOL    HW2 4595   7.855   0.281   4.615  1.4045 -1.6679 -0.4944
32835SOL     OW 4596   5.232   6.856  10.131  0.0595  0.2900 -0.5062
32835SOL    HW1 4597   5.182   6.790  10.083  0.6889 -0.8786  0.3828
32835SOL    HW2 4598   5.297   6.887  10.069 -0.7210  0.6457 -1.1688
32836SOL     OW 4599   7.201   0.646   6.464 -0.4019  0.1067 -0.3618
32836SOL    HW1 4600   7.125   0.589   6.451 -1.1456  1.1140 -0.5912
32836SOL    HW2 4601   7.163   0.734   6.471  0.7619  0.6434 -0.6204
32837SOL     OW 4602   0.407   2.290   6.859 -0.2472 -0.3667  0.0502
32837SOL    HW1 4603   0.346   2.357   6.829 -0.2244 -0.5299 -0.3679
32837SOL    HW2 4604   0.428   2.239   6.780 -0.3481 -0.9278  0.3782
32838SOL     OW 4605   6.129   1.298   3.076 -0.6835  0.6637  0.3898
32838SOL    HW1 4606   6.042   1.319   3.042 -0.8368  0.1816  0.4818
32838SOL    HW2 4607   6.155   1.219   3.030  0.5869  1.8918 -1.1349
32839SOL     OW 4608   7.184   0.659   9.155  0.2988 -0.6146  0.1192
32839SOL    HW1 4609   7.141   0.595   9.212  1.4576 -0.1146  1.6407
32839SOL    HW2 4610   7.277   0.640   9.165  0.6109  0.6994 -0.1383
32840SOL     OW 4611   4.808   3.054   5.619 -0.6174  0.0262  0.0486
32840SOL    HW1 4612   4.866   3.002   5.674  0.8691  1.4788 -0.0353
32840SOL    HW2 4613   4.824   3.023   5.530  0.1596  0.4885  0.0142
32841SOL     OW 4614   1.136   5.029   6.222 -0.5604 -0.6984 -0.1169
32841SOL    HW1 4615   1.158   4.991   6.307  0.9203 -1.2757 -0.7402
32841SOL    HW2 4616   1.040   5.038   6.225 -0.4504  0.6141  2.1443
32842SOL     OW 4617   1.004   9.108   8.139  0.0038  0.0904 -0.0126
32842SOL    HW1 4618   0.960   9.116   8.054  1.0357  2.7456 -0.3914
32842SOL    HW2 4619   0.971   9.026   8.175 -1.5514 -0.4174 -2.3503
32843SOL     OW 4620   4.042   1.218   4.641  0.1656  0.1834  0.0828
32843SOL    HW1 4621   4.006   1.131   4.651 -0.8039  0.5776  0.0951
32843SOL    HW2 4622   4.035   1.257   4.728  3.1841 -0.6543  0.8236
32844SOL     OW 4623   7.218   3.155   5.508 -0.1031 -0.1196 -0.2386
32844SOL    HW1 4624   7.218   3.242   5.468 -0.6318  0.3000  0.6513
32844SOL    HW2 4625   7.156   3.161   5.581 -0.1320 -1.2361 -0.1422
32845SOL     OW 4626   5.762   7.247   3.533 -0.1951 -0.1185 -0.3933
32845SOL    HW1 4627   5.730   7.254   3.443  0.2097 -1.8173 -0.7197
32845SOL    HW2 4628   5.703   7.302   3.585 -3.2706 -2.4635 -1.0745
32846SOL     OW 4629  10.018  10.907   7.911 -0.6531 -0.1971  0.3614
32846SOL    HW1 4630  10.020  10.988   7.859 -1.4179  0.2523  1.0027
32846SOL    HW2 4631   9.957  10.850   7.865 -2.5479  0.7729  1.5069
32847SOL     OW 4632   7.383   0.758   8.717 -0.0721 -0.0676 -0.4293
32847SOL    HW1 4633   7.323   0.808   8.772  0.3070  2.7678 -2.3896
32847SOL    HW2 4634   7.450   0.725   8.777 -1.6428 -0.3114  1.2722
32848SOL     OW 4635   7.828   7.107   4.371  0.3602 -0.2980  0.3465
32848SOL    HW1 4636   7.885   7.182   4.355  0.3094 -0.4296 -0.4485
32848SOL    HW2 4637   7.885   7.043   4.415 -0.1769  1.1012  3.3336
32849SOL     OW 4638  10.268   3.575  10.377 -0.3742  0.0430  0.2343
32849SOL    HW1 4639  10.225   3.660  10.368 -0.7449 -0.0922  0.6586
32849SOL    HW2 4640  10.353   3.595  10.415  0.6441  0.4750 -2.1342
32850SOL     OW 4641   8.958   6.711  10.647  0.6443 -0.1868 -0.3974
32850SOL    HW1 4642   8.988   6.672  10.729  0.9033  2.2200  0.7527
32850SOL    HW2 4643   8.866   6.685  10.639  1.2929 -2.5729 -0.7608
32851SOL     OW 4644   3.069  10.008   1.297 -0.1979 -0.0595 -0.3228
32851SOL    HW1 4645   3.113   9.938   1.249 -0.0744 -0.5685  0.5051
32851SOL    HW2 4646   3.093   9.992   1.389 -0.2940  0.9814 -0.1104
32852SOL     OW 4647   1.863   6.614   9.997  0.5732 -0.0342 -0.7028
32852SOL    HW1 4648   1.830   6.703   9.990  1.0925  0.3005  0.8037
32852SOL    HW2 4649   1.887   6.590   9.907 -1.0587  0.7323 -1.3781
32853SOL     OW 4650   9.321  10.434   4.878 -0.1657 -0.3751  0.5767
32853SOL    HW1 4651   9.389  10.502   4.874  1.0183 -1.4589  1.5096
32853SOL    HW2 4652   9.296  10.420   4.787  0.0666  0.8008  0.3110
32854SOL     OW 4653   5.532   7.330  10.176  0.0968  0.8147  0.2402
32854SOL    HW1 4654   5.438   7.316  10.179  0.1930  0.0168 -0.2498
32854SOL    HW2 4655   5.567   7.276  10.247  0.1029  2.0054  1.1831
32855SOL     OW 4656  10.660   5.833   6.872  0.2794 -0.3495 -0.0880
32855SOL    HW1 4657  10.569   5.836   6.843  0.6525 -0.4114 -1.3434
32855SOL    HW2 4658  10.665   5.755   6.928 -0.1493 -1.1469 -1.1271
32856SOL     OW 4659   8.517   1.570   7.917 -0.2107 -0.0746  0.2160
32856SOL    HW1 4660   8.538   1.477   7.904  0.3975  0.3095 -2.0165
32856SOL    HW2 4661   8.587   1.617   7.871 -1.3275  1.4556  0.0117
32857SOL     OW 4662   9.109   5.870   9.116  0.2524  0.5149 -0.9969
32857SOL    HW1 4663   9.137   5.854   9.026  1.5496 -0.0425 -0.5171
32857SOL    HW2 4664   9.189   5.893   9.162  0.1186 -1.8218  0.5807
32858SOL     OW 4665  10.763   3.324   5.807 -0.9746  0.1736  0.3866
32858SOL    HW1 4666  10.744   3.286   5.893 -2.6523  2.5377  1.1576
32858SOL    HW2 4667  10.678   3.358   5.777 -0.7803 -1.7698 -2.8986
32859SOL     OW 4668   5.290   2.338   8.577 -0.4530 -0.2549 -0.3044
32859SOL    HW1 4669   5.317   2.247   8.563 -0.9412 -0.7832  1.8059
32859SOL    HW2 4670   5.372   2.387   8.584 -0.0840 -1.0342  1.2888
32860SOL     OW 4671   9.777   8.185   1.777  0.1552 -0.6435  0.2239
32860SOL    HW1 4672   9.698   8.166   1.829  1.4007 -2.4379  1.5680
32860SOL    HW2 4673   9.845   8.200   1.842  1.2773 -0.7121 -0.9110
32861SOL     OW 4674   6.939   0.731   9.727 -0.2923  0.2165  0.2891
32861SOL    HW1 4675   6.874   0.719   9.658  0.3385  1.1979 -0.5093
32861SOL    HW2 4676   6.962   0.824   9.723  2.4032 -0.3736 -0.6468
32862SOL     OW 4677   5.372   6.243   6.585  0.2725  0.5970 -0.0769
32862SOL    HW1 4678   5.413   6.281   6.663  0.5536 -1.2662  0.7565
32862SOL    HW2 4679   5.443   6.238   6.521  0.9837 -1.0001  0.7656
32863SOL     OW 4680   3.221   6.705  10.528  0.4396 -0.5246  0.0768
32863SOL    HW1 4681   3.219   6.767  10.455 -0.1950 -1.1521 -0.4396
32863SOL    HW2 4682   3.243   6.621  10.489  0.1129 -0.8662  0.6066
32864SOL     OW 4683   0.003   0.068   6.299  0.1878 -0.0580  1.1917
32864SOL    HW1 4684   0.000   0.075   6.394 -1.4925  0.5804  1.1274
32864SOL    HW2 4685  -0.023  -0.022   6.281 -2.1920  0.5647  1.2828
32865SOL     OW 4686   2.800   9.151   2.206  0.0548  0.5472 -0.1249
32865SOL    HW1 4687   2.727   9.106   2.249 -0.8432  0.1528 -1.9470
32865SOL    HW2 4688   2.876   9.097   2.225 -0.1387  0.8179  1.5812
32866SOL     OW 4689   5.162   2.002   0.652  0.3870  0.9505 -0.2431
32866SOL    HW1 4690   5.153   2.059   0.576 -0.0530  0.7207 -0.3657
32866SOL    HW2 4691   5.146   2.059   0.727 -4.9279  0.2014 -0.4364
32867SOL     OW 4692   9.162   2.437   0.591  0.3830 -0.0477  0.2931
32867SOL    HW1 4693   9.100   2.436   0.518  1.0451  1.2333 -0.3275
32867SOL    HW2 4694   9.224   2.367   0.572  2.4845  2.2534 -2.2000
32868SOL     OW 4695   3.653   3.397   6.934 -0.2374 -0.4882 -0.0961
32868SOL    HW1 4696   3.610   3.325   6.980  0.9423 -1.5590 -0.6216
32868SOL    HW2 4697   3.672   3.363   6.847  0.8081  0.2631 -0.1855
32869SOL     OW 4698   9.503   1.730  10.714 -0.0231  0.4005  0.7277
32869SOL    HW1 4699   9.469   1.670  10.648 -0.9498  0.7323  0.8796
32869SOL    HW2 4700   9.438   1.728  10.784  0.6041  0.5726  1.3228
32870SOL     OW 4701   1.199   3.910   7.228  0.0292 -0.2953  0.3533
32870SOL    HW1 4702   1.160   3.824   7.213 -2.3015  0.6456  0.7006
32870SOL    HW2 4703   1.211   3.915   7.323  1.0181 -0.5542  0.2554
32871SOL     OW 4704   8.268   6.824   3.493  0.2957  0.2068  0.0113
32871SOL    HW1 4705   8.185   6.856   3.460  0.8908  0.7016 -1.0277
32871SOL    HW2 4706   8.287   6.879   3.570 -0.1793  0.2925  0.0658
32872SOL     OW 4707   8.042   8.231   4.405  0.2061 -0.6804  0.3198
32872SOL    HW1 4708   8.073   8.191   4.486  1.7435 -1.1217 -0.4569
32872SOL    HW2 4709   8.019   8.156   4.349  0.7527 -0.4358 -0.2434
32873SOL     OW 4710   3.853   0.983   2.751 -0.1087 -0.3766 -0.0899
32873SOL    HW1 4711   3.791   0.913   2.733 -1.1804  0.5214 -0.0183
32873SOL    HW2 4712   3.836   1.007   2.842 -0.8640  0.9949 -0.5495
32874SOL     OW 4713   1.078   9.999   4.078  0.0217 -0.3858 -0.3750
32874SOL    HW1 4714   1.061  10.039   4.163 -0.6219  0.4168 -0.8660
32874SOL    HW2 4715   0.994   9.962   4.051  0.1705 -0.4499 -0.7654
32875SOL     OW 4716   9.543   7.494   1.573  0.2714  0.2351  0.3055
32875SOL    HW1 4717   9.522   7.540   1.655  1.0439  0.4586  0.3856
32875SOL    HW2 4718   9.598   7.420   1.601  0.5616  0.3293 -0.0153
32876SOL     OW 4719   8.915   7.358   0.751  0.1231  0.0726 -0.4107
32876SOL    HW1 4720   8.844   7.423   0.747 -2.0151 -2.1427 -0.9276
32876SOL    HW2 4721   8.905   7.307   0.671  2.0596 -0.6341 -0.2530
32877SOL     OW 4722   3.943  10.199   4.088  0.2112  0.1199 -0.5276
32877SOL    HW1 4723   3.925  10.105   4.094 -1.0847  0.2512 -1.8614
32877SOL    HW2 4724   3.916  10.234   4.173  1.4842 -0.8026  0.2946
32878SOL     OW 4725   6.400   1.124   7.363 -0.0511  0.4228  0.5392
32878SOL    HW1 4726   6.359   1.037   7.368  2.1665 -0.7167  0.0145
32878SOL    HW2 4727   6.330   1.181   7.331 -1.3695 -1.3161  0.1500
32879SOL     OW 4728   7.455   0.444   2.796 -0.5487  0.2264  0.5568
32879SOL    HW1 4729   7.462   0.531   2.758 -2.8027  0.2890  0.1714
32879SOL    HW2 4730   7.408   0.457   2.878  2.2014 -0.2220  2.3584
32880SOL     OW 4731   9.950   1.701   1.656 -0.1790  0.6722  0.3757
32880SOL    HW1 4732  10.018   1.700   1.589  1.0914  1.3844  1.6135
32880SOL    HW2 4733   9.945   1.610   1.686 -0.0799  0.5380 -0.0015
32881SOL     OW 4734   5.459   7.758   4.672 -0.1218 -0.0388 -0.2325
32881SOL    HW1 4735   5.389   7.771   4.608  0.0831 -1.0269 -0.6696
32881SOL    HW2 4736   5.510   7.839   4.669  0.3670 -0.3733 -1.9319
32882SOL     OW 4737   3.511   6.593   6.247  0.1451  0.1238  0.2542
32882SOL    HW1 4738   3.451   6.555   6.182  0.3730  0.2199 -0.0134
32882SOL    HW2 4739   3.586   6.622   6.196  0.1395  0.5930  0.5090
32883SOL     OW 4740   7.028   9.380   6.379  0.5200  0.3091  0.5816
32883SOL    HW1 4741   7.104   9.326   6.400 -0.0582 -0.5901  0.4010
32883SOL    HW2 4742   7.063   9.450   6.324  0.7951 -1.6822 -1.9293
32884SOL     OW 4743   7.455   1.062   3.184 -0.1899  0.0908 -0.3140
32884SOL    HW1 4744   7.496   0.992   3.234 -3.3337 -2.1754 -0.5687
32884SOL    HW2 4745   7.482   1.046   3.093  1.1858  0.8868 -0.0693
32885SOL     OW 4746   0.398   6.293   8.339  0.7679  0.1403 -0.1992
32885SOL    HW1 4747   0.383   6.258   8.427  0.7017 -1.9538 -0.9929
32885SOL    HW2 4748   0.310   6.309   8.305  0.7946  0.9889  0.1083
32886SOL     OW 4749   9.493   5.361   6.215 -0.2844  0.1298  0.5518
32886SOL    HW1 4750   9.411   5.362   6.165  0.0560 -3.3476 -0.3806
32886SOL    HW2 4751   9.466   5.345   6.305 -0.7072 -2.0771  0.0917
32887SOL     OW 4752   7.403   3.718   7.948 -0.9365  0.3133 -0.0593
32887SOL    HW1 4753   7.358   3.789   7.994  0.9943  0.7843  1.2255
32887SOL    HW2 4754   7.493   3.720   7.982 -0.2199 -1.2973 -1.6702
32888SOL     OW 4755   5.307   6.952   0.443 -0.0238 -0.1949  0.2866
32888SOL    HW1 4756   5.352   6.917   0.365  0.3983 -2.4146  1.4266
32888SOL    HW2 4757   5.215   6.956   0.418 -0.0059 -1.6495 -0.1175
32889SOL     OW 4758   0.538   8.446   8.783  0.4518 -0.4000 -0.0354
32889SOL    HW1 4759   0.604   8.432   8.851  1.3053  0.3409 -0.6721
32889SOL    HW2 4760   0.582   8.421   8.702 -0.1364 -0.1222 -0.4472
32890SOL     OW 4761   2.156   7.429   2.162 -0.5213  0.2321  0.0540
32890SOL    HW1 4762   2.065   7.459   2.168 -0.6221 -0.0385 -0.1307
32890SOL    HW2 4763   2.159   7.376   2.082 -0.1553  0.4026 -0.0498
32891SOL     OW 4764   4.296   0.256  10.259  0.3167 -0.4687  0.1981
32891SOL    HW1 4765   4.390   0.269  10.276  0.0790  1.2030  0.4102
32891SOL    HW2 4766   4.253   0.310  10.325 -0.8343 -1.7186  0.5113
32892SOL     OW 4767   2.158   4.893   9.368  0.3417  0.2027  0.1451
32892SOL    HW1 4768   2.136   4.849   9.450  1.4661 -0.4150  0.1273
32892SOL    HW2 4769   2.175   4.822   9.306 -0.4778  0.6588 -0.6440
32893SOL     OW 4770   8.041   0.890   3.194  0.4204  0.3368  0.0527
32893SOL    HW1 4771   7.951   0.870   3.168  0.7509 -0.4628 -0.5551
32893SOL    HW2 4772   8.090   0.811   3.170  0.8782 -0.2362  2.6136
32894SOL     OW 4773   2.106  10.844   1.606  0.3483  0.3063  0.7038
32894SOL    HW1 4774   2.082  10.908   1.539 -1.0317 -0.5906  0.3191
32894SOL    HW2 4775   2.102  10.759   1.561  0.8302 -0.1851  1.5605
32895SOL     OW 4776   0.749   5.542   9.168 -0.2343  0.2294 -0.3351
32895SOL    HW1 4777   0.773   5.452   9.192 -0.4440  0.2897  0.1185
32895SOL    HW2 4778   0.654   5.544   9.173 -0.1765  0.8024  0.9102
32896SOL     OW 4779   0.669   0.456   2.505  0.2353 -0.1604 -0.2941
32896SOL    HW1 4780   0.699   0.509   2.431  0.1758  1.7752  1.0196
32896SOL    HW2 4781   0.609   0.392   2.465 -0.5851  1.4709 -1.8031
32897SOL     OW 4782   9.805   6.460   6.996 -0.3775  0.3097 -0.7814
32897SOL    HW1 4783   9.850   6.542   6.976 -0.4904  1.1127  1.8910
32897SOL    HW2 4784   9.718   6.470   6.958 -0.3380  1.3748 -0.6269
32898SOL     OW 4785   6.225   2.186   8.503  0.8999 -0.0211 -0.1660
32898SOL    HW1 4786   6.234   2.159   8.412 -0.7765 -2.6354  0.3569
32898SOL    HW2 4787   6.135   2.165   8.526  1.5866 -0.4988  2.4025
32899SOL     OW 4788   0.952  10.440   3.912 -0.2673 -0.2780 -0.3930
32899SOL    HW1 4789   0.900  10.518   3.893  1.8279  1.3705  0.2163
32899SOL    HW2 4790   0.903  10.395   3.981 -0.7439  1.4113  0.4407
32900SOL     OW 4791   8.172   8.589   5.571  0.1692 -0.0104  0.8954
32900SOL    HW1 4792   8.109   8.522   5.544  1.0416 -0.5779  0.2343
32900SOL    HW2 4793   8.182   8.576   5.665  0.4405 -0.9159  0.7473
32901SOL     OW 4794   7.101   5.860   2.662  0.0908  0.4388 -0.5784
32901SOL    HW1 4795   7.116   5.834   2.571  1.3016  0.2166 -0.3334
32901SOL    HW2 4796   7.078   5.779   2.707  1.6645  0.1384 -0.2635
32902SOL     OW 4797   5.023   9.164  10.064  0.2206 -0.2727 -0.8921
32902SOL    HW1 4798   5.017   9.120   9.980 -1.2333 -2.1389  0.1097
32902SOL    HW2 4799   4.976   9.246  10.052  1.2454  0.1516 -2.2422
32903SOL     OW 4800   0.634   9.876  10.379 -0.1650 -0.2452  0.6090
32903SOL    HW1 4801   0.558   9.833  10.417 -0.1865 -0.7306  0.0398
32903SOL    HW2 4802   0.614   9.883  10.286  0.0245  0.6241  0.6245
32904SOL     OW 4803   6.035   7.590   9.487 -0.6023  0.0079  0.3436
32904SOL    HW1 4804   6.041   7.496   9.474 -1.1785 -0.0756  0.6560
32904SOL    HW2 4805   6.032   7.626   9.398  1.5990 -0.1049  0.1773
32905SOL     OW 4806   0.762   9.783   2.044 -0.3802 -0.0209  0.0930
32905SOL    HW1 4807   0.697   9.812   2.108 -0.5567 -0.9371  0.3460
32905SOL    HW2 4808   0.843   9.825   2.071  0.3862 -2.9748  3.0221
32906SOL     OW 4809   3.576   3.968   2.865 -0.0681 -0.2213 -0.1697
32906SOL    HW1 4810   3.516   3.895   2.881 -0.5350 -0.3676 -2.2553
32906SOL    HW2 4811   3.604   3.956   2.774  0.6554  1.6267 -0.2293
32907SOL     OW 4812   7.296   1.993   9.360  0.7088 -0.2493 -0.5700
32907SOL    HW1 4813   7.326   1.902   9.364  1.2778 -0.0557 -0.3449
32907SOL    HW2 4814   7.201   1.986   9.356  0.7643 -0.8770 -1.2209
32908SOL     OW 4815   2.101   2.884   6.035  0.3320 -0.4555  0.8127
32908SOL    HW1 4816   2.008   2.890   6.012  0.4064 -1.5565  0.1926
32908SOL    HW2 4817   2.109   2.805   6.087  1.0407 -0.7684  0.2476
32909SOL     OW 4818   0.962  10.477   4.343 -0.3729 -0.1096  0.1881
32909SOL    HW1 4819   0.978  10.502   4.434 -0.6435 -0.7259  0.4117
32909SOL    HW2 4820   0.868  10.492   4.330 -0.2105  0.6521 -0.2161
32910SOL     OW 4821   9.008   8.692   3.202 -0.2790 -0.2532 -0.3217
32910SOL    HW1 4822   8.997   8.779   3.241 -2.1947 -1.1048  1.2145
32910SOL    HW2 4823   8.978   8.703   3.112  1.7895  1.1689 -0.9202
32911SOL     OW 4824   8.052   5.762   4.960  0.3217 -0.2224 -0.6839
32911SOL    HW1 4825   8.127   5.772   4.902  0.3868 -0.7108 -0.6901
32911SOL    HW2 4826   8.090   5.766   5.048  0.2883  0.0266 -0.6802
32912SOL     OW 4827   4.104   7.592   4.511  0.2441 -0.0979  0.2677
32912SOL    HW1 4828   4.136   7.509   4.475 -0.9761 -2.0982  3.3679
32912SOL    HW2 4829   4.009   7.580   4.517 -0.1606  2.2308 -0.7330
32913SOL     OW 4830   8.968   9.842   0.967  1.1210  0.1390  0.1408
32913SOL    HW1 4831   8.884   9.801   0.985  0.5426  0.4901 -1.5657
32913SOL    HW2 4832   8.958   9.932   0.999  0.8211  0.1977 -0.1136
32914SOL     OW 4833   0.342   1.011   1.810 -0.4866 -0.1336  0.2337
32914SOL    HW1 4834   0.360   0.918   1.828  1.8863  0.0005 -1.0476
32914SOL    HW2 4835   0.332   1.050   1.897  1.8720 -1.0215  0.9761
32915SOL     OW 4836   0.812   0.017   5.582  0.2271  0.0241  0.1247
32915SOL    HW1 4837   0.905   0.003   5.598  0.0183 -1.3093  0.3006
32915SOL    HW2 4838   0.785   0.082   5.647  0.9258  0.0728  0.3701
32916SOL     OW 4839   0.552   6.808   5.330 -0.0858  0.3366 -0.5921
32916SOL    HW1 4840   0.539   6.749   5.404 -0.7273  0.1425 -0.8504
32916SOL    HW2 4841   0.619   6.869   5.359  1.1185 -0.9555 -0.5698
32917SOL     OW 4842   8.432   2.477   1.939  0.4154 -0.1171 -0.2587
32917SOL    HW1 4843   8.480   2.558   1.951 -0.8901  0.7661 -0.7837
32917SOL    HW2 4844   8.344   2.496   1.971  0.6381 -2.0191  1.7130
32918SOL     OW 4845   3.603   3.134   1.763 -0.4042 -0.5470 -0.4307
32918SOL    HW1 4846   3.641   3.151   1.677 -0.2765 -0.5682 -0.3786
32918SOL    HW2 4847   3.642   3.051   1.791  0.1452 -0.1510 -0.0152
32919SOL     OW 4848   5.487   8.228   6.063  0.4400 -0.4419  0.0545
32919SOL    HW1 4849   5.556   8.168   6.037  0.4914  0.0332 -0.9605
32919SOL    HW2 4850   5.532   8.310   6.084  0.3359 -0.6253  1.0538
32920SOL     OW 4851   3.248   9.962   9.313  0.0951  0.2049  0.5786
32920SOL    HW1 4852   3.330   9.940   9.269 -1.3495 -1.3883 -1.5566
32920SOL    HW2 4853   3.206   9.878   9.328 -1.4554  1.0159  0.9639
32921SOL     OW 4854  10.082   9.693   3.468  0.0751  0.0290  0.2617
32921SOL    HW1 4855  10.122   9.773   3.435 -0.6297  1.2573  2.2138
32921SOL    HW2 4856  10.145   9.660   3.533 -0.1574 -0.3706  0.2873
32922SOL     OW 4857   4.570   8.330   6.535 -0.3122 -0.3466  0.6191
32922SOL    HW1 4858   4.602   8.240   6.541 -1.6334 -0.8011  1.2805
32922SOL    HW2 4859   4.475   8.322   6.539 -0.6409  0.8505 -2.2961
32923SOL     OW 4860   0.775   8.907   6.825 -0.3602 -0.0536  0.7430
32923SOL    HW1 4861   0.794   8.855   6.902  0.7480  0.8004  1.0593
32923SOL    HW2 4862   0.709   8.971   6.854  1.7577  1.8333  1.6935
32924SOL     OW 4863   0.350   2.332   5.688 -0.1028 -0.2856 -0.6094
32924SOL    HW1 4864   0.261   2.334   5.724  0.0163  0.7227 -0.3478
32924SOL    HW2 4865   0.367   2.239   5.672 -0.4882 -0.6790  1.1275
32925SOL     OW 4866   0.509   3.474  10.542  0.1375 -0.1267 -0.0553
32925SOL    HW1 4867   0.563   3.508  10.472 -0.5987  2.8057  0.6814
32925SOL    HW2 4868   0.512   3.379  10.530  2.9686  0.0615 -1.7957
32926SOL     OW 4869   4.742   2.306   3.875 -0.4544  0.2691  0.1808
32926SOL    HW1 4870   4.662   2.348   3.905  0.0232  0.6797  0.9223
32926SOL    HW2 4871   4.787   2.374   3.824 -0.4546  0.1276 -0.0092
32927SOL     OW 4872   4.568   9.836   9.228  0.2584 -0.4425 -0.0606
32927SOL    HW1 4873   4.583   9.896   9.155  1.1725 -1.8740 -1.1044
32927SOL    HW2 4874   4.522   9.761   9.189  1.4673 -1.5892  0.6450
32928SOL     OW 4875   7.926   1.228  10.237  0.0811  0.6828  0.2645
32928SOL    HW1 4876   7.849   1.242  10.291 -1.3693 -0.3049 -1.4351
32928SOL    HW2 4877   7.959   1.142  10.265  1.9999  2.0575  2.5571
32929SOL     OW 4878   9.212  10.430   7.445 -0.5630  0.4380 -0.4293
32929SOL    HW1 4879   9.295  10.456   7.485  0.2773  1.0751 -2.4326
32929SOL    HW2 4880   9.232  10.422   7.352 -2.5771 -0.2245 -0.8588
32930SOL     OW 4881   6.704   4.470   5.231 -0.0414 -0.5129  0.1741
32930SOL    HW1 4882   6.712   4.386   5.185  1.0882 -0.9104  1.0209
32930SOL    HW2 4883   6.635   4.455   5.295  0.3568 -0.9189  0.5225
32931SOL     OW 4884   1.761   4.020   5.303  0.1329 -0.2517 -0.6190
32931SOL    HW1 4885   1.676   4.050   5.268 -1.2203 -3.3486 -0.3490
32931SOL    HW2 4886   1.782   3.943   5.249  2.3437 -0.0765 -0.0695
32932SOL     OW 4887   0.238   0.854   9.130 -0.3908 -0.0800  0.0148
32932SOL    HW1 4888   0.213   0.849   9.038 -0.1249  1.4292 -0.1669
32932SOL    HW2 4889   0.186   0.926   9.165 -2.7219 -2.4587  1.8307
32933SOL     OW 4890   7.967   6.227   1.176 -0.0032  0.2519  0.8394
32933SOL    HW1 4891   7.962   6.307   1.228 -1.6292  2.8610 -2.8460
32933SOL    HW2 4892   7.883   6.183   1.190 -0.2434  0.6909  0.7803
32934SOL     OW 4893   4.134   6.033   9.508 -0.4292 -0.3335  0.1299
32934SOL    HW1 4894   4.091   6.077   9.581 -0.5149  0.5678 -0.4462
32934SOL    HW2 4895   4.115   6.088   9.432 -1.4203 -1.9203 -0.8287
32935SOL     OW 4896   9.045   3.523   1.694 -0.1834 -0.1576 -0.1467
32935SOL    HW1 4897   8.966   3.576   1.692 -1.3647 -1.8353 -0.0396
32935SOL    HW2 4898   9.053   3.494   1.785  1.6778  1.5127  0.3038
32936SOL     OW 4899   2.922   2.264   0.805  0.0282 -0.1357 -0.3886
32936SOL    HW1 4900   2.864   2.194   0.773 -2.7106  0.1940  3.2956
32936SOL    HW2 4901   2.876   2.345   0.784 -0.2240  0.2061  1.3560
32937SOL     OW 4902   4.378  10.037   0.318 -0.1867  0.3365 -0.4295
32937SOL    HW1 4903   4.423  10.104   0.371 -0.6125  2.2186 -2.3484
32937SOL    HW2 4904   4.323   9.991   0.381  1.0359  0.9577  1.1782
32938SOL     OW 4905   9.426   7.231   4.645 -0.2063  0.2576 -0.1289
32938SOL    HW1 4906   9.434   7.227   4.740  1.9831  0.3239 -0.2485
32938SOL    HW2 4907   9.498   7.177   4.613 -0.7453  0.4595 -1.7505
32939SOL     OW 4908   9.706   2.898   3.779  0.5734 -0.6093  0.2486
32939SOL    HW1 4909   9.652   2.976   3.766  0.7964 -0.5433 -0.2813
32939SOL    HW2 4910   9.661   2.830   3.730  1.6988 -0.2353 -1.3519
32940SOL     OW 4911   9.496   9.129   2.447  0.4894 -0.4950 -0.2075
32940SOL    HW1 4912   9.541   9.051   2.481  3.0481  1.2753  0.7326
32940SOL    HW2 4913   9.565   9.180   2.405 -1.4006  0.6100 -2.1418
32941SOL     OW 4914   6.760   0.004   3.524  0.2758  0.3778  0.3146
32941SOL    HW1 4915   6.760   0.021   3.430 -1.5128  1.8409  0.5169
32941SOL    HW2 4916   6.681  -0.047   3.539  1.1060 -0.7624  0.9127
32942SOL     OW 4917   4.534   8.832   1.465  0.3436 -0.5103 -0.1224
32942SOL    HW1 4918   4.560   8.871   1.549  0.8742 -0.7253 -0.1813
32942SOL    HW2 4919   4.593   8.873   1.401 -1.2078  0.9788 -0.6703
32943SOL     OW 4920   8.276   3.596   9.661  0.2569  0.5231 -0.2467
32943SOL    HW1 4921   8.188   3.557   9.655  0.2429  0.3154  0.9415
32943SOL    HW2 4922   8.313   3.559   9.741  1.3586  0.7723 -0.6220
32944SOL     OW 4923   9.879   9.298   0.820  0.3997 -0.3462 -0.3861
32944SOL    HW1 4924   9.975   9.302   0.810  0.1633  0.4651 -3.2850
32944SOL    HW2 4925   9.846   9.357   0.752 -2.2012 -1.6997 -0.3982
32945SOL     OW 4926   8.744   8.855   1.614 -0.4403 -0.2036  0.1162
32945SOL    HW1 4927   8.696   8.933   1.586 -0.0190  0.3714  0.9480
32945SOL    HW2 4928   8.684   8.810   1.674 -0.6465 -0.4755 -0.2901
32946SOL     OW 4929   2.479  10.641   6.036 -0.4552 -0.1764 -0.4755
32946SOL    HW1 4930   2.545  10.623   6.103 -1.0130  0.1901  0.1884
32946SOL    HW2 4931   2.467  10.736   6.039 -2.0903 -0.3775  0.4812
32947SOL     OW 4932   1.289   1.151   4.350  0.6800 -0.2885 -0.2779
32947SOL    HW1 4933   1.273   1.207   4.274 -0.3415 -1.5767 -1.0650
32947SOL    HW2 4934   1.256   1.200   4.424 -0.9622 -0.1609 -1.0610
32948SOL     OW 4935   3.539   6.148   8.215 -0.0632  0.2635 -0.2025
32948SOL    HW1 4936   3.574   6.123   8.301 -1.0435 -0.8181 -0.0920
32948SOL    HW2 4937   3.499   6.234   8.230 -2.0538 -0.7855  0.9937
32949SOL     OW 4938   5.260   4.227  10.277  0.1739 -0.0772 -0.4879
32949SOL    HW1 4939   5.180   4.190  10.315  1.8260 -1.7895  1.6056
32949SOL    HW2 4940   5.271   4.180  10.195 -0.7589 -0.1156 -0.5996
32950SOL     OW 4941   5.412   8.636   0.049 -0.3760 -0.3849 -0.1223
32950SOL    HW1 4942   5.421   8.611  -0.043 -0.6173 -4.0473  0.6759
32950SOL    HW2 4943   5.318   8.646   0.062 -0.5477 -2.1023  0.1493
32951SOL     OW 4944  10.306  10.212   0.903  0.3655  0.1175 -0.0209
32951SOL    HW1 4945  10.328  10.234   0.993  4.0471  2.8953 -1.3593
32951SOL    HW2 4946  10.253  10.285   0.871  1.4740  0.5911 -0.8432
32952SOL     OW 4947   0.868   8.044   1.723 -0.2084 -0.4684 -0.4548
32952SOL    HW1 4948   0.813   8.098   1.668  0.2754 -0.4636 -0.9408
32952SOL    HW2 4949   0.813   7.970   1.748 -0.6626 -0.0856 -0.3264
32953SOL     OW 4950   2.263   6.909   9.453  0.5514  0.0473 -0.2873
32953SOL    HW1 4951   2.256   6.896   9.548 -0.0500 -0.8677 -0.4476
32953SOL    HW2 4952   2.223   6.831   9.415 -1.5349  1.5312 -1.3191
32954SOL     OW 4953   4.000   6.609   2.602  0.3766  0.4409  0.5951
32954SOL    HW1 4954   4.003   6.625   2.508 -0.2502 -0.2664  0.4476
32954SOL    HW2 4955   4.038   6.688   2.641  1.9474  0.1476 -0.2855
32955SOL     OW 4956   7.732   3.002   0.685 -0.6376  0.3549 -0.0176
32955SOL    HW1 4957   7.675   2.966   0.753 -0.2166  1.3737  0.9053
32955SOL    HW2 4958   7.693   3.086   0.664  1.3738  1.8736  1.8641
32956SOL     OW 4959   7.395   6.136   8.276 -0.3244  0.2095 -1.0127
32956SOL    HW1 4960   7.378   6.094   8.360 -1.0204  1.8557 -0.2944
32956SOL    HW2 4961   7.490   6.129   8.265 -0.2806 -0.4172 -0.3288
32957SOL     OW 4962   1.563   5.870   7.956  0.0022 -0.4846  0.3101
32957SOL    HW1 4963   1.658   5.875   7.971  0.5842 -2.9602 -1.7734
32957SOL    HW2 4964   1.541   5.779   7.976 -1.5353 -0.4888 -1.1888
32958SOL     OW 4965   1.701   3.718   2.494 -0.2751 -0.0857 -0.0418
32958SOL    HW1 4966   1.688   3.624   2.477  1.0873 -0.2942 -0.0409
32958SOL    HW2 4967   1.625   3.760   2.454 -0.5740 -1.1477 -0.6330
32959SOL     OW 4968   3.857   0.414   4.768 -0.1462 -0.2754 -0.4226
32959SOL    HW1 4969   3.826   0.446   4.853 -1.0505 -1.3077 -0.3508
32959SOL    HW2 4970   3.950   0.396   4.782  0.0826  1.0464 -0.1046
32960SOL     OW 4971   4.556   6.595   9.117 -0.2562  0.0757  0.1479
32960SOL    HW1 4972   4.505   6.517   9.136 -2.9617  1.5718 -0.4185
32960SOL    HW2 4973   4.568   6.593   9.022 -1.3847  0.8650 -0.0403
32961SOL     OW 4974   1.960   2.027   0.459 -0.4913  0.5997  0.7521
32961SOL    HW1 4975   2.000   2.051   0.542  2.4012 -0.7663 -0.0988
32961SOL    HW2 4976   1.906   1.951   0.479  1.4021 -0.6793  1.2005
32962SOL     OW 4977   6.997   3.356   9.832  0.0292  0.3540 -0.1247
32962SOL    HW1 4978   6.935   3.373   9.903 -0.1143 -0.4687 -0.0451
32962SOL    HW2 4979   6.963   3.278   9.789 -0.1628  1.1270 -1.4241
32963SOL     OW 4980   3.818   3.920   6.907 -1.0284 -0.1458 -0.5368
32963SOL    HW1 4981   3.805   3.826   6.918 -0.3071 -0.1540  0.3690
32963SOL    HW2 4982   3.782   3.939   6.821 -1.2669 -1.2339 -0.6944
32964SOL     OW 4983   7.997   1.002   5.920 -0.3421  0.2402 -0.9992
32964SOL    HW1 4984   8.026   0.966   5.836  2.1868 -0.1417 -0.0346
32964SOL    HW2 4985   7.962   1.089   5.898  0.2678  0.1453 -2.4448
32965SOL     OW 4986  10.130   1.290   9.496  0.1394 -0.2802 -0.7585
32965SOL    HW1 4987  10.203   1.251   9.545 -0.1296  0.0420 -0.0921
32965SOL    HW2 4988  10.124   1.379   9.529 -1.2345 -0.6169 -0.0142
32966SOL     OW 4989   5.700   0.833   1.548 -0.1274 -0.2296  0.4202
32966SOL    HW1 4990   5.729   0.852   1.459  0.4304 -0.7549  0.4834
32966SOL    HW2 4991   5.765   0.876   1.604 -0.8149  0.6153  0.5839
32967SOL     OW 4992   5.521   7.665   5.018 -0.9390  0.4479 -0.7721
32967SOL    HW1 4993   5.515   7.570   5.031 -1.3304  0.1850 -2.6567
32967SOL    HW2 4994   5.609   7.678   4.983 -1.4823  0.5584 -2.1193
32968SOL     OW 4995   9.595   4.918   8.633 -0.1585 -0.0570  0.5629
32968SOL    HW1 4996   9.648   4.942   8.708 -0.6336  1.2736  0.4943
32968SOL    HW2 4997   9.507   4.904   8.668 -0.6083  1.5476  0.1379
32969SOL     OW 4998   7.502   7.404   4.561 -0.0393 -0.4063 -0.7683
32969SOL    HW1 4999   7.411   7.380   4.579 -0.0955 -0.5536 -1.2296
32969SOL    HW2 5000   7.511   7.392   4.466  0.6108 -0.9055 -0.6422
32970SOL     OW 5001   6.839   0.936   5.260  0.4494  0.0923  0.0069
32970SOL    HW1 5002   6.887   0.898   5.334 -1.1777  1.3497  1.8217
32970SOL    HW2 5003   6.833   0.865   5.196  1.3848 -1.2543  1.3396
32971SOL     OW 5004   1.766  10.507   5.807 -0.1084 -0.0571  0.4708
32971SOL    HW1 5005   1.860  10.496   5.821  0.2464  0.8034 -1.0655
32971SOL    HW2 5006   1.737  10.423   5.772  0.5632  0.3762 -1.2403
32972SOL     OW 5007   4.123   7.671   3.460  0.6183  0.2124 -0.2944
32972SOL    HW1 5008   4.099   7.588   3.418  2.3228  0.8545 -2.7607
32972SOL    HW2 5009   4.218   7.670   3.461  0.6414  1.4469  1.1975
32973SOL     OW 5010   3.795   9.435  10.109 -0.5706  0.1537 -0.0367
32973SOL    HW1 5011   3.780   9.351  10.151  0.2518  0.1349  0.2454
32973SOL    HW2 5012   3.888   9.434  10.085 -0.8928  0.3825 -1.3811
32974SOL     OW 5013   5.006   5.845   5.615 -0.7624 -0.0888 -0.3329
32974SOL    HW1 5014   5.101   5.858   5.608 -0.8199 -0.0993 -1.1727
32974SOL    HW2 5015   4.974   5.928   5.652 -0.6881  0.8569 -2.2624
32975SOL     OW 5016   8.586   0.758   3.342  0.0134  0.8057  0.3061
32975SOL    HW1 5017   8.588   0.681   3.398 -1.3049  0.5579  0.0541
32975SOL    HW2 5018   8.677   0.772   3.316  0.0669 -1.7175 -1.0936
32976SOL     OW 5019  10.699   6.723   6.992 -0.4237  0.4199  0.5346
32976SOL    HW1 5020  10.607   6.700   6.989 -0.0363 -1.1548 -1.1793
32976SOL    HW2 5021  10.737   6.664   7.057 -0.5832  0.9910  1.1574
32977SOL     OW 5022   2.467   8.522   6.539 -0.2902 -0.5034  0.5014
32977SOL    HW1 5023   2.522   8.600   6.550  1.0086 -1.2621 -0.3151
32977SOL    HW2 5024   2.513   8.453   6.586 -0.4449 -1.1919 -0.3255
32978SOL     OW 5025   7.357   3.310  10.478 -0.0301 -0.2030  0.3298
32978SOL    HW1 5026   7.428   3.261  10.437 -0.4415 -0.4431 -0.1134
32978SOL    HW2 5027   7.399   3.361  10.547  0.6175 -0.1066 -0.1249
32979SOL     OW 5028   8.233   8.523   2.689 -0.0866  0.5016  0.4834
32979SOL    HW1 5029   8.246   8.435   2.725 -0.0700  0.2773 -0.0633
32979SOL    HW2 5030   8.258   8.582   2.761  2.9298  0.1117 -0.1036
32980SOL     OW 5031   1.026  10.253   9.201 -0.0711 -0.1841  0.1774
32980SOL    HW1 5032   0.935  10.253   9.170 -0.2024 -1.1948  0.5016
32980SOL    HW2 5033   1.064  10.173   9.164  0.2605 -0.5186  1.1899
32981SOL     OW 5034   2.608   8.911   0.791 -0.1268  0.1608 -0.1066
32981SOL    HW1 5035   2.524   8.923   0.745 -2.2062  0.3207  3.3899
32981SOL    HW2 5036   2.618   8.990   0.844  1.1566 -0.7809  1.1251
32982SOL     OW 5037   7.000   1.594   2.263 -0.0853 -0.1334  0.0800
32982SOL    HW1 5038   6.964   1.605   2.351 -0.6678  0.2445 -0.2056
32982SOL    HW2 5039   7.083   1.547   2.277 -0.9648 -1.5722  0.6904
32983SOL     OW 5040   6.670   2.313   9.845  0.0347  0.0149  0.5757
32983SOL    HW1 5041   6.672   2.220   9.822 -2.0305  0.5138 -2.0841
32983SOL    HW2 5042   6.600   2.319   9.911  0.2696 -0.3038  0.8599
32984SOL     OW 5043   3.635   5.915   8.881  0.1303 -0.4787 -0.1878
32984SOL    HW1 5044   3.551   5.957   8.862  0.2403  0.1789  0.7128
32984SOL    HW2 5045   3.629   5.890   8.974  0.9946 -0.2748 -0.0682
32985SOL     OW 5046   5.895   1.617   6.370 -0.0357  0.1028  0.6003
32985SOL    HW1 5047   5.822   1.578   6.322 -0.2061 -1.2954  1.8816
32985SOL    HW2 5048   5.858   1.640   6.455  0.5587  1.2803  0.5554
32986SOL     OW 5049   3.993   7.273   6.615 -0.2346 -0.2140 -0.3910
32986SOL    HW1 5050   3.918   7.224   6.580 -0.6158 -1.2568  1.7027
32986SOL    HW2 5051   4.070   7.231   6.576 -0.6619  0.5252 -2.1438
32987SOL     OW 5052   3.204   4.480   5.130 -0.3970  0.3427 -0.0345
32987SOL    HW1 5053   3.121   4.514   5.164 -0.7149 -0.3345 -0.1175
32987SOL    HW2 5054   3.182   4.443   5.045  0.0769  0.5350 -0.2472
32988SOL     OW 5055   6.420   0.367   1.498 -0.5281 -0.3613 -0.2203
32988SOL    HW1 5056   6.354   0.357   1.429 -0.1531 -0.9204 -0.5160
32988SOL    HW2 5057   6.437   0.461   1.502 -0.2128 -0.3545 -1.2374
32989SOL     OW 5058   5.742   8.783  10.268 -0.2352 -0.1418  0.7238
32989SOL    HW1 5059   5.758   8.717  10.335  3.1736  1.1475  1.3437
32989SOL    HW2 5060   5.702   8.856  10.316  1.1039  0.3194  1.1772
32990SOL     OW 5061   6.214  10.736   7.612 -0.2816 -0.5144 -0.3134
32990SOL    HW1 5062   6.246  10.679   7.542 -0.9042 -0.2410 -0.8347
32990SOL    HW2 5063   6.164  10.804   7.566 -0.4494 -0.1644  0.3790
32991SOL     OW 5064  10.142   0.874   0.639  0.3648  0.0519  0.7663
32991SOL    HW1 5065  10.049   0.849   0.637  0.1671  0.6386 -2.5803
32991SOL    HW2 5066  10.144   0.953   0.694 -1.3007  0.5605  0.1707
32992SOL     OW 5067   1.260   5.257   6.507  0.7717  0.2224  0.0206
32992SOL    HW1 5068   1.285   5.243   6.598  0.0926 -0.5983  0.0928
32992SOL    HW2 5069   1.209   5.338   6.509 -3.1754 -1.9957  1.2252
32993SOL     OW 5070   4.754   3.286   5.730  0.4591 -0.0236  0.1896
32993SOL    HW1 5071   4.786   3.360   5.679 -0.5238  1.0375  1.0643
32993SOL    HW2 5072   4.783   3.209   5.681  0.5634  0.9384 -1.3165
32994SOL     OW 5073   0.596   0.481   9.953  0.0486  0.0935 -0.3201
32994SOL    HW1 5074   0.590   0.508   9.862  2.4544 -0.8714 -0.8238
32994SOL    HW2 5075   0.582   0.561  10.003 -0.0090  0.8825 -1.5678
32995SOL     OW 5076   9.833   1.004   4.361 -0.4062 -0.5204  0.0075
32995SOL    HW1 5077   9.909   1.010   4.420 -0.4703  2.0326 -0.0927
32995SOL    HW2 5078   9.785   0.927   4.393  1.6318 -1.5881  0.7261
32996SOL     OW 5079   8.678   6.393   7.244  0.0145 -0.3920  0.0765
32996SOL    HW1 5080   8.710   6.483   7.254 -0.3608 -0.2778  0.2526
32996SOL    HW2 5081   8.637   6.373   7.328 -0.9897 -0.2956 -0.3832
32997SOL     OW 5082   4.945   3.738   9.885 -0.2931  0.2502 -0.0132
32997SOL    HW1 5083   4.966   3.831   9.892  2.1577 -0.2734  0.3616
32997SOL    HW2 5084   4.852   3.736   9.863 -0.1865  2.7988 -0.9793
32998SOL     OW 5085   1.723   0.161   8.253 -0.0974  0.3987 -0.0789
32998SOL    HW1 5086   1.658   0.230   8.241 -0.0238  0.7144  1.2371
32998SOL    HW2 5087   1.677   0.093   8.302  0.7837  1.0202  1.6838
32999SOL     OW 5088   5.108   9.034   0.801 -0.4953 -0.4526  0.2314
32999SOL    HW1 5089   5.014   9.040   0.820 -0.7062  0.7457 -1.0236
32999SOL    HW2 5090   5.149   9.025   0.886 -1.7779 -1.5131  0.7751
33000SOL     OW 5091   4.529   0.786   1.508 -0.0058  0.4818  0.2015
33000SOL    HW1 5092   4.443   0.757   1.479 -0.5408  2.3490 -0.2747
33000SOL    HW2 5093   4.510   0.850   1.577  1.0108  0.6368  0.3458
33001SOL     OW 5094   8.187   2.824   1.672 -0.1910  0.2856 -0.0681
33001SOL    HW1 5095   8.184   2.769   1.593  1.3398  0.0837 -0.0096
33001SOL    HW2 5096   8.257   2.887   1.654  0.8842 -0.4127  1.5440
33002SOL     OW 5097   3.634   9.387   9.888 -0.1410 -0.5501 -0.4269
33002SOL    HW1 5098   3.589   9.453   9.835 -3.2244 -2.0024  0.1259
33002SOL    HW2 5099   3.672   9.437   9.961 -1.1124  0.7836 -0.7835
33003SOL     OW 5100   0.381   6.872   6.974  0.7601 -0.1991  0.1314
33003SOL    HW1 5101   0.463   6.915   6.951  0.6863  0.2788  0.7452
33003SOL    HW2 5102   0.394   6.781   6.947  2.0519 -0.4738  1.5211
33004SOL     OW 5103   0.893   9.847   5.045 -0.1079  0.1239 -0.4861
33004SOL    HW1 5104   0.800   9.851   5.067 -0.5220 -1.0434 -1.8690
33004SOL    HW2 5105   0.933   9.799   5.118 -0.4431  1.1525  0.4149
33005SOL     OW 5106   4.402   0.301  10.639  0.0423  0.4104  0.0212
33005SOL    HW1 5107   4.336   0.356  10.595  0.6956  0.8043 -0.4778
33005SOL    HW2 5108   4.468   0.363  10.671  1.2777 -0.1335 -1.3855
33006SOL     OW 5109   7.853  10.586   8.935 -0.0137 -0.3678 -0.3753
33006SOL    HW1 5110   7.946  10.590   8.912  0.1749  0.5836  0.4649
33006SOL    HW2 5111   7.850  10.612   9.027 -0.8434 -2.9523  0.4212
33007SOL     OW 5112   6.714   0.179   5.816  0.5295 -0.3431  0.3364
33007SOL    HW1 5113   6.793   0.150   5.769  0.3641  0.0700 -0.2162
33007SOL    HW2 5114   6.736   0.267   5.846  1.1923 -1.1611  2.3858
33008SOL     OW 5115   7.154   9.917   0.958 -0.3104  0.4715 -0.1361
33008SOL    HW1 5116   7.154   9.994   0.900 -1.7193  0.1233 -0.6452
33008SOL    HW2 5117   7.085   9.861   0.922 -0.6888 -0.1069  1.4353
33009SOL     OW 5118   5.915   3.129   4.742 -0.2311 -0.2438  0.1798
33009SOL    HW1 5119   5.994   3.173   4.772 -1.5747  2.3117  0.3111
33009SOL    HW2 5120   5.864   3.115   4.822 -1.4764  1.6216 -0.2228
33010SOL     OW 5121   2.418   4.858   8.366  0.5154  0.1620 -0.5577
33010SOL    HW1 5122   2.457   4.927   8.420 -0.4646  0.2942 -0.0056
33010SOL    HW2 5123   2.471   4.858   8.286  1.5462  0.4336  0.1026
33011SOL     OW 5124   9.293   0.314   1.935  0.0004 -0.0651  0.1165
33011SOL    HW1 5125   9.227   0.244   1.939  0.2941 -0.2862  1.4020
33011SOL    HW2 5126   9.346   0.302   2.014  1.1404  0.5517 -0.5281
33012SOL     OW 5127   9.520   3.482   2.764 -0.1549  0.5377  0.8022
33012SOL    HW1 5128   9.462   3.406   2.760  0.7750 -0.1556  0.1758
33012SOL    HW2 5129   9.511   3.513   2.854  0.0826 -0.8318  1.3237
33013SOL     OW 5130   1.539   9.354   8.368  0.4234  0.1155  0.2097
33013SOL    HW1 5131   1.479   9.424   8.393 -0.9459 -1.5348  1.7530
33013SOL    HW2 5132   1.505   9.322   8.284 -1.4923 -1.4196  1.5100
33014SOL     OW 5133   6.798   0.325   7.732  0.4217  0.2865  0.0357
33014SOL    HW1 5134   6.716   0.357   7.696  0.3647  0.7783  0.5904
33014SOL    HW2 5135   6.774   0.290   7.818  1.0628  2.0190  0.9559
33015SOL     OW 5136   0.038   3.145   5.514 -0.0719 -0.1487 -0.1306
33015SOL    HW1 5137   0.040   3.193   5.431 -1.4373  2.0312  1.0133
33015SOL    HW2 5138  -0.051   3.110   5.521  0.4379 -1.5340 -0.1845
33016SOL     OW 5139   9.404   3.222   0.540 -0.7326  0.3394  0.4923
33016SOL    HW1 5140   9.442   3.190   0.458  0.4520 -1.0182  1.5170
33016SOL    HW2 5141   9.399   3.316   0.529  0.3858  0.2864 -0.7573
33017SOL     OW 5142   7.392   7.488   3.696  0.3702  0.1509  0.2238
33017SOL    HW1 5143   7.303   7.506   3.728 -0.0376  1.4075 -1.4602
33017SOL    HW2 5144   7.378   7.437   3.616  1.1978  0.0804  0.1201
33018SOL     OW 5145   4.675   4.059   4.881 -0.3274 -0.2278 -0.0733
33018SOL    HW1 5146   4.586   4.065   4.845 -0.1249  0.1691 -0.5147
33018SOL    HW2 5147   4.730   4.042   4.805 -0.1286 -1.3865  0.3223
33019SOL     OW 5148   4.658   8.526   8.655  0.4910  0.0187 -0.4755
33019SOL    HW1 5149   4.562   8.524   8.656  0.4951 -0.2203 -0.4694
33019SOL    HW2 5150   4.683   8.532   8.747  0.4978 -0.9597 -0.4056
33020SOL     OW 5151   0.607   2.052   6.101 -0.2276 -0.5113  0.6034
33020SOL    HW1 5152   0.671   2.114   6.137 -1.1803  1.2402 -0.5782
33020SOL    HW2 5153   0.652   2.011   6.028  0.1488 -0.6645  0.9132
33021SOL     OW 5154   3.470   1.145   1.310 -0.5509 -0.2897 -0.1349
33021SOL    HW1 5155   3.450   1.225   1.359  0.9838  0.1056 -0.0760
33021SOL    HW2 5156   3.557   1.119   1.342 -1.0826 -2.0972 -0.0178
33022SOL     OW 5157   9.511   5.594   5.169  0.5387  0.0285  0.3092
33022SOL    HW1 5158   9.464   5.597   5.252  1.3266 -0.5650  0.7829
33022SOL    HW2 5159   9.555   5.509   5.169  1.2736  0.4024 -0.3138
33023SOL     OW 5160   7.483   1.010   7.096  0.0193  0.3467  0.3000
33023SOL    HW1 5161   7.522   1.054   7.172 -0.5775  0.2907  0.6508
33023SOL    HW2 5162   7.389   1.031   7.102 -0.1796 -0.4480  0.1198
33024SOL     OW 5163   4.968   5.454   4.018  0.1257  0.5559 -0.1057
33024SOL    HW1 5164   5.042   5.460   4.078 -0.2094  0.2629  0.3404
33024SOL    HW2 5165   4.925   5.540   4.024  1.6491  1.5375 -1.9923
33025SOL     OW 5166   0.599   7.497  10.593 -0.4562  0.6134 -0.1147
33025SOL    HW1 5167   0.681   7.505  10.642 -2.4586 -0.1641  3.7308
33025SOL    HW2 5168   0.603   7.409  10.555  0.4529  0.5220  0.1562
33026SOL     OW 5169   1.055   2.891   0.606  0.0542  0.4345  0.1334
33026SOL    HW1 5170   0.985   2.845   0.561  1.5357 -0.2389 -1.5913
33026SOL    HW2 5171   1.020   2.979   0.622 -1.2663  0.0284 -0.4378
33027SOL     OW 5172   8.899   8.314   6.836 -0.0686 -0.3763  0.4314
33027SOL    HW1 5173   8.873   8.402   6.865 -1.6868 -0.7281  0.1463
33027SOL    HW2 5174   8.984   8.326   6.794  0.7867  0.6855  2.3469
33028SOL     OW 5175   6.418   5.226   2.490  0.0204 -0.3151 -0.2447
33028SOL    HW1 5176   6.455   5.299   2.541  0.0086 -0.4463 -0.0460
33028SOL    HW2 5177   6.494   5.185   2.449  0.5876 -2.4744  2.5669
33029SOL     OW 5178   0.889   8.613   2.153 -0.2922 -0.5170  0.3878
33029SOL    HW1 5179   0.914   8.601   2.245 -0.8302 -0.2119  0.5794
33029SOL    HW2 5180   0.804   8.570   2.146 -1.2192  1.1993  0.5471
33030SOL     OW 5181  10.601  10.494   2.699 -0.5275  0.4827  0.1194
33030SOL    HW1 5182  10.638  10.577   2.728  0.2619  0.8139 -1.7109
33030SOL    HW2 5183  10.677  10.440   2.679 -1.0474 -0.3193  0.2831
33031SOL     OW 5184  10.047   3.593   2.542 -0.0410  0.3202 -0.4763
33031SOL    HW1 5185   9.997   3.563   2.618  0.0745 -0.6484 -0.7723
33031SOL    HW2 5186  10.024   3.686   2.533 -0.0900  0.4380  0.7079
33032SOL     OW 5187   4.123   1.670   5.219  0.2370  0.0547  0.3486
33032SOL    HW1 5188   4.219   1.679   5.214  0.0438  2.3558 -0.6079
33032SOL    HW2 5189   4.101   1.709   5.304 -0.0906  3.7367 -1.2167
33033SOL     OW 5190   7.222   3.023   8.848 -0.0318  0.4997 -0.1247
33033SOL    HW1 5191   7.250   3.083   8.917 -0.4300  1.5724 -0.8706
33033SOL    HW2 5192   7.179   3.079   8.784  0.5390 -0.4353 -1.3667
33034SOL     OW 5193   8.760   5.710   8.469 -0.7189 -0.1956 -0.3418
33034SOL    HW1 5194   8.710   5.633   8.441 -2.5197  0.8309 -0.1053
33034SOL    HW2 5195   8.729   5.780   8.411  2.0379  0.0861 -1.6255
33035SOL     OW 5196   2.329   4.479   1.766  0.2418  0.4593  0.0726
33035SOL    HW1 5197   2.290   4.480   1.678  1.9915 -0.9915 -0.7935
33035SOL    HW2 5198   2.289   4.403   1.809 -1.0910  1.5403  0.8095
33036SOL     OW 5199   0.162   2.898   0.080  0.0988 -0.4770 -0.3462
33036SOL    HW1 5200   0.106   2.974   0.064  1.9301  1.0155 -0.0108
33036SOL    HW2 5201   0.224   2.927   0.147  0.3607 -2.5500  0.3799
33037SOL     OW 5202   3.786   7.739   7.450 -0.0562 -0.1077  0.2094
33037SOL    HW1 5203   3.834   7.672   7.499  0.3730  0.6544  0.8554
33037SOL    HW2 5204   3.721   7.690   7.400 -0.8801 -0.9028  1.9509
33038SOL     OW 5205   3.273   6.531   0.475  0.5866 -0.0825 -0.0842
33038SOL    HW1 5206   3.303   6.561   0.390 -1.6934  0.7426 -0.6889
33038SOL    HW2 5207   3.178   6.521   0.465  0.1241  0.7463  2.5304
33039SOL     OW 5208   6.331   5.202  10.802  0.4861  0.0747  0.1566
33039SOL    HW1 5209   6.413   5.219  10.849  0.7232  0.6149 -0.4452
33039SOL    HW2 5210   6.345   5.239  10.715 -0.1491 -0.4469 -0.1721
33040SOL     OW 5211   2.984   2.695   2.751 -0.8905  0.8354 -0.0841
33040SOL    HW1 5212   3.003   2.610   2.791 -1.0353  0.7629 -0.1679
33040SOL    HW2 5213   2.890   2.692   2.731 -0.7487  0.7277 -0.7565
33041SOL     OW 5214   5.285   2.125   6.856 -0.5438 -0.1845 -0.8066
33041SOL    HW1 5215   5.208   2.073   6.880  0.1480 -0.8983 -0.1055
33041SOL    HW2 5216   5.309   2.092   6.769 -0.2932 -0.8368 -0.4976
33042SOL     OW 5217   1.028   9.285  10.233 -0.5466  0.0232  0.7728
33042SOL    HW1 5218   1.081   9.276  10.313 -1.8349  0.5399  1.7230
33042SOL    HW2 5219   0.948   9.327  10.263 -1.6204 -0.9990 -0.5756
33043SOL     OW 5220   0.984   7.052   8.502  0.2253 -0.1799 -0.1028
33043SOL    HW1 5221   1.029   6.979   8.544  1.0945  0.1165 -0.4872
33043SOL    HW2 5222   0.983   7.029   8.409 -0.2389 -0.0895 -0.1206
33044SOL     OW 5223   2.905   7.654   4.271  0.0914  0.3027 -0.2469
33044SOL    HW1 5224   2.856   7.634   4.351  0.5337  1.1569  0.2627
33044SOL    HW2 5225   2.922   7.570   4.230 -0.7036 -0.0966  0.2271
33045SOL     OW 5226   4.493   9.849   5.087 -0.1115 -0.0184  0.6428
33045SOL    HW1 5227   4.463   9.921   5.143  0.2126  1.2509 -0.7226
33045SOL    HW2 5228   4.437   9.775   5.109 -1.4515  1.0873  1.0870
33046SOL     OW 5229  10.347   7.913   4.715  0.3660 -0.1815 -0.0276
33046SOL    HW1 5230  10.256   7.885   4.715  0.6952 -1.4131  1.6743
33046SOL    HW2 5231  10.346   8.000   4.675 -1.8790  0.8427  2.0607
33047SOL     OW 5232   9.016   3.905  10.003 -0.2898 -0.3574 -0.0976
33047SOL    HW1 5233   8.985   3.995   9.997  1.9342  0.4846 -0.0474
33047SOL    HW2 5234   9.067   3.891   9.924  1.3063 -0.7349  0.9425
33048SOL     OW 5235   9.256   6.592   6.281  0.1357 -0.7248 -0.4113
33048SOL    HW1 5236   9.283   6.596   6.189  1.8335 -1.4997  0.0082
33048SOL    HW2 5237   9.329   6.634   6.328 -1.1828  0.6137  0.5230
33049SOL     OW 5238   7.285   3.351   3.540 -0.2309 -0.4234  0.3411
33049SOL    HW1 5239   7.321   3.425   3.589 -1.6375 -0.3669  1.3716
33049SOL    HW2 5240   7.198   3.338   3.578 -0.5542 -1.7228 -0.7727
33050SOL     OW 5241   6.571   3.484  10.682  0.3513 -0.2643  0.6960
33050SOL    HW1 5242   6.647   3.513  10.631 -1.1029  0.9263 -0.9244
33050SOL    HW2 5243   6.567   3.390  10.667  0.3833 -0.0470 -0.8801
33051SOL     OW 5244  10.888  10.013   9.206  0.0839 -0.1718  0.2522
33051SOL    HW1 5245  10.841  10.061   9.273  0.3621  0.9604 -0.3363
33051SOL    HW2 5246  10.848  10.041   9.123 -0.3978 -1.6976 -0.0629
33052SOL     OW 5247   3.785   5.132   8.633  0.1178  0.6007  0.0755
33052SOL    HW1 5248   3.695   5.124   8.603 -0.1347 -1.1315  1.1836
33052SOL    HW2 5249   3.825   5.195   8.573 -1.6624  0.9699 -0.7765
33053SOL     OW 5250   7.396   2.371   2.976  0.2226  0.3112 -0.0643
33053SOL    HW1 5251   7.454   2.439   2.940 -0.7595  0.9297 -0.5100
33053SOL    HW2 5252   7.425   2.360   3.067  0.7531  0.9224 -0.1526
33054SOL     OW 5253   7.944   3.521   9.919  0.1932  0.0830 -0.2144
33054SOL    HW1 5254   7.872   3.458   9.925 -0.3702  0.8200  1.0848
33054SOL    HW2 5255   7.960   3.530   9.825 -1.1843 -0.3503 -0.5104
33055SOL     OW 5256   2.682   9.769   4.670 -0.3651 -0.0421 -0.1771
33055SOL    HW1 5257   2.681   9.675   4.686 -0.0337 -0.3911 -1.9665
33055SOL    HW2 5258   2.726   9.779   4.585 -1.3364  1.6246 -0.5439
33056SOL     OW 5259   7.386   4.525   1.291  0.5171 -0.1597  0.3312
33056SOL    HW1 5260   7.469   4.523   1.242  1.2841 -2.5731  1.5591
33056SOL    HW2 5261   7.404   4.581   1.366  1.1661 -0.9081  0.7487
33057SOL     OW 5262   0.370   6.790   0.638 -0.5080  0.1824 -0.0996
33057SOL    HW1 5263   0.383   6.884   0.644 -2.0853  0.4344 -0.1504
33057SOL    HW2 5264   0.313   6.769   0.713  2.2995 -1.2783  1.8023
33058SOL     OW 5265   2.107   2.000   0.688 -0.2314  0.4543 -0.4586
33058SOL    HW1 5266   2.164   2.031   0.758 -0.2682  0.4874 -0.4429
33058SOL    HW2 5267   2.097   1.906   0.705 -0.8552  0.5968  0.0330
33059SOL     OW 5268   7.732   4.672  10.549 -0.5722 -0.0388  0.1221
33059SOL    HW1 5269   7.753   4.748  10.495 -1.5181  0.1217 -0.0477
33059SOL    HW2 5270   7.807   4.662  10.608  0.5997 -0.3785 -1.3699
33060SOL     OW 5271   1.252   2.320   9.426  0.2053  0.0516  0.1279
33060SOL    HW1 5272   1.180   2.275   9.382 -0.8655 -0.0183  1.8557
33060SOL    HW2 5273   1.324   2.256   9.424  0.3821  0.2459 -1.9014
33061SOL     OW 5274   0.072   1.374   7.185 -0.3004 -0.0642 -0.0469
33061SOL    HW1 5275   0.082   1.301   7.247  1.7295 -1.8053 -2.2240
33061SOL    HW2 5276   0.118   1.447   7.227 -3.0346  0.3858  2.5381
33062SOL     OW 5277   1.768   0.630   5.649 -0.1148 -0.2605  0.1022
33062SOL    HW1 5278   1.748   0.719   5.677  0.9596 -0.0066  0.0769
33062SOL    HW2 5279   1.824   0.595   5.718  1.0371 -0.2568 -0.8120
33063SOL     OW 5280   9.935   3.045   5.804 -0.6553 -0.4410  0.1954
33063SOL    HW1 5281   9.973   3.113   5.749 -0.0800 -1.7899 -1.1148
33063SOL    HW2 5282  10.010   3.008   5.851 -1.2921  2.0365  3.6553
33064SOL     OW 5283  10.561   1.464   8.609  0.5449 -0.1603  0.2719
33064SOL    HW1 5284  10.587   1.408   8.682  4.0854 -0.4594 -1.0174
33064SOL    HW2 5285  10.606   1.547   8.625  0.8680 -0.0222 -1.1874
33065SOL     OW 5286   0.168   5.413   6.770 -0.0591 -0.4509 -0.9300
33065SOL    HW1 5287   0.083   5.381   6.799 -0.1092  0.4424 -0.0252
33065SOL    HW2 5288   0.211   5.443   6.850  0.6734  0.0934 -1.5130
33066SOL     OW 5289   2.082   3.934   1.541  0.6340 -0.0895 -0.0043
33066SOL    HW1 5290   2.044   3.846   1.529 -0.5359  0.7281 -3.1447
33066SOL    HW2 5291   2.176   3.922   1.526  0.5068 -0.8340 -0.2689
33067SOL     OW 5292   9.287  10.646   6.871 -0.1183  0.4814 -0.5459
33067SOL    HW1 5293   9.344  10.571   6.854  0.0090  0.7278 -1.2288
33067SOL    HW2 5294   9.345  10.713   6.907 -0.4572 -0.1810  1.3574
33068SOL     OW 5295   4.670   4.603   2.917  0.0033  0.7120  0.0452
33068SOL    HW1 5296   4.663   4.596   3.012  1.3772  0.1013  0.1261
33068SOL    HW2 5297   4.731   4.676   2.903 -2.2445  2.6244 -0.4692
33069SOL     OW 5298   4.756   2.805  10.680 -0.2527  0.3785  0.1877
33069SOL    HW1 5299   4.850   2.789  10.677 -0.1531  1.0044 -0.1212
33069SOL    HW2 5300   4.739   2.837  10.769  0.1700  2.2882 -0.3785
33070SOL     OW 5301   4.856   6.368   9.844  0.4938  0.1732  0.0223
33070SOL    HW1 5302   4.774   6.346   9.800  1.0670  0.0725 -1.0236
33070SOL    HW2 5303   4.831   6.432   9.911 -0.3111  0.8227 -0.8720
33071SOL     OW 5304   7.812   0.177   3.163 -0.0648 -0.0338 -0.2678
33071SOL    HW1 5305   7.784   0.110   3.225  0.7041  0.7797  0.9999
33071SOL    HW2 5306   7.787   0.142   3.077 -2.7365 -0.4257  0.5706
33072SOL     OW 5307   8.661   0.862   4.126  0.4573 -0.0367 -0.0299
33072SOL    HW1 5308   8.726   0.795   4.149  1.0992  1.0027  1.3259
33072SOL    HW2 5309   8.599   0.861   4.199 -2.5592 -2.6351 -2.3053
33073SOL     OW 5310   8.308  10.322   1.587 -0.2681 -0.2914 -0.2520
33073SOL    HW1 5311   8.330  10.277   1.506 -0.3534  1.4611 -1.2852
33073SOL    HW2 5312   8.386  10.374   1.608 -0.7234  0.2732  0.0718
33074SOL     OW 5313   3.110   7.469   8.573 -0.2040  0.3730  0.0168
33074SOL    HW1 5314   3.117   7.457   8.478  1.7635  1.2392 -0.0017
33074SOL    HW2 5315   3.199   7.453   8.606 -0.2622  2.4489  1.3965
33075SOL     OW 5316   7.491   1.082   8.686  0.2724  0.1885  0.1528
33075SOL    HW1 5317   7.408   1.074   8.734  0.3451  0.6452  0.3677
33075SOL    HW2 5318   7.467   1.070   8.594  0.2020 -1.1659  0.3328
33076SOL     OW 5319   3.427   7.100   1.060  0.0020  0.5732 -0.0062
33076SOL    HW1 5320   3.419   7.024   1.118  0.8707  1.4113  1.2557
33076SOL    HW2 5321   3.432   7.062   0.972  2.1793 -0.9731  0.6842
33077SOL     OW 5322   1.648  10.371   5.054  0.1201  0.3946  0.0162
33077SOL    HW1 5323   1.700  10.442   5.091  0.8456 -0.1025 -0.0119
33077SOL    HW2 5324   1.558  10.401   5.060  0.3551  0.9987  0.6982
33078SOL     OW 5325   1.361   0.578   2.509  0.5242 -0.0517 -0.5916
33078SOL    HW1 5326   1.425   0.633   2.554 -1.5516  0.1683  2.4023
33078SOL    HW2 5327   1.358   0.497   2.560 -0.5626 -0.6196 -1.4994
33079SOL     OW 5328   4.985   6.604   7.375 -0.0982  0.3129  0.5935
33079SOL    HW1 5329   5.054   6.599   7.308  0.8669  1.6616  1.4380
33079SOL    HW2 5330   4.905   6.583   7.328  0.7029  0.0904 -0.7349
33080SOL     OW 5331   8.609   0.952   6.592 -0.3949 -1.1326  0.4398
33080SOL    HW1 5332   8.675   0.982   6.655 -0.9797  0.0984  0.5142
33080SOL    HW2 5333   8.558   1.031   6.572 -1.4553 -1.9188 -0.0783
33081SOL     OW 5334   2.383  10.485   9.221  0.4108  0.5236  0.5740
33081SOL    HW1 5335   2.376  10.495   9.316 -0.5692  1.7030  0.3927
33081SOL    HW2 5336   2.329  10.555   9.185  0.4307 -0.1680 -0.8636
33082SOL     OW 5337   2.365  10.710  10.659 -0.1039  0.1142 -0.6509
33082SOL    HW1 5338   2.374  10.782  10.596  1.1170  1.8681  1.3912
33082SOL    HW2 5339   2.356  10.753  10.744  3.5138 -2.0545  1.0691
33083SOL     OW 5340   1.357   7.919   3.883 -0.1201 -0.2285  0.7165
33083SOL    HW1 5341   1.324   7.995   3.835  0.7880 -0.8752 -1.0286
33083SOL    HW2 5342   1.451   7.936   3.892  0.2119 -1.4405 -0.3055
33084SOL     OW 5343   9.034   7.106   5.322  0.4934  0.4049  0.7492
33084SOL    HW1 5344   8.984   7.172   5.370 -2.1648 -0.3605 -0.7683
33084SOL    HW2 5345   9.020   7.025   5.371 -0.2735  0.0836  0.0286
33085SOL     OW 5346  10.486   4.762   7.275  0.1670 -0.4760 -0.8451
33085SOL    HW1 5347  10.438   4.830   7.321 -1.5976 -0.5052 -2.5159
33085SOL    HW2 5348  10.532   4.714   7.344  0.2672  1.4620  0.5025
33086SOL     OW 5349   8.629   8.862   5.599  0.2606 -0.2104  0.2444
33086SOL    HW1 5350   8.642   8.863   5.694  0.4085 -0.1885  0.2251
33086SOL    HW2 5351   8.569   8.935   5.582 -0.2414 -0.5842  0.3840
33087SOL     OW 5352   3.984   1.064   1.481 -0.7339  0.0620  0.4638
33087SOL    HW1 5353   3.956   1.071   1.572 -3.1206  3.2161 -0.3469
33087SOL    HW2 5354   4.068   1.109   1.478 -2.0903  2.8127  0.6919
33088SOL     OW 5355   4.775   7.335   8.952  0.4536  0.2326 -0.1356
33088SOL    HW1 5356   4.798   7.382   8.872  1.9028 -0.9815 -0.4708
33088SOL    HW2 5357   4.679   7.332   8.952  0.4273  0.6620 -1.5710
33089SOL     OW 5358  10.142   6.150   3.487  0.2534 -0.7895 -0.5283
33089SOL    HW1 5359  10.232   6.143   3.454  0.6934  1.3905  0.0836
33089SOL    HW2 5360  10.150   6.133   3.581  0.9530  4.0042  0.5125
33090SOL     OW 5361   5.633   6.327   1.394 -0.1083  0.0790 -0.1009
33090SOL    HW1 5362   5.671   6.374   1.468  0.9764 -1.2234  0.2108
33090SOL    HW2 5363   5.617   6.394   1.329  0.8606  0.9699  0.5410
33091SOL     OW 5364   7.144   6.303  10.731 -0.4846 -0.6812  0.3345
33091SOL    HW1 5365   7.179   6.392  10.740  0.8570 -1.2576  1.2019
33091SOL    HW2 5366   7.049   6.313  10.739 -0.3979  0.7320 -0.2206
33092SOL     OW 5367   4.223   3.761   5.840 -0.4319  0.3717  0.4659
33092SOL    HW1 5368   4.292   3.821   5.811 -0.0722  1.0226  2.4955
33092SOL    HW2 5369   4.255   3.674   5.815 -0.2373  0.8682 -1.1352
33093SOL     OW 5370   0.365   4.373   8.007 -0.2651  0.2735  0.1672
33093SOL    HW1 5371   0.438   4.357   8.067  0.5580  0.4674 -0.7534
33093SOL    HW2 5372   0.399   4.438   7.945 -2.0470  2.3570  1.2154
33094SOL     OW 5373   4.703   9.152  10.598  0.1082  0.1560 -0.4053
33094SOL    HW1 5374   4.703   9.185  10.508 -1.6688  0.0037 -0.4785
33094SOL    HW2 5375   4.714   9.058  10.588 -0.8737  0.0482 -0.5120
33095SOL     OW 5376   3.718   8.447  10.603 -0.0939  0.5005  0.7637
33095SOL    HW1 5377   3.686   8.356  10.602 -0.4211  0.5916  1.8180
33095SOL    HW2 5378   3.788   8.446  10.668  0.5841  0.7884  0.0403
33096SOL     OW 5379   3.279   7.820   6.201 -0.2651  0.3549 -0.7687
33096SOL    HW1 5380   3.295   7.816   6.107 -0.5581  2.0463 -0.9231
33096SOL    HW2 5381   3.358   7.858   6.238 -0.7138  1.0695 -0.5238
33097SOL     OW 5382   7.609   6.597   9.856 -0.4467 -0.1845  0.0574
33097SOL    HW1 5383   7.681   6.540   9.829 -0.8464 -0.2365 -0.9249
33097SOL    HW2 5384   7.553   6.604   9.779 -1.0761  0.5098  0.5603
33098SOL     OW 5385   3.077   0.518   5.320 -0.2191 -0.0057  0.5868
33098SOL    HW1 5386   3.162   0.562   5.314 -0.3109  0.3075  1.5466
33098SOL    HW2 5387   3.013   0.589   5.327 -0.5107 -0.2567  0.5236
33099SOL     OW 5388   8.697   2.576   2.177 -0.1654 -0.2580  0.1280
33099SOL    HW1 5389   8.701   2.583   2.273 -0.0203 -2.4221  0.3349
33099SOL    HW2 5390   8.607   2.598   2.155 -0.2773 -0.0265  0.7936
33100SOL     OW 5391   3.779   7.387   8.773 -0.4646  0.9377  1.0166
33100SOL    HW1 5392   3.854   7.339   8.807 -0.1786  0.6027 -0.0427
33100SOL    HW2 5393   3.733   7.324   8.717 -0.0343  1.8652 -0.4589
33101SOL     OW 5394   6.320   1.318   2.828 -0.1402  0.3046  0.6028
33101SOL    HW1 5395   6.310   1.276   2.914 -2.5117 -1.7599 -0.5635
33101SOL    HW2 5396   6.408   1.291   2.799 -0.5793 -1.7911  1.0289
33102SOL     OW 5397   4.363   3.515   5.026  0.5976  0.6694  0.0804
33102SOL    HW1 5398   4.328   3.462   5.096 -1.2670 -1.0524 -2.0149
33102SOL    HW2 5399   4.297   3.583   5.011  0.0664 -0.0734 -1.1391
33103SOL     OW 5400   2.933   3.362   1.164  0.4302 -0.7959 -0.0868
33103SOL    HW1 5401   2.839   3.367   1.177  0.5071  0.6800  0.0309
33103SOL    HW2 5402   2.971   3.397   1.244  1.0512 -0.2153 -0.6212
33104SOL     OW 5403   9.703   2.998   8.749 -0.1272  0.1344  0.1241
33104SOL    HW1 5404   9.733   3.074   8.798  3.1968 -0.1685 -1.1680
33104SOL    HW2 5405   9.683   3.032   8.662  1.6661 -0.4142 -0.5520
33105SOL     OW 5406   0.337   6.180  10.773 -0.9175  0.1738 -0.1146
33105SOL    HW1 5407   0.331   6.275  10.761  0.5349  0.1830 -0.9750
33105SOL    HW2 5408   0.288   6.144  10.699  0.0613  0.2568 -0.8102
33106SOL     OW 5409   5.903   2.471   0.102  0.2340 -0.4231 -0.1465
33106SOL    HW1 5410   5.928   2.488   0.010  1.7109 -0.4625  0.2124
33106SOL    HW2 5411   5.873   2.556   0.134 -1.0841 -0.5817 -0.8707
33107SOL     OW 5412   2.045   4.911   2.877  0.2032 -0.2239  0.9682
33107SOL    HW1 5413   1.964   4.865   2.853 -0.5830  0.6126  1.8912
33107SOL    HW2 5414   2.115   4.855   2.844 -0.7241 -1.6014  1.2067
33108SOL     OW 5415   6.400   9.407   9.464  0.1564  0.3031 -0.4101
33108SOL    HW1 5416   6.381   9.452   9.382 -2.1024  1.7499  0.7974
33108SOL    HW2 5417   6.355   9.323   9.457  3.0405 -1.2991 -2.0106
33109SOL     OW 5418   0.932   8.266   6.054 -0.3703  0.5482  0.2758
33109SOL    HW1 5419   0.923   8.335   5.988  1.1873 -0.4007 -0.9728
33109SOL    HW2 5420   0.868   8.200   6.028 -1.1120  1.0047  0.8674
33110SOL     OW 5421   4.919   1.729   4.844 -0.3080  0.6335 -0.5166
33110SOL    HW1 5422   4.877   1.678   4.914  0.5704  0.2475 -0.2645
33110SOL    HW2 5423   4.939   1.666   4.776  2.1131  0.3050  0.3975
33111SOL     OW 5424   0.087   9.809   7.956  0.0354  0.4541 -0.3110
33111SOL    HW1 5425   0.127   9.842   8.036  0.0049  3.1540 -1.2935
33111SOL    HW2 5426   0.020   9.748   7.986  0.7961  0.5030  1.6411
33112SOL     OW 5427   1.758   0.305   6.462 -0.1996 -0.4426 -0.4013
33112SOL    HW1 5428   1.841   0.340   6.495 -0.3402 -2.4169  2.4681
33112SOL    HW2 5429   1.707   0.382   6.438 -0.2903  1.5670  4.8783
33113SOL     OW 5430   6.796   1.456   6.990 -0.1369 -0.1407 -0.1072
33113SOL    HW1 5431   6.706   1.474   7.018 -0.1985 -0.0649 -0.3537
33113SOL    HW2 5432   6.843   1.537   7.006 -0.6998  0.7118 -2.4081
33114SOL     OW 5433   6.788   2.469   9.130  0.6206  0.4425 -0.3221
33114SOL    HW1 5434   6.697   2.479   9.158 -0.6050 -1.3214 -3.2217
33114SOL    HW2 5435   6.819   2.559   9.120 -0.4443  1.0895  1.5883
33115SOL     OW 5436   3.530   7.311   5.504 -0.1867 -0.0131 -0.2371
33115SOL    HW1 5437   3.603   7.358   5.462 -0.7286 -0.3602 -1.5813
33115SOL    HW2 5438   3.573   7.243   5.556  0.4715  0.0297 -0.7094
33116SOL     OW 5439   4.676  10.042   8.364 -0.1877 -0.4019  0.4567
33116SOL    HW1 5440   4.761  10.068   8.401 -0.7633  0.9389  0.8741
33116SOL    HW2 5441   4.664  10.100   8.289  0.1931 -1.9849 -0.8968
33117SOL     OW 5442   2.052   3.072   4.279 -0.2250  0.2438 -0.1683
33117SOL    HW1 5443   2.006   3.147   4.316 -1.2676  0.9685 -2.7322
33117SOL    HW2 5444   2.142   3.102   4.268  0.4361 -0.3836  2.6524
33118SOL     OW 5445   5.738   9.312   4.117  0.3401 -0.2030  0.1072
33118SOL    HW1 5446   5.748   9.390   4.062  1.0334 -0.6798 -0.4643
33118SOL    HW2 5447   5.827   9.293   4.147 -0.0392  0.0838  1.4585
33119SOL     OW 5448   9.781   2.714   0.148  0.0013 -0.5824  0.3795
33119SOL    HW1 5449   9.738   2.683   0.069 -0.5150 -0.3340  0.5586
33119SOL    HW2 5450   9.756   2.650   0.215 -0.3480 -0.2579  0.5565
33120SOL     OW 5451   0.295   4.718   5.901  0.4938  0.1620  0.0729
33120SOL    HW1 5452   0.271   4.810   5.890 -0.5562  0.0034  0.9099
33120SOL    HW2 5453   0.362   4.718   5.969 -0.1121  0.2483  0.6833
33121SOL     OW 5454   9.198  10.746   2.903  0.3465 -0.3839 -0.4226
33121SOL    HW1 5455   9.197  10.788   2.989  0.7339 -0.3849 -0.4194
33121SOL    HW2 5456   9.134  10.675   2.911  0.0904 -0.1365 -0.2593
33122SOL     OW 5457   7.823   3.561   5.475 -0.6792 -0.7553 -0.4130
33122SOL    HW1 5458   7.892   3.577   5.409  0.9189 -0.3313  1.2790
33122SOL    HW2 5459   7.805   3.647   5.512 -2.9053 -0.7021 -1.4960
33123SOL     OW 5460   6.174   9.678   5.626 -0.5324 -0.1639  0.2036
33123SOL    HW1 5461   6.228   9.637   5.558 -1.5835 -1.9780  0.3967
33123SOL    HW2 5462   6.208   9.641   5.708  1.0948  2.4179  0.8050
33124SOL     OW 5463   3.216   9.830   1.125  0.9859  0.2702  0.0912
33124SOL    HW1 5464   3.179   9.789   1.046 -1.0609 -0.6397  1.4418
33124SOL    HW2 5465   3.257   9.910   1.093  0.6375 -0.3045 -1.9641
33125SOL     OW 5466   7.192   7.727   8.005  0.1488 -0.0609 -0.0027
33125SOL    HW1 5467   7.146   7.680   8.074  1.6410 -2.1750 -0.3667
33125SOL    HW2 5468   7.284   7.702   8.015  1.0988  2.9909 -0.1103
33126SOL     OW 5469   2.472   8.004   3.966 -0.2948 -0.5391  0.2762
33126SOL    HW1 5470   2.503   8.003   3.876  0.6095 -2.5110  0.5538
33126SOL    HW2 5471   2.486   7.915   3.997 -0.0626  0.2207  2.5509
33127SOL     OW 5472   9.474   0.118  10.442 -0.4297  0.9759 -0.5823
33127SOL    HW1 5473   9.497   0.210  10.451  0.3590  0.6708  0.6884
33127SOL    HW2 5474   9.557   0.074  10.420 -0.2740  0.2480  1.2977
33128SOL     OW 5475   8.635   4.010   8.166  0.2072 -0.0298 -0.2349
33128SOL    HW1 5476   8.566   3.963   8.119  0.4557 -1.4142  0.7116
33128SOL    HW2 5477   8.716   3.980   8.125  0.3214  0.4290 -0.3460
33129SOL     OW 5478   9.523   1.398   8.727 -0.1966 -0.2826 -0.1012
33129SOL    HW1 5479   9.476   1.318   8.704 -0.4330  0.1949 -1.3417
33129SOL    HW2 5480   9.459   1.468   8.712 -0.1295  0.1266  1.3693
33130SOL     OW 5481   8.885   3.842   6.228  0.1966 -0.1683  0.3683
33130SOL    HW1 5482   8.854   3.932   6.215  1.9759  0.2979 -1.1058
33130SOL    HW2 5483   8.854   3.795   6.150 -1.5835 -1.1589  1.5903
33131SOL     OW 5484   5.857   1.423   5.234 -0.1372  0.3480  0.3171
33131SOL    HW1 5485   5.868   1.337   5.274 -1.9605  0.3751  0.9691
33131SOL    HW2 5486   5.812   1.406   5.152  0.9137  0.5614 -0.3200
33132SOL     OW 5487   3.457   1.716   4.646  0.1323  0.3319 -0.5668
33132SOL    HW1 5488   3.492   1.797   4.682  0.9305  1.4268 -3.5517
33132SOL    HW2 5489   3.363   1.731   4.641  0.1705  0.6923 -0.2916
33133SOL     OW 5490   7.165   8.571  10.341 -0.3088  0.2601  0.5419
33133SOL    HW1 5491   7.189   8.558  10.433  0.1377  0.7834  0.5067
33133SOL    HW2 5492   7.232   8.522  10.292  0.1900  1.0012  0.4679
33134SOL     OW 5493   4.015   9.508   1.860  0.1618 -0.1104 -0.0365
33134SOL    HW1 5494   4.081   9.498   1.791 -0.0433  0.1774 -0.2730
33134SOL    HW2 5495   3.932   9.486   1.817 -0.2164  1.8450 -0.3742
33135SOL     OW 5496   4.986   2.157   9.250 -0.1980  0.2794 -0.8270
33135SOL    HW1 5497   4.949   2.201   9.173  0.0924  0.0515 -1.0966
33135SOL    HW2 5498   4.924   2.087   9.270 -0.2420  0.2998 -0.8909
33136SOL     OW 5499   6.855   7.336   5.996  0.2977 -0.3545 -0.6276
33136SOL    HW1 5500   6.784   7.354   5.935  0.6796  0.9954 -0.6962
33136SOL    HW2 5501   6.916   7.281   5.946 -0.0167 -0.3469 -1.0233
33137SOL     OW 5502   9.731   1.055   2.823  0.4512  0.1223  0.4141
33137SOL    HW1 5503   9.769   1.109   2.893 -0.4915  2.3434 -0.7143
33137SOL    HW2 5504   9.801   1.047   2.759  0.2912  0.8352  0.1466
33138SOL     OW 5505   1.535  10.641   7.510 -0.3749  0.1839  0.2183
33138SOL    HW1 5506   1.617  10.681   7.482 -0.7994 -0.1153 -1.5931
33138SOL    HW2 5507   1.544  10.631   7.604  1.1200  1.3816  0.2396
33139SOL     OW 5508   3.779   5.571   8.479  0.1705 -0.1164 -0.2982
33139SOL    HW1 5509   3.740   5.580   8.392 -1.6837 -2.4495  0.1899
33139SOL    HW2 5510   3.856   5.628   8.476  0.4360 -0.4170 -3.6206
33140SOL     OW 5511   2.589   5.847   3.684 -0.2514 -0.4273 -0.3014
33140SOL    HW1 5512   2.496   5.844   3.704 -0.1433 -0.5798  0.1926
33140SOL    HW2 5513   2.599   5.789   3.608 -0.4262 -1.1030  0.1815
33141SOL     OW 5514   6.446   0.748   6.156 -0.2586  0.2079 -0.9010
33141SOL    HW1 5515   6.370   0.698   6.186 -0.2756  0.3943 -0.6336
33141SOL    HW2 5516   6.425   0.839   6.177 -0.0225  0.2762 -0.9528
33142SOL     OW 5517   8.457   0.454   6.968  0.2350  0.0068  0.1863
33142SOL    HW1 5518   8.512   0.380   6.941 -0.0076 -0.1575  0.1423
33142SOL    HW2 5519   8.520   0.520   6.998  0.4894  0.0503 -0.4276
33143SOL     OW 5520   8.564   4.985   0.823  0.4300  0.2656 -0.8611
33143SOL    HW1 5521   8.486   4.950   0.866  1.0112 -0.2556 -0.2124
33143SOL    HW2 5522   8.541   5.075   0.802  0.7931  1.2520  2.4040
33144SOL     OW 5523   0.896   3.726   9.529  0.2779  0.0662 -0.3182
33144SOL    HW1 5524   0.890   3.631   9.528 -0.3028  0.0994 -0.5220
33144SOL    HW2 5525   0.981   3.745   9.491  0.7689 -0.3933  0.5358
33145SOL     OW 5526   9.080  10.356   9.127  0.0428  0.0886  0.4736
33145SOL    HW1 5527   9.173  10.370   9.142  0.7664 -1.8414 -1.6693
33145SOL    HW2 5528   9.053  10.298   9.199  0.7054 -0.0575  0.6108
33146SOL     OW 5529   6.981   9.067   4.192 -0.4636  0.3415  0.1648
33146SOL    HW1 5530   6.891   9.079   4.160 -0.0043  0.3720 -1.1655
33146SOL    HW2 5531   7.012   9.156   4.207  0.3178  0.5361 -2.2402
33147SOL     OW 5532   9.615   1.904   0.816  0.6638  0.0421  0.4347
33147SOL    HW1 5533   9.674   1.899   0.892  0.8250 -0.6183  0.2719
33147SOL    HW2 5534   9.581   1.993   0.819 -0.0463 -0.2436  1.8199
33148SOL     OW 5535  10.082   0.797   8.943  0.3403  0.8590  0.2130
33148SOL    HW1 5536  10.130   0.743   9.006 -2.2494  1.0189  2.4963
33148SOL    HW2 5537  10.138   0.798   8.866  1.9454 -2.5289  1.1246
33149SOL     OW 5538   0.629   9.851   5.152  0.0569  0.0101  0.5372
33149SOL    HW1 5539   0.640   9.763   5.188  0.6585 -0.4568 -0.7394
33149SOL    HW2 5540   0.686   9.906   5.206  0.6966 -0.6160  0.5105
33150SOL     OW 5541   3.334   1.374   0.640 -0.2842  0.3617  0.0915
33150SOL    HW1 5542   3.390   1.322   0.698  0.8328  0.1504 -1.1386
33150SOL    HW2 5543   3.360   1.465   0.656  0.4357  0.2645 -0.4791
33151SOL     OW 5544   2.404   1.041   7.369 -0.0043  0.3953  0.3023
33151SOL    HW1 5545   2.397   1.137   7.362  0.5351  0.4386  0.2655
33151SOL    HW2 5546   2.331   1.016   7.425  1.1295  1.0793  2.1694
33152SOL     OW 5547  10.889   1.471   5.696  0.0513  0.1777  0.0951
33152SOL    HW1 5548  10.889   1.393   5.751  1.7851  0.5915  0.7450
33152SOL    HW2 5549  10.836   1.447   5.620 -0.4156 -1.2147  0.8347
33153SOL     OW 5550   8.954   8.692  10.467  0.1671  0.3567  0.2131
33153SOL    HW1 5551   8.903   8.647  10.535 -0.6718  0.8242 -0.0873
33153SOL    HW2 5552   9.044   8.663  10.481 -0.5047 -2.7483 -1.0104
33154SOL     OW 5553   5.241   6.033  10.021  0.1813  0.1304  0.6635
33154SOL    HW1 5554   5.332   6.042   9.994  0.1377  1.4231  0.9000
33154SOL    HW2 5555   5.224   5.938  10.018  0.6815  0.0313 -2.1276
33155SOL     OW 5556   9.070   4.197   6.186  0.2849 -0.1395  0.3461
33155SOL    HW1 5557   9.021   4.275   6.210 -0.3662  0.0944 -1.5498
33155SOL    HW2 5558   9.050   4.133   6.255 -1.4369  0.4619  0.4426
33156SOL     OW 5559   5.406   0.363   1.003 -0.7549  0.4166 -0.0777
33156SOL    HW1 5560   5.493   0.327   0.988 -0.6517  0.6206  0.0296
33156SOL    HW2 5561   5.415   0.416   1.082 -1.2470 -0.5192  0.6337
33157SOL     OW 5562   9.157   8.437   7.591  0.0243  0.2921 -0.2399
33157SOL    HW1 5563   9.192   8.385   7.663 -1.9306  0.0422  0.6082
33157SOL    HW2 5564   9.232   8.486   7.557  1.8105 -2.4425 -0.5688
33158SOL     OW 5565   3.769   6.224   3.740 -0.1112  0.1743  0.1431
33158SOL    HW1 5566   3.769   6.319   3.750  1.9426  0.2421 -0.1281
33158SOL    HW2 5567   3.715   6.193   3.812  0.9354  1.4582  1.5444
33159SOL     OW 5568   5.111   4.815   4.696  0.6839  0.0387  0.3951
33159SOL    HW1 5569   5.095   4.895   4.644  0.1838  0.8072  1.6824
33159SOL    HW2 5570   5.044   4.754   4.666 -0.4709  0.9385  1.0379
33160SOL     OW 5571   8.763   1.595   8.588 -0.5646 -0.2038  0.5265
33160SOL    HW1 5572   8.694   1.661   8.585 -1.4352 -1.1079 -0.2233
33160SOL    HW2 5573   8.819   1.614   8.513 -0.9813 -0.4850  0.1413
33161SOL     OW 5574   2.982   3.487   0.397  0.0070 -0.2757 -0.3207
33161SOL    HW1 5575   2.968   3.437   0.477 -0.9028  0.2309 -0.1465
33161SOL    HW2 5576   3.076   3.499   0.392  0.0044  0.6139  1.2628
33162SOL     OW 5577   3.262   7.236  10.608 -0.1493  0.0932 -0.0284
33162SOL    HW1 5578   3.168   7.219  10.603 -0.0292 -0.5209 -0.3454
33162SOL    HW2 5579   3.285   7.220  10.699  0.0218 -1.9038 -0.3773
33163SOL     OW 5580   7.581   8.382   6.544  0.0645 -0.1362 -0.3898
33163SOL    HW1 5581   7.503   8.345   6.585 -0.5257  1.6909  0.2604
33163SOL    HW2 5582   7.634   8.412   6.618  2.1166 -2.5841 -0.7370
33164SOL     OW 5583   8.354   2.924  10.907 -0.3845  0.1218  0.7221
33164SOL    HW1 5584   8.425   2.971  10.864  0.0002 -1.7925 -0.9185
33164SOL    HW2 5585   8.374   2.930  11.000  0.6542  1.5528  0.4411
33165SOL     OW 5586   9.397   8.855   1.545  0.4426 -0.3778 -0.0158
33165SOL    HW1 5587   9.351   8.805   1.613  1.3935 -1.0000  0.1956
33165SOL    HW2 5588   9.372   8.946   1.561 -0.9026 -0.7260 -0.0789
33166SOL     OW 5589   8.003  10.631  10.769  0.3064  0.6683  0.2332
33166SOL    HW1 5590   8.007  10.558  10.831  1.6671  0.5942  0.1002
33166SOL    HW2 5591   7.988  10.590  10.684 -0.2504  0.6644  0.3281
33167SOL     OW 5592   2.315  10.256   6.125 -0.1311  0.1713  0.3446
33167SOL    HW1 5593   2.261  10.178   6.138 -0.9293  0.8576  1.3448
33167SOL    HW2 5594   2.400  10.222   6.094 -1.7095 -0.8161 -3.4380
33168SOL     OW 5595   4.818   2.037   5.074  0.3292  0.6924 -0.0557
33168SOL    HW1 5596   4.761   2.084   5.136  0.2061  1.6697 -0.8922
33168SOL    HW2 5597   4.796   1.945   5.088 -1.8793  1.0438 -0.6865
33169SOL     OW 5598   8.326  10.033   9.062 -0.2978 -0.3298  0.1651
33169SOL    HW1 5599   8.272  10.111   9.063  0.4252  0.1868  1.1301
33169SOL    HW2 5600   8.348  10.017   9.154  2.3815  0.3666 -0.2510
33170SOL     OW 5601   1.982   5.624   8.384  0.0739  0.2868 -0.1742
33170SOL    HW1 5602   2.036   5.547   8.401 -0.2337 -0.4524 -2.2305
33170SOL    HW2 5603   2.043   5.689   8.351 -0.1107 -0.2870 -1.7487
33171SOL     OW 5604   7.164   7.846   2.025 -0.4486  0.0633  0.5884
33171SOL    HW1 5605   7.185   7.769   1.971  1.1797  1.4459 -0.8657
33171SOL    HW2 5606   7.070   7.837   2.043 -1.3483 -0.1328 -3.2193
33172SOL     OW 5607   4.566   4.790   7.930 -0.4286 -0.5921 -0.1598
33172SOL    HW1 5608   4.512   4.869   7.932 -0.7549 -0.7634 -1.3201
33172SOL    HW2 5609   4.507   4.722   7.896 -0.2991 -1.4570  1.2692
33173SOL     OW 5610   2.523   7.750   8.328  0.1741 -1.0662 -0.0033
33173SOL    HW1 5611   2.483   7.780   8.410 -0.3777 -1.7381 -0.0240
33173SOL    HW2 5612   2.495   7.659   8.319  0.9066 -1.2516 -0.5214
33174SOL     OW 5613   5.151   2.581   7.228 -0.1179 -0.7506  0.5570
33174SOL    HW1 5614   5.185   2.492   7.230  0.4435 -0.6656 -1.9805
33174SOL    HW2 5615   5.060   2.573   7.257  0.6066 -1.7053  2.7607
33175SOL     OW 5616   6.256  10.308   5.200  0.0615 -0.0745  0.1540
33175SOL    HW1 5617   6.197  10.344   5.266  1.3024  1.5552  0.4459
33175SOL    HW2 5618   6.336  10.360   5.209  1.5309 -2.1453 -0.2669
33176SOL     OW 5619   4.457   0.122   1.740  0.4486 -0.0759  0.2580
33176SOL    HW1 5620   4.370   0.083   1.747  0.2879  0.2191 -0.0703
33176SOL    HW2 5621   4.474   0.126   1.646  0.3022  0.9836  0.2605
33177SOL     OW 5622   8.186   8.632   2.065  0.7089  0.8849  0.4621
33177SOL    HW1 5623   8.181   8.555   2.121 -2.6356  0.1029 -0.6370
33177SOL    HW2 5624   8.211   8.598   1.979 -2.6248  0.4861 -0.5219
33178SOL     OW 5625   3.013   0.801   7.574  0.0932  0.2099  0.3723
33178SOL    HW1 5626   2.974   0.888   7.583  0.0645  0.3712 -1.1054
33178SOL    HW2 5627   2.938   0.742   7.575 -0.0020  0.3222 -0.0974
33179SOL     OW 5628   7.234   0.941   1.917  0.0457  0.1871 -0.1011
33179SOL    HW1 5629   7.245   0.848   1.896  0.2182 -0.0263  0.9116
33179SOL    HW2 5630   7.228   0.984   1.831 -1.8129 -0.9591 -0.6074
33180SOL     OW 5631   7.891   9.475   0.182  0.0757  0.6780  0.0546
33180SOL    HW1 5632   7.918   9.544   0.120  1.4452  1.1834  1.1593
33180SOL    HW2 5633   7.929   9.503   0.265 -0.0344 -1.0210  0.6938
33181SOL     OW 5634   4.270   1.172   2.678 -0.2860 -0.3123 -0.4524
33181SOL    HW1 5635   4.349   1.224   2.692  0.6099 -1.2689 -1.6883
33181SOL    HW2 5636   4.265   1.115   2.755  1.2734 -1.4831 -1.1612
33182SOL     OW 5637   0.836   0.001  10.529 -0.6205 -0.2194 -0.2299
33182SOL    HW1 5638   0.924   0.013  10.493 -0.5157  0.5313  0.2577
33182SOL    HW2 5639   0.850  -0.022  10.621 -0.9308  0.5831  0.0352
33183SOL     OW 5640   1.665   7.936   0.152  0.2485  0.3744  0.1605
33183SOL    HW1 5641   1.756   7.954   0.127  0.8022  0.3833  2.0918
33183SOL    HW2 5642   1.656   7.841   0.146  0.1340  0.4344 -0.7788
33184SOL     OW 5643   5.368   1.940   5.090  0.5718 -0.2825 -0.4774
33184SOL    HW1 5644   5.382   1.850   5.119 -1.6982 -0.6763 -0.4050
33184SOL    HW2 5645   5.335   1.985   5.167  0.9261  0.4171 -0.7267
33185SOL     OW 5646  10.643   8.695   2.868 -0.0694 -0.2493  0.3500
33185SOL    HW1 5647  10.729   8.668   2.836 -0.2637 -0.8636  0.3414
33185SOL    HW2 5648  10.651   8.790   2.883  0.5817 -0.2934  0.2745
33186SOL     OW 5649   3.246  10.654   3.589 -0.3919  0.7370  0.8297
33186SOL    HW1 5650   3.191  10.706   3.647  0.2134  1.1337  1.0641
33186SOL    HW2 5651   3.328  10.642   3.638  0.1676  1.1554  0.0314
33187SOL     OW 5652   6.088   2.012   4.942 -0.2184  0.4587  0.1087
33187SOL    HW1 5653   6.154   1.987   4.877 -1.2416  0.0024 -0.7984
33187SOL    HW2 5654   6.025   2.065   4.892 -0.1977  1.4493  1.1066
33188SOL     OW 5655   1.057   5.942   8.392  0.0269 -0.7853  0.0907
33188SOL    HW1 5656   0.971   5.901   8.395  0.3015 -1.4047 -0.4046
33188SOL    HW2 5657   1.110   5.884   8.338  0.3817  0.2906 -0.7561
33189SOL     OW 5658   0.078   7.328   9.261  0.0685 -0.0168 -0.5663
33189SOL    HW1 5659   0.015   7.342   9.189  0.9116  2.3032 -0.9351
33189SOL    HW2 5660   0.147   7.274   9.222 -0.1485  0.0804 -1.0945
33190SOL     OW 5661   0.283   0.657   6.365  0.1492 -0.3914 -0.0094
33190SOL    HW1 5662   0.323   0.589   6.418  1.0894  0.7482  0.7792
33190SOL    HW2 5663   0.329   0.737   6.389 -1.6690  0.7390 -0.0968
33191SOL     OW 5664   8.656   5.208   0.456  0.5797 -0.1992 -0.4881
33191SOL    HW1 5665   8.645   5.273   0.387  1.7741 -0.9658 -1.4449
33191SOL    HW2 5666   8.700   5.255   0.527 -0.1730  0.4645 -0.4531
33192SOL     OW 5667   1.053   2.336   8.156  0.6353  0.0077  0.3118
33192SOL    HW1 5668   1.078   2.259   8.105  3.0216 -0.9494  2.6865
33192SOL    HW2 5669   1.001   2.301   8.228 -0.1369  0.9514  0.2425
33193SOL     OW 5670   7.679   0.033   1.210 -0.0028 -0.0723 -0.1387
33193SOL    HW1 5671   7.639   0.006   1.293  0.2471  0.9844  0.3464
33193SOL    HW2 5672   7.742  -0.036   1.190 -0.0858 -0.3557  0.5419
33194SOL     OW 5673   2.198   6.013  10.277 -0.7985 -0.2823  0.0275
33194SOL    HW1 5674   2.167   6.086  10.331  2.0461  1.0637  0.0000
33194SOL    HW2 5675   2.240   5.953  10.338 -0.5372 -0.4351 -0.2952
33195SOL     OW 5676   9.963   1.068   6.007 -0.0432 -0.2141  0.0627
33195SOL    HW1 5677  10.027   1.131   5.972  1.1849 -0.9598  0.8933
33195SOL    HW2 5678  10.014   1.012   6.065 -1.0628 -2.1205 -0.7891
33196SOL     OW 5679   7.037   7.354   1.062  0.3866  0.6876  0.2005
33196SOL    HW1 5680   7.007   7.264   1.074  2.9770 -0.7731 -2.9101
33196SOL    HW2 5681   6.974   7.392   1.001  0.0694  0.5459  0.4340
33197SOL     OW 5682   8.318  10.505   2.738  0.5156  0.2254  0.1242
33197SOL    HW1 5683   8.391  10.500   2.800  0.8476  0.0183 -0.2827
33197SOL    HW2 5684   8.336  10.436   2.674  0.1099  0.3634 -0.1426
33198SOL     OW 5685   3.884   0.618   3.025 -0.0130 -0.0970 -0.4550
33198SOL    HW1 5686   3.841   0.697   3.059  0.7388  0.3310 -0.4697
33198SOL    HW2 5687   3.856   0.613   2.934 -0.0029  0.1935 -0.4744
33199SOL     OW 5688   3.658   8.258   9.316 -0.6255  0.4566 -0.1610
33199SOL    HW1 5689   3.626   8.269   9.406  0.4716 -1.5929  0.5668
33199SOL    HW2 5690   3.591   8.204   9.274 -0.5151  0.3121 -0.1538
33200SOL     OW 5691   8.064   5.464   0.859  0.4334 -0.0585 -0.6088
33200SOL    HW1 5692   8.019   5.399   0.914  0.3127 -1.0070 -1.7905
33200SOL    HW2 5693   8.067   5.543   0.913 -0.3693 -0.7313  0.4609
33201SOL     OW 5694   2.738   2.021   2.819  0.5668  0.5996 -0.5812
33201SOL    HW1 5695   2.703   2.102   2.782 -0.4635  0.2553 -0.3900
33201SOL    HW2 5696   2.671   1.992   2.881 -0.0399 -1.4382 -2.0825
33202SOL     OW 5697   7.653   0.660   4.194 -0.0144  0.5799  0.1795
33202SOL    HW1 5698   7.562   0.690   4.200  0.2306  1.6471 -0.9084
33202SOL    HW2 5699   7.671   0.621   4.279 -1.1582  1.3375  0.8020
33203SOL     OW 5700   4.942   7.841   5.351  0.1343  0.1053 -0.2561
33203SOL    HW1 5701   4.991   7.919   5.327 -0.5116  0.6786  0.2594
33203SOL    HW2 5702   4.971   7.821   5.440 -0.3017  0.2456 -0.0787
33204SOL     OW 5703   4.470   3.500   8.884  0.2588 -0.1601 -0.1121
33204SOL    HW1 5704   4.401   3.437   8.865 -1.1540  1.6116 -1.1083
33204SOL    HW2 5705   4.426   3.574   8.924  1.6534  0.7790 -0.2115
33205SOL     OW 5706   5.482   7.102   6.418 -0.2293  0.1473 -0.2061
33205SOL    HW1 5707   5.578   7.101   6.416  0.0327  0.3348  3.7407
33205SOL    HW2 5708   5.458   7.193   6.401  0.7198  1.1138  2.9190
33206SOL     OW 5709   8.950   8.271   8.069 -0.3552 -0.0699  0.1886
33206SOL    HW1 5710   9.030   8.325   8.066 -0.3669 -0.0726 -2.5864
33206SOL    HW2 5711   8.910   8.293   8.153 -0.0892  3.9027 -0.5380
33207SOL     OW 5712   9.230   9.377   4.309  0.4819 -0.3654  0.4905
33207SOL    HW1 5713   9.170   9.309   4.339 -0.1267 -0.0898 -0.0904
33207SOL    HW2 5714   9.175   9.453   4.291  1.0168 -0.0609  0.0866
33208SOL     OW 5715   8.120   4.082   7.035  0.3588  0.5560 -0.3629
33208SOL    HW1 5716   8.193   4.023   7.051 -0.9176 -1.3329 -1.1182
33208SOL    HW2 5717   8.117   4.138   7.113  1.9308 -0.0237  0.1461
33209SOL     OW 5718   7.483   1.376   1.384 -0.3156  0.6663  0.2342
33209SOL    HW1 5719   7.454   1.447   1.328  1.6649  1.0666 -0.3496
33209SOL    HW2 5720   7.530   1.419   1.456 -1.3664  0.0666  1.3106
33210SOL     OW 5721   6.946   4.168  10.674 -0.2788  0.7413 -0.3540
33210SOL    HW1 5722   6.998   4.215  10.610 -1.6408 -0.0431 -2.1289
33210SOL    HW2 5723   6.907   4.095  10.625 -1.7553  0.3813  1.2385
33211SOL     OW 5724   5.514   1.311   2.373  0.0327 -0.2641  0.1926
33211SOL    HW1 5725   5.461   1.235   2.352 -1.6952  0.7219  0.7530
33211SOL    HW2 5726   5.582   1.278   2.432 -0.1277 -1.5056 -0.2934
33212SOL     OW 5727   4.777   7.676   5.192  0.3460 -0.6577  0.4493
33212SOL    HW1 5728   4.691   7.716   5.190  0.3853 -0.5921 -0.0102
33212SOL    HW2 5729   4.830   7.735   5.247  0.0445 -0.8236  0.9264
33213SOL     OW 5730   8.733   4.909   9.746 -0.7524 -0.1575 -0.0786
33213SOL    HW1 5731   8.664   4.844   9.758 -1.1471  0.3428  0.4445
33213SOL    HW2 5732   8.814   4.860   9.753 -1.0533 -0.7307 -0.5449
33214SOL     OW 5733   1.002   8.779   3.742  0.1740  0.0662  0.1062
33214SOL    HW1 5734   1.073   8.840   3.720  0.0079  1.0348  2.0151
33214SOL    HW2 5735   1.004   8.714   3.672  0.5907  2.0454 -1.8376
33215SOL     OW 5736   2.772   0.309   1.601  0.3442 -0.0316  0.7706
33215SOL    HW1 5737   2.770   0.265   1.517 -0.8336 -1.8970  1.7136
33215SOL    HW2 5738   2.684   0.346   1.610  1.0215  1.7708  0.4196
33216SOL     OW 5739   7.996   3.578   1.229  0.0231 -0.6937  0.3895
33216SOL    HW1 5740   8.015   3.580   1.323  1.3567 -1.2013  0.1480
33216SOL    HW2 5741   7.981   3.486   1.209  2.4693 -0.9857 -0.3780
33217SOL     OW 5742   9.949   8.635   6.781  0.3342  0.4253 -0.2962
33217SOL    HW1 5743   9.952   8.700   6.852  1.5015  0.6515 -0.5407
33217SOL    HW2 5744   9.931   8.552   6.826 -1.0881  0.8732  0.0261
33218SOL     OW 5745   3.670   2.127   2.969 -0.3629 -0.0793 -0.0636
33218SOL    HW1 5746   3.607   2.116   2.898 -1.3847  0.2152  0.7675
33218SOL    HW2 5747   3.663   2.047   3.020 -0.2526  0.0586  0.1689
33219SOL     OW 5748   3.375   6.626   6.870  0.3462 -0.4537  0.5203
33219SOL    HW1 5749   3.311   6.570   6.914 -1.3502  0.0544 -1.1587
33219SOL    HW2 5750   3.331   6.711   6.863  1.7905  0.3333  0.5763
33220SOL     OW 5751   9.499   7.038   2.147 -0.4205  0.0251  0.1173
33220SOL    HW1 5752   9.466   7.116   2.191  1.0613 -0.1056  1.5462
33220SOL    HW2 5753   9.455   6.965   2.190 -0.1456 -0.0240  0.3204
33221SOL     OW 5754   4.447   4.113   4.732 -0.0555 -0.6650 -0.1764
33221SOL    HW1 5755   4.366   4.151   4.766  0.6315 -1.5490  2.6589
33221SOL    HW2 5756   4.480   4.178   4.670 -2.2679  0.2764 -0.4612
33222SOL     OW 5757   6.131   0.993  10.037 -0.6092  0.4370 -0.1403
33222SOL    HW1 5758   6.156   1.060  10.101 -0.7474  2.4863 -2.1106
33222SOL    HW2 5759   6.195   0.922  10.051 -0.0008  1.2535  1.5322
33223SOL     OW 5760   4.329   2.150   9.212 -0.4060  0.0821  0.1112
33223SOL    HW1 5761   4.422   2.141   9.195 -0.1228 -0.2304  1.6471
33223SOL    HW2 5762   4.289   2.165   9.126  0.9670 -0.4744 -0.6403
33224SOL     OW 5763   4.762   6.875   3.849  0.3008  0.3715 -0.2142
33224SOL    HW1 5764   4.740   6.957   3.892  0.7297 -0.1075  0.9419
33224SOL    HW2 5765   4.687   6.819   3.864  0.6805  0.0191  0.4050
33225SOL     OW 5766   9.891   9.828   9.879 -0.7494 -0.0598  0.7170
33225SOL    HW1 5767   9.847   9.901   9.922  0.6195  2.2059 -1.4813
33225SOL    HW2 5768   9.820   9.766   9.859 -2.0505  0.9430  1.9877
33226SOL     OW 5769   5.222  10.656   7.815  0.5816 -0.4500  0.7135
33226SOL    HW1 5770   5.194  10.612   7.896 -0.6266 -1.8389 -0.4038
33226SOL    HW2 5771   5.280  10.592   7.772 -1.1522 -1.0233 -0.9080
33227SOL     OW 5772   8.622   1.350   7.406  0.3136 -0.5532 -0.2184
33227SOL    HW1 5773   8.573   1.373   7.486 -0.7551  2.0603 -1.5218
33227SOL    HW2 5774   8.709   1.389   7.419  0.6391 -1.3848  0.2238
33228SOL     OW 5775   2.086   6.022   0.708  0.7195  0.1539  0.5092
33228SOL    HW1 5776   2.149   6.075   0.758  0.3412  1.2453 -0.1281
33228SOL    HW2 5777   2.115   5.932   0.721  3.0647  0.6752 -0.6116
33229SOL     OW 5778   9.087  10.165   3.772  0.3092 -0.1843 -0.3108
33229SOL    HW1 5779   9.161  10.105   3.771 -0.2226 -0.9609  1.7698
33229SOL    HW2 5780   9.058  10.167   3.863 -2.4950 -0.2296 -1.0928
33230SOL     OW 5781   2.046   5.892   5.127 -0.0501 -0.5863 -0.5219
33230SOL    HW1 5782   1.955   5.903   5.099  0.5222  1.3810 -1.7527
33230SOL    HW2 5783   2.054   5.950   5.203  0.2324 -0.5877 -0.5512
33231SOL     OW 5784   5.047   7.575   5.084 -0.1782  0.2724  0.1181
33231SOL    HW1 5785   4.981   7.623   5.133 -1.9061 -2.2744  0.4683
33231SOL    HW2 5786   5.126   7.580   5.138 -1.2225  0.0368  1.7051
33232SOL     OW 5787   4.933   5.706  10.396 -0.3508 -0.2206 -0.1022
33232SOL    HW1 5788   5.017   5.663  10.409  0.0251 -0.3361 -2.4080
33232SOL    HW2 5789   4.945   5.760  10.318 -2.6550 -1.0194 -1.1369
33233SOL     OW 5790   1.655   2.083   1.521  0.1009  0.1930  0.4652
33233SOL    HW1 5791   1.660   2.137   1.599  0.6969  0.1630  0.4554
33233SOL    HW2 5792   1.665   1.994   1.552  0.1257  0.1646  0.3785
33234SOL     OW 5793   1.935   2.269   2.885  0.0151  0.2646  0.5268
33234SOL    HW1 5794   1.850   2.273   2.842 -0.3174  0.2667  1.1610
33234SOL    HW2 5795   1.936   2.346   2.943  0.9685  0.9726 -0.3877
33235SOL     OW 5796  10.862  10.745   8.722  0.0322  0.3909 -0.8002
33235SOL    HW1 5797  10.901  10.673   8.771 -0.0908  0.3046 -0.8296
33235SOL    HW2 5798  10.925  10.817   8.731  0.5612  0.0215 -1.4743
33236SOL     OW 5799   3.353   0.326   8.874 -0.1740 -0.3499 -1.0212
33236SOL    HW1 5800   3.284   0.351   8.936 -0.3921 -2.3588 -0.3904
33236SOL    HW2 5801   3.409   0.403   8.869  0.0221 -0.1821  1.9247
33237SOL     OW 5802   8.308   1.095   5.440 -0.1397  0.2394 -0.2837
33237SOL    HW1 5803   8.220   1.114   5.409 -0.5192 -0.4800  0.3207
33237SOL    HW2 5804   8.348   1.044   5.369 -1.0898 -1.6151  0.4366
33238SOL     OW 5805   7.418   6.239   7.677  0.2105 -0.4292 -0.5555
33238SOL    HW1 5806   7.413   6.280   7.590  0.1834 -0.8071 -0.7314
33238SOL    HW2 5807   7.452   6.151   7.660 -1.7940 -1.2834 -0.4245
33239SOL     OW 5808   1.740   2.276   6.506  0.3519 -0.4465 -0.2191
33239SOL    HW1 5809   1.647   2.296   6.512  0.4339 -0.4102  1.5964
33239SOL    HW2 5810   1.744   2.180   6.501  0.2168 -0.4722  0.1138
33240SOL     OW 5811   5.383  10.141   2.915 -0.8018  0.4538 -0.1672
33240SOL    HW1 5812   5.318  10.185   2.860 -0.8475  2.1466  1.1401
33240SOL    HW2 5813   5.441  10.212   2.943 -0.7901 -0.3278  1.9413
33241SOL     OW 5814   1.068   7.058  10.208  0.2374 -0.1080  0.3627
33241SOL    HW1 5815   1.029   7.054  10.295 -0.2856 -2.4803  0.0627
33241SOL    HW2 5816   1.001   7.099  10.153  0.5364  1.3165  1.0020
33242SOL     OW 5817   2.625   8.817   2.947  0.0098 -0.0580 -0.4830
33242SOL    HW1 5818   2.619   8.782   2.858 -1.2950 -0.3661 -0.2955
33242SOL    HW2 5819   2.698   8.879   2.944  0.0729 -0.1714 -1.7274
33243SOL     OW 5820   2.117   8.064   7.706 -0.5958 -0.4904 -0.2013
33243SOL    HW1 5821   2.138   8.005   7.779  1.6773 -0.0678 -0.4204
33243SOL    HW2 5822   2.023   8.053   7.692 -0.9189 -1.2905  2.1558
33244SOL     OW 5823   7.288   2.762   6.822 -0.6243 -0.0860  1.0552
33244SOL    HW1 5824   7.356   2.757   6.756 -0.8070 -0.2753  0.8757
33244SOL    HW2 5825   7.314   2.698   6.889  0.1727  0.9529  1.7563
33245SOL     OW 5826   5.327   9.568   9.537 -0.1283 -0.0730 -0.0517
33245SOL    HW1 5827   5.344   9.649   9.490  0.2102 -0.3481 -0.4164
33245SOL    HW2 5828   5.413   9.541   9.569 -0.4322  0.4183  1.2467
33246SOL     OW 5829   2.304   7.812   2.850 -0.2196  0.1414 -0.1483
33246SOL    HW1 5830   2.400   7.817   2.848 -0.1520 -0.5954  0.5410
33246SOL    HW2 5831   2.285   7.762   2.929 -1.1558 -0.3004 -0.6387
33247SOL     OW 5832   2.547   7.045   5.330 -0.0890 -0.3453 -0.0326
33247SOL    HW1 5833   2.591   7.058   5.245 -1.6814 -0.5301 -0.9299
33247SOL    HW2 5834   2.615   7.061   5.395  1.2055 -0.2743 -1.3484
33248SOL     OW 5835   6.823   2.260   5.878 -0.5085 -0.7294  0.3071
33248SOL    HW1 5836   6.906   2.232   5.918 -0.2141  1.8199  1.6991
33248SOL    HW2 5837   6.768   2.284   5.952 -1.6438 -0.1882 -0.6855
33249SOL     OW 5838   0.741   7.756   3.367  0.0336  0.2845 -0.3881
33249SOL    HW1 5839   0.675   7.776   3.301 -0.4377  1.9204  0.5252
33249SOL    HW2 5840   0.759   7.840   3.410  1.8130 -0.3437  0.2132
33250SOL     OW 5841   3.020   8.275   1.736  0.3599 -0.3695  0.1794
33250SOL    HW1 5842   3.110   8.246   1.723  1.0881  2.1016 -0.7737
33250SOL    HW2 5843   3.011   8.281   1.831  1.5449  0.3003  0.2670
33251SOL     OW 5844   3.676  10.059   7.457 -0.2570 -0.1696 -0.0204
33251SOL    HW1 5845   3.655  10.153   7.451 -0.1915 -0.2516 -2.0804
33251SOL    HW2 5846   3.605  10.015   7.411  1.2417 -0.8888 -1.7420
33252SOL     OW 5847  10.703   5.887  10.615  0.1651 -0.0074  0.5513
33252SOL    HW1 5848  10.661   5.928  10.691  0.4210  0.5013  0.4212
33252SOL    HW2 5849  10.736   5.803  10.648  1.4837  0.7929  1.3617
33253SOL     OW 5850   6.905   6.357   8.963  0.1390  0.3363  0.0530
33253SOL    HW1 5851   6.882   6.382   9.053  0.9313  1.3327 -0.0007
33253SOL    HW2 5852   6.973   6.420   8.938  1.1887 -1.0298 -0.6248
33254SOL     OW 5853   3.305   5.493   0.453  0.0614  0.7104  0.2798
33254SOL    HW1 5854   3.307   5.423   0.388 -1.1454  0.0381  0.9488
33254SOL    HW2 5855   3.393   5.492   0.491 -0.2419 -1.1752  1.0354
33255SOL     OW 5856   5.595   9.251   5.970 -0.1515  0.2022  0.0693
33255SOL    HW1 5857   5.577   9.232   6.063  0.7404  0.1181  0.2303
33255SOL    HW2 5858   5.510   9.279   5.935 -0.4360  0.5560  0.9940
33256SOL     OW 5859   1.719   1.073   2.953 -0.6711 -0.2038 -0.0988
33256SOL    HW1 5860   1.687   1.010   2.889 -0.9274 -0.7997  0.6014
33256SOL    HW2 5861   1.690   1.158   2.919 -1.6776 -0.6002 -0.2644
33257SOL     OW 5862   3.064   6.251   6.151 -0.1351  0.5224 -0.4781
33257SOL    HW1 5863   3.019   6.168   6.168 -1.6239  0.8723 -2.3623
33257SOL    HW2 5864   3.030   6.310   6.218 -1.4436  0.3862 -0.9762
33258SOL     OW 5865   3.667   6.600   1.861  0.0344  0.0145  0.1212
33258SOL    HW1 5866   3.589   6.612   1.916  0.1407  0.4455  0.1819
33258SOL    HW2 5867   3.632   6.593   1.772 -0.0417  0.8558  0.0711
33259SOL     OW 5868   4.526   9.878  10.473 -0.2959 -0.4069 -0.3758
33259SOL    HW1 5869   4.605   9.927  10.448  0.4310 -1.1132  0.4880
33259SOL    HW2 5870   4.464   9.895  10.402 -0.0297  1.6712 -0.1779
33260SOL     OW 5871   7.211   7.322   9.893  0.6172 -0.3512  0.5541
33260SOL    HW1 5872   7.250   7.329   9.980  2.4215 -0.6973 -0.1832
33260SOL    HW2 5873   7.278   7.279   9.840 -1.1057 -1.7474 -0.6029
33261SOL     OW 5874   6.669   7.252   9.022 -0.0549 -0.2768  0.1778
33261SOL    HW1 5875   6.668   7.209   8.937  3.4197  1.0951 -0.7451
33261SOL    HW2 5876   6.727   7.198   9.076 -0.7204 -0.1206  1.0740
33262SOL     OW 5877   6.646  10.105   3.584 -0.2651 -0.6714 -0.4871
33262SOL    HW1 5878   6.640  10.199   3.572  0.8215  0.2689  4.1430
33262SOL    HW2 5879   6.556  10.076   3.598 -0.6831 -0.5746 -2.6417
33263SOL     OW 5880   4.882   5.427  10.266  0.2141  0.4935 -0.0667
33263SOL    HW1 5881   4.800   5.477  10.262 -0.2921 -0.1799  1.2685
33263SOL    HW2 5882   4.947   5.489  10.299 -0.5299  0.2137  2.1114
33264SOL     OW 5883   7.261   1.096   2.147 -0.3371  0.0791  0.2028
33264SOL    HW1 5884   7.259   1.037   2.071  0.8726  0.7993 -0.4056
33264SOL    HW2 5885   7.354   1.110   2.164 -0.3672 -2.5657  3.8392
33265SOL     OW 5886   5.640   1.945   0.906  0.3807  0.0850  0.5250
33265SOL    HW1 5887   5.674   1.966   0.820 -0.5472  1.0050  0.3614
33265SOL    HW2 5888   5.568   1.884   0.889  0.5381 -0.1473  0.6909
33266SOL     OW 5889   8.262   9.950   7.580  0.3953 -0.2573 -0.3722
33266SOL    HW1 5890   8.356   9.949   7.599  0.4836 -1.5628 -0.7901
33266SOL    HW2 5891   8.254   9.903   7.497 -0.6815 -0.6484 -0.0657
33267SOL     OW 5892   3.200   1.557   4.025  0.4792  0.1627 -0.1308
33267SOL    HW1 5893   3.260   1.565   3.952  0.3089 -0.8044 -0.3784
33267SOL    HW2 5894   3.116   1.589   3.991  0.7610  1.2389  0.1320
33268SOL     OW 5895   8.021   8.459   2.200  0.4423 -0.3052  0.0030
33268SOL    HW1 5896   8.045   8.522   2.267 -2.3427  0.8271  0.0799
33268SOL    HW2 5897   8.016   8.375   2.246  0.9938 -0.0023  0.6216
33269SOL     OW 5898   3.447   2.439   6.508 -0.5187 -0.1531 -0.2735
33269SOL    HW1 5899   3.497   2.375   6.558 -1.7230 -1.1692 -0.3283
33269SOL    HW2 5900   3.411   2.389   6.435 -0.0590  0.9755 -1.3113
33270SOL     OW 5901   5.991   0.064   0.384 -0.3009 -0.3172  0.5298
33270SOL    HW1 5902   6.047  -0.000   0.426 -0.8564 -1.6200 -0.6287
33270SOL    HW2 5903   5.902   0.039   0.410 -0.4975  0.2505  0.4193
33271SOL     OW 5904   6.795   0.616   2.759 -0.2290 -0.1877  0.5036
33271SOL    HW1 5905   6.740   0.650   2.830 -1.1951  0.6998 -0.6305
33271SOL    HW2 5906   6.737   0.559   2.709 -0.5001  1.6288 -1.3610
33272SOL     OW 5907   3.237   3.463   9.309 -0.4075  0.5966 -0.0376
33272SOL    HW1 5908   3.303   3.517   9.354 -0.2109 -0.4485  0.9566
33272SOL    HW2 5909   3.159   3.518   9.309 -0.7700  0.2184  2.6678
33273SOL     OW 5910   1.053   1.555   0.171 -0.4946 -0.8592 -0.0395
33273SOL    HW1 5911   1.111   1.615   0.123 -0.9341 -1.2131 -1.0404
33273SOL    HW2 5912   0.992   1.523   0.105 -2.5021  0.2730  1.1594
33274SOL     OW 5913   4.867   1.421   9.516  0.1046 -0.1502 -0.1238
33274SOL    HW1 5914   4.865   1.382   9.604 -1.0682 -0.0432 -0.0868
33274SOL    HW2 5915   4.939   1.376   9.472  1.7647  0.8856  1.3703
33275SOL     OW 5916   1.508   9.370   8.783 -0.1376 -0.3683  0.5042
33275SOL    HW1 5917   1.474   9.310   8.717  1.4483 -2.5530  1.5189
33275SOL    HW2 5918   1.453   9.356   8.860  1.3249 -2.0463  1.3395
33276SOL     OW 5919   3.225   6.537   8.116 -0.1343  0.3761  0.0826
33276SOL    HW1 5920   3.314   6.569   8.102 -0.1567  0.2350 -0.4049
33276SOL    HW2 5921   3.183   6.543   8.031 -0.1149 -1.0182 -0.0589
33277SOL     OW 5922   6.091   9.878   1.174  0.1849 -0.1918  0.1068
33277SOL    HW1 5923   6.074   9.948   1.110  0.4790 -0.4806 -0.2937
33277SOL    HW2 5924   6.018   9.884   1.236  0.6545  1.0372  0.5826
33278SOL     OW 5925   8.996   9.039   2.180 -0.0446 -0.1187  0.1344
33278SOL    HW1 5926   8.930   9.031   2.111  0.6117  1.1294 -0.6757
33278SOL    HW2 5927   9.033   8.951   2.188 -2.1110 -0.9710  0.9565
33279SOL     OW 5928   2.579   9.606   7.813 -0.2251  0.0071 -0.3467
33279SOL    HW1 5929   2.542   9.658   7.884 -1.3932  1.0298 -1.6439
33279SOL    HW2 5930   2.666   9.643   7.798 -0.1787  0.1248  0.1997
33280SOL     OW 5931   6.520   3.239   1.724 -0.4830  0.2540  0.2846
33280SOL    HW1 5932   6.481   3.153   1.738 -0.0436  0.1968  1.2335
33280SOL    HW2 5933   6.569   3.231   1.642  0.0388 -0.5820  0.6691
33281SOL     OW 5934   0.814   3.595  10.101  0.3423 -0.1444 -0.6265
33281SOL    HW1 5935   0.789   3.687  10.091  1.4259  0.1037 -1.2705
33281SOL    HW2 5936   0.788   3.553  10.019 -1.7409 -0.8387  0.3254
33282SOL     OW 5937   3.482   7.236   4.792 -0.0340 -0.2913  0.1190
33282SOL    HW1 5938   3.455   7.257   4.882  2.2901 -0.8314  1.0092
33282SOL    HW2 5939   3.498   7.321   4.751  0.2412 -0.0705  0.6743
33283SOL     OW 5940   0.214   6.644   0.060  0.3562 -0.1732  0.7181
33283SOL    HW1 5941   0.173   6.600   0.135 -1.0476 -0.0597  0.0436
33283SOL    HW2 5942   0.163   6.724   0.049  1.4381  0.5054  0.4943
33284SOL     OW 5943   4.242   9.325   8.611  0.1655  0.2232 -0.0604
33284SOL    HW1 5944   4.214   9.316   8.520 -1.6437 -0.4487  0.5220
33284SOL    HW2 5945   4.331   9.290   8.613 -0.5058 -1.6679 -1.1915
33285SOL     OW 5946   6.538   3.141   6.643  0.4216  0.5998 -0.2336
33285SOL    HW1 5947   6.474   3.164   6.575 -0.2605  1.7287  0.7469
33285SOL    HW2 5948   6.489   3.088   6.706  0.8990  0.0560 -0.3074
33286SOL     OW 5949   4.717   1.839   5.415  0.3450 -0.4650  0.0368
33286SOL    HW1 5950   4.786   1.906   5.413  1.9372 -1.9960  0.5211
33286SOL    HW2 5951   4.729   1.791   5.333  0.4000 -1.2241  0.4762
33287SOL     OW 5952   1.378   9.763   7.499 -0.6344 -0.2336  0.5635
33287SOL    HW1 5953   1.297   9.784   7.453 -0.9607 -0.0789  1.1939
33287SOL    HW2 5954   1.350   9.731   7.584 -0.0283  0.3730  1.0102
33288SOL     OW 5955   4.987   0.702   4.801 -0.6367 -0.6160  0.3256
33288SOL    HW1 5956   4.899   0.673   4.778 -0.4838 -1.0548  0.2814
33288SOL    HW2 5957   4.985   0.797   4.790 -1.5487 -0.4297  1.8373
33289SOL     OW 5958  10.044  10.322   6.868  0.5550  0.2628  0.0984
33289SOL    HW1 5959  10.110  10.345   6.935  0.5464 -1.0468  0.5857
33289SOL    HW2 5960   9.998  10.404   6.851  0.1818  0.5350  2.1346
33290SOL     OW 5961   5.233   7.635   5.643  0.3676 -0.0170  0.0601
33290SOL    HW1 5962   5.268   7.716   5.681  0.4267 -0.5119  1.1207
33290SOL    HW2 5963   5.311   7.582   5.624  0.4107  0.6938 -1.9373
33291SOL     OW 5964   4.334   7.638   4.640  0.6363  0.4950  0.5987
33291SOL    HW1 5965   4.243   7.626   4.614  0.3471  2.4045  0.5816
33291SOL    HW2 5966   4.382   7.570   4.592 -0.7311 -0.3930  0.4380
33292SOL     OW 5967   4.464   8.963   7.066 -0.0581  0.6138  0.4421
33292SOL    HW1 5968   4.444   8.943   7.157  0.8583 -1.7281  0.2062
33292SOL    HW2 5969   4.496   8.880   7.030 -0.4261  1.4689 -2.0266
33293SOL     OW 5970   9.079   2.966   6.957 -0.0006  0.7918  0.8024
33293SOL    HW1 5971   8.997   2.961   6.906  0.7359 -1.9492 -0.3014
33293SOL    HW2 5972   9.141   3.007   6.897 -0.3852  2.4733  1.4891
33294SOL     OW 5973   7.311   3.697   0.626  0.2910  0.2851  0.1387
33294SOL    HW1 5974   7.349   3.770   0.577 -1.7247  0.4203 -1.3429
33294SOL    HW2 5975   7.277   3.737   0.706  2.2295  0.3318  0.9844
33295SOL     OW 5976   8.806   9.710   9.888 -0.3924  0.0800 -0.0911
33295SOL    HW1 5977   8.741   9.738   9.952 -0.5320  0.4158 -0.3741
33295SOL    HW2 5978   8.797   9.773   9.816  0.0732 -0.0181 -0.2384
33296SOL     OW 5979   2.874  10.254   3.918 -0.3326  0.0684  0.2524
33296SOL    HW1 5980   2.828  10.311   3.979 -1.2781  0.9946 -1.2722
33296SOL    HW2 5981   2.826  10.172   3.920 -1.7462  0.8240 -0.8607
33297SOL     OW 5982   1.148   3.524   5.960 -0.2156 -0.2768 -0.6430
33297SOL    HW1 5983   1.217   3.468   5.993 -0.7140  0.0911  1.0863
33297SOL    HW2 5984   1.075   3.465   5.940 -0.6955 -0.3082  1.0558
33298SOL     OW 5985   8.253   7.680   3.700  0.5780 -0.4372  0.1621
33298SOL    HW1 5986   8.259   7.768   3.737 -1.5053 -1.1959  2.6132
33298SOL    HW2 5987   8.168   7.678   3.657  0.8780 -1.0975 -0.4169
33299SOL     OW 5988   4.081   6.718   6.353  0.0910 -0.3063  0.4210
33299SOL    HW1 5989   4.011   6.653   6.361 -0.7853  0.6041  0.3153
33299SOL    HW2 5990   4.125   6.695   6.272 -1.3061  0.2544 -0.5251
33300SOL     OW 5991   7.427   7.627   2.639 -0.0671  0.2876  0.2827
33300SOL    HW1 5992   7.341   7.615   2.679 -0.7607  1.7587 -0.6747
33300SOL    HW2 5993   7.420   7.582   2.555  1.0392 -1.9072  1.2967
33301SOL     OW 5994   0.091   8.163   4.373  0.0054 -0.0348  0.0993
33301SOL    HW1 5995   0.178   8.123   4.373 -1.5520 -3.8449 -0.1392
33301SOL    HW2 5996   0.084   8.205   4.288  0.2604 -3.3335 -1.7103
33302SOL     OW 5997   7.365   3.131   7.474 -0.1106  0.4501 -0.4774
33302SOL    HW1 5998   7.449   3.093   7.499  0.3637  2.1400  0.6443
33302SOL    HW2 5999   7.374   3.224   7.491 -2.6591  0.5371  1.0060
33303SOL     OW 6000   1.015   8.926   9.175 -0.7149 -0.5180  0.6182
33303SOL    HW1 6001   1.044   8.987   9.242 -0.4076 -0.7160  0.6682
33303SOL    HW2 6002   0.920   8.937   9.171 -0.6538  0.0200  0.5688
33304SOL     OW 6003   2.784   1.551   7.758 -0.1349  0.0275 -0.4549
33304SOL    HW1 6004   2.775   1.547   7.854  1.3660  0.1093 -0.2901
33304SOL    HW2 6005   2.858   1.609   7.743  1.4350 -2.1307 -1.5526
33305SOL     OW 6006   2.137   0.557   3.535 -0.0605 -0.8569  1.0459
33305SOL    HW1 6007   2.074   0.605   3.480  0.4503 -2.2680 -0.8860
33305SOL    HW2 6008   2.099   0.560   3.623 -0.3994  2.3960  0.9163
33306SOL     OW 6009   5.900   4.589   0.378  0.1198 -0.2124 -0.6366
33306SOL    HW1 6010   5.890   4.538   0.459  2.3216  0.1891 -0.0545
33306SOL    HW2 6011   5.822   4.566   0.326  0.3172 -3.1100  0.1574
33307SOL     OW 6012   5.986   6.584  10.217  0.1878  0.4388 -0.2159
33307SOL    HW1 6013   5.922   6.646  10.182 -1.8803 -2.5415 -2.3631
33307SOL    HW2 6014   5.932   6.517  10.260  2.0147 -1.1629 -0.2984
33308SOL     OW 6015   2.672   4.385   0.743  0.5861 -0.2733 -0.0589
33308SOL    HW1 6016   2.746   4.366   0.801  0.5919 -0.0447  0.0105
33308SOL    HW2 6017   2.608   4.317   0.762  0.4866 -0.0551  0.3921
33309SOL     OW 6018   7.391   0.021   4.775 -0.0668 -0.3044  0.0534
33309SOL    HW1 6019   7.355   0.068   4.699 -1.6876 -0.9659  0.3819
33309SOL    HW2 6020   7.400  -0.069   4.745  0.1911 -0.3783  0.3568
33310SOL     OW 6021   6.749   2.385   0.187 -0.3501 -0.1722  0.2228
33310SOL    HW1 6022   6.741   2.387   0.283 -1.2515  1.9374  0.1649
33310SOL    HW2 6023   6.820   2.323   0.170  1.5360  1.1909  2.4192
33311SOL     OW 6024   9.918   4.535   8.738  0.7619  0.0197  0.0576
33311SOL    HW1 6025   9.987   4.474   8.713  1.7025  0.4295  1.5773
33311SOL    HW2 6026   9.839   4.480   8.743  1.7205 -1.3101  2.1629
33312SOL     OW 6027   0.719   0.588   6.224 -0.6096  0.0697 -0.4522
33312SOL    HW1 6028   0.680   0.531   6.290 -1.9577  2.3469  0.8714
33312SOL    HW2 6029   0.646   0.644   6.196  0.8077  1.7348 -0.9566
33313SOL     OW 6030   6.936   9.019   3.486  0.4615  0.0621  0.2526
33313SOL    HW1 6031   6.979   9.020   3.400  1.1631  0.1334  0.5991
33313SOL    HW2 6032   6.984   8.954   3.536  0.5420  0.5647  0.8381
33314SOL     OW 6033   7.195   2.018   4.384  0.0519 -0.1925 -0.1803
33314SOL    HW1 6034   7.190   2.105   4.423  0.1923  0.1086 -0.8100
33314SOL    HW2 6035   7.152   1.960   4.447 -0.0427  0.3326  0.2424
33315SOL     OW 6036   2.381  10.706   0.699 -0.2099 -0.3470  0.1301
33315SOL    HW1 6037   2.441  10.712   0.625  0.7747  0.9247  1.0028
33315SOL    HW2 6038   2.415  10.634   0.752  0.9168  0.7048  0.8965
33316SOL     OW 6039   6.509   9.815  10.862  0.4020 -0.2148  0.3263
33316SOL    HW1 6040   6.502   9.900  10.906  0.3287 -0.1165  0.1263
33316SOL    HW2 6041   6.587   9.824  10.807  0.9374 -0.5992  1.0069
33317SOL     OW 6042  10.433   5.042   6.197 -1.1256  0.7134  0.2290
33317SOL    HW1 6043  10.349   5.088   6.190 -1.0060  1.0434  0.8242
33317SOL    HW2 6044  10.433   4.979   6.125 -1.7213  0.9723 -0.0010
33318SOL     OW 6045   1.524   5.666   1.213  0.5727 -0.2500  0.1231
33318SOL    HW1 6046   1.537   5.667   1.308  0.6541  1.7932  0.1271
33318SOL    HW2 6047   1.430   5.656   1.202  0.7349 -2.3749  0.3482
33319SOL     OW 6048   2.462   1.740   7.016 -0.0916  0.4722  0.4197
33319SOL    HW1 6049   2.456   1.659   6.965 -0.3022  1.4719 -1.2166
33319SOL    HW2 6050   2.402   1.726   7.089  0.1991 -1.0082  0.4125
33320SOL     OW 6051   3.201   6.886   0.488  0.0503 -0.3065 -0.0131
33320SOL    HW1 6052   3.128   6.940   0.458  0.6655  0.8276  0.4486
33320SOL    HW2 6053   3.278   6.943   0.477  0.9065 -1.5461 -0.7054
33321SOL     OW 6054   5.465   8.953   6.299 -0.2880 -0.3021 -0.1062
33321SOL    HW1 6055   5.512   9.032   6.271 -0.0505  0.0233  1.1634
33321SOL    HW2 6056   5.398   8.985   6.359  0.6507 -1.1519  1.4746
33322SOL     OW 6057   7.959   9.549   4.666 -0.0898 -0.0710 -0.1963
33322SOL    HW1 6058   8.036   9.604   4.650 -1.0731  1.4298  0.0235
33322SOL    HW2 6059   7.926   9.530   4.578  0.0124  0.0497 -0.2628
33323SOL     OW 6060   7.860   3.746   9.505 -0.2780 -0.2699  0.0915
33323SOL    HW1 6061   7.873   3.724   9.413  0.7366  0.0982  0.1376
33323SOL    HW2 6062   7.767   3.730   9.520 -1.0760  2.0275 -1.6815
33324SOL     OW 6063   8.552   1.996  10.066  0.6134 -0.4526 -0.5803
33324SOL    HW1 6064   8.573   2.065  10.004  1.2960 -0.0577  0.0728
33324SOL    HW2 6065   8.634   1.979  10.112 -0.0256 -0.2440  0.6894
33325SOL     OW 6066   0.544   3.621   6.372 -0.3157 -0.5352  0.9665
33325SOL    HW1 6067   0.585   3.550   6.322 -0.8307 -0.1571 -0.0250
33325SOL    HW2 6068   0.452   3.596   6.378 -0.5611  0.1680  0.3500
33326SOL     OW 6069   4.215   8.746  10.428 -0.3448  0.3225 -0.1561
33326SOL    HW1 6070   4.252   8.828  10.461  0.5633  0.2454 -0.9558
33326SOL    HW2 6071   4.225   8.684  10.500  0.3626  0.5164 -0.0849
33327SOL     OW 6072   1.417   6.286   7.320 -0.2878  0.0908  0.1873
33327SOL    HW1 6073   1.454   6.201   7.347  0.1789 -0.9529 -3.2937
33327SOL    HW2 6074   1.490   6.333   7.281 -1.2358  0.7537 -0.8446
33328SOL     OW 6075   0.942   6.997   6.572  0.0242 -1.4182 -0.3902
33328SOL    HW1 6076   0.949   7.091   6.588 -1.5478 -1.6608  2.3005
33328SOL    HW2 6077   0.961   6.988   6.478  1.0195  1.4392 -0.5848
33329SOL     OW 6078   7.947   7.178   9.533 -0.3037  0.0529 -0.1843
33329SOL    HW1 6079   7.997   7.128   9.597  3.5055  4.1344  0.5490
33329SOL    HW2 6080   7.997   7.170   9.451 -0.0702  1.7654 -0.2616
33330SOL     OW 6081   1.434   7.971  10.052 -0.4898  0.0983 -0.4275
33330SOL    HW1 6082   1.359   8.028  10.066 -0.6060 -0.3849  1.1101
33330SOL    HW2 6083   1.405   7.910   9.984 -1.6142 -0.3001  0.3893
33331SOL     OW 6084   8.712   6.768   9.343 -0.1528 -0.0238 -0.1431
33331SOL    HW1 6085   8.802   6.743   9.323 -0.2777 -0.0804 -0.6519
33331SOL    HW2 6086   8.668   6.771   9.258 -0.9462 -1.2347  0.1928
33332SOL     OW 6087   1.068  10.922   3.910 -0.0056 -0.2278  0.0897
33332SOL    HW1 6088   1.136  10.937   3.976  0.9809 -0.6556 -0.7970
33332SOL    HW2 6089   0.986  10.929   3.958  0.5488  2.2497  0.8686
33333SOL     OW 6090   8.571   1.291   6.801  0.1042 -0.2284 -0.5113
33333SOL    HW1 6091   8.505   1.295   6.871 -0.7420 -0.1314 -1.2972
33333SOL    HW2 6092   8.523   1.316   6.722  1.5061  1.5679 -0.8317
33334SOL     OW 6093   0.198   7.992   0.215 -0.1073  0.4443  0.3428
33334SOL    HW1 6094   0.241   8.063   0.262  0.4132  1.4746 -1.5809
33334SOL    HW2 6095   0.268   7.949   0.166 -0.3581 -1.6676  1.7002
33335SOL     OW 6096   5.810   7.529   4.371 -0.4218  0.3929  0.4516
33335SOL    HW1 6097   5.801   7.576   4.454  1.1766  1.0554  0.2689
33335SOL    HW2 6098   5.801   7.596   4.304 -0.9874 -0.0308  0.0923
33336SOL     OW 6099   8.692   1.706   2.944  0.1173 -0.1942 -0.0117
33336SOL    HW1 6100   8.670   1.798   2.954 -0.5069 -0.0250 -2.2840
33336SOL    HW2 6101   8.642   1.661   3.012  1.0298  1.1589  1.6324
33337SOL     OW 6102   8.028   6.592   0.128 -0.0869 -0.3725  0.7042
33337SOL    HW1 6103   8.053   6.682   0.104  0.3753 -0.1589  1.8875
33337SOL    HW2 6104   8.096   6.537   0.089 -0.1134 -0.1627  0.3623
33338SOL     OW 6105   8.635   2.645   1.615 -0.0096 -0.2866 -0.4775
33338SOL    HW1 6106   8.657   2.709   1.683 -0.0730 -1.8573  1.0977
33338SOL    HW2 6107   8.545   2.620   1.633 -0.2872 -0.1718 -1.6369
33339SOL     OW 6108   9.840   8.510   3.593  0.0577  0.4547 -0.2426
33339SOL    HW1 6109   9.918   8.473   3.636 -0.9722  0.0665  1.3875
33339SOL    HW2 6110   9.830   8.458   3.513  0.7594 -0.3358  0.1638
33340SOL     OW 6111   7.926   3.718   0.752 -0.1326  0.4104 -0.4325
33340SOL    HW1 6112   7.934   3.632   0.794  0.0897  0.0548 -1.1610
33340SOL    HW2 6113   7.838   3.718   0.715  0.0954  0.2137 -0.9973
33341SOL     OW 6114   5.227   8.676   4.870 -0.7815  0.7579 -0.2838
33341SOL    HW1 6115   5.300   8.715   4.822 -0.1767  0.6987  0.5567
33341SOL    HW2 6116   5.201   8.600   4.819  0.6117  0.0245  0.0603
33342SOL     OW 6117   5.915   5.796   2.837  0.0115  0.2793 -0.1683
33342SOL    HW1 6118   5.946   5.832   2.920  0.4201  0.9673 -0.6042
33342SOL    HW2 6119   5.840   5.852   2.813  0.1059  0.3000 -0.4215
33343SOL     OW 6120   0.408   3.491   4.515 -0.2877  0.0984  0.0398
33343SOL    HW1 6121   0.387   3.569   4.566 -1.7161 -0.1246 -0.1856
33343SOL    HW2 6122   0.413   3.421   4.580  0.2089  0.2282  0.1454
33344SOL     OW 6123   3.819  10.712   3.086  1.1394 -0.1411  0.1974
33344SOL    HW1 6124   3.846  10.733   2.996  0.8614  0.2921  0.2098
33344SOL    HW2 6125   3.825  10.617   3.091  2.0268 -0.0988  0.0021
33345SOL     OW 6126   3.882   6.815   0.074  0.0856 -0.4717 -0.0492
33345SOL    HW1 6127   3.830   6.760   0.132  0.4888 -1.1865 -0.3571
33345SOL    HW2 6128   3.894   6.763  -0.005  0.0110  0.2778 -0.5583
33346SOL     OW 6129  10.010   3.551   9.801  0.1735  0.4709  0.1089
33346SOL    HW1 6130   9.926   3.535   9.845 -0.7305  0.9101 -1.4010
33346SOL    HW2 6131  10.070   3.488   9.842 -1.3151 -1.1169 -0.0038
33347SOL     OW 6132   8.765   9.514  10.559 -0.4514  0.2306  0.3830
33347SOL    HW1 6133   8.729   9.592  10.601 -0.0370  0.6154  0.0254
33347SOL    HW2 6134   8.858   9.515  10.581  0.1163  1.3119 -1.8457
33348SOL     OW 6135   0.027   3.248   0.084  0.1031 -0.2814 -0.2107
33348SOL    HW1 6136   0.048   3.314   0.149  0.4440 -1.9929  1.4926
33348SOL    HW2 6137   0.073   3.276   0.005  1.1359  0.9102  0.7834
33349SOL     OW 6138   3.019   9.698   1.365 -0.0936 -0.0893 -0.2999
33349SOL    HW1 6139   3.109   9.708   1.335  0.1058 -0.2519  0.2223
33349SOL    HW2 6140   3.017   9.745   1.449 -1.0893  1.8990 -1.3597
33350SOL     OW 6141   4.492   6.174   8.019 -0.4493 -0.5971  0.1198
33350SOL    HW1 6142   4.491   6.104   7.955  0.3431 -0.1932 -0.3599
33350SOL    HW2 6143   4.585   6.197   8.028 -0.7979  1.5622 -1.0560
33351SOL     OW 6144  10.164   2.973   1.753  0.3937 -0.2121  0.1717
33351SOL    HW1 6145  10.252   2.960   1.718 -0.0025  1.0482 -1.4134
33351SOL    HW2 6146  10.178   3.012   1.839  1.4288  2.1172 -0.9621
33352SOL     OW 6147   6.588   8.183   1.135  0.4074 -0.3073 -0.4260
33352SOL    HW1 6148   6.671   8.177   1.087  0.1862  0.3036 -0.9002
33352SOL    HW2 6149   6.521   8.182   1.066  0.0914  0.7038 -0.1482
33353SOL     OW 6150   0.719   0.576   2.226  0.0818  0.5542 -0.0891
33353SOL    HW1 6151   0.631   0.614   2.227 -0.4235 -0.5520  1.7651
33353SOL    HW2 6152   0.707   0.491   2.184 -0.2422 -0.5752  2.1438
33354SOL     OW 6153   7.235   3.602   8.380 -0.0662  0.0924 -0.0536
33354SOL    HW1 6154   7.213   3.676   8.436 -0.9072  1.3597 -1.9538
33354SOL    HW2 6155   7.155   3.585   8.330  0.2278 -1.8899  0.0665
33355SOL     OW 6156  10.867   8.807   9.834 -0.6612  0.7495 -0.3634
33355SOL    HW1 6157  10.837   8.886   9.790 -1.2743 -0.3117 -1.9144
33355SOL    HW2 6158  10.871   8.741   9.765 -0.4551 -0.6546  0.9484
33356SOL     OW 6159   3.348   6.770   1.515 -0.0723  0.3617  0.3227
33356SOL    HW1 6160   3.297   6.763   1.435  1.1312  0.4253 -0.4717
33356SOL    HW2 6161   3.301   6.833   1.568 -1.0194  0.1291 -0.2258
33357SOL     OW 6162   4.996   6.073   6.315  0.3991 -0.5796 -0.0095
33357SOL    HW1 6163   4.936   6.000   6.335  0.4535 -1.0825 -1.5696
33357SOL    HW2 6164   5.059   6.071   6.387 -2.1023  0.7688  2.3961
33358SOL     OW 6165   1.195   7.948   1.496  0.3066  0.4398  0.3397
33358SOL    HW1 6166   1.269   7.902   1.456 -0.8736 -0.9387 -0.3463
33358SOL    HW2 6167   1.124   7.941   1.431 -0.4137  1.8286  0.9248
33359SOL     OW 6168   1.163   0.171  10.443  0.5218 -0.1932 -0.3206
33359SOL    HW1 6169   1.121   0.210  10.366 -2.2833  0.0794  1.2212
33359SOL    HW2 6170   1.240   0.226  10.458  0.5653  0.3739 -2.3028
33360SOL     OW 6171   9.334   4.667   7.907  0.1726  0.5198  0.6211
33360SOL    HW1 6172   9.338   4.642   7.815  1.7787  1.4230  0.4099
33360SOL    HW2 6173   9.405   4.730   7.918 -1.5786  2.4431  1.8827
33361SOL     OW 6174   6.428   5.646   1.809  0.4974 -0.2092 -0.7383
33361SOL    HW1 6175   6.372   5.698   1.752  0.9423  0.7179 -0.3386
33361SOL    HW2 6176   6.479   5.710   1.858  3.5705 -0.9873 -2.6701
33362SOL     OW 6177   4.028   1.632   3.166  0.1939 -0.3504  0.3672
33362SOL    HW1 6178   4.122   1.619   3.153  0.4106  2.2630 -1.4822
33362SOL    HW2 6179   3.995   1.546   3.193  3.2000 -1.1426  1.8861
33363SOL     OW 6180   5.167   7.106   2.995 -0.0515 -0.2000 -0.1776
33363SOL    HW1 6181   5.121   7.110   2.911 -1.4505 -2.5903  0.3779
33363SOL    HW2 6182   5.227   7.032   2.986  0.6352  0.2490  0.5535
33364SOL     OW 6183   9.150   1.246   4.417  0.0746  0.3251  0.6699
33364SOL    HW1 6184   9.230   1.255   4.367  0.5172  0.8351  1.4523
33364SOL    HW2 6185   9.103   1.329   4.404  0.6460  0.8607  1.8490
33365SOL     OW 6186   7.609   0.275  10.904 -0.3495 -0.4409  0.1030
33365SOL    HW1 6187   7.535   0.214  10.897 -1.3073  0.8027 -1.1721
33365SOL    HW2 6188   7.581   0.351  10.854  1.8509  0.0326 -0.4625
33366SOL     OW 6189   2.028   7.426   6.693  0.4584 -0.3806  0.0487
33366SOL    HW1 6190   2.061   7.506   6.651 -1.7603  0.5816  0.0146
33366SOL    HW2 6191   2.035   7.443   6.787  1.0219 -0.6095  0.0505
33367SOL     OW 6192  10.578   1.802  10.434  0.3657  0.3196  0.0598
33367SOL    HW1 6193  10.631   1.742  10.487 -1.1433 -1.2591 -0.1299
33367SOL    HW2 6194  10.541   1.864  10.496 -0.9766 -1.1956  0.8351
33368SOL     OW 6195   4.753   6.154   8.009  0.2067 -0.4109  0.1442
33368SOL    HW1 6196   4.766   6.060   8.007 -2.2652 -0.8404  1.2758
33368SOL    HW2 6197   4.787   6.185   7.925  1.2608 -2.2350 -0.1601
33369SOL     OW 6198   0.493   5.640   8.130  0.2830  0.4052  0.3025
33369SOL    HW1 6199   0.560   5.581   8.163  0.4056 -0.3628 -1.2144
33369SOL    HW2 6200   0.526   5.669   8.045 -0.1903  1.9810  0.6103
33370SOL     OW 6201   9.914   1.918   7.496  0.0014 -0.2876 -0.3322
33370SOL    HW1 6202   9.950   1.829   7.498 -1.6486 -0.9993  1.3740
33370SOL    HW2 6203   9.859   1.922   7.575  0.0935  2.2861 -0.3424
33371SOL     OW 6204  10.542   3.022   2.540  0.1183  0.4429  0.6563
33371SOL    HW1 6205  10.618   2.985   2.496  0.3208  0.2462  1.1645
33371SOL    HW2 6206  10.576   3.057   2.622 -0.0668  1.7488  0.2072
33372SOL     OW 6207   5.346   1.127   7.293  0.5880  0.0741  0.1013
33372SOL    HW1 6208   5.391   1.195   7.243  0.0487  1.2809  1.1953
33372SOL    HW2 6209   5.254   1.136   7.269  0.3514  0.5366  1.1300
33373SOL     OW 6210  10.285   8.012   7.095  0.2797 -0.5561 -0.4803
33373SOL    HW1 6211  10.248   8.019   7.007 -1.0904  2.1633  0.1946
33373SOL    HW2 6212  10.226   7.953   7.141 -0.7730  0.3779 -0.5974
33374SOL     OW 6213   0.581   9.127   5.307  0.0033  0.0120  0.3118
33374SOL    HW1 6214   0.671   9.128   5.276  0.8810  0.5461  2.6921
33374SOL    HW2 6215   0.553   9.036   5.298  0.9119 -0.2404 -0.0292
33375SOL     OW 6216   1.558   2.849   2.584  0.9896  0.2815  0.5546
33375SOL    HW1 6217   1.570   2.755   2.574  0.2248  0.3154 -0.8645
33375SOL    HW2 6218   1.631   2.888   2.535 -0.0874  0.4191 -1.0036
33376SOL     OW 6219   5.604   4.732   5.073 -0.5101  0.3118  0.0154
33376SOL    HW1 6220   5.696   4.754   5.060 -0.3774 -1.0600 -1.8019
33376SOL    HW2 6221   5.558   4.815   5.061  0.4164  0.8107 -0.1704
33377SOL     OW 6222   5.931   8.866   2.568  0.4699  0.5900 -0.1228
33377SOL    HW1 6223   5.993   8.862   2.495 -0.2821 -0.5246 -0.7340
33377SOL    HW2 6224   5.888   8.951   2.559  0.3025  0.4095 -1.0470
33378SOL     OW 6225   6.513   9.247   1.307  0.1089  0.5557  0.6659
33378SOL    HW1 6226   6.506   9.321   1.246 -1.8246 -0.6413 -0.6773
33378SOL    HW2 6227   6.530   9.171   1.250  0.0859 -0.3349  1.8073
33379SOL     OW 6228  10.152   3.241   3.730 -0.3344  0.3492  0.3078
33379SOL    HW1 6229  10.164   3.271   3.640 -1.1391  2.2612  0.8029
33379SOL    HW2 6230  10.212   3.296   3.782 -0.7757  0.1134  1.0858
33380SOL     OW 6231   2.409   1.708  10.191  0.3594  0.0489  0.3174
33380SOL    HW1 6232   2.451   1.791  10.170  0.4664 -0.2940 -0.9304
33380SOL    HW2 6233   2.443   1.647  10.125 -1.5860 -0.4062 -0.3366
33381SOL     OW 6234   2.239   4.258   9.343 -0.5746 -0.5930  0.4957
33381SOL    HW1 6235   2.308   4.279   9.281 -1.4386 -1.1234 -0.6779
33381SOL    HW2 6236   2.276   4.188   9.397 -0.2206 -0.9277 -0.1677
33382SOL     OW 6237   1.134   4.151   6.751 -0.0260  0.2924  0.1717
33382SOL    HW1 6238   1.219   4.144   6.707 -0.1155 -0.5160  0.1176
33382SOL    HW2 6239   1.155   4.161   6.843  0.1315  0.3100  0.1333
33383SOL     OW 6240   0.643   4.552   6.272  0.0745 -0.4181 -0.1456
33383SOL    HW1 6241   0.697   4.473   6.265  0.6637  0.0126 -0.5734
33383SOL    HW2 6242   0.695   4.612   6.325  0.0169 -0.0064 -0.5447
33384SOL     OW 6243   1.168   6.650   9.316 -0.1250  0.2236 -0.3454
33384SOL    HW1 6244   1.202   6.738   9.332 -0.0149 -0.0816  1.2912
33384SOL    HW2 6245   1.233   6.610   9.258  0.7377  0.6531  0.2948
33385SOL     OW 6246   3.994   6.528   5.666  0.0045  0.6596 -0.3731
33385SOL    HW1 6247   4.055   6.581   5.616  1.1833  0.2962  0.6483
33385SOL    HW2 6248   4.035   6.517   5.751 -0.9857 -0.5073 -0.0142
33386SOL     OW 6249   6.820   2.128   7.237 -0.3398 -0.1117 -0.4257
33386SOL    HW1 6250   6.836   2.076   7.315  0.4846 -0.1805 -0.6307
33386SOL    HW2 6251   6.837   2.068   7.164 -1.2869 -0.1054 -0.6625
33387SOL     OW 6252   7.562   0.738   9.459 -0.3092  0.5772  0.5971
33387SOL    HW1 6253   7.477   0.730   9.502 -2.0230  2.0812 -2.2044
33387SOL    HW2 6254   7.592   0.826   9.481  0.0448  0.4120  0.7778
33388SOL     OW 6255  10.222   7.556   8.010  0.6794  0.1937 -0.1737
33388SOL    HW1 6256  10.290   7.500   8.046  0.0755 -0.5997 -0.2476
33388SOL    HW2 6257  10.213   7.529   7.919  2.1355  2.1253 -0.9698
33389SOL     OW 6258   4.132   0.185   8.513 -0.0195 -0.1676 -0.3018
33389SOL    HW1 6259   4.052   0.185   8.565 -0.7531  3.4429 -1.1719
33389SOL    HW2 6260   4.103   0.198   8.423  1.5040  0.4004 -0.7485
33390SOL     OW 6261   1.687   2.658   1.564 -0.1186 -0.0566 -0.4314
33390SOL    HW1 6262   1.624   2.612   1.508  1.0937 -1.3907 -0.7489
33390SOL    HW2 6263   1.654   2.748   1.568 -1.7549 -0.5898 -1.0039
33391SOL     OW 6264   0.962   4.002   1.403 -0.3003  0.2361 -0.7658
33391SOL    HW1 6265   1.047   3.971   1.435 -0.7253 -1.0931 -0.8429
33391SOL    HW2 6266   0.952   4.089   1.441  0.3417 -0.2747  0.6700
33392SOL     OW 6267   6.564   4.360   3.376  0.4879 -0.2607 -0.1967
33392SOL    HW1 6268   6.628   4.296   3.346  0.4980 -0.2397 -0.2204
33392SOL    HW2 6269   6.593   4.385   3.463  1.2893  0.7764 -0.7428
33393SOL     OW 6270   7.848   8.708   8.945 -0.6023 -0.1019 -0.2986
33393SOL    HW1 6271   7.866   8.764   8.870  1.7234  2.6773  2.0609
33393SOL    HW2 6272   7.757   8.681   8.934 -0.4078  0.2642 -3.9467
33394SOL     OW 6273  10.661   0.633  10.597  0.4247  0.0772 -0.3233
33394SOL    HW1 6274  10.746   0.622  10.641 -0.5068 -2.0983  1.1313
33394SOL    HW2 6275  10.674   0.593  10.511  1.1172  0.5809 -0.4607
33395SOL     OW 6276   2.007   7.085   6.204 -0.3648 -0.4338 -0.0866
33395SOL    HW1 6277   1.964   7.144   6.266 -0.7287 -0.4928 -0.2797
33395SOL    HW2 6278   2.097   7.117   6.199 -0.3583 -0.3689  0.3962
33396SOL     OW 6279   8.753   0.841   1.943  0.1010  0.5052 -0.0419
33396SOL    HW1 6280   8.725   0.774   1.880  0.7600 -1.0938  1.3151
33396SOL    HW2 6281   8.671   0.878   1.976 -0.2778  0.2285 -0.6570
33397SOL     OW 6282   0.626   8.259   2.861 -0.0498 -0.5368  0.3335
33397SOL    HW1 6283   0.701   8.317   2.855 -1.2379  1.2758  1.7655
33397SOL    HW2 6284   0.595   8.249   2.771 -0.3957  1.9367  0.1209
33398SOL     OW 6285   3.620   9.527   9.292  0.1515 -0.3207  0.2807
33398SOL    HW1 6286   3.641   9.484   9.375 -1.0042  2.1301  1.9640
33398SOL    HW2 6287   3.534   9.566   9.307 -1.4587 -2.1531 -3.1181
33399SOL     OW 6288   8.125   4.382   7.673  0.1497  0.2933 -0.0615
33399SOL    HW1 6289   8.216   4.357   7.653 -0.7775 -3.0008 -0.8229
33399SOL    HW2 6290   8.110   4.347   7.761 -0.1932  1.4983  0.3747
33400SOL     OW 6291   9.788   5.868   6.695 -0.2903 -0.2436 -0.8620
33400SOL    HW1 6292   9.786   5.818   6.613 -2.0630  0.5179 -1.3040
33400SOL    HW2 6293   9.704   5.849   6.737 -0.5927  1.6004 -0.5773
33401SOL     OW 6294   4.911   9.201   4.474  0.4899 -0.1050  0.4075
33401SOL    HW1 6295   4.830   9.170   4.515  0.1963 -1.7860 -1.3091
33401SOL    HW2 6296   4.884   9.277   4.422  0.4869  0.7557  1.6193
33402SOL     OW 6297   7.109   0.862   9.320 -0.0512 -0.1227 -0.2673
33402SOL    HW1 6298   7.147   0.790   9.269 -1.0261 -0.1196 -1.0318
33402SOL    HW2 6299   7.127   0.839   9.411 -0.4796 -1.4364 -0.4860
33403SOL     OW 6300   6.527   2.176   1.347  0.3887 -0.2392 -0.1824
33403SOL    HW1 6301   6.473   2.183   1.425 -0.3778 -0.3903 -0.6836
33403SOL    HW2 6302   6.542   2.267   1.320  0.4936 -0.1927  0.0368
33404SOL     OW 6303   8.897   0.439   8.362  0.2920  0.5003  0.3790
33404SOL    HW1 6304   8.901   0.513   8.423  0.8389 -0.1607  1.1690
33404SOL    HW2 6305   8.977   0.390   8.379 -0.4278 -0.6967  0.4107
33405SOL     OW 6306   0.730   3.478  10.711  0.3041  0.1900  0.6450
33405SOL    HW1 6307   0.650   3.485  10.659 -0.4569 -1.2212  1.5564
33405SOL    HW2 6308   0.701   3.492  10.801  0.8104 -1.6497  1.1337
33406SOL     OW 6309   1.517  10.490   3.027  0.8708 -0.1721 -0.1729
33406SOL    HW1 6310   1.552  10.537   3.103 -0.9120 -0.2595  0.7819
33406SOL    HW2 6311   1.582  10.423   3.008  1.8416  0.5114  0.6341
33407SOL     OW 6312   6.573  10.093  10.349 -0.7379 -0.3323 -0.1781
33407SOL    HW1 6313   6.577  10.007  10.308 -0.9120 -1.2786  1.7363
33407SOL    HW2 6314   6.580  10.077  10.443 -1.5529  1.6668  0.2927
33408SOL     OW 6315   3.168   2.596   4.840  0.1497 -0.1788 -0.0034
33408SOL    HW1 6316   3.078   2.567   4.826 -0.2291  1.2670 -0.7162
33408SOL    HW2 6317   3.161   2.669   4.900  0.7059  0.7379 -1.0102
33409SOL     OW 6318   3.496   1.348   9.010  0.1039 -0.3618  0.6027
33409SOL    HW1 6319   3.514   1.305   9.094 -1.3116  0.3810  1.3179
33409SOL    HW2 6320   3.447   1.427   9.033 -1.1992 -0.6519 -0.9920
33410SOL     OW 6321   4.345   4.734  10.327  0.8491  0.2654  0.3747
33410SOL    HW1 6322   4.258   4.738  10.288  0.2985  1.1764  1.6280
33410SOL    HW2 6323   4.350   4.811  10.384  2.3737  0.0866  0.5383
33411SOL     OW 6324   3.724  10.729   4.365  0.2167  0.2162  0.0996
33411SOL    HW1 6325   3.807  10.718   4.411  1.1963  2.2932 -1.0376
33411SOL    HW2 6326   3.720  10.822   4.343 -1.1339 -0.2971 -2.2405
33412SOL     OW 6327   5.141  10.379   6.409 -0.0263 -0.2262  0.0508
33412SOL    HW1 6328   5.225  10.417   6.436 -0.1020 -0.2995  0.3959
33412SOL    HW2 6329   5.098  10.357   6.492 -0.3512 -0.2614 -0.1284
33413SOL     OW 6330   4.775   7.552   9.470 -0.3345  0.0951  0.8495
33413SOL    HW1 6331   4.774   7.456   9.460 -1.6173  0.1994 -0.4423
33413SOL    HW2 6332   4.772   7.566   9.564  0.5032 -1.1219  1.0947
33414SOL     OW 6333   1.892   4.663   2.820  0.4792  0.8367  0.0252
33414SOL    HW1 6334   1.813   4.694   2.775 -1.8662 -2.4931  1.4482
33414SOL    HW2 6335   1.922   4.588   2.768  1.3818  0.6958  0.7228
33415SOL     OW 6336  10.438   1.933   5.268  0.2092 -0.2932 -0.1952
33415SOL    HW1 6337  10.425   1.975   5.353  0.6500  0.0904 -0.3084
33415SOL    HW2 6338  10.497   1.860   5.286  0.1017 -0.3619 -0.1277
33416SOL     OW 6339  10.745   3.786   8.661 -0.5605  0.8753  0.7444
33416SOL    HW1 6340  10.667   3.763   8.712 -0.5028  0.4350  0.6393
33416SOL    HW2 6341  10.818   3.769   8.721 -0.4046 -0.9365  0.0936
33417SOL     OW 6342   6.551   4.681   8.750  0.3758 -0.0845 -0.0753
33417SOL    HW1 6343   6.474   4.680   8.807 -0.1465  2.0079 -0.6602
33417SOL    HW2 6344   6.572   4.589   8.737 -2.2040 -0.7609 -0.1218
33418SOL     OW 6345   4.652   9.301   5.842 -0.2434  0.8127  0.5356
33418SOL    HW1 6346   4.672   9.382   5.797 -1.5454  0.3834 -0.9044
33418SOL    HW2 6347   4.567   9.316   5.883 -0.9023 -0.0582 -0.4479
33419SOL     OW 6348   8.342   9.192   7.697 -0.5391 -0.0454 -0.5233
33419SOL    HW1 6349   8.249   9.211   7.691 -0.6409 -0.6830 -1.0381
33419SOL    HW2 6350   8.383   9.278   7.709 -1.1927  0.2315 -0.2470
33420SOL     OW 6351   0.486   7.485   1.211  0.3804  0.1797  0.6293
33420SOL    HW1 6352   0.523   7.399   1.193  0.6711  0.2923  0.6964
33420SOL    HW2 6353   0.411   7.491   1.151  1.1563  0.4199 -0.3617
33421SOL     OW 6354   3.030   3.691   9.796 -0.3309 -0.0851  0.4386
33421SOL    HW1 6355   3.028   3.643   9.879  0.8548  0.1497  0.6082
33421SOL    HW2 6356   2.981   3.635   9.735 -0.7305 -0.5220  1.1486
33422SOL     OW 6357   0.114   1.674   6.147  0.1705  0.1461  0.5149
33422SOL    HW1 6358   0.062   1.754   6.147 -1.1973 -0.6954 -0.2602
33422SOL    HW2 6359   0.137   1.660   6.239  0.1356  1.2233  0.7014
33423SOL     OW 6360   1.624   3.323   0.678  0.3369 -0.5168  0.0511
33423SOL    HW1 6361   1.675   3.255   0.722 -0.0387 -1.3384 -0.7523
33423SOL    HW2 6362   1.647   3.314   0.585 -0.4991 -0.2389 -0.1927
33424SOL     OW 6363   4.402   5.679   4.963  0.4850  0.1018 -0.3299
33424SOL    HW1 6364   4.356   5.686   5.047  0.3711 -1.6919 -0.2069
33424SOL    HW2 6365   4.401   5.768   4.928  0.8548  0.9709  1.7213
33425SOL     OW 6366   9.862   7.281  10.806 -0.1543 -0.9878  0.2285
33425SOL    HW1 6367   9.897   7.217  10.868  1.7240 -1.6996 -1.4459
33425SOL    HW2 6368   9.855   7.363  10.856 -0.3072 -1.9087  1.7715
33426SOL     OW 6369   5.835   3.815   0.279  0.1854  0.4856 -0.4270
33426SOL    HW1 6370   5.760   3.852   0.325  0.6698  0.1811  0.6398
33426SOL    HW2 6371   5.841   3.865   0.198 -1.2236  0.4485 -0.5789
33427SOL     OW 6372   9.785   7.768   3.917 -0.2749  0.5799  0.4931
33427SOL    HW1 6373   9.714   7.704   3.925 -1.0325  1.2686 -0.5087
33427SOL    HW2 6374   9.814   7.760   3.826  0.6425  0.6195  0.7745
33428SOL     OW 6375   4.013  10.159   8.179 -0.5004  0.3725 -0.2408
33428SOL    HW1 6376   3.992  10.240   8.132 -1.5849  0.7234  0.8027
33428SOL    HW2 6377   4.104  10.170   8.207 -0.9996  1.8127  0.9635
33429SOL     OW 6378   9.440   4.640   1.064  0.0217  0.1059 -0.4605
33429SOL    HW1 6379   9.424   4.558   1.112  0.9784  0.4125  0.4027
33429SOL    HW2 6380   9.402   4.624   0.978 -0.7753 -0.8518  0.0412
33430SOL     OW 6381   6.757   7.592   2.376 -0.4705 -0.3633 -0.4018
33430SOL    HW1 6382   6.794   7.658   2.435 -2.4235  2.4657 -2.1167
33430SOL    HW2 6383   6.826   7.574   2.313 -0.2812  0.9387 -0.5768
33431SOL     OW 6384   4.610   2.961   4.009 -0.0018 -0.3470 -0.1723
33431SOL    HW1 6385   4.667   2.987   4.082 -0.9043 -0.7099  0.6870
33431SOL    HW2 6386   4.523   2.992   4.035  0.1239  2.6824 -2.6757
33432SOL     OW 6387   1.762   8.287   2.136  0.0392  0.7251  0.0062
33432SOL    HW1 6388   1.804   8.267   2.220  1.0948  0.4655 -0.5643
33432SOL    HW2 6389   1.674   8.250   2.143  0.4702 -0.2175  0.6156
33433SOL     OW 6390   4.241   3.068   7.126 -0.1343 -0.0559  0.3390
33433SOL    HW1 6391   4.289   3.118   7.192  0.1668 -0.8997  0.7741
33433SOL    HW2 6392   4.266   2.977   7.142  0.2751 -0.2372 -1.2148
33434SOL     OW 6393   6.283   1.470   4.632  0.1055  0.2289 -0.2521
33434SOL    HW1 6394   6.218   1.500   4.696  0.2068 -0.3894  0.1534
33434SOL    HW2 6395   6.295   1.545   4.573 -0.8309  0.4121 -0.2236
33435SOL     OW 6396   6.916   8.800  10.780  0.6617 -0.1535  0.2151
33435SOL    HW1 6397   6.912   8.705  10.795  2.1614  0.1601  3.5531
33435SOL    HW2 6398   7.009   8.817  10.764  0.2897  0.7402 -1.2340
33436SOL     OW 6399   9.583   9.572   4.952 -0.4068  0.3955  0.4610
33436SOL    HW1 6400   9.514   9.509   4.973 -1.4334  1.2419 -0.2853
33436SOL    HW2 6401   9.546   9.626   4.882  1.2982  0.4059 -0.4797
33437SOL     OW 6402   6.624   2.767   6.122 -0.6054 -0.8360 -0.4228
33437SOL    HW1 6403   6.624   2.712   6.044  3.6885 -1.9204  0.0991
33437SOL    HW2 6404   6.642   2.856   6.089 -0.1326 -1.0659 -0.7976
33438SOL     OW 6405   1.057   8.581   9.834  0.5713  0.6175  0.1330
33438SOL    HW1 6406   0.994   8.653   9.825 -1.1048 -0.6221  1.3662
33438SOL    HW2 6407   1.118   8.611   9.901 -0.6612  0.5887  1.3262
33439SOL     OW 6408   0.350  10.928  10.466 -1.0510 -0.7767  0.2307
33439SOL    HW1 6409   0.345  10.929  10.370 -1.7680 -0.7270  0.2623
33439SOL    HW2 6410   0.444  10.929  10.485 -0.9068  0.0990 -0.4624
33440SOL     OW 6411   2.336   2.799   2.211 -0.4496  0.6648  0.6853
33440SOL    HW1 6412   2.413   2.786   2.266  0.0416 -0.1268 -0.1768
33440SOL    HW2 6413   2.282   2.721   2.225 -0.6102  0.7415  0.5086
33441SOL     OW 6414   5.770   6.178   8.595  0.1833  0.3679 -0.2731
33441SOL    HW1 6415   5.728   6.231   8.527  1.0422  0.0982 -1.0432
33441SOL    HW2 6416   5.746   6.220   8.677 -3.4136 -0.9921 -0.4306
33442SOL     OW 6417   3.760   1.947   9.188 -0.0805 -0.3187  0.0503
33442SOL    HW1 6418   3.743   1.852   9.188 -0.9342 -0.1896  1.1773
33442SOL    HW2 6419   3.729   1.978   9.103  1.2062 -1.1988 -0.7798
33443SOL     OW 6420   4.723   1.147   1.767 -0.3329  0.3462 -0.1833
33443SOL    HW1 6421   4.677   1.219   1.810  1.3944  2.6068 -1.8289
33443SOL    HW2 6422   4.707   1.160   1.674  1.9060  0.0693 -0.6805
33444SOL     OW 6423   5.986   5.082   1.040 -0.0446 -0.2475  0.1488
33444SOL    HW1 6424   5.937   5.005   1.069 -1.2961  0.5348  0.1971
33444SOL    HW2 6425   5.920   5.137   0.997  1.2886 -0.3360 -2.1931
33445SOL     OW 6426   9.788   9.143   7.795 -0.0782  0.1037 -0.4959
33445SOL    HW1 6427   9.818   9.053   7.805  1.7165  0.8728  1.6151
33445SOL    HW2 6428   9.844   9.180   7.727  0.5461  0.1836  0.0583
33446SOL     OW 6429  10.887   0.075   4.971  0.0838  0.3097 -0.3018
33446SOL    HW1 6430  10.915  -0.014   4.992  0.2735  0.6573  1.0231
33446SOL    HW2 6431  10.792   0.068   4.959  0.0563 -0.0116  0.1034
33447SOL     OW 6432   3.772   7.690   9.662  0.5371  0.1784  0.5095
33447SOL    HW1 6433   3.696   7.633   9.659  0.8788 -0.2396 -1.1055
33447SOL    HW2 6434   3.746   7.761   9.721 -1.0476 -0.0277  0.1048
33448SOL     OW 6435   1.252   8.862   8.899 -0.3350 -0.0160 -0.3916
33448SOL    HW1 6436   1.191   8.934   8.886 -0.2136 -0.0039 -0.9486
33448SOL    HW2 6437   1.264   8.825   8.812 -2.3384 -2.3356  0.2373
33449SOL     OW 6438   7.632  10.145   4.085  0.3758 -0.1768  0.9083
33449SOL    HW1 6439   7.609  10.097   4.165 -1.7720  1.4510  1.3761
33449SOL    HW2 6440   7.688  10.217   4.116  1.7395 -1.0407  0.5255
33450SOL     OW 6441   7.449   2.899   3.423  0.3098 -0.3310 -0.1627
33450SOL    HW1 6442   7.446   2.959   3.497  2.7973  0.4735 -0.5925
33450SOL    HW2 6443   7.481   2.953   3.350  0.0484 -1.5881 -1.2479
33451SOL     OW 6444   0.584   8.862   1.237 -0.3865 -0.0696  0.6597
33451SOL    HW1 6445   0.680   8.864   1.244 -0.4414  0.4271  1.4646
33451SOL    HW2 6446   0.566   8.876   1.144  0.3371 -1.0007  0.3661
33452SOL     OW 6447   3.937  10.091   6.165  0.3610  0.0553 -0.4884
33452SOL    HW1 6448   3.947  10.129   6.252  0.4305  1.4842 -1.0939
33452SOL    HW2 6449   3.845  10.103   6.143  0.0386 -1.4922 -0.1062
33453SOL     OW 6450   1.767   3.091   1.683  0.1387 -0.2878  0.0602
33453SOL    HW1 6451   1.710   3.035   1.630 -1.4945  0.7680  0.6290
33453SOL    HW2 6452   1.791   3.037   1.758  0.7289 -1.0838 -0.6907
33454SOL     OW 6453   8.356   3.406  10.427  0.6745 -1.0277 -0.0986
33454SOL    HW1 6454   8.341   3.443  10.340  1.3596 -0.3878  0.0516
33454SOL    HW2 6455   8.447   3.426  10.446  1.2185 -3.1750 -0.1884
33455SOL     OW 6456   9.930   0.388   5.422  0.4691 -0.6128 -0.0587
33455SOL    HW1 6457   9.982   0.353   5.350 -0.9522 -1.9350 -0.5005
33455SOL    HW2 6458   9.883   0.312   5.457  0.5070  0.1460  1.7470
33456SOL     OW 6459   4.520   4.457   2.739  0.0416 -0.1930  0.3626
33456SOL    HW1 6460   4.566   4.496   2.813 -1.3615  1.2391  0.5247
33456SOL    HW2 6461   4.430   4.445   2.771 -0.3083 -0.6079 -0.7457
33457SOL     OW 6462   7.249   5.829   8.398  0.4600 -0.5239 -0.3845
33457SOL    HW1 6463   7.257   5.899   8.464  1.0788  0.5423 -1.5434
33457SOL    HW2 6464   7.247   5.748   8.449 -0.9607  0.3575  1.0452
33458SOL     OW 6465   3.895   6.464   0.376 -0.1771  0.0438  0.2692
33458SOL    HW1 6466   3.846   6.394   0.420  0.5381 -0.6663 -0.0401
33458SOL    HW2 6467   3.970   6.479   0.433  0.4263 -0.4509 -0.3790
33459SOL     OW 6468   4.123   1.822   5.450 -0.3144 -0.9243 -0.1038
33459SOL    HW1 6469   4.102   1.904   5.494 -0.8799 -0.5358 -1.0511
33459SOL    HW2 6470   4.082   1.755   5.504  0.7704 -0.6634  1.0787
33460SOL     OW 6471   6.983   9.776  10.225 -0.7171 -0.3475 -0.4171
33460SOL    HW1 6472   7.064   9.726  10.229 -2.4083 -3.2596  2.8393
33460SOL    HW2 6473   6.923   9.721  10.173 -1.9274 -0.6576  1.2212
33461SOL     OW 6474   1.749   5.961   4.353 -0.3831 -0.3089  0.5029
33461SOL    HW1 6475   1.679   5.962   4.288 -1.3661  0.4690  1.5326
33461SOL    HW2 6476   1.770   6.054   4.367  1.1799 -0.5377 -0.1024
33462SOL     OW 6477  10.658   2.420   0.541 -0.8196 -0.5119 -0.1351
33462SOL    HW1 6478  10.566   2.405   0.564 -1.0855  0.8934 -0.1632
33462SOL    HW2 6479  10.660   2.510   0.509  0.5661 -0.5475 -0.2113
33463SOL     OW 6480   7.413   7.957   3.204 -0.2460  0.0553 -0.4621
33463SOL    HW1 6481   7.380   7.888   3.262  1.8817 -0.8935 -0.2848
33463SOL    HW2 6482   7.467   7.911   3.139  2.6563  1.5809  0.6679
33464SOL     OW 6483   1.622  10.084   4.989  0.1531 -0.0997 -0.3482
33464SOL    HW1 6484   1.647  10.166   5.031  1.4541 -1.8073  2.5700
33464SOL    HW2 6485   1.529  10.074   5.009  0.6790 -0.7377  2.1860
33465SOL     OW 6486   2.922   3.127   5.197 -0.0979 -0.6345 -0.1930
33465SOL    HW1 6487   2.889   3.202   5.246 -0.0540 -1.5387  1.2557
33465SOL    HW2 6488   2.991   3.164   5.142  0.2579  0.3146  0.8510
33466SOL     OW 6489   6.158   8.982   7.680  0.5424  0.6270  0.2503
33466SOL    HW1 6490   6.089   8.952   7.621  1.2747  0.6890 -0.6796
33466SOL    HW2 6491   6.121   8.973   7.768 -0.5473  0.4320 -0.2084
33467SOL     OW 6492   5.546   1.990   3.573 -0.1493  0.4055 -0.2045
33467SOL    HW1 6493   5.565   1.955   3.660  0.5785  0.7379 -0.2208
33467SOL    HW2 6494   5.535   2.084   3.586  0.0510  0.4702 -0.4854
33468SOL     OW 6495   3.374   6.559   9.504 -0.6775  0.2436 -0.0661
33468SOL    HW1 6496   3.447   6.610   9.468 -0.9233  0.4600 -0.2576
33468SOL    HW2 6497   3.416   6.496   9.563 -0.1050 -1.2202 -1.9406
33469SOL     OW 6498   7.599   5.740   8.397 -0.1428  0.4909  0.1659
33469SOL    HW1 6499   7.518   5.791   8.402 -0.6256 -0.3258  0.8652
33469SOL    HW2 6500   7.609   5.702   8.485 -0.1456 -1.1251 -0.4970
33470SOL     OW 6501   1.417   9.474   6.989  0.6096  0.2587 -0.0806
33470SOL    HW1 6502   1.496   9.501   6.943 -0.1358  1.1884 -0.8340
33470SOL    HW2 6503   1.427   9.511   7.077  0.6647  1.0222 -0.4023
33471SOL     OW 6504   7.758   1.548  10.914  0.1450 -0.0828  0.6672
33471SOL    HW1 6505   7.833   1.562  10.857 -0.0647 -2.0832 -0.1708
33471SOL    HW2 6506   7.788   1.576  11.000  0.9666  1.5707 -0.0927
33472SOL     OW 6507   7.447   0.243   8.602  0.4245  0.2607 -0.4405
33472SOL    HW1 6508   7.391   0.169   8.578  0.2932  0.4385 -0.6858
33472SOL    HW2 6509   7.496   0.212   8.678 -0.5829  0.3672  0.2770
33473SOL     OW 6510  10.772   0.030   5.304  0.0282 -0.5956  0.1259
33473SOL    HW1 6511  10.676   0.037   5.302 -0.0040 -1.1240 -0.3928
33473SOL    HW2 6512  10.802   0.117   5.279 -0.3204 -0.5558 -0.1674
33474SOL     OW 6513   4.941   4.063   7.970  0.1575 -0.2674 -0.0523
33474SOL    HW1 6514   4.916   4.032   8.057  0.1088  2.0304  0.8149
33474SOL    HW2 6515   4.860   4.098   7.933  0.3859 -0.3652 -0.6526
33475SOL     OW 6516   6.457  10.148   9.000 -0.0374  0.2888  0.2836
33475SOL    HW1 6517   6.489  10.229   8.959 -0.1480 -0.0218 -0.4216
33475SOL    HW2 6518   6.418  10.098   8.929 -0.4482 -0.1597  0.8090
33476SOL     OW 6519  10.877   0.901   9.280 -0.5179  0.4087  0.6183
33476SOL    HW1 6520  10.938   0.847   9.331  0.8965  0.8978 -0.4836
33476SOL    HW2 6521  10.820   0.839   9.236 -0.3787 -0.0884  1.1285
33477SOL     OW 6522   8.789   9.889   3.436  0.1392  0.1977  0.1291
33477SOL    HW1 6523   8.864   9.878   3.378 -0.6562 -0.2887 -0.8479
33477SOL    HW2 6524   8.713   9.886   3.377 -0.5871  2.3490  0.8637
33478SOL     OW 6525   9.308   2.517   3.294  0.6605  0.1440 -0.2752
33478SOL    HW1 6526   9.319   2.479   3.381 -2.6731  0.8989  0.6143
33478SOL    HW2 6527   9.333   2.609   3.305  0.1862  0.2518 -0.1123
33479SOL     OW 6528   2.779   5.447  10.463  0.2912  0.0955  0.4972
33479SOL    HW1 6529   2.762   5.430  10.370  1.6676  0.8356  0.0760
33479SOL    HW2 6530   2.693   5.449  10.503 -0.2544 -1.7334 -0.4801
33480SOL     OW 6531   0.802   6.577   8.125 -0.0647 -0.4038 -0.1224
33480SOL    HW1 6532   0.894   6.556   8.143  0.0571  0.7003  0.6847
33480SOL    HW2 6533   0.752   6.509   8.170  0.3430 -0.5535  0.1107
33481SOL     OW 6534   7.226   9.109   4.541 -0.3628  0.0683  0.0140
33481SOL    HW1 6535   7.181   9.183   4.501 -1.0257 -0.3943 -0.1191
33481SOL    HW2 6536   7.181   9.096   4.625 -0.3543 -0.2825 -0.0329
33482SOL     OW 6537   6.141   4.076   7.280 -0.3358  0.2008  0.8973
33482SOL    HW1 6538   6.210   4.027   7.237  0.0106  2.1158 -0.9249
33482SOL    HW2 6539   6.181   4.108   7.361  0.6710  0.5870  0.2703
33483SOL     OW 6540   8.985   8.063   7.860  0.5351 -0.2063  0.1299
33483SOL    HW1 6541   9.057   8.100   7.809 -2.1010  2.8514 -1.7289
33483SOL    HW2 6542   8.957   8.135   7.918 -1.5273 -0.9888  0.1802
33484SOL     OW 6543   2.428   8.310   7.396  0.1952 -0.3208 -0.0017
33484SOL    HW1 6544   2.474   8.376   7.448  0.4485 -1.1117  0.8137
33484SOL    HW2 6545   2.498   8.256   7.358 -0.0187 -1.5076  1.2181
33485SOL     OW 6546   8.404   9.548   0.969  0.2535 -0.0292  0.0339
33485SOL    HW1 6547   8.358   9.468   0.994  1.1418 -0.5699  0.0073
33485SOL    HW2 6548   8.467   9.519   0.903  0.6685  0.6760  0.1116
33486SOL     OW 6549   3.109   2.216   3.534 -0.5170  0.2105  0.2967
33486SOL    HW1 6550   3.112   2.127   3.499 -0.0295  0.4534 -0.3060
33486SOL    HW2 6551   3.198   2.234   3.563 -0.6574  0.4343  0.6064
33487SOL     OW 6552   4.510   1.123   7.157 -0.5611  0.8622 -0.3611
33487SOL    HW1 6553   4.574   1.121   7.229 -0.0808 -0.5237 -0.7970
33487SOL    HW2 6554   4.534   1.201   7.106  0.2473  0.8309 -0.0454
33488SOL     OW 6555   7.546   6.846   2.240  0.4941  0.3665 -0.2906
33488SOL    HW1 6556   7.518   6.767   2.287  0.4781 -0.0688 -1.0144
33488SOL    HW2 6557   7.465   6.883   2.205  0.2525  1.7458  1.5728
33489SOL     OW 6558   5.506   8.116   3.306 -0.2536 -0.3436  0.2314
33489SOL    HW1 6559   5.494   8.211   3.296 -0.6404 -0.5149 -1.1569
33489SOL    HW2 6560   5.488   8.080   3.219 -0.2059 -1.7107  0.7570
33490SOL     OW 6561   7.451   4.266   1.642 -0.4025 -0.0344  0.1074
33490SOL    HW1 6562   7.461   4.177   1.675 -0.9678 -0.0413  0.2541
33490SOL    HW2 6563   7.390   4.259   1.569 -2.0095  0.5081  1.3440
33491SOL     OW 6564   2.203   0.249   5.147  0.8698 -0.0887 -0.3236
33491SOL    HW1 6565   2.188   0.217   5.059  1.0532 -0.5091 -0.2061
33491SOL    HW2 6566   2.203   0.345   5.139 -0.4602 -0.0985 -0.5446
33492SOL     OW 6567   9.154   5.575   9.336  0.3125  0.0868 -0.0388
33492SOL    HW1 6568   9.224   5.620   9.290  0.5000 -0.5342 -0.3752
33492SOL    HW2 6569   9.079   5.582   9.277  0.3238  0.0139 -0.0625
33493SOL     OW 6570   8.461   5.452   6.207  0.3810  0.4552  0.5274
33493SOL    HW1 6571   8.506   5.381   6.253  2.7334 -0.5886 -2.9171
33493SOL    HW2 6572   8.514   5.530   6.224 -0.7631  0.9051  2.2659
33494SOL     OW 6573   7.288   8.335   7.073 -0.2498 -0.2417 -0.1763
33494SOL    HW1 6574   7.202   8.308   7.041 -0.0860  1.4674 -2.2525
33494SOL    HW2 6575   7.284   8.430   7.077  0.8741 -0.2199  1.8173
33495SOL     OW 6576   3.260   4.202   0.659 -0.3843 -0.6083 -0.0819
33495SOL    HW1 6577   3.343   4.205   0.612  0.0111  1.4111  0.6341
33495SOL    HW2 6578   3.201   4.256   0.607  0.0199  1.5378  1.5337
33496SOL     OW 6579   9.741   7.434   1.280  0.4445 -0.4639 -0.0999
33496SOL    HW1 6580   9.697   7.360   1.321 -0.8570 -0.1548 -0.8952
33496SOL    HW2 6581   9.734   7.505   1.343 -2.1044  0.1969 -1.0289
33497SOL     OW 6582   2.288   6.345   0.767 -0.0377  0.3062  0.6646
33497SOL    HW1 6583   2.238   6.424   0.786 -0.2958  0.2527  0.2258
33497SOL    HW2 6584   2.329   6.321   0.850 -1.8175 -0.4261  1.3719
33498SOL     OW 6585   9.677   6.204   5.120  0.2903 -0.2723 -0.1010
33498SOL    HW1 6586   9.721   6.121   5.136  0.0531 -0.4180 -0.2125
33498SOL    HW2 6587   9.742   6.257   5.073  0.3854 -0.4456 -0.1645
33499SOL     OW 6588   6.991   7.970   9.835  0.3043  0.2779  0.2510
33499SOL    HW1 6589   6.919   8.023   9.802 -0.0695 -1.5283 -2.1030
33499SOL    HW2 6590   7.057   7.974   9.766  1.8528  0.6592  1.6940
33500SOL     OW 6591   1.728   2.696   1.907  0.2307 -0.4740  0.4490
33500SOL    HW1 6592   1.785   2.651   1.969 -0.1711  0.6568  1.7013
33500SOL    HW2 6593   1.646   2.647   1.909  0.7930 -1.4933 -0.5752
33501SOL     OW 6594   4.288   8.177   7.989 -0.5790  0.2347  0.3100
33501SOL    HW1 6595   4.245   8.247   7.940  0.5690  0.4020 -0.4949
33501SOL    HW2 6596   4.226   8.155   8.059 -1.4408  1.2705 -0.1029
33502SOL     OW 6597   0.624   3.613   0.484 -0.0711 -0.4913 -0.5751
33502SOL    HW1 6598   0.655   3.653   0.403  0.3461 -1.1211 -0.7302
33502SOL    HW2 6599   0.703   3.586   0.530 -0.3423 -2.2240 -1.0342
33503SOL     OW 6600   0.196   0.466   6.158 -0.4050  0.1147  0.3660
33503SOL    HW1 6601   0.220   0.546   6.204  1.5372  0.2390 -0.7795
33503SOL    HW2 6602   0.151   0.413   6.224  0.1561  1.2729  1.7203
33504SOL     OW 6603   5.384   5.723   7.984 -0.0382 -0.7018  0.1264
33504SOL    HW1 6604   5.292   5.740   7.968 -0.0532 -1.3509 -0.5029
33504SOL    HW2 6605   5.397   5.632   7.958  0.9036 -0.4442 -0.3500
33505SOL     OW 6606   5.735   6.859   5.139  0.0573 -0.5978 -0.0180
33505SOL    HW1 6607   5.657   6.805   5.150  0.3174 -0.8243  0.7852
33505SOL    HW2 6608   5.728   6.893   5.049  0.4408 -2.8393 -0.9607
33506SOL     OW 6609   4.543   2.514   2.317 -0.2740  0.4461  0.3887
33506SOL    HW1 6610   4.600   2.586   2.291 -0.4362 -0.0884 -1.5672
33506SOL    HW2 6611   4.481   2.504   2.245 -0.8097 -1.0960  1.0091
33507SOL     OW 6612   5.125   4.792   6.681  0.6213 -0.8153  0.6135
33507SOL    HW1 6613   5.061   4.861   6.666 -0.4848 -1.6355  1.3567
33507SOL    HW2 6614   5.185   4.828   6.747  1.7625  0.4378 -1.0072
33508SOL     OW 6615   8.728   1.356   3.544 -0.8307  0.6387  0.1087
33508SOL    HW1 6616   8.776   1.285   3.500 -0.3536  1.9291 -1.5444
33508SOL    HW2 6617   8.775   1.370   3.626  0.7309  0.8404 -0.7826
33509SOL     OW 6618   7.957   8.494   9.678  0.4200  0.3068 -0.1700
33509SOL    HW1 6619   8.006   8.435   9.621 -0.9402  1.2253 -2.4529
33509SOL    HW2 6620   7.947   8.574   9.625 -2.1664  0.6986  0.7774
33510SOL     OW 6621   3.803   4.589   0.624  0.4480 -0.0582 -0.6274
33510SOL    HW1 6622   3.788   4.683   0.611 -0.8144 -0.3314 -1.2170
33510SOL    HW2 6623   3.824   4.581   0.717 -2.5856  0.4585  0.2008
33511SOL     OW 6624   1.382  10.033   7.747 -0.5545  0.4523 -0.7510
33511SOL    HW1 6625   1.359   9.982   7.826 -1.0142 -0.4398 -1.4399
33511SOL    HW2 6626   1.474  10.053   7.758 -0.6145  0.3485  0.0314
33512SOL     OW 6627   3.626   7.344   2.113 -0.0996 -0.0254 -0.1956
33512SOL    HW1 6628   3.615   7.265   2.165  1.3433  0.8923  1.6057
33512SOL    HW2 6629   3.663   7.313   2.030  2.1362 -1.1223  1.1298
33513SOL     OW 6630  10.695   4.005   8.215 -0.4230 -0.3613 -0.1132
33513SOL    HW1 6631  10.760   3.962   8.270 -0.1449  0.7849  0.4976
33513SOL    HW2 6632  10.615   4.005   8.268 -0.5164 -0.4572 -0.2552
33514SOL     OW 6633   8.117   4.453   9.599  0.3573  0.6480 -0.4167
33514SOL    HW1 6634   8.065   4.482   9.524  0.6462  0.0665 -0.8519
33514SOL    HW2 6635   8.076   4.371   9.625 -0.3422  1.3283  0.6861
33515SOL     OW 6636   1.783   6.118   2.412 -0.3470  0.3025  0.3569
33515SOL    HW1 6637   1.742   6.160   2.336 -0.2140  0.5925  0.4446
33515SOL    HW2 6638   1.786   6.025   2.388 -1.5503  0.1897  0.5810
33516SOL     OW 6639   3.813   5.727   2.693  0.2782 -0.3236 -0.2461
33516SOL    HW1 6640   3.773   5.665   2.633  0.6705 -0.1613 -0.6807
33516SOL    HW2 6641   3.882   5.677   2.737  0.2415 -0.3406 -0.2083
33517SOL     OW 6642   9.571   5.506   8.143 -0.1016 -0.2239  0.9729
33517SOL    HW1 6643   9.546   5.597   8.156 -0.3953 -0.5400  2.8675
33517SOL    HW2 6644   9.517   5.457   8.205 -1.0604 -1.8804 -1.0589
33518SOL     OW 6645   3.886   2.979   5.299  0.0821 -0.1318 -0.1335
33518SOL    HW1 6646   3.921   2.891   5.312 -0.8592 -0.7986 -1.7704
33518SOL    HW2 6647   3.846   3.002   5.383 -0.4372 -1.6456  0.0602
33519SOL     OW 6648   9.208   7.363   0.179  0.0416 -0.1633 -0.1640
33519SOL    HW1 6649   9.208   7.442   0.233  0.0324 -1.2785  1.5455
33519SOL    HW2 6650   9.284   7.313   0.210 -1.4422 -2.0321  0.7062
33520SOL     OW 6651   3.446   9.827   0.888  0.2813  0.1444  0.0275
33520SOL    HW1 6652   3.357   9.863   0.883  0.3649  0.2333 -1.2403
33520SOL    HW2 6653   3.478   9.830   0.798  1.2514 -0.7065  0.3231
33521SOL     OW 6654  10.235   9.245   7.266  0.6934 -0.5669  0.3282
33521SOL    HW1 6655  10.277   9.330   7.250  1.3227 -0.7606  0.9019
33521SOL    HW2 6656  10.308   9.186   7.286  0.0701 -0.6492  2.5664
33522SOL     OW 6657   0.195   7.189   6.130 -0.8475  0.0027  0.4073
33522SOL    HW1 6658   0.154   7.138   6.200 -0.3683  0.5276  1.0933
33522SOL    HW2 6659   0.280   7.213   6.165 -0.0518 -0.8330 -0.8921
33523SOL     OW 6660   0.823   7.799   5.833 -0.5431 -0.3020 -0.4523
33523SOL    HW1 6661   0.863   7.873   5.789  3.9869 -2.1873 -0.0435
33523SOL    HW2 6662   0.806   7.735   5.763 -1.1748 -0.2175 -0.3856
33524SOL     OW 6663   3.444   5.045   3.974 -0.3361  0.4036 -0.1678
33524SOL    HW1 6664   3.539   5.051   3.981 -0.3916  0.4062  0.8128
33524SOL    HW2 6665   3.428   4.990   3.898  0.4658 -0.0217 -0.0368
33525SOL     OW 6666   7.160   7.886   4.258 -0.1927 -0.0771  0.1431
33525SOL    HW1 6667   7.132   7.875   4.168 -1.7205 -0.1854  0.6125
33525SOL    HW2 6668   7.092   7.845   4.310  0.1907  0.8051  1.3965
33526SOL     OW 6669   0.522   8.217   4.394  0.1499 -0.0372  0.8776
33526SOL    HW1 6670   0.446   8.183   4.441 -0.0008  3.1198  3.2437
33526SOL    HW2 6671   0.594   8.158   4.419 -0.8469 -1.0715  1.3705
33527SOL     OW 6672   4.512   2.443   5.547  0.4040  0.0235 -0.8373
33527SOL    HW1 6673   4.479   2.392   5.620  0.6611  0.8827 -0.1111
33527SOL    HW2 6674   4.590   2.396   5.518  0.2644 -0.3501 -0.6148
33528SOL     OW 6675   6.876   1.933   7.070  0.3944  0.4380  0.2018
33528SOL    HW1 6676   6.841   1.844   7.069 -1.7929  1.2177 -0.2872
33528SOL    HW2 6677   6.938   1.935   6.997  0.1914 -0.5869 -0.0180
33529SOL     OW 6678   1.968   9.744   3.682  0.8556  0.2243  0.4834
33529SOL    HW1 6679   1.893   9.780   3.729 -0.0983  0.6276 -1.2546
33529SOL    HW2 6680   1.950   9.650   3.677  1.0478  0.1570  1.0745
33530SOL     OW 6681   4.775   4.485   8.258  0.7062 -0.1295 -0.1761
33530SOL    HW1 6682   4.821   4.514   8.337  0.3741  1.3959 -0.5152
33530SOL    HW2 6683   4.780   4.559   8.199 -2.2557  0.1769 -0.2128
33531SOL     OW 6684   9.855   1.979   6.850 -0.6121 -0.6949  0.0266
33531SOL    HW1 6685   9.788   2.043   6.827 -0.6504 -1.5559 -2.6064
33531SOL    HW2 6686   9.924   2.030   6.893 -1.3351  0.8197 -0.5593
33532SOL     OW 6687   3.006   4.450   1.846 -0.4055 -0.2123 -0.3419
33532SOL    HW1 6688   2.957   4.504   1.785 -2.7878 -0.0906  1.5487
33532SOL    HW2 6689   3.095   4.487   1.845 -1.3420  2.2094 -0.8979
33533SOL     OW 6690   7.722   5.475   6.849 -0.3002  0.0292 -0.4387
33533SOL    HW1 6691   7.746   5.509   6.763 -1.1995  1.1238 -0.2668
33533SOL    HW2 6692   7.636   5.434   6.836  0.0401 -0.7617 -0.2816
33534SOL     OW 6693   4.548   4.024  10.917  0.2734 -0.1616  0.4412
33534SOL    HW1 6694   4.487   3.969  10.966 -0.7872  0.3370 -0.2899
33534SOL    HW2 6695   4.511   4.113  10.923  0.6606  0.0694 -0.4198
33535SOL     OW 6696   6.078   1.070   4.313  0.1465 -0.1393  0.6083
33535SOL    HW1 6697   6.053   1.097   4.225 -0.7650  0.6847  1.1090
33535SOL    HW2 6698   6.061   1.146   4.368  1.1048 -0.5018  1.4424
33536SOL     OW 6699   5.013   6.370   2.719  0.4120  0.2524  0.8364
33536SOL    HW1 6700   4.939   6.430   2.707  1.1163  0.9710 -0.0657
33536SOL    HW2 6701   5.078   6.421   2.767  0.0505 -0.6293  2.3299
33537SOL     OW 6702   2.575   9.463   2.421  0.0968 -0.0603 -0.6839
33537SOL    HW1 6703   2.531   9.462   2.506  0.8566 -0.7585 -0.2844
33537SOL    HW2 6704   2.661   9.425   2.438 -0.1923 -1.4020 -2.0028
33538SOL     OW 6705   9.366   5.947   8.352  0.7253 -0.1278  0.0329
33538SOL    HW1 6706   9.408   5.959   8.437  2.9743 -0.3823 -0.9704
33538SOL    HW2 6707   9.356   5.852   8.343 -1.0573 -0.0473  0.6533
33539SOL     OW 6708   1.163   1.855   8.547 -1.1052 -0.4943  0.3142
33539SOL    HW1 6709   1.168   1.776   8.600  0.4807 -0.8485 -0.3062
33539SOL    HW2 6710   1.139   1.824   8.460  0.4222 -0.4449 -0.1590
33540SOL     OW 6711   6.952   8.958   1.087 -0.1832  0.0923  0.0851
33540SOL    HW1 6712   7.045   8.983   1.091 -0.2585  0.2883  0.6961
33540SOL    HW2 6713   6.910   9.015   1.151 -0.4348 -1.2956  1.2073
33541SOL     OW 6714  10.662   5.191   7.505  0.4773 -0.2326  0.5926
33541SOL    HW1 6715  10.614   5.238   7.437  1.6505  0.8511  0.4792
33541SOL    HW2 6716  10.595   5.166   7.569 -0.5229 -0.5456 -0.5259
33542SOL     OW 6717   7.907   5.087   0.891  0.2857 -0.2498 -0.0437
33542SOL    HW1 6718   7.856   5.167   0.887  1.7245  0.7038  0.0564
33542SOL    HW2 6719   7.842   5.017   0.902 -0.8774  1.0888  2.4835
33543SOL     OW 6720   7.392   0.352   2.471 -0.0339  0.2870  0.4593
33543SOL    HW1 6721   7.300   0.339   2.497 -0.1352 -0.1106 -0.0912
33543SOL    HW2 6722   7.437   0.373   2.553 -0.9249  2.2648  0.5163
33544SOL     OW 6723   1.191   8.315   7.977 -0.1832  0.6684  0.5509
33544SOL    HW1 6724   1.130   8.350   7.911  0.1846  1.0753  0.4200
33544SOL    HW2 6725   1.267   8.286   7.926  0.6043  2.0682  0.8836
33545SOL     OW 6726   8.585   1.944   3.729  0.1166  0.0990 -0.0635
33545SOL    HW1 6727   8.525   2.010   3.696 -1.8008 -0.8841  1.2577
33545SOL    HW2 6728   8.557   1.863   3.687  0.2149 -0.4507  0.8932
33546SOL     OW 6729   4.805   7.970   3.275 -0.0628 -0.4850  0.5945
33546SOL    HW1 6730   4.746   8.042   3.297  0.2945  0.8845 -2.4950
33546SOL    HW2 6731   4.748   7.893   3.267 -0.9409  0.1480  0.6559
33547SOL     OW 6732   7.901   7.021   8.582  0.2245  0.9193  0.0342
33547SOL    HW1 6733   7.882   7.060   8.667  2.0540  0.0816  0.8807
33547SOL    HW2 6734   7.820   6.977   8.557 -0.0829  0.4482  1.7574
33548SOL     OW 6735  10.465   8.126   4.467  0.0081 -0.4578  0.1717
33548SOL    HW1 6736  10.390   8.130   4.409 -0.0995  1.3255  0.3642
33548SOL    HW2 6737  10.534   8.172   4.420  1.1969 -2.5204 -0.2321
33549SOL     OW 6738   8.191   0.790   4.204  0.7528  0.0014  0.3690
33549SOL    HW1 6739   8.186   0.869   4.258  1.8543  0.3528 -0.0038
33549SOL    HW2 6740   8.277   0.753   4.225 -0.0962 -1.6157  1.2040
33550SOL     OW 6741   3.238  10.902   8.931 -0.2775 -0.0238  0.1728
33550SOL    HW1 6742   3.174  10.865   8.992  1.3017 -1.5612  0.9568
33550SOL    HW2 6743   3.322  10.866   8.958  0.8247  1.2057 -1.4097
33551SOL     OW 6744   9.516   1.613   3.389 -0.4897 -0.0814 -0.0502
33551SOL    HW1 6745   9.452   1.648   3.327  0.4551  0.4125 -0.7585
33551SOL    HW2 6746   9.497   1.519   3.390 -0.3702 -0.1443 -1.2885
33552SOL     OW 6747   0.449   8.168   2.628 -0.0191  0.3211 -0.4316
33552SOL    HW1 6748   0.450   8.072   2.632 -3.3533  0.2160  0.7879
33552SOL    HW2 6749   0.397   8.188   2.550  0.6095  1.1657 -0.6498
33553SOL     OW 6750   4.116   1.697   5.930 -0.1408 -0.0691  0.4454
33553SOL    HW1 6751   4.160   1.695   6.015 -0.6507  0.2963  0.7272
33553SOL    HW2 6752   4.040   1.753   5.945 -1.0952 -1.2641  0.1612
33554SOL     OW 6753   1.651   1.528   4.544  0.0335  0.3151  0.1659
33554SOL    HW1 6754   1.732   1.493   4.506  0.1961  0.4713  0.3661
33554SOL    HW2 6755   1.640   1.480   4.625  0.2924  0.7677  0.4743
33555SOL     OW 6756   9.927   9.083  10.113  0.3333 -0.2296  0.4832
33555SOL    HW1 6757   9.863   9.137  10.067  0.8505  0.0849  0.1145
33555SOL    HW2 6758   9.992   9.061  10.047 -0.5732 -2.5002  0.2771
33556SOL     OW 6759   0.749   1.186   2.222 -0.1388 -0.3733 -0.1934
33556SOL    HW1 6760   0.673   1.226   2.181 -0.5643 -0.6529  0.3096
33556SOL    HW2 6761   0.724   1.175   2.314  0.5542 -0.3503  0.0016
33557SOL     OW 6762   8.276   7.323   6.140  0.3075 -0.2099 -0.4607
33557SOL    HW1 6763   8.298   7.286   6.054  0.6044 -0.6848 -0.1819
33557SOL    HW2 6764   8.337   7.396   6.151  0.0093  0.0993 -0.8222
33558SOL     OW 6765   5.970   8.632   3.829  0.4190 -0.4041  0.1860
33558SOL    HW1 6766   6.011   8.707   3.787  0.0720  0.1234  0.7649
33558SOL    HW2 6767   5.877   8.653   3.831  0.4518 -0.2905  1.4235
33559SOL     OW 6768   0.218   7.135   7.023 -0.4605  0.2183  0.5881
33559SOL    HW1 6769   0.143   7.187   7.051 -0.8106  0.8337 -1.3793
33559SOL    HW2 6770   0.187   7.044   7.029 -0.1118  0.1841  3.2385
33560SOL     OW 6771   4.366  10.681   8.026 -0.6344  0.1833  0.4740
33560SOL    HW1 6772   4.322  10.718   8.103 -1.5728  0.2235 -0.0627
33560SOL    HW2 6773   4.334  10.734   7.953  2.0927  1.7687  0.2899
33561SOL     OW 6774   3.394   9.995   1.510 -0.6251 -0.1168  0.2859
33561SOL    HW1 6775   3.424  10.086   1.508 -1.8913  0.3167 -0.0166
33561SOL    HW2 6776   3.433   9.955   1.433  0.6388 -0.0869  0.8776
33562SOL     OW 6777   7.227   2.950  10.286 -0.0670 -0.0078 -0.2098
33562SOL    HW1 6778   7.315   2.926  10.317 -0.0393 -1.9546 -1.6017
33562SOL    HW2 6779   7.238   2.962  10.192 -1.1185  0.6720 -0.2596
33563SOL     OW 6780   4.023   7.717   9.762 -0.7194  0.9229 -0.2126
33563SOL    HW1 6781   3.936   7.722   9.722 -1.8348  0.0071  1.9263
33563SOL    HW2 6782   4.046   7.624   9.758  0.8406  1.3225 -1.9693
33564SOL     OW 6783   4.739   8.843   2.058  0.0497  0.0274 -0.1180
33564SOL    HW1 6784   4.739   8.801   2.144 -2.3070  1.2908  0.5957
33564SOL    HW2 6785   4.757   8.771   1.997 -1.3956 -1.5668  1.2056
33565SOL     OW 6786   3.531  10.496   8.128 -0.1987 -0.0245 -0.6266
33565SOL    HW1 6787   3.553  10.582   8.163 -0.3588 -0.7776  1.4484
33565SOL    HW2 6788   3.515  10.512   8.035 -0.5959  2.2403 -0.2388
33566SOL     OW 6789   3.710   4.631  10.822 -0.1723  0.0929  0.3067
33566SOL    HW1 6790   3.622   4.653  10.790 -0.5642 -0.2431  1.1307
33566SOL    HW2 6791   3.699   4.620  10.917  0.8138  0.3116  0.4556
33567SOL     OW 6792  10.630   9.788   5.788 -0.3467  0.7413 -0.1692
33567SOL    HW1 6793  10.667   9.733   5.720 -0.1884  0.5330  0.0853
33567SOL    HW2 6794  10.621   9.874   5.747 -1.4651  0.3111 -0.8623
33568SOL     OW 6795   8.809   8.259   5.453  0.6164 -0.1398 -0.1682
33568SOL    HW1 6796   8.806   8.238   5.360 -1.6716  1.5447 -0.5435
33568SOL    HW2 6797   8.901   8.281   5.469  0.9077  0.3637 -2.2135
33569SOL     OW 6798   3.986   9.311   9.184 -0.2466 -0.3955  0.2918
33569SOL    HW1 6799   3.927   9.236   9.187 -1.5086  0.4987 -0.9214
33569SOL    HW2 6800   3.964   9.356   9.102  1.2026  0.7158  0.4662
33570SOL     OW 6801   1.687   6.152   8.147  0.0055 -0.2423 -0.1015
33570SOL    HW1 6802   1.768   6.102   8.155  0.3397  0.0555 -1.3655
33570SOL    HW2 6803   1.677   6.196   8.231  1.6570  0.4542 -0.2435
33571SOL     OW 6804   7.231   3.628   9.921  0.5836  0.0906 -0.7221
33571SOL    HW1 6805   7.326   3.630   9.933  1.0198 -1.7289 -3.0123
33571SOL    HW2 6806   7.198   3.579   9.996  1.1014  2.6209  1.2763
33572SOL     OW 6807   7.884   0.635   7.908  0.2098  0.1049  0.2006
33572SOL    HW1 6808   7.953   0.677   7.959  1.5955 -1.1140 -0.5805
33572SOL    HW2 6809   7.817   0.613   7.972 -0.3608  2.9614  0.7206
33573SOL     OW 6810   6.130   7.863   4.813 -0.0626 -0.0243 -0.6774
33573SOL    HW1 6811   6.188   7.826   4.747  0.9240  2.0273 -1.0226
33573SOL    HW2 6812   6.089   7.938   4.770 -0.5742  0.4267  0.5575
33574SOL     OW 6813   2.733   4.282   7.623  0.5782  1.1150  0.3260
33574SOL    HW1 6814   2.783   4.358   7.594 -1.2164  1.8890 -0.9719
33574SOL    HW2 6815   2.666   4.319   7.680  0.1093  0.4302  0.2223
33575SOL     OW 6816   3.287   1.939   0.062 -0.3528 -0.5946  0.3340
33575SOL    HW1 6817   3.209   1.892   0.034 -0.7768  0.1266  0.2597
33575SOL    HW2 6818   3.310   1.901   0.147 -0.5650 -1.0607  0.1817
33576SOL     OW 6819   3.148   8.740   7.798 -0.2739  0.3838  0.4849
33576SOL    HW1 6820   3.089   8.728   7.724 -1.3381  1.0202  1.1928
33576SOL    HW2 6821   3.235   8.745   7.759 -0.5286 -1.6395 -0.5096
33577SOL     OW 6822   1.662  10.358   0.026 -0.7526 -0.2901 -0.8445
33577SOL    HW1 6823   1.709  10.441   0.033  0.0167 -0.8438  1.2962
33577SOL    HW2 6824   1.571  10.379   0.049 -0.3644 -0.1751  0.6703
33578SOL     OW 6825   3.155   1.183   1.947  0.0399 -0.3321  0.1087
33578SOL    HW1 6826   3.155   1.092   1.918  0.5860 -0.2708 -0.0846
33578SOL    HW2 6827   3.065   1.213   1.930  0.2097 -0.4499 -1.0378
33579SOL     OW 6828   2.653  10.744  10.007 -0.3400  0.0125  0.3945
33579SOL    HW1 6829   2.720  10.729   9.940 -0.9543  3.0342 -1.0370
33579SOL    HW2 6830   2.699  10.733  10.090  1.1552 -0.9218 -0.5047
33580SOL     OW 6831  10.454  10.607  10.494  0.5264 -0.2591 -0.1105
33580SOL    HW1 6832  10.504  10.637  10.417 -0.3845 -1.5312 -1.2491
33580SOL    HW2 6833  10.437  10.515  10.476 -1.3851 -0.1019  0.7121
33581SOL     OW 6834  10.059   5.603   6.098  0.1892 -0.5181 -0.1527
33581SOL    HW1 6835   9.979   5.552   6.085 -0.2601 -0.2833  1.4491
33581SOL    HW2 6836  10.047   5.644   6.184  1.2895  0.8999 -0.6419
33582SOL     OW 6837   6.388   2.973   3.251  0.1383  0.0389  0.0320
33582SOL    HW1 6838   6.361   2.882   3.268  3.0663 -1.1533 -1.0749
33582SOL    HW2 6839   6.332   3.002   3.179 -1.5943 -0.4331  1.1253
33583SOL     OW 6840   0.818   1.941   9.953 -0.6148  0.6167 -0.5004
33583SOL    HW1 6841   0.851   1.896   9.875 -0.2698 -0.9508  0.5051
33583SOL    HW2 6842   0.895   1.984   9.991 -0.1660 -0.9016  0.4284
33584SOL     OW 6843   4.120   0.198   3.352 -0.4110 -0.0381  0.2835
33584SOL    HW1 6844   4.188   0.237   3.296 -1.9062  1.6883 -0.4468
33584SOL    HW2 6845   4.073   0.139   3.293  0.1028 -0.8124  0.6420
33585SOL     OW 6846   4.661   3.782   9.834  0.2684  0.3197  0.2115
33585SOL    HW1 6847   4.634   3.827   9.914  0.4017  0.9153 -0.0738
33585SOL    HW2 6848   4.599   3.812   9.767  1.6642  1.8141 -0.4848
33586SOL     OW 6849   4.502   0.907   5.451 -0.0916 -0.2586  0.0665
33586SOL    HW1 6850   4.491   0.997   5.482 -0.5266 -0.0951 -0.5576
33586SOL    HW2 6851   4.441   0.856   5.504  1.7303 -0.5652  2.0010
33587SOL     OW 6852   7.979  10.873   7.393 -0.2437  0.3680  0.6358
33587SOL    HW1 6853   7.896  10.841   7.428 -0.1752 -0.6872 -0.1238
33587SOL    HW2 6854   7.981  10.840   7.303  2.5581 -2.6512  1.6343
33588SOL     OW 6855   5.255   2.257  10.310 -0.2905 -0.1603  0.4134
33588SOL    HW1 6856   5.260   2.209  10.227 -1.3519 -1.8172  1.2686
33588SOL    HW2 6857   5.347   2.268  10.336  0.2285  2.2128 -1.9020
33589SOL     OW 6858   6.466   0.882   1.576 -0.2297  0.4069 -0.4325
33589SOL    HW1 6859   6.498   0.861   1.664 -0.3940 -0.9640 -0.6712
33589SOL    HW2 6860   6.526   0.949   1.544  1.5566 -1.0538 -0.3096
33590SOL     OW 6861   8.751   6.076   0.655 -0.3626  0.1773  0.6343
33590SOL    HW1 6862   8.677   6.020   0.632  0.2873 -2.1350  3.4808
33590SOL    HW2 6863   8.825   6.015   0.661  2.1172  2.4657 -2.7944
33591SOL     OW 6864   4.847   9.801   9.167 -0.1888 -0.0433 -0.3899
33591SOL    HW1 6865   4.875   9.885   9.203 -1.9457  1.2642 -1.8573
33591SOL    HW2 6866   4.762   9.785   9.207 -0.8047 -0.0489 -1.6561
33592SOL     OW 6867   8.273   4.237   9.905  0.6767  0.1931 -0.0815
33592SOL    HW1 6868   8.363   4.222   9.934  0.4838 -2.2355 -0.4694
33592SOL    HW2 6869   8.219   4.198   9.974 -0.1034  1.4118  0.0342
33593SOL     OW 6870   3.257   4.184   8.046 -0.1051 -0.2187  0.0315
33593SOL    HW1 6871   3.294   4.121   7.984  3.1038  3.8092 -2.6817
33593SOL    HW2 6872   3.317   4.184   8.120  0.1205 -0.0482 -0.1528
33594SOL     OW 6873   7.269   0.185   6.783  0.3492  0.2851 -0.1166
33594SOL    HW1 6874   7.311   0.234   6.853  0.7469 -0.7684  0.3998
33594SOL    HW2 6875   7.245   0.252   6.719 -0.0262  1.2696  1.0098
33595SOL     OW 6876   2.190   1.736  10.557 -0.0941  0.0897  0.1144
33595SOL    HW1 6877   2.283   1.743  10.533 -0.1591 -0.0199 -0.1619
33595SOL    HW2 6878   2.149   1.691  10.484 -0.4558  0.5669  0.0200
33596SOL     OW 6879  10.265   9.373   8.784 -0.0233  0.4304 -0.9024
33596SOL    HW1 6880  10.211   9.345   8.710 -0.2767  0.1716 -0.6221
33596SOL    HW2 6881  10.227   9.456   8.812 -3.5458 -1.9738  2.4587
33597SOL     OW 6882   6.186  10.006   3.474  0.0998  0.8745  0.3605
33597SOL    HW1 6883   6.276   9.980   3.494 -0.8007 -1.6096  1.6077
33597SOL    HW2 6884   6.142   9.924   3.449 -1.8350  2.0220 -0.2529
33598SOL     OW 6885   6.930   1.006  10.056  0.5050  0.7600 -0.1214
33598SOL    HW1 6886   6.848   1.029  10.100  0.1994 -0.4701 -0.0107
33598SOL    HW2 6887   6.987   1.082  10.070  0.1133  0.7677  1.6570
33599SOL     OW 6888   5.961   4.865   3.943 -0.0749  0.8139 -0.1004
33599SOL    HW1 6889   5.923   4.942   3.985  0.2976  2.0406 -1.8574
33599SOL    HW2 6890   5.903   4.847   3.869  1.3163  1.1929 -1.3510
33600SOL     OW 6891   4.334   8.032   0.611  0.5011  0.1609 -1.2271
33600SOL    HW1 6892   4.414   8.025   0.558 -0.0023  0.6834 -2.0920
33600SOL    HW2 6893   4.296   8.116   0.584 -0.1429  0.0969 -0.5414
33601SOL     OW 6894   5.219   3.758   9.121  0.0656 -0.0754 -0.1604
33601SOL    HW1 6895   5.169   3.697   9.067 -2.3699  0.9908  0.7448
33601SOL    HW2 6896   5.205   3.727   9.211  1.4323  0.0089  0.1019
33602SOL     OW 6897   8.884   0.962   7.420 -0.1050 -0.1737  0.9049
33602SOL    HW1 6898   8.821   0.890   7.430  0.4061 -0.6771  0.5194
33602SOL    HW2 6899   8.837   1.027   7.368 -0.0306 -0.8989 -0.0874
33603SOL     OW 6900   2.206   3.853   6.248 -0.4050 -0.3394  0.5150
33603SOL    HW1 6901   2.218   3.930   6.193 -0.6991  0.3945  1.4490
33603SOL    HW2 6902   2.247   3.876   6.331  1.5546 -2.0646  0.1052
33604SOL     OW 6903   7.845   7.157   7.456  0.0438  0.1209 -0.3332
33604SOL    HW1 6904   7.766   7.210   7.454 -0.1922 -0.2399 -0.9694
33604SOL    HW2 6905   7.914   7.216   7.486 -0.1315  0.9056 -1.3954
33605SOL     OW 6906   2.771   4.509   8.661 -0.4324  0.0961  0.0502
33605SOL    HW1 6907   2.814   4.529   8.577 -0.6109  2.1883  0.4207
33605SOL    HW2 6908   2.781   4.588   8.713  0.4659 -1.4382  2.4026
33606SOL     OW 6909   3.005  10.189   5.356  0.4231 -0.0522 -0.2545
33606SOL    HW1 6910   3.094  10.188   5.393  0.1080 -0.2769  0.5102
33606SOL    HW2 6911   3.001  10.271   5.308  0.9378  0.1190 -0.0194
33607SOL     OW 6912   1.727   9.024   1.430  0.1255  0.5293  0.0311
33607SOL    HW1 6913   1.802   9.084   1.425 -0.0750  0.7572 -0.2110
33607SOL    HW2 6914   1.738   8.966   1.354 -0.8804  1.6481 -0.9927
33608SOL     OW 6915  10.202   4.033   1.375 -0.1517 -0.4426  0.0814
33608SOL    HW1 6916  10.195   4.084   1.456 -3.4832  1.2254 -1.0308
33608SOL    HW2 6917  10.269   4.078   1.324 -0.3507  0.5340  0.6485
33609SOL     OW 6918   4.794   7.397   7.913  0.1424  0.0294 -0.1562
33609SOL    HW1 6919   4.755   7.484   7.917  0.4392  0.1422  0.4373
33609SOL    HW2 6920   4.859   7.403   7.843  0.3909  0.3864  0.1007
33610SOL     OW 6921   1.959   0.791   5.504  0.2127 -0.2786  0.8453
33610SOL    HW1 6922   1.961   0.877   5.544  1.6710 -0.7001  1.7628
33610SOL    HW2 6923   1.886   0.746   5.547 -2.2080  1.2426 -1.4142
33611SOL     OW 6924   9.452   4.222   8.917 -0.0605  0.1421 -0.6466
33611SOL    HW1 6925   9.429   4.132   8.894  1.1049  0.1774 -2.1338
33611SOL    HW2 6926   9.382   4.276   8.880 -1.4485 -0.1794  1.3528
33612SOL     OW 6927   2.017   8.791   2.020  0.1328 -0.2410  0.0088
33612SOL    HW1 6928   1.926   8.802   1.991  0.1106  0.0125  0.1658
33612SOL    HW2 6929   2.036   8.698   2.006  0.2829 -0.0408 -1.2727
33613SOL     OW 6930   8.995  10.698   1.903  0.0826 -0.9096  0.2366
33613SOL    HW1 6931   9.088  10.692   1.878  0.6306 -0.1346  1.9812
33613SOL    HW2 6932   8.966  10.781   1.865 -0.6470 -2.2427 -2.4151
33614SOL     OW 6933   5.347   3.186   3.976 -0.2972  0.3909  0.3112
33614SOL    HW1 6934   5.257   3.165   3.953  0.4364 -0.7217 -1.8649
33614SOL    HW2 6935   5.344   3.277   4.006 -2.1505  0.2980  0.5259
33615SOL     OW 6936   1.447   7.307   2.804  0.0088 -0.4376  0.1053
33615SOL    HW1 6937   1.461   7.389   2.851  0.9542 -0.0480 -0.8211
33615SOL    HW2 6938   1.516   7.304   2.737 -1.1184 -1.0886 -1.0968
33616SOL     OW 6939   4.495   7.201   1.945  0.2928 -0.3466  0.1483
33616SOL    HW1 6940   4.468   7.129   1.887  1.6221 -0.7993  0.0491
33616SOL    HW2 6941   4.589   7.211   1.928  0.0999  1.5604  0.0235
33617SOL     OW 6942  10.460   4.937   2.615 -0.3107 -0.6186 -0.1185
33617SOL    HW1 6943  10.485   4.869   2.678  0.1023 -0.8067 -0.4776
33617SOL    HW2 6944  10.512   4.917   2.537 -0.8077 -0.3805 -0.5161
33618SOL     OW 6945   2.775   9.650   6.536  0.2679 -0.7835 -0.7127
33618SOL    HW1 6946   2.829   9.728   6.552 -1.5240  0.2164  0.9395
33618SOL    HW2 6947   2.800   9.589   6.604  0.9523 -1.2739 -1.3904
33619SOL     OW 6948   0.890   1.157  10.022  0.3847 -0.0035 -0.2642
33619SOL    HW1 6949   0.914   1.066  10.000  2.0048  0.3369 -0.0449
33619SOL    HW2 6950   0.815   1.148  10.080 -0.1630 -1.1594 -1.0982
33620SOL     OW 6951   0.188   5.694   0.107 -0.1530 -0.0403  0.4293
33620SOL    HW1 6952   0.119   5.739   0.059 -0.0034  1.0625  1.2111
33620SOL    HW2 6953   0.268   5.709   0.056 -0.5239 -1.7707 -0.7665
33621SOL     OW 6954   2.438   3.686   4.362 -0.6624 -0.2293 -0.3697
33621SOL    HW1 6955   2.494   3.610   4.351 -0.3655  0.1923 -2.0874
33621SOL    HW2 6956   2.459   3.742   4.287 -0.8230  1.5785  0.8570
33622SOL     OW 6957   4.705   3.420   0.885  0.0302  0.2852 -0.0613
33622SOL    HW1 6958   4.718   3.437   0.792  0.7831  2.3913  0.3815
33622SOL    HW2 6959   4.683   3.327   0.889  0.4208  0.0368 -2.2878
33623SOL     OW 6960   1.257   3.268   8.212 -0.1539  0.0456  0.1959
33623SOL    HW1 6961   1.279   3.318   8.133 -0.4521 -0.5445 -0.2690
33623SOL    HW2 6962   1.167   3.295   8.232 -0.2156 -0.0910  0.1061
33624SOL     OW 6963   8.643   4.384   8.897  0.1865 -0.4517  0.8173
33624SOL    HW1 6964   8.566   4.392   8.842  1.4276 -0.5033 -1.0176
33624SOL    HW2 6965   8.667   4.475   8.917 -1.1147 -0.4524  2.5991
33625SOL     OW 6966   2.071   3.857   4.268 -0.2949 -0.4050  0.0482
33625SOL    HW1 6967   2.011   3.931   4.259  0.7277  0.3344 -1.0262
33625SOL    HW2 6968   2.015   3.781   4.271 -1.4466  0.4384  2.2159
33626SOL     OW 6969   0.173   7.182   1.025  0.2150  0.0748  0.2358
33626SOL    HW1 6970   0.193   7.197   0.933  1.7631  0.3002  0.5743
33626SOL    HW2 6971   0.148   7.089   1.029 -0.3002  0.1725 -0.4616
33627SOL     OW 6972   2.847   4.923   7.951 -0.6029 -0.2520  0.5505
33627SOL    HW1 6973   2.795   4.933   7.872 -2.7770 -0.9167  1.7998
33627SOL    HW2 6974   2.871   4.830   7.953 -0.7314 -0.2827  0.7576
33628SOL     OW 6975   8.157   1.392   4.918 -0.0008  0.6845 -0.1805
33628SOL    HW1 6976   8.133   1.449   4.845  3.2095  0.8026 -1.3459
33628SOL    HW2 6977   8.200   1.450   4.981  1.0717 -0.0151 -0.2262
33629SOL     OW 6978   8.050   9.566   3.230 -0.2759 -0.2860  0.5019
33629SOL    HW1 6979   8.010   9.483   3.202  0.9770 -0.7257 -0.0851
33629SOL    HW2 6980   8.001   9.591   3.308 -1.9811 -0.5449 -0.4311
33630SOL     OW 6981   9.005   2.386   8.424 -0.0172 -0.0216 -0.0794
33630SOL    HW1 6982   8.996   2.478   8.450  2.9341 -0.1458  1.9011
33630SOL    HW2 6983   9.066   2.349   8.488  1.0727 -2.6433 -2.4137
33631SOL     OW 6984   5.487   7.938   7.829 -0.0950  0.7287 -0.3256
33631SOL    HW1 6985   5.563   7.883   7.810 -1.1614 -0.4619 -1.3546
33631SOL    HW2 6986   5.441   7.894   7.901 -1.1079  0.0593 -1.3415
33632SOL     OW 6987   2.387   9.519   1.992  0.0392 -0.3476 -0.5293
33632SOL    HW1 6988   2.356   9.608   1.975  0.0903 -0.5834 -1.9120
33632SOL    HW2 6989   2.359   9.468   1.917  0.8121 -1.3092 -0.1906
33633SOL     OW 6990   3.138   6.260   6.924  0.4683  0.3474 -0.0636
33633SOL    HW1 6991   3.045   6.274   6.904 -0.5007  0.4302  3.7461
33633SOL    HW2 6992   3.155   6.169   6.900 -1.3219 -0.4009  1.2886
33634SOL     OW 6993   7.946  10.653   5.470 -0.5050  0.1713  0.0201
33634SOL    HW1 6994   8.004  10.658   5.394 -0.2489 -0.5026  0.1716
33634SOL    HW2 6995   7.860  10.633   5.433 -0.2869 -0.6443 -0.0563
33635SOL     OW 6996   6.554   1.637  10.011  0.1149  0.3859 -0.0397
33635SOL    HW1 6997   6.508   1.613   9.930 -1.0827  0.4039  0.6053
33635SOL    HW2 6998   6.571   1.553  10.054  0.7232  0.3784 -0.2920
33636SOL     OW 6999   9.832   2.176   9.467 -0.1543  0.0745 -0.0215
33636SOL    HW1 7000   9.916   2.135   9.487  0.7428  1.4230 -0.8199
33636SOL    HW2 7001   9.841   2.266   9.497 -1.4752  0.1496  0.2315
33637SOL     OW 7002   0.119   1.085   1.322 -0.1180 -0.4331  0.0305
33637SOL    HW1 7003   0.202   1.132   1.318  0.0726 -0.7965 -0.2562
33637SOL    HW2 7004   0.106   1.069   1.416 -1.3989  2.3278  0.4487
33638SOL     OW 7005  10.868   0.156   9.297  0.1076 -0.0490  0.0135
33638SOL    HW1 7006  10.848   0.128   9.207  3.0406  1.4734 -1.2615
33638SOL    HW2 7007  10.887   0.250   9.289  1.9109 -0.1800  1.8937
33639SOL     OW 7008   5.871   4.764   3.498 -0.5052  0.3177  0.0656
33639SOL    HW1 7009   5.921   4.830   3.450  1.8813 -0.9215  0.6952
33639SOL    HW2 7010   5.913   4.681   3.477 -2.0186 -0.7614  1.0563
33640SOL     OW 7011  10.022   8.747   9.994 -0.0413  0.0158  0.3160
33640SOL    HW1 7012  10.033   8.839   9.971 -0.0151 -0.2568 -0.7950
33640SOL    HW2 7013   9.935   8.725   9.961  1.2442 -1.2452 -2.5791
33641SOL     OW 7014   2.351   8.838   9.514  0.0369  0.1522  0.8702
33641SOL    HW1 7015   2.300   8.854   9.435  1.5625 -0.2300 -0.2375
33641SOL    HW2 7016   2.396   8.921   9.531  0.7626 -0.1683  0.5383
33642SOL     OW 7017   8.546   9.404   5.188  0.7908  0.8261  0.0403
33642SOL    HW1 7018   8.475   9.464   5.166 -0.8928 -1.5004 -1.3649
33642SOL    HW2 7019   8.608   9.412   5.115 -0.5080 -0.6031 -1.2965
33643SOL     OW 7020   8.748   6.427  10.605 -0.2065 -1.0112  0.6218
33643SOL    HW1 7021   8.733   6.507  10.656 -0.2963 -0.8310  0.3144
33643SOL    HW2 7022   8.674   6.370  10.626 -0.2163 -0.9582  0.7294
33644SOL     OW 7023   1.030   7.343   3.200  0.3830 -0.5264 -0.4590
33644SOL    HW1 7024   1.112   7.329   3.153 -0.1351 -0.3399 -1.4614
33644SOL    HW2 7025   1.046   7.421   3.254  0.7039 -0.1804 -1.0422
33645SOL     OW 7026   5.095   7.616   1.602 -1.1630  0.1106  0.3785
33645SOL    HW1 7027   5.115   7.552   1.670  0.9015  1.6958  1.3819
33645SOL    HW2 7028   5.139   7.582   1.524  0.2703  0.4466  1.0058
33646SOL     OW 7029   8.695   6.609   9.050  0.5705  0.5459 -0.0064
33646SOL    HW1 7030   8.602   6.621   9.067  0.4694 -0.7013  0.3981
33646SOL    HW2 7031   8.704   6.515   9.031  1.7241  0.6769 -0.1684
33647SOL     OW 7032   2.096   3.019   0.590  0.3295 -0.2405 -0.0990
33647SOL    HW1 7033   2.146   2.947   0.629  1.3111  0.6223  0.2727
33647SOL    HW2 7034   2.148   3.047   0.515  0.7992  1.1588  0.7308
33648SOL     OW 7035   8.508   2.679   0.776 -0.1674  0.6374  0.0458
33648SOL    HW1 7036   8.421   2.652   0.804  0.2438  0.2269  0.9825
33648SOL    HW2 7037   8.498   2.702   0.684 -1.6109  2.1185  0.5069
33649SOL     OW 7038   5.442   1.598   8.095  0.1635  0.0340 -0.3723
33649SOL    HW1 7039   5.491   1.678   8.077  0.5656  0.3503  1.8577
33649SOL    HW2 7040   5.485   1.531   8.042  1.9638  0.6381  0.2473
33650SOL     OW 7041   8.675   1.705   1.618 -0.4362 -0.0350  0.0691
33650SOL    HW1 7042   8.598   1.654   1.594  0.7909 -2.2456  0.5827
33650SOL    HW2 7043   8.642   1.795   1.627 -3.1091 -1.0114  1.0367
33651SOL     OW 7044   3.267   8.313   9.387 -0.2600  0.1546 -0.0167
33651SOL    HW1 7045   3.200   8.344   9.448 -0.4776  1.2355 -0.7889
33651SOL    HW2 7046   3.310   8.393   9.356  0.5724 -0.4552 -0.4573
33652SOL     OW 7047   1.228   1.505   6.205  0.1192  0.2153 -0.3482
33652SOL    HW1 7048   1.284   1.542   6.136 -0.0098  0.8243 -0.1309
33652SOL    HW2 7049   1.290   1.476   6.272  0.2481 -0.4046 -0.7160
33653SOL     OW 7050   1.026   5.590   6.126  0.4031  0.2332  0.6041
33653SOL    HW1 7051   1.020   5.655   6.196  0.5662  0.4803  0.3930
33653SOL    HW2 7052   1.070   5.636   6.055  3.7949 -1.1098  1.6603
33654SOL     OW 7053   1.180   3.792  10.051 -0.0975 -0.2098 -0.0886
33654SOL    HW1 7054   1.126   3.870  10.066  0.4844  0.6292 -2.0347
33654SOL    HW2 7055   1.210   3.766  10.138 -0.4840  1.6081  0.6214
33655SOL     OW 7056   5.309   4.496  10.109 -0.0782 -0.3894 -0.2937
33655SOL    HW1 7057   5.300   4.421  10.168 -1.2692 -0.1653 -0.1550
33655SOL    HW2 7058   5.328   4.570  10.167 -0.9240 -0.2292 -0.2038
33656SOL     OW 7059   0.296   4.880   6.587  0.2396  0.7855  0.0829
33656SOL    HW1 7060   0.339   4.855   6.504  0.4427  0.6784  0.2186
33656SOL    HW2 7061   0.348   4.836   6.654 -0.0329  0.7292  0.2567
33657SOL     OW 7062  10.021  10.178   9.678  0.0176  0.0379  0.2880
33657SOL    HW1 7063  10.039  10.146   9.589  0.5161 -1.6319  0.9395
33657SOL    HW2 7064   9.935  10.220   9.671  1.2828  2.6066 -1.5723
33658SOL     OW 7065   4.003   7.322   0.059  0.3559 -0.7745  0.3343
33658SOL    HW1 7066   3.978   7.330  -0.033  0.6679 -1.0086  0.2267
33658SOL    HW2 7067   3.967   7.237   0.086  0.2005 -0.6725  0.4502
33659SOL     OW 7068   9.837   4.224   8.495  0.7721 -0.6332  0.0421
33659SOL    HW1 7069   9.892   4.264   8.562  0.3837  0.7549 -0.4431
33659SOL    HW2 7070   9.874   4.251   8.412 -1.0710  1.0550 -0.3083
33660SOL     OW 7071   8.907   8.218   4.571  0.5925  0.8212 -0.0932
33660SOL    HW1 7072   8.887   8.282   4.640  1.0143  0.8986 -0.0406
33660SOL    HW2 7073   8.987   8.251   4.531  0.2124  0.9183 -0.7972
33661SOL     OW 7074   8.783   9.655   5.054  0.1087 -0.3533 -0.1840
33661SOL    HW1 7075   8.835   9.659   5.134 -0.8518  1.8907  0.3935
33661SOL    HW2 7076   8.752   9.564   5.051  0.8806 -0.7200  1.5194
33662SOL     OW 7077   5.420   9.618   5.402  0.3631 -0.4652 -0.6243
33662SOL    HW1 7078   5.341   9.612   5.348  1.0218 -1.6019 -1.5120
33662SOL    HW2 7079   5.481   9.555   5.363  0.8524 -1.4164  1.5104
33663SOL     OW 7080   9.590   2.557   4.008 -0.0358  0.2555  0.4150
33663SOL    HW1 7081   9.685   2.551   4.015 -0.1156  0.2362  2.0215
33663SOL    HW2 7082   9.573   2.578   3.916  1.5893  1.4674  0.3494
33664SOL     OW 7083   7.713   1.611   4.812  0.3549  0.4435  0.0382
33664SOL    HW1 7084   7.753   1.615   4.725  0.4424  0.9169  0.0947
33664SOL    HW2 7085   7.644   1.678   4.810  0.1124  0.2009  0.2127
33665SOL     OW 7086  10.217   0.061   8.762  0.1571 -0.1065  0.1675
33665SOL    HW1 7087  10.251   0.010   8.836 -0.0104  0.2155  0.4702
33665SOL    HW2 7088  10.287   0.058   8.697  0.5605  0.1382  0.5896
33666SOL     OW 7089   0.533   0.268   0.142 -0.2651 -0.4876  0.2405
33666SOL    HW1 7090   0.449   0.314   0.138 -0.4430 -0.7878  0.4093
33666SOL    HW2 7091   0.582   0.300   0.067 -0.7348 -0.7032 -0.1638
33667SOL     OW 7092  10.206   3.160  10.716 -0.4540 -0.4334  0.8994
33667SOL    HW1 7093  10.230   3.069  10.698 -1.3522 -0.4275 -0.4624
33667SOL    HW2 7094  10.262   3.211  10.657  0.4850 -0.0462  2.0968
33668SOL     OW 7095   7.411   3.817   6.945  0.3620  0.5648  0.0328
33668SOL    HW1 7096   7.499   3.781   6.932 -0.6294 -1.6591 -0.9094
33668SOL    HW2 7097   7.374   3.823   6.857 -1.5748 -1.6836  0.6302
33669SOL     OW 7098   6.847   1.958   1.043 -0.1162  0.7115  0.1820
33669SOL    HW1 7099   6.861   1.863   1.051 -2.3357  0.4243  1.3371
33669SOL    HW2 7100   6.837   1.973   0.949 -0.1839 -0.2691  0.0169
33670SOL     OW 7101   5.626  10.725   6.849 -0.3379 -0.1477  0.3512
33670SOL    HW1 7102   5.687  10.764   6.912  0.9168  0.7334 -1.3187
33670SOL    HW2 7103   5.583  10.799   6.807 -0.2654 -0.6548 -0.6631
33671SOL     OW 7104   6.444   9.633   0.714  0.1944  0.0066 -0.1584
33671SOL    HW1 7105   6.434   9.726   0.735  0.4244  0.6536 -2.5830
33671SOL    HW2 7106   6.534   9.613   0.741 -0.1242  0.2136  1.1579
33672SOL     OW 7107   7.119   1.603   4.699  0.1567 -0.4665  0.1575
33672SOL    HW1 7108   7.137   1.615   4.792 -2.0102  2.4893  0.3446
33672SOL    HW2 7109   7.035   1.558   4.695  0.3527 -0.7962 -0.3782
33673SOL     OW 7110   6.039   1.387   4.763 -1.1219 -0.0901 -0.6576
33673SOL    HW1 7111   6.084   1.327   4.821  1.4262  0.3522 -2.0334
33673SOL    HW2 7112   6.010   1.459   4.820 -0.0387 -0.3881  0.2990
33674SOL     OW 7113   7.542   0.540  10.728  0.0289  0.4217  0.4567
33674SOL    HW1 7114   7.598   0.497  10.663  1.3736  2.8452 -0.1125
33674SOL    HW2 7115   7.460   0.558  10.681  0.3715  0.6692 -0.0521
33675SOL     OW 7116   3.154   5.027   1.058  0.5378  0.5874  0.1017
33675SOL    HW1 7117   3.191   4.953   1.011 -0.0262 -0.1801  0.8229
33675SOL    HW2 7118   3.210   5.101   1.036  1.0060 -0.0177 -0.7713
33676SOL     OW 7119   7.128   4.461   0.792  0.3577  0.2752  0.0140
33676SOL    HW1 7120   7.073   4.383   0.792  0.8777 -0.1031 -0.9881
33676SOL    HW2 7121   7.110   4.504   0.709  3.1124 -0.9903 -1.3510
33677SOL     OW 7122   5.990   9.986   4.826 -0.4560  0.0524 -0.2401
33677SOL    HW1 7123   5.999  10.016   4.735  1.4255 -1.3890 -0.6209
33677SOL    HW2 7124   6.026  10.057   4.878  1.7903 -0.4427 -0.9543
33678SOL     OW 7125   1.944   3.506   9.452 -0.5836 -0.4509  0.4646
33678SOL    HW1 7126   1.859   3.534   9.420 -0.8266 -0.2605  1.2532
33678SOL    HW2 7127   2.007   3.565   9.410 -0.7114 -1.3543 -1.0658
33679SOL     OW 7128   5.188   3.275   4.388  0.2687  0.2956 -0.8946
33679SOL    HW1 7129   5.115   3.336   4.398 -0.0016 -0.2216  0.5510
33679SOL    HW2 7130   5.160   3.216   4.318  1.3060  2.8180 -3.6667
33680SOL     OW 7131   5.187   5.876   3.847  0.4278 -0.3910  0.0746
33680SOL    HW1 7132   5.173   5.949   3.786  1.0511  0.6577  1.1397
33680SOL    HW2 7133   5.116   5.885   3.911  0.4732 -0.7569  0.1738
33681SOL     OW 7134   4.381   7.601   3.639  0.8852 -0.4413  0.0044
33681SOL    HW1 7135   4.359   7.512   3.666  2.3002 -0.6986  0.4316
33681SOL    HW2 7136   4.387   7.651   3.720 -0.4505  0.2076 -0.2683
33682SOL     OW 7137   8.248   9.173   5.106 -0.9727  0.6474 -1.0750
33682SOL    HW1 7138   8.205   9.238   5.161 -1.4357 -1.3900  1.1030
33682SOL    HW2 7139   8.333   9.160   5.147 -0.6267  0.3486 -1.8757
33683SOL     OW 7140   9.656   2.667   5.838  0.1702 -0.4816 -0.2179
33683SOL    HW1 7141   9.674   2.575   5.819 -0.2591 -0.4733 -0.7019
33683SOL    HW2 7142   9.732   2.697   5.887  1.1035 -0.6449 -1.5086
33684SOL     OW 7143   0.041   3.870   0.846 -0.6224  0.0738  0.4645
33684SOL    HW1 7144   0.064   3.901   0.933  0.9054  0.9738 -0.2356
33684SOL    HW2 7145   0.122   3.876   0.795 -1.4982 -0.3372 -1.0542
33685SOL     OW 7146   3.484   9.594   5.045 -0.3987 -0.0755  0.2378
33685SOL    HW1 7147   3.510   9.526   5.107  1.1818  0.4503  0.1859
33685SOL    HW2 7148   3.495   9.676   5.093 -2.2708  0.1781  0.2928
33686SOL     OW 7149   0.189  10.471   3.705  0.7940  0.1080  0.0141
33686SOL    HW1 7150   0.218  10.432   3.787 -0.8488 -0.0672  0.5434
33686SOL    HW2 7151   0.113  10.524   3.729  0.4505  0.2778 -1.3596
33687SOL     OW 7152   5.732   5.556   2.665  0.1938 -0.2532  0.3718
33687SOL    HW1 7153   5.738   5.622   2.596 -1.4512 -0.0963  0.3457
33687SOL    HW2 7154   5.823   5.532   2.683  0.7749  1.3655 -0.2327
33688SOL     OW 7155   6.807   1.147   2.701  0.3317  0.1444  0.2719
33688SOL    HW1 7156   6.875   1.214   2.711  1.8564 -1.2435 -0.3428
33688SOL    HW2 7157   6.855   1.067   2.679 -1.4293 -1.1585  0.9265
33689SOL     OW 7158   8.866   5.591   8.162  0.1680  0.0751  0.2545
33689SOL    HW1 7159   8.796   5.623   8.219 -0.7917  0.2224 -0.9776
33689SOL    HW2 7160   8.901   5.671   8.122  1.5760  0.0838  1.4099
33690SOL     OW 7161   5.932   6.383   0.694 -0.2969  0.2838  0.2366
33690SOL    HW1 7162   5.944   6.292   0.723  0.0954  0.1881 -0.1984
33690SOL    HW2 7163   6.020   6.412   0.672 -0.7274 -0.3132 -2.7466
33691SOL     OW 7164   0.646   9.017   0.518 -0.2097 -0.3409  0.1922
33691SOL    HW1 7165   0.740   9.004   0.517 -0.0995  0.3341  0.8360
33691SOL    HW2 7166   0.630   9.083   0.451 -0.7374 -3.3244 -2.8825
33692SOL     OW 7167   1.381  10.805   6.921 -0.1541 -0.4509 -0.2293
33692SOL    HW1 7168   1.451  10.847   6.871  0.7712 -2.4847 -0.7466
33692SOL    HW2 7169   1.392  10.839   7.010  1.3385 -0.5272 -0.3574
33693SOL     OW 7170   6.079   7.030   1.592  0.4616  0.2979 -0.3586
33693SOL    HW1 7171   6.083   6.999   1.683 -0.7149  0.0840 -0.3652
33693SOL    HW2 7172   6.045   6.955   1.543 -1.7588  1.3127 -0.4894
33694SOL     OW 7173   0.457   0.713  10.573 -0.0480  0.2598 -0.1085
33694SOL    HW1 7174   0.369   0.694  10.605  0.4936 -0.8132  0.8126
33694SOL    HW2 7175   0.464   0.661  10.493 -0.5351  1.0248 -0.6677
33695SOL     OW 7176   0.068   3.648   3.112  0.0476  0.2530 -0.6231
33695SOL    HW1 7177  -0.022   3.620   3.100 -0.3317  1.7525 -1.5747
33695SOL    HW2 7178   0.077   3.664   3.205 -0.0209 -1.9020 -0.1979
33696SOL     OW 7179  10.861  10.500   1.739 -0.2303 -0.3286  0.2155
33696SOL    HW1 7180  10.857  10.408   1.763  1.2434 -0.0631  1.7326
33696SOL    HW2 7181  10.830  10.547   1.816 -0.6065  0.4536 -0.3954
33697SOL     OW 7182   2.363   6.640   3.677 -0.8570 -0.6370 -0.1224
33697SOL    HW1 7183   2.308   6.674   3.748 -0.2699 -1.0470  0.5347
33697SOL    HW2 7184   2.370   6.546   3.695  1.5740 -0.3322  0.8999
33698SOL     OW 7185   3.618   8.521   9.963 -0.2563  0.1826  0.1931
33698SOL    HW1 7186   3.556   8.451   9.943  0.6672 -0.6598  0.1973
33698SOL    HW2 7187   3.655   8.497  10.048  1.3432 -0.2976 -0.5890
33699SOL     OW 7188  10.320   1.307   4.379 -0.3439  0.3370  0.0895
33699SOL    HW1 7189  10.386   1.301   4.310 -0.5860 -0.8421 -0.0542
33699SOL    HW2 7190  10.292   1.399   4.377 -0.2594  0.3471 -1.2809
33700SOL     OW 7191   6.876   7.470  10.620 -0.0292  0.0224 -0.4420
33700SOL    HW1 7192   6.952   7.412  10.615  0.0831  0.0615  0.5077
33700SOL    HW2 7193   6.877   7.502  10.711 -1.5561 -0.5272 -0.1982
33701SOL     OW 7194   7.355   2.966   1.976 -0.2364  0.6924  0.2858
33701SOL    HW1 7195   7.273   2.965   1.926 -0.0838  3.1975 -0.1642
33701SOL    HW2 7196   7.335   3.019   2.053  1.1597  2.1720 -0.3136
33702SOL     OW 7197   6.768   7.638   4.870 -0.5390 -0.0149 -0.6821
33702SOL    HW1 7198   6.849   7.603   4.907 -1.3244 -1.6954 -0.4316
33702SOL    HW2 7199   6.727   7.686   4.942 -0.5273 -0.5499 -0.3080
33703SOL     OW 7200   2.512   3.851   4.961 -0.3913  0.0424  0.1837
33703SOL    HW1 7201   2.524   3.934   5.008 -0.1561 -0.6090  1.2949
33703SOL    HW2 7202   2.486   3.878   4.873  0.3174  1.3201  0.3282
33704SOL     OW 7203   1.555   9.850   9.481 -0.0571 -0.2131  1.0263
33704SOL    HW1 7204   1.641   9.884   9.461 -0.4167  1.7851  2.5522
33704SOL    HW2 7205   1.494   9.904   9.430 -0.4806 -0.8075  0.8839
33705SOL     OW 7206   6.346   5.058   0.780  0.5781  0.5781  0.2635
33705SOL    HW1 7207   6.387   5.074   0.695 -1.0810  3.2430 -0.1357
33705SOL    HW2 7208   6.404   5.099   0.844  0.5109  0.8621  0.1407
33706SOL     OW 7209   4.632   8.722   3.333 -0.7994  0.5383  0.0333
33706SOL    HW1 7210   4.708   8.777   3.351  0.1002 -0.4662 -0.5652
33706SOL    HW2 7211   4.626   8.663   3.408 -1.1541  0.7909  0.2049
33707SOL     OW 7212   5.710   8.852   4.768  0.3185 -0.0086 -0.2971
33707SOL    HW1 7213   5.755   8.897   4.696 -0.6167  0.8671 -0.3681
33707SOL    HW2 7214   5.780   8.816   4.822  1.0566 -0.5519 -1.5462
33708SOL     OW 7215   9.861   0.483   7.467  0.1857  0.1990  0.5013
33708SOL    HW1 7216   9.814   0.546   7.521  0.2986  0.4231  0.3412
33708SOL    HW2 7217   9.877   0.529   7.385 -0.4927 -0.3321  0.0557
33709SOL     OW 7218   0.182   7.676  10.090 -0.9626 -0.0487  0.0228
33709SOL    HW1 7219   0.142   7.608  10.036 -1.4615 -0.3318  0.7331
33709SOL    HW2 7220   0.164   7.649  10.180  0.5085  0.0119  0.3647
33710SOL     OW 7221   7.380   6.844  10.701 -0.3684 -0.5215 -0.0482
33710SOL    HW1 7222   7.382   6.935  10.729 -2.9096 -0.2051 -0.5892
33710SOL    HW2 7223   7.286   6.824  10.694  0.1386 -2.8174 -1.0815
33711SOL     OW 7224   2.905   7.039   3.703  0.4007  0.4466 -0.1905
33711SOL    HW1 7225   2.903   6.977   3.630  0.7898 -0.0888  0.2495
33711SOL    HW2 7226   2.951   7.116   3.668 -0.3286  0.6065 -0.8223
33712SOL     OW 7227   3.458   3.985   3.445 -0.2322  0.3485  0.2705
33712SOL    HW1 7228   3.418   4.071   3.453 -1.3374 -0.2337  1.3000
33712SOL    HW2 7229   3.396   3.935   3.392  0.1834  0.0387  0.0667
33713SOL     OW 7230   4.658   1.889   2.153  0.3654  0.3109  0.5361
33713SOL    HW1 7231   4.628   1.972   2.114 -0.8713 -0.5913 -0.5232
33713SOL    HW2 7232   4.581   1.832   2.150  1.0775 -0.7482  1.6450
33714SOL     OW 7233  10.505   0.271   9.744  0.3908  0.0330  0.2840
33714SOL    HW1 7234  10.528   0.322   9.822 -1.1704  0.3896  0.5627
33714SOL    HW2 7235  10.580   0.281   9.686  1.2182  0.4970  1.3833
33715SOL     OW 7236   9.538   0.144   9.160 -0.0017  0.0635  0.4768
33715SOL    HW1 7237   9.528   0.119   9.068 -0.5696 -0.9561  0.8081
33715SOL    HW2 7238   9.625   0.112   9.184 -0.7825 -1.8079  0.9427
33716SOL     OW 7239   2.542   9.861   6.596 -0.2186 -0.2052 -0.1436
33716SOL    HW1 7240   2.630   9.871   6.560  0.5665 -2.1999  1.0372
33716SOL    HW2 7241   2.496   9.806   6.532 -0.1185 -0.4074 -0.0424
33717SOL     OW 7242   1.084   4.446  10.313  0.3659 -0.1642  0.2078
33717SOL    HW1 7243   1.059   4.354  10.311  1.9148 -0.6143 -0.9419
33717SOL    HW2 7244   1.084   4.469  10.406 -0.5093 -1.1707  0.4751
33718SOL     OW 7245  10.420   9.049   7.303 -0.3251  0.1059 -0.2976
33718SOL    HW1 7246  10.434   8.989   7.377  0.4004 -0.2879 -0.7366
33718SOL    HW2 7247  10.486   9.118   7.317 -0.0452 -0.0823 -0.6866
33719SOL     OW 7248   9.721   4.611   8.968 -0.5385 -0.5601  0.1046
33719SOL    HW1 7249   9.688   4.528   9.001  0.2341 -0.7791  0.3281
33719SOL    HW2 7250   9.803   4.589   8.923 -0.3752  0.0634  0.0807
33720SOL     OW 7251   8.792   1.382   6.966  0.1119 -0.4077  0.3522
33720SOL    HW1 7252   8.712   1.361   6.919 -0.0664 -0.7391  0.8039
33720SOL    HW2 7253   8.774   1.466   7.009 -0.2708 -0.8519  1.0800
33721SOL     OW 7254   0.984   4.197  10.383  0.4512 -0.3613 -0.7038
33721SOL    HW1 7255   1.053   4.164  10.441 -1.4865  1.1069  2.6699
33721SOL    HW2 7256   0.946   4.118  10.345  1.6082 -1.4200  0.2238
33722SOL     OW 7257   6.447   8.601  10.564  0.2833 -0.1009  0.7209
33722SOL    HW1 7258   6.520   8.662  10.562  1.3543 -1.3236 -0.8719
33722SOL    HW2 7259   6.455   8.555  10.647 -0.5851  1.9046  1.9705
33723SOL     OW 7260   3.939   0.164   6.195  0.2765 -0.2324  0.5571
33723SOL    HW1 7261   3.997   0.109   6.247  1.2228 -0.9507 -1.1485
33723SOL    HW2 7262   3.960   0.141   6.104 -1.3758  0.8590 -0.1493
33724SOL     OW 7263   2.324   3.934   0.886  0.0240  0.3861 -0.5155
33724SOL    HW1 7264   2.251   3.972   0.838 -0.1003  0.1732 -0.4953
33724SOL    HW2 7265   2.335   3.847   0.849 -0.6437 -0.1240  0.4431
33725SOL     OW 7266   7.831   9.261   8.437 -0.6081 -0.1774  0.3249
33725SOL    HW1 7267   7.873   9.293   8.357 -0.2985 -0.8810  0.1936
33725SOL    HW2 7268   7.786   9.337   8.473  0.6279  0.5600  0.3766
33726SOL     OW 7269  10.634   9.440   3.721 -0.0987  0.0960  0.0053
33726SOL    HW1 7270  10.666   9.351   3.708 -1.1599 -0.4050  0.6106
33726SOL    HW2 7271  10.711   9.491   3.746  0.6728 -0.4539 -1.2123
33727SOL     OW 7272   8.330   4.013   5.266 -0.3853  0.3790 -0.3614
33727SOL    HW1 7273   8.256   3.966   5.228 -0.3925 -1.0478  1.3097
33727SOL    HW2 7274   8.291   4.070   5.332  0.0077 -1.1607  1.2879
33728SOL     OW 7275   9.429   9.645   4.723 -0.0275 -0.5282  0.3267
33728SOL    HW1 7276   9.502   9.644   4.662  0.2364  0.8840  0.5749
33728SOL    HW2 7277   9.366   9.581   4.688  0.3575 -0.1601 -1.0964
33729SOL     OW 7278   8.363   1.305   3.644 -0.2936  0.7190 -0.6298
33729SOL    HW1 7279   8.359   1.398   3.668  1.9542  0.6388  0.2491
33729SOL    HW2 7280   8.444   1.296   3.594  0.5018 -1.0514  0.8600
33730SOL     OW 7281   8.589   9.383   4.308 -0.0682  0.2908 -0.0078
33730SOL    HW1 7282   8.629   9.299   4.329 -0.4774 -0.3618 -1.6768
33730SOL    HW2 7283   8.496   9.371   4.329 -0.1931  0.1990 -0.6120
33731SOL     OW 7284   3.901   8.128   6.356 -0.1404 -0.3790 -0.5644
33731SOL    HW1 7285   3.946   8.209   6.332 -1.1035  1.0293  1.8765
33731SOL    HW2 7286   3.811   8.141   6.327 -0.1578 -0.8488 -0.7259
33732SOL     OW 7287   7.050   7.709   0.808  0.1017 -0.0308  0.2268
33732SOL    HW1 7288   7.056   7.729   0.715 -0.5502  1.0455  0.3966
33732SOL    HW2 7289   7.110   7.770   0.850 -0.1084 -0.0519  0.5626
33733SOL     OW 7290   3.502   1.725   4.066 -0.1910  0.0637  0.3480
33733SOL    HW1 7291   3.436   1.680   4.013 -0.5797  0.3325  0.6002
33733SOL    HW2 7292   3.452   1.763   4.138  0.2271  0.3560  0.4813
33734SOL     OW 7293   3.501   4.137   0.827  0.0370 -0.1664  0.1215
33734SOL    HW1 7294   3.473   4.185   0.905  2.3050 -0.0340  0.9305
33734SOL    HW2 7295   3.423   4.090   0.799 -1.1009  0.5373  1.9008
33735SOL     OW 7296   8.371   3.554   5.419 -0.2904  0.4116  0.5396
33735SOL    HW1 7297   8.424   3.631   5.394  1.1682 -0.5882  0.4251
33735SOL    HW2 7298   8.289   3.591   5.451 -0.9742  1.9307 -2.5407
33736SOL     OW 7299   4.969   4.060  10.793  0.2058 -0.1026  0.1877
33736SOL    HW1 7300   4.913   4.048  10.716 -0.3014  2.2125  0.1243
33736SOL    HW2 7301   4.914   4.033  10.866  0.2922 -1.2455 -0.1530
33737SOL     OW 7302  10.790  10.190   1.249  0.5249 -0.2588 -0.0162
33737SOL    HW1 7303  10.740  10.246   1.190  2.1082  0.8238 -0.3951
33737SOL    HW2 7304  10.821  10.249   1.318  0.6765 -1.0419  0.5970
33738SOL     OW 7305   1.544   9.785   1.460  0.2828  0.0725  0.0913
33738SOL    HW1 7306   1.483   9.855   1.435 -0.1326 -0.5371 -0.6602
33738SOL    HW2 7307   1.489   9.718   1.499  0.5062 -0.3646 -0.3340
33739SOL     OW 7308   2.179   8.305   3.004 -0.5062 -0.3180  0.1664
33739SOL    HW1 7309   2.108   8.352   2.961  0.4514 -0.9288 -2.1939
33739SOL    HW2 7310   2.249   8.369   3.013 -1.0565  0.1181  1.9649
33740SOL     OW 7311   0.034   9.287   0.976  0.4897  0.1789 -0.1159
33740SOL    HW1 7312   0.102   9.241   1.024 -0.4412 -3.2268 -1.7302
33740SOL    HW2 7313  -0.040   9.291   1.036  0.7704  0.1219  0.2336
33741SOL     OW 7314   7.137   2.176  10.557  0.3886  0.1660 -0.1377
33741SOL    HW1 7315   7.156   2.161  10.464  0.5253 -1.1913  0.0769
33741SOL    HW2 7316   7.057   2.127  10.573  0.6423 -0.0298  0.5696
33742SOL     OW 7317   0.385   1.717  10.551  0.5826  0.2660 -0.8799
33742SOL    HW1 7318   0.454   1.694  10.490  0.1298  1.0224 -1.6983
33742SOL    HW2 7319   0.304   1.696  10.505  0.2194  1.4170 -0.7942
33743SOL     OW 7320   6.471   9.162   6.387 -0.2604 -0.0869 -0.3492
33743SOL    HW1 7321   6.554   9.203   6.414 -0.5119  0.6092 -0.6123
33743SOL    HW2 7322   6.407   9.233   6.391 -0.6073 -0.3296 -1.3062
33744SOL     OW 7323   7.391   6.134  10.768  0.3134 -0.3051  0.4515
33744SOL    HW1 7324   7.332   6.141  10.692  0.2037  0.0192  0.5630
33744SOL    HW2 7325   7.439   6.053  10.753  0.3114 -0.2317  0.0180
33745SOL     OW 7326   8.488   1.173   0.042 -0.2927  0.0187  0.2874
33745SOL    HW1 7327   8.454   1.084   0.032  0.1204 -0.0540 -0.6584
33745SOL    HW2 7328   8.410   1.228   0.049 -0.5693 -0.3511  0.1683
33746SOL     OW 7329   1.436   5.179  10.809  0.2409 -0.1371 -0.5391
33746SOL    HW1 7330   1.488   5.258  10.789  1.7261 -0.6728  0.9504
33746SOL    HW2 7331   1.482   5.138  10.883 -2.4943 -0.4990  1.1206
33747SOL     OW 7332   6.817   5.557  10.126  0.0039  0.0494 -0.0258
33747SOL    HW1 7333   6.871   5.514  10.060 -0.8311  0.8512 -1.2948
33747SOL    HW2 7334   6.880   5.600  10.184  0.8215 -2.3047  0.9251
33748SOL     OW 7335   8.038   9.912   1.703 -0.1480  0.0555 -0.1118
33748SOL    HW1 7336   8.004   9.888   1.789 -1.7176 -0.0563 -0.7338
33748SOL    HW2 7337   8.116   9.858   1.692 -0.0653 -0.1040  1.1355
33749SOL     OW 7338   2.224   6.558   0.926  0.5626 -0.1541 -0.2014
33749SOL    HW1 7339   2.235   6.631   0.987 -0.6116  0.8739 -1.1623
33749SOL    HW2 7340   2.233   6.480   0.980  1.8058  0.6881  0.8680
33750SOL     OW 7341   3.079   0.442   9.384 -0.7847 -0.1676 -1.0944
33750SOL    HW1 7342   3.084   0.479   9.296 -0.9650  1.7391 -0.3673
33750SOL    HW2 7343   2.986   0.440   9.404 -0.7511 -0.6902 -0.9893
33751SOL     OW 7344   8.251  10.678  10.619  0.0673 -0.3325 -0.8367
33751SOL    HW1 7345   8.201  10.666  10.700  2.2027 -2.1457  0.3371
33751SOL    HW2 7346   8.227  10.604  10.565  0.4557 -0.4596 -0.8368
33752SOL     OW 7347   2.731   7.861   0.626 -0.6193  0.1113 -0.0954
33752SOL    HW1 7348   2.689   7.813   0.698  0.2010 -0.3096  0.1136
33752SOL    HW2 7349   2.747   7.948   0.661 -0.6054  0.0350  0.0909
33753SOL     OW 7350   8.040   0.098   1.973 -0.8627 -0.5665  0.0323
33753SOL    HW1 7351   8.025   0.159   1.901 -1.3162 -1.3274 -0.5303
33753SOL    HW2 7352   7.960   0.102   2.026 -0.1696  0.6907  1.0506
33754SOL     OW 7353   9.868  10.105   6.944  0.9275 -0.8721 -0.4386
33754SOL    HW1 7354   9.894  10.047   6.873  1.5080 -1.8730  0.5638
33754SOL    HW2 7355   9.900  10.191   6.917 -0.4902 -0.8279 -2.2383
33755SOL     OW 7356   5.557   6.636   4.082  0.0043  0.1037  0.3836
33755SOL    HW1 7357   5.642   6.680   4.086 -0.1011  0.2922  0.5749
33755SOL    HW2 7358   5.575   6.553   4.038  0.6111 -0.6330  1.9448
33756SOL     OW 7359   4.118   2.798   1.685 -0.3712 -0.0051  0.2255
33756SOL    HW1 7360   4.126   2.703   1.699 -2.4006 -0.1373  0.7467
33756SOL    HW2 7361   4.031   2.820   1.718 -0.0351  2.0192 -0.1193
33757SOL     OW 7362   1.842   8.819   9.992 -0.3437 -0.6067  0.0356
33757SOL    HW1 7363   1.765   8.763   9.983 -1.5890  0.9572  0.4721
33757SOL    HW2 7364   1.893   8.778  10.062 -1.5410 -0.8630  0.7895
33758SOL     OW 7365   1.450   0.199   4.216 -0.4755  0.2381  0.1772
33758SOL    HW1 7366   1.473   0.266   4.280  1.8971  2.5653 -2.7562
33758SOL    HW2 7367   1.502   0.123   4.240  0.6486  1.1893  0.8497
33759SOL     OW 7368   8.214   1.169   3.846 -0.3216 -0.1466 -0.6087
33759SOL    HW1 7369   8.262   1.191   3.766  1.4223 -0.2307  0.3634
33759SOL    HW2 7370   8.159   1.246   3.862  0.8692  0.7783 -0.7722
33760SOL     OW 7371   1.588   5.176   9.285 -0.2511  0.1585 -0.7050
33760SOL    HW1 7372   1.571   5.234   9.359  0.5486  0.5465 -0.8106
33760SOL    HW2 7373   1.621   5.234   9.216  1.1605 -0.4792 -0.6096
33761SOL     OW 7374  10.898  10.298   4.345  0.0248 -0.0621  0.0246
33761SOL    HW1 7375  10.892  10.393   4.337 -0.6655  0.1260  2.3343
33761SOL    HW2 7376  10.826  10.265   4.291 -1.0870  0.8292  0.9316
33762SOL     OW 7377   7.629   4.988   0.933 -0.5618 -0.0572  0.0108
33762SOL    HW1 7378   7.583   4.907   0.956 -0.0716 -0.6336 -0.9257
33762SOL    HW2 7379   7.578   5.058   0.972 -0.8527 -0.8408  1.0701
33763SOL     OW 7380   4.871   9.213   2.249  0.5969  0.7611 -0.0855
33763SOL    HW1 7381   4.928   9.141   2.222  1.4146  0.3148  2.5684
33763SOL    HW2 7382   4.929   9.289   2.254  0.5289  0.7740  0.6122
33764SOL     OW 7383   3.076   7.802   8.954  0.3661  0.8699  0.1135
33764SOL    HW1 7384   3.160   7.847   8.942  0.3410  0.7439 -0.5537
33764SOL    HW2 7385   3.026   7.824   8.876 -0.0224  0.5005  0.2578
33765SOL     OW 7386   9.202   1.683   9.721 -0.5066  0.6302 -0.2521
33765SOL    HW1 7387   9.144   1.608   9.732 -0.7340  0.7399 -0.7131
33765SOL    HW2 7388   9.205   1.698   9.627 -0.2672  1.0489 -0.1796
33766SOL     OW 7389   8.237  10.610   3.563 -0.4926 -0.0169  0.2886
33766SOL    HW1 7390   8.316  10.665   3.571 -0.0345 -0.7083  0.6149
33766SOL    HW2 7391   8.165  10.672   3.568 -0.0081  0.4963  1.5537
33767SOL     OW 7392   7.373   6.945   8.970  0.3764  0.2715  0.0282
33767SOL    HW1 7393   7.398   6.938   8.878 -0.5355 -0.4815 -0.1677
33767SOL    HW2 7394   7.371   7.040   8.986  1.2623  0.3989 -0.5120
33768SOL     OW 7395   8.614   3.495   0.997  0.5060 -0.3486  0.2161
33768SOL    HW1 7396   8.656   3.475   1.080  0.9883 -1.7523 -0.3425
33768SOL    HW2 7397   8.685   3.532   0.943  0.3887 -0.2142  0.1529
33769SOL     OW 7398   5.143   1.509  10.858 -0.1324  0.3293  0.5370
33769SOL    HW1 7399   5.130   1.486  10.950 -1.4828  0.4846  0.4019
33769SOL    HW2 7400   5.061   1.483  10.815 -0.6781  2.9095 -0.1058
33770SOL     OW 7401  10.831   9.221   2.915 -0.4830 -0.2147 -0.2909
33770SOL    HW1 7402  10.752   9.236   2.966 -0.8659 -1.2957 -0.5347
33770SOL    HW2 7403  10.901   9.262   2.966 -0.8723 -1.1145  1.0350
33771SOL     OW 7404   2.107   8.686  10.873  1.0584 -0.1645  0.8781
33771SOL    HW1 7405   2.120   8.593  10.855 -3.7079 -0.7518 -0.9498
33771SOL    HW2 7406   2.081   8.689  10.965 -0.8096 -1.0228  0.4159
33772SOL     OW 7407   5.131   4.669   0.108 -0.3229  0.0816  0.2522
33772SOL    HW1 7408   5.220   4.697   0.089 -1.0177  1.1141 -1.6373
33772SOL    HW2 7409   5.113   4.706   0.195  0.5415  1.2056 -0.0210
33773SOL     OW 7410   7.398   3.916   9.883 -0.0063  0.5459 -0.0014
33773SOL    HW1 7411   7.440   3.832   9.864 -0.2525  0.3247  0.4258
33773SOL    HW2 7412   7.453   3.980   9.839  2.3486  0.5588  2.6596
33774SOL     OW 7413   4.566   2.466   4.703  0.4713  0.0506  0.0168
33774SOL    HW1 7414   4.479   2.434   4.679  0.6689  0.8589 -1.9648
33774SOL    HW2 7415   4.551   2.556   4.732  0.8338  1.2012 -2.9404
33775SOL     OW 7416   4.383   6.148   9.504 -0.1682  0.0865 -0.1830
33775SOL    HW1 7417   4.346   6.236   9.492  0.7790  0.4194 -0.8062
33775SOL    HW2 7418   4.308   6.089   9.494 -0.7267  0.7921 -0.2939
33776SOL     OW 7419   6.857   2.558   1.496  0.1571 -0.2935  0.1593
33776SOL    HW1 7420   6.951   2.543   1.493 -0.0551 -1.9721  1.0284
33776SOL    HW2 7421   6.829   2.557   1.404  0.6911 -1.9126 -0.0101
33777SOL     OW 7422   0.387   3.882   1.220  0.4039 -0.1181  0.7135
33777SOL    HW1 7423   0.468   3.874   1.271  0.0288 -2.6271  1.0695
33777SOL    HW2 7424   0.416   3.886   1.129  0.9772  1.7249  0.9339
33778SOL     OW 7425   0.797   1.905   6.640  0.3950  0.1954  0.1522
33778SOL    HW1 7426   0.883   1.932   6.672  0.5232 -1.6254  1.5007
33778SOL    HW2 7427   0.742   1.983   6.650  0.9620  0.3631  2.9364
33779SOL     OW 7428   2.992   5.469   7.359 -0.0443  0.4611 -0.0995
33779SOL    HW1 7429   3.046   5.438   7.432  0.1301 -1.4165 -0.9659
33779SOL    HW2 7430   2.933   5.397   7.341  0.9423  0.2365 -2.7918
33780SOL     OW 7431  10.141   5.050   9.743  0.3867  0.5162  0.5063
33780SOL    HW1 7432  10.170   5.056   9.834  0.7257 -0.3029  0.4617
33780SOL    HW2 7433  10.199   5.109   9.695  3.3183 -2.3521  0.1351
33781SOL     OW 7434   3.749   9.201  10.246  0.0116 -0.0748 -0.4675
33781SOL    HW1 7435   3.703   9.234  10.323 -1.2441 -0.1074 -1.1828
33781SOL    HW2 7436   3.822   9.150  10.282 -0.8908 -0.5849  0.6980
33782SOL     OW 7437   8.070   2.347   7.232 -0.5612 -0.3403 -0.2653
33782SOL    HW1 7438   8.009   2.381   7.297 -0.8793 -0.9287 -0.2434
33782SOL    HW2 7439   8.061   2.406   7.157 -1.6970 -0.8211 -0.5358
33783SOL     OW 7440   9.359   3.816   0.354  0.0901 -0.3725  0.3857
33783SOL    HW1 7441   9.377   3.797   0.262 -2.0118 -0.0788 -0.1452
33783SOL    HW2 7442   9.445   3.821   0.395  1.0276 -2.9577 -1.0472
33784SOL     OW 7443   0.078   8.236   7.552  0.0576  0.0660 -0.2919
33784SOL    HW1 7444   0.090   8.246   7.646  0.7374 -1.8576 -0.1260
33784SOL    HW2 7445   0.150   8.179   7.524 -1.7708 -1.8734 -1.4179
33785SOL     OW 7446   8.963   0.898   5.395  0.8121 -0.3521 -0.1474
33785SOL    HW1 7447   8.941   0.938   5.479  0.5243 -1.2811  0.2303
33785SOL    HW2 7448   9.051   0.861   5.408 -0.0380 -2.2877  0.4333
33786SOL     OW 7449  10.819   6.427   9.247 -0.0487  0.0699  0.2061
33786SOL    HW1 7450  10.758   6.359   9.275  0.0204  0.5505  1.6553
33786SOL    HW2 7451  10.855   6.461   9.329  2.8129 -0.7478 -0.6146
33787SOL     OW 7452   8.194  10.153   6.519 -0.1376  0.4360  0.2677
33787SOL    HW1 7453   8.235  10.199   6.447  1.5836  0.3410  1.1418
33787SOL    HW2 7454   8.170  10.068   6.482 -3.1859  1.8207 -1.3054
33788SOL     OW 7455   6.360   9.591   3.547 -0.0173 -0.2915 -0.0010
33788SOL    HW1 7456   6.371   9.669   3.601 -0.1561 -0.4449  0.2498
33788SOL    HW2 7457   6.434   9.593   3.486  0.5250 -0.4823  0.6400
33789SOL     OW 7458   9.072   8.478   5.916 -0.2167  0.0951 -0.0820
33789SOL    HW1 7459   9.040   8.478   5.826 -2.2118  0.6664  0.5839
33789SOL    HW2 7460   9.168   8.474   5.907 -0.3932 -1.0948 -2.1788
33790SOL     OW 7461  10.581   8.597   4.910 -0.6330 -0.5266  0.3999
33790SOL    HW1 7462  10.670   8.566   4.928 -0.8249 -1.9345 -0.8971
33790SOL    HW2 7463  10.564   8.662   4.978  1.7245  0.4736  0.1257
33791SOL     OW 7464   3.586   3.286   4.400  0.1042  0.3627  0.8624
33791SOL    HW1 7465   3.528   3.359   4.423  0.6454  0.6196  1.4427
33791SOL    HW2 7466   3.669   3.328   4.376 -0.2310  0.0676 -0.9911
33792SOL     OW 7467   3.291   9.907   6.002  0.0715  0.5931  0.2313
33792SOL    HW1 7468   3.365   9.913   5.942 -0.0250  2.4134  0.2623
33792SOL    HW2 7469   3.315   9.836   6.062  0.8772 -0.1844 -0.9543
33793SOL     OW 7470   8.002   9.756   2.778  0.6362  0.4150 -0.1237
33793SOL    HW1 7471   8.070   9.820   2.759 -1.6049  2.2594 -2.7667
33793SOL    HW2 7472   7.965   9.734   2.692 -0.4661 -2.4676  0.9522
33794SOL     OW 7473   3.093   8.813   9.222  1.1976 -0.0996 -0.4327
33794SOL    HW1 7474   3.032   8.786   9.291 -0.6952  2.2435 -1.0711
33794SOL    HW2 7475   3.130   8.895   9.253  0.0005  1.2179 -2.2898
33795SOL     OW 7476   7.789   3.081   7.988  0.6206  0.5685  0.1677
33795SOL    HW1 7477   7.771   3.160   7.937  0.2244 -0.6419 -1.6662
33795SOL    HW2 7478   7.713   3.071   8.045  0.7234  1.5373  0.4949
33796SOL     OW 7479   5.822   5.429   6.620  0.5802 -0.0037 -0.3333
33796SOL    HW1 7480   5.836   5.411   6.713  0.4880  0.7772 -0.1563
33796SOL    HW2 7481   5.899   5.392   6.576  0.6892 -0.2583  0.0649
33797SOL     OW 7482   5.174   6.738   0.592 -0.0055 -1.0165  0.4252
33797SOL    HW1 7483   5.238   6.805   0.566 -0.0197 -0.7559  1.0325
33797SOL    HW2 7484   5.227   6.671   0.636 -0.1855 -0.6270  1.2520
33798SOL     OW 7485   4.284   3.131   4.006  0.2760 -0.0448 -0.1110
33798SOL    HW1 7486   4.244   3.106   3.923 -0.2054 -2.8837  0.8585
33798SOL    HW2 7487   4.218   3.186   4.049 -1.4310 -2.1651  0.1644
33799SOL     OW 7488  10.006   5.613   6.831  0.1128  0.0665  0.1069
33799SOL    HW1 7489  10.026   5.698   6.792 -0.8259  0.9737  1.5012
33799SOL    HW2 7490   9.916   5.594   6.804 -0.3819  0.4875  1.4103
33800SOL     OW 7491   8.790  10.006  10.851  0.2226 -0.0702 -0.1920
33800SOL    HW1 7492   8.716   9.967  10.805  0.5293 -0.3112 -0.4910
33800SOL    HW2 7493   8.755  10.084  10.893 -0.2074 -0.2053 -0.2990
33801SOL     OW 7494   3.412   5.411  10.478 -0.1053 -0.6236 -0.0067
33801SOL    HW1 7495   3.339   5.371  10.432  0.1185 -1.8146  0.6145
33801SOL    HW2 7496   3.400   5.386  10.569  0.0407  0.7893  0.4202
33802SOL     OW 7497   9.333   0.215   6.570  0.4415 -0.0179  0.3770
33802SOL    HW1 7498   9.348   0.170   6.653 -0.2887  0.6124  0.8605
33802SOL    HW2 7499   9.392   0.290   6.572  2.2412 -1.3191 -0.7718
33803SOL     OW 7500   3.453   6.464   3.186  0.0793  0.0956 -0.0190
33803SOL    HW1 7501   3.436   6.520   3.262 -2.0734 -0.8795  0.2915
33803SOL    HW2 7502   3.516   6.514   3.133  0.5429  1.4270  1.6837
33804SOL     OW 7503   8.214   6.629   5.665 -0.1736  0.5232  0.0904
33804SOL    HW1 7504   8.225   6.543   5.706  0.1162  1.1260  1.3000
33804SOL    HW2 7505   8.258   6.619   5.580 -0.0165 -0.4806  0.2670
33805SOL     OW 7506   3.679   4.953   7.979  0.2864 -0.3729 -0.0454
33805SOL    HW1 7507   3.626   4.942   7.900 -0.0667 -0.1688  0.1613
33805SOL    HW2 7508   3.671   4.870   8.025 -0.1869 -0.2011  0.1858
33806SOL     OW 7509   2.360   7.851   5.619  0.3553 -0.2399  0.0042
33806SOL    HW1 7510   2.447   7.827   5.653  0.3427  1.6329  1.5443
33806SOL    HW2 7511   2.319   7.898   5.691 -0.4765  2.2240 -1.9515
33807SOL     OW 7512  10.361   7.670   6.440 -0.2856 -0.6406 -0.7949
33807SOL    HW1 7513  10.281   7.626   6.409 -0.1255 -0.7852 -1.0115
33807SOL    HW2 7514  10.364   7.752   6.392 -0.4949 -0.4717 -0.5178
33808SOL     OW 7515   6.606   5.017   5.111 -0.1940  0.3294  0.6190
33808SOL    HW1 7516   6.514   4.993   5.102  0.1359 -1.2167  1.1129
33808SOL    HW2 7517   6.612   5.061   5.196 -0.8294  2.4387 -0.3559
33809SOL     OW 7518   6.937   5.492  10.597  0.4954 -0.2237  0.1531
33809SOL    HW1 7519   6.911   5.401  10.615  2.4467 -0.8956 -0.1174
33809SOL    HW2 7520   7.031   5.487  10.582  0.7792  1.9828  0.8489
33810SOL     OW 7521   9.126   1.594  10.809  0.1001  0.0019 -0.1563
33810SOL    HW1 7522   9.054   1.569  10.867 -0.3182 -1.6552 -1.3013
33810SOL    HW2 7523   9.084   1.629  10.731  0.6738  3.2079  0.8170
33811SOL     OW 7524   7.072   9.931   2.002  0.5109 -0.3709  0.4708
33811SOL    HW1 7525   7.037   9.981   2.075 -1.4438 -1.4201  0.3443
33811SOL    HW2 7526   7.040   9.976   1.924  0.3423 -0.7297  0.3275
33812SOL     OW 7527   6.033   5.442   0.837  0.0283 -0.1178 -0.3297
33812SOL    HW1 7528   6.094   5.381   0.795  0.7857  1.4010 -1.5371
33812SOL    HW2 7529   5.956   5.441   0.780 -0.3667 -0.6724  0.2009
33813SOL     OW 7530  10.925   9.265  10.429  0.0062  0.2778  0.1064
33813SOL    HW1 7531  10.881   9.345  10.459 -1.3809 -0.1055 -0.8050
33813SOL    HW2 7532  10.854   9.202  10.415  1.0400 -0.9967  0.4061
33814SOL     OW 7533   3.187   9.134   2.555 -0.1733 -0.3192 -0.3661
33814SOL    HW1 7534   3.228   9.048   2.543 -0.8338 -1.0313  1.9376
33814SOL    HW2 7535   3.178   9.142   2.650  1.6214  3.1612 -0.3480
33815SOL     OW 7536   2.161   6.836   1.519  0.0972 -0.1666  0.5620
33815SOL    HW1 7537   2.198   6.913   1.562  0.7091 -0.6771  0.9659
33815SOL    HW2 7538   2.081   6.816   1.569 -0.1277  0.2722  0.3812
33816SOL     OW 7539   7.520   7.039   6.922  0.5941  0.0350 -0.1644
33816SOL    HW1 7540   7.451   7.052   6.988  0.1273 -0.7737 -0.4763
33816SOL    HW2 7541   7.580   7.112   6.936  2.0878 -1.6120  3.1043
33817SOL     OW 7542   2.753   1.100   4.425 -0.2023  0.2522  0.4046
33817SOL    HW1 7543   2.663   1.068   4.426  1.2531 -4.7337  0.6256
33817SOL    HW2 7544   2.757   1.165   4.495 -3.2447 -0.5988  1.5194
33818SOL     OW 7545   3.490   9.148   8.175  0.3531 -0.0094  0.2141
33818SOL    HW1 7546   3.420   9.082   8.167  0.9963 -0.8980  1.5655
33818SOL    HW2 7547   3.444   9.229   8.194 -0.3638 -0.4351  0.3477
33819SOL     OW 7548   0.666   0.172   3.992 -0.0880 -0.0956  0.4989
33819SOL    HW1 7549   0.588   0.124   3.964  1.1096 -2.0512  0.3256
33819SOL    HW2 7550   0.702   0.208   3.911 -0.1089 -0.2841  0.4060
33820SOL     OW 7551   4.547   3.006  10.076  0.7786 -0.1508 -0.2386
33820SOL    HW1 7552   4.562   2.993   9.983 -0.8134 -1.1545 -0.3833
33820SOL    HW2 7553   4.541   2.918  10.112  0.3490  0.2241  0.6406
33821SOL     OW 7554   7.336   2.847   1.114 -0.2710 -0.4874  0.0746
33821SOL    HW1 7555   7.303   2.874   1.028  2.3016  3.4687  0.0371
33821SOL    HW2 7556   7.276   2.888   1.177  0.6055  0.9074  0.0456
33822SOL     OW 7557   3.957   1.613   1.633  0.2037  0.4357 -0.0879
33822SOL    HW1 7558   3.956   1.690   1.575  0.5640 -1.1398 -2.3549
33822SOL    HW2 7559   3.880   1.562   1.606 -0.1542  0.0874  1.5238
33823SOL     OW 7560   4.162   2.209   4.486  0.9153 -0.2224  0.0306
33823SOL    HW1 7561   4.227   2.173   4.425  1.2103 -1.1068  0.8551
33823SOL    HW2 7562   4.079   2.178   4.452  1.1128 -1.0806  0.3159
33824SOL     OW 7563   3.246   7.814   4.711  0.4338 -0.0821 -0.0815
33824SOL    HW1 7564   3.324   7.860   4.679  1.7111 -1.9980  0.0868
33824SOL    HW2 7565   3.181   7.827   4.642  1.2048  0.8074 -0.6669
33825SOL     OW 7566  10.257   3.135   4.753 -0.1163  0.1998 -0.6110
33825SOL    HW1 7567  10.178   3.081   4.760 -0.5557  0.9245  0.3459
33825SOL    HW2 7568  10.224   3.221   4.724 -0.0248  1.1719  1.8952
33826SOL     OW 7569   9.269   5.208  10.027  0.4292 -0.2987  0.2978
33826SOL    HW1 7570   9.225   5.195  10.111 -1.1035 -0.8348 -0.5407
33826SOL    HW2 7571   9.340   5.144  10.026 -0.1045 -0.9060  0.8026
33827SOL     OW 7572   0.226   1.499   0.217  0.0348 -0.1472  0.1560
33827SOL    HW1 7573   0.213   1.594   0.212  0.0032 -0.1751 -0.3250
33827SOL    HW2 7574   0.261   1.485   0.306  1.0722  0.4414 -0.1302
33828SOL     OW 7575   1.980   2.295  10.268 -0.0968  0.2336 -0.7851
33828SOL    HW1 7576   2.053   2.234  10.261 -1.9401 -2.2682  0.4960
33828SOL    HW2 7577   1.928   2.280  10.189 -0.1244  0.8308 -0.8907
33829SOL     OW 7578  10.702   1.657   8.714 -0.1952  0.1328 -0.5655
33829SOL    HW1 7579  10.705   1.742   8.758  0.0908 -0.2361  0.1464
33829SOL    HW2 7580  10.718   1.593   8.783  0.6202 -0.4471 -1.2647
33830SOL     OW 7581   7.466   4.487   7.993 -0.4588  0.0821  0.0242
33830SOL    HW1 7582   7.504   4.415   8.042  1.0615  1.4719  0.9968
33830SOL    HW2 7583   7.495   4.566   8.039 -4.0201  1.3342  0.4663
33831SOL     OW 7584   3.740  10.036   2.221 -0.3247 -0.1293 -0.4782
33831SOL    HW1 7585   3.809  10.029   2.287  1.4215  0.0397 -2.2091
33831SOL    HW2 7586   3.696  10.118   2.240  0.3692  0.0728  0.2817
33832SOL     OW 7587   1.940   1.813  10.161 -0.1319  0.1718 -0.4084
33832SOL    HW1 7588   1.900   1.805  10.074 -0.8438  0.1977 -0.0946
33832SOL    HW2 7589   2.025   1.853  10.145 -0.9794  1.8800 -0.9428
33833SOL     OW 7590   4.284   5.324   6.950 -0.2090 -0.4328 -0.4995
33833SOL    HW1 7591   4.369   5.360   6.926  0.3557 -1.1675  0.3241
33833SOL    HW2 7592   4.221   5.389   6.921  0.7293  0.9510  0.4578
33834SOL     OW 7593   5.009   9.656  10.653 -0.3799  0.0105  0.1097
33834SOL    HW1 7594   4.952   9.635  10.726  0.7831 -2.1026  0.4895
33834SOL    HW2 7595   5.029   9.749  10.664 -1.1670  0.0147  1.7874
33835SOL     OW 7596  10.843   1.641   4.657  1.1044  0.6867  0.6360
33835SOL    HW1 7597  10.803   1.654   4.571 -0.1740  0.4380  1.1738
33835SOL    HW2 7598  10.858   1.729   4.691  2.0454  0.7959 -0.0123
33836SOL     OW 7599   6.696   6.071   9.745 -0.5064  0.1630  0.0056
33836SOL    HW1 7600   6.759   6.140   9.767 -0.9687 -0.0406  2.0861
33836SOL    HW2 7601   6.750   5.995   9.724 -0.0464  0.3843  0.3817
33837SOL     OW 7602   6.753   4.151  10.074 -0.3717  0.2884 -0.3255
33837SOL    HW1 7603   6.698   4.226  10.092 -0.9773 -0.5385  1.5298
33837SOL    HW2 7604   6.794   4.130  10.158  2.5401  0.6357 -1.5217
33838SOL     OW 7605   3.100   4.897   3.826  0.2598  0.4226 -0.3020
33838SOL    HW1 7606   3.155   4.845   3.885  0.3335  1.2123  0.3405
33838SOL    HW2 7607   3.139   4.885   3.740  0.5212 -0.2577 -0.0954
33839SOL     OW 7608   0.738   6.360   7.141  0.1561  0.2017  0.8821
33839SOL    HW1 7609   0.700   6.410   7.213  1.0673  0.1048  1.4495
33839SOL    HW2 7610   0.771   6.425   7.080  1.5694  0.3423  1.7397
33840SOL     OW 7611   0.746   1.843   7.665  0.3327  0.0147  0.1548
33840SOL    HW1 7612   0.699   1.923   7.689  1.0026 -0.4806  3.6703
33840SOL    HW2 7613   0.800   1.868   7.590 -0.7565  2.3300  0.0571
33841SOL     OW 7614   5.630   6.219   0.723  0.3970  0.0116  0.1245
33841SOL    HW1 7615   5.598   6.248   0.637  1.1077  0.4270 -0.0031
33841SOL    HW2 7616   5.679   6.139   0.704 -2.2028 -1.8386  0.5636
33842SOL     OW 7617   6.302   2.693   8.036  0.1600  0.2292  0.6536
33842SOL    HW1 7618   6.320   2.678   7.944  0.7285 -0.9447  0.9407
33842SOL    HW2 7619   6.332   2.783   8.052  0.7206  0.1902 -0.1410
33843SOL     OW 7620  10.819   3.014   9.479 -0.4256 -0.1826 -0.0530
33843SOL    HW1 7621  10.901   2.984   9.439  0.7125  2.9578 -0.4206
33843SOL    HW2 7622  10.767   3.046   9.405 -2.5534 -3.0569  0.0494
33844SOL     OW 7623   8.672   0.520   6.546 -0.3292 -0.0092  0.2184
33844SOL    HW1 7624   8.625   0.553   6.622 -3.2255 -0.6658 -1.1318
33844SOL    HW2 7625   8.613   0.536   6.472  1.6449 -0.8632 -1.6812
33845SOL     OW 7626   6.922   2.886  10.819  0.0680 -0.1466 -0.0286
33845SOL    HW1 7627   6.997   2.876  10.761  0.9012  1.3244  0.7524
33845SOL    HW2 7628   6.879   2.800  10.817 -0.2419 -0.0258 -3.1702
33846SOL     OW 7629   3.429   4.007   0.320  0.3016 -0.2421 -0.1416
33846SOL    HW1 7630   3.491   3.937   0.300  1.4362  0.8361 -0.5835
33846SOL    HW2 7631   3.484   4.086   0.324 -0.4074  0.2303  3.5027
33847SOL     OW 7632   1.930   4.406   5.096  0.3230 -0.3974  0.3709
33847SOL    HW1 7633   1.893   4.343   5.034 -1.5719 -1.3107  2.3260
33847SOL    HW2 7634   1.923   4.490   5.051 -1.7682 -0.9098 -0.3597
33848SOL     OW 7635   2.587   2.470   6.349  0.4155 -0.8789  0.1121
33848SOL    HW1 7636   2.658   2.477   6.412  1.3327 -0.5049 -0.9391
33848SOL    HW2 7637   2.629   2.449   6.266 -0.5430  0.6784 -0.8247
33849SOL     OW 7638   8.256   6.796  10.142  0.2770  0.3531 -0.0013
33849SOL    HW1 7639   8.210   6.878  10.155  2.5632  1.3498  2.9757
33849SOL    HW2 7640   8.190   6.736  10.108 -2.1467  2.6610  0.3600
33850SOL     OW 7641   3.432   8.156  10.369  0.1433  0.0593 -0.4552
33850SOL    HW1 7642   3.390   8.170  10.284 -1.0671  0.5052  0.1986
33850SOL    HW2 7643   3.453   8.243  10.401 -1.0723  0.0154  0.5103
33851SOL     OW 7644   7.410   5.503  10.070 -0.0118 -0.1898  0.0746
33851SOL    HW1 7645   7.502   5.481  10.080 -0.3508 -1.1233  1.4317
33851SOL    HW2 7646   7.396   5.576  10.130 -0.2336 -0.2812  0.1354
33852SOL     OW 7647   7.179   3.067   3.708 -0.1681 -0.4586  0.2041
33852SOL    HW1 7648   7.113   3.016   3.662 -0.6062  0.0717  0.2318
33852SOL    HW2 7649   7.263   3.031   3.677 -0.4173 -2.6170  1.8028
33853SOL     OW 7650   2.452   0.256   1.341 -0.0421  0.4658  0.8416
33853SOL    HW1 7651   2.539   0.257   1.300 -0.2482  1.3327  0.4050
33853SOL    HW2 7652   2.397   0.208   1.279  0.6407 -2.3951  2.2857
33854SOL     OW 7653   4.151   2.659   4.602  0.6690  0.2095  0.6162
33854SOL    HW1 7654   4.188   2.578   4.568 -1.1625 -0.1272 -0.7507
33854SOL    HW2 7655   4.113   2.635   4.686 -0.1161 -0.4571  0.0889
33855SOL     OW 7656  10.920   1.170   5.732  0.5512  0.2926  0.3610
33855SOL    HW1 7657  10.849   1.183   5.795 -0.1211  0.5431 -0.4380
33855SOL    HW2 7658  10.912   1.079   5.706  0.2663  0.4263 -0.0285
33856SOL     OW 7659   5.162   5.493   7.162  0.5489  0.4881  1.2537
33856SOL    HW1 7660   5.248   5.504   7.121  1.3335  0.2769  2.7578
33856SOL    HW2 7661   5.167   5.409   7.207 -1.6062 -1.1069 -1.2293
33857SOL     OW 7662  10.365   7.834   4.384  0.1310  0.1404 -0.5761
33857SOL    HW1 7663  10.399   7.875   4.463 -1.8619  1.7824 -0.4814
33857SOL    HW2 7664  10.322   7.754   4.414 -0.9867  0.9739  0.1002
33858SOL     OW 7665   1.479   7.325  10.356 -0.1379 -0.4419 -0.3072
33858SOL    HW1 7666   1.413   7.362  10.298  1.4024 -0.8184 -2.3962
33858SOL    HW2 7667   1.432   7.261  10.409 -1.5723 -0.2043 -1.2465
33859SOL     OW 7668   4.199   0.291   7.341 -0.4324  0.0496  0.3453
33859SOL    HW1 7669   4.176   0.335   7.259 -0.1026 -1.6048 -0.6866
33859SOL    HW2 7670   4.294   0.302   7.348 -0.0345 -1.9405 -0.8974
33860SOL     OW 7671   8.438   7.754   6.462 -0.2545 -0.0991 -0.1691
33860SOL    HW1 7672   8.514   7.799   6.427 -0.1645  0.2657  0.4868
33860SOL    HW2 7673   8.374   7.756   6.390  1.1263 -2.5012 -1.6277
33861SOL     OW 7674   7.632  10.119   6.700 -0.1248  0.2273  0.2527
33861SOL    HW1 7675   7.545  10.156   6.717  0.0054  1.5592 -1.6935
33861SOL    HW2 7676   7.685  10.194   6.673  0.9916 -0.9301 -0.8840
33862SOL     OW 7677   8.847   1.800   8.990 -0.1757 -0.1711 -0.2003
33862SOL    HW1 7678   8.845   1.895   8.980 -0.0012 -0.2836 -1.4894
33862SOL    HW2 7679   8.916   1.772   8.930  0.1571 -1.0735  0.5766
33863SOL     OW 7680  10.699  10.599  10.626  0.2419 -0.0177 -0.1954
33863SOL    HW1 7681  10.619  10.569  10.583  0.1459 -1.7872  1.1094
33863SOL    HW2 7682  10.675  10.608  10.718  1.0401  1.4388 -0.0869
33864SOL     OW 7683   3.720   6.631   6.483  0.7703 -0.2767  0.3646
33864SOL    HW1 7684   3.686   6.583   6.408 -0.8496  0.0335  0.8458
33864SOL    HW2 7685   3.737   6.563   6.549 -0.0150 -0.3510  0.5008
33865SOL     OW 7686   9.218   2.911   0.914  0.2847 -0.0652  0.1150
33865SOL    HW1 7687   9.224   2.964   0.835  0.4071  2.9394  2.0083
33865SOL    HW2 7688   9.272   2.956   0.978 -3.2939  0.2259  3.2452
33866SOL     OW 7689   6.242   8.181   8.012 -0.8508  0.2693  0.3916
33866SOL    HW1 7690   6.219   8.270   8.037  0.4497  0.9019 -0.5164
33866SOL    HW2 7691   6.165   8.148   7.965 -0.6384  1.6568 -1.0159
33867SOL     OW 7692   8.102   3.311   7.708 -0.1980 -0.3874 -0.6011
33867SOL    HW1 7693   8.154   3.378   7.664  0.1423  1.1178  1.9246
33867SOL    HW2 7694   8.148   3.229   7.689  2.5525  0.7529  0.5850
33868SOL     OW 7695  10.339   1.864   2.964 -0.3910  0.3433  0.3454
33868SOL    HW1 7696  10.293   1.944   2.986 -1.2621  0.0856 -0.4724
33868SOL    HW2 7697  10.420   1.868   3.014 -1.3238  0.7680  1.9055
33869SOL     OW 7698   2.580   3.675   0.297 -0.3403  0.4100  0.0848
33869SOL    HW1 7699   2.515   3.642   0.235  0.2100 -2.2475  0.8041
33869SOL    HW2 7700   2.642   3.723   0.243 -1.5791  0.9508 -0.9339
33870SOL     OW 7701   0.197   2.949   4.918  0.2393 -0.1537  0.0764
33870SOL    HW1 7702   0.198   3.029   4.866  0.0118 -0.2226 -0.0370
33870SOL    HW2 7703   0.149   2.972   4.998  1.3489  0.1928  0.6557
33871SOL     OW 7704   3.897   4.663   2.262  0.6176  0.1563 -0.4245
33871SOL    HW1 7705   3.922   4.711   2.341 -1.4653 -0.6285  0.7729
33871SOL    HW2 7706   3.980   4.643   2.219  2.0034 -1.0843  2.5548
33872SOL     OW 7707   0.572   1.528   7.748 -0.5907  0.4549  0.8964
33872SOL    HW1 7708   0.497   1.469   7.746 -0.0150 -0.3304 -1.7632
33872SOL    HW2 7709   0.647   1.470   7.758 -0.2241  1.1119  2.1126
33873SOL     OW 7710   2.527   8.548  10.181 -0.1926  0.1722 -0.1811
33873SOL    HW1 7711   2.515   8.495  10.102 -0.8120  0.5907 -0.3837
33873SOL    HW2 7712   2.535   8.638  10.148  0.5217  0.2478  0.1767
33874SOL     OW 7713   2.572   7.559   5.903  0.2561  0.1376 -0.0671
33874SOL    HW1 7714   2.581   7.481   5.847 -1.7179  1.3771 -2.3417
33874SOL    HW2 7715   2.483   7.552   5.938  1.2364 -0.2632  2.5431
33875SOL     OW 7716   5.799   3.947   4.056 -0.2438  0.1619  0.1630
33875SOL    HW1 7717   5.704   3.955   4.049 -0.1203  0.2543 -1.6564
33875SOL    HW2 7718   5.811   3.865   4.106 -1.2706 -0.3539 -0.3897
33876SOL     OW 7719   8.592   1.684   6.050 -0.1173  0.6437  0.4488
33876SOL    HW1 7720   8.621   1.767   6.013  1.2984 -0.1341 -0.2789
33876SOL    HW2 7721   8.654   1.665   6.120  1.2368 -1.0305 -1.1053
33877SOL     OW 7722   7.456   6.925   8.247  0.0121 -0.3472  0.0843
33877SOL    HW1 7723   7.466   6.845   8.195  1.9530 -0.0437 -0.0801
33877SOL    HW2 7724   7.515   6.988   8.205  1.3707  0.0278  2.4015
33878SOL     OW 7725   2.593   4.925  10.461 -0.1375 -0.0369  0.5090
33878SOL    HW1 7726   2.545   4.844  10.474 -0.8748 -0.1368 -2.1830
33878SOL    HW2 7727   2.673   4.899  10.414  0.7093  0.5695  1.5607
33879SOL     OW 7728   5.056   3.495   8.309 -0.1922 -0.0927  0.1289
33879SOL    HW1 7729   4.980   3.551   8.324 -1.9790 -1.9878 -1.1922
33879SOL    HW2 7730   5.094   3.527   8.228 -1.0952 -0.6090 -0.5205
33880SOL     OW 7731   7.398   1.178   4.400 -0.1215  0.3088 -0.3124
33880SOL    HW1 7732   7.362   1.228   4.473 -1.0904  0.6923 -1.0401
33880SOL    HW2 7733   7.377   1.087   4.421  1.4342  0.1804  0.8954
33881SOL     OW 7734   7.724   2.364   5.642 -0.4151 -0.2206  0.0662
33881SOL    HW1 7735   7.726   2.459   5.653  1.6903 -0.2605  0.5007
33881SOL    HW2 7736   7.749   2.330   5.728 -0.9635 -1.1713 -0.1376
33882SOL     OW 7737   9.171   8.461   0.892  0.7226  0.0944  0.1353
33882SOL    HW1 7738   9.106   8.445   0.960  1.5316  0.7235  1.0931
33882SOL    HW2 7739   9.135   8.534   0.841  0.1899 -0.2746 -0.0271
33883SOL     OW 7740   6.098  10.618   5.058  0.0053 -0.4118 -0.3969
33883SOL    HW1 7741   6.165  10.659   5.112 -1.4812  0.9852  0.4833
33883SOL    HW2 7742   6.055  10.556   5.118 -1.1823  0.6290 -0.1194
33884SOL     OW 7743   7.211   8.267   4.800 -0.2387  0.4299  0.4401
33884SOL    HW1 7744   7.171   8.212   4.868 -1.9286  1.5942  0.4405
33884SOL    HW2 7745   7.253   8.338   4.847 -1.3834  1.2206  0.2997
33885SOL     OW 7746   1.924   8.780   7.664  0.3503 -0.0864 -0.2212
33885SOL    HW1 7747   1.874   8.767   7.584  0.0119 -0.8414  0.0906
33885SOL    HW2 7748   1.858   8.806   7.729  0.6583  0.7546 -0.2469
33886SOL     OW 7749   5.635   7.799   0.619 -0.0823 -0.0706 -0.1108
33886SOL    HW1 7750   5.590   7.857   0.557  0.0205  1.6001  1.3195
33886SOL    HW2 7751   5.565   7.766   0.675  0.2771  1.7221  1.4691
33887SOL     OW 7752   0.947   3.485   6.661 -0.0014  0.5449  0.0327
33887SOL    HW1 7753   1.018   3.525   6.610 -0.8422  1.8332 -0.1863
33887SOL    HW2 7754   0.928   3.550   6.729 -0.2885 -0.2481  0.7261
33888SOL     OW 7755   5.234   4.481   7.583 -0.5680 -0.2603  0.4089
33888SOL    HW1 7756   5.172   4.461   7.652 -0.3209 -2.2369  0.1039
33888SOL    HW2 7757   5.231   4.405   7.524 -0.7130  1.2953 -1.7225
33889SOL     OW 7758   3.020   3.981  10.597 -0.5232  0.3319  0.3629
33889SOL    HW1 7759   3.025   4.055  10.537  0.9642  1.7320  2.0850
33889SOL    HW2 7760   2.962   3.918  10.553  0.5935  1.1815 -2.5538
33890SOL     OW 7761   7.591   8.475   9.220 -0.2073 -0.5435  0.4169
33890SOL    HW1 7762   7.590   8.380   9.210 -2.3838 -0.5849  0.4143
33890SOL    HW2 7763   7.590   8.509   9.130 -1.1089 -0.5835  0.3969
33891SOL     OW 7764   7.072   6.044   3.966  0.1656 -0.0921 -0.0197
33891SOL    HW1 7765   7.005   6.111   3.975 -0.9353 -1.0475 -0.8470
33891SOL    HW2 7766   7.090   6.039   3.872  0.1075 -1.0607  0.0080
33892SOL     OW 7767   2.694   0.285   8.769  0.3199  0.1150  0.0099
33892SOL    HW1 7768   2.713   0.314   8.680  0.6202 -1.0285 -0.3176
33892SOL    HW2 7769   2.636   0.353   8.805 -2.9393 -1.1514 -2.3323
33893SOL     OW 7770   0.657   1.892   6.412  0.0381  0.6852  0.4686
33893SOL    HW1 7771   0.734   1.932   6.371  0.5292 -0.1296  0.5861
33893SOL    HW2 7772   0.684   1.876   6.502 -0.4905  0.9692  0.6816
33894SOL     OW 7773   3.777   0.312   4.163  0.2141  0.6583  0.6699
33894SOL    HW1 7774   3.784   0.312   4.068  0.0654  0.5520  0.6596
33894SOL    HW2 7775   3.848   0.370   4.192  0.9266 -0.1364  0.5459
33895SOL     OW 7776   9.176   7.565   6.862  0.0211 -0.7830 -0.6418
33895SOL    HW1 7777   9.139   7.575   6.775 -2.3247  0.9569  0.4385
33895SOL    HW2 7778   9.173   7.471   6.879 -0.5099 -1.0360 -2.0053
33896SOL     OW 7779   6.490   5.422   2.671  1.0122  0.1176  0.2982
33896SOL    HW1 7780   6.413   5.448   2.721 -0.4694 -0.6439 -1.4846
33896SOL    HW2 7781   6.549   5.497   2.677 -1.2048  2.0755 -0.9490
33897SOL     OW 7782   7.657   7.974   8.999 -0.4941 -0.6055  0.1423
33897SOL    HW1 7783   7.632   7.958   8.908 -0.3539 -2.0423  0.3394
33897SOL    HW2 7784   7.752   7.960   9.000 -0.0814  1.7781  0.0398
33898SOL     OW 7785   7.754   2.648   9.260  0.3322 -0.2030  0.2909
33898SOL    HW1 7786   7.768   2.554   9.274  1.9782 -0.2396 -1.2501
33898SOL    HW2 7787   7.758   2.660   9.165  1.5011  1.5920  0.5087
33899SOL     OW 7788   5.814   3.186   6.985  0.2419  0.1454 -0.0918
33899SOL    HW1 7789   5.860   3.257   7.030 -1.2849  0.9856  0.2059
33899SOL    HW2 7790   5.747   3.230   6.933 -1.2542 -1.1125  0.7064
33900SOL     OW 7791   4.703   0.386   5.191 -0.1491 -0.4153  0.2315
33900SOL    HW1 7792   4.643   0.350   5.256 -0.5599 -0.2650 -0.0594
33900SOL    HW2 7793   4.755   0.450   5.238  0.4488 -1.2295  0.7123
33901SOL     OW 7794   2.973   0.310   3.710 -0.3069  0.0101  0.5108
33901SOL    HW1 7795   2.988   0.376   3.778 -1.5532  1.3720 -0.4769
33901SOL    HW2 7796   3.061   0.278   3.688  0.2472  0.7115  1.6206
33902SOL     OW 7797   2.604   8.143   6.092  0.6188  0.6408 -0.2821
33902SOL    HW1 7798   2.670   8.074   6.085  0.6047  0.7863 -2.9469
33902SOL    HW2 7799   2.646   8.220   6.054 -0.5171  1.1625 -0.5189
33903SOL     OW 7800   9.970   2.770   1.226 -0.7778 -0.2270  0.0303
33903SOL    HW1 7801   9.985   2.826   1.150 -3.5912 -0.0107 -0.4542
33903SOL    HW2 7802   9.936   2.688   1.190 -1.3845 -0.4162  0.9910
33904SOL     OW 7803   3.583   5.239   2.944 -0.1973 -0.7485  0.3863
33904SOL    HW1 7804   3.521   5.175   2.910 -1.6307  0.5649  0.4153
33904SOL    HW2 7805   3.551   5.258   3.033  0.0626  0.1614  0.2940
33905SOL     OW 7806   2.450   6.426   1.929 -0.6721 -0.0227 -0.0708
33905SOL    HW1 7807   2.364   6.466   1.916 -0.8711 -0.0548  1.0335
33905SOL    HW2 7808   2.450   6.350   1.871 -1.0328  0.4878 -0.7523
33906SOL     OW 7809   5.607   9.762   8.978 -0.0526  0.8835 -0.0050
33906SOL    HW1 7810   5.552   9.785   8.903  0.3839  2.6783  0.1820
33906SOL    HW2 7811   5.696   9.761   8.944 -0.0891 -1.7681 -0.2478
33907SOL     OW 7812   2.502   3.890   8.591 -0.4042  0.5828  0.0741
33907SOL    HW1 7813   2.542   3.833   8.657  0.4855  1.7515  0.5689
33907SOL    HW2 7814   2.526   3.850   8.507  1.3738  0.9587  0.3765
33908SOL     OW 7815  10.423   8.631   8.896  0.3091  0.0594  0.1963
33908SOL    HW1 7816  10.384   8.636   8.809 -0.5644 -2.4173  0.3831
33908SOL    HW2 7817  10.459   8.542   8.901 -1.9270 -0.8245  3.2371
33909SOL     OW 7818   3.045   4.440   7.040 -0.4412 -0.6571 -0.0942
33909SOL    HW1 7819   2.974   4.377   7.024 -1.2360 -0.1295  1.1815
33909SOL    HW2 7820   2.999   4.523   7.055  0.4163 -0.3850  1.1279
33910SOL     OW 7821   7.221   1.544   6.100  0.4719  0.0507  0.1605
33910SOL    HW1 7822   7.281   1.616   6.082 -0.2637  0.7073  0.2752
33910SOL    HW2 7823   7.176   1.529   6.016 -0.3724  0.6751  0.4896
33911SOL     OW 7824   5.755   5.794   6.416  0.0035 -0.4323  0.1406
33911SOL    HW1 7825   5.769   5.800   6.321 -0.7968  1.1976  0.1084
33911SOL    HW2 7826   5.820   5.853   6.454 -0.8618  0.3049  0.4933
33912SOL     OW 7827   0.939   3.844   1.717 -0.2150 -0.0751  0.9506
33912SOL    HW1 7828   0.998   3.794   1.773  2.2734 -0.3973 -1.7591
33912SOL    HW2 7829   0.915   3.783   1.647 -0.8627  1.1593  0.0709
33913SOL     OW 7830   8.581   7.729   2.490  0.1505  0.1781 -0.2040
33913SOL    HW1 7831   8.600   7.765   2.404 -0.3625  1.7512  0.2964
33913SOL    HW2 7832   8.619   7.792   2.552  1.2037 -1.3179  0.7421
33914SOL     OW 7833   1.916   4.503   7.009 -0.0675  0.3287 -0.3126
33914SOL    HW1 7834   2.011   4.506   6.995  0.1983  0.6870  1.3280
33914SOL    HW2 7835   1.905   4.439   7.080 -1.0832  0.1213 -0.6501
33915SOL     OW 7836   1.217   3.167   5.760  0.2138 -0.5058 -0.9769
33915SOL    HW1 7837   1.178   3.228   5.698 -0.6594 -0.1770 -0.1257
33915SOL    HW2 7838   1.311   3.174   5.744  0.1947  1.5460 -0.4664
33916SOL     OW 7839  10.843   3.859   6.735  0.1377 -0.2627  0.0694
33916SOL    HW1 7840  10.814   3.790   6.676 -0.4514  1.1491 -1.3725
33916SOL    HW2 7841  10.873   3.929   6.677  1.3442  0.4440  1.4851
33917SOL     OW 7842   9.332  10.522   6.200 -0.2453 -0.3566  0.7857
33917SOL    HW1 7843   9.427  10.529   6.212 -0.0477  1.8834 -1.3065
33917SOL    HW2 7844   9.296  10.596   6.249 -0.4156  1.4851 -1.8618
33918SOL     OW 7845   2.306   1.920   5.525  0.4800  0.3451  0.2184
33918SOL    HW1 7846   2.217   1.905   5.493  0.2978  1.5399  0.1178
33918SOL    HW2 7847   2.294   1.971   5.605  1.0346 -0.4586  0.8247
33919SOL     OW 7848  10.676   5.218   5.917 -0.4222 -0.0652  0.5816
33919SOL    HW1 7849  10.766   5.235   5.892 -0.2931 -0.4218  0.7993
33919SOL    HW2 7850  10.676   5.223   6.013 -0.2586 -1.8150  0.6964
33920SOL     OW 7851   2.081   6.787   3.033  0.6313  0.3308 -1.0017
33920SOL    HW1 7852   2.128   6.870   3.035  1.7297 -0.2786  0.2868
33920SOL    HW2 7853   2.121   6.737   2.962  1.8895 -0.1253 -0.0101
33921SOL     OW 7854   4.834   0.124   9.270 -0.1272 -0.4685  0.5560
33921SOL    HW1 7855   4.879   0.116   9.354  2.6581  0.6618 -0.7026
33921SOL    HW2 7856   4.862   0.209   9.236 -0.6648 -1.1540 -1.7735
33922SOL     OW 7857   3.352   1.448   6.479 -0.5134  0.2559  0.2876
33922SOL    HW1 7858   3.428   1.448   6.538 -1.1952 -0.9639  1.2172
33922SOL    HW2 7859   3.297   1.377   6.512 -0.4536 -1.2036 -2.4283
33923SOL     OW 7860   5.789   9.109   5.445  0.3759 -0.6501  0.0496
33923SOL    HW1 7861   5.837   9.135   5.366  1.3960 -1.5499  0.3454
33923SOL    HW2 7862   5.805   9.179   5.508 -0.5699  0.1498 -0.5708
33924SOL     OW 7863   6.480   6.071   2.842 -0.0369  0.6145  0.2003
33924SOL    HW1 7864   6.417   6.042   2.908  0.4296 -0.4272  0.2095
33924SOL    HW2 7865   6.431   6.068   2.760 -0.6311  1.9555  0.4815
33925SOL     OW 7866   5.402   9.602   1.940  0.2850 -0.3600 -0.8780
33925SOL    HW1 7867   5.327   9.626   1.995  0.9653 -1.0582  0.4179
33925SOL    HW2 7868   5.386   9.510   1.918  0.7528 -0.5159 -0.5819
33926SOL     OW 7869   6.093   0.956   8.118 -0.4420  0.0769 -0.0823
33926SOL    HW1 7870   6.155   1.029   8.112  1.7746 -1.6516  0.3823
33926SOL    HW2 7871   6.047   0.971   8.200  1.1932  0.0972  0.8716
33927SOL     OW 7872   6.992   2.829   1.283  0.2770  0.3425 -0.5830
33927SOL    HW1 7873   6.957   2.867   1.363  1.9752 -0.2086  0.4865
33927SOL    HW2 7874   7.056   2.765   1.313  1.0684  0.2134 -2.3910
33928SOL     OW 7875   7.007   8.713   3.732  0.0829 -0.1864  0.4680
33928SOL    HW1 7876   7.043   8.671   3.810  2.4331  0.9601  0.0884
33928SOL    HW2 7877   6.952   8.784   3.765  0.7620  0.0561  1.0926
33929SOL     OW 7878   6.876   6.307   3.163  0.0256  0.6472  0.0433
33929SOL    HW1 7879   6.798   6.342   3.119 -0.2666  0.9974  0.8031
33929SOL    HW2 7880   6.944   6.309   3.097 -0.6453  0.2235 -0.6701
33930SOL     OW 7881   8.051  10.852   3.576 -0.4014  0.1587 -0.8314
33930SOL    HW1 7882   7.987  10.829   3.509 -1.5356 -0.1148  0.3208
33930SOL    HW2 7883   8.005  10.913   3.634  0.0639 -0.7321  0.5275
33931SOL     OW 7884   0.213   5.926   0.652  0.4384 -0.5862  0.3287
33931SOL    HW1 7885   0.297   5.957   0.618  0.6871 -2.0512 -0.4799
33931SOL    HW2 7886   0.233   5.888   0.737  0.2373  0.8363  1.0364
33932SOL     OW 7887   0.367  10.833   1.981 -0.6231  0.4798 -0.1580
33932SOL    HW1 7888   0.344  10.900   2.046  0.9323 -1.8470  3.0749
33932SOL    HW2 7889   0.284  10.813   1.937 -1.5552  2.8519  0.3895
33933SOL     OW 7890   1.192  10.834   8.780 -0.1362  0.4905 -0.0041
33933SOL    HW1 7891   1.150  10.908   8.824  1.8447  1.1082  0.9444
33933SOL    HW2 7892   1.186  10.854   8.687 -2.9785 -0.0590 -0.0504
33934SOL     OW 7893   2.435   9.083   4.140  0.1661 -0.0162  0.0682
33934SOL    HW1 7894   2.523   9.053   4.162  0.2818 -0.1659 -0.5789
33934SOL    HW2 7895   2.393   9.008   4.097 -0.4209 -0.0800  0.7229
33935SOL     OW 7896   5.598   8.312   7.307 -0.0583  0.2606  0.4634
33935SOL    HW1 7897   5.633   8.230   7.342  1.5509 -0.1387 -1.9185
33935SOL    HW2 7898   5.503   8.296   7.300  0.1980 -1.3199  0.2314
33936SOL     OW 7899   1.506   2.213   9.711  0.0953 -0.4242  0.2734
33936SOL    HW1 7900   1.496   2.154   9.637 -1.0644 -0.5973  0.5566
33936SOL    HW2 7901   1.476   2.298   9.678 -0.8669 -0.6003  0.6625
33937SOL     OW 7902   6.132   8.574   5.824 -0.0441 -0.6525  0.2234
33937SOL    HW1 7903   6.129   8.643   5.758 -2.5116  0.6790  1.6053
33937SOL    HW2 7904   6.129   8.620   5.908  0.6213 -2.3729  1.2467
33938SOL     OW 7905   1.217   8.693   8.296 -0.4207 -0.7388 -0.3173
33938SOL    HW1 7906   1.284   8.732   8.353 -0.2283 -1.2128 -0.2156
33938SOL    HW2 7907   1.176   8.768   8.253 -0.4573 -0.3836  0.3200
33939SOL     OW 7908   4.369  10.881   5.427  0.7113 -0.9301 -0.6450
33939SOL    HW1 7909   4.464  10.871   5.430  0.6505 -1.5669 -0.6277
33939SOL    HW2 7910   4.338  10.799   5.389  0.1034 -1.1434  0.2674
33940SOL     OW 7911   0.469   8.043   9.774 -0.6427  0.0075 -0.5603
33940SOL    HW1 7912   0.459   8.021   9.866  1.4742 -1.9143 -0.7118
33940SOL    HW2 7913   0.528   8.119   9.773  0.1189 -0.5791 -0.3630
33941SOL     OW 7914   7.960   8.386   6.426  0.6609 -0.2564  0.1238
33941SOL    HW1 7915   7.896   8.317   6.412 -0.9161  1.2901 -0.6813
33941SOL    HW2 7916   7.972   8.389   6.521 -1.2596  0.0860  0.3857
33942SOL     OW 7917   8.734   3.030   1.216  0.0232  0.1419  0.2237
33942SOL    HW1 7918   8.712   3.080   1.137  1.7869  1.3073  0.4087
33942SOL    HW2 7919   8.787   3.090   1.268  1.1141 -1.4913  1.0781
33943SOL     OW 7920   3.985   6.306   8.324 -0.1302 -0.3709 -0.1755
33943SOL    HW1 7921   3.913   6.255   8.288 -1.1370  0.9402 -0.0516
33943SOL    HW2 7922   3.993   6.274   8.415 -0.4956 -0.5712 -0.2124
33944SOL     OW 7923   4.169   8.337   8.756 -0.0124  0.9210 -0.4921
33944SOL    HW1 7924   4.122   8.305   8.679 -0.3552  1.1701 -0.3864
33944SOL    HW2 7925   4.178   8.260   8.812  2.5207  0.0746 -1.8803
33945SOL     OW 7926   7.290   0.468   3.354  0.4554 -0.1797 -0.0650
33945SOL    HW1 7927   7.324   0.492   3.268 -1.3116  2.9792 -0.0147
33945SOL    HW2 7928   7.218   0.407   3.336  0.7598 -0.3500 -0.7192
33946SOL     OW 7929   7.663   8.548   1.570  0.0917 -0.1043  0.2606
33946SOL    HW1 7930   7.607   8.491   1.622 -1.4795  1.3123  0.2063
33946SOL    HW2 7931   7.701   8.609   1.633  0.4622 -0.1758  0.1100
33947SOL     OW 7932   3.654   3.697   9.555  0.6256  0.5635  0.0448
33947SOL    HW1 7933   3.673   3.756   9.629  0.9663 -0.8161  1.0942
33947SOL    HW2 7934   3.718   3.723   9.488  2.6837 -0.4005  1.5247
33948SOL     OW 7935   1.196   7.601   9.571  0.3847  0.5873  0.0303
33948SOL    HW1 7936   1.124   7.663   9.579 -0.0767  0.0359  0.2333
33948SOL    HW2 7937   1.212   7.571   9.661 -2.3474 -2.8571 -0.4030
33949SOL     OW 7938   5.326   4.439   0.336  0.1125  0.0440  0.2455
33949SOL    HW1 7939   5.330   4.344   0.349  0.4167  0.2474  1.8355
33949SOL    HW2 7940   5.243   4.464   0.377  0.0697  0.4786 -0.1076
33950SOL     OW 7941   5.236   7.993   6.731 -0.9657  0.3648  0.5227
33950SOL    HW1 7942   5.302   8.060   6.715 -0.6740  0.3773  1.6585
33950SOL    HW2 7943   5.162   8.040   6.770 -1.0774  0.1465  0.5758
33951SOL     OW 7944   8.674   2.171   6.710  0.1688  0.4226 -1.1132
33951SOL    HW1 7945   8.706   2.089   6.672 -0.5769 -0.7732  0.7413
33951SOL    HW2 7946   8.591   2.187   6.665 -0.4589 -0.7022 -0.3928
33952SOL     OW 7947   7.389   8.918   3.638  0.3493 -0.1360 -0.1880
33952SOL    HW1 7948   7.474   8.952   3.662  0.3077 -0.4206  0.3891
33952SOL    HW2 7949   7.331   8.994   3.639  0.0954 -0.2888  1.8296
33953SOL     OW 7950   1.745   1.864   0.545  0.6909  0.5544  0.3051
33953SOL    HW1 7951   1.686   1.792   0.567  0.2271  0.7580 -0.2422
33953SOL    HW2 7952   1.697   1.915   0.480 -0.3963  3.1526  2.9064
33954SOL     OW 7953   0.833   2.406  10.563 -0.1273 -0.8148  0.0490
33954SOL    HW1 7954   0.812   2.441  10.649 -0.5166 -1.8740  0.4004
33954SOL    HW2 7955   0.904   2.461  10.531  0.7827 -1.1052  1.5107
33955SOL     OW 7956   7.838   1.935   8.764 -0.2391  0.9704 -0.2801
33955SOL    HW1 7957   7.842   1.986   8.684  0.5194 -0.2780 -1.0656
33955SOL    HW2 7958   7.844   1.844   8.735  1.4293  0.5344  1.2792
33956SOL     OW 7959   4.151   5.175   3.394  0.3234 -0.2257  0.1480
33956SOL    HW1 7960   4.221   5.156   3.455 -0.8535 -1.5831  1.1309
33956SOL    HW2 7961   4.124   5.090   3.360 -1.8577  0.0747  0.9745
33957SOL     OW 7962   8.795   2.285   0.320  0.0270 -0.5779 -0.9328
33957SOL    HW1 7963   8.836   2.294   0.406 -1.0797 -0.0354 -0.4314
33957SOL    HW2 7964   8.701   2.289   0.339 -0.3066 -2.2933 -1.9567
33958SOL     OW 7965   5.914   4.092   5.361 -0.4551 -0.8576  0.2952
33958SOL    HW1 7966   5.825   4.126   5.365  0.2120  1.0542  0.1994
33958SOL    HW2 7967   5.964   4.148   5.421  0.8947 -1.1120 -0.5459
33959SOL     OW 7968   6.701   3.474   7.830 -0.2333  0.7871  0.1178
33959SOL    HW1 7969   6.772   3.421   7.795 -0.6473 -0.1158  0.6281
33959SOL    HW2 7970   6.647   3.496   7.754 -0.6720 -0.4595  0.0597
33960SOL     OW 7971   9.388   2.779   7.932  0.3283 -0.5946 -0.0476
33960SOL    HW1 7972   9.435   2.700   7.905 -0.6814 -1.0759 -0.4545
33960SOL    HW2 7973   9.394   2.837   7.856  0.3220 -0.6365 -0.0807
33961SOL     OW 7974   4.148   9.437  10.569 -0.1972  0.3995 -0.1395
33961SOL    HW1 7975   4.064   9.424  10.525 -0.4825 -2.0824  0.9483
33961SOL    HW2 7976   4.126   9.480  10.651 -0.8723 -2.5761  1.3594
33962SOL     OW 7977   8.478   2.601   3.911 -0.0289  0.1519  0.1088
33962SOL    HW1 7978   8.539   2.634   3.977  0.5843 -0.7955  0.0229
33962SOL    HW2 7979   8.521   2.618   3.827  0.2364 -0.7555  0.0588
33963SOL     OW 7980   6.382   1.370   3.318  0.0193 -0.3259 -0.3284
33963SOL    HW1 7981   6.287   1.373   3.320 -0.0162 -1.5150  0.4774
33963SOL    HW2 7982   6.408   1.338   3.404  1.1550 -0.1326 -0.5696
33964SOL     OW 7983   3.087   4.379   9.481 -0.9489  0.0195 -0.6615
33964SOL    HW1 7984   3.045   4.462   9.501  0.0906  0.6025 -0.8183
33964SOL    HW2 7985   3.134   4.395   9.399  0.6133 -0.2038  0.1492
33965SOL     OW 7986   6.918   8.034   6.669  0.0770 -0.4804  0.4885
33965SOL    HW1 7987   6.873   8.039   6.584  0.7223 -0.1692  0.1614
33965SOL    HW2 7988   7.001   7.990   6.649 -0.6310 -2.3121  1.3193
33966SOL     OW 7989   2.227   5.122   9.482  0.1740 -0.4135 -0.6183
33966SOL    HW1 7990   2.265   5.069   9.412  0.6245 -0.7432 -0.1325
33966SOL    HW2 7991   2.202   5.058   9.549  2.0710  0.0590  0.6198
33967SOL     OW 7992   2.223   5.941   7.817  0.1003 -0.4792 -0.0233
33967SOL    HW1 7993   2.187   5.924   7.730  2.2331  1.2980 -1.3429
33967SOL    HW2 7994   2.274   6.021   7.807  0.2366 -0.0814  2.9536
33968SOL     OW 7995   8.665   1.169   9.623  0.2919 -0.4209 -0.1565
33968SOL    HW1 7996   8.571   1.173   9.640  0.6178  0.1849  1.6559
33968SOL    HW2 7997   8.671   1.126   9.538 -1.7364  2.1936 -1.7831
33969SOL     OW 7998   4.021   4.923   6.790  0.3356  0.2796  0.0175
33969SOL    HW1 7999   3.982   4.868   6.858  1.7372 -2.3169 -1.1230
33969SOL    HW2 8000   3.963   4.912   6.715  1.6479 -1.3519 -0.8245
33970SOL     OW 8001   5.358   3.439   4.050 -0.4394 -0.1514 -0.0177
33970SOL    HW1 8002   5.409   3.403   4.122 -2.6683  1.0923  2.3161
33970SOL    HW2 8003   5.312   3.514   4.088 -2.7768 -0.2506 -2.3811
33971SOL     OW 8004  10.707  10.815   6.273  0.6038  0.0255 -0.3611
33971SOL    HW1 8005  10.660  10.889   6.313  0.3313  0.9311 -2.2664
33971SOL    HW2 8006  10.654  10.739   6.295  1.1316  0.2629  2.0480
33972SOL     OW 8007   6.977   8.182   8.328 -0.5171 -0.3693  0.4207
33972SOL    HW1 8008   6.979   8.089   8.305 -0.2289  0.1120 -1.7211
33972SOL    HW2 8009   6.907   8.218   8.273  0.8865  1.0629 -0.5228
33973SOL     OW 8010   8.391   1.978   5.103 -0.2682  0.0384  0.0804
33973SOL    HW1 8011   8.357   1.934   5.025  0.7191 -0.1592 -0.2553
33973SOL    HW2 8012   8.445   2.050   5.068  0.1043  0.0042  0.5834
33974SOL     OW 8013   9.953   2.466   6.633  0.1140  0.7323 -0.4883
33974SOL    HW1 8014   9.928   2.539   6.576 -2.4864 -1.0781 -1.8962
33974SOL    HW2 8015   9.877   2.453   6.690  0.9294 -0.2310  0.4098
33975SOL     OW 8016   0.021   9.131   4.855 -0.1037 -0.1729 -0.2024
33975SOL    HW1 8017  -0.019   9.133   4.768  0.3913 -1.0720 -0.4565
33975SOL    HW2 8018   0.097   9.074   4.845 -0.5010 -0.9459  1.0228
33976SOL     OW 8019   5.292   7.880   5.678  0.1289 -0.6548 -0.1297
33976SOL    HW1 8020   5.259   7.891   5.589  2.0417  0.8988 -0.7352
33976SOL    HW2 8021   5.296   7.969   5.714  1.0940 -1.0513  0.8244
33977SOL     OW 8022   2.912   8.955   2.742  0.3731  0.4235 -0.2824
33977SOL    HW1 8023   2.987   9.010   2.767 -0.0441  0.1510  1.7791
33977SOL    HW2 8024   2.909   8.887   2.809 -1.9612  0.6834 -0.0364
33978SOL     OW 8025   6.409   5.402   7.520 -0.0800  0.0880 -0.3077
33978SOL    HW1 8026   6.480   5.340   7.533 -0.5939 -0.3656  0.4406
33978SOL    HW2 8027   6.380   5.388   7.429 -1.4298 -2.1483  0.3807
33979SOL     OW 8028   0.387   9.185   7.322 -0.1983 -0.1315  0.3213
33979SOL    HW1 8029   0.362   9.094   7.338 -1.3524  0.4890  2.4015
33979SOL    HW2 8030   0.438   9.210   7.399  1.7734  0.4715 -1.0963
33980SOL     OW 8031  10.617   7.533   8.862 -0.3451  0.0324  0.1431
33980SOL    HW1 8032  10.546   7.469   8.858 -0.2873 -0.0702  0.6842
33980SOL    HW2 8033  10.615   7.566   8.952 -1.1475  1.6669 -0.4240
33981SOL     OW 8034   3.698   1.209   2.200 -0.0809 -0.1391 -0.2266
33981SOL    HW1 8035   3.685   1.172   2.287  0.8088 -1.4287 -0.6155
33981SOL    HW2 8036   3.635   1.280   2.195  0.0910  0.2075  1.6056
33982SOL     OW 8037   4.200  10.383   0.597 -0.7699  0.2551 -0.0178
33982SOL    HW1 8038   4.244  10.384   0.682 -1.4388  0.2367  0.3343
33982SOL    HW2 8039   4.117  10.338   0.613 -0.6588 -0.2582 -0.8057
33983SOL     OW 8040   2.781   6.051   3.850  0.3389  0.2312  0.0347
33983SOL    HW1 8041   2.752   6.001   3.926  3.7939 -2.4672 -0.1800
33983SOL    HW2 8042   2.717   6.031   3.781 -0.3910 -0.8381  1.0013
33984SOL     OW 8043  10.492   5.000   9.276  0.0622  0.0368 -0.0002
33984SOL    HW1 8044  10.563   5.061   9.299  0.7476 -0.7633  0.0398
33984SOL    HW2 8045  10.535   4.931   9.226 -0.8877  0.0966 -0.9190
33985SOL     OW 8046   2.908   6.789   8.542  0.1726 -0.3103  0.1633
33985SOL    HW1 8047   2.823   6.813   8.506 -0.1760 -0.4878  0.8453
33985SOL    HW2 8048   2.892   6.708   8.590  0.3768  0.4559  1.6002
33986SOL     OW 8049   5.240   2.100   9.327  0.3816 -0.5889 -0.1736
33986SOL    HW1 8050   5.240   2.147   9.410  1.0454  1.7713 -1.4265
33986SOL    HW2 8051   5.153   2.117   9.290 -0.4503 -2.8184  0.5961
33987SOL     OW 8052  10.330   4.608  10.313  0.1720 -0.2184 -0.1702
33987SOL    HW1 8053  10.331   4.670  10.386 -1.3716  0.6129 -0.8171
33987SOL    HW2 8054  10.297   4.526  10.352  1.3363 -0.3995  0.4847
33988SOL     OW 8055   5.803   1.589   5.448 -0.4455 -0.2710  0.4013
33988SOL    HW1 8056   5.819   1.526   5.377 -0.4063  0.5577 -0.3429
33988SOL    HW2 8057   5.813   1.538   5.528  0.2564 -1.0660 -0.1745
33989SOL     OW 8058   5.598   5.997   4.139  0.4442  0.4201  0.3017
33989SOL    HW1 8059   5.552   5.962   4.062  0.0748  2.3370 -0.4005
33989SOL    HW2 8060   5.598   5.925   4.202 -1.7434 -0.3027 -0.4442
33990SOL     OW 8061  10.630   3.062   5.611  0.3589 -0.6130 -0.4983
33990SOL    HW1 8062  10.596   2.975   5.627  1.2316 -0.6905  1.2385
33990SOL    HW2 8063  10.625   3.106   5.696 -0.7250  1.3027 -1.4664
33991SOL     OW 8064   4.094   5.842  10.452 -0.7233  0.3359 -0.5513
33991SOL    HW1 8065   4.108   5.919  10.507  1.0572 -0.5720  0.3408
33991SOL    HW2 8066   4.156   5.854  10.379 -0.3349 -0.3263 -0.3289
33992SOL     OW 8067   2.678   5.133   5.673  0.5407 -0.8128  0.4130
33992SOL    HW1 8068   2.599   5.174   5.708  0.2149  0.8925 -2.1039
33992SOL    HW2 8069   2.672   5.144   5.578  4.6706  1.1581  0.1755
33993SOL     OW 8070   8.808   6.502   0.039  0.0593 -0.6888  0.1422
33993SOL    HW1 8071   8.790   6.558   0.114 -0.3121 -0.6329  0.0136
33993SOL    HW2 8072   8.895   6.528   0.009  0.2466 -0.7733  0.6046
33994SOL     OW 8073  10.733   2.004   1.559 -0.3212 -0.1765 -0.5360
33994SOL    HW1 8074  10.789   2.061   1.507  0.6399 -0.5297  0.0771
33994SOL    HW2 8075  10.782   1.989   1.640 -1.1777 -0.7293 -0.0944
33995SOL     OW 8076   4.559   8.754   6.369  0.5987  0.4598  0.3556
33995SOL    HW1 8077   4.577   8.676   6.421  1.6517 -0.1086 -0.7957
33995SOL    HW2 8078   4.505   8.809   6.425  0.4802 -0.7623  1.4773
33996SOL     OW 8079  10.833   0.113   0.394 -0.0173 -0.2414  0.8028
33996SOL    HW1 8080  10.822   0.207   0.379 -1.1844 -0.7500 -2.1135
33996SOL    HW2 8081  10.755   0.089   0.445 -0.8648  0.0308 -0.3298
33997SOL     OW 8082   5.943   8.744   2.810 -0.6486 -0.3312  0.0922
33997SOL    HW1 8083   5.933   8.744   2.714  0.3702  2.5862 -0.1229
33997SOL    HW2 8084   6.012   8.808   2.826  1.4529 -3.0098  2.6731
33998SOL     OW 8085   1.522   8.971   6.326 -0.1304  0.1049 -0.0980
33998SOL    HW1 8086   1.589   8.970   6.258  0.4682  1.2522  0.4281
33998SOL    HW2 8087   1.442   8.940   6.283  0.3096  0.5047 -1.2357
33999SOL     OW 8088   2.132   7.685   0.064  0.2107 -0.7452  0.2864
33999SOL    HW1 8089   2.184   7.716   0.138  1.5841 -1.2885 -0.4085
33999SOL    HW2 8090   2.176   7.723  -0.013  0.1646 -2.0019 -0.3839
34000SOL     OW 8091   2.020   1.669   9.886  0.2986  0.1740 -0.2528
34000SOL    HW1 8092   2.098   1.712   9.851 -0.1622  1.0802 -0.1925
34000SOL    HW2 8093   1.968   1.648   9.809  0.7986 -0.8570 -0.3286
34001SOL     OW 8094   2.359   5.370   1.839  0.4248 -0.6505  0.6687
34001SOL    HW1 8095   2.290   5.362   1.773  0.5735  0.2592  0.3976
34001SOL    HW2 8096   2.312   5.376   1.922  0.1881 -0.3671  0.5153
34002SOL     OW 8097   3.953   5.319   3.225  0.0099  0.4279  0.6570
34002SOL    HW1 8098   4.010   5.252   3.263  1.8261  1.7230  0.3297
34002SOL    HW2 8099   3.926   5.282   3.141  1.0018  0.0783  0.4756
34003SOL     OW 8100   7.030   7.037   2.845  0.2392 -0.0555  0.3830
34003SOL    HW1 8101   7.014   7.090   2.767 -0.2468  0.4897  0.8488
34003SOL    HW2 8102   7.117   7.063   2.874 -0.2112  0.8866  0.9149
34004SOL     OW 8103   7.138   2.416   3.071  0.0847 -0.6474  0.0692
34004SOL    HW1 8104   7.138   2.456   3.158 -1.3031 -1.8224  0.6481
34004SOL    HW2 8105   7.224   2.437   3.035 -0.5641  2.9701  0.2520
34005SOL     OW 8106   5.896   7.364   6.960  0.3410  0.0282  0.5016
34005SOL    HW1 8107   5.852   7.411   7.031 -1.3473  1.4054 -1.3388
34005SOL    HW2 8108   5.830   7.304   6.926  1.0990 -0.5727  0.0581
34006SOL     OW 8109   6.342  10.871   7.811  0.3834 -0.0378 -0.4426
34006SOL    HW1 8110   6.336  10.861   7.716  0.3236 -0.6043 -0.3854
34006SOL    HW2 8111   6.251  10.880   7.839  0.3291 -0.7296 -0.3617
34007SOL     OW 8112   5.916   8.205   9.874 -0.0199  0.1082 -0.1977
34007SOL    HW1 8113   5.954   8.271   9.816 -1.2344  1.6130  0.6356
34007SOL    HW2 8114   5.906   8.127   9.820  1.8606  0.4462 -1.0940
34008SOL     OW 8115   7.028   6.398   5.795  0.2117  0.4145  0.1805
34008SOL    HW1 8116   7.038   6.448   5.876  1.4007 -1.7051  1.4355
34008SOL    HW2 8117   6.938   6.416   5.767 -0.1304  1.4624  1.7903
34009SOL     OW 8118   9.402   9.252   2.118  0.8196 -0.0310 -0.2157
34009SOL    HW1 8119   9.335   9.316   2.145  2.5317  2.0454 -0.5907
34009SOL    HW2 8120   9.484   9.288   2.152  1.7086 -3.0484  1.1833
34010SOL     OW 8121   5.018   8.896   4.056 -0.1746 -0.0649 -0.5467
34010SOL    HW1 8122   4.976   8.982   4.062  1.0428  0.6589 -2.0580
34010SOL    HW2 8123   5.110   8.913   4.076  0.0857 -1.0158 -0.9213
34011SOL     OW 8124  10.765   2.025   4.511 -0.5276 -0.1267 -0.3344
34011SOL    HW1 8125  10.813   1.988   4.585 -1.3450  0.1897  0.3571
34011SOL    HW2 8126  10.683   1.977   4.509 -1.8767  1.9761  0.9413
34012SOL     OW 8127   5.354   8.384   3.848 -0.2891 -0.1225 -0.4984
34012SOL    HW1 8128   5.309   8.338   3.777  0.8981 -1.1297 -0.6408
34012SOL    HW2 8129   5.357   8.321   3.920 -1.4738  0.8828  0.4901
34013SOL     OW 8130   0.749   4.103   9.901  0.1775  0.1753  0.3354
34013SOL    HW1 8131   0.658   4.089   9.876  0.5030  1.5957 -1.8640
34013SOL    HW2 8132   0.800   4.047   9.842  0.8333  1.4585 -0.3596
34014SOL     OW 8133   5.152   9.035   3.740  0.3485 -0.2307  0.5479
34014SOL    HW1 8134   5.246   9.051   3.748  0.7483 -2.6873  1.5072
34014SOL    HW2 8135   5.115   9.067   3.823  1.1170 -3.6001  2.3743
34015SOL     OW 8136   3.911   3.432   1.790  0.4378  0.1685 -0.0150
34015SOL    HW1 8137   3.907   3.367   1.860 -0.3880  0.3278  0.0975
34015SOL    HW2 8138   3.874   3.512   1.829  4.1421  1.6539  0.8272
34016SOL     OW 8139   2.132  10.036   4.990  0.2631  0.3960  0.4718
34016SOL    HW1 8140   2.115   9.958   4.937 -1.0236  1.6533 -1.0618
34016SOL    HW2 8141   2.226  10.052   4.979  1.4111 -2.7373  3.5415
34017SOL     OW 8142   7.877   0.113   5.794  0.2670 -0.4163 -0.2593
34017SOL    HW1 8143   7.790   0.110   5.834  1.1789 -1.6160  1.7499
34017SOL    HW2 8144   7.863   0.077   5.706 -1.6605  1.6822 -0.9187
34018SOL     OW 8145   2.690  10.591   6.211 -0.2239  0.4479  0.2498
34018SOL    HW1 8146   2.668  10.628   6.297  1.1674 -0.9355  1.2499
34018SOL    HW2 8147   2.723  10.504   6.230  1.2073  0.5236 -1.6009
34019SOL     OW 8148  10.281   9.499   5.049  0.4556 -0.6186  0.5653
34019SOL    HW1 8149  10.244   9.433   5.109  0.3740 -0.0261  1.1760
34019SOL    HW2 8150  10.293   9.576   5.103  0.3338 -0.0500 -0.2046
34020SOL     OW 8151   3.502   6.675   8.978  0.6580 -0.1484  0.2570
34020SOL    HW1 8152   3.529   6.749   9.034 -1.4281 -0.3392  1.6077
34020SOL    HW2 8153   3.495   6.601   9.038 -1.2118 -0.4768 -0.3064
34021SOL     OW 8154  10.653   6.136   8.442 -0.0103  0.0353  0.8211
34021SOL    HW1 8155  10.694   6.145   8.528 -1.5658  0.2754  1.5766
34021SOL    HW2 8156  10.559   6.145   8.460 -0.4785 -1.4263 -0.6992
34022SOL     OW 8157   6.929   8.854  10.487 -0.0209  0.4346  0.4513
34022SOL    HW1 8158   6.915   8.944  10.517 -1.3115  0.1105  0.8969
34022SOL    HW2 8159   6.866   8.802  10.537 -0.7103 -0.4375 -1.2374
34023SOL     OW 8160   6.305   7.461   3.917 -0.3015 -0.2920 -0.3534
34023SOL    HW1 8161   6.266   7.386   3.871 -0.7148 -0.8569  0.8888
34023SOL    HW2 8162   6.374   7.422   3.970 -0.1791  0.2885 -0.0879
34024SOL     OW 8163   4.033   7.132   7.011  0.2209  0.8022 -0.1092
34024SOL    HW1 8164   4.015   7.177   7.094  0.5849  0.3558  0.2116
34024SOL    HW2 8165   4.033   7.202   6.946 -2.5504  0.9006 -0.1374
34025SOL     OW 8166   7.729   8.122   7.650 -0.7178  0.1755 -0.2351
34025SOL    HW1 8167   7.763   8.053   7.707 -1.1347 -0.0822 -0.2954
34025SOL    HW2 8168   7.671   8.077   7.589  1.5854  0.0183 -2.5073
34026SOL     OW 8169   8.167   1.931   1.307  0.1358  0.8459  0.1959
34026SOL    HW1 8170   8.074   1.936   1.283 -0.2204 -0.8018  1.1065
34026SOL    HW2 8171   8.171   1.971   1.394  0.5746  2.3256 -0.4769
34027SOL     OW 8172   8.361   0.547   1.791  0.2333  0.3713 -0.0231
34027SOL    HW1 8173   8.272   0.557   1.757  0.5698  0.9065 -0.7870
34027SOL    HW2 8174   8.359   0.464   1.838 -0.6488  0.3344 -0.0953
34028SOL     OW 8175   4.942  10.466   6.936  0.3339  0.4740  0.3274
34028SOL    HW1 8176   4.903  10.445   6.851  2.2684  0.8218 -0.7147
34028SOL    HW2 8177   4.942  10.562   6.939  1.9356  0.5211 -0.1613
34029SOL     OW 8178   6.692   3.928   4.604 -0.2918  0.4367  0.5744
34029SOL    HW1 8179   6.764   3.931   4.667 -1.3282 -0.5471  1.8687
34029SOL    HW2 8180   6.614   3.909   4.657 -1.3975  0.7151 -0.8703
34030SOL     OW 8181   4.343   1.340   7.788 -0.0813  0.2773  0.2154
34030SOL    HW1 8182   4.336   1.274   7.857 -2.1536 -0.8290 -0.9467
34030SOL    HW2 8183   4.395   1.298   7.720 -1.2914 -0.1726 -0.4692
34031SOL     OW 8184   6.875   2.603   6.781 -0.3287 -0.1123 -0.0968
34031SOL    HW1 8185   6.916   2.686   6.803 -0.1396 -0.3039  0.2817
34031SOL    HW2 8186   6.937   2.559   6.723 -0.3211 -0.0912 -0.1048
34032SOL     OW 8187   0.814   3.268  10.450  0.0945 -0.5986 -0.4699
34032SOL    HW1 8188   0.727   3.230  10.448 -0.6780  1.0807 -0.5789
34032SOL    HW2 8189   0.816   3.320  10.531  1.5388 -1.7888  0.3173
34033SOL     OW 8190   1.440   4.869   5.515 -0.1993 -0.5160  0.3283
34033SOL    HW1 8191   1.523   4.911   5.495  0.0591 -0.0387  2.2302
34033SOL    HW2 8192   1.451   4.835   5.604 -2.1662 -0.0863  0.7809
34034SOL     OW 8193   4.634   8.403   7.662 -0.3754 -0.3241  0.0582
34034SOL    HW1 8194   4.648   8.311   7.684 -0.5709 -0.2527  0.4913
34034SOL    HW2 8195   4.682   8.416   7.581 -0.4051 -0.8280 -0.0417
34035SOL     OW 8196   5.531   9.301   5.568 -0.0437 -0.5424  0.2838
34035SOL    HW1 8197   5.462   9.334   5.511  0.7931  1.0210  0.1091
34035SOL    HW2 8198   5.486   9.257   5.640 -1.2792  1.6761  0.9277
34036SOL     OW 8199   5.857   8.046  10.377  0.3191 -0.1603 -0.6554
34036SOL    HW1 8200   5.869   7.953  10.360 -0.7105 -0.5051  0.3982
34036SOL    HW2 8201   5.888   8.059  10.467 -1.0193  0.1823 -0.2175
34037SOL     OW 8202   6.379   7.918   0.252  0.2910  0.6766 -0.6174
34037SOL    HW1 8203   6.379   7.938   0.346 -1.8882  0.1158 -0.4229
34037SOL    HW2 8204   6.426   7.990   0.211 -0.0640  1.7507  0.7872
34038SOL     OW 8205   3.629   5.203   7.488  0.0899  0.3845 -0.2958
34038SOL    HW1 8206   3.543   5.186   7.526  0.2752  0.5113  0.1878
34038SOL    HW2 8207   3.611   5.227   7.397 -0.3119 -0.4982 -0.4586
34039SOL     OW 8208   8.946   3.759   1.846 -0.5613 -0.4019 -0.5620
34039SOL    HW1 8209   8.918   3.815   1.918 -0.6308 -1.3288  0.1497
34039SOL    HW2 8210   9.042   3.761   1.850 -0.5182  1.0219 -1.6260
34040SOL     OW 8211   2.713   7.246   8.779  0.7600  0.4662 -0.6199
34040SOL    HW1 8212   2.738   7.183   8.847  0.6450 -0.9780 -1.8859
34040SOL    HW2 8213   2.786   7.308   8.777  0.6570  0.7006  0.9672
34041SOL     OW 8214   1.233  10.623   7.984 -0.5088 -0.3116  0.3217
34041SOL    HW1 8215   1.172  10.696   7.990 -0.3035  0.0316 -1.3233
34041SOL    HW2 8216   1.301  10.642   8.049 -0.9190  0.5003  0.5215
34042SOL     OW 8217   4.207   6.480   4.585 -0.6133 -0.2640 -0.8633
34042SOL    HW1 8218   4.184   6.428   4.663 -1.8641  0.4220 -0.7567
34042SOL    HW2 8219   4.276   6.539   4.616  0.1780 -1.2024 -0.7551
34043SOL     OW 8220   6.992   7.509   9.036 -0.3952  0.5786  0.2671
34043SOL    HW1 8221   6.951   7.595   9.028 -1.0911  0.3188  0.9183
34043SOL    HW2 8222   7.017   7.503   9.129 -0.6731 -0.0645  0.3019
34044SOL     OW 8223   9.937   4.015   4.764  0.5066  0.2049  0.2617
34044SOL    HW1 8224   9.952   4.086   4.702 -0.7977 -0.0057 -0.3405
34044SOL    HW2 8225  10.011   4.019   4.824  1.0177  1.3762 -0.4109
34045SOL     OW 8226   8.915   3.374   9.904  0.4679 -0.3430  0.1869
34045SOL    HW1 8227   8.912   3.428   9.982  0.3606  0.2820 -0.2441
34045SOL    HW2 8228   8.826   3.378   9.868  0.6694 -0.1430 -0.2912
34046SOL     OW 8229   3.864   2.445   6.893 -0.3573  0.1864  0.2456
34046SOL    HW1 8230   3.946   2.412   6.859 -0.0296  1.3377 -0.1256
34046SOL    HW2 8231   3.850   2.528   6.847 -0.3731  1.3353  2.2023
34047SOL     OW 8232   8.208   8.067   1.685  0.4661  0.7555 -0.1625
34047SOL    HW1 8233   8.187   8.126   1.757  0.2481  0.8830 -0.3289
34047SOL    HW2 8234   8.173   7.982   1.711 -1.0634  1.1523 -0.8159
34048SOL     OW 8235   0.982   5.585   1.087 -0.0650  0.3328  0.2742
34048SOL    HW1 8236   0.944   5.669   1.060 -3.4784 -1.1011  0.0888
34048SOL    HW2 8237   0.978   5.531   1.008  0.7917 -0.4379  0.7432
34049SOL     OW 8238   7.114  10.851   3.985 -0.7433  0.0545  0.6525
34049SOL    HW1 8239   7.069  10.838   4.069 -0.9164  1.8986  0.8877
34049SOL    HW2 8240   7.207  10.841   4.006 -0.8744 -1.9427  0.5280
34050SOL     OW 8241   8.132   5.752   5.231 -0.6406  0.0230 -0.8357
34050SOL    HW1 8242   8.087   5.731   5.313  2.2014  0.3791  0.9682
34050SOL    HW2 8243   8.156   5.844   5.240  2.4143 -0.6758 -0.5276
34051SOL     OW 8244   4.663   1.223   7.888  0.0520 -0.0671 -0.1913
34051SOL    HW1 8245   4.718   1.191   7.816 -1.6747  0.5937 -1.9017
34051SOL    HW2 8246   4.685   1.316   7.896 -1.2863  0.3917 -1.4176
34052SOL     OW 8247   4.871   8.386   7.452 -0.2866  0.0794 -0.7376
34052SOL    HW1 8248   4.952   8.336   7.450 -0.7231 -0.6278 -1.0770
34052SOL    HW2 8249   4.804   8.325   7.421 -1.2675  0.0644  1.2138
34053SOL     OW 8250   7.101   5.008   9.087  0.3884  0.1577 -0.6273
34053SOL    HW1 8251   7.088   5.084   9.144  0.8225 -0.1332 -0.1370
34053SOL    HW2 8252   7.045   5.026   9.011  0.0319  0.6850 -0.2490
34054SOL     OW 8253   4.706   8.006   5.338 -0.6232  0.0196  0.3597
34054SOL    HW1 8254   4.676   8.048   5.420 -0.5188  0.0197  0.3974
34054SOL    HW2 8255   4.783   7.956   5.363  0.3136  1.2319 -0.0251
34055SOL     OW 8256   0.337   6.607   6.825  0.2069 -0.2667  0.3732
34055SOL    HW1 8257   0.278   6.531   6.821  0.2551 -0.2382 -1.4144
34055SOL    HW2 8258   0.316   6.658   6.747 -0.8619  2.3920  2.2197
34056SOL     OW 8259   5.489   8.689   4.465  0.5901 -0.3792  0.0675
34056SOL    HW1 8260   5.474   8.614   4.522  0.9310  0.0024  0.6706
34056SOL    HW2 8261   5.584   8.701   4.465  0.4859  0.6065  0.7154
34057SOL     OW 8262   9.232   5.562   7.031 -0.2405 -0.5747 -0.3031
34057SOL    HW1 8263   9.206   5.492   7.091 -0.8097  0.3162  0.5151
34057SOL    HW2 8264   9.309   5.601   7.072 -0.3015 -0.3142 -0.4338
34058SOL     OW 8265   1.328   7.819   0.974  0.1912  0.2096  0.1461
34058SOL    HW1 8266   1.321   7.898   0.920 -0.3160  0.4794  0.5943
34058SOL    HW2 8267   1.398   7.767   0.932  1.4006  1.4496  0.5668
34059SOL     OW 8268   8.724   0.427   7.489  0.2082  0.1854  0.1798
34059SOL    HW1 8269   8.774   0.506   7.508 -1.7912  1.3425  0.8737
34059SOL    HW2 8270   8.633   0.456   7.484 -0.3921 -1.7494 -1.5432
34060SOL     OW 8271   2.127   3.569   8.059 -0.5074 -0.1857 -0.0918
34060SOL    HW1 8272   2.073   3.527   7.991  0.9714 -0.9452 -0.8353
34060SOL    HW2 8273   2.138   3.502   8.126 -2.2632  0.6747  1.1491
34061SOL     OW 8274   4.127   3.579   0.500 -0.4303 -0.4315  0.1193
34061SOL    HW1 8275   4.133   3.675   0.500 -0.8888 -0.3531 -1.9022
34061SOL    HW2 8276   4.111   3.557   0.408 -0.0762 -2.4751  0.5174
34062SOL     OW 8277   5.263   3.318   0.441 -0.3715 -0.8358  0.2557
34062SOL    HW1 8278   5.229   3.319   0.530 -1.8303 -1.0090 -0.2660
34062SOL    HW2 8279   5.357   3.301   0.451 -0.5659 -1.1727  1.7291
34063SOL     OW 8280   6.415   0.239   9.648  0.4199 -0.4131 -0.2510
34063SOL    HW1 8281   6.454   0.274   9.729  1.3597  1.4396 -1.4367
34063SOL    HW2 8282   6.332   0.285   9.640  1.2480  0.9853 -1.3408
34064SOL     OW 8283   7.771   5.475   9.554 -0.2214 -0.1269 -0.3668
34064SOL    HW1 8284   7.709   5.436   9.616 -0.2976  1.8434  0.8975
34064SOL    HW2 8285   7.743   5.444   9.468 -0.9057 -1.9101  0.4570
34065SOL     OW 8286   5.834  10.756   8.339  0.1531 -0.2817 -0.7016
34065SOL    HW1 8287   5.802  10.758   8.249 -1.2879  0.0726 -0.2211
34065SOL    HW2 8288   5.763  10.714   8.388  0.3627  0.6739  0.4612
34066SOL     OW 8289  10.571   1.991   5.557  0.2439 -0.2112 -0.1466
34066SOL    HW1 8290  10.527   2.043   5.624 -0.4423 -2.7701  1.5115
34066SOL    HW2 8291  10.640   2.048   5.524 -0.5360  1.7728  1.4392
34067SOL     OW 8292   8.421   9.340   3.443 -0.2577 -0.0577 -0.0093
34067SOL    HW1 8293   8.446   9.357   3.353  1.6123  0.5419  0.5764
34067SOL    HW2 8294   8.426   9.245   3.453  1.3956 -0.0096 -0.0731
34068SOL     OW 8295   0.094  10.547  10.670 -0.0758  0.0774  0.1416
34068SOL    HW1 8296   0.117  10.620  10.612 -1.2351  1.3529  1.2228
34068SOL    HW2 8297  -0.000  10.538  10.661 -0.0125 -0.9699  0.4266
34069SOL     OW 8298   9.808  10.081   5.007  0.3163 -0.3989  0.2705
34069SOL    HW1 8299   9.874  10.015   5.026  2.0277  0.7912 -1.1275
34069SOL    HW2 8300   9.762  10.048   4.930  2.2603  0.6475 -1.4481
34070SOL     OW 8301   1.298   5.717   6.350  0.9819 -0.4850 -0.2317
34070SOL    HW1 8302   1.308   5.779   6.278  1.1324 -1.3445 -0.9711
34070SOL    HW2 8303   1.355   5.643   6.327  0.5729 -1.0410  0.4751
34071SOL     OW 8304   7.405   1.235   5.312 -0.3245  0.1824  0.2201
34071SOL    HW1 8305   7.379   1.307   5.255  0.1344 -0.3891 -0.7381
34071SOL    HW2 8306   7.500   1.233   5.306 -0.3200 -0.3707  0.3864
34072SOL     OW 8307  10.536   6.038  10.857 -0.0992 -0.3587  0.5133
34072SOL    HW1 8308  10.508   6.093  10.930  0.5857  1.1521 -0.3035
34072SOL    HW2 8309  10.561   5.955  10.897 -0.6260  0.1123  1.8733
34073SOL     OW 8310   1.733   8.176   7.858  0.0852 -0.5085  0.3705
34073SOL    HW1 8311   1.642   8.150   7.841 -0.2591  0.5070  0.5741
34073SOL    HW2 8312   1.782   8.141   7.784 -0.2427 -2.1886  0.9032
34074SOL     OW 8313   2.504   4.481  10.283 -0.1461  0.5285  0.1093
34074SOL    HW1 8314   2.428   4.474  10.224 -0.1830  0.8137  0.1257
34074SOL    HW2 8315   2.469   4.522  10.362 -0.3907 -0.9970  0.8397
34075SOL     OW 8316   5.475   0.221   3.988 -0.1589  0.1427 -0.6433
34075SOL    HW1 8317   5.435   0.304   3.966  0.7426  0.3424 -1.6106
34075SOL    HW2 8318   5.557   0.220   3.938  0.1092 -1.0732 -0.2103
34076SOL     OW 8319   9.598   8.234   8.788  0.5466 -0.1257  0.3034
34076SOL    HW1 8320   9.612   8.221   8.881 -0.0840  0.3539  0.4709
34076SOL    HW2 8321   9.644   8.316   8.768  1.1424 -0.5064  0.0724
34077SOL     OW 8322   4.944   3.841   7.643  0.2928  0.3440  0.1098
34077SOL    HW1 8323   4.958   3.842   7.548  2.3639 -0.9775  0.3440
34077SOL    HW2 8324   4.855   3.875   7.654  0.5214  1.9079 -2.1876
34078SOL     OW 8325   7.455   7.491   2.385  0.1456  0.0068  0.5329
34078SOL    HW1 8326   7.366   7.520   2.365 -0.2069 -0.5219  1.2849
34078SOL    HW2 8327   7.510   7.543   2.327 -0.5283  1.5584  1.2146
34079SOL     OW 8328   2.299   0.600   0.932  0.4645  0.1665  0.1939
34079SOL    HW1 8329   2.332   0.661   0.866 -1.4437 -0.4394 -1.4223
34079SOL    HW2 8330   2.204   0.610   0.928  0.2377 -0.9584  1.8419
34080SOL     OW 8331   6.615   7.353   2.353 -0.7282  0.1120 -0.0527
34080SOL    HW1 8332   6.658   7.438   2.350  0.1965 -0.2300  1.9941
34080SOL    HW2 8333   6.617   7.327   2.445 -1.7413 -1.7603 -0.4821
34081SOL     OW 8334   0.480   2.640   4.378 -0.1199 -0.2051  0.8170
34081SOL    HW1 8335   0.504   2.677   4.463 -1.0444 -0.1993  1.0825
34081SOL    HW2 8336   0.391   2.605   4.390 -0.1076 -0.5683 -0.0321
34082SOL     OW 8337   5.960   2.907   0.880 -0.0165  0.5159  0.1933
34082SOL    HW1 8338   5.974   2.940   0.969 -0.8650  3.1848 -0.5713
34082SOL    HW2 8339   6.040   2.858   0.859  1.1168  1.6418  1.6685
34083SOL     OW 8340   7.306   1.265   6.487  0.3405  0.0053 -0.1999
34083SOL    HW1 8341   7.359   1.291   6.562  1.9747 -0.1101 -1.2628
34083SOL    HW2 8342   7.223   1.311   6.499  0.4817 -0.1546  1.7467
34084SOL     OW 8343   5.610   1.897   4.327  0.2872 -0.0489 -0.2203
34084SOL    HW1 8344   5.613   1.883   4.422 -0.2667  0.5244 -0.1039
34084SOL    HW2 8345   5.551   1.830   4.295  0.9883 -0.6575 -0.2503
34085SOL     OW 8346   1.386   1.056   5.034 -0.3684  0.9861  0.6092
34085SOL    HW1 8347   1.429   1.076   5.117 -1.7749 -1.4757  2.0494
34085SOL    HW2 8348   1.396   0.961   5.024 -1.3874  1.0339 -1.3813
34086SOL     OW 8349   3.100   7.814   6.596 -0.0828  0.5354  0.1134
34086SOL    HW1 8350   3.179   7.870   6.596  0.3411 -0.0513 -0.5157
34086SOL    HW2 8351   3.127   7.735   6.643 -0.1293  0.1140 -0.5524
34087SOL     OW 8352   2.324   4.940   9.974  0.2811 -0.3125 -0.2259
34087SOL    HW1 8353   2.358   4.901  10.055  0.6456  1.4907  0.5408
34087SOL    HW2 8354   2.383   5.014   9.957 -2.5045  2.2787  0.5292
34088SOL     OW 8355   6.254   0.806   8.905  0.1404  0.1023  0.0558
34088SOL    HW1 8356   6.332   0.829   8.956  0.3970 -1.3526  0.3842
34088SOL    HW2 8357   6.183   0.854   8.948  0.5478 -0.1414  1.0479
34089SOL     OW 8358   8.310   9.506   4.826 -0.8784 -0.6120 -0.6079
34089SOL    HW1 8359   8.222   9.499   4.863 -0.1684 -2.8038  0.8293
34089SOL    HW2 8360   8.317   9.431   4.767  0.1817 -0.7403 -0.3360
34090SOL     OW 8361   4.785  10.550   9.924 -0.3635 -0.3925  0.3149
34090SOL    HW1 8362   4.724  10.503   9.867 -1.3929 -0.6156  1.5524
34090SOL    HW2 8363   4.867  10.501   9.918 -1.2266 -2.0076  1.0662
34091SOL     OW 8364   5.835   7.318  10.402 -0.1503 -0.3069 -0.2009
34091SOL    HW1 8365   5.819   7.366  10.321 -0.9700  0.7569  0.5688
34091SOL    HW2 8366   5.748   7.301  10.438  0.1971 -0.8505  0.4167
34092SOL     OW 8367   1.262   2.628  10.723  0.0914 -0.6599  0.4164
34092SOL    HW1 8368   1.210   2.548  10.729  0.8623 -1.0638  2.4412
34092SOL    HW2 8369   1.336   2.613  10.782  1.0130  0.9953 -0.2605
34093SOL     OW 8370   6.350   5.797   6.087  0.2956 -0.1973  0.4989
34093SOL    HW1 8371   6.365   5.808   6.181 -1.2733  1.1138  0.6351
34093SOL    HW2 8372   6.336   5.703   6.076  1.6714 -0.5369  1.3604
34094SOL     OW 8373   3.851   1.892   8.461 -0.1294 -0.0130  0.3273
34094SOL    HW1 8374   3.767   1.937   8.449 -1.4998 -2.4041  0.3141
34094SOL    HW2 8375   3.870   1.855   8.375 -0.0760 -1.0866  0.7832
34095SOL     OW 8376   9.763   0.193   5.551  0.2909  0.6607  0.7207
34095SOL    HW1 8377   9.763   0.137   5.474 -1.6537 -1.1642  1.9169
34095SOL    HW2 8378   9.672   0.221   5.560  0.5149  1.0095  2.1995
34096SOL     OW 8379   9.226   7.200   3.048  0.1897 -0.2702  0.2578
34096SOL    HW1 8380   9.219   7.267   3.115  1.7707 -0.5546  0.7327
34096SOL    HW2 8381   9.248   7.120   3.096 -1.3922 -1.1108 -0.3261
34097SOL     OW 8382   8.473   5.812   7.759 -0.1215  0.5573  0.2860
34097SOL    HW1 8383   8.388   5.767   7.762  0.3564 -0.3248  2.3042
34097SOL    HW2 8384   8.451   5.904   7.768 -0.9496  0.5389 -1.1669
34098SOL     OW 8385   8.511   8.466   1.883 -0.3871 -0.9102  0.2677
34098SOL    HW1 8386   8.517   8.372   1.899 -2.0455 -0.9152  1.0029
34098SOL    HW2 8387   8.518   8.506   1.969 -2.3530 -0.5323  0.2846
34099SOL     OW 8388   9.929  10.618   1.161  0.2919 -0.7039 -0.3316
34099SOL    HW1 8389   9.967  10.674   1.093 -0.3774 -2.5824 -2.3484
34099SOL    HW2 8390   9.952  10.662   1.243  0.6067  1.9901 -1.7422
34100SOL     OW 8391   9.012  10.270   6.319 -0.0598 -0.2565 -0.0237
34100SOL    HW1 8392   8.970  10.334   6.260 -1.0214 -1.0292 -0.2002
34100SOL    HW2 8393   8.940  10.233   6.369  0.8332  1.0170  2.3275
34101SOL     OW 8394   5.975   7.631   3.132 -0.1148 -0.0673 -0.3578
34101SOL    HW1 8395   5.922   7.556   3.108 -1.4186  0.9406 -0.7414
34101SOL    HW2 8396   5.959   7.695   3.063 -0.7990  1.3986  1.0770
34102SOL     OW 8397   3.909   7.044   9.897  0.1683  0.3823 -0.2780
34102SOL    HW1 8398   3.979   7.041   9.831  1.5983  2.5985  0.9997
34102SOL    HW2 8399   3.842   7.099   9.857 -0.2261 -0.5255 -0.9145
34103SOL     OW 8400   9.757   0.742   3.786  0.2308 -0.2913  0.2799
34103SOL    HW1 8401   9.711   0.721   3.704  0.8373 -0.3792 -0.0397
34103SOL    HW2 8402   9.713   0.821   3.818 -0.1717 -0.3956 -0.0023
34104SOL     OW 8403   8.574   6.582   0.565 -0.3041  0.1639  0.1496
34104SOL    HW1 8404   8.566   6.676   0.549  0.2463  0.5364  1.8552
34104SOL    HW2 8405   8.640   6.552   0.502  0.7035  1.2476  0.6529
34105SOL     OW 8406   7.613   5.532   5.630  0.2208  0.1089  0.1140
34105SOL    HW1 8407   7.627   5.510   5.722 -2.5123  0.9060  0.8253
34105SOL    HW2 8408   7.647   5.621   5.621 -0.8215  0.5878  0.7746
34106SOL     OW 8409   2.619   5.901  10.195 -0.2057  0.4377 -0.1926
34106SOL    HW1 8410   2.549   5.899  10.131 -0.5645 -1.2769  0.2050
34106SOL    HW2 8411   2.582   5.948  10.270 -0.0205  1.8220 -0.9364
34107SOL     OW 8412   2.915  10.469   4.305  0.5639 -0.2558 -0.4159
34107SOL    HW1 8413   2.939  10.561   4.301  1.8495 -0.5957 -1.7147
34107SOL    HW2 8414   2.901  10.451   4.398  2.7375  0.6873  0.1559
34108SOL     OW 8415   9.977   0.225   7.469  0.2531  0.4015 -0.0609
34108SOL    HW1 8416   9.928   0.304   7.492 -1.0407 -0.4225  0.1315
34108SOL    HW2 8417  10.023   0.248   7.388 -0.9712  1.0159 -0.6022
34109SOL     OW 8418   7.463   2.152   9.964  0.5504 -0.4721 -0.1903
34109SOL    HW1 8419   7.395   2.211   9.998  0.7954  0.0531 -0.5978
34109SOL    HW2 8420   7.515   2.207   9.905  0.9119 -1.0464 -0.4132
34110SOL     OW 8421   2.986   9.020   2.328 -0.2581 -0.0357 -0.6485
34110SOL    HW1 8422   3.071   9.027   2.372 -0.3494  0.5064 -0.5464
34110SOL    HW2 8423   2.960   8.929   2.341 -0.0810  0.0038  0.0458
34111SOL     OW 8424   7.177   0.663   7.623 -0.7280 -0.3215 -0.2040
34111SOL    HW1 8425   7.113   0.592   7.617  0.9557 -2.1793  1.8954
34111SOL    HW2 8426   7.176   0.687   7.716  1.6577 -0.5134 -0.0890
34112SOL     OW 8427   3.287   4.788   2.400 -0.1668  0.0312  0.1016
34112SOL    HW1 8428   3.227   4.714   2.390  1.3428 -1.1802 -0.4614
34112SOL    HW2 8429   3.350   4.778   2.328  0.8964  1.0591  0.8448
34113SOL     OW 8430   5.666   1.480   4.033  0.0886  0.0712  0.0695
34113SOL    HW1 8431   5.626   1.408   3.983 -0.5059  0.2644  0.2525
34113SOL    HW2 8432   5.648   1.457   4.125  0.1955  0.2776  0.1414
34114SOL     OW 8433   0.349   8.649   8.909 -0.6867 -0.7644 -0.0069
34114SOL    HW1 8434   0.408   8.722   8.891 -1.5997 -0.6350 -2.9589
34114SOL    HW2 8435   0.404   8.571   8.904 -0.7016 -0.6703 -2.9823
34115SOL     OW 8436   4.980   4.338   3.668  0.1614 -0.3674 -0.7128
34115SOL    HW1 8437   4.909   4.291   3.625 -0.8146  1.1324 -0.8118
34115SOL    HW2 8438   4.980   4.305   3.757 -1.5332  0.4950 -0.3467
34116SOL     OW 8439   2.770   5.846   3.363 -0.4008  0.2109 -0.0817
34116SOL    HW1 8440   2.859   5.811   3.369 -0.8098 -0.6685  1.5954
34116SOL    HW2 8441   2.728   5.792   3.297  0.2926  0.6583 -0.9198
34117SOL     OW 8442   8.529   8.124   9.473 -0.0993 -0.2173  0.0102
34117SOL    HW1 8443   8.622   8.107   9.485 -0.3325 -1.4451  0.1390
34117SOL    HW2 8444   8.485   8.052   9.518 -1.0988 -0.1392 -0.8021
34118SOL     OW 8445   3.117   6.305   1.227 -0.2109 -0.0953  0.0181
34118SOL    HW1 8446   3.024   6.317   1.205 -0.2223  1.6309  0.8340
34118SOL    HW2 8447   3.164   6.349   1.156 -0.1174  1.3092  0.9216
34119SOL     OW 8448   4.241   1.893   9.055 -0.1340  0.4291 -0.1138
34119SOL    HW1 8449   4.259   1.944   9.135  0.3496 -1.9727  1.3960
34119SOL    HW2 8450   4.161   1.846   9.074  1.7246 -2.7974  0.4359
34120SOL     OW 8451   2.133   5.979   9.509  0.4171  0.6043  0.7811
34120SOL    HW1 8452   2.158   5.889   9.486 -1.8657 -0.4159  1.9019
34120SOL    HW2 8453   2.070   6.005   9.442  0.1785  0.9076  1.1163
34121SOL     OW 8454   9.178   8.373   1.951 -0.3224 -0.2379 -0.3808
34121SOL    HW1 8455   9.235   8.389   2.026 -1.1028  0.4463  0.0779
34121SOL    HW2 8456   9.137   8.458   1.934  1.3307  0.1937 -2.8433
34122SOL     OW 8457   6.828   5.390   2.201  0.1754 -0.3803 -0.5709
34122SOL    HW1 8458   6.859   5.301   2.223 -0.3727 -0.1579  1.2483
34122SOL    HW2 8459   6.745   5.376   2.157  0.1261 -0.7724 -0.3596
34123SOL     OW 8460   9.819  10.169  10.629 -1.0915 -0.5661  0.4014
34123SOL    HW1 8461   9.836  10.121  10.710  0.5036 -1.4387 -0.4014
34123SOL    HW2 8462   9.792  10.103  10.566  0.6024 -0.3907 -0.5713
34124SOL     OW 8463   2.255   1.507   5.975  0.1267  0.0957 -0.2184
34124SOL    HW1 8464   2.221   1.504   6.064 -1.9475 -2.7113 -0.9606
34124SOL    HW2 8465   2.216   1.585   5.937 -0.0630  0.5817  0.9342
34125SOL     OW 8466   5.685   6.356   3.295 -0.4126 -0.0948 -0.2263
34125SOL    HW1 8467   5.610   6.302   3.270 -1.8632 -0.7186  4.4243
34125SOL    HW2 8468   5.722   6.311   3.371  2.9042  1.7836 -0.5568
34126SOL     OW 8469   7.069   5.304   1.617  0.0387  0.3430  0.3515
34126SOL    HW1 8470   7.066   5.395   1.647 -0.2597 -0.0685  1.5836
34126SOL    HW2 8471   7.095   5.253   1.694  2.5008 -0.4034 -0.8484
34127SOL     OW 8472   8.077   0.672  10.882 -0.4507  0.7846 -0.0086
34127SOL    HW1 8473   8.121   0.597  10.923  1.0144  1.1789 -0.8038
34127SOL    HW2 8474   8.115   0.748  10.926 -2.2210  1.1022  1.0824
34128SOL     OW 8475   0.849   9.191   0.866 -0.3231  0.3319  0.0196
34128SOL    HW1 8476   0.773   9.248   0.876 -0.6631 -0.2021  0.5042
34128SOL    HW2 8477   0.874   9.168   0.956  0.7102  0.8952 -0.1051
34129SOL     OW 8478   5.564   2.965  10.416  0.3999 -0.3205 -0.0122
34129SOL    HW1 8479   5.559   3.054  10.451 -0.8558  0.3082 -1.6132
34129SOL    HW2 8480   5.609   2.976  10.332  1.3545 -1.4168  0.3339
34130SOL     OW 8481   9.125   0.135   4.304  0.1774 -0.0583  0.4172
34130SOL    HW1 8482   9.108   0.042   4.318  1.8115 -0.4502 -0.0185
34130SOL    HW2 8483   9.166   0.164   4.385 -1.3508  0.5881  0.9985
34131SOL     OW 8484   8.256  10.344   9.327 -0.3678 -0.0133  0.0573
34131SOL    HW1 8485   8.190  10.298   9.378 -0.5227 -0.0225 -0.1548
34131SOL    HW2 8486   8.339  10.303   9.353 -0.0829  1.8089  2.4531
34132SOL     OW 8487   1.244   2.034   8.761  0.7523  0.2553  0.0892
34132SOL    HW1 8488   1.199   2.119   8.759  1.7000  0.7740 -0.1091
34132SOL    HW2 8489   1.216   1.990   8.681  0.4314  0.4794  0.0748
34133SOL     OW 8490   4.423   1.744   8.046 -0.4812 -0.1061 -0.1060
34133SOL    HW1 8491   4.345   1.696   8.074  1.1111 -1.9255  1.5074
34133SOL    HW2 8492   4.441   1.711   7.958 -2.7373  2.0505 -1.5255
34134SOL     OW 8493   1.335   5.417   5.401  0.0640  0.0279 -0.2936
34134SOL    HW1 8494   1.327   5.512   5.396  1.2763  0.0782 -1.9948
34134SOL    HW2 8495   1.357   5.400   5.493 -0.1322  1.3777  0.0222
34135SOL     OW 8496   0.804   4.201   5.613  0.0644  0.6949 -0.3952
34135SOL    HW1 8497   0.772   4.138   5.549 -0.4926 -0.4725  0.9960
34135SOL    HW2 8498   0.726   4.249   5.641 -0.0009 -0.0255  0.7077
34136SOL     OW 8499   3.765   9.181   8.220 -0.0591 -0.8764  0.2003
34136SOL    HW1 8500   3.669   9.177   8.213 -0.0029  0.1843 -2.6427
34136SOL    HW2 8501   3.794   9.091   8.204 -0.5608 -0.7072 -2.0664
34137SOL     OW 8502   6.547   8.562   6.422 -0.2380  0.2899  0.6865
34137SOL    HW1 8503   6.632   8.555   6.378 -0.1267  1.5233  0.6723
34137SOL    HW2 8504   6.494   8.615   6.362 -0.7552  0.2214  1.0833
34138SOL     OW 8505   1.939   3.467  10.061 -0.6207  0.0488  0.1354
34138SOL    HW1 8506   1.950   3.460  10.156  1.0591 -0.2635 -0.0565
34138SOL    HW2 8507   1.972   3.384  10.027  1.6019  1.2743 -0.9031
34139SOL     OW 8508   2.979   5.038   2.176  0.2857 -0.4023  0.1916
34139SOL    HW1 8509   3.011   4.958   2.135 -0.1533 -1.0865  1.1544
34139SOL    HW2 8510   3.039   5.106   2.145  1.4243 -1.3046  0.3612
34140SOL     OW 8511   4.314   9.513   4.777 -0.1687  0.0189  0.4091
34140SOL    HW1 8512   4.325   9.577   4.708 -1.1995  0.0707  0.2700
34140SOL    HW2 8513   4.269   9.560   4.847 -1.1181 -0.5785  0.2263
34141SOL     OW 8514   8.826   7.729   3.641  0.3624  0.4581 -0.1714
34141SOL    HW1 8515   8.785   7.797   3.587 -0.2971 -0.1407 -0.4250
34141SOL    HW2 8516   8.794   7.746   3.729  0.2635  0.5219 -0.2200
34142SOL     OW 8517   1.002   0.506   0.135 -0.3287 -0.0141 -0.2952
34142SOL    HW1 8518   0.914   0.500   0.097 -0.5026  1.0114 -0.1002
34142SOL    HW2 8519   1.057   0.454   0.077 -0.7394  0.8599 -1.5140
34143SOL     OW 8520  10.743   0.334   7.398  0.1165 -0.4782  0.0998
34143SOL    HW1 8521  10.706   0.332   7.486 -0.6188  0.2399 -0.1806
34143SOL    HW2 8522  10.764   0.243   7.378  0.1194 -0.6657  0.9377
34144SOL     OW 8523   1.914   0.101   1.349 -0.2145 -0.2548 -0.3124
34144SOL    HW1 8524   2.006   0.129   1.354  0.0777 -1.1373 -0.5918
34144SOL    HW2 8525   1.880   0.119   1.437  0.3846 -0.4153 -0.0337
34145SOL     OW 8526   8.258   2.031   8.625 -0.2428 -0.7360 -0.2530
34145SOL    HW1 8527   8.235   2.037   8.532 -0.2222  1.7863 -0.1868
34145SOL    HW2 8528   8.213   2.106   8.664  0.0130 -1.5693  1.7226
34146SOL     OW 8529   4.813   5.153   6.244  0.4529  1.1034  0.2937
34146SOL    HW1 8530   4.738   5.124   6.192 -0.7579  1.9112  1.5326
34146SOL    HW2 8531   4.821   5.246   6.225  0.8397  1.1158  0.5131
34147SOL     OW 8532   6.987   1.322   8.755 -0.1069 -0.4119  0.0994
34147SOL    HW1 8533   7.082   1.312   8.746  0.0047 -0.2138  0.9479
34147SOL    HW2 8534   6.974   1.343   8.848 -0.9957 -0.5866  0.0211
34148SOL     OW 8535   3.133   0.170   8.799 -0.5916 -0.2514  0.3071
34148SOL    HW1 8536   3.208   0.228   8.789  0.2070 -1.5857 -2.5122
34148SOL    HW2 8537   3.162   0.103   8.862  0.7699 -0.9327 -0.9869
34149SOL     OW 8538   6.092  10.426   1.715 -0.4379  0.1544  0.1382
34149SOL    HW1 8539   6.094  10.498   1.778 -1.4533 -0.0778  0.4490
34149SOL    HW2 8540   6.172  10.438   1.663  0.6585  0.1045  1.7405
34150SOL     OW 8541   6.841   4.996   7.337  1.1833 -0.8936 -0.0053
34150SOL    HW1 8542   6.816   4.913   7.297 -0.1563 -0.5782  0.1290
34150SOL    HW2 8543   6.852   5.056   7.263  0.8331 -0.8576 -0.0298
34151SOL     OW 8544   5.243   8.139   1.193 -0.6682 -0.4249  1.2674
34151SOL    HW1 8545   5.323   8.191   1.182 -0.0513 -0.9211  3.0746
34151SOL    HW2 8546   5.187   8.165   1.120  1.2763 -0.3342 -0.2898
34152SOL     OW 8547   7.191   1.233   1.417 -0.4078 -0.1975  0.0230
34152SOL    HW1 8548   7.267   1.290   1.428 -1.0122  0.9184 -1.3641
34152SOL    HW2 8549   7.222   1.164   1.358 -0.0809 -0.5440  0.5879
34153SOL     OW 8550   7.550  10.572   6.668  0.0256  0.1444 -0.2428
34153SOL    HW1 8551   7.568  10.499   6.608  0.8632  1.1752 -1.2753
34153SOL    HW2 8552   7.457  10.589   6.657  0.0604 -0.0324 -0.8403
34154SOL     OW 8553  10.833   7.967   6.109 -0.4449 -0.2733  0.2905
34154SOL    HW1 8554  10.751   7.974   6.158 -0.6384 -1.8546  0.2438
34154SOL    HW2 8555  10.836   7.876   6.081  1.3857 -0.2791  0.3870
34155SOL     OW 8556   8.076   5.814   4.538  0.0532  0.8858  0.6151
34155SOL    HW1 8557   8.127   5.739   4.570 -0.8069  1.3432  3.3013
34155SOL    HW2 8558   8.137   5.887   4.540  1.0136  0.3166 -2.3970
34156SOL     OW 8559   7.079   2.428   2.521  0.7213  0.2394 -0.3663
34156SOL    HW1 8560   7.092   2.489   2.594  0.2423 -0.1635  0.0697
34156SOL    HW2 8561   7.158   2.435   2.468  0.7272  1.1370 -0.2436
34157SOL     OW 8562   4.019   6.187   5.292 -0.0144  0.0328 -0.0066
34157SOL    HW1 8563   4.052   6.125   5.227  1.4553  1.5406 -0.7795
34157SOL    HW2 8564   3.959   6.243   5.243 -0.9342 -0.4134  0.5717
34158SOL     OW 8565   8.362   1.739   9.365 -0.4454  0.0324 -0.5274
34158SOL    HW1 8566   8.341   1.650   9.335 -0.2844  0.3177 -1.5202
34158SOL    HW2 8567   8.301   1.796   9.318 -0.6857  0.4411  0.2590
34159SOL     OW 8568  10.907   0.883   2.965  0.7001  0.8641 -0.0006
34159SOL    HW1 8569  10.848   0.958   2.970  1.4844  1.4158  1.5177
34159SOL    HW2 8570  10.988   0.918   2.927  1.0992  0.8142  0.7930
34160SOL     OW 8571   7.955   0.299   3.920 -0.2262  0.0025  0.5260
34160SOL    HW1 8572   8.035   0.337   3.954  0.7073 -0.2718 -1.2335
34160SOL    HW2 8573   7.908   0.372   3.881  0.4525 -0.2242 -0.7731
34161SOL     OW 8574   5.977   8.063  10.620  0.0224  0.3917 -0.5129
34161SOL    HW1 8575   5.999   7.992  10.679  0.3166  0.1388 -0.9228
34161SOL    HW2 8576   5.944   8.133  10.677 -0.6428 -0.2106 -0.1373
34162SOL     OW 8577   0.058   9.104   2.733  0.9686  0.2060 -0.4525
34162SOL    HW1 8578   0.033   9.142   2.648  0.5961  2.2558  0.5009
34162SOL    HW2 8579   0.002   9.149   2.796  2.0075 -0.4729  1.0021
34163SOL     OW 8580   4.987   3.204   1.766  0.3354  0.0538 -0.3909
34163SOL    HW1 8581   4.927   3.256   1.819 -0.0052 -0.1474 -0.5750
34163SOL    HW2 8582   5.051   3.268   1.734 -0.9027  0.6527 -1.7997
34164SOL     OW 8583   6.443   8.470   3.418  0.1489 -0.7689  0.1783
34164SOL    HW1 8584   6.355   8.433   3.425 -0.1864 -0.2262 -0.9117
34164SOL    HW2 8585   6.483   8.455   3.504 -0.3154 -2.7464  0.1040
34165SOL     OW 8586   5.309   4.280   5.994 -0.5006  0.2765 -0.2873
34165SOL    HW1 8587   5.397   4.268   5.959 -0.6149  1.6927 -1.1597
34165SOL    HW2 8588   5.301   4.375   6.007 -1.6144  0.0937  0.5345
34166SOL     OW 8589   5.878  10.210   8.486  0.4216  0.3663 -0.4478
34166SOL    HW1 8590   5.952  10.241   8.434  0.6826 -0.3891 -0.5287
34166SOL    HW2 8591   5.809  10.191   8.421  1.1917 -1.8574 -0.6809
34167SOL     OW 8592  10.217   4.429   7.499 -0.0004 -0.2295 -0.6435
34167SOL    HW1 8593  10.260   4.492   7.441  1.6540 -0.6775  0.0172
34167SOL    HW2 8594  10.234   4.344   7.458  1.4741 -0.5814  0.5877
34168SOL     OW 8595   1.954   1.869  10.437 -0.2935 -0.1663 -0.2257
34168SOL    HW1 8596   2.042   1.907  10.434  0.2920 -1.3962  0.2215
34168SOL    HW2 8597   1.931   1.855  10.345  1.0991 -2.1739 -0.3374
34169SOL     OW 8598   1.319   2.327   4.166  0.1038  0.1562 -0.0544
34169SOL    HW1 8599   1.304   2.318   4.260  0.0525 -0.8501 -0.1408
34169SOL    HW2 8600   1.250   2.387   4.136 -0.0136  0.3086  0.5110
34170SOL     OW 8601   4.902   7.663   4.236  0.0500  0.7071  0.3198
34170SOL    HW1 8602   4.987   7.665   4.192 -0.4350 -0.6552 -0.7549
34170SOL    HW2 8603   4.847   7.722   4.185 -0.4641 -0.7419 -0.8857
34171SOL     OW 8604   0.830  10.915  10.799 -0.1031  0.1870 -0.0809
34171SOL    HW1 8605   0.741  10.918  10.763  0.1967  0.5109 -0.7981
34171SOL    HW2 8606   0.817  10.889  10.890 -0.8999 -0.2417 -0.3035
34172SOL     OW 8607   6.864   2.289   3.671 -0.4190  0.4119 -0.3844
34172SOL    HW1 8608   6.829   2.338   3.596 -1.0508  0.4207 -0.0931
34172SOL    HW2 8609   6.949   2.329   3.688 -0.8801  1.3615 -0.2115
34173SOL     OW 8610  10.569   3.750   9.420 -0.1348  0.0786 -0.4431
34173SOL    HW1 8611  10.643   3.735   9.479  0.5415  2.2331 -0.6592
34173SOL    HW2 8612  10.496   3.770   9.478  0.3093  1.3019 -0.2784
34174SOL     OW 8613   5.270   7.368   4.043 -0.3729 -0.2161  0.1720
34174SOL    HW1 8614   5.179   7.397   4.042 -0.4606 -0.2900  2.3498
34174SOL    HW2 8615   5.264   7.274   4.025 -0.7701 -0.3023  0.7255
34175SOL     OW 8616   8.632   5.349   9.610 -0.3759 -0.0175 -0.0753
34175SOL    HW1 8617   8.657   5.425   9.662 -0.3719 -0.2877  0.3214
34175SOL    HW2 8618   8.681   5.277   9.647 -1.8886 -0.6034  0.8695
34176SOL     OW 8619   1.124   8.417   3.128 -0.4781  0.5986  0.2443
34176SOL    HW1 8620   1.043   8.410   3.078 -0.5815  1.3477  0.2999
34176SOL    HW2 8621   1.183   8.466   3.071 -0.8142  2.0552  1.0953
34177SOL     OW 8622   3.520  10.372   3.358 -0.4538 -0.0951  0.1880
34177SOL    HW1 8623   3.616  10.372   3.355 -0.3472 -2.3712  1.5608
34177SOL    HW2 8624   3.496  10.465   3.363  1.6453  0.5308 -0.3042
34178SOL     OW 8625   9.364  10.297   1.859 -0.0378 -0.0491  0.0218
34178SOL    HW1 8626   9.408  10.338   1.785 -2.3442 -1.7914 -2.5012
34178SOL    HW2 8627   9.434  10.249   1.905  1.4204  0.8274 -1.1852
34179SOL     OW 8628   6.792   1.385   5.948  0.0559  0.0273 -0.0855
34179SOL    HW1 8629   6.790   1.331   5.869  0.5907  0.5673 -0.4849
34179SOL    HW2 8630   6.807   1.474   5.915 -0.9596  0.4399  0.5453
34180SOL     OW 8631   4.665   1.775   5.111  0.1026 -0.7062  0.7363
34180SOL    HW1 8632   4.712   1.698   5.079 -2.1418 -2.0511  0.4557
34180SOL    HW2 8633   4.630   1.816   5.032  0.2570 -0.0985  0.9808
34181SOL     OW 8634   3.835   1.975   6.794  0.4487 -0.8875 -0.0306
34181SOL    HW1 8635   3.908   1.950   6.850  2.1229  1.5029 -0.9802
34181SOL    HW2 8636   3.798   2.053   6.835 -1.9741 -2.2689  0.6616
34182SOL     OW 8637   7.587   6.700   6.330  0.2105 -0.1967  0.2868
34182SOL    HW1 8638   7.595   6.605   6.322  0.7055 -0.1520  0.2114
34182SOL    HW2 8639   7.520   6.713   6.398  0.2776 -0.5978  0.4321
34183SOL     OW 8640   6.884   9.115   3.010 -0.5410 -0.4125  0.1798
34183SOL    HW1 8641   6.950   9.088   3.074  0.3864 -1.0767 -1.0195
34183SOL    HW2 8642   6.885   9.211   3.014  1.8824 -0.3101 -1.1188
34184SOL     OW 8643  10.133   0.148   6.256  0.1036  0.0564  0.2098
34184SOL    HW1 8644  10.110   0.065   6.298 -0.0052  0.3632  0.7739
34184SOL    HW2 8645  10.134   0.129   6.162  0.0280 -0.5670  0.3337
34185SOL     OW 8646   0.188  10.705   1.526  0.0773  0.2581  0.0057
34185SOL    HW1 8647   0.283  10.708   1.535  0.2603  1.8444 -1.7608
34185SOL    HW2 8648   0.173  10.695   1.433 -1.5139 -0.7623  0.3395
34186SOL     OW 8649   6.755   9.572   8.777  0.4468  0.7248  0.1070
34186SOL    HW1 8650   6.848   9.553   8.778  0.2365 -0.4046  1.0376
34186SOL    HW2 8651   6.747   9.654   8.729  1.7944  0.2107 -1.0581
34187SOL     OW 8652   0.875   9.015   9.889  0.1008 -0.3725 -0.0459
34187SOL    HW1 8653   0.960   9.010   9.932  0.8212  0.0066 -1.3499
34187SOL    HW2 8654   0.851   8.924   9.872  1.0285 -0.4500 -1.0821
34188SOL     OW 8655   4.907   0.558   5.304 -0.6296 -0.1399  0.7536
34188SOL    HW1 8656   4.957   0.588   5.228  1.1883 -0.3454  1.8062
34188SOL    HW2 8657   4.844   0.629   5.321  0.2679  0.8013  0.2363
34189SOL     OW 8658  10.212   4.321   6.193  0.2231 -0.4108 -0.0698
34189SOL    HW1 8659  10.227   4.330   6.099  0.1233  1.5016  0.0742
34189SOL    HW2 8660  10.140   4.258   6.200  0.6445 -1.0487 -1.2302
34190SOL     OW 8661   2.785   1.851   0.982 -0.3608 -0.7130 -0.2131
34190SOL    HW1 8662   2.712   1.876   1.040 -0.6749 -0.2473 -0.7905
34190SOL    HW2 8663   2.863   1.882   1.027 -0.6613  0.3427 -0.3791
34191SOL     OW 8664   2.959   6.480   0.911  0.4009 -0.5854  1.0244
34191SOL    HW1 8665   3.051   6.501   0.924  1.2903 -2.2117 -1.9434
34191SOL    HW2 8666   2.928   6.543   0.846  0.6261 -2.5762 -1.1115
34192SOL     OW 8667   4.694   1.796   1.224 -0.2470 -0.1142  0.8235
34192SOL    HW1 8668   4.751   1.728   1.257 -0.5264 -0.5207  0.4778
34192SOL    HW2 8669   4.607   1.755   1.219  0.1144 -0.7265 -2.2747
34193SOL     OW 8670   6.888  10.452   7.338 -0.3828  0.2052  0.3899
34193SOL    HW1 8671   6.978  10.444   7.370 -0.5975 -1.3856  0.6662
34193SOL    HW2 8672   6.861  10.362   7.319 -0.9436  0.8805 -2.4346
34194SOL     OW 8673   8.623  10.843   4.291 -0.1924 -0.3472  0.0877
34194SOL    HW1 8674   8.642  10.752   4.313  0.4694  0.2342  2.0824
34194SOL    HW2 8675   8.549  10.867   4.347 -1.6500 -0.1655 -1.7905
34195SOL     OW 8676   4.588   2.243   8.744  0.5879  0.4095  0.4303
34195SOL    HW1 8677   4.675   2.209   8.723  0.3530 -2.0941  2.8485
34195SOL    HW2 8678   4.601   2.294   8.824 -0.0491  0.6852  0.3620
34196SOL     OW 8679   1.179   2.255   0.213  0.6946 -0.3077  0.5055
34196SOL    HW1 8680   1.133   2.260   0.297  1.7231  0.7109  1.0383
34196SOL    HW2 8681   1.243   2.185   0.224  1.5865  0.5506  0.9976
34197SOL     OW 8682   2.296   4.003   1.174 -0.8003 -0.1607 -0.3142
34197SOL    HW1 8683   2.215   4.016   1.126 -0.8607 -1.3779 -0.5601
34197SOL    HW2 8684   2.356   3.965   1.110 -0.7356 -1.3574  0.4322
34198SOL     OW 8685   1.927   5.184   7.701  0.1313  0.4264 -0.3836
34198SOL    HW1 8686   1.921   5.145   7.614 -0.1445  0.1403 -0.2370
34198SOL    HW2 8687   1.985   5.260   7.689  1.6417 -0.6891 -0.4298
34199SOL     OW 8688   2.946   6.051   5.317  0.0022 -0.1053  0.2009
34199SOL    HW1 8689   2.863   6.058   5.270 -0.1635 -2.8918 -0.0591
34199SOL    HW2 8690   2.922   6.018   5.403  0.8137 -1.0350  0.0904
34200SOL     OW 8691  10.336   8.056   2.987  0.0313 -0.1560  0.2744
34200SOL    HW1 8692  10.411   8.023   2.937 -1.7866 -1.0218 -2.0660
34200SOL    HW2 8693  10.345   8.015   3.073  3.2523  1.3437  0.8089
34201SOL     OW 8694   1.689   6.478   7.464  0.6366  0.3825 -0.0812
34201SOL    HW1 8695   1.606   6.527   7.462 -0.0134 -0.6823 -1.4037
34201SOL    HW2 8696   1.689   6.430   7.381  1.7582 -1.0055  0.6944
34202SOL     OW 8697   5.812  10.660   0.800  0.2033 -0.0347 -0.0048
34202SOL    HW1 8698   5.776  10.665   0.711  0.3252  4.0813 -0.0064
34202SOL    HW2 8699   5.737  10.677   0.857  0.8903  2.0035  0.3584
34203SOL     OW 8700   4.314   5.460   3.757  0.2140 -0.2859 -0.3621
34203SOL    HW1 8701   4.283   5.443   3.846 -1.5893 -0.7525 -1.0464
34203SOL    HW2 8702   4.260   5.532   3.726  2.2376  1.3199 -0.4154
34204SOL     OW 8703   2.910  10.639   9.503 -0.1825 -0.0234  0.5542
34204SOL    HW1 8704   2.913  10.622   9.409  0.2532 -0.1424  0.5876
34204SOL    HW2 8705   2.861  10.565   9.539  2.0545 -1.4966  0.7523
34205SOL     OW 8706   8.878   1.779  10.657 -0.1645  0.1966  0.7341
34205SOL    HW1 8707   8.962   1.821  10.675  1.0547 -1.2771 -1.1102
34205SOL    HW2 8708   8.814   1.849  10.665  1.3435  1.5869  1.2396
34206SOL     OW 8709   2.411   5.740   4.870 -0.1492  0.2138 -0.2944
34206SOL    HW1 8710   2.324   5.717   4.903 -0.6633 -0.0845 -1.7922
34206SOL    HW2 8711   2.419   5.834   4.889 -1.9806  0.9168 -2.5952
34207SOL     OW 8712   8.480   2.666   6.053  0.2855  0.4083 -0.1684
34207SOL    HW1 8713   8.443   2.583   6.081  1.7398 -0.1267  0.2301
34207SOL    HW2 8714   8.495   2.715   6.134  0.3987  0.6350 -0.3227
34208SOL     OW 8715   2.039   1.034   9.788 -0.2349  0.0177 -0.0958
34208SOL    HW1 8716   1.975   0.973   9.825  0.1244  0.2190  0.8911
34208SOL    HW2 8717   2.059   0.998   9.702  0.2438 -1.4907  0.5999
34209SOL     OW 8718   3.660   8.929   9.877  0.0773  0.1646  0.0970
34209SOL    HW1 8719   3.590   8.992   9.894 -0.7753 -1.0786  1.4605
34209SOL    HW2 8720   3.662   8.874   9.956  3.0646  0.5591  0.3783
34210SOL     OW 8721   4.268   3.851   9.292 -0.4141 -0.5490 -0.7839
34210SOL    HW1 8722   4.304   3.830   9.378 -2.1910  0.8842  0.3803
34210SOL    HW2 8723   4.344   3.855   9.234  0.9618 -0.4168  0.9512
34211SOL     OW 8724   3.404   5.246   6.938 -0.7091 -1.2495 -0.1066
34211SOL    HW1 8725   3.412   5.317   7.002 -0.0822 -1.2598 -0.1628
34211SOL    HW2 8726   3.454   5.174   6.976  0.2241 -1.0398 -0.8981
34212SOL     OW 8727   4.751   1.116   8.419  0.2713  0.3081 -0.3327
34212SOL    HW1 8728   4.808   1.080   8.487 -0.6579  0.3745  0.5159
34212SOL    HW2 8729   4.805   1.119   8.341  1.4495  0.4458  0.4605
34213SOL     OW 8730   8.509   2.729   9.640 -0.0896 -0.3044  0.0619
34213SOL    HW1 8731   8.443   2.797   9.652  0.2270  0.1158 -0.5111
34213SOL    HW2 8732   8.463   2.659   9.594 -0.2748 -0.2494  0.1613
34214SOL     OW 8733   4.925   1.833   6.182  0.0425  0.7335  0.1060
34214SOL    HW1 8734   4.906   1.771   6.111 -0.3990 -0.5900  1.3254
34214SOL    HW2 8735   4.842   1.877   6.199  0.0758  0.8419 -0.0139
34215SOL     OW 8736   9.108   1.420   9.684  0.1907 -0.3727 -0.0899
34215SOL    HW1 8737   9.157   1.414   9.602 -1.0779  3.2312 -1.3232
34215SOL    HW2 8738   9.018   1.399   9.661 -0.1344  0.4204  0.3793
34216SOL     OW 8739   9.203   1.158   7.099  0.1062  0.4641  0.5644
34216SOL    HW1 8740   9.111   1.147   7.076  0.2350 -0.5151  0.4590
34216SOL    HW2 8741   9.242   1.204   7.025 -0.6379  2.4726  1.3614
34217SOL     OW 8742   0.029   8.025   2.096  0.3674 -0.2612  0.1832
34217SOL    HW1 8743   0.070   8.095   2.147  0.5629 -0.0138 -0.3069
34217SOL    HW2 8744  -0.062   8.052   2.089  0.4209 -0.1059  0.0824
34218SOL     OW 8745   5.409   6.581   4.940  0.1020  0.2811  0.0229
34218SOL    HW1 8746   5.460   6.503   4.918  0.4934  1.2618 -2.9123
34218SOL    HW2 8747   5.320   6.548   4.952  0.4769 -0.7604  0.1049
34219SOL     OW 8748   5.820   7.838   7.287 -0.8319 -0.2490 -0.4011
34219SOL    HW1 8749   5.833   7.912   7.347 -2.7500 -0.0316 -0.1803
34219SOL    HW2 8750   5.877   7.770   7.321  1.5127  1.3069 -1.0103
34220SOL     OW 8751   9.147   9.740   0.577 -0.2571 -0.0989  0.3882
34220SOL    HW1 8752   9.082   9.763   0.511  1.2085  3.5367  0.0208
34220SOL    HW2 8753   9.197   9.669   0.537 -0.2224  1.1304 -1.9484
34221SOL     OW 8754   4.602   0.143   1.121  0.1167  0.0621  0.0955
34221SOL    HW1 8755   4.512   0.167   1.141 -0.1922  0.2399 -1.3928
34221SOL    HW2 8756   4.648   0.226   1.110  0.2667 -0.0299  0.0192
34222SOL     OW 8757   7.715   2.031  10.925  0.3077  0.7122  0.0463
34222SOL    HW1 8758   7.808   2.049  10.919  0.0764  2.2646  0.8251
34222SOL    HW2 8759   7.710   1.942  10.962  1.4611  0.5536 -0.1526
34223SOL     OW 8760   0.367   0.036   6.027 -0.8023  0.1476  1.2537
34223SOL    HW1 8761   0.373   0.098   6.099 -0.2388  0.0549  1.2903
34223SOL    HW2 8762   0.277   0.044   5.996 -0.9439  0.4477  1.7334
34224SOL     OW 8763   7.835   7.718   2.553  0.1532  0.1445 -0.3591
34224SOL    HW1 8764   7.857   7.688   2.465  0.6733 -0.9971  0.1454
34224SOL    HW2 8765   7.919   7.746   2.591  0.1199 -0.4694  0.1792
34225SOL     OW 8766   3.442   6.347   3.505 -0.1992 -0.0610  0.0543
34225SOL    HW1 8767   3.530   6.322   3.476  0.0394  0.9476 -0.1227
34225SOL    HW2 8768   3.411   6.271   3.555  1.2453  0.0211  1.1390
34226SOL     OW 8769  10.097  10.800  10.326 -0.2516  0.3269 -0.2276
34226SOL    HW1 8770  10.185  10.812  10.292  0.1315 -1.1337  0.1744
34226SOL    HW2 8771  10.083  10.705  10.324 -0.4159  0.1698  3.0609
34227SOL     OW 8772   4.787   4.367   3.921 -0.6073 -0.2782 -0.0362
34227SOL    HW1 8773   4.827   4.365   4.008  0.2447 -0.4753 -0.4284
34227SOL    HW2 8774   4.705   4.319   3.932 -0.1240 -0.9993  0.4756
34228SOL     OW 8775   2.604   0.262   7.065 -0.3916 -0.0469 -0.0884
34228SOL    HW1 8776   2.668   0.331   7.076  0.7007 -1.0658  0.1221
34228SOL    HW2 8777   2.655   0.181   7.060 -1.7185 -1.1837  2.5235
34229SOL     OW 8778   2.338   1.009   9.817 -0.1769 -0.2957 -0.4364
34229SOL    HW1 8779   2.254   1.042   9.850 -0.8320 -2.4495  0.2034
34229SOL    HW2 8780   2.345   1.045   9.729 -1.0901  1.0519  0.0118
34230SOL     OW 8781   3.475   0.123   2.825  0.0987  0.6319 -0.1333
34230SOL    HW1 8782   3.528   0.044   2.817 -0.1386  0.3221  1.0911
34230SOL    HW2 8783   3.410   0.116   2.756 -0.7900 -0.9466  0.8074
34231SOL     OW 8784   6.136   3.690   7.010 -0.2502 -0.4507  0.2953
34231SOL    HW1 8785   6.135   3.637   6.930 -0.3267  0.9257 -0.6592
34231SOL    HW2 8786   6.045   3.690   7.040 -0.4278 -0.0959 -0.2335
34232SOL     OW 8787   1.708   9.624  10.403  0.3570  0.6093  0.7739
34232SOL    HW1 8788   1.752   9.651  10.323  0.6240  0.8996  1.0178
34232SOL    HW2 8789   1.723   9.530  10.407 -1.1295  0.2742 -0.4217
34233SOL     OW 8790   0.381   2.134   0.140  0.3162  0.4977  0.0480
34233SOL    HW1 8791   0.417   2.172   0.060 -1.1745  0.5306 -0.6335
34233SOL    HW2 8792   0.306   2.083   0.111 -0.2279  0.4718  1.4168
34234SOL     OW 8793   1.698   1.837   5.237  0.5249 -0.0202  0.2067
34234SOL    HW1 8794   1.772   1.838   5.176 -0.3159 -1.3802 -0.9019
34234SOL    HW2 8795   1.621   1.842   5.180 -0.2905  2.2896  1.3793
34235SOL     OW 8796   1.346   9.228   6.693 -0.6095 -0.5506  0.8603
34235SOL    HW1 8797   1.333   9.182   6.610 -0.1434 -0.7136  0.8794
34235SOL    HW2 8798   1.438   9.216   6.714 -0.1742  1.4459  0.2507
34236SOL     OW 8799   5.282  10.245   3.719  0.0696 -0.2797  0.0184
34236SOL    HW1 8800   5.328  10.308   3.663 -0.8840 -0.0931 -0.5728
34236SOL    HW2 8801   5.332  10.163   3.709  0.7901  0.1363  0.0969
34237SOL     OW 8802   1.661  10.441   2.743 -0.2435  0.2635  0.5148
34237SOL    HW1 8803   1.698  10.439   2.654 -1.0860  0.6725  0.1525
34237SOL    HW2 8804   1.702  10.517   2.785  0.0065  0.1830  0.4223
34238SOL     OW 8805   7.217   4.019  10.407  1.0888  0.1403 -0.1107
34238SOL    HW1 8806   7.281   3.959  10.445  0.0172 -0.4788  0.7691
34238SOL    HW2 8807   7.197   3.982  10.321  1.1914 -0.1995  0.0104
34239SOL     OW 8808   2.397   0.621   7.548  0.1905  0.2673  0.0300
34239SOL    HW1 8809   2.397   0.675   7.469 -0.4042 -1.0415 -0.9096
34239SOL    HW2 8810   2.405   0.531   7.515 -0.1218 -0.3073  1.4607
34240SOL     OW 8811   1.745   6.270   1.615  0.2167 -0.5434 -0.4814
34240SOL    HW1 8812   1.806   6.311   1.677 -1.9745  0.9127  0.8673
34240SOL    HW2 8813   1.763   6.176   1.623  0.3821 -0.3760  2.0285
34241SOL     OW 8814   5.639   5.416   3.609 -0.0380 -0.3160  0.4965
34241SOL    HW1 8815   5.673   5.332   3.640 -0.8905 -0.6893  0.4475
34241SOL    HW2 8816   5.548   5.397   3.584 -0.0376  0.4756 -0.1343
34242SOL     OW 8817   3.991   9.449   7.619 -0.3604 -0.0546  0.1626
34242SOL    HW1 8818   3.967   9.358   7.637 -0.2239 -0.2970 -0.8264
34242SOL    HW2 8819   4.014   9.450   7.526  0.3604  0.8368  0.3334
34243SOL     OW 8820   1.019   9.262   5.559 -0.0211 -0.7674  0.1843
34243SOL    HW1 8821   1.086   9.297   5.618  1.0026 -0.4582 -1.1160
34243SOL    HW2 8822   0.953   9.332   5.553 -0.5620 -1.1307  1.5823
34244SOL     OW 8823   8.694  10.737   9.123  0.5074 -0.0180 -0.8892
34244SOL    HW1 8824   8.721  10.656   9.166  0.3888  0.1784 -0.4402
34244SOL    HW2 8825   8.601  10.723   9.102 -0.4385  1.1184  1.9415
34245SOL     OW 8826   6.713  10.137   6.543  0.1349 -0.3042  0.0771
34245SOL    HW1 8827   6.684  10.157   6.454 -0.4571  0.4543  0.4327
34245SOL    HW2 8828   6.806  10.158   6.543  0.0319  0.1694 -0.2308
34246SOL     OW 8829   6.036   4.216   6.417  0.4024 -0.8708  0.1810
34246SOL    HW1 8830   5.977   4.242   6.488  0.7853 -1.4432  0.7151
34246SOL    HW2 8831   5.980   4.217   6.339 -0.0135 -0.1974  0.4756
34247SOL     OW 8832   1.556   0.084   1.308 -0.5550 -0.3564  0.1972
34247SOL    HW1 8833   1.519   0.064   1.394  0.3690 -2.5736  0.1326
34247SOL    HW2 8834   1.541   0.005   1.256  2.1789 -0.4987 -0.5300
34248SOL     OW 8835   2.504  10.275   6.670 -0.2513  0.2251 -0.4159
34248SOL    HW1 8836   2.531  10.225   6.593 -0.6831  0.1403 -0.5162
34248SOL    HW2 8837   2.506  10.366   6.641  1.5384  0.3744  0.0686
34249SOL     OW 8838   2.611   5.363   1.788 -0.0138  0.3842 -0.7245
34249SOL    HW1 8839   2.666   5.426   1.835 -1.5854 -0.1041  2.0072
34249SOL    HW2 8840   2.526   5.367   1.833 -0.1347 -3.8697 -0.1233
34250SOL     OW 8841   1.882   9.728   2.669 -0.2450  0.0527  0.0540
34250SOL    HW1 8842   1.812   9.701   2.610 -0.5566  0.4936  0.2144
34250SOL    HW2 8843   1.878   9.666   2.742 -0.7366  0.3152  0.2560
34251SOL     OW 8844   6.598  10.298   6.724 -0.0578  0.2699 -0.3103
34251SOL    HW1 8845   6.639  10.258   6.801 -0.1144  0.0965 -0.3698
34251SOL    HW2 8846   6.630  10.246   6.650  1.6129  1.6610 -0.6380
34252SOL     OW 8847   5.407   7.879   5.095 -0.0596 -0.2204 -0.3096
34252SOL    HW1 8848   5.387   7.947   5.031 -0.9714  0.4172  0.6184
34252SOL    HW2 8849   5.441   7.806   5.043 -1.5888 -0.0466 -1.6077
34253SOL     OW 8850   9.593   6.126   5.954 -0.1925 -0.0183  0.6528
34253SOL    HW1 8851   9.632   6.154   6.037 -0.9671  0.6631  0.7981
34253SOL    HW2 8852   9.534   6.197   5.929  1.6683  0.8620 -1.6469
34254SOL     OW 8853   6.688   7.120   4.211  0.6880 -0.4122  0.2758
34254SOL    HW1 8854   6.674   7.186   4.280 -1.3924 -0.8545  0.3442
34254SOL    HW2 8855   6.693   7.037   4.258  2.7562 -0.4366  0.1379
34255SOL     OW 8856   0.356   9.265   5.177 -0.7013 -0.1401 -0.2116
34255SOL    HW1 8857   0.303   9.188   5.193 -1.7238  0.7765  1.0713
34255SOL    HW2 8858   0.442   9.243   5.214 -0.4918 -1.1991 -1.2610
34256SOL     OW 8859   2.180   8.530   5.135  0.2445  0.1910 -0.7465
34256SOL    HW1 8860   2.196   8.495   5.047 -2.2167 -0.4183 -1.0297
34256SOL    HW2 8861   2.093   8.569   5.129 -0.1368 -0.1872  1.5239
34257SOL     OW 8862   8.403   9.113   4.644 -0.2436 -0.1870  0.1216
34257SOL    HW1 8863   8.339   9.051   4.608  0.1417 -1.4352  1.4878
34257SOL    HW2 8864   8.419   9.082   4.733  0.7884  1.2708  0.4847
34258SOL     OW 8865   0.834   1.395   2.555 -0.1699  0.0248  0.1211
34258SOL    HW1 8866   0.811   1.452   2.482 -0.1146 -0.7263 -0.5030
34258SOL    HW2 8867   0.928   1.380   2.544 -0.0777  0.2471  0.5963
34259SOL     OW 8868   5.168  10.220   2.749  0.1107 -0.0634 -0.3353
34259SOL    HW1 8869   5.165  10.311   2.720 -0.5109  0.3671  0.9791
34259SOL    HW2 8870   5.108  10.174   2.690 -1.4819  0.8664  0.5066
34260SOL     OW 8871   7.786   0.634   7.648  0.2849  0.5007 -0.1883
34260SOL    HW1 8872   7.696   0.607   7.670  0.5992 -0.1120  0.3946
34260SOL    HW2 8873   7.829   0.644   7.732  0.7034  1.0201 -0.4623
34261SOL     OW 8874   8.357   1.999  10.550  0.3057 -0.1862  0.2811
34261SOL    HW1 8875   8.440   1.981  10.595  0.1364  0.4247  0.8445
34261SOL    HW2 8876   8.341   2.092  10.565 -0.3447 -0.2407 -0.0610
34262SOL     OW 8877   8.439   6.711   5.939  0.4358 -0.2341  0.0654
34262SOL    HW1 8878   8.374   6.644   5.916  1.5401 -1.3566  0.0932
34262SOL    HW2 8879   8.407   6.791   5.897 -1.7972 -0.3465  1.3971
34263SOL     OW 8880   4.067   5.846   8.131 -0.3420 -0.0685  0.2600
34263SOL    HW1 8881   4.140   5.810   8.080 -0.7660  1.7987 -1.8234
34263SOL    HW2 8882   3.988   5.819   8.083 -0.6547  4.2287 -2.0824
34264SOL     OW 8883   9.386   7.644  10.347  0.2471 -0.3548 -0.6385
34264SOL    HW1 8884   9.341   7.721  10.382 -0.1138 -0.2057 -1.4139
34264SOL    HW2 8885   9.429   7.605  10.423  1.1537  1.0888 -0.3676
34265SOL     OW 8886   6.474   5.649   7.766  0.0376 -0.3881 -0.3500
34265SOL    HW1 8887   6.504   5.558   7.769 -1.5005 -0.9138 -0.3423
34265SOL    HW2 8888   6.432   5.664   7.850  2.4795  1.1793  0.7148
34266SOL     OW 8889   5.686   8.739   3.425 -0.4140 -0.2234  0.1614
34266SOL    HW1 8890   5.665   8.794   3.350  3.5590  2.4966  0.7440
34266SOL    HW2 8891   5.712   8.655   3.387  1.3744  1.0462 -1.6164
34267SOL     OW 8892   0.795   0.045   2.260  0.0301  0.3087  0.1717
34267SOL    HW1 8893   0.828  -0.010   2.189 -0.5942  0.3237 -0.1323
34267SOL    HW2 8894   0.873   0.089   2.294  0.6000 -1.0363  0.6679
34268SOL     OW 8895  10.820   1.408   5.252  0.6157  0.1728 -0.4000
34268SOL    HW1 8896  10.883   1.336   5.244  0.8257  0.4027 -0.8787
34268SOL    HW2 8897  10.776   1.410   5.167  0.2000  0.2310 -0.1811
34269SOL     OW 8898   2.326   7.912  10.834 -0.1021  0.9081  0.3100
34269SOL    HW1 8899   2.383   7.988  10.847 -0.3220  0.9912  0.8127
34269SOL    HW2 8900   2.313   7.908  10.740  0.3866  1.1483  0.2285
34270SOL     OW 8901   3.210   1.597   3.634  0.1329 -0.6264 -0.0554
34270SOL    HW1 8902   3.261   1.586   3.714 -0.1463 -0.2275  0.1799
34270SOL    HW2 8903   3.161   1.678   3.648 -2.6510 -2.3222  0.8545
34271SOL     OW 8904   7.887   1.653   2.019  0.1788  0.1631  0.2602
34271SOL    HW1 8905   7.950   1.720   1.994 -0.9657  1.1379 -0.0985
34271SOL    HW2 8906   7.940   1.577   2.041  1.4460  0.7348 -0.7090
34272SOL     OW 8907  10.254   9.496   8.425  0.0342  0.6886 -0.1981
34272SOL    HW1 8908  10.242   9.554   8.350 -0.5258 -0.6208 -1.1617
34272SOL    HW2 8909  10.348   9.481   8.430  0.1704  1.5674 -0.0071
34273SOL     OW 8910   8.642   7.179   8.623  0.0327 -0.0470  0.2824
34273SOL    HW1 8911   8.709   7.235   8.584  0.5737 -0.8280  0.0516
34273SOL    HW2 8912   8.681   7.145   8.703 -0.9644  1.3028  1.4043
34274SOL     OW 8913   8.187  10.927   3.791 -1.0634 -0.5182 -0.0985
34274SOL    HW1 8914   8.103  10.971   3.805 -0.1366  1.0935  0.7006
34274SOL    HW2 8915   8.173  10.873   3.713 -2.5526  0.4708 -0.5650
34275SOL     OW 8916   6.957   5.620   5.596  0.1110  0.4841  0.5519
34275SOL    HW1 8917   7.046   5.595   5.573 -0.4515 -1.2693  0.1380
34275SOL    HW2 8918   6.967   5.688   5.662  1.7757 -0.9880  1.9177
34276SOL     OW 8919   5.307   4.367   4.152  0.3988  0.1350  0.7280
34276SOL    HW1 8920   5.238   4.301   4.160 -0.1806  0.4817 -0.8523
34276SOL    HW2 8921   5.264   4.449   4.178  0.3080  0.2925  0.1010
34277SOL     OW 8922   4.361   6.743   7.073  0.1825  0.0782  0.1361
34277SOL    HW1 8923   4.314   6.815   7.033  1.2487 -0.1109 -1.5405
34277SOL    HW2 8924   4.304   6.667   7.060  0.7933 -0.1089 -1.6784
34278SOL     OW 8925   7.289   5.746   4.110  0.0245 -0.1010 -0.1336
34278SOL    HW1 8926   7.378   5.714   4.119 -0.4588 -1.0426  1.7119
34278SOL    HW2 8927   7.246   5.683   4.053  0.2039 -0.3424  0.0002
34279SOL     OW 8928   9.036   0.950  10.612  0.1440 -0.4107 -0.2443
34279SOL    HW1 8929   8.962   0.891  10.622 -0.6650  0.4420 -1.0430
34279SOL    HW2 8930   9.004   1.020  10.556  1.9124 -0.6222 -1.5965
34280SOL     OW 8931  10.056   9.090   1.405  0.1967  0.0022  0.1305
34280SOL    HW1 8932  10.042   9.088   1.310 -0.5857  0.4747  0.2212
34280SOL    HW2 8933  10.148   9.067   1.417  0.0675 -1.0050 -0.6816
34281SOL     OW 8934   4.712   0.350   2.422  0.5663  0.0112  0.2984
34281SOL    HW1 8935   4.774   0.359   2.349  0.8473  1.2416  0.6615
34281SOL    HW2 8936   4.681   0.440   2.438  2.4835  0.2624  3.3938
34282SOL     OW 8937   8.822   3.811   9.515  0.4384  0.1149  0.3522
34282SOL    HW1 8938   8.844   3.731   9.562  2.3560 -0.0270 -0.6854
34282SOL    HW2 8939   8.799   3.874   9.584 -3.1457 -1.7678  1.1261
34283SOL     OW 8940  10.148   9.481   3.142 -0.0449  0.3030 -0.2119
34283SOL    HW1 8941  10.200   9.542   3.194  0.4788 -0.1104 -0.2462
34283SOL    HW2 8942  10.083   9.446   3.203 -0.8777  1.4860 -0.3787
34284SOL     OW 8943  10.190   4.153   6.483  0.0015  0.2428  0.0164
34284SOL    HW1 8944  10.260   4.088   6.474  0.9222  0.9943  1.4738
34284SOL    HW2 8945  10.166   4.150   6.575 -2.6187 -0.6875 -0.6069
34285SOL     OW 8946   5.316   2.917   8.332  0.1078  0.1249  0.3731
34285SOL    HW1 8947   5.237   2.914   8.279 -0.1050  1.2065  0.6170
34285SOL    HW2 8948   5.288   2.956   8.415 -0.0071 -3.1992  2.0699
34286SOL     OW 8949   2.169   9.453   3.642  0.1678 -0.1770 -0.1125
34286SOL    HW1 8950   2.126   9.368   3.633 -0.1188  0.0398 -0.8821
34286SOL    HW2 8951   2.111   9.514   3.596 -0.8545  0.8834  2.3782
34287SOL     OW 8952   1.969   1.706   0.960 -0.3281  0.2272 -0.0594
34287SOL    HW1 8953   2.017   1.634   1.000  0.9077  1.1361  0.1582
34287SOL    HW2 8954   1.992   1.702   0.868 -1.6596 -0.7028 -0.3739
34288SOL     OW 8955   4.333   3.562   1.166 -0.2796 -0.3068  0.2442
34288SOL    HW1 8956   4.358   3.562   1.074 -0.7051 -0.5124  0.1222
34288SOL    HW2 8957   4.358   3.649   1.198 -0.0086 -0.2825 -0.0324
34289SOL     OW 8958   7.352   8.077   6.921 -0.4905  0.2108  0.5678
34289SOL    HW1 8959   7.281   8.015   6.938 -0.4560  0.0235  0.0476
34289SOL    HW2 8960   7.375   8.112   7.007 -0.2820 -0.7355  0.9010
34290SOL     OW 8961  10.135   6.116   7.709  0.2502  0.1013  0.7995
34290SOL    HW1 8962  10.163   6.208   7.707 -3.4511  1.3868 -0.2244
34290SOL    HW2 8963  10.106   6.102   7.800  0.1996  0.1914  0.7978
34291SOL     OW 8964  10.591   1.253   0.692 -0.2344  1.0242 -0.1272
34291SOL    HW1 8965  10.618   1.337   0.654 -1.6955  1.1637 -0.9527
34291SOL    HW2 8966  10.514   1.275   0.745  0.2159  0.4113  0.7894
34292SOL     OW 8967   1.606   8.958   2.624 -0.3195  0.0931 -0.3762
34292SOL    HW1 8968   1.648   9.008   2.554 -1.1029  0.9518 -0.2539
34292SOL    HW2 8969   1.666   8.885   2.640 -1.1448 -1.5016 -3.5274
34293SOL     OW 8970   7.886   9.941   7.550 -0.5566 -0.3134 -0.0975
34293SOL    HW1 8971   7.866   9.981   7.466  0.3682 -1.1963 -0.7635
34293SOL    HW2 8972   7.847   9.999   7.615  0.3984  1.4521 -1.0478
34294SOL     OW 8973   6.019   6.319   2.832  0.6273  0.8850  0.3156
34294SOL    HW1 8974   5.930   6.291   2.816  0.9969  0.4698 -1.1867
34294SOL    HW2 8975   6.018   6.354   2.921 -0.6494 -0.5712  0.9071
34295SOL     OW 8976   7.531  10.217   7.867 -0.1479  0.0974 -0.4362
34295SOL    HW1 8977   7.466  10.278   7.832  0.1098 -0.0303 -1.1548
34295SOL    HW2 8978   7.534  10.235   7.961 -2.6339 -1.1800 -0.0210
34296SOL     OW 8979   1.416  10.697   8.167 -0.2795  0.1314  0.1737
34296SOL    HW1 8980   1.415  10.793   8.170  0.7231  0.1351  0.7298
34296SOL    HW2 8981   1.401  10.670   8.258  0.8044 -0.2046  0.2706
34297SOL     OW 8982   5.679   3.674   8.520 -0.1192  0.5802  0.0057
34297SOL    HW1 8983   5.756   3.718   8.556 -0.8233  0.5609  1.5733
34297SOL    HW2 8984   5.620   3.745   8.497  0.1843  0.5760 -0.8404
34298SOL     OW 8985   3.423   1.051   5.563  0.5657  0.1694  0.5271
34298SOL    HW1 8986   3.416   1.000   5.482  0.4219  0.0359  0.6244
34298SOL    HW2 8987   3.461   0.991   5.627  1.7494  0.6054  0.2610
34299SOL     OW 8988   3.177   3.631   5.686 -0.1923 -0.3850 -0.1611
34299SOL    HW1 8989   3.226   3.668   5.760 -0.5320  0.6833 -0.4530
34299SOL    HW2 8990   3.131   3.706   5.648 -2.4685 -1.4086  0.4197
34300SOL     OW 8991   2.826   2.471  10.165  0.9443  0.6217 -0.3105
34300SOL    HW1 8992   2.877   2.552  10.170  0.2244  1.0298  1.2255
34300SOL    HW2 8993   2.884   2.404  10.201  1.3856  0.5391 -1.1714
34301SOL     OW 8994   5.221   5.979   2.753 -0.2943  0.1453  0.2505
34301SOL    HW1 8995   5.193   6.001   2.664  1.2424 -4.0714 -1.5523
34301SOL    HW2 8996   5.299   6.031   2.768  0.3999 -0.2696 -1.6458
34302SOL     OW 8997   1.507   0.355   0.079  0.0493  0.7823 -0.2999
34302SOL    HW1 8998   1.531   0.262   0.076 -0.2933  0.7118 -1.2195
34302SOL    HW2 8999   1.586   0.402   0.052  0.0243  0.7221 -0.4762
34303SOL     OW 9000   5.566   3.264   3.707  0.2173 -0.3148  0.4622
34303SOL    HW1 9001   5.481   3.302   3.729 -0.1357 -0.9382  0.1745
34303SOL    HW2 9002   5.612   3.259   3.791 -0.1923 -0.3680  0.6845
34304SOL     OW 9003  10.560   8.513   9.957  0.1845 -0.4587  0.4394
34304SOL    HW1 9004  10.487   8.572   9.937  1.0137  0.4208 -0.1295
34304SOL    HW2 9005  10.563   8.510  10.053 -0.2941 -0.1205  0.4702
34305SOL     OW 9006   1.866   6.665   2.023  0.1230  0.3794  0.5459
34305SOL    HW1 9007   1.777   6.658   1.987  0.2013  0.6456  0.2980
34305SOL    HW2 9008   1.872   6.756   2.052  0.2278  0.2934  0.8043
34306SOL     OW 9009   2.003  10.309   0.610 -0.2289  0.3784 -0.1502
34306SOL    HW1 9010   2.080  10.269   0.649 -0.3168  0.0582 -0.3002
34306SOL    HW2 9011   2.001  10.398   0.646  0.6234  0.6336 -0.7184
34307SOL     OW 9012   2.912   0.214   6.510  0.1728 -0.5695 -0.0889
34307SOL    HW1 9013   2.913   0.273   6.435  1.0820  1.5691  1.5027
34307SOL    HW2 9014   2.872   0.264   6.580  0.2872 -2.1254  1.1551
34308SOL     OW 9015   9.844   3.810   8.600  0.3119 -0.3628 -0.0390
34308SOL    HW1 9016   9.899   3.860   8.661 -1.5833  0.4368  1.1006
34308SOL    HW2 9017   9.829   3.727   8.644 -1.6931  0.4997  1.0541
34309SOL     OW 9018   7.203   3.529   1.616 -0.2797 -0.8463  0.1928
34309SOL    HW1 9019   7.216   3.466   1.687 -0.0222 -0.6864  0.2899
34309SOL    HW2 9020   7.163   3.478   1.546  0.1047 -1.1640  0.1961
34310SOL     OW 9021   5.610   6.766   4.705 -0.3443  0.2194  0.4731
34310SOL    HW1 9022   5.515   6.754   4.715 -0.4096  0.0910 -0.2329
34310SOL    HW2 9023   5.619   6.821   4.627  0.1121  1.4884  1.3785
34311SOL     OW 9024   4.370   4.545   9.770 -0.1179 -0.2093  0.9316
34311SOL    HW1 9025   4.311   4.562   9.696 -0.5333 -1.1649  1.0252
34311SOL    HW2 9026   4.354   4.617   9.831 -1.8912 -0.9238  1.3684
34312SOL     OW 9027  10.092   4.796   7.217  0.5772 -0.1237  0.1028
34312SOL    HW1 9028  10.065   4.708   7.190 -1.8696  0.6707 -0.3835
34312SOL    HW2 9029  10.142   4.783   7.297 -0.4324 -1.9263  0.4999
34313SOL     OW 9030   1.416   9.976   8.655  0.8718 -0.0122  0.2183
34313SOL    HW1 9031   1.405   9.913   8.584 -0.4188  1.8648 -1.3555
34313SOL    HW2 9032   1.499  10.020   8.636  0.9530 -0.1038  0.3617
34314SOL     OW 9033   0.120  10.809   3.600 -0.1194  0.5876 -0.4983
34314SOL    HW1 9034   0.094  10.820   3.508  0.9811  1.3401 -0.7456
34314SOL    HW2 9035   0.207  10.771   3.595 -0.3887 -0.1416  0.2687
34315SOL     OW 9036   4.694   5.380  10.567  0.2805 -1.1895  0.0321
34315SOL    HW1 9037   4.641   5.417  10.497  1.1885  0.4173  0.1493
34315SOL    HW2 9038   4.784   5.383  10.534  0.9583  1.1545  1.7875
34316SOL     OW 9039   6.551   9.558   1.898 -0.1702 -0.1069  0.1375
34316SOL    HW1 9040   6.571   9.495   1.968  0.0196 -0.1619  0.0333
34316SOL    HW2 9041   6.611   9.631   1.914 -0.3718  0.0399  0.2421
34317SOL     OW 9042  10.634   7.260   5.372 -0.0728 -0.7565  0.4825
34317SOL    HW1 9043  10.550   7.221   5.346 -0.1949  0.4018 -0.9854
34317SOL    HW2 9044  10.666   7.302   5.292  0.1026  2.0458  1.9346
34318SOL     OW 9045   5.576   0.017   2.879 -0.6472  0.4717  0.2931
34318SOL    HW1 9046   5.604   0.061   2.799 -1.2464  1.1499  0.4410
34318SOL    HW2 9047   5.501  -0.036   2.853 -0.1056 -0.2445  0.1743
34319SOL     OW 9048   7.558   8.660   7.369  0.1589  0.3090 -0.3450
34319SOL    HW1 9049   7.503   8.726   7.410  0.6035  0.1772  0.4808
34319SOL    HW2 9050   7.519   8.646   7.283 -0.9884  0.3419  0.1556
34320SOL     OW 9051   0.751   3.261   5.599  0.0633  0.5991  0.0579
34320SOL    HW1 9052   0.684   3.240   5.664 -0.0287  1.6432  0.3276
34320SOL    HW2 9053   0.730   3.207   5.524 -1.3162  1.1591  0.0128
34321SOL     OW 9054   1.592   4.495   4.529 -0.2420 -0.7463  0.2160
34321SOL    HW1 9055   1.539   4.553   4.583 -0.1528 -0.3907 -0.0734
34321SOL    HW2 9056   1.533   4.462   4.462  0.2989  1.1885 -1.3216
34322SOL     OW 9057   7.812   8.546   7.312  0.1707 -0.1974  0.1438
34322SOL    HW1 9058   7.770   8.461   7.301  1.0904 -0.4105 -2.9223
34322SOL    HW2 9059   7.740   8.609   7.316 -0.4858 -0.9621  0.4952
34323SOL     OW 9060   9.860   0.587   9.734  0.0827  0.9675 -0.1628
34323SOL    HW1 9061   9.811   0.669   9.737 -0.6046  0.5468  0.5796
34323SOL    HW2 9062   9.900   0.580   9.821 -1.1231 -0.2159  0.3218
34324SOL     OW 9063   3.768   7.007   2.441  0.1373 -0.3179 -0.0699
34324SOL    HW1 9064   3.675   6.987   2.429  0.5048 -1.2718 -1.6650
34324SOL    HW2 9065   3.792   7.054   2.361  1.5753 -2.3500 -0.9311
34325SOL     OW 9066   0.208   8.234   4.799  0.3865  0.0148 -0.1232
34325SOL    HW1 9067   0.129   8.187   4.826  0.1522 -1.1095 -2.4338
34325SOL    HW2 9068   0.180   8.287   4.725  1.2820  1.6694  0.6813
34326SOL     OW 9069   3.615   2.521   1.636  0.1052  0.6506 -0.2958
34326SOL    HW1 9070   3.582   2.595   1.687  0.6285  0.5723  0.1765
34326SOL    HW2 9071   3.589   2.444   1.686 -0.1748  0.5283 -0.6274
34327SOL     OW 9072   9.689  10.764   0.200 -0.2547 -0.3611 -0.3778
34327SOL    HW1 9073   9.736  10.775   0.118  0.1212 -0.9343 -0.2419
34327SOL    HW2 9074   9.658  10.674   0.199  1.1510 -0.8994  0.8216
34328SOL     OW 9075   9.692   9.197   9.969 -0.1145  0.2117  0.0319
34328SOL    HW1 9076   9.678   9.256   9.895 -1.9437  0.4857  0.5662
34328SOL    HW2 9077   9.693   9.110   9.931 -2.2420  0.2624 -0.2123
34329SOL     OW 9078   4.233   9.828   2.364 -0.2205 -0.4359 -0.1527
34329SOL    HW1 9079   4.307   9.768   2.362  1.1358  1.1296  0.8274
34329SOL    HW2 9080   4.220   9.849   2.456 -1.3264 -0.0068 -0.3823
34330SOL     OW 9081   1.539   1.089   9.866 -0.2913  0.2090  0.0115
34330SOL    HW1 9082   1.483   1.072   9.790  0.1490  0.9593 -0.4986
34330SOL    HW2 9083   1.529   1.183   9.882 -0.7196 -0.0254  1.1659
34331SOL     OW 9084   6.677   2.051   9.729  0.1454  0.2640 -0.5782
34331SOL    HW1 9085   6.749   2.069   9.668  1.0930  0.0022  0.4204
34331SOL    HW2 9086   6.671   1.955   9.730  0.2626  0.2573 -0.1429
34332SOL     OW 9087   0.710   9.038   7.114 -0.1220  0.1410  0.6289
34332SOL    HW1 9088   0.769   8.977   7.070 -1.1817 -0.8059  0.4611
34332SOL    HW2 9089   0.656   9.074   7.044  0.1775  0.9196  0.7912
34333SOL     OW 9090   0.308  10.585  10.248 -0.6697 -0.5479 -0.4661
34333SOL    HW1 9091   0.338  10.639  10.176 -0.1419  1.7984  1.4027
34333SOL    HW2 9092   0.388  10.543  10.281 -0.7934 -1.0125 -0.7471
34334SOL     OW 9093   7.039   6.724   9.336  0.0020  0.2974  0.5199
34334SOL    HW1 9094   7.012   6.634   9.321 -0.5088  0.6557 -0.8398
34334SOL    HW2 9095   6.973   6.758   9.397 -0.6152  0.1467 -0.0508
34335SOL     OW 9096   1.587   5.428   3.606  0.3266  0.0195 -0.2947
34335SOL    HW1 9097   1.566   5.345   3.564 -0.4489 -0.5321  1.0915
34335SOL    HW2 9098   1.528   5.491   3.566 -1.2631 -0.7349  0.7466
34336SOL     OW 9099   7.233  10.042   3.741  0.4438  0.1589 -0.0152
34336SOL    HW1 9100   7.267  10.028   3.653 -0.5816  0.5997 -0.5038
34336SOL    HW2 9101   7.138  10.033   3.732 -0.0602  3.5233  0.3084
34337SOL     OW 9102   0.485   4.507  10.322  0.2360 -0.1484  0.7778
34337SOL    HW1 9103   0.524   4.439  10.376  1.2102 -0.0017  0.2822
34337SOL    HW2 9104   0.477   4.583  10.380  0.7847 -0.1531  0.8633
34338SOL     OW 9105   5.226   0.987   5.614  0.3046  0.1333 -0.0711
34338SOL    HW1 9106   5.267   0.911   5.656  1.8824  0.6169 -0.6634
34338SOL    HW2 9107   5.299   1.045   5.592 -0.5396  0.3232 -2.6590
34339SOL     OW 9108   2.849   3.849   4.053 -0.1781 -0.4309 -0.1588
34339SOL    HW1 9109   2.910   3.904   4.100 -1.2660  0.5445  0.1607
34339SOL    HW2 9110   2.817   3.904   3.981 -1.7326 -0.3783  0.5228
34340SOL     OW 9111   1.533   4.890   7.154  0.5887  0.4739 -0.3354
34340SOL    HW1 9112   1.440   4.904   7.136  0.8370  1.7397 -0.7390
34340SOL    HW2 9113   1.540   4.896   7.250  0.5087  2.2156 -0.4154
34341SOL     OW 9114   5.273   3.608   0.286 -0.2515  0.5823  0.4016
34341SOL    HW1 9115   5.314   3.537   0.336 -0.7174  0.4598  0.6169
34341SOL    HW2 9116   5.346   3.653   0.244  0.0853  0.2423  0.6153
34342SOL     OW 9117   6.028   1.218   9.578  0.1640 -0.3530  0.2440
34342SOL    HW1 9118   6.070   1.269   9.647  1.2397  0.4102 -0.9304
34342SOL    HW2 9119   5.943   1.193   9.615  1.1423 -0.9513  2.2591
34343SOL     OW 9120   7.526   3.687   9.850  0.2715  0.0477 -0.5887
34343SOL    HW1 9121   7.524   3.600   9.810  0.6034  0.6788 -2.0632
34343SOL    HW2 9122   7.601   3.684   9.909 -0.6475 -1.1340  0.5491
34344SOL     OW 9123  10.654   1.230   7.021  0.5699  0.1066 -0.0555
34344SOL    HW1 9124  10.733   1.189   6.988 -0.0593 -0.2621 -1.1468
34344SOL    HW2 9125  10.618   1.167   7.083  0.5595 -0.1993 -0.3734
34345SOL     OW 9126   0.114   9.936   1.112 -0.0058 -0.0396  0.2475
34345SOL    HW1 9127   0.152   9.849   1.113  0.6805  0.2583  0.6769
34345SOL    HW2 9128   0.163   9.983   1.044 -0.1837  0.0950  0.2098
34346SOL     OW 9129   1.706   3.557   4.527 -0.0217 -0.1672  0.4250
34346SOL    HW1 9130   1.731   3.465   4.537 -3.0018 -0.9168  2.5045
34346SOL    HW2 9131   1.674   3.564   4.438 -0.2013 -1.2964  0.3837
34347SOL     OW 9132   3.899   9.177   7.767  0.0764  0.2387 -0.2750
34347SOL    HW1 9133   3.805   9.158   7.769  0.2099 -0.4518 -0.1692
34347SOL    HW2 9134   3.928   9.158   7.857  0.5267 -0.7067 -0.6096
34348SOL     OW 9135   8.658   7.277   8.324  0.2063  0.2624 -0.4047
34348SOL    HW1 9136   8.663   7.209   8.256 -0.2316  0.3617 -0.5354
34348SOL    HW2 9137   8.635   7.230   8.404  0.9718  0.1083 -0.2630
34349SOL     OW 9138  10.743   8.974   7.512  0.2676 -0.3587  0.7455
34349SOL    HW1 9139  10.757   9.035   7.439 -1.3038 -0.5302  0.2710
34349SOL    HW2 9140  10.822   8.920   7.513  0.4307 -0.1843 -0.6650
34350SOL     OW 9141   3.268   6.149   1.691  0.6279  0.1139  0.4862
34350SOL    HW1 9142   3.253   6.214   1.760  0.8724  1.6412 -0.8464
34350SOL    HW2 9143   3.237   6.191   1.611  2.5316 -0.6487 -0.7244
34351SOL     OW 9144  10.520  10.800   9.364  0.1218 -0.0352  0.4684
34351SOL    HW1 9145  10.528  10.721   9.418  0.8215 -0.3564 -0.0897
34351SOL    HW2 9146  10.584  10.861   9.399  0.0556  0.0314  0.4722
34352SOL     OW 9147   3.707   6.188   8.445 -0.4973 -0.1233  0.5449
34352SOL    HW1 9148   3.787   6.231   8.474 -0.9850  1.7924 -0.7990
34352SOL    HW2 9149   3.641   6.215   8.509 -0.1368 -1.7668  1.7005
34353SOL     OW 9150  10.381   9.283  10.893 -0.3361 -0.2649  0.0472
34353SOL    HW1 9151  10.342   9.318  10.813 -2.2053 -0.9650  0.5880
34353SOL    HW2 9152  10.475   9.297  10.883 -0.6023  0.3684 -1.9081
34354SOL     OW 9153   6.127   2.425   7.042  0.1235  0.0652 -0.0774
34354SOL    HW1 9154   6.175   2.381   7.112 -2.7579  0.5540  2.4135
34354SOL    HW2 9155   6.139   2.368   6.966  3.3434 -0.5204  0.7222
34355SOL     OW 9156   6.176   6.217   3.818  0.5641 -0.2340 -0.0064
34355SOL    HW1 9157   6.238   6.242   3.887 -0.4047 -0.6497  1.0541
34355SOL    HW2 9158   6.181   6.288   3.754  1.5718  0.1057  0.4232
34356SOL     OW 9159   4.563   9.992  10.122  0.0169  0.2579 -0.1156
34356SOL    HW1 9160   4.573  10.083  10.095 -2.0667  0.7996  0.7711
34356SOL    HW2 9161   4.579   9.993  10.217  0.5919 -0.4275 -0.1957
34357SOL     OW 9162   7.801   0.922   4.148 -0.1215  0.1422 -0.3357
34357SOL    HW1 9163   7.853   0.875   4.213  0.0342  0.0109 -0.5534
34357SOL    HW2 9164   7.725   0.867   4.133 -0.7142  0.7043  0.5561
34358SOL     OW 9165   0.798   9.922   8.860 -0.1257 -0.0243 -0.1138
34358SOL    HW1 9166   0.812   9.828   8.861  0.6045  0.0704 -0.8636
34358SOL    HW2 9167   0.866   9.957   8.918  0.1054  0.1047 -0.4635
34359SOL     OW 9168   2.554   5.614   9.551  0.4575  0.3007 -0.7957
34359SOL    HW1 9169   2.546   5.532   9.503  0.7010 -0.6306  0.7014
34359SOL    HW2 9170   2.628   5.659   9.509  1.2920 -0.9191 -0.6804
34360SOL     OW 9171   8.497   3.853   5.840 -0.1873 -0.3146 -0.0285
34360SOL    HW1 9172   8.493   3.763   5.870 -1.8889 -1.0843 -2.2243
34360SOL    HW2 9173   8.548   3.849   5.759  0.1017  0.7854  0.0774
34361SOL     OW 9174   3.068   4.477   1.366 -0.2942 -0.2192  0.0000
34361SOL    HW1 9175   3.076   4.560   1.318 -0.6331  0.9774  1.8910
34361SOL    HW2 9176   3.101   4.411   1.305  0.4818  1.3600 -1.3875
34362SOL     OW 9177   0.813   4.163   0.026  0.2880  0.0475 -0.5109
34362SOL    HW1 9178   0.879   4.121   0.080  1.4870  2.5024  0.0341
34362SOL    HW2 9179   0.752   4.203   0.088 -1.7868 -2.0792 -0.9998
34363SOL     OW 9180   1.713   1.816   3.002 -0.3845  0.7650  0.1999
34363SOL    HW1 9181   1.741   1.866   2.926 -1.6094  2.1763  0.6351
34363SOL    HW2 9182   1.617   1.822   3.001 -0.4500  0.3053  1.5073
34364SOL     OW 9183   5.182   0.523   7.171 -0.6126  0.0242  0.1370
34364SOL    HW1 9184   5.097   0.532   7.128 -0.3793  1.4254 -0.0845
34364SOL    HW2 9185   5.162   0.527   7.265 -1.0374 -2.2518  0.1926
34365SOL     OW 9186   1.151   2.487   9.791 -0.1015  0.1730  0.2975
34365SOL    HW1 9187   1.072   2.491   9.737  0.6945  1.7068 -0.7885
34365SOL    HW2 9188   1.120   2.509   9.879 -1.0442 -0.2571  0.0903
34366SOL     OW 9189   8.910   8.600   6.617 -0.7548  0.0574  0.2984
34366SOL    HW1 9190   8.921   8.592   6.712 -0.7114 -2.2669  0.1423
34366SOL    HW2 9191   8.833   8.546   6.597 -0.7556  0.5085 -1.0079
34367SOL     OW 9192   7.744   2.280   0.520 -0.2127  0.4997 -0.2419
34367SOL    HW1 9193   7.800   2.257   0.594 -0.2131 -0.7898 -0.6194
34367SOL    HW2 9194   7.802   2.325   0.459 -0.2331  1.6512  0.5669
34368SOL     OW 9195   2.058   0.298   6.245  0.0804 -0.4503  0.7189
34368SOL    HW1 9196   2.095   0.226   6.295 -0.0348 -0.7205  0.4139
34368SOL    HW2 9197   2.112   0.374   6.269  0.6811 -0.7912  0.4497
34369SOL     OW 9198   4.617   0.119   0.301 -0.1710 -0.8956 -0.2633
34369SOL    HW1 9199   4.540   0.092   0.251 -1.0855  0.7220  0.2090
34369SOL    HW2 9200   4.605   0.080   0.387 -0.2463 -0.9751 -0.3096
34370SOL     OW 9201   2.590   7.872   6.732 -0.4483 -0.2347 -0.3760
34370SOL    HW1 9202   2.539   7.927   6.791  0.2612 -1.5930  1.6288
34370SOL    HW2 9203   2.621   7.932   6.664 -0.5819  1.6091  1.1078
34371SOL     OW 9204   1.294   0.653   5.709 -0.0095  0.1572  0.0128
34371SOL    HW1 9205   1.308   0.696   5.793 -0.5179 -1.0621  0.7503
34371SOL    HW2 9206   1.200   0.639   5.703 -0.0170  0.5174 -0.9169
34372SOL     OW 9207   3.207  10.425   5.436 -0.2950 -0.0162 -0.1862
34372SOL    HW1 9208   3.292  10.450   5.401 -0.2704 -1.2966 -1.0929
34372SOL    HW2 9209   3.150  10.501   5.419  0.4998  0.6020 -0.1268
34373SOL     OW 9210   3.117  10.230   8.735  0.3461  0.3297  0.2534
34373SOL    HW1 9211   3.079  10.247   8.821  1.6465  0.4290  0.8376
34373SOL    HW2 9212   3.066  10.284   8.674 -1.0832 -0.3256  0.8307
34374SOL     OW 9213   5.519   2.044   1.934  0.0405 -0.2206  0.1576
34374SOL    HW1 9214   5.523   2.135   1.904 -1.3695 -0.5696 -1.2094
34374SOL    HW2 9215   5.477   1.997   1.863 -0.5611 -1.7009  1.4311
34375SOL     OW 9216   8.479   1.126   5.201  0.4582  0.7969 -0.2078
34375SOL    HW1 9217   8.411   1.143   5.136 -0.5215 -1.2288  0.2186
34375SOL    HW2 9218   8.514   1.040   5.179  1.6481  1.0360  0.6495
34376SOL     OW 9219   5.783   4.724   7.714  0.0853  0.4951 -0.0246
34376SOL    HW1 9220   5.757   4.816   7.719 -0.0766  0.5107 -1.0159
34376SOL    HW2 9221   5.856   4.716   7.775  0.8680  1.5584 -0.8018
34377SOL     OW 9222   1.775   6.977   6.126 -0.0351  0.2454  0.2290
34377SOL    HW1 9223   1.863   7.010   6.147 -0.0722  0.7052 -0.3486
34377SOL    HW2 9224   1.782   6.882   6.140  0.6509  0.2340 -0.1445
34378SOL     OW 9225   8.926   3.799  10.625 -0.6798  0.0099 -0.0783
34378SOL    HW1 9226   8.933   3.750  10.542 -0.2149  0.0452 -0.0626
34378SOL    HW2 9227   8.839   3.838  10.622 -0.3527  0.6998 -0.9334
34379SOL     OW 9228   7.064   8.507   8.247  0.0713 -0.3379 -0.6283
34379SOL    HW1 9229   7.131   8.444   8.273 -0.6525 -1.0652 -0.5196
34379SOL    HW2 9230   7.045   8.487   8.156 -0.4788 -0.5681 -0.4650
34380SOL     OW 9231   6.514   8.501   6.982 -0.0163 -0.1017 -0.1569
34380SOL    HW1 9232   6.510   8.507   6.887 -1.0618  0.0730 -0.1204
34380SOL    HW2 9233   6.545   8.588   7.010  0.8860 -0.3556 -0.3600
34381SOL     OW 9234   3.766   1.235  10.207 -0.4110  0.3899  0.4839
34381SOL    HW1 9235   3.700   1.225  10.139 -1.0336  2.1774  0.7754
34381SOL    HW2 9236   3.821   1.156  10.199 -0.7069  0.3558 -1.7988
34382SOL     OW 9237   9.867   7.654   5.748 -0.7565  0.2706  0.2941
34382SOL    HW1 9238   9.836   7.630   5.661  1.0546 -0.0996 -0.2812
34382SOL    HW2 9239   9.951   7.697   5.733 -1.2616  1.8987  1.7417
34383SOL     OW 9240   5.640   9.047   3.675 -0.7759 -0.1692 -0.0105
34383SOL    HW1 9241   5.694   9.113   3.719 -0.6317 -0.1959 -0.1476
34383SOL    HW2 9242   5.635   9.076   3.584  1.0220 -1.4335 -0.5661
34384SOL     OW 9243   1.192   8.463   9.002 -0.1535 -0.1296  0.5099
34384SOL    HW1 9244   1.174   8.555   9.023  0.3902 -0.1351  1.0248
34384SOL    HW2 9245   1.133   8.443   8.930 -0.4650  0.5508  0.5682
34385SOL     OW 9246  10.187   8.580   3.482 -0.9762 -0.1349 -0.2693
34385SOL    HW1 9247  10.220   8.517   3.418 -2.0304  0.0417 -1.0053
34385SOL    HW2 9248  10.175   8.529   3.562  0.0776 -0.4178 -0.2793
34386SOL     OW 9249   1.884   6.440   4.922 -0.1175  0.5524  0.2346
34386SOL    HW1 9250   1.871   6.363   4.976  0.3312  1.4999  1.7581
34386SOL    HW2 9251   1.931   6.501   4.978 -0.6894  2.0358 -0.8268
34387SOL     OW 9252   1.058   0.538  10.489  0.3212 -0.3697 -0.0947
34387SOL    HW1 9253   1.136   0.555  10.542  0.3885 -0.6284 -0.1073
34387SOL    HW2 9254   1.002   0.484  10.545  0.6305 -1.1082 -0.4705
34388SOL     OW 9255   8.368   2.395   4.598  0.8510  0.7867 -0.4346
34388SOL    HW1 9256   8.309   2.332   4.557  2.3910 -0.0802 -1.4278
34388SOL    HW2 9257   8.397   2.451   4.526  2.4836  0.1531 -0.3070
34389SOL     OW 9258   4.362   8.080   9.342  0.1648  0.4281  0.1828
34389SOL    HW1 9259   4.435   8.077   9.404 -0.5641 -0.7530  0.9999
34389SOL    HW2 9260   4.361   7.994   9.302  0.2485  0.9849 -1.0746
34390SOL     OW 9261   7.063   4.607   8.872 -0.1608 -0.4797 -0.3616
34390SOL    HW1 9262   6.976   4.566   8.869  0.1038 -1.0540 -0.3649
34390SOL    HW2 9263   7.109   4.570   8.796  0.4527 -1.0368  0.2652
34391SOL     OW 9264   1.841   5.729   4.585 -0.5497 -1.0491 -0.1781
34391SOL    HW1 9265   1.912   5.670   4.610  0.6991  0.2046 -0.6786
34391SOL    HW2 9266   1.820   5.705   4.495  0.9589  0.1788 -0.8945
34392SOL     OW 9267   4.727   2.072  10.904 -0.1934 -0.2474  0.2114
34392SOL    HW1 9268   4.770   1.988  10.923 -0.7530 -0.2241  1.7523
34392SOL    HW2 9269   4.784   2.137  10.944 -0.4350 -0.0102  0.1695
34393SOL     OW 9270   3.886   3.820   4.385  0.5977 -0.0267 -0.4802
34393SOL    HW1 9271   3.838   3.899   4.361  1.9958  0.7979 -0.7245
34393SOL    HW2 9272   3.889   3.822   4.481  1.2866  0.6645 -0.5012
34394SOL     OW 9273   4.298   3.424   6.369  0.3379 -0.7205  0.0826
34394SOL    HW1 9274   4.360   3.352   6.355 -1.4719 -2.0731 -1.6167
34394SOL    HW2 9275   4.306   3.444   6.462  1.7753 -2.2951  0.3557
34395SOL     OW 9276   0.567   5.602   8.607  0.0074  0.0687  0.2999
34395SOL    HW1 9277   0.473   5.589   8.607  0.1141 -1.2536  2.5830
34395SOL    HW2 9278   0.585   5.647   8.690  1.2305  1.9004 -0.9012
34396SOL     OW 9279   7.536   6.690   6.762 -0.0749  0.3487  1.0021
34396SOL    HW1 9280   7.564   6.779   6.738  0.6508 -0.2173 -0.4149
34396SOL    HW2 9281   7.497   6.655   6.681  1.5861 -1.3368  0.8339
34397SOL     OW 9282   9.411  10.491   5.603  0.4034 -0.2651  0.8563
34397SOL    HW1 9283   9.475  10.432   5.644 -0.5085 -1.5113  0.5466
34397SOL    HW2 9284   9.329  10.472   5.649 -0.2153 -0.2714 -0.2320
34398SOL     OW 9285   2.830  10.790   3.109 -0.2181 -0.1167  0.3265
34398SOL    HW1 9286   2.877  10.837   3.039 -0.1434  0.8935  1.0332
34398SOL    HW2 9287   2.840  10.846   3.186 -3.4488  0.7045  0.2887
34399SOL     OW 9288  10.340   5.705  10.465 -0.1651 -0.0879 -0.2992
34399SOL    HW1 9289  10.311   5.656  10.541  1.3411 -0.2519  0.2083
34399SOL    HW2 9290  10.265   5.759  10.441 -1.1505 -1.0923  0.4016
34400SOL     OW 9291   9.881   0.444   3.627  0.2809  0.2008  0.6678
34400SOL    HW1 9292   9.830   0.494   3.564  0.3704  0.7049  0.9946
34400SOL    HW2 9293   9.849   0.473   3.712  0.3164 -0.3138  0.8588
34401SOL     OW 9294   6.715   6.039   5.547  0.1906 -0.5998 -0.3119
34401SOL    HW1 9295   6.674   6.046   5.634 -0.7330  0.3262 -0.8036
34401SOL    HW2 9296   6.807   6.061   5.562 -0.2598  1.0758  0.2077
34402SOL     OW 9297   0.232   2.261   8.418  0.5131 -0.1816 -0.1593
34402SOL    HW1 9298   0.244   2.311   8.337 -2.2825 -1.6314 -1.6547
34402SOL    HW2 9299   0.163   2.307   8.465 -0.6561 -1.4257 -0.5808
34403SOL     OW 9300   0.083   0.930   8.905 -0.0195 -0.1879 -0.1599
34403SOL    HW1 9301   0.077   1.026   8.907  1.9387 -0.0020 -1.1427
34403SOL    HW2 9302   0.091   0.908   8.812 -0.5632 -1.3251  0.0496
34404SOL     OW 9303   9.866   6.455   0.614  0.2136 -0.1565  0.6033
34404SOL    HW1 9304   9.875   6.376   0.668  0.8435  0.0962  0.8836
34404SOL    HW2 9305   9.931   6.444   0.544 -0.9309 -0.7030 -0.3966
34405SOL     OW 9306   2.620   8.087  10.597 -0.3173 -0.1989 -0.2208
34405SOL    HW1 9307   2.597   8.105  10.688  1.2611  2.4572 -0.2332
34405SOL    HW2 9308   2.687   8.018  10.603  0.2905  0.4420  0.7114
34406SOL     OW 9309   8.399   1.814   5.796 -0.3815  0.2323  1.0561
34406SOL    HW1 9310   8.363   1.791   5.710  0.4644 -1.0471  1.0161
34406SOL    HW2 9311   8.379   1.739   5.851  1.3148 -0.0975  1.2886
34407SOL     OW 9312   6.770   9.575   6.000 -0.5489  0.3386 -0.6732
34407SOL    HW1 9313   6.784   9.506   5.935 -0.4340 -0.9720  0.6848
34407SOL    HW2 9314   6.821   9.649   5.968  0.2305 -0.5756 -1.6240
34408SOL     OW 9315   9.401  10.002   8.436  0.4840 -0.0552  0.5130
34408SOL    HW1 9316   9.389   9.918   8.480 -1.1789  0.4728  1.1203
34408SOL    HW2 9317   9.419   9.979   8.345 -1.5226 -1.0576  0.3340
34409SOL     OW 9318   3.155   6.571   9.868 -0.0246 -0.1780 -0.0245
34409SOL    HW1 9319   3.177   6.648   9.815  0.2353 -0.5709 -0.4935
34409SOL    HW2 9320   3.109   6.607   9.944 -1.5889  0.2734 -1.1468
34410SOL     OW 9321   4.777   7.848   4.752  0.1011 -0.4444 -0.2257
34410SOL    HW1 9322   4.856   7.833   4.804 -1.8073 -0.8654  2.8106
34410SOL    HW2 9323   4.788   7.936   4.717  1.8768 -0.4741  0.1629
34411SOL     OW 9324   5.853   1.821   7.994  0.6358 -0.0705 -0.2369
34411SOL    HW1 9325   5.876   1.758   8.062  1.4966  1.5502  1.0455
34411SOL    HW2 9326   5.935   1.839   7.949  0.4321  0.2634 -0.4774
34412SOL     OW 9327   1.706   0.284   4.831 -0.0700  0.4425  0.3860
34412SOL    HW1 9328   1.764   0.354   4.801 -0.2799  0.2132 -0.5986
34412SOL    HW2 9329   1.750   0.203   4.804 -0.4191  0.2368  0.4270
34413SOL     OW 9330   7.432   0.164   9.202  0.0555 -0.6547  0.3337
34413SOL    HW1 9331   7.411   0.178   9.294 -0.2945  0.2946  0.1199
34413SOL    HW2 9332   7.373   0.094   9.174 -0.1008 -0.6831  0.7332
34414SOL     OW 9333   0.094   4.148   8.540  0.1747 -0.1639 -0.0098
34414SOL    HW1 9334   0.042   4.187   8.470 -0.2658 -2.2740 -0.9215
34414SOL    HW2 9335   0.182   4.182   8.527 -0.5830  2.2240  0.6014
34415SOL     OW 9336   1.969   0.355   7.096 -0.3992  0.2211 -0.5697
34415SOL    HW1 9337   1.881   0.357   7.133 -0.1964  0.0700 -0.0762
34415SOL    HW2 9338   2.021   0.410   7.154 -0.3564  1.0567 -1.3664
34416SOL     OW 9339   5.710   3.081   3.408 -0.4251  0.3978 -0.5273
34416SOL    HW1 9340   5.708   3.173   3.433 -0.0248  0.5243 -0.9545
34416SOL    HW2 9341   5.795   3.049   3.439 -1.9961 -0.8373  3.0791
34417SOL     OW 9342   1.428   5.442   8.198 -0.4249  0.0374 -0.3151
34417SOL    HW1 9343   1.361   5.471   8.136  0.5524 -1.2399 -2.0669
34417SOL    HW2 9344   1.457   5.357   8.163  3.3684  1.3262 -0.7319
34418SOL     OW 9345   9.302  10.690   4.969  0.4777  0.5866 -0.2698
34418SOL    HW1 9346   9.276  10.770   4.923 -0.3180  0.9125  0.7087
34418SOL    HW2 9347   9.236  10.625   4.946 -0.0484  0.8123  0.5560
34419SOL     OW 9348  10.139  10.869   1.559  0.2298  0.2610  0.2837
34419SOL    HW1 9349  10.152  10.790   1.506  1.2085  1.5603 -1.5082
34419SOL    HW2 9350  10.056  10.905   1.528  1.0290  1.2722 -0.7442
34420SOL     OW 9351   0.642   6.134   9.625  0.2946 -0.7253 -0.0392
34420SOL    HW1 9352   0.549   6.149   9.645  0.6082  0.1839  0.8152
34420SOL    HW2 9353   0.676   6.221   9.606  0.8876 -1.1122 -0.7601
34421SOL     OW 9354   2.665   9.451   1.603  0.5072 -0.1325  0.4648
34421SOL    HW1 9355   2.711   9.434   1.686 -0.2795  1.8888  1.3596
34421SOL    HW2 9356   2.648   9.363   1.568  1.6442 -1.0254  1.9771
34422SOL     OW 9357  10.094   2.294   4.037 -0.1997  0.5079 -0.2207
34422SOL    HW1 9358  10.142   2.372   4.063 -1.1575  1.3209 -0.8391
34422SOL    HW2 9359  10.105   2.289   3.942 -0.8273  0.3606 -0.2902
34423SOL     OW 9360   6.003   2.343   0.739 -0.1461 -0.2783 -0.8869
34423SOL    HW1 9361   5.963   2.414   0.689  0.7667  1.9511  1.2933
34423SOL    HW2 9362   5.944   2.329   0.813  1.2683  0.6260  0.4875
34424SOL     OW 9363  10.049   3.672   2.138  0.2404  0.4743  0.3822
34424SOL    HW1 9364  10.077   3.727   2.211  0.3860 -0.7981  1.3259
34424SOL    HW2 9365  10.066   3.724   2.060  1.6435  1.2207  1.1547
34425SOL     OW 9366  10.074   4.306   8.659  0.3983  0.3517  0.3793
34425SOL    HW1 9367  10.157   4.262   8.679  0.5574  1.3522  2.0897
34425SOL    HW2 9368  10.096   4.365   8.586  1.3482  0.9898  1.1487
34426SOL     OW 9369   6.911   8.198   7.409  0.2278 -0.4439  0.0746
34426SOL    HW1 9370   6.885   8.135   7.342 -1.1021  1.4801 -1.3248
34426SOL    HW2 9371   7.003   8.216   7.391 -0.1380  0.1335 -1.3770
34427SOL     OW 9372   5.339   2.540   5.419  0.0654  0.2897  0.3113
34427SOL    HW1 9373   5.374   2.624   5.447  0.3853 -0.2260  1.5363
34427SOL    HW2 9374   5.244   2.549   5.426 -0.0085  1.1169 -1.3205
34428SOL     OW 9375   5.883  10.373   3.434 -0.3897  0.2426 -0.0361
34428SOL    HW1 9376   5.912  10.457   3.470  0.6262  0.6722 -1.7453
34428SOL    HW2 9377   5.916  10.308   3.495  1.4482  0.9326 -0.2266
34429SOL     OW 9378   5.515   9.260   2.156  0.1043  0.3197  0.0938
34429SOL    HW1 9379   5.603   9.293   2.142  0.7361 -0.7564  1.2606
34429SOL    HW2 9380   5.464   9.336   2.182  0.5885  1.0164 -0.9349
34430SOL     OW 9381   5.079  10.748   3.682 -0.4667  0.1317 -0.5680
34430SOL    HW1 9382   5.105  10.687   3.751 -2.0819  0.4432  0.3843
34430SOL    HW2 9383   5.113  10.833   3.710 -0.8006  0.1888 -0.3177
34431SOL     OW 9384   1.711   9.700   2.455  0.2850 -0.1430 -0.6630
34431SOL    HW1 9385   1.630   9.741   2.426 -0.8767 -1.0922  1.0719
34431SOL    HW2 9386   1.710   9.613   2.415  0.2838 -0.2685 -0.3953
34432SOL     OW 9387   2.491   1.366   0.910  0.3353 -0.2814  0.1427
34432SOL    HW1 9388   2.505   1.300   0.978  1.3668  1.0384  1.2789
34432SOL    HW2 9389   2.498   1.450   0.957 -1.3007  0.6564 -1.1706
34433SOL     OW 9390   4.394   9.189   1.174 -0.3314  0.3894 -0.2011
34433SOL    HW1 9391   4.360   9.143   1.097 -0.8553  1.7176 -0.7864
34433SOL    HW2 9392   4.366   9.134   1.248 -1.2983 -0.0339 -0.8529
34434SOL     OW 9393   5.142   9.546   9.719 -1.0872  0.1918 -0.1886
34434SOL    HW1 9394   5.214   9.544   9.656  1.2836  1.3142  2.2319
34434SOL    HW2 9395   5.128   9.454   9.743 -0.2409 -0.0299 -0.5163
34435SOL     OW 9396   8.238   5.982   8.444  1.0013 -0.4597  0.2074
34435SOL    HW1 9397   8.186   6.063   8.445  2.1643  0.3165 -0.1537
34435SOL    HW2 9398   8.227   5.948   8.355  0.7092 -0.5717  0.2852
34436SOL     OW 9399   4.774   2.498  10.056  0.2369  0.3114  0.2579
34436SOL    HW1 9400   4.864   2.503  10.089  0.4574  0.3026 -0.3258
34436SOL    HW2 9401   4.736   2.424  10.103  0.8229 -0.2670 -0.1576
34437SOL     OW 9402   3.333   0.011   4.917  0.1109 -0.7298 -0.1403
34437SOL    HW1 9403   3.256   0.067   4.924  0.1591 -0.7535  0.7565
34437SOL    HW2 9404   3.378   0.039   4.838 -1.4255 -1.4783 -1.3227
34438SOL     OW 9405   6.911   3.988   1.461 -0.1338 -0.8142 -0.4983
34438SOL    HW1 9406   6.846   3.935   1.415 -1.8042 -0.2001  1.0486
34438SOL    HW2 9407   6.864   4.023   1.537  1.4955  1.1819 -0.3384
34439SOL     OW 9408  10.350   8.907   4.664 -0.8335  0.5435  0.3151
34439SOL    HW1 9409  10.283   8.848   4.630 -1.1646  1.6874 -1.1004
34439SOL    HW2 9410  10.345   8.984   4.608  1.6692  0.6721  0.1937
34440SOL     OW 9411   8.157   0.835   8.577  0.1407 -0.0800  0.3230
34440SOL    HW1 9412   8.188   0.807   8.491  0.8316  1.0686  0.1685
34440SOL    HW2 9413   8.231   0.819   8.636 -0.4348 -1.1473  0.7823
34441SOL     OW 9414   4.633   4.055   6.047 -0.3583 -0.5773 -0.6074
34441SOL    HW1 9415   4.553   4.045   5.996 -1.4246 -0.6324  1.0059
34441SOL    HW2 9416   4.639   4.150   6.063 -0.1150 -0.5763 -0.7030
34442SOL     OW 9417   2.050   5.646   7.072 -0.0246  0.1802  0.4145
34442SOL    HW1 9418   2.095   5.731   7.066 -0.9200  0.5798 -1.2439
34442SOL    HW2 9419   2.051   5.612   6.983 -1.0410 -0.8392  0.7707
34443SOL     OW 9420   7.390   9.873   7.987 -0.2477  0.5129  0.0353
34443SOL    HW1 9421   7.461   9.865   7.923 -0.1346 -1.4566  0.3235
34443SOL    HW2 9422   7.386   9.966   8.007  0.0642  1.1292 -2.4222
34444SOL     OW 9423   8.472   9.932   7.229  0.3979  0.1779  0.2679
34444SOL    HW1 9424   8.561   9.911   7.260  0.4428  2.0765  1.5581
34444SOL    HW2 9425   8.480  10.018   7.188 -0.6191 -0.2281 -0.8629
34445SOL     OW 9426   3.430   7.919   5.382 -0.0472 -0.1770 -0.2648
34445SOL    HW1 9427   3.394   7.959   5.304  0.6595 -2.4537 -1.8626
34445SOL    HW2 9428   3.470   7.991   5.431 -2.3265  1.6059 -0.9057
34446SOL     OW 9429   8.585   0.036   1.769 -0.6421 -0.1136  0.4103
34446SOL    HW1 9430   8.573  -0.058   1.783  0.4463 -0.5061 -1.0027
34446SOL    HW2 9431   8.499   0.074   1.785 -0.9390 -1.2604  1.6528
34447SOL     OW 9432   7.390   5.576  10.676 -0.0695  0.4743 -0.1494
34447SOL    HW1 9433   7.401   5.644  10.743  0.8709  0.1013  0.0889
34447SOL    HW2 9434   7.304   5.539  10.693  0.2168  0.2835  0.9594
34448SOL     OW 9435   1.863   5.170   5.617  0.1808  0.3223 -0.3594
34448SOL    HW1 9436   1.812   5.250   5.629 -1.3077 -0.6754  0.1719
34448SOL    HW2 9437   1.953   5.195   5.639 -0.4297  1.6036  0.7498
34449SOL     OW 9438   0.302   4.023   7.785  0.0680  0.0162 -0.3653
34449SOL    HW1 9439   0.253   3.941   7.781  2.0679 -1.3405  1.0221
34449SOL    HW2 9440   0.394   3.997   7.790  0.7322  2.2532  1.3592
34450SOL     OW 9441   0.900   1.669   9.403  0.0414 -0.3830 -0.4124
34450SOL    HW1 9442   0.847   1.598   9.441 -1.3652 -0.0385 -1.6450
34450SOL    HW2 9443   0.880   1.666   9.309  1.2216  0.6159 -0.7201
34451SOL     OW 9444   0.525   0.123   5.793 -0.3274 -0.1261 -0.4039
34451SOL    HW1 9445   0.523   0.033   5.826 -1.1468 -0.0563 -0.2245
34451SOL    HW2 9446   0.440   0.135   5.751 -0.3488  0.6561 -0.1666
34452SOL     OW 9447   4.132   2.320   4.005  0.0076 -0.0444  0.4248
34452SOL    HW1 9448   4.083   2.248   4.043 -1.7161  0.7126 -0.2766
34452SOL    HW2 9449   4.094   2.399   4.045  0.3045  0.5968 -0.5196
34453SOL     OW 9450   9.541   9.925   9.113 -0.3792  0.4491  0.0302
34453SOL    HW1 9451   9.479   9.865   9.155 -0.8058  0.7328 -0.1895
34453SOL    HW2 9452   9.571   9.877   9.035 -0.8244  0.5744 -0.2185
34454SOL     OW 9453   9.970   8.593   4.599  0.2641  0.5734  0.4612
34454SOL    HW1 9454  10.049   8.538   4.594 -0.9502 -1.2873  0.6402
34454SOL    HW2 9455   9.932   8.572   4.684 -0.8522  0.8220  0.0345
34455SOL     OW 9456   4.725   3.327   8.650  0.0985  0.2725 -0.6286
34455SOL    HW1 9457   4.675   3.381   8.588  0.8232  0.6925 -0.8529
34455SOL    HW2 9458   4.719   3.374   8.733  1.6455  1.3049 -1.0650
34456SOL     OW 9459   8.646   5.244   9.359 -0.6155  0.5622 -0.4765
34456SOL    HW1 9460   8.731   5.285   9.343 -0.3989  0.2838 -0.0290
34456SOL    HW2 9461   8.666   5.158   9.394 -1.0383 -0.4639 -2.5564
34457SOL     OW 9462   7.448   9.487   9.789  0.3858 -0.5591  0.1665
34457SOL    HW1 9463   7.397   9.449   9.860  0.8005  0.3162  0.9507
34457SOL    HW2 9464   7.406   9.456   9.709 -4.4984  3.7667  0.5429
34458SOL     OW 9465   6.488   1.921   5.199  0.0057 -0.2078 -0.6750
34458SOL    HW1 9466   6.422   1.854   5.213 -0.2638  0.2862  0.5222
34458SOL    HW2 9467   6.496   1.928   5.104 -1.1439 -0.7707 -0.8192
34459SOL     OW 9468   8.756  10.680   6.072 -0.3888  0.1141 -0.2482
34459SOL    HW1 9469   8.773  10.702   5.981 -0.5087  0.3765 -0.2089
34459SOL    HW2 9470   8.685  10.739   6.098  1.3766  1.9128  0.7894
34460SOL     OW 9471   5.685   7.816  10.808  0.1823  0.6174 -0.8095
34460SOL    HW1 9472   5.718   7.786  10.892  0.7298  1.0612 -0.8610
34460SOL    HW2 9473   5.605   7.765  10.794 -0.0981  0.7835  0.1331
34461SOL     OW 9474   0.632   1.815   1.470  0.4090  0.1226  0.6512
34461SOL    HW1 9475   0.545   1.822   1.508  0.9437 -0.9194  2.1662
34461SOL    HW2 9476   0.652   1.721   1.472  0.9424  0.1449 -1.2039
34462SOL     OW 9477   7.417   9.561   3.557  0.1418  0.0555 -0.7953
34462SOL    HW1 9478   7.434   9.500   3.485 -0.9909  1.2255 -2.1009
34462SOL    HW2 9479   7.434   9.647   3.521  0.2623  0.6451  0.5886
34463SOL     OW 9480  10.858  10.564   3.480  0.1019  0.4101 -0.0501
34463SOL    HW1 9481  10.947  10.596   3.466  1.2079 -2.5985 -0.6500
34463SOL    HW2 9482  10.830  10.533   3.394 -1.0556  0.1364  0.4006
34464SOL     OW 9483   5.795   6.965   9.482  0.0730 -0.3438 -0.5995
34464SOL    HW1 9484   5.711   7.005   9.459  0.7415  0.6778 -1.3035
34464SOL    HW2 9485   5.778   6.870   9.480 -0.6630 -0.1956 -2.2644
34465SOL     OW 9486   0.987   3.149   3.302  1.0807  0.3073  0.2331
34465SOL    HW1 9487   1.078   3.121   3.296  0.3922 -2.0008 -0.2954
34465SOL    HW2 9488   0.986   3.234   3.256  2.5218 -0.7716 -2.0142
34466SOL     OW 9489   9.133   2.407   1.436  0.0656 -0.2807  0.3546
34466SOL    HW1 9490   9.076   2.451   1.499 -0.6389 -1.3515  0.4821
34466SOL    HW2 9491   9.083   2.331   1.406  0.8872 -0.4903 -0.5601
34467SOL     OW 9492   5.188   9.463   4.299  0.0284 -0.0707  0.2269
34467SOL    HW1 9493   5.153   9.480   4.387 -1.2718 -0.8433 -0.1096
34467SOL    HW2 9494   5.201   9.369   4.296  0.3463 -0.0170 -0.3234
34468SOL     OW 9495   9.231   8.351   2.471 -0.3802 -0.5054  0.0827
34468SOL    HW1 9496   9.320   8.367   2.500 -0.4741 -1.1674  0.7684
34468SOL    HW2 9497   9.235   8.358   2.376  0.3516 -0.3110  0.1225
34469SOL     OW 9498   6.819   5.874   8.385 -0.7658  0.0620 -0.2830
34469SOL    HW1 9499   6.889   5.911   8.440 -1.3716 -0.5642  0.9467
34469SOL    HW2 9500   6.741   5.923   8.410 -0.5761  1.9452 -2.8487
34470SOL     OW 9501   3.519   0.484   4.751  0.7028  0.1985  0.3958
34470SOL    HW1 9502   3.518   0.440   4.836 -1.1551  2.4778  1.6803
34470SOL    HW2 9503   3.469   0.426   4.694  1.5838 -1.1588  0.9591
34471SOL     OW 9504   4.743   5.450   4.589 -0.7106 -0.3270  0.0461
34471SOL    HW1 9505   4.657   5.416   4.566 -0.6730 -1.9059  1.9600
34471SOL    HW2 9506   4.766   5.405   4.670  2.6170 -1.2006 -1.1966
34472SOL     OW 9507   1.645   2.761   7.479  0.3729 -0.3338  0.1161
34472SOL    HW1 9508   1.582   2.828   7.506 -0.3226 -0.9912  0.1634
34472SOL    HW2 9509   1.627   2.687   7.537 -0.7734 -1.5778 -1.6920
34473SOL     OW 9510   5.887   0.928   5.057  0.0226 -0.1586 -0.3621
34473SOL    HW1 9511   5.816   0.993   5.058  0.2664  0.1125 -0.2232
34473SOL    HW2 9512   5.843   0.844   5.060 -0.3724 -0.0601 -2.1084
34474SOL     OW 9513   0.031  10.526   8.890  0.0768 -0.6494 -0.0802
34474SOL    HW1 9514   0.028  10.588   8.963 -1.3666 -0.6470 -0.1102
34474SOL    HW2 9515   0.080  10.452   8.923  0.3011 -0.2208  0.5593
34475SOL     OW 9516   9.784   2.814  10.604  0.1329  0.0126 -0.1399
34475SOL    HW1 9517   9.759   2.905  10.619 -0.5175  0.1223 -1.7563
34475SOL    HW2 9518   9.732   2.786  10.529 -0.0717 -1.8744  0.6533
34476SOL     OW 9519   3.753   3.910   2.650 -0.1934 -0.5150  0.0642
34476SOL    HW1 9520   3.712   3.829   2.619  0.0367 -0.7016  0.2476
34476SOL    HW2 9521   3.710   3.979   2.600 -0.6147 -0.7256  0.1308
34477SOL     OW 9522   6.294   3.803  10.423  0.3462  0.0286 -0.0989
34477SOL    HW1 9523   6.264   3.726  10.375 -0.5717 -0.1499  0.7243
34477SOL    HW2 9524   6.317   3.770  10.510 -0.6821  0.7548  0.4771
34478SOL     OW 9525   7.121   0.832  10.125  0.0514 -0.1380  0.4667
34478SOL    HW1 9526   7.045   0.890  10.114  0.1947  0.0196  0.3019
34478SOL    HW2 9527   7.163   0.861  10.206  1.1810  1.2107 -0.5586
34479SOL     OW 9528   8.581   0.934   3.029 -0.5464 -0.2195  0.0097
34479SOL    HW1 9529   8.494   0.907   3.057  0.0163 -0.4507  1.6731
34479SOL    HW2 9530   8.624   0.852   3.004 -0.5167 -0.2124  0.0381
34480SOL     OW 9531   2.733   4.197   1.055  0.4455  0.6895  0.2447
34480SOL    HW1 9532   2.795   4.254   1.010  1.4274  0.0303  0.7351
34480SOL    HW2 9533   2.737   4.114   1.007 -0.4900  0.8152 -0.0676
34481SOL     OW 9534   5.958   2.214   9.559 -0.1640  0.2708 -0.4760
34481SOL    HW1 9535   5.941   2.120   9.561  0.6803  0.1005 -0.9736
34481SOL    HW2 9536   6.051   2.222   9.535 -0.2530  1.2289 -0.5603
34482SOL     OW 9537   7.986   6.303   2.137  0.1482 -0.2618  0.7024
34482SOL    HW1 9538   8.077   6.274   2.137  0.2286 -0.0151  0.8756
34482SOL    HW2 9539   7.941   6.239   2.193 -0.0207 -1.0847 -0.3491
34483SOL     OW 9540   7.403   8.152   7.247 -0.1296  0.6135 -0.0890
34483SOL    HW1 9541   7.363   8.226   7.203 -0.2434  0.3694 -0.4015
34483SOL    HW2 9542   7.338   8.125   7.313  0.1920  1.2034  0.4808
34484SOL     OW 9543   6.620   1.548   1.703  0.2191 -0.2857  0.0727
34484SOL    HW1 9544   6.568   1.619   1.739  0.0117 -0.7161  0.6366
34484SOL    HW2 9545   6.682   1.526   1.772  0.8384 -0.0961 -0.4147
34485SOL     OW 9546  10.031   1.686   9.321 -0.2942  0.1601  0.6651
34485SOL    HW1 9547  10.089   1.743   9.371  1.4015 -2.1050  1.4227
34485SOL    HW2 9548   9.966   1.656   9.384 -0.9357  0.8885  0.3658
34486SOL     OW 9549   1.821  10.568   0.066 -0.2782  0.0118 -0.4082
34486SOL    HW1 9550   1.898  10.583   0.122 -1.1181  0.1583  0.7500
34486SOL    HW2 9551   1.783  10.654   0.054  1.8816  0.6557 -4.3532
34487SOL     OW 9552  10.812   6.456   2.599  0.2502 -0.3759 -0.1221
34487SOL    HW1 9553  10.741   6.506   2.640  1.4063 -0.0381  1.6053
34487SOL    HW2 9554  10.884   6.519   2.591  0.2622 -0.6033 -2.2324
34488SOL     OW 9555   9.281  10.251   1.058 -0.7745  0.1766 -0.6634
34488SOL    HW1 9556   9.292  10.164   1.097 -1.6118  0.5678  0.4994
34488SOL    HW2 9557   9.318  10.311   1.124  0.6921  0.6656 -1.8625
34489SOL     OW 9558   5.465   4.364   8.808 -0.2474 -0.9291  0.4122
34489SOL    HW1 9559   5.424   4.433   8.755  0.3891 -0.4075  0.5842
34489SOL    HW2 9560   5.395   4.333   8.865 -0.4162 -0.0337  0.7141
34490SOL     OW 9561   5.311   6.655   6.208 -0.3687  0.2560  0.0522
34490SOL    HW1 9562   5.275   6.740   6.234  0.5931  1.3242 -1.8993
34490SOL    HW2 9563   5.378   6.636   6.274 -1.4936  0.2913  1.2730
34491SOL     OW 9564   8.416   8.676   7.733  0.3486  0.1863 -0.0559
34491SOL    HW1 9565   8.359   8.749   7.758  2.9953  2.0038  1.0445
34491SOL    HW2 9566   8.391   8.605   7.793 -1.1086  0.7153  0.0109
34492SOL     OW 9567   6.578   7.744  10.411  0.1455  0.2266 -0.5477
34492SOL    HW1 9568   6.614   7.673  10.359 -0.4071  1.3582 -2.5880
34492SOL    HW2 9569   6.483   7.729  10.411  0.2470 -0.9415  2.0438
34493SOL     OW 9570   4.648   6.024   6.378  0.2854  1.0293 -0.4986
34493SOL    HW1 9571   4.621   6.034   6.286  1.0468  0.1893 -0.8267
34493SOL    HW2 9572   4.711   5.952   6.376  0.0140  0.7461  0.7488
34494SOL     OW 9573   1.722   1.824   7.010  0.3099  0.4077 -0.1283
34494SOL    HW1 9574   1.696   1.807   7.100  0.5134  1.1286  0.0701
34494SOL    HW2 9575   1.649   1.792   6.957  0.5628 -0.8311  0.2353
34495SOL     OW 9576  10.176   0.718   1.230  0.1225  0.1547  0.2199
34495SOL    HW1 9577  10.251   0.772   1.204  0.6886 -0.3088  0.8234
34495SOL    HW2 9578  10.101   0.777   1.228  0.3192  0.3923 -1.3612
34496SOL     OW 9579   6.617   0.453   3.128  0.0163  0.8870  0.2801
34496SOL    HW1 9580   6.617   0.427   3.220 -0.4429 -1.0205 -0.2067
34496SOL    HW2 9581   6.538   0.413   3.092  0.9283  0.3843 -1.2504
34497SOL     OW 9582   1.731   2.247   1.999 -0.1856  0.0606  0.2248
34497SOL    HW1 9583   1.661   2.293   2.045  0.0849  1.5213 -0.7647
34497SOL    HW2 9584   1.737   2.290   1.914  0.9243 -1.0154 -0.2761
34498SOL     OW 9585   3.233   5.706   2.242  0.8651 -0.3760 -0.1902
34498SOL    HW1 9586   3.206   5.734   2.155 -0.2182  0.9844  0.5408
34498SOL    HW2 9587   3.193   5.620   2.253  1.2479 -0.6877 -1.1248
34499SOL     OW 9588   8.432   7.948   8.823  0.3533  0.0457 -0.3659
34499SOL    HW1 9589   8.441   8.029   8.874 -1.0560 -0.2791  0.4554
34499SOL    HW2 9590   8.350   7.909   8.855 -0.8757  0.0641 -3.2346
34500SOL     OW 9591  10.231   6.811   0.767 -0.4517 -0.2605  0.2530
34500SOL    HW1 9592  10.139   6.786   0.761  0.2060 -2.4900 -2.6410
34500SOL    HW2 9593  10.278   6.730   0.787  0.9641  0.8431  1.7832
34501SOL     OW 9594   9.534  10.247   8.504  0.7980 -0.0101  0.6334
34501SOL    HW1 9595   9.618  10.212   8.535  0.1769 -0.6371  1.6413
34501SOL    HW2 9596   9.487  10.171   8.472  0.4432  0.2858  0.4506
34502SOL     OW 9597   8.464   9.610   6.937  0.2520  0.2580  0.3388
34502SOL    HW1 9598   8.433   9.696   6.910 -0.4068 -0.5299 -1.5773
34502SOL    HW2 9599   8.559   9.614   6.926  0.3709  1.1155  1.4953
34503SOL     OW 9600   4.649   3.040   7.395 -0.3928  0.7444 -0.1223
34503SOL    HW1 9601   4.694   3.088   7.465  0.3765  1.2975 -0.9660
34503SOL    HW2 9602   4.690   2.953   7.395 -1.2343  0.3355  0.8885
34504SOL     OW 9603   0.448   5.274   8.124 -0.3816 -0.1067 -0.3803
34504SOL    HW1 9604   0.394   5.352   8.133 -0.7492 -0.4792  0.7181
34504SOL    HW2 9605   0.394   5.214   8.073 -0.3309  0.1308 -0.7200
34505SOL     OW 9606   0.388   3.162   3.141 -0.2553 -0.2179  0.3471
34505SOL    HW1 9607   0.420   3.073   3.129  0.0920 -0.2196  1.2345
34505SOL    HW2 9608   0.427   3.211   3.068 -1.9951 -1.1505 -1.3012
34506SOL     OW 9609  10.214   2.436   8.720  0.4137  0.0939 -0.2930
34506SOL    HW1 9610  10.209   2.531   8.729  0.0617  0.3345 -2.5700
34506SOL    HW2 9611  10.288   2.422   8.660 -0.9736 -0.9043 -1.8316
34507SOL     OW 9612   2.989   5.037   1.626  0.4325  0.6235  0.5697
34507SOL    HW1 9613   2.904   5.079   1.639  1.1972  2.6051 -0.4249
34507SOL    HW2 9614   2.975   4.977   1.553  0.0638  1.5841 -0.1720
34508SOL     OW 9615   1.986   4.904   6.522  0.2823 -0.0344 -0.2259
34508SOL    HW1 9616   2.072   4.886   6.559  0.6035 -0.1578 -1.0059
34508SOL    HW2 9617   2.003   4.915   6.428 -0.3971  0.9811 -0.2412
34509SOL     OW 9618   5.163   4.804   3.947  0.3236  0.1462 -0.4602
34509SOL    HW1 9619   5.107   4.730   3.969  1.3285 -0.7991 -0.9961
34509SOL    HW2 9620   5.168   4.856   4.027 -0.6727 -0.1660 -0.1859
34510SOL     OW 9621   7.491   9.289   9.307 -0.0549  0.6385  0.1468
34510SOL    HW1 9622   7.484   9.194   9.299 -0.7778  0.2843  3.6525
34510SOL    HW2 9623   7.425   9.323   9.246 -0.6949 -1.1226 -0.1993
34511SOL     OW 9624   5.716  10.426   7.773  0.1549  0.2581  0.5017
34511SOL    HW1 9625   5.690  10.378   7.852 -1.6545  0.2155 -0.0979
34511SOL    HW2 9626   5.801  10.464   7.796 -0.0486 -0.2557  2.2534
34512SOL     OW 9627   9.194   1.116   3.695  0.7116  0.5351  0.2580
34512SOL    HW1 9628   9.131   1.166   3.747  0.9271  0.8021  0.2636
34512SOL    HW2 9629   9.279   1.155   3.715  0.8369  0.4175 -0.0361
34513SOL     OW 9630   1.749   8.997   6.192  0.2611  0.2513 -0.5965
34513SOL    HW1 9631   1.786   9.075   6.234 -0.2214  0.2313 -0.1233
34513SOL    HW2 9632   1.825   8.950   6.158  0.6336  0.4620 -0.0699
34514SOL     OW 9633   8.608  10.274   0.363 -0.2718  0.1443 -0.6674
34514SOL    HW1 9634   8.581  10.341   0.300 -2.9805  0.1543  0.3468
34514SOL    HW2 9635   8.569  10.193   0.330 -0.3052 -0.1656  0.1152
34515SOL     OW 9636   0.283   7.375   4.400  0.1253 -0.0804 -0.4887
34515SOL    HW1 9637   0.257   7.347   4.312 -0.1165  0.0951 -0.4727
34515SOL    HW2 9638   0.328   7.299   4.436 -0.8115 -0.5808 -0.3303
34516SOL     OW 9639  10.798  10.436  10.154 -0.2232 -0.1376 -0.0232
34516SOL    HW1 9640  10.768  10.525  10.172 -1.9876 -0.9845  1.6614
34516SOL    HW2 9641  10.868  10.421  10.218 -0.4714 -0.2062  0.2378
34517SOL     OW 9642   0.389   6.949   4.638  0.5594 -0.4412  0.3969
34517SOL    HW1 9643   0.357   6.917   4.722 -0.8806 -0.1260 -0.0014
34517SOL    HW2 9644   0.480   6.922   4.635  0.5460 -0.7429  1.9159
34518SOL     OW 9645   2.861   5.314   8.342  0.3514 -0.6774 -0.2316
34518SOL    HW1 9646   2.782   5.261   8.334  0.4063 -0.7562 -0.2456
34518SOL    HW2 9647   2.909   5.298   8.260 -0.8602  1.3930 -1.4525
34519SOL     OW 9648   5.556   6.423   9.866  0.1593 -0.2426 -0.0839
34519SOL    HW1 9649   5.613   6.371   9.810  0.8686  0.3306  0.0909
34519SOL    HW2 9650   5.472   6.377   9.863  0.0944 -0.0787 -1.8316
34520SOL     OW 9651   6.558   0.064   8.389 -0.4701 -0.1501  0.1602
34520SOL    HW1 9652   6.598   0.021   8.313  0.3218  2.6924 -1.1659
34520SOL    HW2 9653   6.552   0.156   8.364 -1.9696  0.5842  2.8502
34521SOL     OW 9654   7.991   9.452   9.102 -0.6043  0.2302 -0.4138
34521SOL    HW1 9655   7.980   9.358   9.088 -1.6695  0.4117 -0.9077
34521SOL    HW2 9656   7.934   9.473   9.175  0.0682  0.4094  0.0741
34522SOL     OW 9657   3.767   1.160   9.889 -0.2118  0.2351 -0.3308
34522SOL    HW1 9658   3.858   1.159   9.859  0.0143 -1.1056  0.3204
34522SOL    HW2 9659   3.737   1.070   9.878 -1.4938  0.6805 -0.5951
34523SOL     OW 9660   1.333   3.586   5.702  0.3461  0.3717  0.1946
34523SOL    HW1 9661   1.331   3.491   5.694  1.0278  0.4304 -0.7862
34523SOL    HW2 9662   1.257   3.616   5.652  1.5051  0.4468 -1.6052
34524SOL     OW 9663   9.841   5.571   8.262  0.2293 -0.1283  0.2778
34524SOL    HW1 9664   9.826   5.478   8.282  0.1926 -0.4982 -1.2926
34524SOL    HW2 9665   9.760   5.615   8.287  0.4135 -0.4386  1.4602
34525SOL     OW 9666   5.511  10.906   6.313 -0.2604  0.3110  0.5988
34525SOL    HW1 9667   5.451  10.842   6.350  0.4498 -0.1747  0.9310
34525SOL    HW2 9668   5.569  10.929   6.385  2.4759 -2.1929 -0.6171
34526SOL     OW 9669  10.460   0.781   4.561  0.0475 -0.1687 -0.1019
34526SOL    HW1 9670  10.519   0.836   4.613  1.3523  0.0688 -1.7541
34526SOL    HW2 9671  10.390   0.841   4.533 -0.2597 -0.1282  0.7217
34527SOL     OW 9672   8.511   7.945  10.857 -0.0881  0.0288  0.1453
34527SOL    HW1 9673   8.427   7.906  10.833 -0.0684 -0.5005  0.8902
34527SOL    HW2 9674   8.562   7.873  10.893  0.4618  0.4693  0.2775
34528SOL     OW 9675  10.058  10.279   8.927 -0.3274 -0.6142  0.4026
34528SOL    HW1 9676  10.140  10.307   8.887 -0.1687 -2.1845 -0.4579
34528SOL    HW2 9677  10.005  10.359   8.931  0.4203  0.0000 -1.0911
34529SOL     OW 9678   9.732   7.475   0.932 -0.7432  0.0150 -0.1336
34529SOL    HW1 9679   9.692   7.390   0.916 -1.7052  0.5675 -0.8145
34529SOL    HW2 9680   9.712   7.526   0.854 -0.3767  0.9368  0.3510
34530SOL     OW 9681   0.293   2.433   3.654  0.5036 -0.0200  0.6899
34530SOL    HW1 9682   0.234   2.365   3.623  0.0341  1.1904 -1.2453
34530SOL    HW2 9683   0.264   2.451   3.744 -1.1320 -0.4723  0.2814
34531SOL     OW 9684   8.792   1.515  10.703  0.6561 -0.0951 -0.3635
34531SOL    HW1 9685   8.699   1.522  10.722 -0.0326 -1.8189 -2.6263
34531SOL    HW2 9686   8.816   1.602  10.670  0.0097  0.5144  0.7205
34532SOL     OW 9687   2.933   6.824  10.870  0.1292  0.5377 -0.0469
34532SOL    HW1 9688   2.986   6.749  10.844 -0.0004 -0.6180  2.6810
34532SOL    HW2 9689   2.913   6.809  10.962 -0.7330  3.4699  0.3666
34533SOL     OW 9690   0.294   3.154   8.129 -0.4154 -0.2460  0.5257
34533SOL    HW1 9691   0.277   3.231   8.184 -0.7926  0.6823 -0.8151
34533SOL    HW2 9692   0.349   3.188   8.057  0.6367 -1.5553  0.6633
34534SOL     OW 9693   4.528   0.961   8.629  0.1743  0.3905  0.4973
34534SOL    HW1 9694   4.433   0.962   8.639  0.2692  0.0738  1.5551
34534SOL    HW2 9695   4.545   1.022   8.557 -0.8672 -0.0819 -0.1774
34535SOL     OW 9696   5.255   9.696   4.909  0.0860 -0.4652 -0.1708
34535SOL    HW1 9697   5.345   9.693   4.877  0.8951  0.3713  1.8903
34535SOL    HW2 9698   5.214   9.618   4.871  1.5196 -0.5901 -1.5583
34536SOL     OW 9699   2.860   3.251  10.507 -0.3494 -0.1449  0.2873
34536SOL    HW1 9700   2.935   3.194  10.491 -0.1405  0.0761  0.4811
34536SOL    HW2 9701   2.786   3.191  10.515 -0.1662 -0.3743  0.2742
34537SOL     OW 9702   0.885  10.606   9.571 -0.5526 -0.0928  0.2907
34537SOL    HW1 9703   0.820  10.561   9.517 -1.2800 -1.5674  2.2814
34537SOL    HW2 9704   0.848  10.693   9.587 -1.2531 -0.3460  0.0698
34538SOL     OW 9705   1.928   1.434   2.824 -0.4004 -0.3642 -0.0432
34538SOL    HW1 9706   2.008   1.464   2.868  0.3575 -0.6332 -1.1853
34538SOL    HW2 9707   1.923   1.489   2.746 -0.2987 -1.5858 -0.9370
34539SOL     OW 9708   3.327   9.274   1.189 -0.5646 -0.2507  0.0340
34539SOL    HW1 9709   3.352   9.194   1.142 -0.1446 -0.6984  0.9758
34539SOL    HW2 9710   3.383   9.342   1.152 -0.7176 -0.4507 -0.5740
34540SOL     OW 9711   4.783   3.754   8.922 -0.0063 -0.1962  0.5188
34540SOL    HW1 9712   4.830   3.823   8.970  0.7506 -0.9247  0.8480
34540SOL    HW2 9713   4.722   3.801   8.865 -0.1957  0.7180  1.4538
34541SOL     OW 9714   1.582  10.086  10.064 -0.0536 -0.7827  0.3658
34541SOL    HW1 9715   1.609  10.050   9.980 -0.7781 -1.4680  0.4062
34541SOL    HW2 9716   1.504  10.138  10.044  1.0927  0.9988  0.2772
34542SOL     OW 9717   5.247   6.473   2.338 -0.0514 -0.1081 -0.2864
34542SOL    HW1 9718   5.342   6.486   2.342 -0.0655  0.1547 -0.7145
34542SOL    HW2 9719   5.233   6.388   2.378  0.0787  0.9822  2.2603
34543SOL     OW 9720   6.343   5.989   3.066  0.3990  0.0152 -0.0438
34543SOL    HW1 9721   6.286   5.913   3.050  1.0882 -0.4898 -0.1582
34543SOL    HW2 9722   6.380   5.973   3.152  1.4697 -0.3942 -0.5648
34544SOL     OW 9723   3.513   2.579   8.659  0.2783 -0.2126 -0.3956
34544SOL    HW1 9724   3.601   2.615   8.657  0.6823 -0.9977  1.3775
34544SOL    HW2 9725   3.478   2.605   8.744 -1.3404  0.3550 -1.1896
34545SOL     OW 9726   9.436   2.777   5.168  0.2701 -0.0332  0.1971
34545SOL    HW1 9727   9.363   2.837   5.153  0.3877  0.0359 -0.1153
34545SOL    HW2 9728   9.509   2.816   5.120  0.5613 -0.0102  0.6471
34546SOL     OW 9729   3.069  10.498   5.803 -0.0944 -0.1803  0.2447
34546SOL    HW1 9730   3.015  10.533   5.874 -2.0069 -0.7393 -0.8597
34546SOL    HW2 9731   3.054  10.558   5.730  1.5281  0.1589  0.1628
34547SOL     OW 9732  10.190  10.725   6.795  0.1974  0.2523 -0.2352
34547SOL    HW1 9733  10.182  10.818   6.773  1.7137  0.2080 -1.1120
34547SOL    HW2 9734  10.250  10.690   6.729 -1.4481 -1.6789 -0.8119
34548SOL     OW 9735   7.600   7.198   9.960 -0.0497 -0.0322 -0.2062
34548SOL    HW1 9736   7.689   7.165   9.975 -0.0544 -0.4780 -1.1223
34548SOL    HW2 9737   7.597   7.219   9.867 -1.0716 -0.5316 -0.3062
34549SOL     OW 9738   4.023   2.548  10.180  0.5447 -0.7498 -0.1854
34549SOL    HW1 9739   4.035   2.503  10.096 -0.5134 -0.6411 -0.4044
34549SOL    HW2 9740   3.982   2.631  10.157 -0.0557 -0.8648  0.4723
34550SOL     OW 9741   0.885   1.909   7.406 -0.2831 -0.1352  0.8519
34550SOL    HW1 9742   0.872   1.880   7.316  1.7573  1.9035 -0.2156
34550SOL    HW2 9743   0.836   1.991   7.412  1.3824  0.9285  0.7933
34551SOL     OW 9744   1.671   7.433   0.901 -0.3493 -0.7068 -0.1823
34551SOL    HW1 9745   1.588   7.389   0.917 -0.7714  0.1786  0.1591
34551SOL    HW2 9746   1.677   7.441   0.806 -2.4158  2.3468 -0.2083
34552SOL     OW 9747   9.265   1.713   4.350  0.2380 -0.4147 -0.2121
34552SOL    HW1 9748   9.212   1.781   4.309 -0.4501 -0.1249  1.0768
34552SOL    HW2 9749   9.261   1.639   4.290 -2.7629 -0.8870  0.3809
34553SOL     OW 9750   1.825  10.911   9.583 -0.5469  0.0278  0.7073
34553SOL    HW1 9751   1.753  10.953   9.628 -0.0054  1.2122  0.4960
34553SOL    HW2 9752   1.784  10.862   9.511 -1.2083 -0.0929  1.1604
34554SOL     OW 9753   6.776   4.259   2.222 -1.0716  0.0565  0.2787
34554SOL    HW1 9754   6.866   4.279   2.250 -0.5135  1.7857 -2.3222
34554SOL    HW2 9755   6.778   4.166   2.201  0.9216  0.5057 -2.0241
34555SOL     OW 9756   1.937   4.375   0.793 -0.4739 -0.6194  0.0514
34555SOL    HW1 9757   2.031   4.388   0.781 -0.3731 -0.6102  0.7688
34555SOL    HW2 9758   1.928   4.283   0.818 -0.4499 -0.2026  1.7366
34556SOL     OW 9759   5.432   5.216   2.596 -0.2300 -0.3789  1.1116
34556SOL    HW1 9760   5.367   5.146   2.591  0.3693 -0.9026  0.3590
34556SOL    HW2 9761   5.422   5.252   2.684 -1.6751 -0.3012  0.9503
34557SOL     OW 9762   5.291   1.353   4.434 -0.1380 -0.5478  0.0441
34557SOL    HW1 9763   5.312   1.430   4.488 -0.5746 -0.3948 -0.0025
34557SOL    HW2 9764   5.202   1.370   4.402 -0.5163 -1.4138  0.6265
34558SOL     OW 9765   7.200   8.450   2.644  0.1724  0.2028  0.1517
34558SOL    HW1 9766   7.148   8.373   2.621 -0.0054  0.3787 -0.0394
34558SOL    HW2 9767   7.205   8.448   2.739  1.0852 -0.6446  0.1005
34559SOL     OW 9768   2.730   7.194   5.470  0.1850  0.1296 -0.1772
34559SOL    HW1 9769   2.673   7.249   5.416 -1.4696 -1.3433 -0.0084
34559SOL    HW2 9770   2.808   7.248   5.484 -0.3824  1.5071 -1.9384
34560SOL     OW 9771  10.068   9.135   0.549  0.6718  0.0242  0.2572
34560SOL    HW1 9772  10.144   9.172   0.504  0.9228 -0.4902  0.2471
34560SOL    HW2 9773  10.063   9.183   0.631  1.3823 -0.3532  0.5292
34561SOL     OW 9774   2.612   7.283   5.764  0.4282 -0.0144  0.0430
34561SOL    HW1 9775   2.663   7.263   5.685  0.6504  1.6569 -0.2714
34561SOL    HW2 9776   2.665   7.247   5.836  1.0744 -0.0463 -0.4339
34562SOL     OW 9777   6.155   6.620   8.949  0.1522 -0.2374  0.0509
34562SOL    HW1 9778   6.091   6.676   8.906  0.0633 -1.8534 -2.1244
34562SOL    HW2 9779   6.109   6.583   9.024 -0.5992  0.5697 -0.0039
34563SOL     OW 9780   5.977   0.693   3.885  0.1365  0.2643 -0.4219
34563SOL    HW1 9781   5.928   0.737   3.954 -0.6938 -1.0073 -0.1515
34563SOL    HW2 9782   6.069   0.710   3.905 -0.1446  2.9227 -1.0866
34564SOL     OW 9783   4.510   5.743   9.575 -0.0306  0.0696 -0.1988
34564SOL    HW1 9784   4.573   5.805   9.538 -0.3808  1.3373  1.2248
34564SOL    HW2 9785   4.556   5.703   9.648  0.2828 -1.6041 -1.2633
34565SOL     OW 9786   6.315   0.425  10.487  0.1856  0.1117 -0.2271
34565SOL    HW1 9787   6.295   0.343  10.532  2.2676 -0.4737 -0.2428
34565SOL    HW2 9788   6.351   0.482  10.555  3.2412 -0.7386 -0.9816
34566SOL     OW 9789   1.014   1.516  10.607  0.1808 -0.1246 -0.0651
34566SOL    HW1 9790   1.009   1.421  10.619 -0.2576  0.1798  2.6642
34566SOL    HW2 9791   1.003   1.528  10.513 -0.7069 -2.7166 -0.3820
34567SOL     OW 9792   5.706  10.219   6.303 -0.3038 -0.4656  0.2765
34567SOL    HW1 9793   5.735  10.144   6.354  0.5157  0.9616  1.9815
34567SOL    HW2 9794   5.648  10.267   6.361 -0.0109  0.7603 -0.4074
34568SOL     OW 9795   9.856   9.540  10.861 -0.1132  0.7031 -0.4859
34568SOL    HW1 9796   9.791   9.533  10.931 -0.5281  0.5903 -0.8769
34568SOL    HW2 9797   9.917   9.607  10.891  1.0589 -0.9589  1.0508
34569SOL     OW 9798  10.344   9.289   3.879 -0.4227  0.0008 -0.1518
34569SOL    HW1 9799  10.374   9.253   3.796 -2.6971 -2.4324 -0.0777
34569SOL    HW2 9800  10.406   9.255   3.944  0.2587  0.2998 -0.6436
34570SOL     OW 9801   2.890   1.761   4.515 -0.0459  0.6076 -0.2269
34570SOL    HW1 9802   2.971   1.770   4.465  1.1803 -0.8238  1.4044
34570SOL    HW2 9803   2.856   1.675   4.492 -0.1767  0.4838  0.4117
34571SOL     OW 9804   5.984   0.963   3.697 -0.0887  0.1067  0.1446
34571SOL    HW1 9805   5.955   0.874   3.713  0.8756 -0.0790  0.9575
34571SOL    HW2 9806   6.078   0.955   3.679  0.0889  0.9870  0.6154
34572SOL     OW 9807   3.010   5.817   2.667  0.0980 -0.2072  0.6969
34572SOL    HW1 9808   2.988   5.754   2.598 -1.7446 -1.0826  1.9981
34572SOL    HW2 9809   2.941   5.883   2.661  2.1709  1.9704 -0.8544
34573SOL     OW 9810   8.233   2.286   6.745 -0.2766 -0.3634 -0.0794
34573SOL    HW1 9811   8.306   2.240   6.786  1.2511  0.9242 -1.1899
34573SOL    HW2 9812   8.233   2.256   6.654 -1.5960 -0.8583  0.0674
34574SOL     OW 9813   1.546   9.460   7.497 -0.0284  0.2182  0.0532
34574SOL    HW1 9814   1.491   9.416   7.562  1.2756 -0.7809  0.5350
34574SOL    HW2 9815   1.595   9.390   7.455  0.2413  0.9931 -0.9732
34575SOL     OW 9816   7.132   4.043   4.822  0.5689  0.3902 -0.5733
34575SOL    HW1 9817   7.199   3.980   4.846 -1.4698 -1.9609 -0.6410
34575SOL    HW2 9818   7.083   4.001   4.751 -1.5710  1.5248  0.1176
34576SOL     OW 9819   6.494   2.444   5.637  0.2241 -0.1040 -0.2175
34576SOL    HW1 9820   6.441   2.515   5.599  1.6498  0.9842 -0.2747
34576SOL    HW2 9821   6.555   2.420   5.567 -0.2162 -1.3600 -0.1754
34577SOL     OW 9822   8.977   4.464   0.345 -0.6510 -0.0098  0.5157
34577SOL    HW1 9823   8.900   4.517   0.366  0.4802  2.0715 -0.2661
34577SOL    HW2 9824   8.954   4.418   0.265 -0.3869  2.3951 -1.0657
34578SOL     OW 9825  10.921   6.105   6.533  0.0209 -0.3617 -0.1833
34578SOL    HW1 9826  10.889   6.088   6.622 -0.9044 -0.2487 -0.4828
34578SOL    HW2 9827  10.843   6.101   6.478  0.7399 -1.5995 -1.1722
34579SOL     OW 9828   0.356   2.476   5.420  0.7104 -0.3549 -0.4237
34579SOL    HW1 9829   0.356   2.435   5.506  0.3506 -2.4317 -1.3565
34579SOL    HW2 9830   0.263   2.490   5.400  0.7550 -0.6606 -0.8369
34580SOL     OW 9831   3.672   7.917   0.479  0.5561  0.0147  0.6398
34580SOL    HW1 9832   3.737   7.950   0.418  0.3912 -0.0511  0.4260
34580SOL    HW2 9833   3.616   7.860   0.426 -0.6717  1.3577  0.4248
34581SOL     OW 9834   2.238   8.670   8.007  0.3512  0.3398  0.0719
34581SOL    HW1 9835   2.200   8.598   8.058 -0.1777  0.5188 -0.0643
34581SOL    HW2 9836   2.219   8.647   7.916 -1.9114  1.7712  0.0984
34582SOL     OW 9837   2.455   5.424   5.407 -0.1133 -0.1411 -0.5751
34582SOL    HW1 9838   2.410   5.341   5.389  0.6358 -0.5109 -0.7670
34582SOL    HW2 9839   2.537   5.418   5.357  0.2068  0.4704 -0.1271
34583SOL     OW 9840   7.053   2.895   4.332 -0.3246 -0.3545  0.5827
34583SOL    HW1 9841   6.974   2.943   4.357  1.0063  1.0931  2.3843
34583SOL    HW2 9842   7.022   2.811   4.298 -2.6295  0.4851  0.4898
34584SOL     OW 9843   2.218   6.564   6.393  0.3524 -0.3110  0.1626
34584SOL    HW1 9844   2.180   6.588   6.308  0.6646 -1.5855 -0.3535
34584SOL    HW2 9845   2.161   6.494   6.426  1.7818 -1.7348 -0.2804
34585SOL     OW 9846   5.589   4.490   0.267  0.2070  0.3115  0.8007
34585SOL    HW1 9847   5.624   4.458   0.350  0.9108  1.2844  0.8991
34585SOL    HW2 9848   5.494   4.479   0.275  0.3673 -1.0390  1.1057
34586SOL     OW 9849   7.831   6.879   6.600 -0.3914 -0.4151 -0.0948
34586SOL    HW1 9850   7.902   6.884   6.665  0.4320  2.0245 -1.0890
34586SOL    HW2 9851   7.803   6.970   6.588 -2.3012 -1.1053 -1.2830
34587SOL     OW 9852   6.573   9.168   1.962  0.0128 -0.4630 -0.2477
34587SOL    HW1 9853   6.636   9.238   1.947 -0.0392 -0.4185 -0.2597
34587SOL    HW2 9854   6.621   9.088   1.940  0.2484 -0.4744  0.2901
34588SOL     OW 9855   2.962   3.102   3.680  0.4329 -0.2766  0.6862
34588SOL    HW1 9856   2.928   3.143   3.601  1.0326  0.4738  0.7992
34588SOL    HW2 9857   3.000   3.020   3.651  0.5559 -0.0534  0.2132
34589SOL     OW 9858   4.972   8.145   9.596  0.2972  0.5364 -0.1421
34589SOL    HW1 9859   5.012   8.123   9.680  0.3936  0.4778 -0.2029
34589SOL    HW2 9860   4.941   8.062   9.561  0.7315  0.4789 -0.4064
34590SOL     OW 9861   9.932   7.594   9.280 -0.0900  0.0337  0.1881
34590SOL    HW1 9862   9.873   7.522   9.302 -0.9224  0.8558  0.7156
34590SOL    HW2 9863  10.000   7.554   9.227 -1.3042 -0.8976 -0.7305
34591SOL     OW 9864   7.080   8.338   6.439  0.1627  0.1697 -0.3464
34591SOL    HW1 9865   7.159   8.290   6.411  0.8842  0.9704  0.2577
34591SOL    HW2 9866   7.009   8.298   6.389  0.7252 -1.5455  0.1295
34592SOL     OW 9867   9.843   5.184   0.299  0.1580  0.7760 -0.3319
34592SOL    HW1 9868   9.856   5.265   0.348 -0.5506  2.1549 -2.2931
34592SOL    HW2 9869   9.751   5.188   0.271  0.1488 -0.6421 -0.5766
34593SOL     OW 9870   6.022   1.307   0.019 -0.5683  0.0502  0.1769
34593SOL    HW1 9871   5.986   1.389  -0.016  0.4070 -1.0342 -3.9449
34593SOL    HW2 9872   6.010   1.244  -0.052  3.5759 -2.0061  1.0378
34594SOL     OW 9873   1.238   3.891   2.300 -0.0208  0.1131  0.1925
34594SOL    HW1 9874   1.261   3.806   2.261  0.7203 -0.4786  1.8035
34594SOL    HW2 9875   1.165   3.923   2.247  0.2252 -1.1361 -0.9685
34595SOL     OW 9876   5.029   0.037   8.387  0.3174  0.0193  0.7041
34595SOL    HW1 9877   4.951   0.092   8.397  0.8486  0.6505  1.4713
34595SOL    HW2 9878   5.053   0.012   8.476  0.6228 -0.7023  0.4285
34596SOL     OW 9879   8.760   9.093   9.554 -0.2409 -0.3552  0.7763
34596SOL    HW1 9880   8.693   9.085   9.623  0.1452 -0.3550  1.1601
34596SOL    HW2 9881   8.834   9.133   9.599 -0.2009  0.2164  0.2014
34597SOL     OW 9882   5.704   8.272   1.351 -0.2763  1.0218 -0.6412
34597SOL    HW1 9883   5.770   8.218   1.308  0.7035  0.8934  0.9552
34597SOL    HW2 9884   5.628   8.214   1.359  0.2393  0.3799 -0.3267
34598SOL     OW 9885   3.881   9.904   8.211  0.3645 -0.4804 -0.1887
34598SOL    HW1 9886   3.948   9.860   8.159  0.5503  0.7087 -0.9809
34598SOL    HW2 9887   3.906   9.996   8.210 -1.8217  0.1666 -1.3613
34599SOL     OW 9888  10.076   8.836  10.759  0.3873  0.2042  0.3621
34599SOL    HW1 9889   9.981   8.830  10.769  0.5287 -1.0874  1.1619
34599SOL    HW2 9890  10.092   8.928  10.738 -0.9931  0.5300  0.6225
34600SOL     OW 9891   9.095   0.270   4.946  0.2911  0.0976 -0.6678
34600SOL    HW1 9892   9.076   0.200   5.008 -0.5102  0.6629 -0.2598
34600SOL    HW2 9893   9.134   0.339   4.999 -2.0112  1.2934 -0.4389
34601SOL     OW 9894  10.130   0.729   9.767  0.4176  0.0231 -0.0312
34601SOL    HW1 9895  10.059   0.671   9.738  0.3255  0.5820 -0.9751
34601SOL    HW2 9896  10.202   0.711   9.707  1.2172 -0.7744  1.1229
34602SOL     OW 9897   4.496  10.469   2.924  0.2068  0.3601  0.2605
34602SOL    HW1 9898   4.560  10.399   2.935  1.4764  1.3155 -0.7124
34602SOL    HW2 9899   4.413  10.423   2.907  0.9354 -0.8975 -0.0400
34603SOL     OW 9900   8.396  10.782   6.888 -0.1940 -0.1608  0.1361
34603SOL    HW1 9901   8.457  10.789   6.815  1.0880 -1.3399  1.0315
34603SOL    HW2 9902   8.389  10.872   6.921  1.9585 -0.1122  0.6589
34604SOL     OW 9903   6.824   3.325   4.820 -0.0220 -0.3094 -0.1798
34604SOL    HW1 9904   6.781   3.308   4.735  1.3994  1.3853 -1.3135
34604SOL    HW2 9905   6.896   3.263   4.823 -0.1864 -0.4992 -0.1099
34605SOL     OW 9906   5.103   9.285   7.055  0.2922  0.2873  0.7673
34605SOL    HW1 9907   5.165   9.358   7.052  1.5270 -0.7075  1.1402
34605SOL    HW2 9908   5.149   9.212   7.013 -0.4351 -0.6116  1.4801
34606SOL     OW 9909   9.455   5.229   7.603 -0.2207  0.1890 -0.7272
34606SOL    HW1 9910   9.546   5.233   7.632  0.1178  0.1666 -1.7459
34606SOL    HW2 9911   9.404   5.259   7.679  0.5194 -1.1192  0.3296
34607SOL     OW 9912   7.122   0.816   0.070  0.6008  0.1797 -0.7925
34607SOL    HW1 9913   7.097   0.837  -0.020  0.6794  1.5465 -0.5137
34607SOL    HW2 9914   7.095   0.893   0.121 -0.9011 -1.1996  0.6235
34608SOL     OW 9915   7.897   2.131   1.598  0.1914  0.2145 -0.0619
34608SOL    HW1 9916   7.900   2.167   1.509  1.3168 -0.5109 -0.3406
34608SOL    HW2 9917   7.870   2.204   1.653 -2.0907  0.2944 -1.1702
34609SOL     OW 9918   3.058   8.356   3.944  0.4189  0.3402 -0.2674
34609SOL    HW1 9919   2.979   8.401   3.913  0.9977  1.5834  0.0071
34609SOL    HW2 9920   3.076   8.290   3.876 -1.3040 -0.5518  0.0681
34610SOL     OW 9921  10.396   1.035   6.912 -0.2548  0.1637 -0.3291
34610SOL    HW1 9922  10.427   1.119   6.878  1.0687 -0.2819 -0.3044
34610SOL    HW2 9923  10.322   1.011   6.856  0.2741  0.6622 -1.2537
34611SOL     OW 9924   1.491   8.117   2.479  0.7493 -0.5135  0.1733
34611SOL    HW1 9925   1.480   8.166   2.397 -0.2754 -0.0719  0.5567
34611SOL    HW2 9926   1.531   8.034   2.451  0.1996 -0.4701 -0.8184
34612SOL     OW 9927   8.876   1.668   4.793 -0.3824 -0.2862  0.5200
34612SOL    HW1 9928   8.810   1.668   4.862  2.1965  0.0542  3.1914
34612SOL    HW2 9929   8.842   1.728   4.727 -2.4637  0.3117  2.0363
34613SOL     OW 9930   4.101  10.754   9.178 -0.5218 -0.6048 -0.4079
34613SOL    HW1 9931   4.066  10.665   9.189 -1.2050 -0.2251  0.5702
34613SOL    HW2 9932   4.194  10.741   9.159 -0.2219 -1.4780  1.5198
34614SOL     OW 9933  10.530   9.535   7.430  0.7583 -0.3816 -0.4405
34614SOL    HW1 9934  10.611   9.536   7.481  0.1782 -1.3442  0.5264
34614SOL    HW2 9935  10.469   9.483   7.482 -1.1452  1.9470 -0.1766
34615SOL     OW 9936   7.384   7.586   0.729 -0.2478 -0.5825  0.1673
34615SOL    HW1 9937   7.473   7.581   0.693 -0.1513  1.1848  0.0943
34615SOL    HW2 9938   7.397   7.603   0.823 -0.5317 -2.7542  0.6711
34616SOL     OW 9939   9.324   8.532   1.661 -0.3364  0.6062 -0.5408
34616SOL    HW1 9940   9.363   8.471   1.598 -1.3428 -0.7752  0.1237
34616SOL    HW2 9941   9.238   8.553   1.624  0.2340  2.1368 -1.0596
34617SOL     OW 9942   8.596   0.062   5.338  0.5446 -0.0725  0.2792
34617SOL    HW1 9943   8.615   0.102   5.423 -0.1367  0.5599  0.1512
34617SOL    HW2 9944   8.635   0.122   5.275 -0.3530  0.3374  0.0916
34618SOL     OW 9945   6.938   7.743   2.122  0.1718  0.2795  0.3290
34618SOL    HW1 9946   6.969   7.658   2.153  0.5584  0.5207  0.6182
34618SOL    HW2 9947   6.860   7.723   2.070  0.9445 -0.3670 -0.6165
34619SOL     OW 9948  10.446  10.007   1.971  0.6358  0.3405 -0.1161
34619SOL    HW1 9949  10.448   9.917   1.941 -0.3624  0.9060 -2.0940
34619SOL    HW2 9950  10.413  10.002   2.060 -1.3453 -1.1652 -0.8491
34620SOL     OW 9951   0.708   8.005   7.401  0.3588 -0.5074 -0.0111
34620SOL    HW1 9952   0.727   7.954   7.480  2.6740  0.3016  0.0315
34620SOL    HW2 9953   0.683   8.091   7.434 -0.3493 -0.6632 -0.1372
34621SOL     OW 9954   4.719   8.712   5.983  0.0431 -0.3403 -0.3767
34621SOL    HW1 9955   4.664   8.767   6.038 -1.6102 -2.8473  0.6171
34621SOL    HW2 9956   4.666   8.694   5.906  0.7792 -0.1463 -0.9446
34622SOL     OW 9957   5.124   3.169   6.487 -0.1193  0.6168 -0.0546
34622SOL    HW1 9958   5.120   3.237   6.419  1.1329  0.9956  0.2248
34622SOL    HW2 9959   5.199   3.115   6.463  0.2139  0.6268  0.9169
34623SOL     OW 9960   0.380   0.654   8.545  0.0925 -0.0536  0.2723
34623SOL    HW1 9961   0.439   0.718   8.505 -1.1362  0.2501 -1.1561
34623SOL    HW2 9962   0.302   0.656   8.490 -0.7454 -1.3837  1.3454
34624SOL     OW 9963   5.731   6.276   2.896 -0.0964 -0.1112 -0.4002
34624SOL    HW1 9964   5.640   6.248   2.885 -0.2524 -0.0702  0.6682
34624SOL    HW2 9965   5.727   6.348   2.959  0.6279  0.2362 -0.7328
34625SOL     OW 9966   7.372   1.320   5.610 -0.1654 -0.1054  0.1364
34625SOL    HW1 9967   7.432   1.272   5.553 -0.6238 -0.6556  0.1172
34625SOL    HW2 9968   7.415   1.323   5.695 -0.2943 -0.8569  0.2284
34626SOL     OW 9969   2.204   3.413   9.189 -0.0161 -0.3703  0.3123
34626SOL    HW1 9970   2.187   3.392   9.280 -0.3610 -1.2405  0.0567
34626SOL    HW2 9971   2.119   3.442   9.154 -0.0017 -0.5455  0.1322
34627SOL     OW 9972   6.496   9.959   0.461 -0.0578 -0.5401  0.2721
34627SOL    HW1 9973   6.503   9.865   0.449  0.4642 -0.5695  0.7862
34627SOL    HW2 9974   6.419   9.970   0.517 -0.4711 -0.6153 -0.2686
34628SOL     OW 9975   5.343   8.479   9.370  0.3760  0.1589 -0.7392
34628SOL    HW1 9976   5.336   8.421   9.294 -0.3577 -1.1603  0.2923
34628SOL    HW2 9977   5.280   8.444   9.433  2.9068 -0.5671  1.5997
34629SOL     OW 9978   1.471   0.325   3.748  0.0491 -0.3162  0.1672
34629SOL    HW1 9979   1.504   0.299   3.662  0.0947 -1.7348  0.5870
34629SOL    HW2 9980   1.479   0.246   3.802  1.1380  0.8368  1.8073
34630SOL     OW 9981  10.033  10.584   7.568 -0.3722 -0.0943  0.4971
34630SOL    HW1 9982  10.009  10.662   7.517  0.1255  2.7101  4.1045
34630SOL    HW2 9983  10.125  10.570   7.549  0.1706  1.7660  1.4641
34631SOL     OW 9984   7.125   4.171   1.350  0.9955  0.0734  0.6595
34631SOL    HW1 9985   7.064   4.109   1.390  1.1967  1.0967  2.6929
34631SOL    HW2 9986   7.185   4.117   1.300 -1.5949 -0.9712 -1.5997
34632SOL     OW 9987   5.689   5.563   0.439 -0.5291  0.4310  0.5785
34632SOL    HW1 9988   5.698   5.657   0.431 -0.0013  0.3008 -0.5331
34632SOL    HW2 9989   5.601   5.550   0.474 -0.2844  1.3525  1.5684
34633SOL     OW 9990   6.827   9.700   0.085 -0.5035 -0.1599 -0.0976
34633SOL    HW1 9991   6.812   9.751   0.165  2.9682 -0.1454  0.7273
34633SOL    HW2 9992   6.859   9.764   0.021  0.4342 -0.7113 -0.2064
34634SOL     OW 9993  10.692  10.465   7.797  0.0891  0.0030  0.6063
34634SOL    HW1 9994  10.603  10.502   7.791  0.0257 -0.1096  0.8583
34634SOL    HW2 9995  10.703  10.443   7.889 -0.6060 -2.3831  0.1747
34635SOL     OW 9996   3.110   3.039  10.680  0.2718  0.4874 -0.1154
34635SOL    HW1 9997   3.026   3.026  10.725 -0.1364  2.3641 -0.2671
34635SOL    HW2 9998   3.172   2.986  10.730 -0.9318 -0.7600  0.1392
34636SOL     OW 9999   5.334   2.463   1.229  0.3245  0.2376  0.1429
34636SOL    HW110000   5.419   2.435   1.195 -0.4467  0.0445 -1.7613
34636SOL    HW210001   5.354   2.509   1.310  2.0988 -1.1014  0.5223
34637SOL     OW10002   2.287   1.233   4.985  0.1622 -0.2605 -0.7256
34637SOL    HW110003   2.195   1.212   4.973  0.0646  0.2988 -0.9911
34637SOL    HW210004   2.310   1.285   4.908  0.7203 -0.4634 -0.7015
34638SOL     OW10005   9.637   7.073   4.763  0.0036  0.1847 -0.7838
34638SOL    HW110006   9.616   6.980   4.759  0.8222 -0.2010  1.7706
34638SOL    HW210007   9.721   7.077   4.810  0.6433  2.1637 -1.9355
34639SOL     OW10008   7.699   7.717   9.125  0.3598 -0.7346  0.0806
34639SOL    HW110009   7.751   7.701   9.204  0.2862  0.2542  0.3510
34639SOL    HW210010   7.691   7.813   9.121 -1.3693 -0.8413  0.0166
34640SOL     OW10011   6.543   1.049   6.906 -0.4843  0.4649  0.0979
34640SOL    HW110012   6.593   1.054   6.987  0.5360 -1.5060 -0.3585
34640SOL    HW210013   6.569   1.128   6.857  2.5584 -0.6303 -0.2717
34641SOL     OW10014   2.198   6.787   1.070 -0.2083 -0.4674 -0.7886
34641SOL    HW110015   2.216   6.780   1.164  0.3914 -1.2954 -0.9583
34641SOL    HW210016   2.103   6.790   1.064 -0.2494  1.6977 -0.0283
34642SOL     OW10017   6.714   1.169   2.405 -0.2680  0.1702  0.2431
34642SOL    HW110018   6.749   1.189   2.318 -1.2926  0.9997 -0.0049
34642SOL    HW210019   6.766   1.223   2.465 -0.7046  0.9578 -0.0620
34643SOL     OW10020  10.835   4.581   2.183  0.4750 -0.1724  0.0664
34643SOL    HW110021  10.833   4.487   2.197  1.3472 -0.1871  0.1713
34643SOL    HW210022  10.749   4.612   2.211  0.1295 -0.9532 -0.1242
34644SOL     OW10023   5.115   3.062   9.869 -0.0251 -0.6797  0.3278
34644SOL    HW110024   5.165   3.122   9.814  0.1202 -0.5883  0.5594
34644SOL    HW210025   5.028   3.059   9.829 -0.4288  0.6882  1.0448
34645SOL     OW10026   7.014   6.496   8.720 -0.0208 -0.2593 -0.5679
34645SOL    HW110027   7.002   6.553   8.795 -0.3932 -0.5127 -0.4324
34645SOL    HW210028   6.932   6.501   8.672  0.9005  1.4980 -2.0799
34646SOL     OW10029  10.669   0.391   6.799 -0.3377  0.1396  0.7324
34646SOL    HW110030  10.604   0.361   6.736  0.4684  1.3229 -0.7217
34646SOL    HW210031  10.690   0.313   6.851 -1.0038 -0.8687 -0.4746
34647SOL     OW10032   8.961   8.936   3.369  0.3261  0.5728  0.3290
34647SOL    HW110033   9.026   9.001   3.341  0.1693  0.6009  0.0271
34647SOL    HW210034   8.892   8.987   3.411  0.0483  0.6318 -0.2005
34648SOL     OW10035   4.407   4.945   2.222  0.0254 -0.3253  0.8266
34648SOL    HW110036   4.401   4.966   2.315 -0.3734 -1.3916  1.0611
34648SOL    HW210037   4.381   4.853   2.217 -2.4917  0.3550 -0.6278
34649SOL     OW10038   9.919   1.228   5.651  0.0095  0.3424  0.1092
34649SOL    HW110039   9.882   1.197   5.569 -0.3267 -0.3891  0.5260
34649SOL    HW210040   9.867   1.305   5.674  1.0182  1.4248 -1.0655
34650SOL     OW10041   8.315   7.207   4.282 -0.8029  0.1681  0.1985
34650SOL    HW110042   8.265   7.254   4.214 -0.5701 -0.1541 -0.1995
34650SOL    HW210043   8.368   7.144   4.233  0.3788  0.8415  0.5711
34651SOL     OW10044   8.960   8.646   8.802 -0.1447  0.2171  0.0881
34651SOL    HW110045   8.880   8.635   8.854  0.2435  1.4934  1.0178
34651SOL    HW210046   8.930   8.667   8.714 -0.8653  1.8540  0.7009
34652SOL     OW10047   5.185   7.943   2.501  0.5361  0.0586 -0.1285
34652SOL    HW110048   5.212   7.983   2.584 -0.6629 -0.2261  0.4168
34652SOL    HW210049   5.211   7.851   2.511  0.1597 -0.0304  0.0400
34653SOL     OW10050   5.759   2.302   3.035 -0.4007  0.5118  0.0384
34653SOL    HW110051   5.774   2.283   2.943 -1.9386 -0.2081 -0.0942
34653SOL    HW210052   5.785   2.223   3.081  0.7894  1.0285  0.2882
34654SOL     OW10053   0.806   4.387   9.944 -0.0391  0.5353  0.2506
34654SOL    HW110054   0.805   4.294   9.922 -3.8041  0.3966  0.2459
34654SOL    HW210055   0.872   4.425   9.887  1.6455 -2.1076  0.2814
34655SOL     OW10056   1.186   0.394   2.048  0.2534 -0.4993 -0.1530
34655SOL    HW110057   1.206   0.392   2.142  0.8656 -0.8392 -0.2811
34655SOL    HW210058   1.115   0.331   2.038  0.6626 -0.9918 -0.0164
34656SOL     OW10059   3.110   3.582  10.476  0.5638  0.3565 -0.3408
34656SOL    HW110060   3.105   3.635  10.555  0.6111  1.1234 -0.8425
34656SOL    HW210061   3.138   3.643  10.408 -1.1866  0.1288 -1.3296
34657SOL     OW10062   4.477   7.216   3.284 -0.4307  0.1461 -0.3531
34657SOL    HW110063   4.419   7.245   3.213  1.4096  1.9340 -1.2142
34657SOL    HW210064   4.422   7.220   3.362 -2.1892 -0.7904 -1.4692
34658SOL     OW10065   2.967   8.809  10.787 -0.1686 -0.4371 -0.5379
34658SOL    HW110066   2.899   8.765  10.838  0.7040 -1.7658 -0.4980
34658SOL    HW210067   3.042   8.751  10.790  0.5989  0.4474 -1.5855
34659SOL     OW10068   9.888   4.566   9.394  0.1029 -0.3441 -0.1977
34659SOL    HW110069   9.809   4.512   9.406  0.4372 -0.9060 -0.4749
34659SOL    HW210070   9.953   4.526   9.452  0.3688 -0.2717 -0.4450
34660SOL     OW10071   4.096   8.849   3.924 -0.4369 -0.2019 -0.7216
34660SOL    HW110072   4.025   8.909   3.948 -0.9287 -0.2340 -2.0036
34660SOL    HW210073   4.090   8.843   3.829 -0.3992 -2.2936 -0.6210
34661SOL     OW10074   6.137   8.566   6.596  0.4867 -0.3041 -0.0193
34661SOL    HW110075   6.063   8.590   6.540 -1.7263 -2.2408  1.8714
34661SOL    HW210076   6.182   8.497   6.548 -2.4500 -3.2632  1.1072
34662SOL     OW10077   1.000   3.677   8.395  0.4595 -0.1980  0.4550
34662SOL    HW110078   0.926   3.727   8.362 -0.9207 -0.7423  2.5203
34662SOL    HW210079   1.067   3.743   8.414 -0.1780  0.5206  0.2705
34663SOL     OW10080   6.102   4.516  10.404  0.3158 -0.3483  0.4870
34663SOL    HW110081   6.147   4.523  10.488  0.7916  0.6694  0.1621
34663SOL    HW210082   6.135   4.590  10.353 -1.4193  0.1739  0.0815
34664SOL     OW10083   6.934   8.857   5.994 -1.0975  0.0590 -0.3176
34664SOL    HW110084   6.969   8.796   6.059 -0.1451  1.2334  0.3195
34664SOL    HW210085   6.992   8.849   5.919 -2.0790 -1.1496 -0.9869
34665SOL     OW10086   3.836   5.320   4.427 -0.9628  0.1692  0.7165
34665SOL    HW110087   3.758   5.293   4.475 -0.9856 -0.4919  0.3308
34665SOL    HW210088   3.909   5.286   4.480 -0.9231  1.0149  1.2127
34666SOL     OW10089   2.950   6.811   9.412 -0.2077 -0.0743  0.2321
34666SOL    HW110090   3.001   6.863   9.350 -0.0097 -0.0527  0.4129
34666SOL    HW210091   3.006   6.736   9.431  0.2433  0.5156  1.3051
34667SOL     OW10092   2.683   6.600   2.998 -0.4185 -0.1744  0.0412
34667SOL    HW110093   2.719   6.525   2.950 -2.0137  0.2606 -1.9628
34667SOL    HW210094   2.625   6.560   3.063 -1.2057 -0.7266 -0.9676
34668SOL     OW10095   1.895   8.064   0.881  0.0197  0.1145  0.0516
34668SOL    HW110096   1.931   7.991   0.830 -1.6578 -0.1486 -0.8336
34668SOL    HW210097   1.916   8.142   0.831  2.2053  0.3528  1.2192
34669SOL     OW10098   9.538   1.131   6.509  0.1964  0.4929 -0.8838
34669SOL    HW110099   9.574   1.193   6.445 -2.0749  1.5222 -1.2627
34669SOL    HW210100   9.541   1.179   6.592  1.5010 -0.1824 -0.5147
34670SOL     OW10101   1.522   5.043   7.783  0.1161  0.1207  0.3573
34670SOL    HW110102   1.552   5.011   7.868  0.1200 -0.5669  0.1011
34670SOL    HW210103   1.446   4.989   7.762  0.5168 -0.1738 -0.3852
34671SOL     OW10104   4.720   5.863   8.634  0.8736  0.5074 -0.7489
34671SOL    HW110105   4.810   5.878   8.605  0.7462  0.3379 -1.2314
34671SOL    HW210106   4.671   5.846   8.554  0.4968  0.1432 -0.4462
34672SOL     OW10107   0.824   7.145   8.802 -0.4426  0.1123  0.5782
34672SOL    HW110108   0.914   7.152   8.834 -0.8148  0.5013  1.6054
34672SOL    HW210109   0.829   7.166   8.709  0.9304 -2.6870 -0.0770
34673SOL     OW10110   2.889   1.570   9.597 -0.5889 -0.2547 -0.0542
34673SOL    HW110111   2.958   1.632   9.573  0.0125 -0.4236  1.1633
34673SOL    HW210112   2.807   1.616   9.577 -0.1763  1.2197  1.4135
34674SOL     OW10113  10.233   1.996   2.032  0.0074  0.1381 -0.6598
34674SOL    HW110114  10.283   2.019   1.954  0.6486  0.1733 -0.2400
34674SOL    HW210115  10.159   1.946   1.998  0.3000  0.1176 -1.2893
34675SOL     OW10116   5.512   8.398   4.352  0.0926  0.1260 -0.8723
34675SOL    HW110117   5.469   8.315   4.335  0.1101 -0.0011 -0.2990
34675SOL    HW210118   5.468   8.434   4.429  0.4427  0.3921 -0.7893
34676SOL     OW10119   8.553   3.067   8.852 -0.0674  0.2966 -0.0802
34676SOL    HW110120   8.554   3.155   8.816 -0.7019  0.0178 -0.8084
34676SOL    HW210121   8.621   3.020   8.804  0.0191  0.2927  0.0468
34677SOL     OW10122   9.209   0.149   1.352 -0.6932 -0.0036 -0.2694
34677SOL    HW110123   9.236   0.231   1.395  1.6565  0.4983 -2.4722
34677SOL    HW210124   9.184   0.175   1.264 -0.6661 -1.5610 -0.7712
34678SOL     OW10125   1.759   3.222   7.954  0.2271  0.0313  0.1539
34678SOL    HW110126   1.830   3.160   7.936  1.4792  1.1178  1.0835
34678SOL    HW210127   1.758   3.229   8.050 -2.3717 -1.3000  0.2993
34679SOL     OW10128   0.984   5.974   7.422 -0.5897 -0.2591 -0.5050
34679SOL    HW110129   0.947   5.958   7.335 -1.1456 -2.2567  0.0353
34679SOL    HW210130   1.071   5.935   7.419 -0.6080 -0.3322 -0.1709
34680SOL     OW10131   9.631   2.709   8.438  0.4781  0.4080 -0.0403
34680SOL    HW110132   9.607   2.734   8.528  1.5040  1.5838 -0.0661
34680SOL    HW210133   9.638   2.614   8.441 -1.8720  0.1941  0.5046
34681SOL     OW10134   4.591   1.126  10.597  0.1616 -0.0816 -0.1076
34681SOL    HW110135   4.537   1.093  10.525  0.6599 -2.1786  0.4124
34681SOL    HW210136   4.563   1.075  10.673  0.9862  0.7219  0.7550
34682SOL     OW10137   9.297   9.179   8.632  0.0478 -0.4865  0.6489
34682SOL    HW110138   9.225   9.140   8.680 -0.1635  0.0488  0.7793
34682SOL    HW210139   9.361   9.109   8.621 -1.1677 -1.4135 -0.8596
34683SOL     OW10140   8.314   0.571   9.662  0.6001  0.7324 -0.7281
34683SOL    HW110141   8.241   0.629   9.643 -0.3790 -0.6472 -1.3445
34683SOL    HW210142   8.329   0.523   9.581  0.5209 -0.7688  0.0923
34684SOL     OW10143   8.397   8.929  10.182  0.2996  0.2352 -0.0312
34684SOL    HW110144   8.306   8.904  10.170  0.2945 -0.0204  0.4875
34684SOL    HW210145   8.396   9.025  10.183  0.0431  0.2334 -0.0827
34685SOL     OW10146   4.977   0.424  10.323  0.4133  0.0475 -0.2348
34685SOL    HW110147   5.071   0.407  10.330  0.6097  0.6990 -1.1426
34685SOL    HW210148   4.941   0.347  10.280  0.7721  0.4253 -1.2377
34686SOL     OW10149   2.874   3.076   9.626  0.3149 -0.0618 -0.4615
34686SOL    HW110150   2.948   3.137   9.627  0.0816  0.2837 -1.7063
34686SOL    HW210151   2.851   3.064   9.718  1.4599  0.3876 -0.1012
34687SOL     OW10152   2.536   8.897   6.737 -0.6902  0.1602 -0.2792
34687SOL    HW110153   2.581   8.843   6.671 -0.3638 -0.8869  0.7574
34687SOL    HW210154   2.600   8.963   6.762 -0.6055  0.1901 -0.5680
34688SOL     OW10155   6.089   6.406   6.375  0.5150 -0.0809 -0.3239
34688SOL    HW110156   6.091   6.362   6.290  0.0449  1.1284 -0.9906
34688SOL    HW210157   6.001   6.443   6.380  1.3694  2.0728 -0.4894
34689SOL     OW10158   5.077   1.449  10.485 -0.0185 -0.2135 -0.7673
34689SOL    HW110159   5.100   1.530  10.531  3.1104 -0.9133 -0.8581
34689SOL    HW210160   5.052   1.389  10.555  2.5948 -0.6126 -0.0642
34690SOL     OW10161   5.182   1.383   3.582  0.3082 -0.2676 -0.0987
34690SOL    HW110162   5.197   1.328   3.506 -2.1280 -0.2663 -0.6612
34690SOL    HW210163   5.097   1.424   3.566  0.5806  1.1763  1.7807
34691SOL     OW10164   8.313   2.493   7.033  0.2049 -0.3970 -0.3404
34691SOL    HW110165   8.253   2.566   7.050 -0.2024 -0.4326 -1.5224
34691SOL    HW210166   8.259   2.428   6.987  0.5936 -1.3995  0.5830
34692SOL     OW10167  10.201   6.563   4.306 -0.3068 -0.0363  0.2373
34692SOL    HW110168  10.211   6.508   4.228 -0.6498 -0.4543  0.4831
34692SOL    HW210169  10.163   6.644   4.274 -1.4495 -0.6011  0.1068
34693SOL     OW10170   7.259   8.487   3.598  0.4950 -0.5961 -0.1851
34693SOL    HW110171   7.330   8.537   3.638 -0.1129  1.0147 -1.0502
34693SOL    HW210172   7.275   8.494   3.504 -0.3842 -0.8717 -0.3622
34694SOL     OW10173   0.464   2.031   1.837 -0.0451 -0.3873 -0.3136
34694SOL    HW110174   0.518   2.099   1.797  2.2045 -1.1658  1.2349
34694SOL    HW210175   0.429   1.982   1.762  0.1958  1.0077 -1.3921
34695SOL     OW10176   7.746   3.569   5.823  0.5675  0.0349  0.5175
34695SOL    HW110177   7.801   3.634   5.780  0.0938 -0.7564 -1.4045
34695SOL    HW210178   7.756   3.490   5.769  0.0662 -1.0707  1.9910
34696SOL     OW10179   4.439   3.974   7.657 -0.0580  0.0838 -0.4352
34696SOL    HW110180   4.426   4.047   7.596 -1.6422 -0.1296 -0.4094
34696SOL    HW210181   4.379   3.906   7.626  0.5055 -0.7579  0.2593
34697SOL     OW10182   0.503  10.359   9.893 -0.4861  0.5952 -0.0930
34697SOL    HW110183   0.518  10.317   9.978 -1.0080 -1.1008 -0.8125
34697SOL    HW210184   0.415  10.333   9.868  0.3976 -0.6664 -2.0991
34698SOL     OW10185   2.164   1.944   3.412 -0.0699  0.1644  0.4825
34698SOL    HW110186   2.231   1.918   3.476 -0.2787  0.5702  0.8667
34698SOL    HW210187   2.132   1.860   3.377  1.9976 -0.0177 -1.1568
34699SOL     OW10188   0.426   6.605  10.470  0.4641 -0.2845  0.3978
34699SOL    HW110189   0.416   6.700  10.481  1.5606 -0.1932  0.7945
34699SOL    HW210190   0.367   6.582  10.399 -1.3341  0.3561  1.6343
34700SOL     OW10191  10.689   9.705   1.907  0.4728 -0.4911  0.3403
34700SOL    HW110192  10.702   9.722   2.000 -0.5622 -1.2109  0.6352
34700SOL    HW210193  10.754   9.761   1.863  1.0780 -0.2576  1.4858
34701SOL     OW10194   0.847   0.804   0.463  0.1328 -0.0201  0.2786
34701SOL    HW110195   0.793   0.753   0.523  0.2275  0.2173  0.5678
34701SOL    HW210196   0.790   0.822   0.388  1.3869 -4.5782 -2.1233
34702SOL     OW10197   1.234   5.599  10.433  0.1331  0.1505 -0.9220
34702SOL    HW110198   1.207   5.656  10.361  0.2984 -0.7246 -1.6959
34702SOL    HW210199   1.219   5.652  10.512 -0.6573  0.8964 -1.5425
34703SOL     OW10200   3.719   7.156   1.118  0.5135 -0.1108 -0.1705
34703SOL    HW110201   3.640   7.108   1.096  0.1874  0.2775  0.1275
34703SOL    HW210202   3.687   7.241   1.150  1.0575  0.1461 -0.2929
34704SOL     OW10203   8.872   9.465   6.110 -0.0230 -0.7060 -0.5540
34704SOL    HW110204   8.800   9.526   6.126  0.4571 -0.0670 -0.7762
34704SOL    HW210205   8.862   9.398   6.177 -1.1930 -0.9688 -0.9689
34705SOL     OW10206  10.468   6.828   8.027  0.2001  0.6491  0.0170
34705SOL    HW110207  10.413   6.762   8.069 -0.5418  1.3000  0.0870
34705SOL    HW210208  10.524   6.861   8.097 -0.4994  1.1804  0.3376
34706SOL     OW10209  10.746   0.035  10.708  0.4084 -0.1291  0.3622
34706SOL    HW110210  10.757   0.088  10.629  0.8109 -0.3418  0.2742
34706SOL    HW210211  10.652   0.017  10.712 -0.1914  2.6967  1.7582
34707SOL     OW10212   7.798  10.353   1.333 -0.2145 -0.1511  0.3024
34707SOL    HW110213   7.885  10.378   1.363  0.1738 -0.0181 -0.8538
34707SOL    HW210214   7.778  10.415   1.263 -0.1913 -1.6233 -1.0808
34708SOL     OW10215   3.993   9.129   6.331  0.4192  0.2482 -0.4854
34708SOL    HW110216   4.037   9.108   6.414  1.6513 -0.4608 -1.2850
34708SOL    HW210217   4.023   9.217   6.309 -0.2678  0.6229  0.0250
34709SOL     OW10218   6.732   1.904   4.288 -0.4666 -0.4505 -0.2179
34709SOL    HW110219   6.772   1.843   4.226  0.9616  0.7521 -0.5432
34709SOL    HW210220   6.648   1.864   4.310 -0.5862 -1.4010 -2.1589
34710SOL     OW10221   2.489   6.253   2.165 -0.3577 -0.5821  0.0408
34710SOL    HW110222   2.465   6.164   2.141 -0.1279 -0.6518  0.0723
34710SOL    HW210223   2.499   6.299   2.081 -0.1207 -0.6784  0.0160
34711SOL     OW10224   7.905   1.798   1.399  0.0385  0.4882 -0.1644
34711SOL    HW110225   7.854   1.717   1.392  0.9113 -0.0531 -0.3364
34711SOL    HW210226   7.909   1.831   1.309  0.4368  0.2473 -0.2379
34712SOL     OW10227   9.885   0.055   0.017 -0.4383  0.2594 -0.4760
34712SOL    HW110228   9.981   0.059   0.015 -0.4940  2.2526 -0.5816
34712SOL    HW210229   9.865  -0.036  -0.005  1.4069  0.0258 -1.3674
34713SOL     OW10230   0.796   1.575   8.801 -0.2418  0.7343  0.4254
34713SOL    HW110231   0.839   1.656   8.775 -0.7539  0.7956 -0.2589
34713SOL    HW210232   0.858   1.506   8.781 -0.0739  0.9011  0.3744
34714SOL     OW10233   1.798  10.357   1.065 -0.3750 -1.0715  0.1791
34714SOL    HW110234   1.717  10.360   1.115 -1.0147 -2.0157 -0.7592
34714SOL    HW210235   1.787  10.282   1.006  0.6378 -0.4210 -0.8702
34715SOL     OW10236   7.475   1.642   5.380  0.3912  0.0627  0.0472
34715SOL    HW110237   7.425   1.722   5.371  0.3339 -0.0601 -0.7818
34715SOL    HW210238   7.544   1.649   5.315  1.3202  0.1180  1.0032
34716SOL     OW10239   3.236   0.237   7.363  0.2069 -0.3313 -0.2299
34716SOL    HW110240   3.254   0.171   7.296  0.1654 -1.0619  0.4707
34716SOL    HW210241   3.172   0.295   7.322 -2.4955 -2.6922  0.3107
34717SOL     OW10242   8.496   2.719   2.072  0.5106 -0.5257 -0.3158
34717SOL    HW110243   8.469   2.792   2.128  0.8790 -0.6330  0.0135
34717SOL    HW210244   8.517   2.759   1.988 -2.1127 -0.6139 -1.1039
34718SOL     OW10245   4.795   6.687   3.307 -0.1652 -0.6562 -0.6396
34718SOL    HW110246   4.879   6.668   3.350 -0.7538 -1.2227  0.2971
34718SOL    HW210247   4.779   6.611   3.251 -0.2283 -0.7251 -0.5294
34719SOL     OW10248   8.810   0.529   9.494  0.0798 -0.5714  0.7312
34719SOL    HW110249   8.774   0.534   9.405  1.6065 -1.8827 -0.0137
34719SOL    HW210250   8.776   0.447   9.530 -0.8354  0.1376  1.5244
34720SOL     OW10251   8.100   9.136   2.953  0.7290 -0.6171 -0.5540
34720SOL    HW110252   8.137   9.075   3.016  0.1488  0.6168  1.0713
34720SOL    HW210253   8.008   9.111   2.946  0.5648 -0.1536 -0.1333
34721SOL     OW10254   2.809   8.433   6.899  0.4040 -0.6106  0.2843
34721SOL    HW110255   2.891   8.384   6.893  0.8807  0.2049  0.0982
34721SOL    HW210256   2.760   8.405   6.821  1.3285  0.3663 -0.6921
34722SOL     OW10257   3.918   8.009   5.366 -0.0944 -0.6679 -0.0064
34722SOL    HW110258   3.981   8.060   5.316  0.7148 -1.7215 -0.0938
34722SOL    HW210259   3.870   8.074   5.417 -0.3470  0.3389 -1.4676
34723SOL     OW10260   8.282   7.348   6.422 -0.2887  0.1715  0.1499
34723SOL    HW110261   8.335   7.384   6.351  2.9635 -0.2607  2.1508
34723SOL    HW210262   8.271   7.256   6.399 -0.6864  0.3871 -0.5595
34724SOL     OW10263   9.125   9.184   0.463 -0.3477 -0.3029  0.3670
34724SOL    HW110264   9.031   9.174   0.450 -0.1258 -0.3283 -1.5651
34724SOL    HW210265   9.141   9.277   0.450  0.1277 -0.5998 -1.4798
34725SOL     OW10266   8.612   8.070   5.561 -0.2505  0.0843 -0.4801
34725SOL    HW110267   8.574   8.157   5.554  0.9979  0.6061 -1.2228
34725SOL    HW210268   8.672   8.064   5.487  0.7035 -0.8857  0.3277
34726SOL     OW10269   7.906   2.653   6.481 -0.2588  0.6262 -0.0377
34726SOL    HW110270   7.913   2.562   6.508 -0.2500  0.6721  0.1160
34726SOL    HW210271   7.857   2.695   6.552 -0.5616  0.6691 -0.2700
34727SOL     OW10272   3.178   4.630   8.624 -0.0344  0.6321 -0.3258
34727SOL    HW110273   3.260   4.599   8.662  0.2687 -0.7675 -1.9795
34727SOL    HW210274   3.190   4.724   8.613  1.0987  0.5404  0.0141
34728SOL     OW10275   8.413   9.996   6.643 -0.0674 -0.0525 -0.3992
34728SOL    HW110276   8.488   9.965   6.592 -1.3704  0.0973 -2.5237
34728SOL    HW210277   8.387  10.077   6.600 -1.3352 -0.0118  0.4106
34729SOL     OW10278   8.274   3.229  10.085 -0.2602 -0.0626  0.0067
34729SOL    HW110279   8.259   3.311  10.132  0.2490  0.1008 -0.1124
34729SOL    HW210280   8.325   3.175  10.145  1.5910  0.6627 -0.8400
34730SOL     OW10281   6.600   5.714  10.173  0.5343 -0.2500  0.0635
34730SOL    HW110282   6.665   5.650  10.145  0.2851 -0.6063  0.2973
34730SOL    HW210283   6.565   5.749  10.091  0.4226 -0.6664 -0.0699
34731SOL     OW10284   6.603   6.391   3.551 -0.8462  0.4989 -0.7007
34731SOL    HW110285   6.525   6.416   3.601 -0.4811  0.8894 -0.3253
34731SOL    HW210286   6.595   6.439   3.469 -1.1773  0.2696 -0.8054
34732SOL     OW10287   6.404  10.608   3.102 -0.9452  1.1233  0.0331
34732SOL    HW110288   6.405  10.632   3.194 -1.5595  0.0620  0.3330
34732SOL    HW210289   6.363  10.521   3.100  1.8101 -0.2736 -0.8960
34733SOL     OW10290   4.085   0.446   3.792 -0.3569 -0.8416  0.3355
34733SOL    HW110291   4.119   0.532   3.764 -0.7087 -1.1016 -0.9893
34733SOL    HW210292   4.120   0.385   3.728  1.3139 -1.9984  2.2608
34734SOL     OW10293   7.518   1.526   0.359  0.0029  0.5368 -0.3920
34734SOL    HW110294   7.456   1.454   0.352 -1.1548  1.1576  2.2312
34734SOL    HW210295   7.573   1.503   0.434  0.2795  1.8604 -0.1590
34735SOL     OW10296   1.022   8.349   2.219 -0.4034 -0.1868 -0.1356
34735SOL    HW110297   1.088   8.340   2.150  0.9736  0.6827  1.0008
34735SOL    HW210298   0.956   8.406   2.181  0.9364  1.2931 -0.3755
34736SOL     OW10299   6.453   2.915   6.785  0.3157  0.3203  0.1895
34736SOL    HW110300   6.381   2.909   6.848 -0.0391  0.6193 -0.1808
34736SOL    HW210301   6.515   2.848   6.813  0.1760  0.4686  0.8730
34737SOL     OW10302   2.912   3.214   6.522  1.1218 -0.0592  0.3309
34737SOL    HW110303   2.920   3.195   6.615  1.9369 -0.3971  0.2054
34737SOL    HW210304   2.980   3.279   6.504  0.5969  0.4285  0.0803
34738SOL     OW10305   3.685   2.414   7.367  0.2228  0.6410 -0.2269
34738SOL    HW110306   3.624   2.352   7.408  1.5542 -0.2108  0.5249
34738SOL    HW210307   3.636   2.496   7.362 -0.5001  0.3763  1.7350
34739SOL     OW10308   9.369   2.060   9.678 -0.3166  0.2195 -0.0481
34739SOL    HW110309   9.335   2.149   9.686  1.8214  1.1986 -0.9130
34739SOL    HW210310   9.332   2.027   9.596  0.2013  0.9841 -0.6044
34740SOL     OW10311   9.248   7.945   1.495  0.7871 -0.4130 -0.0380
34740SOL    HW110312   9.174   7.885   1.497 -0.3656  0.9442  0.2482
34740SOL    HW210313   9.213   8.024   1.453  1.7106  0.6742  1.1522
34741SOL     OW10314   3.109   1.155   3.733  0.2462 -0.1057  0.4678
34741SOL    HW110315   3.167   1.138   3.659  0.0797 -0.0565  0.3253
34741SOL    HW210316   3.161   1.211   3.792  0.0565  0.6238 -0.0443
34742SOL     OW10317   2.982   6.318  10.064 -0.0665  0.0801 -0.1280
34742SOL    HW110318   2.888   6.334  10.052 -0.5770 -1.6648  1.1206
34742SOL    HW210319   2.999   6.347  10.154  0.6179  0.4701 -0.3820
34743SOL     OW10320   5.171   0.860   8.164 -0.0452 -0.0346 -0.0124
34743SOL    HW110321   5.253   0.858   8.215 -0.6833  0.5194  1.0839
34743SOL    HW210322   5.156   0.953   8.149 -1.5978  0.0596  1.7379
34744SOL     OW10323   5.527   7.359   6.283  0.3836  0.3069 -0.0477
34744SOL    HW110324   5.616   7.359   6.246 -0.1726 -0.2653 -1.4385
34744SOL    HW210325   5.472   7.392   6.213 -0.5364  0.5925  0.7847
34745SOL     OW10326   9.201   3.477   9.783  0.1220  0.1522  0.4018
34745SOL    HW110327   9.207   3.422   9.706 -0.3686  2.2294 -1.2101
34745SOL    HW210328   9.134   3.435   9.837  0.0410 -1.0217 -0.5687
34746SOL     OW10329   8.452   5.705   4.572 -0.0986 -0.7073 -0.0450
34746SOL    HW110330   8.541   5.711   4.608  0.3255 -1.2514 -0.9545
34746SOL    HW210331   8.419   5.794   4.576 -0.0745 -0.7379  1.6526
34747SOL     OW10332  10.112   0.749   1.589  0.1791 -0.3179 -0.4999
34747SOL    HW110333  10.090   0.826   1.642  2.7201  0.1656  0.0129
34747SOL    HW210334  10.031   0.728   1.543 -1.8418 -0.0118  2.5778
34748SOL     OW10335   8.539   6.087   9.667 -0.8331 -0.0030 -0.3011
34748SOL    HW110336   8.515   6.143   9.593 -0.5498  1.1087  0.4161
34748SOL    HW210337   8.596   6.142   9.720  0.7840 -1.5135 -0.3683
34749SOL     OW10338   4.671   0.830   6.778 -0.2185 -0.1066 -0.0411
34749SOL    HW110339   4.599   0.870   6.827 -0.2671 -1.2856  0.8949
34749SOL    HW210340   4.748   0.884   6.799 -0.7360  0.9604 -0.7855
34750SOL     OW10341   0.902   9.592   9.166 -0.0185  0.2617  0.3779
34750SOL    HW110342   0.963   9.633   9.105  0.9920 -3.6639 -1.5548
34750SOL    HW210343   0.816   9.606   9.127  0.1032  1.7461  0.5880
34751SOL     OW10344   8.336   8.127   9.812 -0.0527 -0.2012 -0.7662
34751SOL    HW110345   8.298   8.131   9.900 -0.7306 -0.5793 -1.0301
34751SOL    HW210346   8.431   8.129   9.826 -0.1541 -0.3944 -0.0215
34752SOL     OW10347   8.003  10.538   7.810 -0.0406 -0.1618 -0.3384
34752SOL    HW110348   8.029  10.609   7.870 -0.1959  0.2671 -0.7700
34752SOL    HW210349   8.084  10.491   7.793 -0.0542 -0.4938  0.4717
34753SOL     OW10350   6.859   7.142  10.798 -0.2270  0.3260 -0.1113
34753SOL    HW110351   6.869   7.081  10.872  1.4969  0.3591 -0.2741
34753SOL    HW210352   6.944   7.186  10.792 -0.6205  0.9360 -1.5838
34754SOL     OW10353   3.431   7.983   5.886  0.0667 -0.1808 -0.8572
34754SOL    HW110354   3.459   7.985   5.794 -0.6411  0.2716 -1.0744
34754SOL    HW210355   3.360   7.919   5.888  0.4327 -0.5801 -0.5155
34755SOL     OW10356   7.137   5.071   5.316  0.2390 -0.4412 -0.1417
34755SOL    HW110357   7.105   5.000   5.260  0.4774 -1.0456  0.4777
34755SOL    HW210358   7.222   5.095   5.279 -0.6871  0.8860 -1.5428
34756SOL     OW10359   2.964   4.435  10.870 -1.0165 -0.4546 -0.0189
34756SOL    HW110360   2.942   4.415  10.961 -1.2416 -1.0609 -0.1968
34756SOL    HW210361   3.040   4.379  10.852 -1.9636 -1.5858 -0.6799
34757SOL     OW10362   9.812   8.803   8.408  0.2009  0.1332  0.0249
34757SOL    HW110363   9.847   8.889   8.384  0.3671 -0.3144 -1.3732
34757SOL    HW210364   9.723   8.821   8.437  0.7425  0.9679  1.2680
34758SOL     OW10365   1.716   8.546   3.763  0.7027 -0.0135 -0.1903
34758SOL    HW110366   1.774   8.487   3.810  0.6155  0.1143  0.0790
34758SOL    HW210367   1.635   8.496   3.750  0.4199  0.2420  0.5458
34759SOL     OW10368   7.189   7.454   5.218 -0.1314  0.1654  1.1152
34759SOL    HW110369   7.095   7.473   5.224 -0.5655 -1.1736 -0.5865
34759SOL    HW210370   7.215   7.491   5.134  1.0352  1.0229  1.8241
34760SOL     OW10371   8.343   3.106   7.164 -0.1942  0.7589  0.0754
34760SOL    HW110372   8.288   3.169   7.209  0.0602 -0.6382  2.4936
34760SOL    HW210373   8.345   3.137   7.073 -2.1222  2.7447  0.6227
34761SOL     OW10374   8.930   8.580   6.164  0.6519  0.6855 -0.4092
34761SOL    HW110375   8.960   8.505   6.215  0.9344  1.8571  1.2446
34761SOL    HW210376   8.973   8.571   6.079  0.9421 -0.8164 -0.1257
34762SOL     OW10377   5.480   2.955   4.041  0.0730  0.3112 -0.1186
34762SOL    HW110378   5.434   3.036   4.020 -1.7846 -0.2376  1.4907
34762SOL    HW210379   5.411   2.889   4.044  1.4805 -1.2747 -0.9343
34763SOL     OW10380   8.147   0.472   6.658 -0.3358  0.3548 -0.3875
34763SOL    HW110381   8.163   0.509   6.745 -0.1542  1.1410 -0.7450
34763SOL    HW210382   8.058   0.437   6.663  0.6087 -2.0985  0.9517
34764SOL     OW10383   6.158   9.953   9.247  0.0721  0.3637 -0.4340
34764SOL    HW110384   6.236   9.938   9.300  0.1495 -0.2638 -0.7216
34764SOL    HW210385   6.191   9.963   9.158 -0.0566  1.4187 -0.3824
34765SOL     OW10386   9.537   0.020   0.347  0.4323 -0.2922  0.3545
34765SOL    HW110387   9.577   0.104   0.371 -1.6076  0.9805 -0.4864
34765SOL    HW210388   9.601  -0.021   0.288  1.2027  0.9241  0.3201
34766SOL     OW10389   8.155   1.669   1.740  0.0289 -0.3373 -0.3357
34766SOL    HW110390   8.171   1.575   1.729 -4.6825 -1.5445  0.9790
34766SOL    HW210391   8.203   1.691   1.820  0.6565 -1.7705 -0.2807
34767SOL     OW10392   3.375   8.607   8.849 -0.1390  0.2275 -0.0109
34767SOL    HW110393   3.414   8.568   8.771 -1.0111  0.2259 -0.4592
34767SOL    HW210394   3.439   8.673   8.877 -0.2540  0.9289 -1.3225
34768SOL     OW10395   5.063   3.583   7.139  0.1390 -0.0710  0.6999
34768SOL    HW110396   4.980   3.547   7.170 -0.4154  0.7396  0.1737
34768SOL    HW210397   5.117   3.505   7.120 -0.8884 -0.6367 -0.0241
34769SOL     OW10398   3.933   9.954   1.707 -0.0878  0.2211  0.3651
34769SOL    HW110399   3.866   9.889   1.728 -1.7119  2.2482  1.9492
34769SOL    HW210400   4.001   9.939   1.772 -0.4868  0.1180  0.7688
34770SOL     OW10401   3.393   1.193   0.028 -0.3428  0.2746 -0.0290
34770SOL    HW110402   3.357   1.278   0.054 -0.4540  0.6368 -1.3355
34770SOL    HW210403   3.480   1.191   0.068  0.0836  1.4607 -0.8501
34771SOL     OW10404   4.148   2.367   1.462 -0.7876  0.0197  0.0151
34771SOL    HW110405   4.228   2.329   1.424  0.2658 -0.6137  2.6595
34771SOL    HW210406   4.090   2.292   1.474 -1.7283  0.4333 -1.5900
34772SOL     OW10407   0.844   9.582   4.253 -0.4408 -0.0615  0.1471
34772SOL    HW110408   0.901   9.620   4.187 -1.3616  0.9018 -0.1327
34772SOL    HW210409   0.851   9.487   4.240  1.0516  0.0358  0.1206
34773SOL     OW10410   4.496   5.880   2.077  0.4907  0.5479 -0.2287
34773SOL    HW110411   4.514   5.795   2.117 -0.7237  0.6742  0.6345
34773SOL    HW210412   4.532   5.873   1.989  0.1858 -0.9664 -0.2641
34774SOL     OW10413   3.192   5.955   7.905  0.4606  0.8280 -0.0399
34774SOL    HW110414   3.284   5.982   7.910  0.7076  0.0072 -0.0427
34774SOL    HW210415   3.148   6.030   7.865  0.7707  2.0667  1.8021
34775SOL     OW10416   1.000   3.346   3.044  0.1276  0.4692 -0.4052
34775SOL    HW110417   1.059   3.280   3.008 -0.0607  0.6707 -1.0983
34775SOL    HW210418   1.037   3.430   3.016  0.8409  0.7186  1.1902
34776SOL     OW10419   4.579   9.596   1.698 -0.1258  0.0054  0.3618
34776SOL    HW110420   4.635   9.671   1.675 -0.8636  0.8694  1.3527
34776SOL    HW210421   4.491   9.632   1.705 -0.8014 -1.2893 -0.8733
34777SOL     OW10422  10.346   9.796   1.514 -0.4724 -0.2931 -0.8242
34777SOL    HW110423  10.380   9.860   1.451 -0.3377 -0.8595 -1.3369
34777SOL    HW210424  10.255   9.823   1.528 -0.1863  0.4785 -0.4227
34778SOL     OW10425  10.585  10.266   1.968 -0.8974  0.5582 -0.8800
34778SOL    HW110426  10.566  10.177   1.939 -0.2955 -0.1703  0.8473
34778SOL    HW210427  10.517  10.285   2.033  0.3554  0.4449  0.4877
34779SOL     OW10428   3.974   7.747  10.821  0.0524  0.4775 -0.3540
34779SOL    HW110429   3.976   7.774  10.912 -1.2921 -1.0895  0.1936
34779SOL    HW210430   4.063   7.762  10.789  0.1174  2.7179  0.6616
34780SOL     OW10431   2.583   6.241   0.523  0.3445 -0.5710 -0.1400
34780SOL    HW110432   2.650   6.192   0.572  1.7083  1.1843 -0.1563
34780SOL    HW210433   2.505   6.235   0.578  1.0396 -1.0639  0.8294
34781SOL     OW10434   1.284  10.576   6.271  0.3605 -0.4478 -0.5615
34781SOL    HW110435   1.326  10.615   6.347  1.2464 -1.5798 -0.4495
34781SOL    HW210436   1.351  10.520   6.232  0.2086  0.7095 -2.6763
34782SOL     OW10437   2.659  10.886   1.453  0.8552  0.2228  0.0190
34782SOL    HW110438   2.678  10.967   1.406  3.4380 -0.6183 -0.5890
34782SOL    HW210439   2.639  10.914   1.542  1.1008  1.5594 -0.3212
34783SOL     OW10440   4.859   6.054   3.300  0.0071 -0.1746  0.3848
34783SOL    HW110441   4.815   5.982   3.255  2.0762 -1.7534  0.7592
34783SOL    HW210442   4.919   6.090   3.234 -0.4573  0.7370  0.4403
34784SOL     OW10443   3.330   8.140   4.464 -0.6073  0.5941 -0.3617
34784SOL    HW110444   3.324   8.193   4.384 -2.6396 -0.6715 -1.1024
34784SOL    HW210445   3.342   8.051   4.432 -2.6263 -0.0912  0.6654
34785SOL     OW10446   6.301   7.748  10.017 -0.5119  0.5421 -0.2693
34785SOL    HW110447   6.287   7.703   9.933  0.5285 -0.3424  0.0142
34785SOL    HW210448   6.315   7.677  10.080 -1.4673  1.1845  0.7110
34786SOL     OW10449   5.691   4.206   8.783  0.3938 -0.7545  0.0013
34786SOL    HW110450   5.614   4.261   8.772 -1.4992 -3.5529 -2.0531
34786SOL    HW210451   5.682   4.168   8.871 -0.8976 -1.4401 -0.4112
34787SOL     OW10452   2.914   3.748   8.495 -0.0781  0.2731 -0.2241
34787SOL    HW110453   2.926   3.842   8.509  0.1167  0.1313  0.6456
34787SOL    HW210454   2.947   3.708   8.576  0.7313 -0.5963 -0.9640
34788SOL     OW10455   4.100   4.460   3.857 -0.2246  0.3888  0.2705
34788SOL    HW110456   4.107   4.550   3.827  1.4926  0.0443 -0.4245
34788SOL    HW210457   4.078   4.410   3.779  0.6346 -0.0214  0.2792
34789SOL     OW10458   6.323   8.187   9.350  0.7201  0.1118  0.3066
34789SOL    HW110459   6.376   8.238   9.288  0.6712 -0.0589  0.1226
34789SOL    HW210460   6.246   8.242   9.366  0.6479  0.0814  0.0779
34790SOL     OW10461   2.807   5.705  10.184 -0.0826  0.5873  0.3817
34790SOL    HW110462   2.757   5.625  10.173  1.3079 -0.3920  0.9233
34790SOL    HW210463   2.742   5.775  10.181 -1.5371 -0.6574  1.5790
34791SOL     OW10464   2.240   6.042   2.752 -0.1019 -0.2979 -0.0164
34791SOL    HW110465   2.264   6.132   2.776  0.2656 -0.3705 -0.0974
34791SOL    HW210466   2.245   6.041   2.656 -2.0028  0.1173 -0.1655
34792SOL     OW10467   4.135   7.462   2.973 -0.7047  0.2979  1.0799
34792SOL    HW110468   4.215   7.461   3.026 -0.0054  2.4883  0.1916
34792SOL    HW210469   4.163   7.427   2.888 -0.2016  2.4174  0.2832
34793SOL     OW10470   4.104   6.667   8.642  0.4194 -0.1933 -0.1364
34793SOL    HW110471   4.160   6.695   8.714  0.4542 -1.3191  0.2985
34793SOL    HW210472   4.071   6.581   8.669  0.3275 -0.5813 -1.3955
34794SOL     OW10473   5.617   1.908   1.469  0.0342  0.2562  0.6282
34794SOL    HW110474   5.591   1.949   1.386 -0.3025 -2.0788 -0.5028
34794SOL    HW210475   5.626   1.815   1.448 -0.1734 -0.4382  3.2672
34795SOL     OW10476   5.598   1.371   0.846  0.1545 -0.1317  0.2484
34795SOL    HW110477   5.625   1.432   0.916  1.2198 -1.3377  0.9251
34795SOL    HW210478   5.626   1.414   0.766  1.0444  0.2170  0.7279
34796SOL     OW10479   4.077   0.010   5.947 -0.0912  0.3038 -0.2971
34796SOL    HW110480   3.988   0.035   5.926 -1.4308 -1.8710  2.1659
34796SOL    HW210481   4.080  -0.085   5.935  1.7903  0.2741 -0.0423
34797SOL     OW10482   7.188   0.924   7.522 -0.5680  0.2972  0.3073
34797SOL    HW110483   7.283   0.929   7.512 -0.7304  0.4134 -1.5119
34797SOL    HW210484   7.171   0.832   7.546 -0.0151  0.2456  0.5112
34798SOL     OW10485   0.155  10.708   0.624  0.7468 -0.3771 -0.3417
34798SOL    HW110486   0.188  10.619   0.612 -1.3631 -1.0805 -1.7383
34798SOL    HW210487   0.090  10.718   0.554 -0.9956  1.2884  1.3831
34799SOL     OW10488   6.080   0.820   3.263 -0.3969 -0.3590  0.2547
34799SOL    HW110489   6.064   0.915   3.267  1.7685  0.0372  2.2139
34799SOL    HW210490   6.002   0.781   3.303 -0.1692  0.8536  2.0334
34800SOL     OW10491   5.592   4.035   8.348 -0.2240  0.2660  0.1815
34800SOL    HW110492   5.550   3.958   8.387 -2.7606  0.5784 -1.6760
34800SOL    HW210493   5.533   4.108   8.369 -0.3554  0.8596 -2.0072
34801SOL     OW10494   5.718   8.272   4.165  0.0691  0.4993 -0.3353
34801SOL    HW110495   5.751   8.298   4.250  1.5858 -1.4617 -0.2447
34801SOL    HW210496   5.630   8.237   4.183  0.6211 -0.4952  0.5710
34802SOL     OW10497   4.150   1.062   1.903  0.3678  0.2572 -0.0939
34802SOL    HW110498   4.156   0.976   1.945  0.1820  1.3856  2.4046
34802SOL    HW210499   4.240   1.095   1.902  0.2719  0.5282  0.0825
34803SOL     OW10500   0.784   1.146   6.657  0.0693  0.1952 -0.2383
34803SOL    HW110501   0.720   1.086   6.696 -0.4575  0.2595 -0.9795
34803SOL    HW210502   0.745   1.233   6.668  0.2985  0.2904 -0.1744
34804SOL     OW10503   1.401   2.044   9.200 -0.0324  0.6293 -0.1303
34804SOL    HW110504   1.475   2.103   9.207  0.3197  0.1982 -0.1572
34804SOL    HW210505   1.324   2.101   9.199  0.1301  1.0006  2.3344
34805SOL     OW10506   4.071   8.422   5.589  0.0647 -0.4486  0.2617
34805SOL    HW110507   4.057   8.338   5.634 -0.1834 -0.2951  0.4786
34805SOL    HW210508   4.156   8.412   5.546  0.1467 -0.7265  0.4790
34806SOL     OW10509   5.248   3.621   1.414  0.3090  0.0312 -0.3133
34806SOL    HW110510   5.303   3.575   1.477  3.5708  2.6319 -0.9719
34806SOL    HW210511   5.173   3.651   1.464  0.7193 -1.5036  1.2998
34807SOL     OW10512   9.318  10.110  10.654 -0.2503 -0.5277 -0.2347
34807SOL    HW110513   9.282  10.022  10.658 -1.0022 -0.2918 -1.3705
34807SOL    HW210514   9.368  10.113  10.573  0.3715 -0.1125  0.1463
34808SOL     OW10515   3.708   7.466   5.386 -0.6272 -0.2368  0.7128
34808SOL    HW110516   3.799   7.496   5.382 -1.8080  3.7970 -0.5398
34808SOL    HW210517   3.693   7.425   5.301 -0.5312  1.0844  0.0402
34809SOL     OW10518   5.182   7.263   0.610 -0.2586 -0.0410 -0.2125
34809SOL    HW110519   5.190   7.334   0.547 -0.9382  0.4246  0.2097
34809SOL    HW210520   5.263   7.266   0.661 -0.1992  0.2995 -0.3263
34810SOL     OW10521   5.042   6.308   7.290  0.3866  0.2750 -0.0341
34810SOL    HW110522   5.086   6.243   7.345 -1.2404 -2.0216 -1.2505
34810SOL    HW210523   5.110   6.371   7.268  2.3087 -1.4834  0.5482
34811SOL     OW10524   3.589   0.951   8.204  0.0213 -0.1391  0.2954
34811SOL    HW110525   3.630   0.869   8.178  0.2320  0.7341 -2.4950
34811SOL    HW210526   3.503   0.926   8.237  0.0234 -1.4702 -0.6358
34812SOL     OW10527   7.375   0.806   0.776 -0.1682  0.0256 -0.2836
34812SOL    HW110528   7.407   0.882   0.728 -1.2221  0.3591 -0.4982
34812SOL    HW210529   7.342   0.746   0.708 -1.7528  0.5400 -0.0282
34813SOL     OW10530   5.070   4.787   0.489 -0.4587  0.7519  0.2138
34813SOL    HW110531   4.999   4.847   0.464 -0.7504 -0.0326 -0.9213
34813SOL    HW210532   5.145   4.816   0.437 -0.8032 -0.2905 -0.9110
34814SOL     OW10533   3.285   2.586   2.791 -0.4608  0.2298 -0.5058
34814SOL    HW110534   3.337   2.583   2.711 -1.5710 -2.3898 -1.2336
34814SOL    HW210535   3.196   2.606   2.761 -0.4619  1.7112  0.3870
34815SOL     OW10536   4.693   5.075   8.024  0.5175 -0.0294 -0.3190
34815SOL    HW110537   4.719   4.987   8.052 -0.1709  0.1603  0.9759
34815SOL    HW210538   4.597   5.073   8.026  0.4822  1.2009  1.2907
34816SOL     OW10539   2.016   7.266   7.094 -0.1383 -0.3648  0.1764
34816SOL    HW110540   2.044   7.206   7.025 -0.1843  0.5978 -0.7022
34816SOL    HW210541   2.080   7.337   7.091 -1.2590  0.6707 -0.2348
34817SOL     OW10542   9.869   2.379   8.104 -0.7622  0.2473 -0.5104
34817SOL    HW110543   9.778   2.358   8.123 -0.3803 -0.2484  0.9355
34817SOL    HW210544   9.865   2.454   8.045 -2.1156  1.3170  0.8644
34818SOL     OW10545   6.307  10.742   1.151 -0.1151 -0.0911 -0.0083
34818SOL    HW110546   6.349  10.758   1.067 -0.7759 -2.2053 -0.7935
34818SOL    HW210547   6.380  10.740   1.214  1.0950 -3.4904 -1.3038
34819SOL     OW10548   8.103   0.620   5.408  1.0059  1.2224  0.1552
34819SOL    HW110549   8.149   0.575   5.478  1.0809  0.6858 -0.2346
34819SOL    HW210550   8.017   0.641   5.445  0.9250  0.6447  0.2909
34820SOL     OW10551   8.660   7.500   8.748  0.1542  0.2456  0.5615
34820SOL    HW110552   8.619   7.584   8.727  0.1141  0.1158  0.1017
34820SOL    HW210553   8.604   7.462   8.815 -0.2517  0.2559  0.2373
34821SOL     OW10554   7.527   4.580  10.677  0.0125  0.2384  0.3224
34821SOL    HW110555   7.598   4.636  10.645  1.0235 -0.4078  1.3531
34821SOL    HW210556   7.508   4.612  10.765 -0.0732 -0.4159  0.5503
34822SOL     OW10557   2.553   9.741   7.030  0.0593  0.7073  0.0921
34822SOL    HW110558   2.567   9.690   6.950 -0.7823 -0.4869  0.6807
34822SOL    HW210559   2.460   9.761   7.031 -0.5116 -1.5912  2.0478
34823SOL     OW10560   7.713   2.158   8.032 -0.0613 -0.1763 -0.3561
34823SOL    HW110561   7.774   2.188   7.965 -0.2731 -1.4957 -1.1920
34823SOL    HW210562   7.674   2.078   7.995 -1.6660  0.1541  0.5085
34824SOL     OW10563   2.925   7.878   7.688 -0.0005 -0.2756 -0.4487
34824SOL    HW110564   2.860   7.941   7.720  0.4157 -0.3491  0.5905
34824SOL    HW210565   3.009   7.924   7.696  0.1714 -0.4977 -0.9405
34825SOL     OW10566   2.727   5.799   7.976  0.2692 -0.0187 -0.0537
34825SOL    HW110567   2.728   5.804   7.881  0.8146 -0.2631 -0.0591
34825SOL    HW210568   2.764   5.883   8.005  1.4803 -0.5296 -0.0755
34826SOL     OW10569   6.009   4.102   6.994 -1.0081 -0.3549  0.3758
34826SOL    HW110570   6.018   4.046   6.917 -0.0731  2.7781 -2.0319
34826SOL    HW210571   6.098   4.133   7.012 -1.7509  2.4818 -0.2688
34827SOL     OW10572   4.273   3.626   0.211 -0.3622 -0.1334 -0.2746
34827SOL    HW110573   4.192   3.656   0.169 -1.4340 -1.1783  0.9884
34827SOL    HW210574   4.337   3.624   0.139 -1.7013 -0.2636 -1.5188
34828SOL     OW10575  10.527   3.023   0.386  0.5360 -0.2117 -0.8362
34828SOL    HW110576  10.509   3.035   0.292  0.5325  0.8187 -0.7219
34828SOL    HW210577  10.440   3.017   0.426  0.4154  2.1851 -0.5899
34829SOL     OW10578   0.486   6.458   9.634  0.1166  0.3105 -0.1995
34829SOL    HW110579   0.417   6.483   9.572 -0.2447 -0.5792 -0.1719
34829SOL    HW210580   0.499   6.536   9.688 -0.8582  0.4977 -0.2123
34830SOL     OW10581   8.095  10.875   9.631 -0.3968 -0.0895 -0.7572
34830SOL    HW110582   8.167  10.930   9.600 -0.6342  0.2155 -0.7679
34830SOL    HW210583   8.138  10.804   9.679 -0.1243  0.5884  0.0231
34831SOL     OW10584   8.356   8.793   3.403 -0.1084  0.0922  0.3881
34831SOL    HW110585   8.412   8.734   3.454  1.1473 -0.0652 -1.1076
34831SOL    HW210586   8.279   8.740   3.383  1.6122 -1.6702 -2.1635
34832SOL     OW10587   4.695   3.350   4.578  0.1864 -0.0167  0.4667
34832SOL    HW110588   4.703   3.297   4.658  0.0547  0.6985  0.9583
34832SOL    HW210589   4.630   3.417   4.600 -0.6818 -0.4852 -0.6192
34833SOL     OW10590  10.509   5.407   5.826  0.1932  0.5593  0.1021
34833SOL    HW110591  10.567   5.331   5.836 -0.3560 -0.0192 -0.8462
34833SOL    HW210592  10.461   5.412   5.908 -0.6728 -0.9394 -0.2579
34834SOL     OW10593   9.648   5.729   8.356  0.1898 -0.4931 -0.0846
34834SOL    HW110594   9.669   5.821   8.340  1.8482 -0.5323  1.5149
34834SOL    HW210595   9.554   5.729   8.375  0.1155  0.8337 -0.3492
34835SOL     OW10596   7.006   8.947   5.180 -0.1283 -0.1585 -0.1515
34835SOL    HW110597   7.043   8.940   5.267 -0.9274  3.4362  0.6423
34835SOL    HW210598   7.070   8.905   5.123  2.5796  1.1940  1.7034
34836SOL     OW10599   3.312   1.114   3.058  0.0810  0.0612 -0.4963
34836SOL    HW110600   3.243   1.118   3.125 -0.4621  3.4695 -1.0610
34836SOL    HW210601   3.264   1.098   2.976  0.2993 -0.2513 -0.5654
34837SOL     OW10602   6.224   3.351   8.810 -0.2717 -0.3100 -0.3914
34837SOL    HW110603   6.307   3.332   8.767  1.0730  0.0625  1.8783
34837SOL    HW210604   6.166   3.378   8.739  1.0685 -1.9933 -2.2508
34838SOL     OW10605   3.243   1.772   7.744  0.0485 -0.3155 -0.7239
34838SOL    HW110606   3.299   1.744   7.816 -1.2624  0.5749  0.7085
34838SOL    HW210607   3.303   1.809   7.680  1.3041 -1.6343 -0.3646
34839SOL     OW10608   6.823   9.287   8.921  0.3572 -0.0909 -0.3418
34839SOL    HW110609   6.781   9.370   8.946 -0.1676 -0.5890  0.5052
34839SOL    HW210610   6.753   9.238   8.878  0.7735  0.0546 -1.1868
34840SOL     OW10611   3.333   6.125   6.234  0.0645 -0.7152  0.1115
34840SOL    HW110612   3.240   6.114   6.251 -0.4426  0.9755 -1.2244
34840SOL    HW210613   3.337   6.158   6.144  1.6680  2.6160  1.2518
34841SOL     OW10614   6.748   3.946   2.482 -0.2397 -0.3142 -0.0952
34841SOL    HW110615   6.722   4.033   2.511  0.4926  0.2005 -0.9081
34841SOL    HW210616   6.700   3.885   2.539 -3.3119  0.5280 -1.5858
34842SOL     OW10617   1.954   8.136   1.543  0.4989  0.3410  0.6376
34842SOL    HW110618   1.958   8.042   1.562  0.7682 -0.4384 -2.7282
34842SOL    HW210619   1.861   8.157   1.545  0.3763 -0.1829  0.5764
34843SOL     OW10620   3.329   5.130   5.890 -0.1076  0.0933  0.1067
34843SOL    HW110621   3.369   5.140   5.977 -0.2140  0.3443  0.1299
34843SOL    HW210622   3.386   5.180   5.832 -0.6181  0.8213  0.2138
34844SOL     OW10623   1.489   6.880   0.863  0.1121  0.3338 -0.0084
34844SOL    HW110624   1.456   6.818   0.799 -0.0842  1.1910 -0.7500
34844SOL    HW210625   1.517   6.825   0.937  1.2336 -0.7573 -1.1770
34845SOL     OW10626   6.435   0.749   3.309  0.2969 -0.0770  0.1961
34845SOL    HW110627   6.523   0.713   3.313  0.5341  0.5452  1.2298
34845SOL    HW210628   6.377   0.674   3.320  0.6575 -0.5941 -1.2556
34846SOL     OW10629   9.282   7.493   9.308  0.7157 -0.4428  0.0389
34846SOL    HW110630   9.210   7.511   9.248  0.6224  0.1205  0.3082
34846SOL    HW210631   9.345   7.563   9.292  1.1586 -0.8731 -0.1214
34847SOL     OW10632   8.656   6.183   1.382 -0.3148  0.3485  0.0571
34847SOL    HW110633   8.706   6.104   1.397  0.1522 -0.1157 -3.2737
34847SOL    HW210634   8.565   6.153   1.372 -0.6929  0.7021  2.1014
34848SOL     OW10635  10.740   9.070   9.409 -0.1149  0.0724 -0.1729
34848SOL    HW110636  10.760   9.039   9.320  0.6776  0.8004 -0.2554
34848SOL    HW210637  10.802   9.141   9.424 -1.9274  1.7232 -0.0430
34849SOL     OW10638  10.788   1.690   4.187  0.6317  0.1211 -0.4516
34849SOL    HW110639  10.846   1.764   4.170 -0.7808  1.6852  1.1798
34849SOL    HW210640  10.701   1.723   4.168  0.1016 -1.7649 -1.5383
34850SOL     OW10641   9.905   1.500   2.588  0.1793  0.6304  1.1663
34850SOL    HW110642   9.838   1.519   2.522 -0.2069 -2.7369  0.3936
34850SOL    HW210643   9.872   1.542   2.668 -2.0219  0.4700  0.4105
34851SOL     OW10644   7.651   5.473   5.904 -0.4795 -0.4552  0.2769
34851SOL    HW110645   7.575   5.424   5.935  0.0448 -0.9647  0.8020
34851SOL    HW210646   7.726   5.420   5.932  0.0857  0.3101  0.2464
34852SOL     OW10647   8.004   1.492  10.308  0.4252 -0.3272  0.2364
34852SOL    HW110648   7.923   1.486  10.357  0.2325 -1.9319 -0.2367
34852SOL    HW210649   8.008   1.411  10.257  0.4052  1.3741 -2.7235
34853SOL     OW10650   3.480   2.361   9.492  0.2694 -0.4053  0.1240
34853SOL    HW110651   3.569   2.351   9.460  0.7824 -0.6877  1.5550
34853SOL    HW210652   3.484   2.334   9.584 -1.2098 -0.0602  0.3221
34854SOL     OW10653  10.339   8.186   7.305 -0.5913 -0.1524 -0.1957
34854SOL    HW110654  10.331   8.134   7.225 -1.8311 -1.0013  0.4451
34854SOL    HW210655  10.314   8.126   7.375  0.4552  0.5866  0.8344
34855SOL     OW10656   6.137   5.975   6.075 -0.1104  0.0172 -0.1885
34855SOL    HW110657   6.219   5.930   6.053 -1.6556 -1.9905 -2.2644
34855SOL    HW210658   6.095   5.918   6.140  0.2932  1.3008  1.2680
34856SOL     OW10659   3.830   1.276  10.530 -0.1920  0.2129 -0.0089
34856SOL    HW110660   3.889   1.201  10.534  1.3115  1.3863  1.9529
34856SOL    HW210661   3.843   1.314  10.443  0.4000 -0.7319 -0.3372
34857SOL     OW10662   2.377   1.532   7.708  0.5165  0.4351 -0.3862
34857SOL    HW110663   2.439   1.604   7.700  0.7631  0.6110  2.2395
34857SOL    HW210664   2.424   1.456   7.673  0.5659  1.2977 -2.3772
34858SOL     OW10665   4.246   4.442   8.629  0.7515 -0.5769  0.5858
34858SOL    HW110666   4.187   4.506   8.670 -3.7843 -2.4755 -2.1521
34858SOL    HW210667   4.310   4.496   8.582 -0.8600  1.8840  0.9967
34859SOL     OW10668   5.276   6.084   9.303  0.0951  0.5585  0.0769
34859SOL    HW110669   5.343   6.017   9.291 -1.4829 -1.1073  0.1115
34859SOL    HW210670   5.234   6.091   9.217 -0.2713  0.9204  0.2805
34860SOL     OW10671   6.265   8.974   1.224  0.0015  0.2298 -0.0385
34860SOL    HW110672   6.336   8.992   1.162  0.4033 -2.4150 -0.4460
34860SOL    HW210673   6.201   9.043   1.207  0.6644  0.3521 -2.5253
34861SOL     OW10674   1.358   0.084   7.397 -0.6809  0.2334  0.6607
34861SOL    HW110675   1.306   0.126   7.329  0.0610  2.8077  1.5761
34861SOL    HW210676   1.295   0.067   7.468 -0.5848  2.2343  1.2886
34862SOL     OW10677   2.910   5.060   2.633  0.0325  0.4152  0.3339
34862SOL    HW110678   2.877   5.057   2.723  0.5988 -2.3112  0.5285
34862SOL    HW210679   3.003   5.039   2.641  0.4252  1.5547 -0.8013
34863SOL     OW10680   6.794   6.272   2.625  0.3528  0.7634 -0.1904
34863SOL    HW110681   6.757   6.185   2.608  2.0234 -0.1190  0.4404
34863SOL    HW210682   6.718   6.328   2.637 -0.8046 -0.3150 -1.8836
34864SOL     OW10683   4.265   8.045   4.274  0.3214 -0.2905  0.0857
34864SOL    HW110684   4.316   8.069   4.351 -2.7696 -0.1990  2.2940
34864SOL    HW210685   4.246   7.952   4.285 -1.2364  0.0098  0.1771
34865SOL     OW10686   1.324   9.917   1.461  0.7549  0.0200  0.3925
34865SOL    HW110687   1.307   9.921   1.555  1.9318 -0.3270  0.6457
34865SOL    HW210688   1.245   9.880   1.423  0.7717 -1.0992  1.4112
34866SOL     OW10689   6.658   4.233   2.480  0.2792  0.2815 -0.0176
34866SOL    HW110690   6.658   4.235   2.384  0.2276  0.6453 -0.0124
34866SOL    HW210691   6.583   4.288   2.504 -0.6623 -1.0442  0.2138
34867SOL     OW10692   6.449   9.997   6.992  0.3852 -0.1980  0.0630
34867SOL    HW110693   6.539  10.012   6.964  0.8773 -0.2304  1.5401
34867SOL    HW210694   6.445   9.904   7.010 -0.2039 -0.3524 -0.8187
34868SOL     OW10695   5.068   6.331   9.690 -0.7489  0.2472 -0.3407
34868SOL    HW110696   5.083   6.405   9.631 -0.9196  2.0895  1.7879
34868SOL    HW210697   5.000   6.362   9.750 -2.3508 -2.4465 -0.6151
34869SOL     OW10698   3.572   5.590  10.210 -0.2310  0.0939  0.1360
34869SOL    HW110699   3.593   5.608  10.302 -2.0624  1.1575  0.3927
34869SOL    HW210700   3.508   5.519  10.214 -1.2150  0.9508 -0.2353
34870SOL     OW10701   5.654   2.140   0.495  0.0457  0.1842 -0.0193
34870SOL    HW110702   5.621   2.220   0.535  1.6947 -0.0099  1.8359
34870SOL    HW210703   5.714   2.170   0.426  0.4298  0.5435  0.4710
34871SOL     OW10704   9.779   5.130   9.363  0.0178 -0.1511 -0.5071
34871SOL    HW110705   9.730   5.068   9.417  0.2672 -0.9588 -1.1832
34871SOL    HW210706   9.863   5.140   9.409  1.6097 -3.4664 -2.3671
34872SOL     OW10707   6.471   2.676   9.731 -0.6735 -0.2705  0.6335
34872SOL    HW110708   6.466   2.585   9.702 -1.7577  0.2019 -0.7514
34872SOL    HW210709   6.391   2.717   9.697  0.4033  1.5091  0.1191
34873SOL     OW10710   9.940   5.636   0.728 -0.1358  0.4985  0.4094
34873SOL    HW110711   9.991   5.699   0.677 -0.8286  0.5715 -0.2097
34873SOL    HW210712   9.863   5.617   0.674  0.0053 -0.8110  0.6183
34874SOL     OW10713   4.900   9.310   6.870  0.2971 -0.0026 -0.2627
34874SOL    HW110714   4.959   9.299   6.945  0.3506 -0.6885 -0.3980
34874SOL    HW210715   4.814   9.284   6.904  0.2411  0.1124 -0.3179
34875SOL     OW10716   1.711   9.279   5.478  0.3441 -0.1652  0.0633
34875SOL    HW110717   1.707   9.304   5.386 -1.1917 -1.3428 -0.2387
34875SOL    HW210718   1.698   9.184   5.476 -0.5830 -0.0895  1.5377
34876SOL     OW10719   5.463   6.600   6.683  0.1725 -0.1599  0.0473
34876SOL    HW110720   5.467   6.673   6.744 -0.4812  0.6951 -0.9026
34876SOL    HW210721   5.384   6.616   6.632  0.4273 -1.1287 -0.6792
34877SOL     OW10722   8.310   8.744   9.038 -0.1161 -0.4336 -0.8332
34877SOL    HW110723   8.385   8.698   9.000 -0.4463 -0.6182 -1.2759
34877SOL    HW210724   8.271   8.681   9.099 -0.4576 -0.6817 -1.2999
34878SOL     OW10725   4.895   6.117   9.581 -0.1550  0.0837 -0.6835
34878SOL    HW110726   4.928   6.187   9.638  0.0553  0.0323 -0.7406
34878SOL    HW210727   4.969   6.058   9.571 -0.4444 -0.3399 -0.3403
34879SOL     OW10728   3.838   3.235   8.852  0.4055 -0.1764  0.0495
34879SOL    HW110729   3.806   3.313   8.807  0.8073 -0.0945 -0.0982
34879SOL    HW210730   3.780   3.165   8.822 -1.8301  0.5268  2.3503
34880SOL     OW10731   0.324   3.390   6.903 -0.3369  0.0079 -0.4697
34880SOL    HW110732   0.275   3.321   6.858 -0.3400  0.2303 -0.8061
34880SOL    HW210733   0.324   3.363   6.995  2.5018 -2.2049 -0.9808
34881SOL     OW10734   3.117  10.880  10.336 -0.1743 -0.3181  0.0793
34881SOL    HW110735   3.157  10.946  10.392  1.3535 -1.4754  0.4204
34881SOL    HW210736   3.147  10.902  10.248 -0.3281 -0.1029  0.0796
34882SOL     OW10737   6.416   5.267   8.071  0.1005 -0.0612  0.4195
34882SOL    HW110738   6.455   5.300   8.152 -0.8301 -1.2423  1.3832
34882SOL    HW210739   6.485   5.278   8.005  1.3222 -0.2400  1.6263
34883SOL     OW10740  10.681   9.737   0.642  0.1033 -0.0110 -1.0619
34883SOL    HW110741  10.758   9.692   0.677  0.4340  0.4231 -1.2327
34883SOL    HW210742  10.711   9.776   0.560 -0.3140  0.1143 -1.1560
34884SOL     OW10743   1.427   6.662  10.652 -0.6664  0.2804  0.0657
34884SOL    HW110744   1.394   6.654  10.741 -0.7124 -0.4512 -0.0102
34884SOL    HW210745   1.505   6.717  10.660  0.7529 -1.7312  0.9584
34885SOL     OW10746   4.935   9.838   7.020  0.0719  0.4541  0.1173
34885SOL    HW110747   4.870   9.834   7.091 -0.0459  0.3123  0.0029
34885SOL    HW210748   5.012   9.793   7.056 -0.1837 -0.1223 -0.0448
34886SOL     OW10749   2.639   8.338   7.157  0.3988 -0.1568 -0.2313
34886SOL    HW110750   2.668   8.249   7.173  3.5421  0.8186  0.1332
34886SOL    HW210751   2.703   8.375   7.097 -1.3602  1.6079 -1.1553
34887SOL     OW10752   9.151  10.325   2.015 -0.7579  0.7383 -0.2595
34887SOL    HW110753   9.243  10.319   1.991 -0.8691  0.4920 -0.6333
34887SOL    HW210754   9.105  10.341   1.933 -1.1392 -0.0649 -0.2170
34888SOL     OW10755   6.799   3.985   6.307 -0.2018  0.0757  0.2041
34888SOL    HW110756   6.784   4.011   6.216 -0.1487  0.4825  0.3103
34888SOL    HW210757   6.738   4.039   6.358  0.4073  0.5105  0.4873
34889SOL     OW10758   2.271   3.083   9.512  0.5056 -0.1627  0.0346
34889SOL    HW110759   2.301   3.153   9.455 -0.2989 -1.3297 -1.9222
34889SOL    HW210760   2.235   3.128   9.589  1.4720  1.4624 -0.4167
34890SOL     OW10761   2.978   4.583   2.260  0.5318  0.2032 -0.2642
34890SOL    HW110762   2.975   4.678   2.248  0.3938  0.1277 -0.8194
34890SOL    HW210763   2.888   4.554   2.245  0.3693  0.0900  0.8331
34891SOL     OW10764   4.752   3.036  10.883 -0.3501 -0.0318 -0.3120
34891SOL    HW110765   4.829   3.078  10.845  1.1174 -0.8740  1.5902
34891SOL    HW210766   4.743   3.075  10.970 -1.1776 -0.9878  0.0563
34892SOL     OW10767   9.096   5.781   9.860  0.3045  0.0715 -0.6601
34892SOL    HW110768   9.175   5.819   9.821  0.0560 -0.0817 -1.3373
34892SOL    HW210769   9.053   5.855   9.903  0.1626  0.4387 -1.4063
34893SOL     OW10770   6.697   7.355   5.083 -0.2011 -0.0778  0.5751
34893SOL    HW110771   6.625   7.399   5.039  0.4340 -0.3829 -0.8254
34893SOL    HW210772   6.769   7.357   5.020  0.2589 -1.9251  0.9733
34894SOL     OW10773  10.590   7.239   9.747 -0.1008  0.7539 -0.3524
34894SOL    HW110774  10.518   7.186   9.781  0.2019 -1.0494 -2.3508
34894SOL    HW210775  10.550   7.325   9.730 -0.8513  0.9375  1.9235
34895SOL     OW10776   2.595   2.749   2.314  0.1988  0.2085 -0.1827
34895SOL    HW110777   2.584   2.668   2.365  1.1182 -0.1444 -0.5298
34895SOL    HW210778   2.681   2.740   2.272  0.1021  1.1560 -0.6108
34896SOL     OW10779   8.768  10.619   2.714  0.9554  0.3109  0.2196
34896SOL    HW110780   8.785  10.671   2.792  0.7635  0.8337 -0.0867
34896SOL    HW210781   8.786  10.529   2.742 -1.0531  0.2269  1.4822
34897SOL     OW10782   5.164   7.433   3.352 -0.3144 -0.1950 -0.2993
34897SOL    HW110783   5.121   7.442   3.267 -0.3753 -0.5427 -0.3061
34897SOL    HW210784   5.231   7.501   3.353  0.9450 -1.3643 -1.3854
34898SOL     OW10785  10.304   6.708   8.640 -0.2893 -0.2743  0.6310
34898SOL    HW110786  10.211   6.718   8.657 -0.3349 -0.3012  0.4093
34898SOL    HW210787  10.311   6.624   8.594 -0.2256 -0.0093  0.1503
34899SOL     OW10788   6.968   2.228   1.856 -0.1982  0.8623  0.3938
34899SOL    HW110789   6.961   2.283   1.778  3.3841  0.7285 -0.2058
34899SOL    HW210790   6.976   2.138   1.822  2.4903  0.9006  0.7058
34900SOL     OW10791   4.455   4.354   8.205  0.0029 -0.0681 -0.0225
34900SOL    HW110792   4.366   4.337   8.175 -0.9089  1.2970  1.7907
34900SOL    HW210793   4.494   4.267   8.215 -1.4890 -0.7322  0.2443
34901SOL     OW10794   4.742   3.857   1.730 -0.2644 -0.0065 -0.1117
34901SOL    HW110795   4.660   3.864   1.681  0.1662  0.4643 -0.7787
34901SOL    HW210796   4.805   3.909   1.679 -0.2240  2.0280  1.8379
34902SOL     OW10797   1.218   0.674   4.867 -0.3984  0.3172 -0.8623
34902SOL    HW110798   1.128   0.681   4.898 -0.0004  0.0638  0.4164
34902SOL    HW210799   1.217   0.601   4.805 -1.3989  1.4108 -2.2048
34903SOL     OW10800   1.032   0.106   1.164 -0.5184 -0.5764 -0.4842
34903SOL    HW110801   0.943   0.074   1.175  0.3650 -2.3639  3.0917
34903SOL    HW210802   1.059   0.074   1.078 -2.3743 -2.6379 -0.3712
34904SOL     OW10803   5.336   3.164   9.085  0.0321 -0.5638  0.3668
34904SOL    HW110804   5.403   3.163   9.017 -0.8150  0.9062 -0.5338
34904SOL    HW210805   5.254   3.141   9.040 -0.7010  1.3055  0.6621
34905SOL     OW10806   8.316   0.496   2.189  0.8715  0.0442 -0.6247
34905SOL    HW110807   8.361   0.414   2.168  0.9258 -0.1730  0.3061
34905SOL    HW210808   8.233   0.469   2.228  0.9278  0.4268 -0.2272
34906SOL     OW10809   2.375   8.159   6.438  0.4658  0.3078  0.5343
34906SOL    HW110810   2.342   8.213   6.510 -0.5402  0.1249  0.2388
34906SOL    HW210811   2.332   8.195   6.361 -0.2009 -0.8859  0.3311
34907SOL     OW10812   2.513   0.271   6.752 -0.2562  0.4154 -0.4647
34907SOL    HW110813   2.578   0.236   6.691  0.2794  1.2209 -0.3764
34907SOL    HW210814   2.564   0.300   6.827 -0.9082 -0.5412  0.3781
34908SOL     OW10815   9.877   5.283  10.453 -0.2909 -0.0234  0.0078
34908SOL    HW110816   9.812   5.342  10.492 -1.3068 -0.3363 -1.1394
34908SOL    HW210817   9.953   5.338  10.435 -1.0242  0.8332 -0.5378
34909SOL     OW10818   7.705   9.193   3.923  0.7396  0.2180  0.6640
34909SOL    HW110819   7.637   9.126   3.926 -1.2867  2.0245 -0.6887
34909SOL    HW210820   7.665   9.269   3.966  1.5960  1.5547 -0.7864
34910SOL     OW10821   4.837   3.267   3.997  0.1940 -0.4363  0.1135
34910SOL    HW110822   4.796   3.258   3.911  1.1798 -1.6550 -0.2685
34910SOL    HW210823   4.843   3.178   4.030  2.1987 -0.2906  0.2754
34911SOL     OW10824   6.792   2.096   8.919 -0.4208 -0.4514  0.0154
34911SOL    HW110825   6.861   2.039   8.886  0.2274  1.0166 -1.2813
34911SOL    HW210826   6.748   2.043   8.986  1.4020 -1.7312  0.2942
34912SOL     OW10827   8.512   5.371   7.436 -0.2647 -0.2357 -0.2241
34912SOL    HW110828   8.470   5.292   7.470  3.3084 -2.2069  0.1450
34912SOL    HW210829   8.519   5.430   7.511 -1.7906 -0.0772 -0.1862
34913SOL     OW10830   3.925   8.956   2.117  0.3357  0.2624  0.1316
34913SOL    HW110831   3.857   8.998   2.064 -1.0484  0.0293  1.6353
34913SOL    HW210832   3.962   8.889   2.060 -0.9962  0.1152 -0.6067
34914SOL     OW10833   9.923   6.320   5.721  0.2469 -0.2291 -0.6527
34914SOL    HW110834   9.985   6.260   5.762 -0.3489 -1.2302 -1.1674
34914SOL    HW210835   9.953   6.327   5.630 -0.7948 -1.3209 -1.1043
34915SOL     OW10836   0.473   9.797   1.287  0.2678 -0.6918  0.0190
34915SOL    HW110837   0.438   9.801   1.376  2.1974 -1.2043  0.8407
34915SOL    HW210838   0.404   9.756   1.236 -1.1512  0.2306  1.1128
34916SOL     OW10839  10.535   3.995   7.512  0.2001 -0.2310  0.2474
34916SOL    HW110840  10.565   4.026   7.427 -0.4599 -1.6842 -0.5542
34916SOL    HW210841  10.440   4.001   7.508  0.1219 -1.0829  0.5413
34917SOL     OW10842   5.867   1.401   3.612  0.1668 -0.0199 -0.1208
34917SOL    HW110843   5.926   1.446   3.552 -2.5903  0.9364 -2.3509
34917SOL    HW210844   5.873   1.451   3.693 -1.6186  3.7125 -2.0050
34918SOL     OW10845   4.231   9.387   8.099  0.1057 -0.1472 -0.0916
34918SOL    HW110846   4.306   9.330   8.082 -1.2274 -2.0528  0.0353
34918SOL    HW210847   4.241   9.460   8.039  2.3970  0.0158  0.3966
34919SOL     OW10848   9.803   6.938   4.006 -0.2421  0.4988  0.7068
34919SOL    HW110849   9.834   6.985   4.083  0.0777  1.4499  0.0167
34919SOL    HW210850   9.821   6.997   3.933 -0.5589 -0.3724 -0.0979
34920SOL     OW10851   9.690   3.481   4.163 -0.6251  0.2277 -0.5322
34920SOL    HW110852   9.665   3.473   4.255  0.5227  0.0385 -0.2086
34920SOL    HW210853   9.785   3.467   4.164 -0.1955  2.6974 -1.4313
34921SOL     OW10854   3.970   1.683   9.087  0.0908 -0.2579 -0.2721
34921SOL    HW110855   3.971   1.665   9.181  1.2809 -0.1921 -0.2556
34921SOL    HW210856   3.881   1.662   9.060  0.3458 -2.5437  0.4443
34922SOL     OW10857  10.800   0.247   1.509  0.1479  0.8278  0.0832
34922SOL    HW110858  10.705   0.246   1.503  0.1430  0.1313  0.2659
34922SOL    HW210859  10.830   0.186   1.442  0.4044 -0.1006  1.0216
34923SOL     OW10860   0.978   5.472  10.151  0.3589  0.5056  0.2079
34923SOL    HW110861   1.042   5.402  10.159  1.2026  1.2694  0.3092
34923SOL    HW210862   1.029   5.552  10.165 -0.8327  1.0775  1.5133
34924SOL     OW10863   1.880   6.946   1.066  0.2248 -0.2954  0.5384
34924SOL    HW110864   1.887   6.851   1.074 -1.9764 -0.5243  0.2609
34924SOL    HW210865   1.790   6.962   1.039  0.0260  1.9791  2.2218
34925SOL     OW10866   5.140   8.051   6.120 -0.1666  0.0629  0.3209
34925SOL    HW110867   5.062   8.106   6.112  0.4233  1.2114  1.9555
34925SOL    HW210868   5.116   7.985   6.185 -0.7487 -1.4915 -1.3717
34926SOL     OW10869   1.904   6.197  10.734  0.1399 -0.0920 -0.3459
34926SOL    HW110870   1.958   6.227  10.807  0.2946  1.5698 -1.0842
34926SOL    HW210871   1.828   6.255  10.734 -0.6879 -1.1405 -0.5210
34927SOL     OW10872   0.323   4.507   0.308  0.2993 -0.0837  0.5175
34927SOL    HW110873   0.271   4.442   0.261  0.4269 -0.5964  1.0638
34927SOL    HW210874   0.340   4.575   0.244 -0.1302 -0.4266  0.0263
34928SOL     OW10875   2.538   7.021   7.920  0.3989  0.1359  0.2825
34928SOL    HW110876   2.548   6.973   7.838  1.8787  0.0731  0.4774
34928SOL    HW210877   2.600   7.094   7.913 -0.6107  1.0694  0.6875
34929SOL     OW10878   3.841   7.514   6.650  0.7916  0.0547  0.9255
34929SOL    HW110879   3.923   7.554   6.681  0.4850  1.9920 -0.5231
34929SOL    HW210880   3.867   7.429   6.615  2.6350  1.4439 -1.3754
34930SOL     OW10881   0.740  10.687   7.216 -0.2639 -0.1540  0.2035
34930SOL    HW110882   0.741  10.596   7.246  0.2751  0.0096  0.6974
34930SOL    HW210883   0.801  10.689   7.143  0.6798  0.0584  0.9736
34931SOL     OW10884   3.825   1.595  10.826 -0.6351  0.0402  0.0091
34931SOL    HW110885   3.754   1.550  10.780 -0.1223 -0.5274 -0.2458
34931SOL    HW210886   3.887   1.526  10.847  2.3910  1.0462 -4.2769
34932SOL     OW10887   2.810  10.057   7.585 -0.3160 -0.0832 -0.7327
34932SOL    HW110888   2.785  10.061   7.493 -1.3232  3.5330 -0.4348
34932SOL    HW210889   2.892  10.106   7.590 -0.8080  0.6538  0.4196
34933SOL     OW10890   3.693   8.374   8.794 -0.4719 -0.0110  0.6189
34933SOL    HW110891   3.699   8.452   8.850  0.7574  1.3025 -1.2146
34933SOL    HW210892   3.754   8.312   8.833  1.8027  1.5800 -0.2170
34934SOL     OW10893   7.827   9.092  10.581  0.0899  0.1018 -0.1134
34934SOL    HW110894   7.851   9.169  10.529 -1.3569  0.8377  0.2760
34934SOL    HW210895   7.818   9.022  10.517 -0.5881  0.7445 -0.7363
34935SOL     OW10896   2.104   3.361   6.465  0.4841  0.1017  0.1645
34935SOL    HW110897   2.140   3.328   6.383  0.2247  1.3780 -0.4883
34935SOL    HW210898   2.009   3.366   6.450  0.3689 -0.2218  0.7481
34936SOL     OW10899  10.929   1.670   8.535  0.5224  0.1087  0.0217
34936SOL    HW110900  10.845   1.656   8.578  0.3196  0.7120 -0.1733
34936SOL    HW210901  10.993   1.627   8.592  0.3636  1.6073  1.3951
34937SOL     OW10902   9.037  10.420   4.432  0.3435  0.0550 -0.3675
34937SOL    HW110903   8.999  10.370   4.360 -0.4210 -0.0394  0.0893
34937SOL    HW210904   9.020  10.367   4.510 -2.0526  1.7633  0.3919
34938SOL     OW10905   0.141   1.977   7.255  0.1517 -0.1423  0.0331
34938SOL    HW110906   0.053   2.003   7.228  0.3134  2.2001  1.4043
34938SOL    HW210907   0.127   1.913   7.324 -0.5947  1.1645  1.1599
34939SOL     OW10908   2.030   7.794   5.048  0.1342  0.3193 -0.2582
34939SOL    HW110909   2.071   7.877   5.071  0.7160 -0.2225  0.7446
34939SOL    HW210910   2.103   7.732   5.041 -0.2092  0.0689 -1.8371
34940SOL     OW10911   6.269   8.853   5.102 -0.3690  0.3282  0.2976
34940SOL    HW110912   6.213   8.926   5.080 -0.4306  1.6711  4.0850
34940SOL    HW210913   6.358   8.883   5.082 -0.6208 -0.6932 -2.9498
34941SOL     OW10914   8.422   9.218   9.681  0.4264 -0.3083 -0.1854
34941SOL    HW110915   8.355   9.158   9.714  0.0833  0.0924 -0.1506
34941SOL    HW210916   8.434   9.282   9.751 -1.9218  1.8896 -1.6315
34942SOL     OW10917   9.550   9.876   7.291 -0.6355  0.1296  0.4108
34942SOL    HW110918   9.570   9.919   7.208  3.4211 -0.0580  1.1274
34942SOL    HW210919   9.506   9.945   7.342 -2.3263  0.5346 -1.4613
34943SOL     OW10920   9.232   1.918   0.495 -0.1630  0.1115  0.3925
34943SOL    HW110921   9.215   1.850   0.560 -1.5711 -0.6947 -0.7457
34943SOL    HW210922   9.161   1.981   0.508 -0.8458 -0.3912 -0.7550
34944SOL     OW10923   0.154   3.413   9.093 -0.1194  0.3022 -0.0921
34944SOL    HW110924   0.168   3.324   9.125  2.3072  0.3527 -0.8231
34944SOL    HW210925   0.138   3.402   9.000 -3.5133  0.4447  0.3351
34945SOL     OW10926   6.397  10.488   5.518  0.7193  0.4001  0.8541
34945SOL    HW110927   6.360  10.403   5.544 -0.0445  0.1728 -0.8397
34945SOL    HW210928   6.393  10.487   5.422  2.5305  1.5628  0.7278
34946SOL     OW10929   5.715   0.922   6.884 -0.0082 -0.5770 -0.4996
34946SOL    HW110930   5.662   0.844   6.905  0.8521 -1.1399 -0.3780
34946SOL    HW210931   5.803   0.898   6.911  0.1268  0.7500  0.2839
34947SOL     OW10932   5.166   4.136   3.406 -0.1647 -0.2968  0.5775
34947SOL    HW110933   5.203   4.159   3.491  0.0103  0.3358  0.3356
34947SOL    HW210934   5.194   4.045   3.391  2.4561  0.5332 -0.1880
34948SOL     OW10935   3.971   8.793   1.921 -0.5840 -0.2477 -0.1638
34948SOL    HW110936   3.999   8.702   1.927  0.4008 -0.0233 -1.0860
34948SOL    HW210937   3.963   8.810   1.827 -1.8227  0.3102  0.0263
34949SOL     OW10938   4.847   6.948   7.332 -0.1755  0.4748 -0.3373
34949SOL    HW110939   4.869   6.976   7.421  1.0002 -0.1479 -0.4113
34949SOL    HW210940   4.926   6.967   7.281  0.7827 -2.9636 -0.3775
34950SOL     OW10941   5.338   7.903   3.111 -0.0769 -0.3346  0.7135
34950SOL    HW110942   5.256   7.924   3.157  0.4655  0.0622  1.5189
34950SOL    HW210943   5.329   7.947   3.026 -0.7271 -0.3549  0.7623
34951SOL     OW10944   7.016  10.669   8.341 -0.5860  0.2624  0.3986
34951SOL    HW110945   6.934  10.627   8.367 -1.3811  0.7815 -1.1323
34951SOL    HW210946   7.011  10.757   8.379 -1.6746  0.9645 -1.2289
34952SOL     OW10947  10.013   7.236   0.821 -0.1723  0.2844  0.8165
34952SOL    HW110948  10.102   7.258   0.797 -0.2857 -1.6679 -1.9033
34952SOL    HW210949   9.959   7.273   0.751 -1.2782 -0.3624  1.2923
34953SOL     OW10950   5.612   2.388   6.484 -0.3890  0.4019  0.1185
34953SOL    HW110951   5.679   2.424   6.542 -1.0424  3.2882 -0.7716
34953SOL    HW210952   5.655   2.382   6.399 -1.2092  2.3737 -0.4815
34954SOL     OW10953   8.842   7.072  10.507 -0.4966  0.2646 -0.1609
34954SOL    HW110954   8.773   7.010  10.485 -1.8708  1.4600  0.5941
34954SOL    HW210955   8.829   7.144  10.446  1.5618 -0.4592 -1.5400
34955SOL     OW10956   8.396   3.971   9.548  0.0880 -0.5118 -0.0027
34955SOL    HW110957   8.304   3.946   9.548  0.3992 -1.7663 -0.3739
34955SOL    HW210958   8.422   3.970   9.456  0.7697 -1.4315  0.1849
34956SOL     OW10959   5.364  10.789   2.794 -0.0930  0.1951  0.1381
34956SOL    HW110960   5.297  10.827   2.737  0.1837  0.9456  0.3136
34956SOL    HW210961   5.391  10.709   2.748 -0.3420  0.4486 -0.4619
34957SOL     OW10962   5.436   4.982   3.957 -0.2774  0.3389 -0.2396
34957SOL    HW110963   5.404   5.063   3.917 -0.7182 -0.0062 -0.5906
34957SOL    HW210964   5.386   4.912   3.915 -0.7456 -0.0452  0.9140
34958SOL     OW10965   2.389   2.638   3.383  0.5945 -0.2373 -0.0299
34958SOL    HW110966   2.394   2.545   3.360  1.1534 -0.1909 -0.0911
34958SOL    HW210967   2.355   2.638   3.473 -1.1078 -0.4365 -0.6260
34959SOL     OW10968   7.590   5.980   5.993 -0.3805 -0.1910  0.2906
34959SOL    HW110969   7.552   5.893   5.981 -0.8069  0.0079  0.2023
34959SOL    HW210970   7.561   6.008   6.079  0.4374 -0.4753  0.6700
34960SOL     OW10971   6.005   8.676   9.298  0.0022  0.2294  0.1774
34960SOL    HW110972   5.940   8.686   9.228  0.4902 -0.6208 -0.4164
34960SOL    HW210973   6.055   8.757   9.296  0.0300  0.2021 -0.4788
34961SOL     OW10974   7.381   3.860   8.590 -0.3054 -0.4397 -0.3844
34961SOL    HW110975   7.446   3.798   8.622 -0.6020  0.0849  1.3908
34961SOL    HW210976   7.315   3.864   8.660 -0.8227  1.0835 -0.9008
34962SOL     OW10977  10.686   8.086   8.780 -0.3334 -0.0130  0.0938
34962SOL    HW110978  10.669   7.995   8.805 -2.1282 -0.0687 -1.1899
34962SOL    HW210979  10.602   8.118   8.748  0.8211  1.3639 -1.7162
34963SOL     OW10980   7.589   7.522   0.157  0.0842 -0.1999  0.3106
34963SOL    HW110981   7.565   7.516   0.249  1.8523  1.5062  0.9404
34963SOL    HW210982   7.685   7.525   0.157  0.1607 -0.8189 -1.6489
34964SOL     OW10983   1.117   5.843   9.311  0.2612 -0.2224 -0.2028
34964SOL    HW110984   1.098   5.918   9.367  1.1331  1.2979 -1.8442
34964SOL    HW210985   1.042   5.785   9.324 -0.6772  1.1243  0.7783
34965SOL     OW10986   2.620   4.138   4.117  0.2435 -0.4368 -0.1708
34965SOL    HW110987   2.714   4.146   4.098  0.0530  1.6269 -0.4723
34965SOL    HW210988   2.577   4.163   4.035 -0.6209 -2.3835 -0.3694
34966SOL     OW10989   2.044   8.131   0.399  0.1463  0.1242  0.4405
34966SOL    HW110990   2.067   8.119   0.307 -0.1655  1.0444  0.2325
34966SOL    HW210991   2.023   8.043   0.430 -2.5476  0.0936 -1.1386
34967SOL     OW10992  10.183   0.607   7.440 -0.0180 -0.0084  0.2822
34967SOL    HW110993  10.155   0.689   7.480 -2.4661 -0.9788  0.7551
34967SOL    HW210994  10.201   0.629   7.348 -0.9200  1.0060  0.3389
34968SOL     OW10995   3.488  10.760   6.477 -0.1572 -0.2009  0.2597
34968SOL    HW110996   3.521  10.720   6.397  0.7764  0.6408  0.2069
34968SOL    HW210997   3.443  10.689   6.522  1.7817 -1.4338  0.3689
34969SOL     OW10998   2.311   0.062   1.194 -0.4372  0.4279  0.3193
34969SOL    HW110999   2.267   0.009   1.128  0.6155 -0.1032  0.0208
34969SOL    HW211000   2.302   0.010   1.275 -0.3374  0.3159  0.2577
34970SOL     OW11001   6.882   7.082   1.578 -0.2455 -0.0014 -0.0931
34970SOL    HW111002   6.847   7.008   1.529 -0.6455  0.3632 -0.3684
34970SOL    HW211003   6.804   7.124   1.615  0.1325 -1.5163  2.7141
34971SOL     OW11004   0.468  10.449   1.642  0.4708  0.6049 -0.4270
34971SOL    HW111005   0.469  10.506   1.566 -0.4859  0.0905 -0.8534
34971SOL    HW211006   0.377  10.450   1.671  0.7547  0.5161  0.5006
34972SOL     OW11007   1.494   3.278   1.477 -0.1856  0.2502  0.2896
34972SOL    HW111008   1.419   3.219   1.478  0.4329 -0.5639  1.4566
34972SOL    HW211009   1.457   3.364   1.458 -1.2560 -0.3159 -0.2661
34973SOL     OW11010   1.679  10.254   8.407 -0.6261 -0.2927  0.5509
34973SOL    HW111011   1.668  10.179   8.464 -1.3734  0.4479  1.4237
34973SOL    HW211012   1.647  10.225   8.322 -2.1911 -0.5725  1.2047
34974SOL     OW11013   5.473  10.352   8.878  0.7596  0.0999 -0.5141
34974SOL    HW111014   5.443  10.277   8.828 -0.3638 -1.1415  1.8343
34974SOL    HW211015   5.568  10.343   8.882  0.7717 -0.3075 -1.5600
34975SOL     OW11016   4.907   7.822   4.467  0.3785  0.1883  0.5415
34975SOL    HW111017   4.903   7.766   4.389 -1.1421 -0.3970  1.0115
34975SOL    HW211018   4.839   7.888   4.453 -0.7968 -0.6817  1.9119
34976SOL     OW11019   9.973   4.981   0.173  0.2333  0.0398  0.4561
34976SOL    HW111020   9.960   4.999   0.080 -1.0322  1.1780  0.8178
34976SOL    HW211021   9.915   5.043   0.217 -0.6046 -1.7178  1.9511
34977SOL     OW11022   7.457   1.013   9.215  0.2300 -0.2318  0.1821
34977SOL    HW111023   7.524   1.079   9.201  1.3437 -1.1229  1.1181
34977SOL    HW211024   7.424   1.031   9.303 -0.6938  0.1154 -0.2158
34978SOL     OW11025   2.231   5.796   6.784  0.1183 -0.3920 -0.1159
34978SOL    HW111026   2.318   5.816   6.749  0.4357 -2.1787 -0.4506
34978SOL    HW211027   2.180   5.770   6.707 -0.1730 -1.0704  0.2997
34979SOL     OW11028   5.805   1.255   4.177  0.6518 -0.1580  0.2302
34979SOL    HW111029   5.730   1.218   4.223  2.5475 -1.9834  2.0382
34979SOL    HW211030   5.841   1.183   4.125  0.8004  0.8759 -1.1845
34980SOL     OW11031   1.061   4.077   9.689 -0.2120  0.4001  0.2909
34980SOL    HW111032   1.111   4.014   9.637 -0.2191  0.9935 -0.4554
34980SOL    HW211033   0.995   4.025   9.733 -0.7968 -0.0178 -1.0150
34981SOL     OW11034   1.256   1.853   6.970 -0.0940  0.0458 -0.2255
34981SOL    HW111035   1.218   1.811   7.047 -0.0121  0.6479  0.1455
34981SOL    HW211036   1.246   1.788   6.901 -0.9462 -0.1763  0.0867
34982SOL     OW11037   6.604   8.789  10.230 -0.4510  0.0231 -0.4069
34982SOL    HW111038   6.677   8.851  10.226 -0.6251  0.3099  0.6089
34982SOL    HW211039   6.528   8.839  10.201 -0.4105  0.0009 -0.5511
34983SOL     OW11040   2.333   6.077   1.399  0.5200 -0.1104  0.4564
34983SOL    HW111041   2.264   6.134   1.365  0.8914 -1.0636 -2.0814
34983SOL    HW211042   2.292   6.030   1.471 -1.5096 -0.6110 -0.9386
34984SOL     OW11043   2.163   0.349   7.940  0.6266 -0.8299  0.2842
34984SOL    HW111044   2.191   0.404   8.013 -2.6081 -1.5474  2.2515
34984SOL    HW211045   2.160   0.409   7.865 -1.6449  1.4956  2.0953
34985SOL     OW11046   5.294   5.567   6.397 -0.2196 -0.1577 -0.4394
34985SOL    HW111047   5.301   5.475   6.422 -1.2478 -0.4735 -1.2113
34985SOL    HW211048   5.282   5.614   6.479  0.3298 -0.7067 -0.0364
34986SOL     OW11049   9.783  10.406   0.542 -0.5003  0.1844  0.2553
34986SOL    HW111050   9.771  10.429   0.450 -0.3158  0.0427  0.1961
34986SOL    HW211051   9.697  10.377   0.571 -0.7089  0.8095  0.2913
34987SOL     OW11052   6.381   6.711   6.660 -0.6755 -0.7076 -0.2467
34987SOL    HW111053   6.299   6.717   6.711 -1.3843  1.4403 -1.5284
34987SOL    HW211054   6.355   6.670   6.578 -0.3589 -0.5576 -0.4231
34988SOL     OW11055   9.036  10.180   3.280 -0.1172  0.0502 -0.1098
34988SOL    HW111056   9.042  10.098   3.231  0.5453 -0.6732  1.1235
34988SOL    HW211057   9.120  10.224   3.263 -0.9289  1.0821 -1.7277
34989SOL     OW11058  10.172   8.350   8.588 -0.2098 -0.3180 -0.1879
34989SOL    HW111059  10.148   8.419   8.527  0.5544  0.7233  0.6460
34989SOL    HW211060  10.151   8.385   8.675  2.2932 -0.1475  0.4342
34990SOL     OW11061   7.553   3.220   9.077 -0.6491 -0.3096 -0.3282
34990SOL    HW111062   7.576   3.161   9.149 -2.4101  0.1167  0.6289
34990SOL    HW211063   7.466   3.192   9.050 -1.5462  1.8522  0.1816
34991SOL     OW11064   2.305   0.201  10.357 -0.0651 -0.3583  0.6044
34991SOL    HW111065   2.358   0.280  10.349  0.4554 -0.5925  1.5673
34991SOL    HW211066   2.235   0.225  10.418 -0.6158 -0.2831 -0.0513
34992SOL     OW11067   5.344   3.540   6.211  0.0061 -0.0133  0.1370
34992SOL    HW111068   5.362   3.633   6.202 -2.6526  0.5072 -0.6796
34992SOL    HW211069   5.422   3.504   6.253  1.9183  2.2114 -1.2817
34993SOL     OW11070   1.841   6.956   9.049 -0.3641 -0.6603  0.2257
34993SOL    HW111071   1.758   7.002   9.062  0.2542  0.6252 -0.1280
34993SOL    HW211072   1.817   6.870   9.017 -1.5396  0.0145 -0.7618
34994SOL     OW11073   5.620   8.282   9.987 -0.1717 -0.1776  0.4794
34994SOL    HW111074   5.657   8.220  10.049 -0.6579 -0.2400  0.7106
34994SOL    HW211075   5.670   8.268   9.906  1.1727  0.6150  1.1228
34995SOL     OW11076  10.111   0.457   3.078 -0.4079 -0.9444 -0.0651
34995SOL    HW111077  10.046   0.428   3.014 -0.9098 -0.1535  0.0895
34995SOL    HW211078  10.169   0.514   3.028 -1.5129  0.6714  0.4442
34996SOL     OW11079  10.679   5.320   0.005 -0.5600 -0.8224  0.1765
34996SOL    HW111080  10.597   5.288  -0.031 -0.2734 -1.9264  0.4600
34996SOL    HW211081  10.663   5.326   0.099 -0.8529  0.6545  0.0466
34997SOL     OW11082   0.738   2.894   5.804 -0.2979  0.2698 -0.2077
34997SOL    HW111083   0.829   2.903   5.777 -0.6761  2.0935 -1.0235
34997SOL    HW211084   0.702   2.982   5.796 -1.7311 -0.0766  1.6518
34998SOL     OW11085   4.919   9.088   7.135 -0.4013  0.6246  0.1533
34998SOL    HW111086   4.980   9.149   7.092  0.2388 -0.3896 -0.4321
34998SOL    HW211087   4.871   9.047   7.063 -0.2007 -0.1935  0.4705
34999SOL     OW11088   2.858   7.642   9.647 -0.2401 -0.1517 -0.2269
34999SOL    HW111089   2.798   7.664   9.576  0.9738 -0.4336 -1.4019
34999SOL    HW211090   2.901   7.725   9.669  0.4000 -0.3116 -0.8331
35000SOL     OW11091   4.433   3.506   3.837  0.3698 -0.2663 -0.5785
35000SOL    HW111092   4.345   3.491   3.802 -0.3252 -0.0583  0.9807
35000SOL    HW211093   4.462   3.420   3.866 -0.9174  0.1477  2.3270
35001SOL     OW11094   7.867   2.722   2.330  0.0135 -0.0840  0.3586
35001SOL    HW111095   7.814   2.789   2.287 -0.1852 -2.4312 -3.5483
35001SOL    HW211096   7.936   2.771   2.375 -2.0122  2.7930  0.5979
35002SOL     OW11097   3.213   9.711   7.761 -0.1790 -0.4853  0.0945
35002SOL    HW111098   3.209   9.688   7.854 -0.2822  1.0056  0.4762
35002SOL    HW211099   3.305   9.727   7.744 -0.2242 -0.2409  0.0774
35003SOL     OW11100   1.981   8.708   2.776  0.0516  0.5631  0.2896
35003SOL    HW111101   2.065   8.750   2.754 -0.7331  2.1456  0.1887
35003SOL    HW211102   1.928   8.717   2.697 -0.4379  0.1174  0.5565
35004SOL     OW11103  10.497   1.356   4.160  0.0415 -0.4244  0.2701
35004SOL    HW111104  10.512   1.441   4.119  1.3022 -0.0650  1.4075
35004SOL    HW211105  10.516   1.292   4.091  0.5811  0.1926 -0.1590
35005SOL     OW11106   3.591   5.060   6.249  0.3630 -0.1654  0.2903
35005SOL    HW111107   3.579   5.148   6.285  0.1738 -1.3761  3.5991
35005SOL    HW211108   3.504   5.030   6.226  0.1157 -0.2180  1.2380
35006SOL     OW11109   4.619   6.586  10.275  0.2361  0.0953 -1.1253
35006SOL    HW111110   4.629   6.681  10.270 -1.4389  0.4642  1.2224
35006SOL    HW211111   4.525   6.571  10.275  0.4533 -1.4790 -0.4008
35007SOL     OW11112   6.251   2.622   7.351  0.0207 -0.6353  0.3315
35007SOL    HW111113   6.227   2.546   7.297  0.0316 -0.5330  0.1833
35007SOL    HW211114   6.333   2.653   7.313 -1.1370  0.8727 -1.1070
35008SOL     OW11115   7.277  10.614   1.815  0.1021 -0.2885 -0.2086
35008SOL    HW111116   7.285  10.520   1.801 -1.0823 -0.5240  0.5152
35008SOL    HW211117   7.188  10.626   1.849  1.1717  0.7240  2.4968
35009SOL     OW11118   9.939   4.910   7.450 -0.1343 -0.0662 -0.0175
35009SOL    HW111119   9.874   4.937   7.385 -1.0815 -0.0804  0.8876
35009SOL    HW211120  10.006   4.864   7.400 -0.0789  1.2022 -1.1726
35010SOL     OW11121   1.032   5.655   4.239 -0.7114  0.7474 -0.1417
35010SOL    HW111122   1.057   5.746   4.224  1.7103  0.1970  0.2213
35010SOL    HW211123   1.108   5.604   4.211 -1.8074 -1.1411  0.1593
35011SOL     OW11124   6.282   3.392   5.446 -0.5755  0.0894  0.1363
35011SOL    HW111125   6.336   3.399   5.367 -1.9012  1.8624 -0.6910
35011SOL    HW211126   6.253   3.301   5.447 -0.2854 -0.0407 -1.2700
35012SOL     OW11127   3.988  10.607   5.035  0.2917 -0.8940  0.0905
35012SOL    HW111128   4.049  10.629   5.105  0.7078 -0.5351 -0.3735
35012SOL    HW211129   4.031  10.536   4.987  0.1119 -0.9893  0.0712
35013SOL     OW11130   2.035   0.881   6.261 -0.0920  0.1048  0.1541
35013SOL    HW111131   1.980   0.821   6.311  0.1637  1.2009  1.8529
35013SOL    HW211132   2.095   0.825   6.214  1.8817 -1.0955  3.6931
35014SOL     OW11133   8.896   4.189   3.879  0.5341 -0.9037 -0.2059
35014SOL    HW111134   8.940   4.237   3.808 -0.6203 -0.1223 -0.4176
35014SOL    HW211135   8.844   4.123   3.834 -0.8838  0.1501 -0.1868
35015SOL     OW11136   3.149   3.289   2.108  0.1504 -0.2420  0.1132
35015SOL    HW111137   3.228   3.269   2.058  0.2640 -0.7871  0.4999
35015SOL    HW211138   3.082   3.305   2.042  0.4649 -0.2580 -0.2157
35016SOL     OW11139   0.631   0.648   7.643  0.1641 -0.1599  0.0589
35016SOL    HW111140   0.713   0.692   7.619 -0.2992  0.5915 -0.2077
35016SOL    HW211141   0.648   0.555   7.630  0.6640  0.0640 -0.9747
35017SOL     OW11142   3.845   7.545   8.523  0.1969  0.1146  0.0172
35017SOL    HW111143   3.766   7.538   8.470 -1.1234  0.2453  1.8697
35017SOL    HW211144   3.835   7.478   8.590  1.3528  0.5764  0.6753
35018SOL     OW11145   0.222   7.446   1.896  0.0481  0.1560 -0.3262
35018SOL    HW111146   0.279   7.499   1.840 -0.3388  1.2965  0.3357
35018SOL    HW211147   0.277   7.420   1.969  0.0205  0.3238 -0.2457
35019SOL     OW11148   7.795   3.420   2.072 -0.6903 -0.1616  0.1772
35019SOL    HW111149   7.844   3.502   2.066  0.8584 -1.0946 -0.5161
35019SOL    HW211150   7.840   3.360   2.012 -0.8684 -1.9501  1.7088
35020SOL     OW11151   7.116   1.004   3.227  0.5911  0.3270 -0.5557
35020SOL    HW111152   7.071   1.088   3.237 -1.0362 -0.6576  0.7911
35020SOL    HW211153   7.150   0.985   3.314 -3.4033 -2.7019  0.6303
35021SOL     OW11154   6.980   3.884   4.595  0.6437  0.6747 -0.1839
35021SOL    HW111155   7.031   3.803   4.597  0.8562  0.8007  1.9531
35021SOL    HW211156   6.944   3.887   4.506 -1.2733 -2.9821  0.2474
35022SOL     OW11157   8.312   1.925   6.638 -0.7203  0.1233  0.1195
35022SOL    HW111158   8.336   1.868   6.565  0.1322  0.7818 -0.1295
35022SOL    HW211159   8.218   1.915   6.647 -0.5776 -1.4924  0.2211
35023SOL     OW11160   6.531   5.943   5.929  0.2408  0.0281 -0.3165
35023SOL    HW111161   6.474   5.883   5.978 -0.7481  0.7166 -0.6075
35023SOL    HW211162   6.576   5.993   5.997 -0.1091  0.0410 -0.0909
35024SOL     OW11163  10.577   1.676   6.671  0.3502 -0.2784 -0.2339
35024SOL    HW111164  10.667   1.675   6.639  0.0190 -1.0051 -1.1792
35024SOL    HW211165  10.568   1.594   6.718  0.4850  0.2711  0.7890
35025SOL     OW11166   7.204   7.946   7.853 -0.4323  0.7794 -0.1169
35025SOL    HW111167   7.199   7.869   7.910  0.1299  0.7364 -0.1142
35025SOL    HW211168   7.140   7.930   7.784  1.3267 -0.8379 -1.4823
35026SOL     OW11169   6.106   8.119   6.944 -0.0992  0.2076 -0.0661
35026SOL    HW111170   6.091   8.184   7.013  0.6528 -0.2378  0.5395
35026SOL    HW211171   6.068   8.038   6.979 -0.6486  0.2142 -0.6325
35027SOL     OW11172   9.942  10.306   9.961 -0.0154 -0.0964 -0.2159
35027SOL    HW111173   9.912  10.355   9.885 -2.2809 -2.2339 -0.8247
35027SOL    HW211174   9.888  10.338  10.033  1.4514  1.2234  0.3648
35028SOL     OW11175   6.106   1.905   9.992 -0.2761  0.2754 -0.3224
35028SOL    HW111176   6.065   1.991   9.988  0.4583  0.6668  0.3159
35028SOL    HW211177   6.071   1.865  10.071 -0.2094  0.1965 -0.3325
35029SOL     OW11178   4.717   7.102   0.657  0.2906 -0.3030  0.1153
35029SOL    HW111179   4.658   7.040   0.699  0.9850 -1.1168 -0.0679
35029SOL    HW211180   4.771   7.047   0.599  1.0905  0.4390  0.1438
35030SOL     OW11181   6.858   3.128   9.679  0.1330 -0.4414  0.0855
35030SOL    HW111182   6.872   3.144   9.586  0.3191 -0.4730  0.1078
35030SOL    HW211183   6.882   3.036   9.692 -1.3269 -0.8853 -0.1252
35031SOL     OW11184   3.062   2.700   1.828 -0.1990 -0.0843 -0.0156
35031SOL    HW111185   3.024   2.773   1.878  0.0122  1.5544 -2.1190
35031SOL    HW211186   3.138   2.674   1.880  0.3765  1.9655  0.2787
35032SOL     OW11187  10.872   3.112   7.289 -1.0813  0.0506  0.1640
35032SOL    HW111188  10.929   3.088   7.362 -2.3651 -0.9473  0.8776
35032SOL    HW211189  10.928   3.163   7.231  0.9441 -2.0275  0.1383
35033SOL     OW11190   9.400   8.687   7.845  0.4089 -0.1722  0.3839
35033SOL    HW111191   9.358   8.741   7.778  1.0966 -0.0232  0.0738
35033SOL    HW211192   9.409   8.601   7.804  2.6629  0.4161 -0.4885
35034SOL     OW11193  10.910   3.628   6.409  0.2167 -0.8079 -0.1188
35034SOL    HW111194  10.926   3.628   6.315  1.1582  1.4065 -0.0159
35034SOL    HW211195  10.840   3.691   6.423  0.9779 -0.1291  0.7744
35035SOL     OW11196   2.032   5.981   8.443  0.5970  0.0039  0.0401
35035SOL    HW111197   2.114   6.027   8.461  0.4804  0.2611 -0.0766
35035SOL    HW211198   2.024   5.918   8.515  1.0018 -0.1681 -0.0629
35036SOL     OW11199   4.409   9.914   9.436  0.6140  0.3495 -0.5415
35036SOL    HW111200   4.389   9.921   9.342  2.2845  1.4361 -0.8445
35036SOL    HW211201   4.450   9.997   9.458  0.5482 -0.0327  1.0917
35037SOL     OW11202  10.282   9.884   3.436  0.0237 -0.1187 -0.1935
35037SOL    HW111203  10.326   9.926   3.362  1.4774 -1.1871  0.0272
35037SOL    HW211204  10.334   9.909   3.512 -0.0307 -1.0322  0.1444
35038SOL     OW11205   0.455  10.370   4.459 -0.1628  0.6025  0.0968
35038SOL    HW111206   0.503  10.313   4.399 -0.6163  0.6929 -0.3597
35038SOL    HW211207   0.523  10.416   4.508  0.2092 -0.0059  0.1585
35039SOL     OW11208   1.459   0.836   7.148 -1.1218 -0.0048 -0.3494
35039SOL    HW111209   1.383   0.802   7.100 -0.4928 -1.3593 -0.4336
35039SOL    HW211210   1.421   0.892   7.216 -2.2846 -1.3976  0.2018
35040SOL     OW11211  10.034   3.459   1.695  0.3072  0.1866 -0.5813
35040SOL    HW111212  10.073   3.467   1.781  0.5515  0.6263 -0.7320
35040SOL    HW211213  10.056   3.540   1.650 -3.1065  1.7832  0.2656
35041SOL     OW11214   9.331   6.742   8.707 -0.6879  0.0274  0.3814
35041SOL    HW111215   9.275   6.781   8.640  1.5258  1.0119 -0.9961
35041SOL    HW211216   9.306   6.650   8.709 -0.4756 -0.1465 -2.1911
35042SOL     OW11217   5.311   9.948   3.688  0.3676  0.0388 -0.2165
35042SOL    HW111218   5.363   9.921   3.764  0.8008 -0.6678 -0.7466
35042SOL    HW211219   5.222   9.954   3.720  0.7160  0.9431  0.6385
35043SOL     OW11220   4.581   6.443   4.927  0.1762  0.3656 -0.9393
35043SOL    HW111221   4.658   6.457   4.872  0.7492  0.2880 -0.1659
35043SOL    HW211222   4.602   6.486   5.010  0.6001 -2.1019  0.3195
35044SOL     OW11223   5.476   2.146   3.234  0.8819 -0.0702  0.3648
35044SOL    HW111224   5.405   2.206   3.212  1.7555  0.6453 -0.6123
35044SOL    HW211225   5.552   2.203   3.248  1.0337 -0.7377  2.4852
35045SOL     OW11226   7.303   7.249   0.922 -0.4399 -0.0348 -0.3382
35045SOL    HW111227   7.249   7.261   1.000  0.4016  0.8855  0.1202
35045SOL    HW211228   7.309   7.336   0.884  1.0056 -0.0408 -0.1782
35046SOL     OW11229   6.225   3.125   5.483 -0.0378 -0.0339  0.5948
35046SOL    HW111230   6.201   3.063   5.552  1.8100 -0.6024  0.7686
35046SOL    HW211231   6.290   3.078   5.431 -0.8327  0.6794 -1.0928
35047SOL     OW11232  10.166   9.831   8.564 -0.1621 -0.7006  0.2883
35047SOL    HW111233  10.255   9.861   8.547 -0.2772  0.1084  1.0485
35047SOL    HW211234  10.123   9.905   8.608 -1.0139 -1.3077  0.5099
35048SOL     OW11235   9.646  10.383   3.649 -0.1243  0.0842 -0.2171
35048SOL    HW111236   9.697  10.323   3.594  0.0081  0.0089 -0.0139
35048SOL    HW211237   9.701  10.461   3.655  0.3565 -0.3016  0.6839
35049SOL     OW11238   4.772   7.689   0.775 -0.2990  0.0192  0.0627
35049SOL    HW111239   4.781   7.784   0.764  0.9783 -0.0468  0.3883
35049SOL    HW211240   4.733   7.678   0.862  0.5968  0.2186  0.4934
35050SOL     OW11241   7.168   9.257   4.856 -0.3057 -0.1821  0.2236
35050SOL    HW111242   7.130   9.251   4.944 -0.0109  0.6758  0.4185
35050SOL    HW211243   7.114   9.323   4.811  1.3708  1.6733  0.7607
35051SOL     OW11244   4.287   1.739   5.738  0.6156 -0.3126 -0.2765
35051SOL    HW111245   4.212   1.721   5.794  0.3646  0.6892 -0.2549
35051SOL    HW211246   4.282   1.674   5.668 -1.1115  0.5981 -1.0602
35052SOL     OW11247   0.168   5.407   0.934  0.5021  0.3650 -0.3990
35052SOL    HW111248   0.177   5.495   0.971 -0.2731  0.4007 -0.2644
35052SOL    HW211249   0.131   5.355   1.005  2.0125 -0.3563 -0.1153
35053SOL     OW11250   9.379   6.784   5.106 -0.6085 -0.6060 -0.2473
35053SOL    HW111251   9.359   6.872   5.076 -0.7134 -0.5834 -0.1111
35053SOL    HW211252   9.453   6.756   5.052 -1.5292 -1.0045 -1.3361
35054SOL     OW11253   9.430   1.594   2.047  0.1397 -0.1619 -0.2506
35054SOL    HW111254   9.491   1.559   2.112 -0.7081 -1.7159 -0.2549
35054SOL    HW211255   9.485   1.633   1.979  1.0580  0.3927  0.7842
35055SOL     OW11256   0.764   6.810   0.445  0.8346 -0.2242 -0.2805
35055SOL    HW111257   0.855   6.836   0.458  0.6201  1.2250 -1.4718
35055SOL    HW211258   0.760   6.781   0.354 -0.0207  0.3662 -0.4477
35056SOL     OW11259   6.256   6.092   9.009 -0.1940  0.1446  0.6641
35056SOL    HW111260   6.348   6.086   9.036  0.8514  0.5620 -2.3660
35056SOL    HW211261   6.224   6.171   9.051  0.8755  0.0904  1.6460
35057SOL     OW11262   0.215   0.315   8.566  0.2307  0.2234 -0.5630
35057SOL    HW111263   0.226   0.368   8.645  2.3570 -1.6493  0.5066
35057SOL    HW211264   0.128   0.276   8.576  0.7083 -0.4859  1.2318
35058SOL     OW11265   2.975   6.928   5.719 -0.5394 -0.8899 -0.1153
35058SOL    HW111266   3.026   6.847   5.713 -0.5277 -0.9032  0.1273
35058SOL    HW211267   3.040   6.995   5.738 -0.4591 -0.7076 -0.9891
35059SOL     OW11268   6.409  10.772   8.992  0.4991  0.3768 -0.5051
35059SOL    HW111269   6.319  10.754   9.020  1.5583 -0.3520  2.8737
35059SOL    HW211270   6.425  10.710   8.921 -1.0986 -0.7046  0.0346
35060SOL     OW11271   8.358   0.096   6.274  0.0505 -0.4156  0.9086
35060SOL    HW111272   8.274   0.100   6.322 -1.1805 -0.9776 -1.0848
35060SOL    HW211273   8.345   0.154   6.199  1.0302 -1.4038 -0.0520
35061SOL     OW11274   8.904   1.640   8.362  0.0150 -0.0356  0.3836
35061SOL    HW111275   8.893   1.708   8.295 -1.2600 -0.3687  0.2207
35061SOL    HW211276   8.894   1.557   8.314 -0.6535 -0.2794  0.9187
35062SOL     OW11277   6.878   3.147   7.155 -0.2810  0.1249  0.2318
35062SOL    HW111278   6.919   3.211   7.214  0.7941 -1.2621  1.0645
35062SOL    HW211279   6.800   3.117   7.203 -0.0970 -0.0878  0.4019
35063SOL     OW11280   8.769   8.228   6.412 -0.0526  0.0266 -0.3636
35063SOL    HW111281   8.713   8.189   6.478  0.6966  2.4914  1.8772
35063SOL    HW211282   8.715   8.230   6.333 -2.4154  0.5577  1.1840
35064SOL     OW11283   6.884   7.773  10.718  1.0352  0.1304  0.1192
35064SOL    HW111284   6.934   7.793  10.797  1.5645  0.5489 -0.3108
35064SOL    HW211285   6.861   7.859  10.682  0.2373 -0.0627  0.1701
35065SOL     OW11286   9.707   4.440   4.576  0.3529 -0.2041 -0.4034
35065SOL    HW111287   9.646   4.412   4.508  0.5176 -0.7634 -0.3215
35065SOL    HW211288   9.660   4.427   4.658  0.5320 -0.5100 -0.3485
35066SOL     OW11289  10.316   9.871   0.318  0.5331  0.1072  0.0014
35066SOL    HW111290  10.299   9.965   0.311 -0.2304  0.0164  0.5296
35066SOL    HW211291  10.309   9.851   0.411  0.0741 -0.5822 -0.1695
35067SOL     OW11292  10.271   0.103   4.586 -0.6790 -0.3788 -0.1378
35067SOL    HW111293  10.269   0.071   4.676  0.0177 -0.6918 -0.2192
35067SOL    HW211294  10.271   0.023   4.532 -1.8490 -0.1894 -0.4497
35068SOL     OW11295   0.113   5.653   5.727  0.3769 -0.4826 -0.2968
35068SOL    HW111296   0.177   5.651   5.656  0.4943 -1.4678 -0.1760
35068SOL    HW211297   0.057   5.577   5.712 -0.5998  0.1968 -0.2323
35069SOL     OW11298   8.602   1.196   9.164  0.1490 -0.2757 -0.9247
35069SOL    HW111299   8.597   1.157   9.251  2.4643 -1.6919 -1.3575
35069SOL    HW211300   8.620   1.289   9.180 -2.2575  0.1035  0.0722
35070SOL     OW11301   5.245   6.881   4.274  0.5758 -0.0260 -0.4108
35070SOL    HW111302   5.265   6.792   4.303 -2.5869 -1.1286 -1.2681
35070SOL    HW211303   5.183   6.915   4.339  1.8518  1.6850 -0.0047
35071SOL     OW11304   4.317   1.160   7.432  0.0069  0.4965  0.3077
35071SOL    HW111305   4.293   1.190   7.345  0.8097  1.0491  0.2672
35071SOL    HW211306   4.339   1.068   7.420 -0.5931  0.3792  0.0683
35072SOL     OW11307  10.761   7.983   9.510  0.2589  0.2585 -0.2822
35072SOL    HW111308  10.688   8.018   9.561  0.9089 -0.3939  1.1580
35072SOL    HW211309  10.834   8.044   9.526  0.3606  0.2769 -0.7839
35073SOL     OW11310   4.240   5.302   5.832 -0.6497  0.0047 -0.4756
35073SOL    HW111311   4.144   5.293   5.831 -0.6143 -2.9777  2.6280
35073SOL    HW211312   4.270   5.237   5.768 -0.7359 -0.8130  0.2895
35074SOL     OW11313   6.510   6.909   1.359  0.2177  0.7959 -0.2165
35074SOL    HW111314   6.521   6.996   1.322  1.2465  0.6020 -0.3742
35074SOL    HW211315   6.422   6.911   1.399 -0.4017  1.3914 -1.5575
35075SOL     OW11316   1.377   7.286   5.243  0.0479  0.1113 -0.0982
35075SOL    HW111317   1.321   7.310   5.170 -0.6790 -1.8741 -0.2614
35075SOL    HW211318   1.325   7.225   5.295  1.7414 -1.2138  0.1701
35076SOL     OW11319   1.126   1.146   6.173  0.7191  0.2594 -0.3757
35076SOL    HW111320   1.117   1.237   6.202  1.5785  0.4500 -0.6775
35076SOL    HW211321   1.178   1.104   6.241 -0.1360 -0.1630  0.0397
35077SOL     OW11322   9.290   1.515   0.529 -0.8120 -0.1085  0.9784
35077SOL    HW111323   9.244   1.479   0.453  0.8661  0.3687 -0.3222
35077SOL    HW211324   9.228   1.578   0.565 -0.7043  1.6974 -1.6669
35078SOL     OW11325   4.442   3.415   5.713  0.7790  0.2856  0.2598
35078SOL    HW111326   4.489   3.498   5.709  2.1196 -0.4313  0.5319
35078SOL    HW211327   4.382   3.418   5.638  0.9762  1.3876  0.1328
35079SOL     OW11328   6.736   2.752   7.400 -0.1843  0.0105 -0.0676
35079SOL    HW111329   6.672   2.816   7.433  0.0953  0.3627 -0.2043
35079SOL    HW211330   6.814   2.767   7.453 -0.2244 -0.4407  0.1199
35080SOL     OW11331   8.543   2.463   8.276 -0.5457 -0.1673 -0.6533
35080SOL    HW111332   8.629   2.425   8.295  0.2430  0.9548 -1.8382
35080SOL    HW211333   8.546   2.485   8.183 -2.8697 -1.9567 -1.2666
35081SOL     OW11334   9.317   0.681   6.596 -0.0224  0.2030  0.1545
35081SOL    HW111335   9.391   0.628   6.565 -0.8657 -1.3214  0.7015
35081SOL    HW211336   9.359   0.759   6.634  1.3679 -1.0192  1.2486
35082SOL     OW11337   5.177   2.206   2.927 -0.6495 -0.4200  0.5469
35082SOL    HW111338   5.250   2.145   2.928  0.8556  1.2513 -0.5284
35082SOL    HW211339   5.105   2.158   2.886  0.5651 -1.3734 -0.5485
35083SOL     OW11340   7.306   7.690  10.519  0.0989 -0.7891 -0.3439
35083SOL    HW111341   7.372   7.758  10.509  0.0306 -0.8493 -1.3442
35083SOL    HW211342   7.230   7.723  10.473 -0.3542 -1.0130  0.2278
35084SOL     OW11343   1.827   5.844   3.645 -0.2948  0.3717 -0.1339
35084SOL    HW111344   1.758   5.883   3.699 -1.2253  0.5320 -1.3934
35084SOL    HW211345   1.882   5.917   3.619 -0.1775  0.3748  0.1181
35085SOL     OW11346   0.083   2.022   1.296 -0.3125 -0.6134  0.2037
35085SOL    HW111347   0.166   1.997   1.256 -0.2631  0.1332 -0.1808
35085SOL    HW211348   0.071   1.960   1.368  0.8312 -0.3894  0.6035
35086SOL     OW11349   7.706   9.262   2.349 -0.1085 -0.1043  0.2017
35086SOL    HW111350   7.772   9.202   2.315  0.9325  0.7359  0.6932
35086SOL    HW211351   7.742   9.293   2.432 -2.1263 -1.3274  1.6116
35087SOL     OW11352   6.586   3.932   4.280  0.5398 -0.1652  0.2039
35087SOL    HW111353   6.550   3.962   4.363 -0.4121 -0.3338 -0.1347
35087SOL    HW211354   6.604   3.839   4.293  0.2739 -0.2201  0.1872
35088SOL     OW11355  10.776  10.486   4.642  0.0411 -0.1853  0.6533
35088SOL    HW111356  10.764  10.393   4.622  0.9553 -0.0368 -0.6866
35088SOL    HW211357  10.829  10.520   4.570 -1.0590  1.5876  0.6171
35089SOL     OW11358   0.732   9.594   5.220  0.6389  0.1325  0.6205
35089SOL    HW111359   0.650   9.552   5.246  0.0158  1.0741  0.2520
35089SOL    HW211360   0.763   9.541   5.146 -0.0658  0.2201  0.2427
35090SOL     OW11361   2.809   9.108   9.005  0.6860 -0.1499  0.2102
35090SOL    HW111362   2.745   9.046   9.040 -1.9812  1.5205 -1.3664
35090SOL    HW211363   2.876   9.053   8.966  0.0115 -2.0027  1.5076
35091SOL     OW11364   8.604   0.248   4.622 -0.0751 -0.6006 -0.1114
35091SOL    HW111365   8.696   0.229   4.604 -0.0674 -0.7801  0.1070
35091SOL    HW211366   8.596   0.342   4.611  0.1804 -0.5562  0.0670
35092SOL     OW11367   3.949   7.849   3.299  0.3823 -0.6159 -0.0967
35092SOL    HW111368   4.034   7.808   3.318  0.6042 -0.1340 -0.0369
35092SOL    HW211369   3.945   7.924   3.357  0.6239  0.3015 -1.2203
35093SOL     OW11370  10.092   5.191  10.182  0.0984  0.1468 -0.0753
35093SOL    HW111371  10.009   5.225  10.149  0.6437  2.2249  0.5475
35093SOL    HW211372  10.116   5.250  10.253  1.0958 -1.6476  1.1563
35094SOL     OW11373   1.021   8.710  10.257 -0.1616 -0.3977 -0.5709
35094SOL    HW111374   1.057   8.788  10.215  1.3115 -0.1133  1.1018
35094SOL    HW211375   0.990   8.740  10.342 -2.7867 -1.0201 -1.2387
35095SOL     OW11376   7.965   2.342  10.871  0.3482 -0.3642 -0.1166
35095SOL    HW111377   8.025   2.268  10.886  0.0528 -0.8194 -1.0846
35095SOL    HW211378   7.882   2.313  10.909 -0.4624 -1.6107 -2.6448
35096SOL     OW11379   6.243   0.091   4.912  0.7520  0.1851 -0.0200
35096SOL    HW111380   6.257   0.008   4.866 -0.4988 -1.3112  2.1381
35096SOL    HW211381   6.155   0.084   4.949  1.1906  1.8617  1.4770
35097SOL     OW11382   7.665   9.008   3.605 -0.4900  0.0009  0.0927
35097SOL    HW111383   7.689   8.915   3.603  0.8224  0.3296 -1.5971
35097SOL    HW211384   7.747   9.053   3.625 -1.0556  0.8299  0.5981
35098SOL     OW11385   7.864   8.214   0.064  0.0249 -0.1448 -0.4839
35098SOL    HW111386   7.793   8.216   0.000  0.6694  1.4796 -1.1983
35098SOL    HW211387   7.902   8.301   0.061  1.8396 -0.8642  0.1261
35099SOL     OW11388   7.214   1.026   5.248  0.7323 -0.7734 -0.0060
35099SOL    HW111389   7.270   1.095   5.282 -0.5594 -0.4073  1.5046
35099SOL    HW211390   7.147   1.013   5.316 -0.0896 -2.2795 -1.0283
35100SOL     OW11391   2.476   7.065   6.781  0.0463 -0.0961 -0.7226
35100SOL    HW111392   2.535   6.997   6.813 -1.3225 -0.2381  1.6698
35100SOL    HW211393   2.532   7.142   6.772  0.7881 -0.4517  0.5970
35101SOL     OW11394   5.263   1.706   3.727  0.0978 -0.3147  0.3190
35101SOL    HW111395   5.184   1.726   3.675  1.2698  1.9270 -0.7239
35101SOL    HW211396   5.334   1.709   3.663  1.0793 -2.2536  1.2604
35102SOL     OW11397   7.761   9.580   5.863 -0.1080 -0.0670 -0.3043
35102SOL    HW111398   7.669   9.609   5.865  0.2162  1.0915 -1.0167
35102SOL    HW211399   7.762   9.501   5.916 -1.7624 -0.7704 -1.2250
35103SOL     OW11400   2.638   6.058   7.767  0.1388  0.5938 -0.4013
35103SOL    HW111401   2.556   6.079   7.722 -0.5867 -0.1119  0.5600
35103SOL    HW211402   2.683   5.998   7.708 -0.0262  0.9933 -0.9409
35104SOL     OW11403   6.359   6.251   5.138 -0.1518  0.2926 -0.0855
35104SOL    HW111404   6.364   6.343   5.111  3.3835  0.7333  1.4850
35104SOL    HW211405   6.300   6.251   5.214 -1.5969  0.8783 -1.1656
35105SOL     OW11406   6.024   3.956   1.671  0.1489 -0.7059 -0.7839
35105SOL    HW111407   5.959   3.969   1.740  1.8030  0.1466  0.6656
35105SOL    HW211408   6.107   3.949   1.717  1.1132 -1.8045 -2.5960
35106SOL     OW11409   6.486   5.703   7.359  0.1456  0.3016  0.2422
35106SOL    HW111410   6.551   5.638   7.388 -0.0099  0.4577  0.9577
35106SOL    HW211411   6.476   5.687   7.265  2.1723  1.1189 -0.1515
35107SOL     OW11412   2.008   9.874   1.167 -0.0216  0.1915  0.1407
35107SOL    HW111413   2.066   9.799   1.158 -0.8651 -0.5827  0.8820
35107SOL    HW211414   1.924   9.836   1.194 -0.8421  1.2888 -0.7807
35108SOL     OW11415   0.218   9.732   5.173  0.0135 -0.2144 -0.0044
35108SOL    HW111416   0.211   9.646   5.215 -3.7266  0.0664  0.3126
35108SOL    HW211417   0.213   9.794   5.245 -1.5390  0.2425 -0.4699
35109SOL     OW11418   5.805   4.252   6.851  0.3794 -0.1651  0.2477
35109SOL    HW111419   5.874   4.192   6.878  0.2738 -0.6950 -0.6044
35109SOL    HW211420   5.779   4.298   6.931  0.8055 -0.9048  0.8203
35110SOL     OW11421   0.128  10.070   8.286  0.0044 -0.4157  0.0813
35110SOL    HW111422   0.168   9.999   8.236 -0.9018 -0.8223 -0.0863
35110SOL    HW211423   0.202  10.115   8.328  0.7261 -0.4803 -1.0758
35111SOL     OW11424   5.851   2.188   1.329  0.6925  0.1994  0.0971
35111SOL    HW111425   5.782   2.168   1.393 -0.0639  0.7779 -0.5129
35111SOL    HW211426   5.930   2.150   1.367 -0.4030 -2.8120 -0.3901
35112SOL     OW11427   4.852   1.314   6.211 -0.7045  0.7816 -0.1160
35112SOL    HW111428   4.840   1.278   6.123  0.5485 -2.1898  0.8136
35112SOL    HW211429   4.905   1.393   6.197 -2.3483  1.6527 -2.1418
35113SOL     OW11430   6.631   9.838   2.756 -0.0775  0.6985  0.3853
35113SOL    HW111431   6.597   9.898   2.689  1.8566 -0.8397 -2.1681
35113SOL    HW211432   6.723   9.826   2.732 -0.1886 -2.6386  1.2381
35114SOL     OW11433   6.376   6.144   4.194  0.0193 -0.1805  0.0864
35114SOL    HW111434   6.365   6.055   4.162  1.1679 -0.1389 -0.4705
35114SOL    HW211435   6.372   6.199   4.116 -1.2256  0.3395  0.4747
35115SOL     OW11436   7.256   4.136   2.879 -0.3801 -0.2843 -0.0018
35115SOL    HW111437   7.168   4.174   2.880 -2.1360 -3.8138 -1.8478
35115SOL    HW211438   7.247   4.053   2.925  1.5080 -1.5225 -1.7092
35116SOL     OW11439   7.576   5.692   1.549 -0.7452  0.1772  0.0638
35116SOL    HW111440   7.543   5.751   1.617 -1.2434  0.8450 -0.7377
35116SOL    HW211441   7.670   5.705   1.550 -0.7627  0.3038  0.5092
35117SOL     OW11442   1.879  10.576   4.554  0.4654  0.0489 -0.2592
35117SOL    HW111443   1.890  10.588   4.648 -2.0145  0.1570  0.0853
35117SOL    HW211444   1.789  10.602   4.537  0.1441 -2.0433 -2.2952
35118SOL     OW11445   6.344  10.475  10.751  0.2242 -0.0871 -0.0560
35118SOL    HW111446   6.312  10.440  10.833 -1.1706 -0.1282 -0.5893
35118SOL    HW211447   6.274  10.459  10.688  0.7679  0.9783 -0.9928
35119SOL     OW11448   2.241   1.563   1.182  0.0773  0.5220 -0.0836
35119SOL    HW111449   2.215   1.505   1.253  0.2438 -0.5822 -0.8997
35119SOL    HW211450   2.336   1.558   1.180  0.0742  0.5619 -0.3779
35120SOL     OW11451   1.095   2.692   4.699 -0.2839  0.2896 -0.4951
35120SOL    HW111452   1.028   2.639   4.655  1.0221 -0.6966 -1.3819
35120SOL    HW211453   1.148   2.727   4.627  0.5918  0.4477  0.2151
35121SOL     OW11454  10.388   8.408   6.377  0.6665  0.7927  0.4151
35121SOL    HW111455  10.330   8.441   6.446  0.4775 -1.2928  1.3451
35121SOL    HW211456  10.359   8.318   6.363  1.4832  0.7817 -1.5871
35122SOL     OW11457   0.377   7.280   8.176  0.3097  0.0336  0.6573
35122SOL    HW111458   0.388   7.374   8.160  3.0440  0.1655  2.5968
35122SOL    HW211459   0.288   7.271   8.210 -0.3895  1.6987 -0.5850
35123SOL     OW11460   1.914   2.390   1.071 -0.0924 -0.4264  0.0224
35123SOL    HW111461   1.959   2.383   1.156  0.6706  0.3565 -0.2969
35123SOL    HW211462   1.863   2.310   1.064  1.6756 -1.6191  0.1809
35124SOL     OW11463   2.629   3.526   8.498  0.0438  0.0837  0.1012
35124SOL    HW111464   2.687   3.451   8.483  0.6381  0.8313 -1.5262
35124SOL    HW211465   2.612   3.562   8.411 -0.9242  1.3382  0.7688
35125SOL     OW11466   7.624   1.017   0.059 -0.7068 -0.7966 -0.1341
35125SOL    HW111467   7.684   0.944   0.076 -1.4614 -1.7214 -1.2781
35125SOL    HW211468   7.657   1.057  -0.022  1.4440  2.0587  1.9189
35126SOL     OW11469   9.180  10.406   8.250 -0.3596 -0.2284 -0.3186
35126SOL    HW111470   9.109  10.341   8.248  0.0563 -0.9499  2.7494
35126SOL    HW211471   9.153  10.473   8.187 -3.3733 -0.8931  0.1071
35127SOL     OW11472   9.431   2.356   9.790 -0.4390 -0.0468 -0.0526
35127SOL    HW111473   9.498   2.336   9.855  0.3157  1.1631 -0.4258
35127SOL    HW211474   9.444   2.449   9.770 -1.3391 -0.1332 -1.1405
35128SOL     OW11475   5.332   2.615   7.610  0.5329  0.2330  0.4684
35128SOL    HW111476   5.244   2.642   7.582  0.7926  0.6961  0.0947
35128SOL    HW211477   5.343   2.655   7.696 -0.1823 -1.0179  1.1791
35129SOL     OW11478  10.176   1.964  10.643 -0.0232  0.1727 -0.5892
35129SOL    HW111479  10.121   1.928  10.573 -0.2060 -1.3869  0.3178
35129SOL    HW211480  10.125   1.954  10.723 -0.3171  3.0329 -0.2886
35130SOL     OW11481   7.464   3.371   1.434 -0.0787 -0.1224  0.1539
35130SOL    HW111482   7.495   3.283   1.415 -0.0385  0.3799 -2.4473
35130SOL    HW211483   7.535   3.429   1.408 -0.7993  0.7498  0.0489
35131SOL     OW11484   0.334  10.212   8.405  0.6419 -0.5573 -0.0814
35131SOL    HW111485   0.427  10.233   8.414  0.1895  0.5067  3.6423
35131SOL    HW211486   0.292  10.296   8.389  0.1360 -0.7106  0.4322
35132SOL     OW11487   3.642   1.487   8.544 -0.1961 -0.1817  0.4033
35132SOL    HW111488   3.612   1.434   8.618 -1.1676 -0.3490 -0.1043
35132SOL    HW211489   3.726   1.447   8.520 -0.1853 -0.5356  1.0023
35133SOL     OW11490   4.655   7.073   5.065 -0.0338 -0.4973  0.4355
35133SOL    HW111491   4.697   7.042   5.145  0.1937 -1.0120  0.1160
35133SOL    HW211492   4.722   7.125   5.020 -0.0861 -0.4089  0.4574
35134SOL     OW11493   4.328   0.724   7.804  0.0008 -0.1560  0.5440
35134SOL    HW111494   4.419   0.716   7.834 -0.2017 -2.5468  0.7184
35134SOL    HW211495   4.276   0.701   7.880 -0.6193 -2.3655 -0.4800
35135SOL     OW11496   4.650   8.028   3.653 -0.1032 -0.3132 -0.3957
35135SOL    HW111497   4.597   8.084   3.597  1.5510  0.0279 -1.7138
35135SOL    HW211498   4.705   8.089   3.702 -0.9397 -0.6508  1.0314
35136SOL     OW11499   6.057   6.988  10.793  0.2920 -0.0431 -0.4376
35136SOL    HW111500   6.068   7.078  10.823 -1.1036  0.0544 -0.1542
35136SOL    HW211501   5.995   6.995  10.720 -2.4966 -1.0608  1.6639
35137SOL     OW11502   5.405   6.453   7.959  0.0477 -0.5954 -0.1566
35137SOL    HW111503   5.476   6.395   7.932 -1.1237 -2.4305  0.4326
35137SOL    HW211504   5.331   6.393   7.973 -1.6696  1.2469 -0.9644
35138SOL     OW11505   0.727   6.665   1.182  0.2702 -0.6510  0.0071
35138SOL    HW111506   0.794   6.597   1.190  1.4748  0.5310  0.3432
35138SOL    HW211507   0.722   6.684   1.088  0.1312 -1.0115 -0.0580
35139SOL     OW11508   9.196   0.279   3.065  0.1658 -0.4082  0.2854
35139SOL    HW111509   9.230   0.241   3.146 -0.3810 -1.2831  0.1195
35139SOL    HW211510   9.201   0.374   3.078 -0.3538 -0.5378  1.5357
35140SOL     OW11511   0.977   9.461   5.964  0.0380 -0.4169  0.1522
35140SOL    HW111512   1.058   9.445   6.012  1.5727 -0.6256 -2.3113
35140SOL    HW211513   0.978   9.556   5.946  1.3470 -0.8225 -2.3700
35141SOL     OW11514   1.377   6.205   9.215 -0.5115 -0.1239  0.0779
35141SOL    HW111515   1.359   6.113   9.232 -1.3023 -0.3438 -1.6584
35141SOL    HW211516   1.472   6.211   9.212 -0.4508 -1.1642 -0.9777
35142SOL     OW11517   6.349  10.192   9.539 -0.4496  0.2318  0.0201
35142SOL    HW111518   6.409  10.207   9.466  0.0549  0.5214  0.4794
35142SOL    HW211519   6.403  10.206   9.617 -1.5322  2.3318  0.4625
35143SOL     OW11520   9.861   3.254  10.781 -0.0830 -0.0887 -0.7066
35143SOL    HW111521   9.901   3.332  10.744  0.2064 -0.1186 -0.4592
35143SOL    HW211522   9.929   3.187  10.777 -0.5060 -0.4906 -1.4399
35144SOL     OW11523  10.148   1.117   8.309  0.0646  0.2184  0.3842
35144SOL    HW111524  10.136   1.190   8.370  1.8436  0.8820  0.0064
35144SOL    HW211525  10.188   1.158   8.232 -2.5930 -0.4896 -1.5169
35145SOL     OW11526   0.974   3.011  10.603 -0.2594 -0.3862  0.1429
35145SOL    HW111527   0.885   2.993  10.575 -0.5760 -1.0364  1.4812
35145SOL    HW211528   0.965   3.042  10.693  0.8892 -0.9561  0.4742
35146SOL     OW11529   6.586   3.768   9.833 -0.2263  0.0980  0.1485
35146SOL    HW111530   6.575   3.753   9.927 -1.2902 -0.0185  0.0181
35146SOL    HW211531   6.653   3.836   9.827 -0.9714  0.9320  1.0310
35147SOL     OW11532   1.905   9.728   6.915 -0.2296 -0.3332  0.3217
35147SOL    HW111533   1.884   9.763   6.829 -0.6202  1.2202  1.0264
35147SOL    HW211534   1.924   9.805   6.969 -2.2275 -1.0845  2.2304
35148SOL     OW11535   5.991   8.186   1.445 -0.6134 -0.5351  0.0239
35148SOL    HW111536   6.035   8.267   1.416 -0.7328 -0.0413  1.1883
35148SOL    HW211537   6.042   8.116   1.405  0.4110  0.0720  0.2329
35149SOL     OW11538   7.233   4.003   2.159 -0.1204 -0.0741 -0.2280
35149SOL    HW111539   7.261   4.050   2.237 -0.6690 -1.5676  0.8963
35149SOL    HW211540   7.237   3.911   2.183 -0.0576 -0.5962 -2.0502
35150SOL     OW11541   6.425   5.993   0.063  0.0623  0.7194  0.0899
35150SOL    HW111542   6.510   5.992   0.019  0.9626  1.2101  1.7592
35150SOL    HW211543   6.432   6.063   0.128 -1.5795  0.6854  0.3342
35151SOL     OW11544   1.804   2.564   3.872  0.3798 -0.1199  0.0960
35151SOL    HW111545   1.828   2.472   3.862 -0.6935 -0.3834 -0.2052
35151SOL    HW211546   1.880   2.613   3.839  0.7434 -0.9074 -0.2526
35152SOL     OW11547   0.631   1.080   5.788 -0.2884 -0.0200 -0.4512
35152SOL    HW111548   0.573   1.069   5.714  0.3455  1.0960 -1.1455
35152SOL    HW211549   0.636   0.993   5.828 -0.4752 -0.6941 -1.8340
35153SOL     OW11550   6.294  10.572   9.408 -0.6686  0.3436  0.8865
35153SOL    HW111551   6.257  10.649   9.365 -0.1029  0.3370  0.3707
35153SOL    HW211552   6.356  10.609   9.472  0.5907  0.3113 -0.2759
35154SOL     OW11553   2.850   0.705   3.007 -0.2810 -0.1456 -0.0456
35154SOL    HW111554   2.864   0.640   2.938  0.3616 -0.6735  0.5648
35154SOL    HW211555   2.820   0.654   3.082 -1.0952  0.4406  0.0406
35155SOL     OW11556   4.133   1.692   4.110 -0.0094 -0.1040  0.9020
35155SOL    HW111557   4.110   1.685   4.203 -0.2867 -3.2481  0.7144
35155SOL    HW211558   4.092   1.615   4.070  1.2296  0.4474 -1.6024
35156SOL     OW11559   0.868   9.453   3.002  0.1412  0.0527  0.0615
35156SOL    HW111560   0.958   9.475   2.978  0.2822  0.7104  1.1281
35156SOL    HW211561   0.836   9.400   2.930  2.0059 -1.8017  0.5130
35157SOL     OW11562  10.152   1.964   5.569 -0.1563 -0.0701  0.2069
35157SOL    HW111563  10.206   1.899   5.615  2.8460  0.7217 -1.9103
35157SOL    HW211564  10.121   1.918   5.491 -0.8129  0.1390  0.3342
35158SOL     OW11565   3.787   6.828  10.022 -0.3646 -0.0440  0.1747
35158SOL    HW111566   3.835   6.897   9.977 -2.5452  0.3485 -1.7118
35158SOL    HW211567   3.700   6.864  10.036 -0.4950 -1.0627  2.6724
35159SOL     OW11568  10.665   0.933   2.763  0.3415 -0.4236  0.0422
35159SOL    HW111569  10.648   1.023   2.791  0.0027 -0.4063 -0.2166
35159SOL    HW211570  10.599   0.881   2.809  0.2944 -0.4927 -0.1026
35160SOL     OW11571   9.936   9.705   3.841 -0.6901  0.4170  0.0589
35160SOL    HW111572   9.956   9.793   3.873 -0.4879  0.0063  1.1046
35160SOL    HW211573   9.895   9.661   3.916  0.4277 -0.7949 -0.0093
35161SOL     OW11574   1.051   3.698   9.840  0.2467  0.0514 -0.6640
35161SOL    HW111575   1.121   3.655   9.790  1.1220  0.7794 -0.0952
35161SOL    HW211576   1.094   3.728   9.920 -0.8100  0.2012 -0.1341
35162SOL     OW11577   6.998   9.708   4.214 -0.6055  0.0486 -0.3039
35162SOL    HW111578   6.950   9.720   4.296 -0.2434  2.0311 -0.3391
35162SOL    HW211579   6.934   9.725   4.145 -0.1242  1.9461 -0.3547
35163SOL     OW11580   8.341   7.932   9.528 -0.1890 -0.1064  0.5166
35163SOL    HW111581   8.257   7.974   9.548  0.7928  2.5851 -0.4196
35163SOL    HW211582   8.376   7.906   9.613 -1.3040  0.1634  1.0742
35164SOL     OW11583   3.959   9.825   4.704  0.0447  0.0325 -0.5978
35164SOL    HW111584   3.948   9.872   4.621  3.6652 -1.6766 -2.2498
35164SOL    HW211585   3.890   9.758   4.702 -0.9039  0.9822 -1.4413
35165SOL     OW11586  10.643   6.455   6.174 -0.5504  0.1062 -0.0096
35165SOL    HW111587  10.596   6.384   6.129  0.2215 -0.5024  0.1159
35165SOL    HW211588  10.735   6.428   6.171 -0.4002  0.4157  1.2774
35166SOL     OW11589   8.448   0.906   0.051 -0.9082 -0.6365  0.6789
35166SOL    HW111590   8.512   0.887   0.119 -0.0350  2.2265  0.7653
35166SOL    HW211591   8.470   0.845  -0.020  0.5020 -1.1815  1.5520
35167SOL     OW11592   2.362   0.751   9.927 -0.5132  0.0495  0.2856
35167SOL    HW111593   2.321   0.751  10.013  2.7902  0.5810  1.9809
35167SOL    HW211594   2.360   0.842   9.899  0.5127  0.2605  0.8895
35168SOL     OW11595   7.746   8.661   0.142 -0.2942 -0.1813  0.3134
35168SOL    HW111596   7.701   8.617   0.069  1.2459 -1.0822 -0.1343
35168SOL    HW211597   7.835   8.675   0.110 -0.0408  0.9156  1.4363
35169SOL     OW11598   3.821   0.478   0.112  0.2680  0.4652 -0.3969
35169SOL    HW111599   3.866   0.429   0.181  0.6357  0.3716 -0.7052
35169SOL    HW211600   3.732   0.443   0.112  0.7290 -0.7288 -1.1313
35170SOL     OW11601   4.029   6.559   5.280  0.5854  0.1926  0.1737
35170SOL    HW111602   4.068   6.570   5.367  1.0877  0.4045 -0.0770
35170SOL    HW211603   3.999   6.647   5.256  1.2764  0.3166 -0.2557
35171SOL     OW11604   6.953   9.460   1.758 -0.7648 -0.2037 -0.3375
35171SOL    HW111605   6.986   9.513   1.686 -1.2670  1.2811  0.4700
35171SOL    HW211606   7.030   9.420   1.797 -0.4704 -0.8388 -1.5413
35172SOL     OW11607   1.469   6.708   3.894 -0.0160  0.0258 -0.0421
35172SOL    HW111608   1.403   6.728   3.960 -0.5573  0.0039 -0.5714
35172SOL    HW211609   1.460   6.777   3.829  1.3448  0.7550  0.5031
35173SOL     OW11610   0.181   3.331  10.807  0.1525  0.1390  0.1227
35173SOL    HW111611   0.248   3.396  10.828  0.2357  0.1313 -0.1086
35173SOL    HW211612   0.110   3.381  10.767 -0.4496  0.2932  1.3581
35174SOL     OW11613   8.437   0.531   2.423 -0.2739  0.3932 -0.1389
35174SOL    HW111614   8.393   0.612   2.446  2.1547  1.8497 -0.2274
35174SOL    HW211615   8.419   0.519   2.330 -0.0071  1.3053 -0.3197
35175SOL     OW11616   9.358   0.410   3.465  0.4395  0.3772  0.5112
35175SOL    HW111617   9.428   0.453   3.414  2.3156  0.4773  3.0082
35175SOL    HW211618   9.369   0.317   3.446  1.3755  0.3768  0.9732
35176SOL     OW11619  10.747   7.733   2.039 -0.2844 -0.3467  0.6712
35176SOL    HW111620  10.713   7.807   1.989  1.1974  0.5448  0.9179
35176SOL    HW211621  10.841   7.735   2.024  0.1280 -0.5019  2.8584
35177SOL     OW11622   1.250   1.278  10.748  0.2591 -0.1984  0.2289
35177SOL    HW111623   1.177   1.261  10.688 -0.7537 -1.2691  1.7012
35177SOL    HW211624   1.324   1.232  10.708  0.0533  0.5149 -1.0458
35178SOL     OW11625   6.115   2.793   2.654  0.2492  0.1895 -0.5234
35178SOL    HW111626   6.122   2.887   2.668  0.2038  0.4154 -1.8478
35178SOL    HW211627   6.032   2.782   2.607  1.4849 -0.1716 -2.7574
35179SOL     OW11628   4.061   4.182   6.098 -0.4022 -0.4826 -0.0884
35179SOL    HW111629   4.108   4.245   6.044  2.7058 -1.4405  1.2550
35179SOL    HW211630   4.078   4.097   6.056 -0.3014 -0.9216  0.8178
35180SOL     OW11631   9.013  10.241   0.459 -0.8558  0.3510 -0.0039
35180SOL    HW111632   8.950  10.178   0.494 -2.3694  1.4448 -0.6763
35180SOL    HW211633   9.088  10.235   0.518 -1.1733 -1.6561  0.2851
35181SOL     OW11634   7.181   1.210   9.231 -0.3529 -0.0360  0.0145
35181SOL    HW111635   7.139   1.133   9.192 -0.4557 -1.4173  2.6173
35181SOL    HW211636   7.253   1.174   9.283  1.2204  1.9060 -0.6944
35182SOL     OW11637   9.215   1.401   3.432 -0.2874  0.2700  0.8072
35182SOL    HW111638   9.181   1.468   3.372 -1.6635  0.6780  1.9822
35182SOL    HW211639   9.137   1.368   3.477  0.0678 -3.2650 -0.7609
35183SOL     OW11640   2.301   9.310   9.277 -0.4461  0.1541  0.0747
35183SOL    HW111641   2.395   9.289   9.275 -0.1933  1.2064 -2.1393
35183SOL    HW211642   2.267   9.258   9.350  1.7433 -0.7158  0.5749
35184SOL     OW11643   0.075   3.202   4.216 -0.4053  0.6405  0.5736
35184SOL    HW111644   0.083   3.174   4.125 -0.5227 -1.1687  1.0800
35184SOL    HW211645   0.162   3.189   4.254 -0.6061  0.3957  0.9673
35185SOL     OW11646   8.417   1.082   2.723 -0.0014  0.0438  0.2420
35185SOL    HW111647   8.337   1.041   2.691  0.6410 -2.6808  1.8184
35185SOL    HW211648   8.389   1.138   2.795 -0.5463 -0.6200  0.5542
35186SOL     OW11649   3.399   7.903   6.527  0.1025 -1.3135  0.1958
35186SOL    HW111650   3.456   7.870   6.458 -1.5624 -1.2100 -1.3253
35186SOL    HW211651   3.376   7.992   6.499  0.8122 -0.5644  1.8435
35187SOL     OW11652   7.254   6.456   3.751  0.0138  0.3898  0.1397
35187SOL    HW111653   7.343   6.422   3.748  0.6042  1.8615  0.4640
35187SOL    HW211654   7.245   6.496   3.837 -1.0215  0.1418  0.1676
35188SOL     OW11655   6.593   3.696   2.116 -0.0247  0.3506  0.2175
35188SOL    HW111656   6.555   3.708   2.203 -2.3885 -2.7798 -0.1812
35188SOL    HW211657   6.606   3.601   2.108 -0.1319  0.4811 -2.8845
35189SOL     OW11658   7.570   4.193  10.199 -0.1259 -0.7468  0.0526
35189SOL    HW111659   7.639   4.244  10.157 -2.0261  0.3310 -1.9787
35189SOL    HW211660   7.571   4.221  10.291  0.7870  0.7885 -0.3992
35190SOL     OW11661   7.691   1.888   4.362 -0.0687  0.0414 -0.1978
35190SOL    HW111662   7.658   1.857   4.278  0.7473 -1.2011 -0.0756
35190SOL    HW211663   7.616   1.932   4.402 -0.9353 -0.7728 -0.8797
35191SOL     OW11664   3.395   3.765   1.184  0.1270 -0.0721  0.2474
35191SOL    HW111665   3.404   3.801   1.272  0.1121 -0.6599  0.4969
35191SOL    HW211666   3.339   3.827   1.138 -1.9989 -1.0142  1.4208
35192SOL     OW11667   3.172   3.312  10.744 -0.4045  0.2126  0.1062
35192SOL    HW111668   3.123   3.346  10.819 -0.2057 -0.0438  0.3556
35192SOL    HW211669   3.135   3.224  10.731 -0.4316  0.2538 -0.0907
35193SOL     OW11670  10.404   9.527   3.554 -0.5924 -0.3286 -0.0960
35193SOL    HW111671  10.469   9.494   3.616 -1.4513 -1.3303  0.2954
35193SOL    HW211672  10.334   9.563   3.608 -0.6425  0.2053 -0.5055
35194SOL     OW11673   4.446   9.977   1.945  0.5257  0.5791 -0.2399
35194SOL    HW111674   4.442   9.990   2.040 -0.4289  0.5986 -0.2742
35194SOL    HW211675   4.363   9.935   1.923  1.4463 -1.0520 -0.8293
35195SOL     OW11676   5.236   8.641   8.544  0.2261 -0.0379  0.3161
35195SOL    HW111677   5.263   8.694   8.470 -0.3007  0.6970  0.6419
35195SOL    HW211678   5.213   8.556   8.506  3.6945 -1.0215  0.0884
35196SOL     OW11679   8.838   5.764   8.736  0.0362  0.4807  0.2217
35196SOL    HW111680   8.793   5.843   8.707  1.2480  1.1290  0.0380
35196SOL    HW211681   8.841   5.709   8.657 -2.2967 -0.5286  0.7516
35197SOL     OW11682   4.539   5.102   6.626 -0.1011 -0.1675  0.5824
35197SOL    HW111683   4.546   5.139   6.714 -1.2394  0.7039  0.3206
35197SOL    HW211684   4.445   5.100   6.608  0.0285 -1.6276 -0.0882
35198SOL     OW11685   6.543   2.888   3.994 -0.5399 -0.0453 -0.1620
35198SOL    HW111686   6.487   2.922   3.924 -1.1958 -1.0769 -0.1592
35198SOL    HW211687   6.485   2.882   4.070  0.0667  0.6767  0.3707
35199SOL     OW11688   2.011   3.664   1.410  0.4004 -0.3005 -0.3650
35199SOL    HW111689   2.074   3.592   1.412  0.2214 -0.4598  2.1178
35199SOL    HW211690   1.930   3.626   1.445  0.3372  1.0861  1.0936
35200SOL     OW11691   4.377   6.745   4.977  0.3025  0.1663  0.5706
35200SOL    HW111692   4.391   6.763   5.071 -1.0802  0.5495  0.7312
35200SOL    HW211693   4.287   6.713   4.972 -0.0095  1.1510 -0.7451
35201SOL     OW11694   3.393   1.957   2.448  0.1424  0.2629  0.1836
35201SOL    HW111695   3.358   2.041   2.478 -0.7951 -0.8742  2.6073
35201SOL    HW211696   3.315   1.907   2.422  0.6320 -0.0813 -0.6538
35202SOL     OW11697   4.894   1.293   8.649 -0.3273 -0.3175 -0.4469
35202SOL    HW111698   4.817   1.277   8.703  1.4549  0.1171  2.3950
35202SOL    HW211699   4.881   1.382   8.615 -0.3973  0.3968  1.3429
35203SOL     OW11700   9.215   9.523   9.183 -0.5442  0.0521 -0.1944
35203SOL    HW111701   9.247   9.445   9.230 -0.8443 -0.2377 -0.4691
35203SOL    HW211702   9.120   9.522   9.197 -0.4259  1.1010  0.9074
35204SOL     OW11703   3.937   1.428  10.292 -0.1861 -0.0613  0.1185
35204SOL    HW111704   4.009   1.396  10.238  0.9350  3.6445 -0.8295
35204SOL    HW211705   3.867   1.364  10.277  2.0955 -2.5639 -0.7010
35205SOL     OW11706   0.419   9.746   6.149  0.2415 -0.2483 -0.1111
35205SOL    HW111707   0.502   9.701   6.160  0.4921 -0.0377 -1.0345
35205SOL    HW211708   0.358   9.677   6.122  0.1004 -0.4111  0.6174
35206SOL     OW11709   2.247   9.464   4.270 -0.1266  0.8559 -0.2213
35206SOL    HW111710   2.290   9.538   4.313  0.9320 -0.0828  0.3982
35206SOL    HW211711   2.319   9.413   4.233 -0.6880 -0.6570  0.6575
35207SOL     OW11712   4.534   8.005   3.280  0.1431 -0.0946  0.1493
35207SOL    HW111713   4.557   8.028   3.190 -1.6887  0.4612 -0.2261
35207SOL    HW211714   4.457   7.949   3.272  1.9943 -3.0492  1.2553
35208SOL     OW11715   2.571   1.627   0.925 -0.5735  0.1138 -0.3399
35208SOL    HW111716   2.652   1.580   0.910  0.0284  1.0616 -0.1488
35208SOL    HW211717   2.595   1.719   0.916 -1.4637  0.4384  0.4819
35209SOL     OW11718   9.048   1.873   4.255  0.1465  0.1242 -0.2260
35209SOL    HW111719   8.964   1.833   4.234 -0.5833  0.8315  1.1774
35209SOL    HW211720   9.029   1.967   4.263  0.6338  0.1131  1.8263
35210SOL     OW11721   7.173   1.908   7.291  0.2355 -0.1911  0.0382
35210SOL    HW111722   7.182   1.974   7.360 -0.4481  0.4045 -0.4322
35210SOL    HW211723   7.130   1.954   7.219 -2.1041 -1.6579  0.4111
35211SOL     OW11724   4.465   8.569   7.463  0.1550 -0.1990 -0.6425
35211SOL    HW111725   4.443   8.479   7.487 -0.9374  0.1077 -0.4676
35211SOL    HW211726   4.381   8.613   7.456  0.7351  1.1695  0.6283
35212SOL     OW11727   6.766   4.130   7.757 -0.1390 -0.0377  0.2850
35212SOL    HW111728   6.832   4.190   7.792  1.3545 -1.5859  0.2766
35212SOL    HW211729   6.685   4.154   7.802  0.5067  1.6594  0.6013
35213SOL     OW11730   6.001  10.049   1.436  0.3835 -0.7253 -0.5223
35213SOL    HW111731   6.090  10.022   1.414  0.3476 -0.5032 -0.9472
35213SOL    HW211732   6.005  10.070   1.529  0.5078 -1.7855 -0.2740
35214SOL     OW11733   6.809   8.843   2.979  0.2729  0.1510  0.0808
35214SOL    HW111734   6.843   8.790   2.908 -0.2586  0.5923 -0.5166
35214SOL    HW211735   6.864   8.922   2.979 -0.1476  0.4454 -0.2743
35215SOL     OW11736   3.245   6.541   2.864 -0.4410  0.1448  0.2128
35215SOL    HW111737   3.244   6.570   2.773  0.2984  0.6985  0.3732
35215SOL    HW211738   3.251   6.622   2.915 -0.7296 -0.1688  0.7555
35216SOL     OW11739   9.382   4.339   9.939  0.3817 -0.3013 -0.1828
35216SOL    HW111740   9.426   4.421   9.919 -1.0059  0.5564  0.1031
35216SOL    HW211741   9.350   4.349  10.029 -2.6371  0.2665 -1.1795
35217SOL     OW11742   8.564   4.730   8.115 -0.4985 -0.1437  0.1799
35217SOL    HW111743   8.506   4.655   8.124  0.4521 -0.6976  2.7516
35217SOL    HW211744   8.608   4.736   8.200  0.6748  2.3279 -0.5089
35218SOL     OW11745   2.952   6.170   2.492 -0.6277  0.3901  0.1607
35218SOL    HW111746   2.884   6.198   2.431 -0.4085  0.0786 -0.2406
35218SOL    HW211747   3.032   6.172   2.439 -0.8048 -2.4434 -0.3760
35219SOL     OW11748   0.938   6.998  10.490 -0.3257  0.0603 -0.0391
35219SOL    HW111749   0.969   6.924  10.541  1.2022  0.1897 -0.7330
35219SOL    HW211750   1.000   7.069  10.510 -2.1515  1.4162  1.1652
35220SOL     OW11751   8.279   7.130   5.569  0.0692 -0.5467  0.0121
35220SOL    HW111752   8.275   7.085   5.485  0.4599 -2.9255  1.1597
35220SOL    HW211753   8.194   7.173   5.578 -0.4917 -1.3997 -1.0252
35221SOL     OW11754   5.231   0.084   5.928 -0.3930 -0.0404 -0.0683
35221SOL    HW111755   5.234   0.051   6.018 -1.1099  0.0507 -0.0006
35221SOL    HW211756   5.138   0.104   5.913  0.0518  2.5511  0.1041
35222SOL     OW11757   3.287   1.837   0.621  0.3464  0.5143  0.6168
35222SOL    HW111758   3.223   1.906   0.604  0.3210  0.0856 -1.2242
35222SOL    HW211759   3.257   1.763   0.568 -0.1711 -1.2950  3.2556
35223SOL     OW11760   8.648   1.297   4.971 -0.1448 -0.9524  0.4077
35223SOL    HW111761   8.678   1.208   4.989 -0.9080 -1.0394  1.3280
35223SOL    HW211762   8.593   1.319   5.045  0.6618  0.6023  0.5820
35224SOL     OW11763   8.627   9.505   8.117 -0.2687 -0.3294  0.3637
35224SOL    HW111764   8.705   9.538   8.073 -0.2635 -2.2217 -1.1557
35224SOL    HW211765   8.639   9.529   8.209  1.7201  0.0784  0.0333
35225SOL     OW11766   0.980   8.153   1.341  0.2934 -0.0040 -0.0300
35225SOL    HW111767   0.886   8.145   1.326  0.1605 -0.5272  1.0035
35225SOL    HW211768   1.000   8.085   1.405  1.5511 -0.5014 -0.9308
35226SOL     OW11769   6.986   8.306   9.849  0.1909 -0.0462  0.1395
35226SOL    HW111770   7.016   8.395   9.829  1.3717  0.1231  2.3722
35226SOL    HW211771   7.066   8.256   9.860 -0.4405 -0.9669  0.6467
35227SOL     OW11772   1.500  10.174   6.822  0.0040 -0.0772  0.0710
35227SOL    HW111773   1.415  10.146   6.857 -0.0014 -0.1689 -0.0163
35227SOL    HW211774   1.562  10.150   6.891  0.0719 -0.8091 -0.2290
35228SOL     OW11775   7.121   8.456   0.646  0.0732  0.0593  0.2093
35228SOL    HW111776   7.046   8.411   0.605 -1.4299  1.0236  1.7746
35228SOL    HW211777   7.086   8.490   0.728  1.6033  2.6144 -0.1049
35229SOL     OW11778   6.282   8.245   7.288 -0.0935 -0.1606 -0.3238
35229SOL    HW111779   6.286   8.335   7.255 -0.8305 -0.4677 -1.2974
35229SOL    HW211780   6.349   8.242   7.356  0.5257  0.8897 -0.8484
35230SOL     OW11781   6.600   2.762   4.603  0.2351  0.1445  0.4325
35230SOL    HW111782   6.506   2.777   4.615 -0.1190 -2.5210  1.5048
35230SOL    HW211783   6.632   2.736   4.689  1.1886 -2.5025 -0.6334
35231SOL     OW11784   6.362   6.680  10.768  0.4140 -0.2772  0.1982
35231SOL    HW111785   6.295   6.640  10.712  0.9207 -0.5135 -0.2407
35231SOL    HW211786   6.445   6.645  10.737  0.9127  1.3685 -0.4416
35232SOL     OW11787   8.099   2.406   1.391  0.5592  0.3965 -0.6123
35232SOL    HW111788   8.152   2.331   1.417 -0.0766 -0.3892 -1.5195
35232SOL    HW211789   8.009   2.379   1.408  0.3648  1.3321 -0.0435
35233SOL     OW11790   6.024   4.895   0.175  0.2898  0.1694  0.4792
35233SOL    HW111791   5.986   4.807   0.182  0.8725 -0.5415 -3.2271
35233SOL    HW211792   6.101   4.892   0.232  0.2044 -1.6998  0.5708
35234SOL     OW11793   3.872   2.830   9.006  0.5657  0.2154 -0.4448
35234SOL    HW111794   3.836   2.873   9.084  0.7178 -0.6762  0.1251
35234SOL    HW211795   3.932   2.764   9.040  1.0527  0.1811 -1.3390
35235SOL     OW11796   5.672   5.568   1.042 -0.0250  0.7425  0.4634
35235SOL    HW111797   5.649   5.622   1.118  1.3495  0.3741  1.1915
35235SOL    HW211798   5.629   5.609   0.968 -0.1611  2.0096  1.2274
35236SOL     OW11799   9.736   2.831   9.697 -0.0753  0.4097 -0.0311
35236SOL    HW111800   9.763   2.865   9.782  0.9146 -0.1033 -0.1275
35236SOL    HW211801   9.796   2.870   9.635  1.4416 -1.8173 -0.0926
35237SOL     OW11802   9.144   0.452   2.796 -0.3891  0.2816  0.2590
35237SOL    HW111803   9.182   0.476   2.881 -1.1421  1.5285  0.2676
35237SOL    HW211804   9.168   0.524   2.738 -1.6266  0.4538 -0.0611
35238SOL     OW11805   5.986   8.096   9.411 -0.4077  0.4108  0.2495
35238SOL    HW111806   5.991   8.091   9.315 -2.3402  0.2635  0.1140
35238SOL    HW211807   5.992   8.005   9.440 -0.6330  0.3797  0.2024
35239SOL     OW11808   5.082   6.241   0.780 -0.5044  0.3658 -0.6556
35239SOL    HW111809   5.032   6.195   0.848  0.3708  1.1396  0.5486
35239SOL    HW211810   5.026   6.313   0.753 -0.5994  0.4390 -0.2719
35240SOL     OW11811   6.077   2.573   9.026 -0.7374  0.1070 -0.0184
35240SOL    HW111812   6.052   2.639   9.091 -2.1909 -0.1918 -0.2216
35240SOL    HW211813   6.151   2.527   9.065  0.1453  1.6894  0.2264
35241SOL     OW11814   2.059   9.605   0.189 -0.2258  0.2767  0.0928
35241SOL    HW111815   2.021   9.639   0.108  0.7111  0.8173 -0.1328
35241SOL    HW211816   2.136   9.659   0.205  1.1250 -1.4970 -0.0696
35242SOL     OW11817   6.358   3.788   3.670  0.4217 -1.0261 -0.1860
35242SOL    HW111818   6.337   3.743   3.752  0.6917 -1.0920 -0.1530
35242SOL    HW211819   6.291   3.759   3.609 -2.2206  1.9832  1.0080
35243SOL     OW11820   0.895   8.409   3.847  0.1853  0.2303 -0.4594
35243SOL    HW111821   0.924   8.490   3.889 -2.0835  0.8162  0.1071
35243SOL    HW211822   0.805   8.397   3.878  0.2732 -2.2293 -0.9652
35244SOL     OW11823   8.429   4.604   9.222  0.3150  0.2023 -0.1159
35244SOL    HW111824   8.509   4.637   9.263  1.3288 -0.1725 -1.7113
35244SOL    HW211825   8.440   4.509   9.223  0.3983  0.1933 -1.2950
35245SOL     OW11826   4.628   0.868   3.237  0.1541 -0.0150  0.0472
35245SOL    HW111827   4.640   0.839   3.146  1.8120  0.9988 -0.0921
35245SOL    HW211828   4.674   0.802   3.289  0.0917 -0.0378  0.0734
35246SOL     OW11829   2.466   7.203   4.616 -0.0495  0.1308 -0.1933
35246SOL    HW111830   2.463   7.280   4.560 -1.9275 -1.8850 -3.1225
35246SOL    HW211831   2.393   7.215   4.677  0.0940  0.9260 -0.1614
35247SOL     OW11832   4.300   4.406   2.137 -0.3902  0.0852 -0.5624
35247SOL    HW111833   4.343   4.402   2.051  1.0013 -3.2290  0.1065
35247SOL    HW211834   4.227   4.344   2.131 -0.8885  0.5529  0.3614
35248SOL     OW11835   4.235   0.035   8.766  0.2705 -0.2648  0.6727
35248SOL    HW111836   4.226  -0.047   8.815  0.2406  1.4199  3.7483
35248SOL    HW211837   4.170   0.028   8.696  1.1327 -3.3085  0.0039
35249SOL     OW11838   2.455   8.316   5.025  0.1232 -0.7543  0.0285
35249SOL    HW111839   2.442   8.386   5.089  0.9527 -1.0901  0.5833
35249SOL    HW211840   2.539   8.276   5.050  0.0438 -1.4402 -0.7545
35250SOL     OW11841   9.542  10.593   1.415  0.6785 -0.2458 -0.3552
35250SOL    HW111842   9.538  10.602   1.319  1.0843  0.4316 -0.3200
35250SOL    HW211843   9.629  10.626   1.438  0.8298 -1.0136  0.1910
35251SOL     OW11844   2.620   8.315   1.824  0.1145  0.0883 -0.0263
35251SOL    HW111845   2.658   8.294   1.739  0.4043 -0.0446  0.1327
35251SOL    HW211846   2.677   8.383   1.860 -1.1655  1.6068 -0.7884
35252SOL     OW11847   7.006   4.604   1.329  0.1508 -0.0449 -0.6029
35252SOL    HW111848   6.997   4.546   1.404 -2.2678 -0.0550 -0.8423
35252SOL    HW211849   6.984   4.550   1.253 -0.1125  0.6555 -1.0388
35253SOL     OW11850  10.329   6.494  10.759 -0.1507  0.2284 -0.2637
35253SOL    HW111851  10.239   6.491  10.792  0.1765  0.4957  0.6985
35253SOL    HW211852  10.383   6.487  10.838  0.6751 -0.2695 -0.8643
35254SOL     OW11853   2.922  10.042   2.571  0.3976  0.1883 -0.1678
35254SOL    HW111854   2.924  10.133   2.601 -1.3214  0.6228 -1.2046
35254SOL    HW211855   2.981   9.995   2.630  0.3979  1.7574  1.1246
35255SOL     OW11856   5.279   9.792   0.430  0.2320  0.1877  0.0026
35255SOL    HW111857   5.361   9.838   0.448  0.8617 -0.3487 -1.3569
35255SOL    HW211858   5.244   9.836   0.352 -0.7751  0.3904  0.5456
35256SOL     OW11859   4.739   5.740   5.683 -0.0240 -0.3985 -0.2786
35256SOL    HW111860   4.831   5.763   5.672 -0.3391  0.6334 -0.9138
35256SOL    HW211861   4.724   5.670   5.620  0.1392  0.0030 -0.7756
35257SOL     OW11862   6.672  10.387  10.172  0.3293 -0.3936  0.5822
35257SOL    HW111863   6.629  10.405  10.088 -1.2069 -0.7385  1.2631
35257SOL    HW211864   6.729  10.312  10.154  0.2210 -0.2954 -0.2107
35258SOL     OW11865   5.936   3.592   8.014 -0.2305 -0.1382  0.5160
35258SOL    HW111866   5.907   3.663   7.958 -0.4124 -0.1127  0.6414
35258SOL    HW211867   5.880   3.597   8.092 -0.1282 -0.3075  0.6040
35259SOL     OW11868   8.008   4.241   9.743 -0.6040 -0.5539  0.3553
35259SOL    HW111869   8.074   4.200   9.799 -1.8014 -2.5626  0.3820
35259SOL    HW211870   7.924   4.209   9.777 -1.5857  1.3649 -0.1187
35260SOL     OW11871   1.249   7.665   6.368  0.4941  0.7228  0.1946
35260SOL    HW111872   1.195   7.709   6.434  0.2840  0.3402  0.2823
35260SOL    HW211873   1.338   7.697   6.383  0.7576 -0.6087  1.7678
35261SOL     OW11874   6.369   4.311   2.532 -0.4054  0.2656  0.1512
35261SOL    HW111875   6.347   4.293   2.624  0.9051 -1.5856  0.1431
35261SOL    HW211876   6.293   4.279   2.483  0.3359 -2.1277  0.4110
35262SOL     OW11877   6.952   2.669   0.557  0.1421 -0.1390  0.4800
35262SOL    HW111878   6.873   2.705   0.518 -0.9648 -1.0463  1.8199
35262SOL    HW211879   6.983   2.739   0.615  1.7826  1.2080 -1.8210
35263SOL     OW11880   6.169   5.201   9.094 -0.2974 -0.2716 -0.1169
35263SOL    HW111881   6.185   5.207   9.000 -0.1406 -0.9960 -0.1481
35263SOL    HW211882   6.081   5.162   9.100  1.1752 -4.0332 -0.0487
35264SOL     OW11883   9.849   5.996   7.747 -0.5534 -0.2622 -0.0662
35264SOL    HW111884   9.846   5.903   7.725  1.3996 -0.1215 -1.0702
35264SOL    HW211885   9.941   6.015   7.763 -0.7546  1.7356 -0.8966
35265SOL     OW11886   9.002   2.476   5.479 -0.1283 -0.0968 -0.6309
35265SOL    HW111887   8.936   2.501   5.544  0.4079 -0.6148  0.1222
35265SOL    HW211888   9.071   2.434   5.529 -0.3913 -1.9263 -1.6888
35266SOL     OW11889   3.040   8.374   9.523 -0.6319  0.9262 -0.4004
35266SOL    HW111890   3.026   8.466   9.501  0.7059  1.2234 -0.1241
35266SOL    HW211891   2.961   8.329   9.492 -1.5250  2.2303 -0.0835
35267SOL     OW11892   4.644   0.410   1.142 -0.1456  0.3029  0.4753
35267SOL    HW111893   4.616   0.477   1.079  0.0173 -0.7365 -0.7319
35267SOL    HW211894   4.648   0.457   1.225 -2.4035  1.2389  0.1359
35268SOL     OW11895   9.958   7.239   9.879  0.0510  0.7389  0.0011
35268SOL    HW111896   9.977   7.252   9.786  0.6371  1.4793  0.2108
35268SOL    HW211897   9.875   7.191   9.880 -0.0393  0.8545 -0.9011
35269SOL     OW11898   7.029   5.770   0.080  0.2081 -0.3750  0.0323
35269SOL    HW111899   7.003   5.826   0.006 -1.1414  0.6084  1.2021
35269SOL    HW211900   6.948   5.757   0.130  1.1034 -0.9642  1.3812
35270SOL     OW11901   4.526  10.813   2.361 -0.0471 -0.2727 -0.0695
35270SOL    HW111902   4.519  10.873   2.435  0.5211  1.5639 -1.4226
35270SOL    HW211903   4.436  10.781   2.347  0.0648 -1.8511  2.2655
35271SOL     OW11904   5.262  10.296   9.328 -0.6185 -0.5279  0.6593
35271SOL    HW111905   5.256  10.377   9.378 -1.9759  0.0748 -0.4037
35271SOL    HW211906   5.303  10.322   9.246  1.5941 -1.5082  1.3846
35272SOL     OW11907   9.030   0.795  10.336  0.6821 -0.0785 -0.4369
35272SOL    HW111908   9.004   0.865  10.396 -0.9015 -0.9602 -0.0424
35272SOL    HW211909   9.111   0.760  10.372  0.5951  0.4507  0.2847
35273SOL     OW11910   0.955   9.742   3.737  0.2281 -0.1258 -0.0305
35273SOL    HW111911   0.965   9.836   3.725 -0.6471 -0.0086  0.0670
35273SOL    HW211912   0.945   9.707   3.648  0.0774 -0.0611 -0.0404
35274SOL     OW11913   8.675   3.351   9.792 -0.4190 -0.4242  0.2900
35274SOL    HW111914   8.641   3.330   9.705  1.4331  1.7971 -1.0853
35274SOL    HW211915   8.630   3.433   9.816  0.1257 -0.2629  0.7830
35275SOL     OW11916   9.686  10.117   7.722 -0.3314 -0.4908  0.4326
35275SOL    HW111917   9.616  10.103   7.786 -1.1334  0.3959 -0.2349
35275SOL    HW211918   9.764  10.132   7.776 -1.3852  2.5038  1.3301
35276SOL     OW11919   4.305   3.570   5.501  0.2731  0.0201 -0.5731
35276SOL    HW111920   4.244   3.539   5.568  0.3440  0.1590 -0.4438
35276SOL    HW211921   4.263   3.547   5.418 -0.1058  0.4011 -0.4867
35277SOL     OW11922   1.576   0.852   2.545  0.0391  0.2414 -0.4002
35277SOL    HW111923   1.639   0.871   2.476  0.3812  3.3377  0.5983
35277SOL    HW211924   1.501   0.908   2.524  0.1354  1.2243  1.6175
35278SOL     OW11925   0.968   9.095   7.401  0.4135 -0.5204 -0.0520
35278SOL    HW111926   1.054   9.130   7.374  0.7257 -1.1246  0.1430
35278SOL    HW211927   0.952   9.137   7.486  0.8543 -0.9497  0.2498
35279SOL     OW11928   6.279   9.491   5.992  0.2996  0.3465 -0.2217
35279SOL    HW111929   6.213   9.561   5.994 -0.2501 -0.1578 -0.5453
35279SOL    HW211930   6.285   9.465   5.900  0.7243  0.1681 -0.1498
35280SOL     OW11931   4.422   0.923   9.241 -0.4894 -0.0757 -0.2276
35280SOL    HW111932   4.331   0.920   9.211 -0.4787 -0.7872 -0.2037
35280SOL    HW211933   4.458   0.837   9.219 -0.1505 -0.2092  0.7762
35281SOL     OW11934   5.421   9.424   6.242  0.1096  0.2598 -0.0039
35281SOL    HW111935   5.354   9.419   6.174 -0.4724  1.3298  0.4628
35281SOL    HW211936   5.471   9.502   6.220  0.6822 -0.0712  0.1161
35282SOL     OW11937  10.271   1.407   2.045 -0.5250 -0.0306 -0.0560
35282SOL    HW111938  10.276   1.500   2.066 -1.9686  0.4058 -1.4585
35282SOL    HW211939  10.215   1.370   2.113 -1.9413  0.6140 -0.8328
35283SOL     OW11940   4.513   4.793   6.003  0.2503  0.3108 -0.6813
35283SOL    HW111941   4.515   4.714   6.058  1.3288  0.1906 -0.8834
35283SOL    HW211942   4.430   4.786   5.955 -0.1904 -0.1354  0.1122
35284SOL     OW11943   6.281   5.750   9.386 -0.6846  0.1546 -0.1343
35284SOL    HW111944   6.311   5.776   9.299  2.9637  0.2337  0.9543
35284SOL    HW211945   6.331   5.670   9.405  2.1237  2.4586  3.4233
35285SOL     OW11946   5.788   0.661   9.402 -0.1720 -0.0209 -0.0448
35285SOL    HW111947   5.825   0.663   9.314 -0.3182 -0.6650 -0.1307
35285SOL    HW211948   5.787   0.752   9.431  1.7760 -0.0062  0.0865
35286SOL     OW11949   2.084   9.111   2.816  0.1350 -0.2581 -0.3036
35286SOL    HW111950   2.114   9.190   2.862  0.2092  0.7211 -1.9696
35286SOL    HW211951   2.130   9.113   2.732  0.0246 -2.0237 -0.4433
35287SOL     OW11952   8.243   6.198   3.686  0.1980  0.3979  0.2335
35287SOL    HW111953   8.177   6.242   3.740 -1.3170 -1.1133 -0.2725
35287SOL    HW211954   8.192   6.145   3.625  1.8977  0.1035 -1.0147
35288SOL     OW11955   2.517   3.668   7.360  0.1861  0.6556 -0.1169
35288SOL    HW111956   2.477   3.607   7.298  2.5211  0.1811 -1.2560
35288SOL    HW211957   2.497   3.754   7.324 -1.8998  0.5722  0.7214
35289SOL     OW11958   1.401   7.996   8.814  0.2317  0.0195  0.6522
35289SOL    HW111959   1.350   8.066   8.854  0.0558  0.4937 -0.3589
35289SOL    HW211960   1.361   7.915   8.845  0.5736  0.3498  2.0093
35290SOL     OW11961   6.713   9.062   0.416 -0.5543  0.1930 -0.2826
35290SOL    HW111962   6.718   8.989   0.354 -0.9731  0.6468 -0.8537
35290SOL    HW211963   6.805   9.079   0.438 -0.2017  1.2779 -2.2791
35291SOL     OW11964  10.107   4.586   0.655  0.0238  0.3652 -0.5793
35291SOL    HW111965  10.032   4.562   0.600 -1.4743  0.1342  1.4034
35291SOL    HW211966  10.123   4.508   0.708  0.0217  1.2200  0.7379
35292SOL     OW11967   9.656   4.763   0.672  0.3083 -0.1224 -0.3329
35292SOL    HW111968   9.739   4.803   0.698 -0.3075  1.5897 -0.9135
35292SOL    HW211969   9.599   4.836   0.648 -1.4054 -1.2461  0.0822
35293SOL     OW11970   8.971   9.353   4.506  0.1232  0.2852  0.2448
35293SOL    HW111971   8.919   9.432   4.491  0.4630  0.1785 -1.7322
35293SOL    HW211972   8.915   9.281   4.475  0.2183 -0.1491  1.0647
35294SOL     OW11973   8.417   5.079   7.468  0.4840  0.1125  0.2376
35294SOL    HW111974   8.459   4.993   7.465  3.9723  1.6501 -0.0565
35294SOL    HW211975   8.417   5.102   7.561  0.8736  0.3416  0.1847
35295SOL     OW11976   8.717   6.486   4.327  0.0419 -0.7037  0.1968
35295SOL    HW111977   8.800   6.476   4.280  0.5848  0.0353  0.9954
35295SOL    HW211978   8.663   6.539   4.268  1.4471  2.0435  1.2342
35296SOL     OW11979   4.090   0.272   3.998  0.2322 -0.5225  0.2117
35296SOL    HW111980   4.175   0.234   3.977  0.8303  1.0056 -0.2592
35296SOL    HW211981   4.076   0.338   3.930 -0.9658 -0.1959  0.7500
35297SOL     OW11982   6.553   7.167   5.778  0.1482  0.2848 -0.2006
35297SOL    HW111983   6.513   7.087   5.743  0.1494  0.8528 -1.5898
35297SOL    HW211984   6.501   7.238   5.739  1.0822  0.9835 -0.2016
35298SOL     OW11985   1.453   0.788   4.985 -0.1111 -0.0743  0.1377
35298SOL    HW111986   1.378   0.745   4.943  0.0739 -1.5740  1.2708
35298SOL    HW211987   1.522   0.722   4.983  0.4548  0.4782  1.1600
35299SOL     OW11988   8.889   2.393   9.193 -0.1967 -0.4073  0.0123
35299SOL    HW111989   8.935   2.473   9.220  0.4651 -0.4421 -0.9867
35299SOL    HW211990   8.954   2.342   9.145 -1.3236 -0.3351 -1.6641
35300SOL     OW11991   8.313   0.662   0.877  0.8368  1.0641 -0.3506
35300SOL    HW111992   8.237   0.612   0.904  1.7624  0.3636  1.0600
35300SOL    HW211993   8.303   0.672   0.782 -0.0524 -0.6455 -0.4705
35301SOL     OW11994   1.271   4.203   0.111 -0.5192  0.2701  0.1720
35301SOL    HW111995   1.270   4.110   0.088  0.5893 -0.0210  1.2063
35301SOL    HW211996   1.364   4.224   0.121 -0.6505  1.9241 -1.6573
35302SOL     OW11997  10.379   8.838   7.031 -0.6024  0.1628  0.1160
35302SOL    HW111998  10.328   8.823   7.111 -0.3138 -0.0866  0.2516
35302SOL    HW211999  10.316   8.879   6.971 -0.2413  2.5820  1.2454
35303SOL     OW12000   5.708   3.808   4.612 -0.3045  0.7568 -0.7077
35303SOL    HW112001   5.787   3.755   4.601  0.8938  2.7899 -2.5106
35303SOL    HW212002   5.688   3.802   4.706  1.1538 -0.8920 -0.4549
35304SOL     OW12003   4.905   8.730   7.015  0.0183 -0.2800 -0.1431
35304SOL    HW112004   4.918   8.818   6.979  1.6252 -1.0908 -1.7307
35304SOL    HW212005   4.957   8.728   7.095  2.3950 -0.6140 -1.6191
35305SOL     OW12006   4.097  10.046   4.337 -0.5456  0.1852  0.0079
35305SOL    HW112007   4.130  10.086   4.417 -0.5912  1.4063 -0.5564
35305SOL    HW212008   4.027  10.105   4.308 -0.3803 -0.1087 -1.0451
35306SOL     OW12009   7.577   4.847   7.559 -0.4572  0.1992 -0.3471
35306SOL    HW112010   7.663   4.883   7.539  0.1050 -0.1085  1.3209
35306SOL    HW212011   7.531   4.846   7.475  0.4713  2.1707 -0.9489
35307SOL     OW12012   7.491   2.118   1.672 -0.4096 -0.0108  0.7948
35307SOL    HW112013   7.401   2.124   1.643 -0.8350 -1.1830  1.7793
35307SOL    HW212014   7.493   2.040   1.728  1.4323 -0.5901 -0.0034
35308SOL     OW12015   1.579   0.694   4.104 -0.4045  0.5281  0.2107
35308SOL    HW112016   1.674   0.684   4.093 -0.1440 -0.1374  2.5093
35308SOL    HW212017   1.548   0.724   4.018  2.0792  2.3920 -0.1642
35309SOL     OW12018   5.289   4.021   0.868 -0.0689  0.4463  0.0144
35309SOL    HW112019   5.354   4.087   0.846 -0.0079  0.6560  0.7960
35309SOL    HW212020   5.215   4.040   0.810  0.5430  0.2178 -0.8571
35310SOL     OW12021   0.833   7.544   3.491  0.3720  0.0391 -0.0151
35310SOL    HW112022   0.796   7.612   3.434  1.5172 -0.5755 -1.5741
35310SOL    HW212023   0.927   7.565   3.495  0.5995 -0.9631  0.1567
35311SOL     OW12024   8.888   9.407   8.639 -0.0512 -0.6879 -0.3199
35311SOL    HW112025   8.852   9.495   8.641 -1.3433 -1.1954 -0.4265
35311SOL    HW212026   8.949   9.404   8.713 -1.3538 -0.2547  0.8116
35312SOL     OW12027   8.286   4.580   1.001 -0.7954 -0.2825  0.2794
35312SOL    HW112028   8.265   4.549   0.913  2.2279 -1.4388 -0.1364
35312SOL    HW212029   8.304   4.501   1.052 -0.2989  0.4656  1.3206
35313SOL     OW12030   9.860   1.343   4.267 -0.3176 -0.3148 -1.0527
35313SOL    HW112031   9.875   1.375   4.178  0.2571  1.8580 -0.2085
35313SOL    HW212032   9.933   1.283   4.284  1.4246  1.7653 -0.9123
35314SOL     OW12033   7.701   6.249   8.214 -0.3055  0.5880  0.3021
35314SOL    HW112034   7.784   6.293   8.231  0.6495 -1.6378  1.8419
35314SOL    HW212035   7.723   6.178   8.153 -0.6853 -1.0604  2.0128
35315SOL     OW12036   8.074  10.614   2.825 -0.6771 -0.3922  0.3382
35315SOL    HW112037   8.110  10.681   2.767  3.8961 -0.8048  2.3082
35315SOL    HW212038   8.110  10.532   2.792 -1.5507 -1.1799  1.2678
35316SOL     OW12039   8.956   0.405   9.233 -0.1375 -0.0276  0.6544
35316SOL    HW112040   8.871   0.448   9.219 -0.5538 -0.8890  0.4835
35316SOL    HW212041   8.994   0.397   9.146  0.7044  1.4776  0.8432
35317SOL     OW12042  10.254   2.610   9.165  0.3689  0.3272 -0.3924
35317SOL    HW112043  10.206   2.688   9.191  0.7888  0.8873 -1.2435
35317SOL    HW212044  10.314   2.640   9.097 -0.9035 -1.1247 -2.2362
35318SOL     OW12045   7.184   5.884   6.121  0.3807 -0.1600 -0.8517
35318SOL    HW112046   7.227   5.966   6.146 -0.0914 -0.1743  0.0356
35318SOL    HW212047   7.121   5.910   6.054  0.6979  0.0948 -1.0575
35319SOL     OW12048   8.985   0.871   2.902  0.3710 -0.0391 -0.9449
35319SOL    HW112049   8.943   0.945   2.858  0.5150 -0.2915 -1.5162
35319SOL    HW212050   8.950   0.794   2.857 -0.9238 -0.4090  0.6026
35320SOL     OW12051   2.231   5.333   3.217  0.6628 -0.3231  0.0154
35320SOL    HW112052   2.322   5.313   3.238  0.1460 -2.1867  0.6905
35320SOL    HW212053   2.210   5.276   3.143 -0.0794 -0.2540  0.1601
35321SOL     OW12054   3.700   6.951   1.888  0.1576  0.0548  0.0444
35321SOL    HW112055   3.746   6.886   1.942 -1.7580  0.0453  1.8084
35321SOL    HW212056   3.714   6.921   1.798  0.9735 -1.6788  0.6904
35322SOL     OW12057   4.267   5.568   5.751  0.1604  0.6027 -0.5033
35322SOL    HW112058   4.280   5.492   5.807  0.4768  0.8711 -0.2109
35322SOL    HW212059   4.350   5.616   5.755  0.0253  0.8706 -0.8256
35323SOL     OW12060   9.352   4.706   2.589  0.0509 -0.1309  0.2361
35323SOL    HW112061   9.325   4.622   2.627 -0.2307  0.8036  2.2725
35323SOL    HW212062   9.398   4.750   2.661  0.2301  1.4454 -0.7987
35324SOL     OW12063   7.063   8.320   3.673  0.1751 -0.9464  0.0797
35324SOL    HW112064   7.120   8.394   3.651 -0.8104  0.0152  0.7277
35324SOL    HW212065   7.117   8.243   3.653  0.9498 -0.0916 -1.3251
35325SOL     OW12066   0.813   9.609   9.884 -0.0547 -0.0614 -0.1361
35325SOL    HW112067   0.853   9.621   9.971 -0.3836  1.5841 -0.1724
35325SOL    HW212068   0.813   9.515   9.871  1.0144 -0.2883  1.1825
35326SOL     OW12069   8.772   9.480   3.752 -0.2673  0.3548  0.1972
35326SOL    HW112070   8.697   9.524   3.792  0.8093  2.1355  0.3255
35326SOL    HW212071   8.748   9.474   3.659 -0.3353  1.4545  0.1321
35327SOL     OW12072   4.837   0.565   6.643  0.0146 -0.7309  0.2780
35327SOL    HW112073   4.923   0.578   6.683  0.2907  0.0672 -0.5293
35327SOL    HW212074   4.798   0.492   6.691 -0.2190  0.9717  2.8599
35328SOL     OW12075   0.427   0.840   0.541 -0.2458 -0.2821 -0.5520
35328SOL    HW112076   0.509   0.873   0.577  1.0976 -3.3195 -0.5380
35328SOL    HW212077   0.359   0.878   0.597  1.4338 -0.9275  2.1200
35329SOL     OW12078   5.656   5.471   5.578 -0.5873 -0.2650  0.1925
35329SOL    HW112079   5.617   5.557   5.561 -0.7596 -0.5014 -0.6494
35329SOL    HW212080   5.632   5.452   5.668 -0.0890  0.8068  0.5707
35330SOL     OW12081   4.386   3.006   9.625  0.1262 -0.2121 -0.1335
35330SOL    HW112082   4.330   3.031   9.699 -0.7524 -1.0932 -0.4808
35330SOL    HW212083   4.383   3.082   9.566 -0.8121 -0.2917 -0.2024
35331SOL     OW12084   8.507   1.646   7.588 -0.1906  0.6027  0.0558
35331SOL    HW112085   8.543   1.671   7.503 -1.1913  0.5484 -0.4020
35331SOL    HW212086   8.517   1.551   7.592 -0.9682  0.4918 -0.4127
35332SOL     OW12087   4.763   6.786   0.199 -1.0218  0.0152  0.1391
35332SOL    HW112088   4.779   6.732   0.121 -0.4751 -0.5827  0.6589
35332SOL    HW212089   4.797   6.872   0.175  1.7203 -0.8127  0.6374
35333SOL     OW12090   0.015   6.353   9.023 -0.2624 -0.0494  0.6820
35333SOL    HW112091  -0.018   6.398   9.101 -2.1372  0.7364 -0.5097
35333SOL    HW212092  -0.033   6.270   9.021 -0.0576 -0.1636  0.4587
35334SOL     OW12093   3.371   9.712   8.402 -0.2816 -0.2954 -0.0167
35334SOL    HW112094   3.322   9.778   8.352 -2.1093  0.5299  2.6621
35334SOL    HW212095   3.314   9.635   8.403 -0.4724 -0.1532  1.1129
35335SOL     OW12096   7.334   1.736   3.998  0.5545  0.2541  0.2588
35335SOL    HW112097   7.241   1.717   4.008  0.5003  0.5408  0.3272
35335SOL    HW212098   7.341   1.829   4.019  0.6721  0.5382 -0.9569
35336SOL     OW12099   4.798   9.581   7.037  0.3032  0.0477 -0.1727
35336SOL    HW112100   4.827   9.576   6.946  0.2781 -0.2094 -0.1664
35336SOL    HW212101   4.734   9.652   7.038 -1.1969 -1.2510 -0.7590
35337SOL     OW12102   8.863   6.375   8.576 -0.1902 -0.1947  0.5948
35337SOL    HW112103   8.808   6.442   8.536  0.6017 -0.8041 -1.6434
35337SOL    HW212104   8.939   6.423   8.610 -0.3353  0.2098  0.3518
35338SOL     OW12105   0.621   1.762  10.400 -0.4859 -0.7544  0.2103
35338SOL    HW112106   0.644   1.742  10.309 -0.8117  0.4455 -0.1466
35338SOL    HW212107   0.688   1.824  10.428 -1.4039  0.2649  0.2033
35339SOL     OW12108   6.755  10.821   2.590  0.1126  0.5562 -0.1617
35339SOL    HW112109   6.748  10.832   2.685 -1.3011 -0.4262 -0.1186
35339SOL    HW212110   6.821  10.885   2.564 -0.6417  2.0172  1.2709
35340SOL     OW12111   4.768   6.959  10.739  0.2290  0.2650 -0.1354
35340SOL    HW112112   4.822   6.951  10.661  2.0972  0.2870  1.0824
35340SOL    HW212113   4.679   6.974  10.706  0.6006 -1.6693 -2.2402
35341SOL     OW12114   0.192   8.138  10.446  0.1404  0.4105 -0.6891
35341SOL    HW112115   0.242   8.083  10.506  0.6714  1.2133 -0.3704
35341SOL    HW212116   0.144   8.198  10.504 -0.9048 -0.0943 -1.0026
35342SOL     OW12117  10.108   0.994   2.176  0.8999  0.7889 -0.3882
35342SOL    HW112118  10.167   0.925   2.146  1.4146  1.8227 -1.8475
35342SOL    HW212119  10.047   1.008   2.104  1.3194  2.4055 -0.4785
35343SOL     OW12120   6.235   9.646   2.819 -0.1892  0.2087  0.2192
35343SOL    HW112121   6.165   9.632   2.882  0.9655  1.7296  1.9354
35343SOL    HW212122   6.315   9.625   2.867  0.8518  2.8640 -0.1747
35344SOL     OW12123   4.406   6.842   3.651 -0.1234  0.1405 -0.4249
35344SOL    HW112124   4.356   6.843   3.570  0.3440 -0.9261 -0.7487
35344SOL    HW212125   4.347   6.880   3.716 -0.4093  1.2495 -1.2955
35345SOL     OW12126  10.240   4.064   8.644 -0.2349 -0.9059  0.2557
35345SOL    HW112127  10.160   4.014   8.660 -0.5411 -0.6120 -0.3225
35345SOL    HW212128  10.310   4.010   8.681 -0.5914 -1.6251 -0.0983
35346SOL     OW12129   6.133   4.894   0.834  0.2423 -0.1337 -0.3041
35346SOL    HW112130   6.210   4.951   0.840  1.0647 -1.0176 -1.7628
35346SOL    HW212131   6.090   4.902   0.919  0.9954  1.6992 -0.0549
35347SOL     OW12132   4.172   9.814  10.820 -0.1962  0.4021  0.1205
35347SOL    HW112133   4.141   9.725  10.831 -2.9630  1.3852  1.2791
35347SOL    HW212134   4.219   9.833  10.902 -0.4266  0.3071  0.2757
35348SOL     OW12135   3.894   1.983   4.794 -0.3936 -0.0818 -0.8525
35348SOL    HW112136   3.889   1.905   4.739 -0.1799 -0.1620 -0.7595
35348SOL    HW212137   3.822   2.038   4.765 -0.4046 -0.2150 -1.0745
35349SOL     OW12138   0.574   8.502   7.645 -0.2157 -0.7819 -0.3656
35349SOL    HW112139   0.659   8.505   7.601 -0.3863 -1.4066 -0.7649
35349SOL    HW212140   0.589   8.544   7.730  0.6081 -1.2838 -0.2490
35350SOL     OW12141   8.977   4.031   2.639  0.1757  0.9256  0.2581
35350SOL    HW112142   9.060   4.061   2.677 -0.0145  0.7989  0.7826
35350SOL    HW212143   8.963   4.088   2.564  1.7308 -0.3033 -1.0471
35351SOL     OW12144   1.651  10.815   3.810 -0.1194  0.8658  0.5081
35351SOL    HW112145   1.590  10.888   3.799  0.0250  1.4313  3.0218
35351SOL    HW212146   1.594  10.738   3.819 -0.3466  0.9948  0.2198
35352SOL     OW12147   9.391   4.240   8.200  0.0444 -0.0028 -0.1380
35352SOL    HW112148   9.349   4.314   8.157 -2.6465 -1.3483 -0.0123
35352SOL    HW212149   9.485   4.257   8.191 -0.4366  1.6655 -3.1428
35353SOL     OW12150   1.361   0.026   8.141  0.3947 -0.2111  0.7260
35353SOL    HW112151   1.434   0.014   8.079  0.9048  1.2251  1.0057
35353SOL    HW212152   1.312   0.101   8.105 -0.3333 -0.4974  1.1151
35354SOL     OW12153   0.522   9.978   2.726 -0.9916 -0.3157 -0.5744
35354SOL    HW112154   0.577   9.938   2.794 -0.3494  1.2935 -0.1111
35354SOL    HW212155   0.439   9.996   2.770 -0.6971  0.4020 -0.3031
35355SOL     OW12156   6.377   9.317   2.084  0.5034  0.0888  0.5640
35355SOL    HW112157   6.367   9.267   2.165  2.2514  1.2528  1.5690
35355SOL    HW212158   6.423   9.258   2.024 -1.0972 -0.8967  0.2435
35356SOL     OW12159   5.843   3.746  10.735 -0.3071 -0.1161  0.1475
35356SOL    HW112160   5.752   3.725  10.713 -1.3315  1.3580  2.6047
35356SOL    HW212161   5.865   3.818  10.675 -1.3638  0.6301  0.6134
35357SOL     OW12162   9.252   0.599   9.301  0.2596  0.1620 -0.3484
35357SOL    HW112163   9.176   0.560   9.343 -0.0840 -0.0834 -1.1972
35357SOL    HW212164   9.320   0.596   9.368 -0.6256  0.9229  0.6277
35358SOL     OW12165   6.675   1.192   1.828  0.2365  0.3007 -0.5581
35358SOL    HW112166   6.626   1.114   1.855 -1.4117  1.1981 -0.7940
35358SOL    HW212167   6.651   1.259   1.892 -0.1544  1.2099 -1.6189
35359SOL     OW12168   9.349   0.298   8.694  0.1088  0.4025  0.2577
35359SOL    HW112169   9.279   0.362   8.677 -1.0095 -1.1623 -1.3776
35359SOL    HW212170   9.357   0.296   8.789 -1.9263  0.8011  0.4805
35360SOL     OW12171   3.594  10.823   2.752  0.0875 -0.2509 -0.6062
35360SOL    HW112172   3.556  10.799   2.668  0.1010  0.4180 -0.8068
35360SOL    HW212173   3.598  10.741   2.801  0.7281 -0.7829 -1.5138
35361SOL     OW12174   5.295   3.354  10.496 -0.6460 -0.4624  0.5167
35361SOL    HW112175   5.384   3.336  10.466 -1.2398 -0.6431 -1.1883
35361SOL    HW212176   5.281   3.447  10.476 -0.6781 -0.2957  1.2630
35362SOL     OW12177   2.982   6.603   3.779 -0.4193 -0.0270 -0.3869
35362SOL    HW112178   2.993   6.685   3.827 -1.9173 -0.4831  0.8112
35362SOL    HW212179   2.902   6.615   3.728 -0.3181 -0.5324 -0.6720
35363SOL     OW12180   4.250   2.013   5.734 -0.4095 -0.2801 -0.3286
35363SOL    HW112181   4.280   1.922   5.723 -1.4056 -0.5593 -0.8091
35363SOL    HW212182   4.246   2.025   5.829  2.2627  0.1402 -0.1895
35364SOL     OW12183   3.508   0.060   3.639  0.2756 -0.3975  0.6864
35364SOL    HW112184   3.507   0.052   3.735  1.8302  0.4210  0.8050
35364SOL    HW212185   3.600   0.075   3.618 -0.2931  1.2555 -0.7803
35365SOL     OW12186  10.272   7.288   1.101 -0.3506 -0.0490  0.2748
35365SOL    HW112187  10.180   7.263   1.108 -0.2371 -0.8889 -0.9406
35365SOL    HW212188  10.318   7.206   1.081  0.1954  0.8645 -2.6945
35366SOL     OW12189   8.350   8.443   7.893  0.1977  0.0294 -0.1141
35366SOL    HW112190   8.394   8.358   7.889 -0.7272 -0.4355 -0.6841
35366SOL    HW212191   8.313   8.446   7.981 -0.1798 -0.3834 -0.2506
35367SOL     OW12192   1.536  10.491   9.869  0.0557  0.1878 -0.2412
35367SOL    HW112193   1.570  10.574   9.835 -0.2635  0.2255 -0.4686
35367SOL    HW212194   1.484  10.455   9.797 -0.8219  0.3836  0.2914
35368SOL     OW12195   2.366   2.371   6.469 -0.3110 -0.0373  0.0034
35368SOL    HW112196   2.440   2.424   6.440  0.5516 -0.3743  1.4771
35368SOL    HW212197   2.406   2.289   6.499 -1.3506 -0.4547  0.2864
35369SOL     OW12198   4.573   5.066   3.133 -0.5663 -0.4093  0.4210
35369SOL    HW112199   4.627   5.144   3.151  1.5643 -1.6326 -0.2814
35369SOL    HW212200   4.514   5.094   3.063 -0.3725  0.7960  0.7136
35370SOL     OW12201   9.655   1.885   9.663  0.3183  0.0297  0.2231
35370SOL    HW112202   9.626   1.952   9.724  0.8257 -0.2736  0.8020
35370SOL    HW212203   9.731   1.845   9.705 -0.2963 -1.2715  0.1266
35371SOL     OW12204   8.313   6.771   6.778  0.7233 -0.1644  0.7324
35371SOL    HW112205   8.295   6.679   6.801 -0.3073 -0.3377 -0.6262
35371SOL    HW212206   8.407   6.774   6.763  0.3363 -2.1518 -3.5508
35372SOL     OW12207   2.489  10.255   6.392  0.1969 -0.4309 -0.2270
35372SOL    HW112208   2.429  10.317   6.434  0.1207 -1.2310  0.8926
35372SOL    HW212209   2.459  10.250   6.301  1.4499  2.6753 -0.9134
35373SOL     OW12210   6.121   6.729   2.628  0.2726  0.0749  0.0325
35373SOL    HW112211   6.077   6.648   2.602  0.0525  0.3864 -0.5920
35373SOL    HW212212   6.214   6.711   2.616  0.2279 -0.1082 -0.0440
35374SOL     OW12213   9.800   9.964   4.562 -0.1829 -0.8906 -0.8042
35374SOL    HW112214   9.861  10.037   4.573  0.7932 -1.8950  0.8991
35374SOL    HW212215   9.713  10.004   4.570  0.3107  0.2015 -0.7348
35375SOL     OW12216   2.345   0.030   7.124 -0.2366 -0.5382 -0.4700
35375SOL    HW112217   2.332   0.125   7.114  0.5936 -0.2492  0.8765
35375SOL    HW212218   2.369   0.000   7.036  2.1022  0.9774 -0.4491
35376SOL     OW12219  10.674   9.921   0.836 -0.3336 -0.1665 -0.5303
35376SOL    HW112220  10.723   9.988   0.788  1.0411  0.4636  1.6105
35376SOL    HW212221  10.670   9.847   0.776  0.3561  0.9345 -2.0020
35377SOL     OW12222   2.263   2.769   8.490  0.4443 -0.2510  0.6346
35377SOL    HW112223   2.206   2.751   8.565 -0.3143  0.2129  0.1836
35377SOL    HW212224   2.321   2.693   8.485  1.7488  0.5318  2.8006
35378SOL     OW12225   9.509   0.190   3.827 -0.7138  0.3365 -0.1036
35378SOL    HW112226   9.465   0.105   3.836 -1.6591  1.0206  2.2805
35378SOL    HW212227   9.590   0.169   3.780 -1.5973 -1.6349 -0.8645
35379SOL     OW12228   2.119   8.681   4.892  0.1320 -0.2459  0.2061
35379SOL    HW112229   2.124   8.750   4.826  0.9367 -0.1962  0.3020
35379SOL    HW212230   2.047   8.706   4.949 -0.2338 -0.0214 -0.3587
35380SOL     OW12231   4.514   7.003   1.229 -0.0438  0.2851  0.3735
35380SOL    HW112232   4.503   7.057   1.150  2.4634 -0.3372 -0.5039
35380SOL    HW212233   4.497   6.914   1.199  0.5751  0.0835  0.6191
35381SOL     OW12234   2.471   0.164   0.995 -0.2003  0.3895  0.0842
35381SOL    HW112235   2.419   0.113   1.057 -0.8993 -0.3607 -1.0755
35381SOL    HW212236   2.406   0.213   0.944  0.4219  1.9081  0.6895
35382SOL     OW12237   5.888   7.270   2.889  0.2132  0.7152  0.5512
35382SOL    HW112238   5.898   7.195   2.948 -0.8986  0.2454  0.1725
35382SOL    HW212239   5.794   7.286   2.887  0.3145  1.2599 -0.4306
35383SOL     OW12240   6.351   4.023   9.920  0.4572 -0.1483 -0.1219
35383SOL    HW112241   6.397   3.966   9.982  0.1205  0.6183  0.8592
35383SOL    HW212242   6.404   4.102   9.915 -0.5669  0.6257  0.7941
35384SOL     OW12243   5.355   1.458   3.070 -0.0633  0.1827  0.3813
35384SOL    HW112244   5.407   1.519   3.122 -2.5164  1.4741  1.4960
35384SOL    HW212245   5.366   1.488   2.980  1.3989  0.1428  0.5191
35385SOL     OW12246   4.733   4.653   3.178 -0.1726  0.0229  0.3098
35385SOL    HW112247   4.658   4.697   3.218  0.7020  1.5272  0.3767
35385SOL    HW212248   4.784   4.724   3.138 -0.3641 -1.2847 -2.4449
35386SOL     OW12249   8.581   0.998   6.042  0.3427  0.3301 -0.0706
35386SOL    HW112250   8.575   1.008   5.947 -0.1095  0.0501 -0.0732
35386SOL    HW212251   8.662   1.043   6.065  0.5078  0.3169 -0.5994
35387SOL     OW12252   2.228   8.745  10.531 -0.4534 -0.7427  0.2289
35387SOL    HW112253   2.321   8.768  10.523 -0.3745 -0.1197  2.3698
35387SOL    HW212254   2.228   8.651  10.551 -0.0928 -0.2822  2.6261
35388SOL     OW12255   5.383   1.003   7.974 -0.4418  0.2477 -0.4356
35388SOL    HW112256   5.308   1.010   8.032 -0.5333  2.5842 -0.7751
35388SOL    HW212257   5.346   0.979   7.889 -0.3979 -2.1397  0.1278
35389SOL     OW12258   6.910   2.097   6.736  0.1657 -0.3544 -0.5284
35389SOL    HW112259   6.867   2.093   6.651 -0.9796  0.0959 -0.0038
35389SOL    HW212260   6.935   2.006   6.755 -1.4332 -0.8249 -0.4611
35390SOL     OW12261   1.658   4.325   6.417 -0.4287  0.0240  0.0588
35390SOL    HW112262   1.743   4.367   6.430 -0.0519 -0.4831 -0.6961
35390SOL    HW212263   1.663   4.245   6.468 -0.7380  0.3502  0.6113
35391SOL     OW12264   5.873  10.595   1.299 -0.7444 -0.0260 -0.2001
35391SOL    HW112265   5.800  10.572   1.356  0.5469 -0.7998  1.2269
35391SOL    HW212266   5.941  10.531   1.320  0.7651  1.3596 -0.6257
35392SOL     OW12267   1.534   1.469   1.284 -0.2829 -0.2277 -0.3008
35392SOL    HW112268   1.453   1.507   1.250 -1.1484 -0.2115  1.6706
35392SOL    HW212269   1.603   1.514   1.236 -1.4040  0.2780 -1.5091
35393SOL     OW12270   8.330   3.259   0.016 -0.1952  0.9610  0.2358
35393SOL    HW112271   8.307   3.338  -0.033  0.0329  0.4940 -0.6581
35393SOL    HW212272   8.302   3.187  -0.040  0.6581  0.4043  0.4947
35394SOL     OW12273   0.091   1.664   0.524 -0.1351  0.0156  0.1346
35394SOL    HW112274   0.071   1.738   0.468 -2.2711 -0.7781 -0.2465
35394SOL    HW212275   0.173   1.629   0.490 -0.8809  0.1407 -1.9052
35395SOL     OW12276   2.319   6.717   7.570  0.0372 -0.0351 -0.3793
35395SOL    HW112277   2.280   6.704   7.484 -0.8773 -0.5565  0.0999
35395SOL    HW212278   2.301   6.635   7.617 -1.4127  1.0348  1.0411
35396SOL     OW12279  10.263   0.204   3.935 -0.4695  0.4073  0.3918
35396SOL    HW112280  10.239   0.284   3.983  1.6549  0.0869  2.1676
35396SOL    HW212281  10.216   0.211   3.852 -1.0593  3.0710  0.8465
35397SOL     OW12282   3.583   0.071   1.335  0.5246  0.8097 -0.1296
35397SOL    HW112283   3.553  -0.000   1.391  2.3911 -0.1188 -0.2330
35397SOL    HW212284   3.560   0.151   1.382  1.4071  0.0671  1.6654
35398SOL     OW12285   5.296   2.006   4.728 -0.4558  0.5440 -0.3655
35398SOL    HW112286   5.254   1.963   4.802 -0.5201  0.1665 -0.6214
35398SOL    HW212287   5.233   1.996   4.656  0.0693 -0.0207 -0.7493
35399SOL     OW12288   4.399   6.881   5.821 -0.3526  0.4156  0.0940
35399SOL    HW112289   4.364   6.958   5.866  0.4074  0.0811  1.3185
35399SOL    HW212290   4.445   6.832   5.890  2.2474  0.6838 -1.3156
35400SOL     OW12291   2.423   2.931   4.081  0.2580 -0.2120 -0.1985
35400SOL    HW112292   2.498   2.894   4.035 -0.6582 -1.4403 -0.7594
35400SOL    HW212293   2.411   2.874   4.157 -0.5741 -0.5176 -0.5425
35401SOL     OW12294   6.906   1.872   8.178  0.4556 -0.4345 -0.1037
35401SOL    HW112295   6.862   1.867   8.093  1.6503  0.6308 -0.8164
35401SOL    HW212296   6.840   1.907   8.237 -0.3202 -0.9708 -0.6340
35402SOL     OW12297   0.975  10.269   6.070  0.5011 -0.4397 -0.2792
35402SOL    HW112298   0.894  10.279   6.120 -0.3155 -0.0938 -1.5901
35402SOL    HW212299   1.005  10.359   6.054 -0.4881 -0.4003 -2.2511
35403SOL     OW12300   0.743   1.329   8.153 -0.0811  0.0125  0.0083
35403SOL    HW112301   0.648   1.322   8.161 -0.2036  1.1743 -0.3009
35403SOL    HW212302   0.763   1.419   8.177  0.8807 -0.0589 -0.4692
35404SOL     OW12303   2.548  10.545   7.903 -0.0222  0.4444 -0.1955
35404SOL    HW112304   2.498  10.465   7.919  0.5733  0.6163  3.3540
35404SOL    HW212305   2.623  10.515   7.851 -0.4145 -1.1277  0.0754
35405SOL     OW12306   5.708   6.617   3.360  0.2667  0.9544  0.0952
35405SOL    HW112307   5.703   6.527   3.327 -2.2649  0.7003  0.9968
35405SOL    HW212308   5.658   6.668   3.297  0.0288  1.3846  0.6267
35406SOL     OW12309   5.250   6.984   7.860  0.7983  0.1261  0.1868
35406SOL    HW112310   5.339   7.020   7.864  0.7807  0.2615 -0.5574
35406SOL    HW212311   5.263   6.889   7.867  0.9776  0.1576  0.3134
35407SOL     OW12312   8.551   1.808   8.569  0.1806  0.0155  0.1743
35407SOL    HW112313   8.468   1.814   8.616  0.4739  1.1139  0.5933
35407SOL    HW212314   8.526   1.808   8.476 -0.2670  1.8077  0.2490
35408SOL     OW12315   9.519   8.954   6.161  0.2748  0.1392 -0.0837
35408SOL    HW112316   9.495   8.916   6.245 -0.6098 -0.3466 -0.5382
35408SOL    HW212317   9.544   9.045   6.181  0.3629 -0.0575  0.7265
35409SOL     OW12318   4.432   9.292   7.922  0.2333 -0.1839 -0.0329
35409SOL    HW112319   4.528   9.293   7.918  0.2306 -1.4974 -1.1742
35409SOL    HW212320   4.407   9.384   7.922  1.5551  0.2857  2.8576
35410SOL     OW12321   0.436   9.916   8.362 -0.2599  0.1244  0.6689
35410SOL    HW112322   0.437   9.926   8.457  0.2464  1.2669  0.5520
35410SOL    HW212323   0.450  10.004   8.327  0.8315 -0.4525 -0.4548
35411SOL     OW12324   8.958   9.560   7.497  0.8518  0.1355 -0.1497
35411SOL    HW112325   9.052   9.551   7.480  0.6066  0.4324 -1.8446
35411SOL    HW212326   8.924   9.606   7.421 -1.4124 -3.7923 -1.7916
35412SOL     OW12327   1.959   8.663   6.969  0.3345  0.1389  0.3840
35412SOL    HW112328   1.890   8.677   7.033 -0.5338  1.4930 -0.7931
35412SOL    HW212329   2.000   8.581   6.996 -1.9810 -0.9401  0.8895
35413SOL     OW12330   4.741   7.635   8.299  0.0522  0.2020  0.1884
35413SOL    HW112331   4.670   7.585   8.257 -1.2082 -0.2145  2.5970
35413SOL    HW212332   4.710   7.725   8.298  0.0314  0.1950  0.2148
35414SOL     OW12333   5.799   5.912   4.777  0.1351 -0.0352 -0.0250
35414SOL    HW112334   5.884   5.926   4.736  0.0713 -1.4064 -0.6945
35414SOL    HW212335   5.778   5.820   4.758 -0.9652 -0.0470  1.1120
35415SOL     OW12336   7.341   2.628   5.861  0.2552  0.3043  0.3145
35415SOL    HW112337   7.385   2.666   5.937  0.6763  1.3823 -0.4527
35415SOL    HW212338   7.406   2.630   5.791  0.0464 -1.1732  0.0332
35416SOL     OW12339   4.434   5.500   1.291 -0.2964  0.2281  0.0101
35416SOL    HW112340   4.341   5.506   1.313 -0.8594 -0.5343 -1.9344
35416SOL    HW212341   4.440   5.539   1.204  1.4090  1.1927  0.5292
35417SOL     OW12342   1.963  10.313   2.556 -0.3273 -0.0400 -0.3906
35417SOL    HW112343   1.919  10.228   2.552 -0.6910  0.1842 -2.4681
35417SOL    HW212344   1.984  10.333   2.464  2.8054  0.5739  0.3568
35418SOL     OW12345   9.036   9.009  10.153 -0.3481  0.3112  0.1877
35418SOL    HW112346   9.100   8.940  10.137  0.9350  1.4950 -0.0703
35418SOL    HW212347   9.069   9.084  10.102 -1.1347  1.4015  1.2157
35419SOL     OW12348   6.686   4.822   4.760 -0.5671  0.6785  0.2025
35419SOL    HW112349   6.723   4.743   4.722  2.7476  1.5648  1.3152
35419SOL    HW212350   6.670   4.880   4.685  0.0092  0.1539 -0.3306
35420SOL     OW12351   0.360  10.188   5.434 -0.0735  0.0810  0.0452
35420SOL    HW112352   0.369  10.126   5.361  2.7351 -0.2088  0.5319
35420SOL    HW212353   0.317  10.264   5.394  1.6470  0.0659 -2.0718
35421SOL     OW12354   6.498   2.956   9.833  0.2461 -0.0861  0.3248
35421SOL    HW112355   6.468   2.866   9.838 -1.2514  0.3101 -0.7519
35421SOL    HW212356   6.446   3.003   9.897 -1.0961  0.4907 -1.1124
35422SOL     OW12357  10.403   7.708   2.250  0.0453 -0.6536 -0.6182
35422SOL    HW112358  10.338   7.671   2.309 -1.6735  0.3852 -1.7537
35422SOL    HW212359  10.474   7.644   2.247 -0.2909 -1.1861  1.7210
35423SOL     OW12360   0.846   2.968   3.948 -0.3103  0.4786 -0.4445
35423SOL    HW112361   0.865   3.058   3.921 -0.8439  0.5318 -0.6440
35423SOL    HW212362   0.883   2.961   4.036  0.6494  0.5810 -0.8209
35424SOL     OW12363   2.247   3.681   9.952  0.2110  0.2668  0.5060
35424SOL    HW112364   2.190   3.756   9.970  1.2790  0.8347  1.6584
35424SOL    HW212365   2.251   3.633  10.035 -0.4251 -1.0770 -0.2036
35425SOL     OW12366   8.784   0.128   2.503 -0.3308  0.2015 -0.0314
35425SOL    HW112367   8.726   0.104   2.575  0.3739 -3.3787 -0.4858
35425SOL    HW212368   8.865   0.157   2.546 -1.1385  1.7632  0.5471
35426SOL     OW12369   4.949   9.657   1.975 -0.3509 -0.1254  0.0191
35426SOL    HW112370   4.969   9.706   1.895  0.1562 -1.2853 -0.5956
35426SOL    HW212371   4.854   9.648   1.974 -0.4843  1.0801  0.3050
35427SOL     OW12372   3.731   9.467   1.155  0.1210 -0.9466 -0.1032
35427SOL    HW112373   3.715   9.462   1.250 -0.3763 -0.1629 -0.1407
35427SOL    HW212374   3.748   9.376   1.130  0.8693 -1.0827  0.8369
35428SOL     OW12375   6.804  10.136   6.860  0.0252 -0.2234  0.3452
35428SOL    HW112376   6.871  10.094   6.807  1.0478  1.2790  0.3921
35428SOL    HW212377   6.748  10.064   6.889  0.0833 -1.2043 -1.8240
35429SOL     OW12378   9.033   6.232   8.254 -0.0647  0.0274 -0.6034
35429SOL    HW112379   8.996   6.203   8.171 -0.5244 -1.4953  0.0889
35429SOL    HW212380   9.005   6.323   8.263 -0.3114  0.1041 -1.9269
35430SOL     OW12381   6.993  10.113   1.816 -0.0183  0.0173  0.4713
35430SOL    HW112382   6.898  10.120   1.812 -0.0682 -1.0653 -0.9026
35430SOL    HW212383   7.023  10.144   1.730  0.8485  0.0855  0.7883
35431SOL     OW12384   6.645  10.720   6.138  0.5606  0.3550 -0.4743
35431SOL    HW112385   6.638  10.696   6.230  0.9744 -0.2959 -0.6110
35431SOL    HW212386   6.628  10.815   6.137  0.0680  0.2773  0.2034
35432SOL     OW12387   0.690   1.484   3.798 -0.3741 -0.2753 -0.4622
35432SOL    HW112388   0.597   1.496   3.776  0.2974  0.8884 -3.1330
35432SOL    HW212389   0.734   1.481   3.713  2.3267  1.7880  0.7267
35433SOL     OW12390   0.829  10.400   2.808  0.0255 -0.4989  0.2017
35433SOL    HW112391   0.851  10.319   2.761  1.6697  0.8400 -1.4753
35433SOL    HW212392   0.910  10.450   2.808 -1.6035  2.3590 -1.3154
35434SOL     OW12393   6.343   6.748   9.278 -0.3391 -0.3938 -0.0090
35434SOL    HW112394   6.367   6.676   9.337  0.0367  0.2884  0.6954
35434SOL    HW212395   6.403   6.819   9.302 -0.2298 -0.0735 -1.1714
35435SOL     OW12396   9.043   4.671   7.548 -0.3494  0.2582 -0.2597
35435SOL    HW112397   9.089   4.746   7.585 -0.2921 -0.2092  0.6400
35435SOL    HW212398   9.017   4.619   7.624  1.5031 -1.7617 -0.9208
35436SOL     OW12399   5.751   0.631   5.464 -0.4317 -0.2805 -0.1521
35436SOL    HW112400   5.814   0.685   5.511 -0.1878 -1.0853  0.4562
35436SOL    HW212401   5.665   0.657   5.499 -0.2667 -0.7453  0.6188
35437SOL     OW12402   2.511   9.211  10.123 -0.9346  0.6908  0.2677
35437SOL    HW112403   2.429   9.199  10.074 -1.4772  0.7720  1.1453
35437SOL    HW212404   2.519   9.305  10.135 -0.2055  0.7608 -0.6470
35438SOL     OW12405   7.290  10.410   6.274  0.2881  0.6267  0.1231
35438SOL    HW112406   7.381  10.387   6.292  0.3123  0.3419 -0.3347
35438SOL    HW212407   7.279  10.389   6.181 -0.4286  0.0323  0.3317
35439SOL     OW12408   9.942   7.849   6.230  0.3679 -0.1400 -0.5646
35439SOL    HW112409   9.937   7.944   6.241  1.2662  0.0171 -1.3613
35439SOL    HW212410   9.977   7.817   6.313  0.4548  0.2657 -0.4420
35440SOL     OW12411   3.254   2.981   9.213  0.0811  0.5098 -0.2385
35440SOL    HW112412   3.224   3.071   9.195 -0.0370  0.2207 -1.6252
35440SOL    HW212413   3.275   2.946   9.126  2.7275  0.0850  0.4929
35441SOL     OW12414   4.722   6.417   8.098 -0.0183  0.3555 -0.0491
35441SOL    HW112415   4.628   6.432   8.098 -0.1167 -0.2083 -0.1427
35441SOL    HW212416   4.732   6.332   8.053  0.6212  0.9791 -1.1250
35442SOL     OW12417  10.272   2.881   3.440 -0.5185 -0.3583  0.8021
35442SOL    HW112418  10.304   2.865   3.351 -1.9435 -0.6901  0.3106
35442SOL    HW212419  10.336   2.940   3.479 -1.2915  2.2186 -1.4596
35443SOL     OW12420   0.256   1.394   1.548 -0.6222  0.0931 -0.2576
35443SOL    HW112421   0.162   1.389   1.563 -0.3714 -1.6242  0.9756
35443SOL    HW212422   0.279   1.311   1.506  0.6134 -0.3349  1.1863
35444SOL     OW12423   2.868   9.141   4.777  0.2357 -0.0986  0.2824
35444SOL    HW112424   2.928   9.067   4.762  0.8168  0.2396  0.8880
35444SOL    HW212425   2.781   9.103   4.767  0.4478 -1.3175  2.3825
35445SOL     OW12426   1.836   7.198   0.721 -0.0684  0.3229  0.1922
35445SOL    HW112427   1.916   7.248   0.707 -0.2454 -0.0516 -2.5352
35445SOL    HW212428   1.854   7.113   0.682 -2.1760  0.6247 -1.6022
35446SOL     OW12429   1.049  10.786   9.932 -0.0646  0.1880  0.4994
35446SOL    HW112430   1.139  10.788   9.898 -1.1576 -0.6660 -2.8448
35446SOL    HW212431   1.013  10.871   9.907 -1.1004 -0.7181 -1.2881
35447SOL     OW12432   3.187   3.541   7.733  0.3047  0.5305  0.2985
35447SOL    HW112433   3.261   3.570   7.787  0.8691  1.5001 -0.9495
35447SOL    HW212434   3.130   3.618   7.727 -1.0028 -0.3089  1.5265
35448SOL     OW12435   8.745   0.332   3.627 -0.2840 -0.0881 -0.2579
35448SOL    HW112436   8.836   0.353   3.650  0.3636 -2.1270 -0.7498
35448SOL    HW212437   8.738   0.237   3.642 -1.6792 -0.3721 -2.3143
35449SOL     OW12438   6.857   1.649   1.019 -0.1185  0.2657 -0.2602
35449SOL    HW112439   6.775   1.607   0.995  1.0578 -2.6005  0.3176
35449SOL    HW212440   6.918   1.625   0.949  1.2356 -1.2144  1.3472
35450SOL     OW12441   1.191   4.307   9.702 -0.2917  0.0848 -0.2976
35450SOL    HW112442   1.125   4.365   9.740  0.0493 -0.7889  1.7831
35450SOL    HW212443   1.150   4.221   9.701  0.5956 -0.3716  0.5176
35451SOL     OW12444   2.103   8.140   1.966  0.5125  0.1510 -0.1858
35451SOL    HW112445   2.073   8.131   2.057 -1.0671  0.4339 -0.6536
35451SOL    HW212446   2.121   8.050   1.938 -0.5502 -0.1127 -0.0757
35452SOL     OW12447  10.287   4.605   6.036 -0.8796  0.2669  0.4831
35452SOL    HW112448  10.285   4.692   5.996 -0.0311  0.1952  0.2666
35452SOL    HW212449  10.277   4.544   5.963 -0.8627  0.1706  0.5598
35453SOL     OW12450   2.346   4.788  10.243  0.4475  0.5959  0.5043
35453SOL    HW112451   2.358   4.805  10.337 -0.6854  0.9470  0.6049
35453SOL    HW212452   2.251   4.778  10.233  0.6342 -0.2885 -0.4736
35454SOL     OW12453   6.420   5.666   5.426 -0.0940 -0.1357  0.0432
35454SOL    HW112454   6.419   5.712   5.343 -0.5711 -0.8175 -0.3382
35454SOL    HW212455   6.492   5.705   5.475 -0.0171  0.4882 -0.5644
35455SOL     OW12456   7.246   7.807  10.823  0.2629  0.2748 -0.5981
35455SOL    HW112457   7.242   7.742  10.753 -0.9429  0.7089 -0.9561
35455SOL    HW212458   7.202   7.765  10.897 -0.2527  0.5632 -0.7375
35456SOL     OW12459   9.204  10.898   8.363  0.2834  0.7483 -0.6416
35456SOL    HW112460   9.285  10.948   8.368  0.5041  0.2973  0.5596
35456SOL    HW212461   9.232  10.808   8.347  0.0086  0.6117 -0.3522
35457SOL     OW12462   4.850   2.863   5.049 -0.2973  0.6340  0.2924
35457SOL    HW112463   4.763   2.839   5.078 -1.5158  3.6549 -0.4743
35457SOL    HW212464   4.866   2.807   4.973 -0.6910 -1.2788  1.5489
35458SOL     OW12465  10.568   4.616  10.159 -0.0786 -0.0430  0.2193
35458SOL    HW112466  10.657   4.581  10.163 -0.2912 -0.6470 -0.2011
35458SOL    HW212467  10.515   4.553  10.207 -0.4224 -0.1649 -0.3087
35459SOL     OW12468   3.722   8.303   3.738 -0.5490 -0.3097  0.2369
35459SOL    HW112469   3.808   8.332   3.709 -1.3275  2.4585  0.4809
35459SOL    HW212470   3.728   8.302   3.833 -0.6695 -0.6138  0.2445
35460SOL     OW12471  10.322   7.248   7.381  0.0567 -0.1007 -0.0139
35460SOL    HW112472  10.245   7.202   7.415  0.6714 -1.2813 -0.1663
35460SOL    HW212473  10.364   7.285   7.459 -1.2081  1.4937 -0.0241
35461SOL     OW12474   3.218   5.677   1.495  0.4771 -0.2406 -0.2605
35461SOL    HW112475   3.260   5.597   1.526  0.4491 -0.4206 -0.6863
35461SOL    HW212476   3.213   5.733   1.573  0.6563 -0.5818 -0.0017
35462SOL     OW12477   6.202   4.257   4.637 -0.1746  0.2734 -0.0204
35462SOL    HW112478   6.118   4.215   4.655 -0.8787  1.8028  0.4226
35462SOL    HW212479   6.241   4.269   4.723  0.5085 -0.3962 -0.2222
35463SOL     OW12480   4.835   0.766   4.369  0.0626  0.4556  0.4515
35463SOL    HW112481   4.910   0.822   4.351 -0.5768  0.9288 -0.8551
35463SOL    HW212482   4.851   0.686   4.319 -0.3582  0.6048  0.0756
35464SOL     OW12483   5.574   6.000   1.329  0.1529 -0.3303  0.5548
35464SOL    HW112484   5.488   6.042   1.324 -0.4557 -1.5772  0.1934
35464SOL    HW212485   5.620   6.048   1.398 -0.7720  0.4548  0.6484
35465SOL     OW12486   9.909   6.011   8.787 -0.2406 -0.2105  0.1528
35465SOL    HW112487   9.921   6.052   8.701 -0.0733  2.2747  1.2519
35465SOL    HW212488   9.960   5.930   8.783 -1.4214 -0.9121 -2.5180
35466SOL     OW12489   6.654   1.002   1.054 -0.0257  0.4708 -0.0738
35466SOL    HW112490   6.691   1.086   1.082  1.3727 -0.8963  2.6280
35466SOL    HW212491   6.599   1.023   0.979  0.5892  3.7174  0.2549
35467SOL     OW12492   6.740   6.351   6.748  0.1474 -0.2305 -0.5400
35467SOL    HW112493   6.704   6.344   6.660  1.6338 -0.2127 -1.1764
35467SOL    HW212494   6.772   6.263   6.768  2.7698  0.4315 -1.3848
35468SOL     OW12495   0.891   7.666  10.311  0.1474 -0.4097 -0.3917
35468SOL    HW112496   0.883   7.581  10.269  0.9430 -1.0711  0.7555
35468SOL    HW212497   0.886   7.729  10.238 -0.4233 -1.4167 -1.2484
35469SOL     OW12498   0.389   0.711   4.039  0.4525  0.3079  0.1149
35469SOL    HW112499   0.361   0.781   4.098 -1.3173  1.2471 -1.7586
35469SOL    HW212500   0.485   0.714   4.043  0.3989  1.4370  1.6239
35470SOL     OW12501   5.149   7.410   1.065 -0.2506 -0.2390  0.3126
35470SOL    HW112502   5.069   7.460   1.049 -0.6279  0.0878  2.8422
35470SOL    HW212503   5.218   7.476   1.066  0.1986 -0.5685 -2.2896
35471SOL     OW12504   1.110   7.890   9.795  0.5079 -0.5044 -0.0843
35471SOL    HW112505   1.047   7.853   9.733  0.6662  0.3725 -0.7865
35471SOL    HW212506   1.065   7.966   9.832  2.4736  2.7190 -3.6274
35472SOL     OW12507   1.927   2.088   5.938 -0.3850  0.5546  0.2780
35472SOL    HW112508   1.957   1.997   5.946 -2.1025 -0.0089  0.6909
35472SOL    HW212509   2.008   2.139   5.934  0.6473 -1.0574 -1.0992
35473SOL     OW12510   6.838   3.065   8.534  0.3686 -0.2049 -0.4104
35473SOL    HW112511   6.860   2.972   8.529  0.9299 -0.0756 -0.3256
35473SOL    HW212512   6.913   3.106   8.576  0.3166  0.3591 -0.8519
35474SOL     OW12513   3.971   1.532   1.171 -0.0545  0.3265 -0.0077
35474SOL    HW112514   3.963   1.552   1.077 -0.6524 -0.7441 -0.2010
35474SOL    HW212515   3.890   1.486   1.192  1.5925 -2.7750  0.1483
35475SOL     OW12516   3.177  10.063   9.561  0.3964 -0.4261  0.4062
35475SOL    HW112517   3.190  10.007   9.485 -0.7919 -0.1543 -0.0126
35475SOL    HW212518   3.258  10.053   9.612  0.8904 -1.2026 -0.4959
35476SOL     OW12519   0.288   2.666   7.883  0.5790 -0.0897 -0.1851
35476SOL    HW112520   0.370   2.623   7.906  2.5990  1.9905 -2.8935
35476SOL    HW212521   0.278   2.736   7.946  1.3365  0.1302 -0.3038
35477SOL     OW12522   7.905   3.194   7.533  0.0211  0.1135 -0.3499
35477SOL    HW112523   7.974   3.252   7.564 -0.0779  0.4571 -0.7636
35477SOL    HW212524   7.835   3.202   7.597  0.2314  0.0223 -0.1085
35478SOL     OW12525   1.604   7.774   3.667 -0.0273  0.0714 -0.6634
35478SOL    HW112526   1.689   7.739   3.641  1.2649  2.7299 -0.3601
35478SOL    HW212527   1.598   7.859   3.623 -2.3390  0.1682 -0.3012
35479SOL     OW12528   4.110   6.516   7.786  0.0869  0.4456  0.3249
35479SOL    HW112529   4.042   6.509   7.853  0.7968  0.2467  1.0321
35479SOL    HW212530   4.161   6.593   7.811 -0.9490  1.7136 -1.2310
35480SOL     OW12531   2.883   4.207   4.009 -0.5483 -0.0125  0.4224
35480SOL    HW112532   2.899   4.289   4.055  0.2872 -0.9052  1.8034
35480SOL    HW212533   2.894   4.228   3.916  2.4003  0.8771  0.8872
35481SOL     OW12534   0.193  10.850   8.978  0.4111  0.6367 -0.1561
35481SOL    HW112535   0.268  10.793   8.962  0.6667  0.9673 -0.1334
35481SOL    HW212536   0.149  10.811   9.054 -0.7873 -0.9218 -1.5516
35482SOL     OW12537   8.032   7.307   7.015 -0.5002  0.4100 -0.1191
35482SOL    HW112538   8.103   7.288   7.076 -1.3568  2.1576  1.5208
35482SOL    HW212539   8.071   7.367   6.951 -0.2716  0.6887  0.2777
35483SOL     OW12540   7.018   0.892   1.565 -0.6489 -0.2531 -0.0042
35483SOL    HW112541   6.934   0.887   1.611 -0.5126  1.1241  0.4683
35483SOL    HW212542   7.042   0.801   1.547 -1.2358 -0.7911  1.7119
35484SOL     OW12543   0.163  10.678   1.201 -0.6168 -0.1546  0.4922
35484SOL    HW112544   0.226  10.735   1.156 -1.3945  0.0748 -0.3518
35484SOL    HW212545   0.117  10.633   1.130 -2.0765  0.4207  1.0345
35485SOL     OW12546   5.431   0.619   7.548 -0.0910 -0.3915 -0.8270
35485SOL    HW112547   5.437   0.703   7.503  0.2291 -0.5094 -1.0187
35485SOL    HW212548   5.338   0.602   7.558 -0.1724 -0.4663 -1.6610
35486SOL     OW12549   4.851   2.652   4.069  0.2293  0.2662  0.0541
35486SOL    HW112550   4.766   2.671   4.107  1.0773  2.3128  1.0667
35486SOL    HW212551   4.891   2.589   4.129  1.2415  2.8703  2.3012
35487SOL     OW12552   0.582  10.828   2.916 -0.2429 -0.4244 -0.5571
35487SOL    HW112553   0.489  10.848   2.905  0.0640  0.0429 -2.6658
35487SOL    HW212554   0.628  10.901   2.876  1.0604 -0.6862  0.3869
35488SOL     OW12555   4.919   7.648   0.350 -0.7786  0.0680  0.2605
35488SOL    HW112556   4.947   7.630   0.440  2.5430 -2.9624 -1.1165
35488SOL    HW212557   4.902   7.742   0.348  3.6505  1.2249  3.0821
35489SOL     OW12558   2.247   0.808   1.257  0.3734 -0.7860 -0.1379
35489SOL    HW112559   2.305   0.738   1.226  2.0423 -0.4226  1.9340
35489SOL    HW212560   2.272   0.821   1.348 -2.2688  0.1967  0.5174
35490SOL     OW12561   4.220   4.457   2.914  0.0074 -0.2698 -0.0996
35490SOL    HW112562   4.195   4.545   2.888 -0.6751 -0.4949 -0.2386
35490SOL    HW212563   4.154   4.400   2.874  0.1037 -0.7930  0.4573
35491SOL     OW12564   8.709   6.862  10.146 -0.2248  0.8108 -0.4064
35491SOL    HW112565   8.798   6.886  10.173 -0.4669  0.7355  0.5077
35491SOL    HW212566   8.712   6.768  10.132 -0.9136  0.1212  3.0335
35492SOL     OW12567   2.110   4.465   2.374 -0.2240 -0.5028  0.1212
35492SOL    HW112568   2.120   4.460   2.469 -1.1797 -0.1295  0.2570
35492SOL    HW212569   2.075   4.379   2.349 -1.6449 -0.0263  0.3599
35493SOL     OW12570   8.123   0.236   9.491  0.2583 -0.2760  0.0108
35493SOL    HW112571   8.028   0.227   9.498  0.3023 -0.1396  0.9334
35493SOL    HW212572   8.153   0.241   9.582  1.1518 -0.3577 -0.2735
35494SOL     OW12573   3.422   9.854   2.865  0.2700  0.3351 -0.2399
35494SOL    HW112574   3.426   9.804   2.783  0.8067  0.0202 -0.0272
35494SOL    HW212575   3.360   9.805   2.919  1.0325 -0.2920  0.0847
35495SOL     OW12576   8.383   9.850   9.933 -0.1830 -0.6759  0.3685
35495SOL    HW112577   8.373   9.778   9.995 -0.2660  0.4753  1.7222
35495SOL    HW212578   8.298   9.895   9.935 -0.1560 -0.5724 -0.5185
35496SOL     OW12579   5.197   3.345   0.713 -0.1026  0.1840  0.4642
35496SOL    HW112580   5.158   3.276   0.767  1.3947  0.7701  2.4282
35496SOL    HW212581   5.181   3.426   0.762  0.8781  0.8175 -0.2153
35497SOL     OW12582   7.444   7.429   8.027 -0.3065  0.1633 -0.1681
35497SOL    HW112583   7.481   7.517   8.028 -0.3278  0.1922 -1.1234
35497SOL    HW212584   7.519   7.371   8.017 -0.3759  0.1374 -0.5646
35498SOL     OW12585   6.898   3.799   9.610 -0.0656  0.3722  0.4841
35498SOL    HW112586   6.933   3.713   9.584 -1.0029  0.2261 -0.3040
35498SOL    HW212587   6.804   3.785   9.620 -0.2075  1.2837  0.4887
35499SOL     OW12588   8.318   9.413   4.410 -0.1411  0.3597  0.0398
35499SOL    HW112589   8.288   9.368   4.489  0.8363 -2.0310 -0.8711
35499SOL    HW212590   8.279   9.364   4.338 -1.0943  2.5575 -1.0314
35500SOL     OW12591   9.731   5.641   8.602  0.7801 -0.3708  0.4044
35500SOL    HW112592   9.826   5.653   8.606  0.9214 -0.7411 -1.0551
35500SOL    HW212593   9.708   5.668   8.513 -0.6823  0.9172  1.1402
35501SOL     OW12594   2.942   0.772   5.703  0.5135 -0.6535 -0.5281
35501SOL    HW112595   2.972   0.691   5.663 -0.6062 -0.8019 -1.1104
35501SOL    HW212596   2.885   0.812   5.638  0.9531  0.5554 -0.2021
35502SOL     OW12597   3.465   8.197   5.494  0.3557  0.0918  0.2575
35502SOL    HW112598   3.403   8.197   5.567 -1.1085 -3.0252 -0.8082
35502SOL    HW212599   3.426   8.255   5.429 -1.6498 -1.8765 -0.4322
35503SOL     OW12600   5.558   9.987   1.063 -0.5166  0.8411 -0.0697
35503SOL    HW112601   5.567  10.014   0.972  0.8188  0.8831  0.0541
35503SOL    HW212602   5.644  10.004   1.102 -0.5170 -0.7980  0.7577
35504SOL     OW12603   4.300  10.010   3.541 -0.4053  0.4299 -0.2237
35504SOL    HW112604   4.358  10.086   3.548 -1.3930  1.1070  1.1970
35504SOL    HW212605   4.299   9.973   3.629  1.7471 -2.6083 -1.3157
35505SOL     OW12606   9.086   8.289   1.644 -0.0356  0.0967  1.3125
35505SOL    HW112607   9.135   8.329   1.716  1.0067  1.3479 -0.0508
35505SOL    HW212608   9.133   8.207   1.627  2.2787  1.6599 -0.5364
35506SOL     OW12609   6.825   9.498   9.120 -0.4564  0.0624 -0.1555
35506SOL    HW112610   6.735   9.509   9.150  0.1676  2.0712  1.1701
35506SOL    HW212611   6.860   9.427   9.174 -0.6547  0.6866  0.8152
35507SOL     OW12612   2.524   8.626   9.293 -0.4641  0.1091  0.1116
35507SOL    HW112613   2.445   8.600   9.340 -0.6414  0.4990  0.0347
35507SOL    HW212614   2.527   8.721   9.301 -1.1710  0.3157 -1.6978
35508SOL     OW12615   2.998   1.140   6.956  0.0431  0.1843  0.4340
35508SOL    HW112616   2.991   1.220   7.007 -0.8453  0.3239  0.1115
35508SOL    HW212617   2.951   1.159   6.875 -1.4018 -1.0999  0.9187
35509SOL     OW12618   3.152   7.601   6.737 -0.2384 -0.0946 -0.4259
35509SOL    HW112619   3.181   7.526   6.684 -0.1669  0.0086 -0.5328
35509SOL    HW212620   3.059   7.583   6.754 -0.3213 -0.0228 -0.7754
35510SOL     OW12621   1.385   3.365   0.870  0.3399  0.1372  0.3623
35510SOL    HW112622   1.366   3.459   0.868  2.7257  0.6958 -0.0434
35510SOL    HW212623   1.443   3.352   0.794  0.3990 -1.5709  0.6780
35511SOL     OW12624   6.107   2.087   3.189  0.0733  0.1592  0.2216
35511SOL    HW112625   6.167   2.122   3.124 -0.6048  2.1521  0.5760
35511SOL    HW212626   6.112   2.149   3.262 -1.5494 -0.2480  0.7245
35512SOL     OW12627   6.335   2.872   9.225  0.6759  0.5063  0.1869
35512SOL    HW112628   6.293   2.917   9.152  0.2610 -0.7566 -0.3780
35512SOL    HW212629   6.303   2.916   9.303  1.1696  1.9173 -0.3758
35513SOL     OW12630   9.159   6.641   4.207  0.3498 -0.3384 -0.4421
35513SOL    HW112631   9.246   6.606   4.228 -0.3325 -2.3665 -0.7245
35513SOL    HW212632   9.176   6.713   4.147  1.8062 -1.9424 -2.0742
35514SOL     OW12633  10.401   4.325  10.800  0.2025 -0.2574  0.2361
35514SOL    HW112634  10.491   4.293  10.792 -0.0125 -0.7306 -0.3784
35514SOL    HW212635  10.410   4.418  10.822  0.8430 -0.0738 -0.7276
35515SOL     OW12636   6.709   9.056   3.353  0.0209  0.2120 -0.4431
35515SOL    HW112637   6.796   9.050   3.391  1.2838  1.7617 -2.8382
35515SOL    HW212638   6.657   8.993   3.402  2.2352 -0.1196  1.6648
35516SOL     OW12639   4.172   4.194   1.301 -0.0101  0.3713 -0.0632
35516SOL    HW112640   4.138   4.167   1.387 -0.2333 -1.5087 -0.6886
35516SOL    HW212641   4.252   4.242   1.321 -0.1637  0.1484  1.2071
35517SOL     OW12642   6.839   4.670   6.302 -0.2066 -0.3652  0.7239
35517SOL    HW112643   6.775   4.737   6.325  1.9410  2.2971 -0.5625
35517SOL    HW212644   6.901   4.670   6.375  1.2180  1.0139 -0.4248
35518SOL     OW12645   2.146   5.160   8.392  0.6066 -0.5801 -0.4133
35518SOL    HW112646   2.074   5.208   8.432  1.5050  1.0060 -0.6279
35518SOL    HW212647   2.129   5.164   8.298  0.9149 -0.3004 -0.4579
35519SOL     OW12648   5.158   1.147   8.104 -0.5101 -0.1148  0.1941
35519SOL    HW112649   5.227   1.170   8.166  0.3553 -3.2316  0.5571
35519SOL    HW212650   5.139   1.229   8.058  0.7946  1.6774  2.6067
35520SOL     OW12651  10.320   3.217   9.177  0.4374  0.0376  0.2061
35520SOL    HW112652  10.383   3.163   9.129  0.0991 -0.3212  0.1574
35520SOL    HW212653  10.245   3.225   9.117  1.1763  2.0633 -0.5302
35521SOL     OW12654   5.138   8.572   9.110 -0.2049  0.9107  0.0188
35521SOL    HW112655   5.168   8.535   9.193  2.6656 -0.6851 -1.5922
35521SOL    HW212656   5.178   8.660   9.108 -0.3276  0.9766  0.3222
35522SOL     OW12657   9.267  10.808   8.887  0.5136  0.6287  0.0881
35522SOL    HW112658   9.189  10.758   8.860 -0.0507  1.3048  0.4323
35522SOL    HW212659   9.336  10.742   8.893  0.6837  0.3668 -2.8809
35523SOL     OW12660   6.553   5.733   9.904  0.4801  0.4082  0.0440
35523SOL    HW112661   6.482   5.688   9.857 -0.8662  2.1112  0.3625
35523SOL    HW212662   6.632   5.710   9.855 -0.8238  2.0625 -3.1405
35524SOL     OW12663  10.128   4.700  10.122 -0.0179  0.1602  0.2169
35524SOL    HW112664  10.207   4.661  10.160  0.2333  0.5123  0.0576
35524SOL    HW212665  10.153   4.723  10.033 -1.0910 -2.2244 -0.7839
35525SOL     OW12666   7.295   5.242   6.522  0.1503  0.2619 -0.4810
35525SOL    HW112667   7.305   5.316   6.582 -2.1784 -0.2853  0.6807
35525SOL    HW212668   7.249   5.278   6.446 -0.7408  0.0806 -0.0344
35526SOL     OW12669   2.042   0.174   7.678 -0.3768 -0.5297 -0.3079
35526SOL    HW112670   2.088   0.115   7.619  0.7836 -1.5141  1.4932
35526SOL    HW212671   2.107   0.240   7.702 -0.6290 -0.5082  0.3375
35527SOL     OW12672   6.526   8.503   8.659  0.4174  0.0086  0.2744
35527SOL    HW112673   6.592   8.536   8.720  0.1939  0.4620  0.2761
35527SOL    HW212674   6.449   8.558   8.675  0.2762 -0.0364 -0.2358
35528SOL     OW12675   6.718   6.001   2.673 -0.2418 -0.4442  0.2441
35528SOL    HW112676   6.719   5.914   2.632 -0.3130 -0.2840 -0.1039
35528SOL    HW212677   6.626   6.027   2.671 -0.2848 -0.5557  0.7694
35529SOL     OW12678  10.315   9.849   5.914  0.3662  0.4579 -0.0903
35529SOL    HW112679  10.336   9.836   5.821  0.2348  0.0327 -0.0642
35529SOL    HW212680  10.257   9.776   5.935 -0.7673  1.3377 -0.0495
35530SOL     OW12681  10.860   4.101   7.108 -0.0569  0.0292  0.5122
35530SOL    HW112682  10.923   4.164   7.071 -1.0591  0.9046  0.2307
35530SOL    HW212683  10.885   4.017   7.069 -1.2713  0.9446 -2.6073
35531SOL     OW12684   6.860   6.878   1.199  0.4961 -0.5674  0.7418
35531SOL    HW112685   6.939   6.836   1.166  0.6007 -0.2857  0.6345
35531SOL    HW212686   6.852   6.959   1.148 -0.9226 -1.5072 -0.6205
35532SOL     OW12687   4.369   7.921   7.382 -0.5885  0.3298 -0.0269
35532SOL    HW112688   4.335   7.902   7.294 -0.4969  1.6002 -0.3649
35532SOL    HW212689   4.455   7.879   7.384 -1.3036 -1.1771  0.1005
35533SOL     OW12690   6.512   6.145   1.774  0.2323  0.0678  0.1169
35533SOL    HW112691   6.520   6.166   1.681  0.8656  0.7960  0.3253
35533SOL    HW212692   6.419   6.125   1.786  0.1540 -0.0849 -0.6749
35534SOL     OW12693   8.457   8.638   5.689 -0.3662  0.1765  0.3540
35534SOL    HW112694   8.388   8.630   5.624  0.1664  0.4078 -0.2429
35534SOL    HW212695   8.522   8.696   5.649 -0.3268  0.8544  1.3374
35535SOL     OW12696   2.541   7.778   4.391  0.1266 -0.8820  0.1031
35535SOL    HW112697   2.590   7.706   4.431 -1.0406 -0.7121  1.9323
35535SOL    HW212698   2.584   7.857   4.425 -0.9052 -0.7380  1.1396
35536SOL     OW12699   3.981   7.511   5.358 -0.8398  0.2760 -0.7018
35536SOL    HW112700   3.999   7.602   5.333 -0.0317  1.0332  2.1587
35536SOL    HW212701   3.999   7.460   5.279  2.9038  2.2064 -1.3459
35537SOL     OW12702  10.579   4.285   0.439  0.3921  0.2855  0.1409
35537SOL    HW112703  10.562   4.362   0.385  0.4749 -0.3429 -0.7992
35537SOL    HW212704  10.587   4.213   0.377  1.6007 -0.2746  0.9015
35538SOL     OW12705   8.614   9.135   3.801  0.1684  0.3170 -0.2868
35538SOL    HW112706   8.606   9.043   3.827 -0.3690 -0.1324 -1.9208
35538SOL    HW212707   8.524   9.167   3.800  0.1920  0.3681 -1.3671
35539SOL     OW12708   8.462   3.595   5.900  0.2235  0.7243 -0.7305
35539SOL    HW112709   8.534   3.552   5.854  1.2893 -1.2126  2.3914
35539SOL    HW212710   8.387   3.536   5.887 -0.2180  1.5239 -2.0176
35540SOL     OW12711   9.370   9.210   3.617 -0.2478 -0.0692 -0.7826
35540SOL    HW112712   9.441   9.150   3.598 -0.4907 -0.4419 -0.5231
35540SOL    HW212713   9.404   9.296   3.591  0.7531 -0.0607  0.4681
35541SOL     OW12714   3.934   5.586   3.126  0.4035 -0.3804  0.3190
35541SOL    HW112715   3.994   5.519   3.158  1.7611 -0.4454 -2.1301
35541SOL    HW212716   3.847   5.558   3.155  1.1615 -2.1573  0.9714
35542SOL     OW12717   0.970   8.774   6.065 -0.1014 -0.3749 -0.0197
35542SOL    HW112718   0.899   8.753   6.126 -0.5627  0.0131 -0.4115
35542SOL    HW212719   1.044   8.721   6.095 -0.0572  0.4405  1.3823
35543SOL     OW12720   4.824   5.749  10.656 -0.2763 -0.4395 -0.4538
35543SOL    HW112721   4.895   5.806  10.683  0.0623 -0.2771 -1.6452
35543SOL    HW212722   4.841   5.730  10.564 -1.9245 -0.1484 -0.8559
35544SOL     OW12723   2.794   2.181  10.859  0.5547 -0.4058 -0.1890
35544SOL    HW112724   2.767   2.264  10.898 -0.3540 -0.9778  0.4262
35544SOL    HW212725   2.882   2.166  10.895  1.0592  0.6419 -0.9032
35545SOL     OW12726   8.069   8.029   2.352 -0.0543  0.1233  0.1369
35545SOL    HW112727   8.135   8.022   2.283  1.2576  0.1052  1.3270
35545SOL    HW212728   7.986   8.018   2.308  0.7305  0.3283 -1.4631
35546SOL     OW12729   2.875   0.875   2.126 -0.3681  0.3556  0.1767
35546SOL    HW112730   2.935   0.943   2.097  0.3407 -0.3607 -0.0921
35546SOL    HW212731   2.838   0.840   2.045 -1.7978  1.3407  0.3715
35547SOL     OW12732   3.349   0.794   1.905 -0.2756  0.0301 -0.2579
35547SOL    HW112733   3.291   0.766   1.976  0.1988  0.1823  0.2025
35547SOL    HW212734   3.430   0.745   1.920 -0.1132  0.1917 -0.5956
35548SOL     OW12735   2.242  10.817   9.522  0.6590  0.2466 -0.1998
35548SOL    HW112736   2.226  10.726   9.547  1.9463  0.3066  0.9757
35548SOL    HW212737   2.301  10.812   9.447 -0.5324  0.1149 -1.1569
35549SOL     OW12738   6.007   7.072   4.315  0.4051 -0.3415  0.0622
35549SOL    HW112739   6.085   7.023   4.343  1.6023  2.1988  1.5215
35549SOL    HW212740   6.040   7.135   4.251 -0.3663  0.9823  0.9399
35550SOL     OW12741   6.073   9.363   2.213  0.4312  0.0542 -0.5950
35550SOL    HW112742   6.161   9.348   2.246  0.5773  2.0667  0.0922
35550SOL    HW212743   6.035   9.425   2.275 -0.5806  1.1429 -2.2308
35551SOL     OW12744   4.079   7.931   1.480 -0.3542 -0.2543  0.5177
35551SOL    HW112745   4.088   7.836   1.481 -0.8862 -0.3268 -0.2467
35551SOL    HW212746   3.985   7.946   1.483 -0.2786  0.2387  0.5012
35552SOL     OW12747   2.369   8.159   7.752 -0.2847 -0.2014 -0.4268
35552SOL    HW112748   2.424   8.104   7.696  0.5551  0.9316 -0.7654
35552SOL    HW212749   2.280   8.129   7.737 -0.1191  0.2755 -2.6559
35553SOL     OW12750  10.167   2.050   0.728  0.5701 -0.1413  0.0629
35553SOL    HW112751  10.077   2.034   0.698  0.8714 -1.0904 -0.3728
35553SOL    HW212752  10.159   2.056   0.824 -0.1206  1.0178 -0.0457
35554SOL     OW12753   6.277   8.960   4.755  0.5142 -0.4401 -0.4021
35554SOL    HW112754   6.366   8.995   4.751 -0.1879  1.3510 -1.6121
35554SOL    HW212755   6.221   9.037   4.746 -1.2387 -1.2544  2.2466
35555SOL     OW12756   9.147  10.519   3.980  0.4660  0.0125  0.0917
35555SOL    HW112757   9.172  10.532   4.072 -0.3749 -0.1385  0.3520
35555SOL    HW212758   9.230  10.511   3.933  0.9045  0.1512  0.8311
35556SOL     OW12759   0.004   3.158   6.336 -0.2328  0.8011  0.3225
35556SOL    HW112760   0.093   3.135   6.363  0.0444 -0.1915 -1.3013
35556SOL    HW212761  -0.049   3.084   6.364 -0.0340  0.0260 -1.2308
35557SOL     OW12762   0.706   8.843   5.307 -0.1080  0.3839 -0.5834
35557SOL    HW112763   0.677   8.773   5.249 -0.5656  0.7030 -0.7441
35557SOL    HW212764   0.771   8.891   5.255 -0.2986  0.4907 -0.7253
35558SOL     OW12765  10.830   3.663  10.049  0.5273 -0.5760 -0.4721
35558SOL    HW112766  10.757   3.652   9.986  1.4864 -2.1062 -1.3796
35558SOL    HW212767  10.822   3.587  10.107  0.1210  0.4236  0.8098
35559SOL     OW12768   1.747   0.967   8.739  0.2227 -0.0578  0.0971
35559SOL    HW112769   1.746   0.951   8.834  1.8612  1.4355  0.4141
35559SOL    HW212770   1.689   1.041   8.727  0.7782  0.3820  0.0852
35560SOL     OW12771   5.837   3.587   0.621  0.6729 -0.9257 -0.1514
35560SOL    HW112772   5.778   3.515   0.602  1.1880 -0.9670 -1.7700
35560SOL    HW212773   5.897   3.590   0.546  2.4124 -0.5616  1.1676
35561SOL     OW12774   5.345   1.206   1.196 -0.1159  0.1638  0.9978
35561SOL    HW112775   5.394   1.271   1.248 -0.4714 -0.1153  1.6989
35561SOL    HW212776   5.324   1.137   1.259  0.3596 -0.6905  0.2297
35562SOL     OW12777   9.085   7.787  10.273  0.4019  0.0182  0.5778
35562SOL    HW112778   9.110   7.727  10.344 -1.0898  1.0994  2.0854
35562SOL    HW212779   9.108   7.874  10.307 -1.1140  0.6199  0.1032
35563SOL     OW12780   8.315   2.577   1.351 -0.3150  0.0586  0.1841
35563SOL    HW112781   8.263   2.510   1.306  0.0418  0.6945 -1.2542
35563SOL    HW212782   8.259   2.608   1.422 -1.9413  0.7362 -1.3210
35564SOL     OW12783   0.055   1.513   0.869 -0.7466  0.5760  0.6071
35564SOL    HW112784  -0.013   1.523   0.803 -0.1311 -1.2314 -0.3659
35564SOL    HW212785   0.028   1.436   0.920  1.5344 -1.5324 -1.1480
35565SOL     OW12786   3.747   8.427   2.617 -0.1294 -0.2291 -0.3091
35565SOL    HW112787   3.664   8.473   2.624 -0.2612 -0.1715 -1.8067
35565SOL    HW212788   3.780   8.421   2.706 -1.3368  0.4901  0.2000
35566SOL     OW12789   0.495   9.497   3.830  0.4533  0.5233 -0.2647
35566SOL    HW112790   0.473   9.471   3.920 -1.9107 -0.9115 -1.1829
35566SOL    HW212791   0.588   9.520   3.834  0.8824 -1.2874  2.1613
35567SOL     OW12792  10.561   0.221   7.592  0.0190 -0.1811  0.4493
35567SOL    HW112793  10.561   0.283   7.666 -0.6882 -0.5249  0.7495
35567SOL    HW212794  10.471   0.222   7.561  0.1582 -0.5727  0.0365
35568SOL     OW12795   5.568   0.410   7.186  0.2649  0.3220 -0.0994
35568SOL    HW112796   5.627   0.340   7.158 -0.0426 -0.1315  0.3631
35568SOL    HW212797   5.488   0.395   7.136  0.7790  1.3815 -1.2844
35569SOL     OW12798   5.600   1.235   3.901  0.0628  0.0168 -0.0434
35569SOL    HW112799   5.661   1.211   3.831 -0.6550  1.0547 -1.0572
35569SOL    HW212800   5.522   1.267   3.856 -0.3726  0.8379  1.2268
35570SOL     OW12801   9.597   5.359   0.250  0.2428  0.0702 -0.2122
35570SOL    HW112802   9.625   5.450   0.257 -0.5764  0.4404 -1.3791
35570SOL    HW212803   9.550   5.342   0.332 -1.0081  1.2367 -0.6257
35571SOL     OW12804   4.535   4.758   7.312 -0.4505  0.4295 -0.2617
35571SOL    HW112805   4.538   4.676   7.360 -1.3264 -0.6597 -1.9550
35571SOL    HW212806   4.598   4.814   7.356  1.3360 -1.6712  0.0225
35572SOL     OW12807   1.556   0.064   6.773  0.5856  0.0727 -0.3411
35572SOL    HW112808   1.497   0.089   6.702  2.1401  0.6416 -1.4835
35572SOL    HW212809   1.601   0.145   6.796 -2.3955  0.8756  3.9272
35573SOL     OW12810   1.477   1.917   7.199 -0.2208 -0.1864 -0.6460
35573SOL    HW112811   1.409   1.876   7.253 -1.3145  2.4523  0.1493
35573SOL    HW212812   1.555   1.918   7.255 -0.6764  0.3517 -0.0098
35574SOL     OW12813   3.295   8.405   4.672 -0.3238 -0.4264  0.4241
35574SOL    HW112814   3.323   8.340   4.608 -0.5200 -2.1206  1.9750
35574SOL    HW212815   3.361   8.400   4.741 -1.0295  0.1369  1.1535
35575SOL     OW12816   5.367   1.601  10.722  0.2058 -0.2845  0.6250
35575SOL    HW112817   5.301   1.593  10.791 -1.5616  2.1627 -0.6116
35575SOL    HW212818   5.446   1.563  10.760 -1.8107 -3.3790  2.1939
35576SOL     OW12819   3.947   2.831   6.553 -0.1926  0.3848 -0.0004
35576SOL    HW112820   3.911   2.886   6.484 -1.2106 -0.0370  0.1824
35576SOL    HW212821   4.002   2.768   6.507 -0.7834  0.1696 -0.4174
35577SOL     OW12822   4.837  10.178   3.406 -0.6483 -0.1085 -0.4984
35577SOL    HW112823   4.907  10.113   3.413  0.9514  0.7445 -5.2073
35577SOL    HW212824   4.862  10.246   3.469  4.0197  0.9800 -3.0153
35578SOL     OW12825   1.064   0.837   9.074 -0.5691  0.1942  0.5579
35578SOL    HW112826   1.070   0.897   9.148 -2.8490  0.4459  0.6343
35578SOL    HW212827   0.996   0.774   9.100  0.3601 -1.2423 -0.3275
35579SOL     OW12828   3.622   9.243   7.344  0.2162 -0.0506  0.3551
35579SOL    HW112829   3.562   9.242   7.418  0.5290  0.4098  0.6222
35579SOL    HW212830   3.696   9.190   7.373 -0.0975 -0.7054 -0.0133
35580SOL     OW12831   8.383   7.882   3.879  0.3962 -0.1905 -0.1758
35580SOL    HW112832   8.402   7.904   3.788 -0.0872 -2.8099 -1.0033
35580SOL    HW212833   8.424   7.796   3.892 -1.8062 -1.1146  1.2333
35581SOL     OW12834   8.752   4.608  10.371 -0.0180  0.7546 -0.1469
35581SOL    HW112835   8.661   4.588  10.392  0.6924 -1.0188  1.4555
35581SOL    HW212836   8.790   4.640  10.453  0.7096  1.9337 -0.9082
35582SOL     OW12837   5.953   6.787   0.751 -0.3383  0.1269  0.2391
35582SOL    HW112838   5.977   6.806   0.660 -0.0168 -1.7546 -0.1014
35582SOL    HW212839   5.859   6.806   0.755 -0.0879  1.5841 -0.0781
35583SOL     OW12840   5.518   1.690   2.533 -0.1154 -0.0726  0.1563
35583SOL    HW112841   5.540   1.781   2.513  0.5393 -0.3936 -0.6648
35583SOL    HW212842   5.520   1.646   2.448 -2.1273 -0.5275  0.3022
35584SOL     OW12843   6.062  10.597   8.480  0.2043 -1.2362 -0.0970
35584SOL    HW112844   5.974  10.622   8.510  0.3016 -0.9737 -0.0372
35584SOL    HW212845   6.111  10.582   8.561  0.4508 -0.5859 -0.1220
35585SOL     OW12846   9.412   2.308   4.026 -0.5165 -0.3143 -0.1283
35585SOL    HW112847   9.472   2.378   4.052 -2.0127  0.2139  2.2160
35585SOL    HW212848   9.389   2.329   3.936  1.6107  0.3076 -0.5834
35586SOL     OW12849   0.079   5.911   3.313  0.4060  0.2815  0.0800
35586SOL    HW112850  -0.011   5.937   3.295  0.2398  0.4258  1.0713
35586SOL    HW212851   0.118   5.900   3.226 -0.4572  0.5725 -0.3621
35587SOL     OW12852   8.868   1.865   1.422  0.2324  0.5109 -0.0765
35587SOL    HW112853   8.851   1.909   1.506  0.5275 -0.0856  0.2973
35587SOL    HW212854   8.781   1.841   1.390  0.2152 -0.7463  0.8655
35588SOL     OW12855   0.442   2.805  10.205  0.1699 -0.1366 -0.2922
35588SOL    HW112856   0.492   2.730  10.173  0.4077 -0.2376  0.2998
35588SOL    HW212857   0.358   2.798  10.160  1.2194  0.9936 -2.5947
35589SOL     OW12858   5.864   3.156   0.739 -0.1727  0.3554  0.3812
35589SOL    HW112859   5.871   3.067   0.775  1.0084  0.6370  0.8646
35589SOL    HW212860   5.818   3.205   0.806 -1.3666 -0.0043 -0.1358
35590SOL     OW12861  10.297   3.135   8.705  0.3917  0.5547  0.0861
35590SOL    HW112862  10.298   3.090   8.621 -1.2717  0.4162  0.1095
35590SOL    HW212863  10.388   3.161   8.719  0.5966  1.2351 -2.1110
35591SOL     OW12864   8.034   1.823   3.228  0.9629  0.4457 -0.1273
35591SOL    HW112865   8.064   1.880   3.157  3.4044 -0.0171  0.4439
35591SOL    HW212866   7.990   1.751   3.184  0.3081  1.3587 -1.0180
35592SOL     OW12867   9.262   0.980   7.549 -0.3896  0.0369 -0.3070
35592SOL    HW112868   9.276   0.888   7.573 -1.0968 -0.0433 -0.2026
35592SOL    HW212869   9.287   0.984   7.456 -0.1995 -0.2201 -0.2703
35593SOL     OW12870   9.423   5.059   6.346 -0.3206 -0.5619  0.2793
35593SOL    HW112871   9.433   4.966   6.366 -0.6469 -0.6229  0.1497
35593SOL    HW212872   9.395   5.098   6.429 -0.4039 -0.6120  0.2743
35594SOL     OW12873   7.147  10.168   0.797  0.6575 -0.2277 -0.3533
35594SOL    HW112874   7.090  10.177   0.720  0.7090 -0.0927 -0.3770
35594SOL    HW212875   7.229  10.134   0.761  0.3759 -1.0647 -0.2262
35595SOL     OW12876   1.535   1.993   8.802 -0.4184 -0.1343 -0.1229
35595SOL    HW112877   1.513   1.932   8.732 -1.3241 -1.7911  1.5095
35595SOL    HW212878   1.450   2.022   8.835 -0.0230  0.1662  0.6577
35596SOL     OW12879  10.558  10.377   6.599 -0.0124  0.1190  0.4468
35596SOL    HW112880  10.642  10.339   6.572  0.1981 -0.0636  1.3193
35596SOL    HW212881  10.517  10.309   6.652 -0.9998 -0.0189 -0.4665
35597SOL     OW12882   3.138  10.602   3.322  0.6549  0.2932  0.2905
35597SOL    HW112883   3.168  10.529   3.376 -0.3954  0.6044  1.3312
35597SOL    HW212884   3.069  10.644   3.373  1.3198  2.1183 -0.2197
35598SOL     OW12885   6.066   5.534  10.247 -0.3914  0.1123 -0.6050
35598SOL    HW112886   6.100   5.462  10.301 -0.6679 -1.8539 -2.8986
35598SOL    HW212887   6.137   5.554  10.186 -0.9337  0.6372 -1.0835
35599SOL     OW12888   7.986   2.051  10.877 -0.0738  0.2340  0.1891
35599SOL    HW112889   8.038   2.020  10.803  0.1975 -1.3918  1.0204
35599SOL    HW212890   8.028   2.013  10.954 -0.9945  0.9920  1.1043
35600SOL     OW12891   3.302   3.570   3.811  0.2373 -0.5899  0.0343
35600SOL    HW112892   3.251   3.490   3.798  1.7520 -1.3289 -1.8556
35600SOL    HW212893   3.318   3.603   3.722  1.2275  0.7861  0.6818
35601SOL     OW12894   8.875   1.091   9.005  0.3807 -0.0357 -0.1082
35601SOL    HW112895   8.870   1.000   9.035  1.3237 -0.0603  0.0152
35601SOL    HW212896   8.787   1.126   9.019  0.3896 -0.4924  1.2616
35602SOL     OW12897   2.943  10.702   9.950 -0.1503  0.5006 -0.0523
35602SOL    HW112898   2.952  10.796   9.935 -0.0711  0.5340  0.2043
35602SOL    HW212899   2.956  10.691  10.044 -2.0006  0.4519  0.2366
35603SOL     OW12900   6.650   9.581   4.936 -0.5527 -0.8432 -0.2992
35603SOL    HW112901   6.746   9.578   4.935 -0.5655 -1.0222 -0.8624
35603SOL    HW212902   6.623   9.504   4.887 -0.9650  0.4846 -2.2375
35604SOL     OW12903   1.571   8.201   5.352 -0.5340 -0.0949 -1.1213
35604SOL    HW112904   1.503   8.141   5.321 -0.4066 -1.3205  0.8040
35604SOL    HW212905   1.639   8.144   5.386 -0.8640  1.0693  1.7759
35605SOL     OW12906   6.930   0.536   5.164  0.0001  0.0250  0.4047
35605SOL    HW112907   6.958   0.627   5.153  0.7347 -0.2699 -0.2631
35605SOL    HW212908   6.860   0.525   5.100  1.9834 -0.7179 -1.8100
35606SOL     OW12909   8.039   3.473   5.690  0.1017  0.1181  0.0785
35606SOL    HW112910   8.024   3.547   5.632  1.8151 -0.0065 -0.5757
35606SOL    HW212911   7.997   3.399   5.647 -1.5649  0.6528  0.7043
35607SOL     OW12912   1.997   2.204   1.546  0.0545 -0.1522 -0.1168
35607SOL    HW112913   2.020   2.113   1.568 -1.0603  0.0372  2.0972
35607SOL    HW212914   1.979   2.245   1.630  1.4627  2.4351 -0.9983
35608SOL     OW12915   7.071   2.971   0.656  0.6517  0.0938 -0.7054
35608SOL    HW112916   7.097   3.058   0.685  0.3438  0.1170 -0.4815
35608SOL    HW212917   7.027   2.985   0.572 -0.7327  0.3486  0.0302
35609SOL     OW12918   0.089   2.206   6.840  0.6952 -0.8492  0.1853
35609SOL    HW112919   0.056   2.192   6.929  0.6294 -3.1837 -0.1358
35609SOL    HW212920   0.014   2.241   6.791  0.9733  1.3191  1.1845
35610SOL     OW12921   9.157   6.074   5.672  0.0332 -0.4513 -0.5314
35610SOL    HW112922   9.251   6.081   5.689 -0.2360  0.6243  0.6224
35610SOL    HW212923   9.141   6.134   5.599  0.0720  0.2094 -0.0030
35611SOL     OW12924   8.249   4.655  10.131 -0.1572 -0.2170  0.4220
35611SOL    HW112925   8.266   4.578  10.077 -1.4293  1.2300 -2.2257
35611SOL    HW212926   8.181   4.627  10.192  0.8468 -1.7218  0.8915
35612SOL     OW12927   5.097   7.535   7.473 -0.5950  0.0464 -0.5018
35612SOL    HW112928   5.047   7.475   7.528  0.3735 -2.9543 -2.6448
35612SOL    HW212929   5.184   7.537   7.511 -0.3663 -0.7146 -0.9756
35613SOL     OW12930   5.905   1.948   1.096  0.3566  0.3505 -0.5513
35613SOL    HW112931   5.824   1.909   1.062  0.5859  0.5316 -1.3104
35613SOL    HW212932   5.891   2.042   1.090 -0.2020  0.4209  1.2969
35614SOL     OW12933   2.449   0.964   2.089  0.1403  0.5921  0.3277
35614SOL    HW112934   2.495   0.880   2.089  1.0970  1.0972  1.1197
35614SOL    HW212935   2.366   0.946   2.133 -0.6824 -0.4441 -1.5463
35615SOL     OW12936   2.219   4.708   2.728 -0.2909 -0.0767 -0.1233
35615SOL    HW112937   2.314   4.714   2.730 -0.2960  1.8556 -1.7615
35615SOL    HW212938   2.201   4.617   2.705  1.0187 -1.0793  2.4041
35616SOL     OW12939  10.651   6.918   0.906 -0.4304  0.3019  0.2181
35616SOL    HW112940  10.558   6.938   0.914  0.0793  3.1673  0.0397
35616SOL    HW212941  10.676   6.882   0.991 -1.2688  1.6115  1.0353
35617SOL     OW12942   5.783   0.348   2.098  0.1988  0.7752  0.2416
35617SOL    HW112943   5.812   0.414   2.160 -0.6489  0.0639  1.4556
35617SOL    HW212944   5.863   0.313   2.059  0.6628  2.2535 -0.1796
35618SOL     OW12945   2.127   7.796   7.593  0.1179 -0.3697 -0.3916
35618SOL    HW112946   2.102   7.704   7.603 -0.6744 -0.0330  0.9464
35618SOL    HW212947   2.214   7.802   7.633 -0.2296 -0.3618  0.3768
35619SOL     OW12948   4.283   2.961   6.440 -0.0881  0.0024 -0.0021
35619SOL    HW112949   4.276   2.922   6.527 -0.4747  1.2333  0.5550
35619SOL    HW212950   4.241   3.047   6.450 -0.3867  0.0518 -1.4798
35620SOL     OW12951   1.231   0.207   1.354 -0.3974  0.3590 -0.0895
35620SOL    HW112952   1.183   0.160   1.286 -0.2941 -0.8500  0.6382
35620SOL    HW212953   1.305   0.247   1.307  0.2822 -1.3401 -0.5762
35621SOL     OW12954   3.053   3.227   4.553 -0.4242  0.0800 -0.4579
35621SOL    HW112955   3.044   3.149   4.498  1.0602 -0.4827  0.0422
35621SOL    HW212956   3.014   3.297   4.502 -0.4099 -0.7105 -1.5889
35622SOL     OW12957   2.769   4.849   8.275  0.2312 -0.2063 -0.3325
35622SOL    HW112958   2.763   4.872   8.182  0.4635  1.5241  0.0445
35622SOL    HW212959   2.763   4.754   8.276  0.7861 -0.3065 -2.1644
35623SOL     OW12960   3.522   2.347   5.795 -0.1650  0.7331  0.4700
35623SOL    HW112961   3.581   2.284   5.836 -1.9587 -0.0064  2.0719
35623SOL    HW212962   3.503   2.309   5.709 -0.4645 -0.4521  1.0380
35624SOL     OW12963   3.723  10.079   7.993  0.5095  0.2402  0.4366
35624SOL    HW112964   3.721  10.014   8.063 -2.1454  0.4301  0.6353
35624SOL    HW212965   3.707  10.028   7.913 -4.0626  0.6775  0.8125
35625SOL     OW12966   1.383   4.271   2.805 -0.3057 -0.5612 -0.2750
35625SOL    HW112967   1.335   4.291   2.724  0.6097  1.2394 -0.4312
35625SOL    HW212968   1.331   4.312   2.874  1.1952  2.0097 -0.5147
35626SOL     OW12969   3.323   6.691   7.679  0.0699 -0.0829  0.1698
35626SOL    HW112970   3.356   6.766   7.630  0.1567 -0.0996  0.2031
35626SOL    HW212971   3.278   6.730   7.755  0.0748 -0.0632  0.1627
35627SOL     OW12972   2.231   9.949   1.796 -0.0502  0.1162 -0.2131
35627SOL    HW112973   2.219   9.898   1.876  0.2907  0.6239  0.1734
35627SOL    HW212974   2.308   9.911   1.754 -1.1761 -1.2061 -1.1539
35628SOL     OW12975   2.018   7.601   9.546  0.5866  0.2037 -0.7475
35628SOL    HW112976   2.036   7.514   9.582  1.4671  0.5099 -0.4256
35628SOL    HW212977   2.069   7.661   9.601  1.3142  0.7675 -1.9866
35629SOL     OW12978   0.420   4.689   6.184 -0.0481  0.8607 -0.0382
35629SOL    HW112979   0.487   4.623   6.202 -0.1710  1.1856  1.7451
35629SOL    HW212980   0.445   4.764   6.238 -1.4184  1.2692  0.0631
35630SOL     OW12981   5.761   5.397   0.224 -0.0786  0.5658 -0.9676
35630SOL    HW112982   5.726   5.459   0.288  1.0586  0.2694 -0.0230
35630SOL    HW212983   5.714   5.416   0.143 -1.7088  0.8081  0.0018
35631SOL     OW12984   7.481   6.716   9.215  0.5243  0.8300 -0.4115
35631SOL    HW112985   7.463   6.640   9.271 -2.6371  0.6253 -1.5233
35631SOL    HW212986   7.541   6.683   9.148 -0.3808 -0.5674 -0.5710
35632SOL     OW12987   1.877   9.816   3.049  0.1079 -0.4771 -0.5693
35632SOL    HW112988   1.915   9.835   2.963 -0.7499 -1.7679 -1.2618
35632SOL    HW212989   1.842   9.900   3.078  1.3741  0.2196 -0.9653
35633SOL     OW12990   3.250   0.867   3.905 -0.6416  0.0572 -0.4501
35633SOL    HW112991   3.274   0.791   3.958  1.0057 -0.9401 -2.4888
35633SOL    HW212992   3.330   0.919   3.900 -1.7345  2.0374  0.9065
35634SOL     OW12993  10.740   1.417   9.411  0.0921 -0.2516  0.5813
35634SOL    HW112994  10.835   1.408   9.416  0.1062 -0.0810  0.6113
35634SOL    HW212995  10.717   1.388   9.322  0.4478  2.1810 -0.3818
35635SOL     OW12996   3.174   1.770   2.738  0.0886 -0.4359  0.3622
35635SOL    HW112997   3.247   1.735   2.788  0.5528  1.6466  1.2650
35635SOL    HW212998   3.110   1.699   2.736  1.5893 -1.8592  0.6671
35636SOL     OW12999  10.484   9.996   9.275 -0.3884 -0.4727 -0.9998
35636SOL    HW113000  10.557  10.028   9.222 -0.1828  0.9216  0.0738
35636SOL    HW213001  10.419   9.966   9.211  0.6429 -0.6370 -1.9844
35637SOL     OW13002   8.027   2.218   6.911  0.0506 -0.3765 -0.4950
35637SOL    HW113003   8.100   2.240   6.853  0.4571  1.4387  0.6157
35637SOL    HW213004   7.953   2.205   6.852  1.0707 -1.5398 -1.5985
35638SOL     OW13005   4.501   8.608   5.455  0.1398  0.1090  0.0232
35638SOL    HW113006   4.583   8.635   5.414  1.1778 -3.5131 -0.6598
35638SOL    HW213007   4.438   8.607   5.383  0.0515  0.8403  0.0894
35639SOL     OW13008   1.818   3.736  10.295  0.4822 -0.1659 -0.2010
35639SOL    HW113009   1.767   3.764  10.219 -2.1861 -1.7033  0.8825
35639SOL    HW213010   1.817   3.641  10.292  2.5845 -0.2769  0.4186
35640SOL     OW13011   6.536   6.960   6.740 -0.3215  0.3247 -0.7434
35640SOL    HW113012   6.589   6.993   6.667  0.7547 -0.7322 -0.4858
35640SOL    HW213013   6.494   6.881   6.705 -0.8003  0.5184 -0.5985
35641SOL     OW13014   8.631   8.234  10.887  0.2017  0.0863  0.4304
35641SOL    HW113015   8.583   8.268  10.812  1.9785 -1.4234 -1.4957
35641SOL    HW213016   8.611   8.140  10.888  0.6258 -0.0111  1.5455
35642SOL     OW13017   8.445   6.715   5.176  0.2343  0.2196 -0.0143
35642SOL    HW113018   8.374   6.732   5.114 -1.5575 -4.0467  0.5268
35642SOL    HW213019   8.524   6.713   5.121 -1.1714 -2.5408 -2.2531
35643SOL     OW13020   1.351   1.972   1.569 -0.0804 -0.0172  0.8643
35643SOL    HW113021   1.336   1.906   1.502  0.7514 -0.6850  1.3271
35643SOL    HW213022   1.281   2.036   1.555  0.1909 -0.0421 -0.7456
35644SOL     OW13023   5.191   3.586   8.066 -0.2391 -0.1606 -0.0987
35644SOL    HW113024   5.218   3.534   7.990 -0.5200 -2.3268  1.2047
35644SOL    HW213025   5.165   3.670   8.028  1.3549 -0.4983 -2.1806
35645SOL     OW13026   6.386   7.896   8.314 -0.4696 -0.5099 -0.1412
35645SOL    HW113027   6.415   7.806   8.296 -0.0201 -0.5133  0.5475
35645SOL    HW213028   6.328   7.918   8.241  0.6222 -0.8067 -1.1308
35646SOL     OW13029   8.848   6.861   2.506 -0.4354 -0.1129  0.0890
35646SOL    HW113030   8.773   6.876   2.450 -1.2213 -0.4963  1.0153
35646SOL    HW213031   8.828   6.908   2.587 -0.4766 -1.5722  0.9797
35647SOL     OW13032   0.347   3.531   0.994  0.2127  0.1091 -0.3175
35647SOL    HW113033   0.434   3.571   1.001 -0.5038  1.5159  1.0785
35647SOL    HW213034   0.327   3.535   0.900  2.8610 -3.1073 -1.2045
35648SOL     OW13035   4.619   1.817   8.327 -0.1755  0.0643 -0.0808
35648SOL    HW113036   4.686   1.759   8.290 -0.2120  0.0807 -0.1732
35648SOL    HW213037   4.668   1.878   8.382 -0.0376  0.5065 -0.6857
35649SOL     OW13038   2.482  10.433   4.694  0.1410 -0.4729 -0.0732
35649SOL    HW113039   2.394  10.407   4.669 -0.4585  1.4014 -0.0304
35649SOL    HW213040   2.525  10.351   4.718 -1.2131 -1.5584 -1.1946
35650SOL     OW13041   4.803   2.292   1.007  0.2882  0.1157  0.1120
35650SOL    HW113042   4.879   2.346   1.027 -0.0420  0.8336 -0.5146
35650SOL    HW213043   4.752   2.343   0.944 -0.7918 -0.2817  0.6198
35651SOL     OW13044  10.756   5.927   7.165  0.1420  0.1138  0.4392
35651SOL    HW113045  10.716   5.911   7.079  0.2008  2.5132 -0.1124
35651SOL    HW213046  10.682   5.932   7.225 -0.0334  0.0237  0.2334
35652SOL     OW13047   6.301   9.137   3.469  0.4154 -0.2085 -0.3668
35652SOL    HW113048   6.327   9.134   3.377 -1.0762  0.2462 -0.8455
35652SOL    HW213049   6.273   9.228   3.482 -2.4799 -0.9956 -0.4336
35653SOL     OW13050   7.257   5.731   9.372  0.8856 -0.4410 -0.2997
35653SOL    HW113051   7.185   5.751   9.311  1.6083  1.7252 -0.5244
35653SOL    HW213052   7.256   5.803   9.435  0.8012 -2.1070  1.7380
35654SOL     OW13053   8.799   9.530   6.525 -0.1462 -0.4470 -0.3595
35654SOL    HW113054   8.819   9.521   6.618  0.1745 -1.0711 -0.4834
35654SOL    HW213055   8.881   9.510   6.481 -0.2023  0.2080 -0.7701
35655SOL     OW13056   8.481   6.392   0.030 -0.1499  0.2204  0.5081
35655SOL    HW113057   8.557   6.365  -0.022 -0.9956 -0.9818 -0.1171
35655SOL    HW213058   8.405   6.371  -0.024 -0.9923  0.2840  1.6339
35656SOL     OW13059   1.083   1.716   2.334 -0.0191  0.5114 -0.4203
35656SOL    HW113060   1.123   1.683   2.414  0.4868  3.5245  0.7084
35656SOL    HW213061   1.153   1.711   2.268 -0.2134 -1.3002 -0.5297
35657SOL     OW13062   2.919   1.887   6.087  0.3948  0.5200 -0.8225
35657SOL    HW113063   2.924   1.934   6.170  0.8846  1.1665 -1.1989
35657SOL    HW213064   2.953   1.800   6.106  0.0318  0.5051 -0.2353
35658SOL     OW13065   3.039   1.931   1.426  0.1129  0.3378 -0.1539
35658SOL    HW113066   3.115   1.981   1.456  0.0492  0.1516  0.3113
35658SOL    HW213067   2.964   1.985   1.451 -0.0994 -1.0494  2.4799
35659SOL     OW13068   5.583   3.622  10.653 -0.5532  0.0082  0.0277
35659SOL    HW113069   5.537   3.643  10.571 -0.6867 -0.2886  0.0277
35659SOL    HW213070   5.557   3.533  10.674  0.8292 -0.5656 -0.5306
35660SOL     OW13071   7.464   2.880   0.326  0.4678 -0.5626 -0.1151
35660SOL    HW113072   7.502   2.809   0.378 -1.0866 -1.4544 -0.1009
35660SOL    HW213073   7.500   2.867   0.238  0.3559 -1.2566 -0.0651
35661SOL     OW13074   4.735  10.357   4.577 -0.3372  0.2697  0.4742
35661SOL    HW113075   4.689  10.441   4.576 -0.2607  0.3504 -1.6031
35661SOL    HW213076   4.665  10.292   4.575 -0.3906  0.2715  1.6960
35662SOL     OW13077   3.601   3.818   7.835  0.1640 -0.2543 -0.1299
35662SOL    HW113078   3.667   3.749   7.831 -1.2912 -1.6787 -0.8964
35662SOL    HW213079   3.637   3.889   7.780  0.4197 -1.6071 -1.7899
35663SOL     OW13080   0.879   0.420  10.288 -0.9112 -0.1497  0.4388
35663SOL    HW113081   0.970   0.436  10.316 -1.1741  0.9130  0.7340
35663SOL    HW213082   0.842   0.367  10.359 -1.1615  1.3363  1.4653
35664SOL     OW13083   4.598  10.877   1.863  0.0762 -0.0265  0.5787
35664SOL    HW113084   4.560  10.945   1.807  0.0597 -0.8365 -0.4227
35664SOL    HW213085   4.555  10.888   1.948  0.5791  1.6519  0.6482
35665SOL     OW13086   8.645   7.291  10.806  0.2526  0.2444  0.3657
35665SOL    HW113087   8.681   7.379  10.795  2.7536 -0.7509 -0.1529
35665SOL    HW213088   8.715   7.233  10.775 -1.3502 -1.9342  0.6070
35666SOL     OW13089   0.978   9.026  10.621 -0.0003 -0.4004 -0.1635
35666SOL    HW113090   0.921   9.098  10.594  0.3893 -0.3362 -0.8600
35666SOL    HW213091   1.039   9.066  10.683 -0.1713 -0.2738 -0.0759
35667SOL     OW13092   6.291   5.507   6.027 -0.2881  0.2534 -0.2154
35667SOL    HW113093   6.300   5.465   6.112  0.2602  1.8564  0.5427
35667SOL    HW213094   6.204   5.548   6.030 -0.0180  0.8270 -0.1880
35668SOL     OW13095   5.568   9.033   6.955  0.4194 -0.3947 -0.0589
35668SOL    HW113096   5.511   9.091   7.004  0.4870 -0.1148 -0.3108
35668SOL    HW213097   5.509   8.989   6.892  0.4266 -0.3450 -0.1000
35669SOL     OW13098   9.665   0.527   1.786  0.1072  0.6445  0.1155
35669SOL    HW113099   9.686   0.465   1.855  0.6333  1.4853  0.7395
35669SOL    HW213100   9.630   0.603   1.832 -0.1017  0.9875 -0.5937
35670SOL     OW13101   6.300   4.410   1.643 -0.0640  0.0711 -0.7596
35670SOL    HW113102   6.388   4.405   1.681 -0.6071  1.1615  0.7013
35670SOL    HW213103   6.299   4.339   1.579  1.7276 -0.2581 -0.4966
35671SOL     OW13104   7.410   1.743   6.694 -0.3298 -0.1326 -0.0416
35671SOL    HW113105   7.478   1.738   6.762  0.8584 -1.0517 -1.2477
35671SOL    HW213106   7.366   1.659   6.698 -0.3462 -0.1368 -0.3151
35672SOL     OW13107   3.088   9.388   1.110  0.0650  0.0161 -0.6744
35672SOL    HW113108   3.161   9.336   1.142  0.5375  1.3880  0.5525
35672SOL    HW213109   3.023   9.384   1.179  0.2638  1.3409 -0.3842
35673SOL     OW13110   7.027   4.615   0.572  1.0425 -0.2129 -0.0039
35673SOL    HW113111   6.967   4.552   0.532  0.9142  1.5517 -2.8296
35673SOL    HW213112   6.971   4.686   0.602  1.5765  1.2713 -2.3162
35674SOL     OW13113   5.087   3.907   0.147 -0.2204  0.1908  0.2206
35674SOL    HW113114   5.129   3.939   0.067  1.4049 -3.1292 -0.4110
35674SOL    HW213115   4.994   3.930   0.136 -0.4481 -1.7383 -3.6033
35675SOL     OW13116   6.058   2.667   3.635 -0.1626  0.2235  0.0405
35675SOL    HW113117   6.008   2.656   3.553 -0.2158  0.4851  0.0361
35675SOL    HW213118   6.140   2.708   3.607 -0.3604  0.7141  0.1707
35676SOL     OW13119   7.474   8.838   2.130  0.7372 -0.1870  0.1916
35676SOL    HW113120   7.386   8.809   2.153  0.6497  0.3889  0.6009
35676SOL    HW213121   7.466   8.933   2.119  1.4445 -0.0309  0.9202
35677SOL     OW13122   5.097   1.902   6.905  0.2035 -0.2867  0.1293
35677SOL    HW113123   5.090   1.893   6.810 -1.0708 -1.3347  0.2900
35677SOL    HW213124   5.048   1.827   6.940 -0.3601  0.7181  1.6036
35678SOL     OW13125   2.424   8.158   3.686  0.7449 -0.1949 -0.2338
35678SOL    HW113126   2.483   8.083   3.684  0.2470 -0.6370  0.8272
35678SOL    HW213127   2.458   8.214   3.757  0.4887  0.0484 -0.2999
35679SOL     OW13128   5.110   7.473   4.596  0.2073  0.4559  0.2123
35679SOL    HW113129   5.178   7.418   4.634  0.1391  0.1520 -0.1000
35679SOL    HW213130   5.125   7.560   4.633  0.7499  0.3857  0.1579
35680SOL     OW13131   4.553   3.026  10.714  0.3413  0.7018  0.1835
35680SOL    HW113132   4.614   3.033  10.787 -0.1125  1.8216  0.4828
35680SOL    HW213133   4.599   2.975  10.648  0.3590 -1.3029  1.6543
35681SOL     OW13134   4.404   8.619   1.354  0.0276  0.1019 -0.1732
35681SOL    HW113135   4.449   8.704   1.361 -0.5924  0.5688 -1.4554
35681SOL    HW213136   4.332   8.624   1.417 -1.0038  1.2181 -1.3835
35682SOL     OW13137   2.000   4.322   3.260  0.0031  0.6080 -0.0550
35682SOL    HW113138   1.941   4.361   3.324  0.1326 -0.2195  0.5809
35682SOL    HW213139   1.943   4.297   3.187 -0.3700  0.1912  0.3774
35683SOL     OW13140   0.884   5.982  10.013  0.0016  0.2180  0.6147
35683SOL    HW113141   0.944   6.043  10.058  0.4332 -0.2094  0.6289
35683SOL    HW213142   0.880   5.906  10.070 -0.9500  0.4308  0.8498
35684SOL     OW13143   4.398  10.206   7.258  0.5251 -0.1547 -0.3128
35684SOL    HW113144   4.441  10.279   7.302 -0.6130 -1.0351  2.4685
35684SOL    HW213145   4.310  10.239   7.238  0.3818 -0.4030 -0.0916
35685SOL     OW13146  10.834   0.275   4.781 -0.2751  0.1865  0.1334
35685SOL    HW113147  10.837   0.346   4.845  1.4456 -0.8680  1.3023
35685SOL    HW213148  10.861   0.197   4.830 -0.6728 -1.0063 -1.4575
35686SOL     OW13149   5.079   0.618   8.065  0.5519  0.0078 -0.7459
35686SOL    HW113150   5.096   0.705   8.099 -1.4127 -0.1636  0.8582
35686SOL    HW213151   5.056   0.632   7.973  2.2529  0.8959 -1.0897
35687SOL     OW13152   2.945   8.476   7.325 -0.1111  0.1525 -0.2782
35687SOL    HW113153   3.032   8.507   7.349 -0.2951  1.0725 -0.7532
35687SOL    HW213154   2.961   8.419   7.250  0.0408  0.7740 -0.7296
35688SOL     OW13155   3.593   6.649   4.549 -0.4490  0.4376 -0.3743
35688SOL    HW113156   3.641   6.639   4.467 -0.9804  1.2629 -0.7862
35688SOL    HW213157   3.661   6.642   4.617  0.2629  1.5324 -0.9472
35689SOL     OW13158   9.653   9.567   2.660  0.3254  0.3954  0.0741
35689SOL    HW113159   9.622   9.479   2.639 -1.0042  1.2395 -1.8056
35689SOL    HW213160   9.600   9.594   2.735 -0.9099  0.4118 -0.7680
35690SOL     OW13161   9.557   5.889   5.239 -0.4650 -0.3401  0.3468
35690SOL    HW113162   9.630   5.924   5.188 -0.0376  0.3643  1.4188
35690SOL    HW213163   9.556   5.795   5.218 -0.5356 -0.0154 -1.2151
35691SOL     OW13164   9.792   0.902   5.836 -0.0058 -0.1240 -1.4676
35691SOL    HW113165   9.842   0.964   5.889 -0.0978 -1.9335  0.9092
35691SOL    HW213166   9.832   0.907   5.749  1.5433  1.4837 -0.7307
35692SOL     OW13167   7.942   2.264   2.783  0.4592  0.2509  0.2235
35692SOL    HW113168   7.911   2.342   2.829  1.2068  0.8000 -0.1914
35692SOL    HW213169   8.035   2.280   2.769  0.4082 -0.2652 -0.7698
35693SOL     OW13170   8.480   4.667   0.835  0.2433 -0.3899 -0.3652
35693SOL    HW113171   8.408   4.697   0.779 -0.2514 -2.1668 -0.7546
35693SOL    HW213172   8.439   4.655   0.921  0.3206 -0.3964 -0.3291
35694SOL     OW13173   6.114   5.618   2.549 -0.0437 -0.0932  0.0308
35694SOL    HW113174   6.209   5.626   2.550 -0.0760  1.7563 -2.2393
35694SOL    HW213175   6.096   5.560   2.475 -0.6822 -2.6119  2.0347
35695SOL     OW13176   5.948   6.044   0.162  0.2525 -0.5117  0.5329
35695SOL    HW113177   6.004   6.006   0.095  0.5488  0.0532  0.4547
35695SOL    HW213178   5.966   5.992   0.241  1.5509  0.1984  0.7400
35696SOL     OW13179   3.320   4.699   5.282 -0.7817 -0.0088 -0.4399
35696SOL    HW113180   3.269   4.632   5.236 -1.4877  0.2287 -0.0143
35696SOL    HW213181   3.256   4.743   5.339 -0.2244  0.6995 -0.3536
35697SOL     OW13182   4.040   5.578   4.707 -0.4409 -0.8483  0.5173
35697SOL    HW113183   4.041   5.578   4.803  0.6241 -1.7022  0.5331
35697SOL    HW213184   4.129   5.605   4.683 -1.2627  1.3379 -0.2813
35698SOL     OW13185   0.415   4.771   9.219 -0.2468 -0.0317  0.2239
35698SOL    HW113186   0.323   4.747   9.234 -0.0915 -0.5782  0.2968
35698SOL    HW213187   0.428   4.760   9.125  0.1173 -1.2997  0.4007
35699SOL     OW13188   5.374   5.764   8.282 -0.0015 -0.1407  0.3936
35699SOL    HW113189   5.397   5.735   8.194  0.3640  3.3929 -0.8403
35699SOL    HW213190   5.442   5.827   8.304 -1.9071  1.5433  1.7671
35700SOL     OW13191   4.774   5.239   5.769 -0.0937  0.4139 -0.1945
35700SOL    HW113192   4.750   5.249   5.677  0.7287 -0.0239 -0.4682
35700SOL    HW213193   4.738   5.316   5.812  0.2611  1.0635 -1.0404
35701SOL     OW13194   7.118   6.382   9.925  0.7121 -0.1964 -0.4858
35701SOL    HW113195   7.165   6.461   9.951  0.3142  0.1716 -0.8822
35701SOL    HW213196   7.180   6.311   9.942  0.6988  0.0909  0.8735
35702SOL     OW13197   1.309   7.466   0.168  0.1174  0.2010 -0.0491
35702SOL    HW113198   1.338   7.442   0.080 -1.6033 -2.0892 -0.0962
35702SOL    HW213199   1.248   7.539   0.155  0.3104  0.2493 -0.7044
35703SOL     OW13200   3.050   9.463   7.293  0.6527 -0.4197 -0.5536
35703SOL    HW113201   3.072   9.500   7.207  1.4193  0.4165 -0.0244
35703SOL    HW213202   3.039   9.540   7.349 -0.2164 -0.9518  0.0091
35704SOL     OW13203  10.461   4.883   4.141  0.3284 -0.1234 -0.7469
35704SOL    HW113204  10.511   4.888   4.222 -1.1644  0.4995  0.1956
35704SOL    HW213205  10.499   4.810   4.093  1.5561 -0.2032  0.3016
35705SOL     OW13206   3.588  10.557   2.847  0.4211 -0.6272 -0.3334
35705SOL    HW113207   3.574  10.604   2.929  0.5698  0.5722 -0.9680
35705SOL    HW213208   3.582  10.465   2.870  0.6754 -0.3090  1.0642
35706SOL     OW13209   4.508   5.557   1.540  0.2712 -0.2325  0.0719
35706SOL    HW113210   4.491   5.538   1.448 -0.2176 -0.2366  0.1629
35706SOL    HW213211   4.501   5.652   1.547  1.3800 -0.1236 -0.1084
35707SOL     OW13212   4.279   1.328   4.523  0.2460  0.1808 -0.0290
35707SOL    HW113213   4.197   1.295   4.560 -0.7923  0.6538 -1.7580
35707SOL    HW213214   4.346   1.306   4.588 -1.2302 -0.2936  1.3996
35708SOL     OW13215   0.001   0.385   7.216  0.3363 -0.0211 -0.1487
35708SOL    HW113216  -0.069   0.369   7.279 -0.5223 -3.1772 -1.6989
35708SOL    HW213217  -0.040   0.432   7.144  0.2007 -0.4701 -0.3641
35709SOL     OW13218   9.147   8.756   2.703 -0.3258 -0.2392  0.6036
35709SOL    HW113219   9.153   8.783   2.612 -1.7932 -2.0862 -0.1134
35709SOL    HW213220   9.158   8.836   2.754 -3.7806  1.6406 -1.3092
35710SOL     OW13221   6.263   5.284   8.297 -0.5987 -0.0463  0.4039
35710SOL    HW113222   6.302   5.331   8.224  3.2430 -2.7370  0.4444
35710SOL    HW213223   6.180   5.250   8.263 -0.8517  2.0942 -1.2929
35711SOL     OW13224   3.289   3.236   2.890 -0.3921 -0.2050  0.6292
35711SOL    HW113225   3.197   3.245   2.917 -0.6108 -0.4678  0.0068
35711SOL    HW213226   3.333   3.312   2.928 -1.4235  1.4515 -1.3244
35712SOL     OW13227   3.075   8.018   6.185 -0.2247  0.3035 -0.5384
35712SOL    HW113228   3.112   7.945   6.235 -0.2290  0.4739 -0.2822
35712SOL    HW213229   3.150   8.071   6.160 -0.2835  0.6087 -0.0833
35713SOL     OW13230   2.537   6.680   0.134 -0.2919 -0.7827 -0.2669
35713SOL    HW113231   2.515   6.759   0.184  1.3074 -0.6512  0.3166
35713SOL    HW213232   2.583   6.713   0.057 -0.8526 -1.0878 -0.7349
35714SOL     OW13233   2.799   3.547   7.191 -0.0845  0.1211 -0.2618
35714SOL    HW113234   2.771   3.587   7.274  1.1088  1.2113 -0.3649
35714SOL    HW213235   2.717   3.531   7.144 -0.6738  1.5306  0.2124
35715SOL     OW13236   4.855   1.857   0.056  0.2928 -0.0011 -0.0128
35715SOL    HW113237   4.882   1.787   0.116 -0.3532  0.1777  0.4908
35715SOL    HW213238   4.878   1.823  -0.031  1.6052 -0.0922  0.3476
35716SOL     OW13239   7.580   9.046   0.246 -0.2906 -0.0590 -0.2266
35716SOL    HW113240   7.493   9.073   0.216 -0.6107  0.9282  1.4304
35716SOL    HW213241   7.630   9.127   0.250 -0.0992 -0.2244  1.2681
35717SOL     OW13242  10.125   2.998   4.985  0.3754  0.1548  0.7116
35717SOL    HW113243  10.130   3.087   5.020  0.9724  0.5715 -0.4084
35717SOL    HW213244  10.204   2.955   5.018  1.7862  1.0243 -1.3342
35718SOL     OW13245   4.716   5.630  10.146 -0.0323  0.0388  0.2963
35718SOL    HW113246   4.674   5.574  10.081  0.6411  0.5250 -0.5878
35718SOL    HW213247   4.707   5.719  10.110  1.7559  0.1466  0.0650
35719SOL     OW13248   5.232   9.983   9.337  0.0325 -0.0792  0.0187
35719SOL    HW113249   5.233  10.078   9.347  2.2791 -0.1285  0.9398
35719SOL    HW213250   5.265   9.968   9.248  0.0566 -0.0073  0.0151
35720SOL     OW13251   6.878   2.614   1.786 -0.1015 -0.1471  0.2216
35720SOL    HW113252   6.811   2.560   1.828 -1.0879 -0.2909 -1.4671
35720SOL    HW213253   6.850   2.621   1.695 -0.3166  3.6493  0.4155
35721SOL     OW13254   6.262   6.470   8.682  0.1972  0.1394 -0.4677
35721SOL    HW113255   6.273   6.492   8.774 -0.2250 -0.4287 -0.2692
35721SOL    HW213256   6.322   6.397   8.667 -0.6608 -0.6210 -0.2977
35722SOL     OW13257   2.430   2.215   7.075 -0.2607 -0.7764 -0.6549
35722SOL    HW113258   2.357   2.231   7.135  0.0022  1.1294 -0.8087
35722SOL    HW213259   2.419   2.123   7.049  0.9545 -2.5681  4.0865
35723SOL     OW13260  10.490   5.727   6.354  0.1672 -0.1758 -0.1549
35723SOL    HW113261  10.467   5.780   6.278  0.8996  1.6544  0.8294
35723SOL    HW213262  10.425   5.656   6.356 -0.9050  0.7402 -1.4792
35724SOL     OW13263   6.040  10.135   4.603  0.2137  0.3828 -0.1429
35724SOL    HW113264   5.975  10.203   4.619  0.9747  0.7397  1.6619
35724SOL    HW213265   6.027  10.110   4.511 -0.0205  3.0318 -0.9045
35725SOL     OW13266  10.047   8.847   8.027  0.3360  0.0029  0.9730
35725SOL    HW113267  10.036   8.942   8.016  0.9753 -0.1492 -1.5130
35725SOL    HW213268  10.139   8.836   8.050  1.0861 -0.1296 -1.7877
35726SOL     OW13269   0.882   8.039   2.533 -0.1042 -0.4197 -0.6119
35726SOL    HW113270   0.947   8.109   2.523  1.1492 -1.3381  0.5845
35726SOL    HW213271   0.808   8.066   2.479  0.8056  1.2527 -1.0875
35727SOL     OW13272   0.428   7.646   0.371  0.3255 -0.8180 -0.3884
35727SOL    HW113273   0.470   7.573   0.416  0.6527 -0.0722  0.5566
35727SOL    HW213274   0.372   7.605   0.305  0.9071 -1.8946 -0.2345
35728SOL     OW13275   5.360   1.623   7.709  0.3688 -0.2534 -0.2443
35728SOL    HW113276   5.334   1.700   7.760  2.1204 -0.3630  0.8770
35728SOL    HW213277   5.448   1.642   7.679  0.3953 -1.3583 -0.9276
35729SOL     OW13278   3.798   5.832  10.232  0.1473  0.0458  0.0563
35729SOL    HW113279   3.778   5.756  10.286  0.6845 -0.3832 -0.3479
35729SOL    HW213280   3.719   5.886  10.237  0.0696 -0.1346  1.0129
35730SOL     OW13281   3.629   5.866   0.028  0.1372  0.1149  0.1832
35730SOL    HW113282   3.605   5.920  -0.047  2.6253  1.5096  0.3037
35730SOL    HW213283   3.611   5.776  -0.001 -0.5006  0.7351 -1.4511
35731SOL     OW13284   5.775   1.349  10.290 -0.3343 -0.1658 -1.0521
35731SOL    HW113285   5.798   1.442  10.287 -3.3798  0.7216  0.0896
35731SOL    HW213286   5.686   1.345  10.255 -0.6066 -2.5245 -0.2407
35732SOL     OW13287   1.723   5.839   4.008 -0.1060 -0.1283 -0.3569
35732SOL    HW113288   1.653   5.889   4.048 -1.6317 -2.5676  0.2209
35732SOL    HW213289   1.698   5.830   3.917 -0.3674 -0.6838 -0.2337
35733SOL     OW13290   7.405   9.374   6.094 -0.4278  0.2685  0.6463
35733SOL    HW113291   7.423   9.357   6.186 -1.1056  1.3542  0.9905
35733SOL    HW213292   7.328   9.431   6.094 -0.8894 -0.3066 -0.6171
35734SOL     OW13293   5.821   1.177   5.390  0.1510 -0.3094  0.0451
35734SOL    HW113294   5.782   1.129   5.317 -0.8573  2.3062 -1.2402
35734SOL    HW213295   5.777   1.143   5.468 -0.5845 -1.3560 -0.8086
35735SOL     OW13296   0.384   2.745   2.190 -0.2456  0.2653  0.0390
35735SOL    HW113297   0.473   2.773   2.166 -1.1588  3.3231 -0.1756
35735SOL    HW213298   0.354   2.811   2.252 -2.5700 -0.3991 -0.2798
35736SOL     OW13299   9.161   7.358   4.674 -0.3062 -0.0596  0.1789
35736SOL    HW113300   9.106   7.314   4.609 -1.4578 -0.7681  1.5570
35736SOL    HW213301   9.250   7.330   4.653 -0.7350 -0.9038 -0.6049
35737SOL     OW13302   1.644   4.768   6.494  0.0158  0.4222  0.1850
35737SOL    HW113303   1.592   4.692   6.468 -0.1919  1.2144 -1.8750
35737SOL    HW213304   1.682   4.743   6.578 -0.0854 -1.9501 -0.4010
35738SOL     OW13305   0.015  10.149   3.744  0.4535  0.7339 -0.0890
35738SOL    HW113306   0.067  10.177   3.669  0.5791  2.1171  0.4868
35738SOL    HW213307  -0.070  10.192   3.731  0.7174  1.5999  0.9202
35739SOL     OW13308  10.451   1.116   2.192 -0.1646 -0.7466  0.4255
35739SOL    HW113309  10.416   1.139   2.278 -0.9553 -2.1240  0.4942
35739SOL    HW213310  10.375   1.118   2.134  0.6902  2.5094 -0.8259
35740SOL     OW13311   6.575   9.672   5.182  0.5131  0.1073 -0.8148
35740SOL    HW113312   6.630   9.750   5.192  1.8152 -0.8032 -0.6976
35740SOL    HW213313   6.584   9.648   5.090 -0.4775  0.5074 -1.0259
35741SOL     OW13314   7.873   0.688   5.504 -0.5485 -0.5843 -0.5649
35741SOL    HW113315   7.809   0.657   5.568 -0.1589  1.2740  0.8021
35741SOL    HW213316   7.821   0.723   5.432 -1.0272 -0.6666 -0.2596
35742SOL     OW13317   6.088   4.967   8.614  0.0550  0.0069 -0.4705
35742SOL    HW113318   6.173   4.925   8.598 -0.8710 -1.4884 -1.7898
35742SOL    HW213319   6.057   4.992   8.527 -1.2379 -0.2989 -0.1238
35743SOL     OW13320   2.188   7.647  10.687  0.0902 -0.2112  0.4421
35743SOL    HW113321   2.103   7.603  10.692 -0.3633  0.6801  0.7350
35743SOL    HW213322   2.246   7.581  10.649 -0.6920 -0.8825  0.3669
35744SOL     OW13323   7.790   9.895   1.527 -0.2773 -0.3351  0.2532
35744SOL    HW113324   7.797   9.862   1.438 -1.2551  0.4427 -0.1270
35744SOL    HW213325   7.719   9.844   1.566  0.1657 -0.6939  0.6162
35745SOL     OW13326   1.987   3.676   5.981  0.6001  0.0619 -0.0551
35745SOL    HW113327   1.988   3.636   6.068  3.1894  0.6881  0.2987
35745SOL    HW213328   2.075   3.659   5.946  0.4463  1.9454 -1.5181
35746SOL     OW13329   8.991   1.722   8.784 -0.0058 -0.2000 -0.2621
35746SOL    HW113330   9.017   1.746   8.695 -1.9606 -0.4602 -0.9506
35746SOL    HW213331   9.006   1.628   8.789 -0.0185 -0.2066 -0.3450
35747SOL     OW13332   6.376   3.205   1.972  0.0174  0.4232 -0.3680
35747SOL    HW113333   6.383   3.232   1.881 -1.2459 -1.6340 -1.1300
35747SOL    HW213334   6.445   3.139   1.983  1.7206  2.2549  0.9037
35748SOL     OW13335   3.358   6.480  10.866  0.0534 -0.0556  0.4706
35748SOL    HW113336   3.364   6.385  10.854 -0.1144  0.1281 -1.3131
35748SOL    HW213337   3.447   6.511  10.854  0.1445  0.0019  1.2663
35749SOL     OW13338   2.903   8.120   9.382  0.0980  0.1766 -0.1171
35749SOL    HW113339   2.876   8.038   9.341 -2.3060  0.9225 -0.1897
35749SOL    HW213340   2.970   8.094   9.446 -2.6232 -2.3521  2.0118
35750SOL     OW13341   6.666   5.808   6.311  0.3386 -0.3915  0.0157
35750SOL    HW113342   6.574   5.802   6.336  0.5721 -2.4629  0.5736
35750SOL    HW213343   6.712   5.823   6.394  0.6112 -0.8162 -0.0561
35751SOL     OW13344   8.793   2.026   5.209  0.1087 -0.0828 -0.2803
35751SOL    HW113345   8.794   2.117   5.237 -0.3028  0.3060 -1.5127
35751SOL    HW213346   8.788   2.029   5.114  0.4316 -1.3934 -0.3628
35752SOL     OW13347   9.738   9.201   6.404  0.5945 -0.1090 -0.4237
35752SOL    HW113348   9.711   9.214   6.313 -0.5122 -1.1254 -0.2588
35752SOL    HW213349   9.831   9.224   6.404  0.7727 -0.6632 -1.9449
35753SOL     OW13350   8.256   0.392   0.435 -0.2064  0.2715  0.4428
35753SOL    HW113351   8.310   0.373   0.512  0.4057  0.7245  0.1306
35753SOL    HW213352   8.178   0.436   0.470 -0.7468 -1.0563  0.9741
35754SOL     OW13353   5.060  10.137  10.916 -0.1824 -0.6496 -0.4844
35754SOL    HW113354   5.021  10.125  11.002 -0.7727  0.4230 -0.5715
35754SOL    HW213355   5.107  10.220  10.922 -1.9926  0.5535 -1.7508
35755SOL     OW13356   7.539   0.291   1.182 -0.0197 -0.4119 -0.4455
35755SOL    HW113357   7.587   0.213   1.210  0.3677  0.1506  0.5205
35755SOL    HW213358   7.447   0.270   1.199  0.2122  0.0384  1.7222
35756SOL     OW13359  10.448   4.129   5.780 -0.1537 -0.6494  0.1791
35756SOL    HW113360  10.362   4.165   5.757  0.4740  0.2072 -0.9520
35756SOL    HW213361  10.485   4.194   5.840  0.2059 -0.3481 -0.3546
35757SOL     OW13362   9.890   0.847   0.599  0.1252 -0.1063 -0.1608
35757SOL    HW113363   9.857   0.773   0.547  1.3691  0.0333 -1.1881
35757SOL    HW213364   9.902   0.918   0.536 -0.2907  0.7486  0.6826
35758SOL     OW13365   1.526   1.837   1.301 -0.0917  0.8025 -0.1749
35758SOL    HW113366   1.494   1.925   1.281 -0.5340  0.9926  1.2012
35758SOL    HW213367   1.446   1.786   1.315  0.1371  0.8705  1.6571
35759SOL     OW13368   1.749   0.676   7.384 -0.1706 -0.7842 -0.2318
35759SOL    HW113369   1.703   0.643   7.307 -0.3555 -2.6122  0.6082
35759SOL    HW213370   1.682   0.681   7.452  0.0830  0.3624 -0.0552
35760SOL     OW13371   9.926   9.822   2.864  0.0236 -0.2325  0.0035
35760SOL    HW113372   9.869   9.832   2.941 -1.0739  0.6628 -0.8895
35760SOL    HW213373   9.989   9.755   2.890 -0.5590 -0.2372  1.5434
35761SOL     OW13374   7.029   9.194   8.403 -0.3766 -0.6398 -0.0527
35761SOL    HW113375   7.095   9.202   8.471 -0.6962 -0.5253  0.2447
35761SOL    HW213376   7.046   9.109   8.362  1.4346  0.3487 -1.5346
35762SOL     OW13377   6.728   0.236   4.485  0.4740 -0.2354  0.2929
35762SOL    HW113378   6.758   0.158   4.532  0.5537 -0.5216 -0.2284
35762SOL    HW213379   6.765   0.227   4.397  2.1198  1.3473  0.7527
35763SOL     OW13380   2.646   8.945   1.282 -0.3101 -0.7638 -0.3969
35763SOL    HW113381   2.589   8.870   1.297 -1.7655  0.5953  1.3389
35763SOL    HW213382   2.727   8.908   1.247 -0.9186 -3.1269  0.5679
35764SOL     OW13383   5.975   8.371   0.049  0.5008 -0.1924 -0.8423
35764SOL    HW113384   5.952   8.442  -0.011  1.0360  0.9490  0.2510
35764SOL    HW213385   6.046   8.407   0.103  1.0894 -1.7195 -0.5506
35765SOL     OW13386   3.195   1.798   8.175  0.0368  0.1135  0.2144
35765SOL    HW113387   3.194   1.893   8.191 -1.0670  0.2588 -0.6119
35765SOL    HW213388   3.251   1.787   8.098  0.7962 -0.0007  0.7715
35766SOL     OW13389   1.731   7.412   3.442 -0.0087 -0.2637  0.5773
35766SOL    HW113390   1.682   7.455   3.372  0.9234 -1.2302 -0.7250
35766SOL    HW213391   1.668   7.352   3.482 -0.1799 -0.7956 -0.4445
35767SOL     OW13392   0.412   5.242   9.807  0.3433  0.2597 -0.5888
35767SOL    HW113393   0.497   5.216   9.770  0.8073 -0.5090  0.9377
35767SOL    HW213394   0.384   5.166   9.859 -2.0648 -0.1178 -2.2844
35768SOL     OW13395   4.343   2.784   1.585  0.3549 -0.0036 -0.2101
35768SOL    HW113396   4.386   2.836   1.652 -1.2699  0.3583  0.5954
35768SOL    HW213397   4.249   2.790   1.606  0.0091 -2.0137 -0.9781
35769SOL     OW13398   1.912   4.108   7.226  0.2500 -0.0068  0.7930
35769SOL    HW113399   1.888   4.035   7.282  0.2326 -1.4318 -0.9962
35769SOL    HW213400   1.830   4.137   7.186  0.5207 -0.3940 -0.0790
35770SOL     OW13401   0.300   4.975  10.720  0.2754  0.0485 -0.1742
35770SOL    HW113402   0.371   4.927  10.678  1.2934 -0.8963  2.4200
35770SOL    HW213403   0.283   5.049  10.662  3.4732  0.3740 -0.8801
35771SOL     OW13404   1.126   9.132   1.224  0.4098 -0.1787  0.5367
35771SOL    HW113405   1.133   9.181   1.306 -0.4953  1.4251 -0.3141
35771SOL    HW213406   1.034   9.106   1.220  0.2612  0.4586 -0.3515
35772SOL     OW13407   7.261   5.981   1.995  0.1273 -0.2001  0.7497
35772SOL    HW113408   7.204   6.001   2.070 -0.0203  1.6132  0.1923
35772SOL    HW213409   7.350   5.985   2.031  0.0411  0.2628  0.9147
35773SOL     OW13410   7.659   2.768   0.546  0.0797 -0.4766  0.2015
35773SOL    HW113411   7.688   2.850   0.585  0.6788 -1.0664  1.0363
35773SOL    HW213412   7.595   2.733   0.609  0.2732 -0.9327  0.1516
35774SOL     OW13413   3.296   6.414   7.701  0.2932 -0.5278 -0.3878
35774SOL    HW113414   3.345   6.398   7.621 -0.4469 -0.8782 -0.7757
35774SOL    HW213415   3.264   6.504   7.692 -0.4732 -0.8408 -0.8612
35775SOL     OW13416   4.508  10.464   7.308  0.3092  0.5169 -0.3033
35775SOL    HW113417   4.476  10.554   7.297 -1.6356  0.0098  0.9214
35775SOL    HW213418   4.582  10.472   7.369 -1.9594  0.9883  2.5727
35776SOL     OW13419   4.351   7.486   3.135  0.3031  0.0620  0.1443
35776SOL    HW113420   4.354   7.550   3.206  2.0521  0.0664  0.1080
35776SOL    HW213421   4.439   7.488   3.097 -0.1181 -1.1273 -0.9688
35777SOL     OW13422   3.221   3.011   1.538 -0.1174  0.3132  0.0273
35777SOL    HW113423   3.210   3.064   1.616  0.2984 -0.9933  1.0080
35777SOL    HW213424   3.146   2.952   1.537  0.0546  0.0920 -0.3650
35778SOL     OW13425  10.779   4.948   6.542  0.1261 -0.3080 -0.4874
35778SOL    HW113426  10.832   4.950   6.462  2.2995 -1.4767  0.8353
35778SOL    HW213427  10.693   4.979   6.514  0.7448 -0.8598 -3.3056
35779SOL     OW13428   5.633   3.087   8.510  0.7533  0.3660 -0.6240
35779SOL    HW113429   5.572   3.112   8.442  1.0241  0.4518 -0.8347
35779SOL    HW213430   5.586   3.021   8.561  0.8126 -0.2395 -1.3302
35780SOL     OW13431   5.431   5.109   8.094 -0.2349  0.2472  0.0010
35780SOL    HW113432   5.505   5.049   8.083 -1.6009 -1.5850  0.4939
35780SOL    HW213433   5.405   5.099   8.186 -1.9189 -0.1607 -0.4901
35781SOL     OW13434   4.398   9.453   5.528 -0.5284 -0.4076 -0.2660
35781SOL    HW113435   4.469   9.508   5.495 -0.0916 -0.3937  0.6600
35781SOL    HW213436   4.324   9.471   5.470 -0.6707  1.8074  0.4904
35782SOL     OW13437   7.564   7.148   2.047  0.1336 -0.2378 -0.5949
35782SOL    HW113438   7.641   7.156   2.104 -0.4236  2.3914 -0.0401
35782SOL    HW213439   7.501   7.098   2.099  1.1293 -1.5966 -0.6765
35783SOL     OW13440   9.312   4.015  10.536 -0.3013 -0.3054 -0.4632
35783SOL    HW113441   9.267   4.097  10.557 -1.4978 -0.4659 -2.1817
35783SOL    HW213442   9.314   3.967  10.618 -0.7923  0.8903  0.2717
35784SOL     OW13443   4.319   1.574   2.715  0.2125 -0.5724 -0.5670
35784SOL    HW113444   4.301   1.646   2.776 -0.4995 -0.2930 -1.0934
35784SOL    HW213445   4.235   1.530   2.704  0.2957 -0.5322 -1.4443
35785SOL     OW13446  10.708   0.124   3.418 -0.0950  0.6211  0.2393
35785SOL    HW113447  10.679   0.214   3.435  0.1192  0.5375  1.0934
35785SOL    HW213448  10.645   0.069   3.464  0.4629  0.3820  0.7383
35786SOL     OW13449   4.985  10.293   4.918 -0.0117  0.0923  0.0262
35786SOL    HW113450   4.979  10.386   4.896  2.1282  0.2952  0.0526
35786SOL    HW213451   4.938  10.249   4.848 -0.1000  1.1474 -0.5986
35787SOL     OW13452   5.319  10.892   7.468  0.3948 -0.0439 -0.0843
35787SOL    HW113453   5.354  10.821   7.415 -1.9556 -3.2035  2.1886
35787SOL    HW213454   5.371  10.890   7.548 -0.3778  0.0338  0.4347
35788SOL     OW13455   0.727   0.148   4.595 -0.8545 -0.3301  0.0867
35788SOL    HW113456   0.648   0.201   4.583  0.6015  1.8300 -0.6908
35788SOL    HW213457   0.755   0.167   4.685 -1.1476 -0.9930  0.3205
35789SOL     OW13458   6.394   6.810   8.144 -0.0778  0.3202  0.2995
35789SOL    HW113459   6.434   6.755   8.076  1.5008  0.5785  0.9757
35789SOL    HW213460   6.331   6.752   8.187  0.4460 -0.4920  0.0032
35790SOL     OW13461   5.361   8.815   8.387 -0.0103  0.2062  0.2201
35790SOL    HW113462   5.446   8.810   8.343 -0.0745 -1.5590  0.2277
35790SOL    HW213463   5.338   8.908   8.383  1.3419  0.5404 -0.8663
35791SOL     OW13464   4.481   3.699   2.041 -0.2896 -0.4986 -0.3322
35791SOL    HW113465   4.547   3.708   2.110 -0.7935  1.4819 -0.0433
35791SOL    HW213466   4.404   3.662   2.086  0.1332 -1.4215 -0.3546
35792SOL     OW13467   2.196   5.665   7.762  0.5769  0.2522  0.0570
35792SOL    HW113468   2.225   5.756   7.765  1.2488  0.0323  0.5643
35792SOL    HW213469   2.252   5.624   7.697 -0.6693  0.4985 -1.2281
35793SOL     OW13470   0.560   7.001   8.889 -0.2478  0.1305 -0.0431
35793SOL    HW113471   0.584   7.088   8.921 -1.1235 -0.7585  3.3929
35793SOL    HW213472   0.640   6.970   8.845  0.8590  1.7625  0.6808
35794SOL     OW13473   3.501   8.837   0.904  0.2974  0.0616 -0.0981
35794SOL    HW113474   3.406   8.849   0.908  0.4029  0.8461  0.3374
35794SOL    HW213475   3.519   8.764   0.963 -0.1326 -0.7995 -0.9981
35795SOL     OW13476   3.381   4.303   8.402  0.1899  0.2992  0.2175
35795SOL    HW113477   3.307   4.352   8.367  0.5688 -1.0003 -2.7240
35795SOL    HW213478   3.439   4.289   8.326  1.5956 -1.9520  1.5792
35796SOL     OW13479   4.006   2.811  10.427  0.0999 -0.5514  0.0923
35796SOL    HW113480   4.001   2.730  10.477 -0.6393  0.5159  1.8554
35796SOL    HW213481   3.965   2.790  10.343  0.5781 -2.1737  0.2325
35797SOL     OW13482   3.766   8.491  10.195 -0.0263 -0.1001 -0.0863
35797SOL    HW113483   3.752   8.539  10.277 -0.6447  0.4981 -0.5314
35797SOL    HW213484   3.800   8.406  10.223  1.4485  0.7241  0.6973
35798SOL     OW13485   0.994   1.200   7.095  0.3422 -0.0738  0.0824
35798SOL    HW113486   0.918   1.238   7.139 -1.0612 -0.4932 -1.8411
35798SOL    HW213487   0.957   1.133   7.037  2.1848 -0.3718 -0.8189
35799SOL     OW13488   0.030   7.215   4.884  0.5914 -0.5005  0.0238
35799SOL    HW113489  -0.061   7.191   4.864  0.2725  0.1057  0.7149
35799SOL    HW213490   0.030   7.311   4.880  0.8924 -0.4346  1.2844
35800SOL     OW13491   4.617   1.293  10.203  0.3670 -0.1958 -0.0979
35800SOL    HW113492   4.670   1.293  10.282  1.1388 -1.1626 -0.5868
35800SOL    HW213493   4.537   1.246  10.228  0.0729  0.5881  0.4348
35801SOL     OW13494   9.768   6.065   7.451  0.2355 -0.3408 -0.7588
35801SOL    HW113495   9.853   6.034   7.483  0.0303 -1.8510 -1.6008
35801SOL    HW213496   9.780   6.160   7.439  1.3125 -0.2774  0.5784
35802SOL     OW13497   1.491   4.704   3.918 -0.7300  0.0249 -0.3113
35802SOL    HW113498   1.417   4.755   3.949 -0.6164  0.0676 -0.1124
35802SOL    HW213499   1.464   4.613   3.931 -0.4920  0.0476  0.3589
35803SOL     OW13500   2.255   8.103   0.242  0.2048 -0.2851 -0.1039
35803SOL    HW113501   2.293   8.161   0.308 -2.4223 -0.2252  1.5108
35803SOL    HW213502   2.320   8.033   0.230  2.4255  1.6925 -0.3937
35804SOL     OW13503   2.139   9.695  10.303 -0.3143 -0.3272  0.0504
35804SOL    HW113504   2.092   9.700  10.220 -1.1874  1.2453  0.6073
35804SOL    HW213505   2.228   9.723  10.281 -0.3441 -0.6385 -0.4875
35805SOL     OW13506   3.654   6.274  10.849 -0.6962 -0.6444  0.1020
35805SOL    HW113507   3.741   6.260  10.887 -0.3122 -0.4537 -0.6917
35805SOL    HW213508   3.600   6.206  10.889 -0.0677 -1.0777  0.2366
35806SOL     OW13509   5.962   1.507   4.140  0.2015 -0.7120  0.1493
35806SOL    HW113510   5.915   1.424   4.153 -0.3024 -0.6530 -1.1248
35806SOL    HW213511   5.893   1.569   4.116  0.6643 -0.0863  0.4296
35807SOL     OW13512   1.256   2.290   6.980  0.1431  0.4018  0.4865
35807SOL    HW113513   1.299   2.307   7.064 -0.5921 -1.0745  1.1860
35807SOL    HW213514   1.307   2.219   6.941 -0.1743  0.3453  0.1717
35808SOL     OW13515   1.833   8.495   6.166 -0.2583  0.4606  0.0679
35808SOL    HW113516   1.769   8.441   6.119  0.4076  0.1625 -0.5154
35808SOL    HW213517   1.781   8.565   6.205 -0.8991  0.3941 -0.6442
35809SOL     OW13518  10.015  10.458   5.976 -0.1636 -0.2245  0.1460
35809SOL    HW113519  10.097  10.463   5.926  0.5264  1.5836  1.3237
35809SOL    HW213520   9.946  10.469   5.911  0.5293 -1.3268 -0.8126
35810SOL     OW13521   5.438   7.700   1.600  0.3914 -0.0367  0.6383
35810SOL    HW113522   5.409   7.722   1.511 -1.1999  0.7219  1.2890
35810SOL    HW213523   5.380   7.628   1.626 -1.7325  2.0914  2.3009
35811SOL     OW13524   5.717   6.242   8.919  0.2553 -0.0019  0.3254
35811SOL    HW113525   5.694   6.326   8.960  1.1503  0.6617 -0.4805
35811SOL    HW213526   5.760   6.192   8.988  0.4452  0.5244  0.5937
35812SOL     OW13527   3.367   8.813   7.673 -0.5420 -0.0461 -0.1997
35812SOL    HW113528   3.390   8.835   7.583  0.3383 -0.6497 -0.1290
35812SOL    HW213529   3.376   8.895   7.721 -0.2973  0.1145 -0.5209
35813SOL     OW13530   9.541   9.284   2.659 -0.5328  0.1633 -0.9481
35813SOL    HW113531   9.531   9.247   2.571 -0.6945  1.6842 -1.6071
35813SOL    HW213532   9.605   9.228   2.702  0.2498 -0.0621 -2.3596
35814SOL     OW13533   8.385   4.297   7.648  0.4092  0.0210 -0.5026
35814SOL    HW113534   8.453   4.244   7.605  0.6349 -0.7026  0.6913
35814SOL    HW213535   8.428   4.381   7.665  0.7215 -0.1266 -0.5467
35815SOL     OW13536   0.962   3.738   7.212  0.0185 -0.0453  0.0004
35815SOL    HW113537   0.874   3.746   7.174 -0.4512  1.2393  1.3050
35815SOL    HW213538   0.970   3.645   7.233 -1.2332 -0.0977  0.3167
35816SOL     OW13539   0.504   0.198   7.839 -0.5888  0.3687  0.1271
35816SOL    HW113540   0.448   0.129   7.875  0.2410 -0.4970 -0.1776
35816SOL    HW213541   0.452   0.237   7.769 -0.8728 -0.3258 -0.0617
35817SOL     OW13542   8.271   8.884   2.044 -0.4230  0.4846 -0.0408
35817SOL    HW113543   8.249   8.934   1.965  1.8285 -1.6689 -2.1873
35817SOL    HW213544   8.226   8.800   2.033 -0.8565  0.4772  1.5099
35818SOL     OW13545   2.029   8.345   4.827  0.2991  0.6890  0.4472
35818SOL    HW113546   2.044   8.251   4.812 -0.3233  0.0431  3.3041
35818SOL    HW213547   2.115   8.385   4.818  0.6161 -0.1744 -0.5760
35819SOL     OW13548   5.095   0.818   3.950 -0.2797 -0.1947  0.3585
35819SOL    HW113549   5.023   0.762   3.920 -0.7512 -0.4512  1.8917
35819SOL    HW213550   5.126   0.776   4.030  1.1514  0.2801  0.0767
35820SOL     OW13551   8.556  10.207   7.165 -0.1816  0.0243 -0.4688
35820SOL    HW113552   8.638  10.183   7.208  0.4210  0.4316 -1.3455
35820SOL    HW213553   8.527  10.286   7.211 -0.2756 -0.3269  0.0805
35821SOL     OW13554   5.919   0.479   3.238 -0.1573  0.1150  0.6573
35821SOL    HW113555   5.870   0.409   3.194 -1.4751  1.5028 -0.1851
35821SOL    HW213556   5.935   0.445   3.326  0.8907 -1.9844 -0.2470
35822SOL     OW13557  10.800  10.925   0.871 -0.4168 -0.0973 -0.1583
35822SOL    HW113558  10.715  10.928   0.914 -0.5801  0.0342 -0.4815
35822SOL    HW213559  10.852  10.992   0.915 -0.8022  0.5144 -0.6109
35823SOL     OW13560   3.896   4.565   1.778 -0.3636  0.1200  0.1339
35823SOL    HW113561   3.855   4.638   1.825 -1.1002 -1.0853  1.4511
35823SOL    HW213562   3.846   4.488   1.805  1.1063 -1.0486 -0.3190
35824SOL     OW13563   9.539   2.403   3.214 -0.2547 -0.2561 -0.2416
35824SOL    HW113564   9.519   2.310   3.217  0.6765 -0.4496  0.6719
35824SOL    HW213565   9.463   2.445   3.255 -0.5702 -0.6246 -0.4382
35825SOL     OW13566   7.850   1.919   5.533 -0.2108 -0.5979  0.0067
35825SOL    HW113567   7.852   1.869   5.615 -0.1723  0.1100  0.4405
35825SOL    HW213568   7.924   1.979   5.540 -1.5575  1.0838  0.4946
35826SOL     OW13569   4.060   0.605  10.295 -0.0853  0.4314  0.0244
35826SOL    HW113570   4.015   0.686  10.316  1.4138  1.1067  0.7721
35826SOL    HW213571   3.992   0.548  10.259 -1.4525  1.4895  0.8566
35827SOL     OW13572  10.537   4.630   4.090  0.0825 -0.3282 -0.3938
35827SOL    HW113573  10.480   4.561   4.126 -1.7911 -0.2040 -2.8917
35827SOL    HW213574  10.625   4.603   4.117 -0.8490 -2.1138  1.1685
35828SOL     OW13575   8.379   5.025   9.654 -0.9878  0.1376 -0.2362
35828SOL    HW113576   8.420   4.947   9.615  0.8055  0.6044  0.6201
35828SOL    HW213577   8.411   5.098   9.600 -0.6572  0.5106  0.4577
35829SOL     OW13578   2.191   6.225   5.749 -0.3984 -0.2258  0.2226
35829SOL    HW113579   2.164   6.221   5.841 -0.8597 -1.9850  0.0522
35829SOL    HW213580   2.188   6.318   5.727  0.9668  0.4050  2.3290
35830SOL     OW13581   1.753  10.118   3.592 -0.7426  0.0999 -0.3275
35830SOL    HW113582   1.800  10.200   3.576 -1.4827  0.4219 -0.9214
35830SOL    HW213583   1.687  10.140   3.657 -1.0176  0.0064 -0.5730
35831SOL     OW13584   5.070   9.552   1.266  0.2213  0.2651 -0.0645
35831SOL    HW113585   5.111   9.537   1.181  0.8095  0.7144  0.1342
35831SOL    HW213586   5.127   9.506   1.328  1.1802  1.9599  0.3715
35832SOL     OW13587   7.651   8.131   3.315  0.0127  0.1267 -1.0576
35832SOL    HW113588   7.679   8.120   3.224  0.9287  0.1846 -0.7945
35832SOL    HW213589   7.631   8.043   3.345  0.3146  0.0297 -1.1346
35833SOL     OW13590   9.516  10.368  10.286 -0.6318 -0.2514 -0.1314
35833SOL    HW113591   9.486  10.307  10.353 -1.7695  1.2936  0.8424
35833SOL    HW213592   9.449  10.363  10.217 -1.3106  0.6308  0.4377
35834SOL     OW13593   4.459   3.966   1.961  0.0538 -0.2265  0.1826
35834SOL    HW113594   4.432   3.879   1.993  0.0828  0.2010  1.4174
35834SOL    HW213595   4.377   4.007   1.934  0.2999 -1.6985 -3.3319
35835SOL     OW13596  10.396   9.928   8.385  0.1259 -0.0396  0.3496
35835SOL    HW113597  10.480   9.884   8.397  0.8402  0.3587 -2.4232
35835SOL    HW213598  10.364   9.897   8.300 -2.0609  0.5838  0.8783
35836SOL     OW13599   7.611   7.113   8.571  0.4603 -0.0877 -0.1712
35836SOL    HW113600   7.607   7.196   8.619  1.5834 -0.3869  0.4696
35836SOL    HW213601   7.569   7.132   8.487 -0.6598  0.7034  0.5462
35837SOL     OW13602   8.737   1.547   5.592 -0.5278  0.2501 -0.3663
35837SOL    HW113603   8.646   1.517   5.585 -0.4842  0.2000 -0.7043
35837SOL    HW213604   8.787   1.483   5.541 -0.3263  0.3934 -0.3449
35838SOL     OW13605   0.914   4.405  10.810  0.7128  0.0799 -0.0423
35838SOL    HW113606   0.896   4.314  10.835  0.1175 -0.1076 -1.1185
35838SOL    HW213607   0.988   4.431  10.866 -0.8717 -0.1437  2.2987
35839SOL     OW13608   4.105   6.077   2.735  0.1853 -0.5272  0.0657
35839SOL    HW113609   4.105   6.172   2.723 -0.4807 -0.5331 -0.0483
35839SOL    HW213610   4.052   6.063   2.814  2.0650 -0.6836  1.3772
35840SOL     OW13611  10.035  10.665   9.205 -0.6299  0.6970 -0.2745
35840SOL    HW113612   9.951  10.677   9.250 -1.2553 -0.4897 -1.0608
35840SOL    HW213613  10.087  10.610   9.264 -0.7662  0.6592 -0.1895
35841SOL     OW13614   3.526   5.509   5.358 -0.1454 -0.0096 -0.1302
35841SOL    HW113615   3.519   5.416   5.337  1.8501 -0.5382  1.1805
35841SOL    HW213616   3.440   5.533   5.392 -0.9654 -1.1136 -1.3438
35842SOL     OW13617   2.778   4.722   5.430  0.2739  0.4023  0.5591
35842SOL    HW113618   2.693   4.741   5.469  0.2665 -0.1995  0.8619
35842SOL    HW213619   2.795   4.794   5.370  0.0045  1.0377  1.2371
35843SOL     OW13620   3.687   4.417   4.062 -0.5792 -0.0995  0.3865
35843SOL    HW113621   3.608   4.427   4.115 -0.0190 -0.1402  1.2372
35843SOL    HW213622   3.676   4.334   4.017 -1.2948  0.1833  0.0234
35844SOL     OW13623  10.400   1.261   8.502 -0.3573 -0.3573 -0.2975
35844SOL    HW113624  10.363   1.188   8.550 -0.6212 -1.1311 -1.6077
35844SOL    HW213625  10.442   1.316   8.568 -2.2003 -0.4358  0.9879
35845SOL     OW13626   6.508   6.401   9.655  0.4210  0.3298 -0.4819
35845SOL    HW113627   6.490   6.310   9.633  0.0660  0.9902 -3.2952
35845SOL    HW213628   6.595   6.418   9.618 -0.0731  1.4655 -1.1634
35846SOL     OW13629   3.280   2.530   5.169 -0.2363  0.3958  0.2769
35846SOL    HW113630   3.242   2.464   5.111 -1.3896  0.5600  0.8126
35846SOL    HW213631   3.367   2.498   5.188  0.2372  0.4107 -1.6503
35847SOL     OW13632   5.941   3.135   8.331 -0.0991  0.2192 -0.0971
35847SOL    HW113633   5.920   3.061   8.274 -1.6753 -0.9003  1.8218
35847SOL    HW213634   5.895   3.209   8.291 -0.6387 -0.3924 -0.6437
35848SOL     OW13635   5.474   9.471   0.988  0.0222 -0.1255  0.0945
35848SOL    HW113636   5.521   9.510   1.062  1.7301 -0.2718 -0.8628
35848SOL    HW213637   5.493   9.529   0.915 -0.9677 -0.4377 -0.4270
35849SOL     OW13638   1.701   5.571   8.611 -0.1449 -0.1775 -0.1517
35849SOL    HW113639   1.607   5.565   8.593  0.3915 -1.9231 -3.0129
35849SOL    HW213640   1.729   5.651   8.565 -0.1488  0.1714  0.4389
35850SOL     OW13641  10.483   2.038   2.794  0.2313  0.0246 -0.2291
35850SOL    HW113642  10.445   1.974   2.853  2.5336 -1.8589 -0.6578
35850SOL    HW213643  10.476   1.999   2.707  1.5711  0.3837 -0.5228
35851SOL     OW13644   9.890   5.624   7.058  0.2790  0.9914 -0.0738
35851SOL    HW113645   9.936   5.630   6.974 -1.7224  1.3366 -1.1978
35851SOL    HW213646   9.955   5.655   7.122  2.0786  0.0932 -1.3587
35852SOL     OW13647   7.174   9.655   9.560 -0.5674 -0.1549 -0.1969
35852SOL    HW113648   7.170   9.697   9.474 -0.5584 -2.1199 -1.2194
35852SOL    HW213649   7.099   9.691   9.608 -1.4255 -0.0683 -1.5495
35853SOL     OW13650   5.161   1.272   9.037 -0.0602 -0.3443 -0.4250
35853SOL    HW113651   5.124   1.276   9.126  0.4731  0.3148 -0.2222
35853SOL    HW213652   5.105   1.210   8.991 -1.8185  1.0504 -0.3006
35854SOL     OW13653   8.947   2.063   6.819  0.3063  0.6305  0.0853
35854SOL    HW113654   8.904   2.088   6.737 -0.6186  1.4811  0.8169
35854SOL    HW213655   9.019   2.126   6.828  0.1672  0.7816  0.1313
35855SOL     OW13656   0.141   0.302   7.939  0.4824 -0.0155  0.7716
35855SOL    HW113657   0.160   0.389   7.974  1.8183 -0.2284  0.6413
35855SOL    HW213658   0.072   0.267   7.996 -0.4213  1.3086  0.5144
35856SOL     OW13659  10.493   7.908   7.854  0.0853 -0.2423 -0.1236
35856SOL    HW113660  10.526   7.941   7.937 -0.5463  0.9056 -0.3112
35856SOL    HW213661  10.525   7.818   7.850  2.4440  0.5354  0.0731
35857SOL     OW13662   8.797  10.466   5.317 -0.5782  0.7818 -0.1293
35857SOL    HW113663   8.798  10.558   5.288 -0.4850  0.7366 -0.2728
35857SOL    HW213664   8.885  10.434   5.296 -0.8228  0.4670 -0.7095
35858SOL     OW13665   6.490   3.073  10.243  0.2573 -0.0648 -0.0304
35858SOL    HW113666   6.424   3.005  10.257 -0.4556  0.9401  1.8020
35858SOL    HW213667   6.573   3.030  10.264 -0.0592 -0.6668  0.0118
35859SOL     OW13668  10.090   2.916   5.985  0.2049 -0.0518 -0.3144
35859SOL    HW113669  10.099   2.838   6.040 -0.0312  0.2135  0.1005
35859SOL    HW213670  10.178   2.955   5.984  1.1186 -1.9011 -2.9194
35860SOL     OW13671   9.229  10.342   3.132  0.2077  0.3723  0.1068
35860SOL    HW113672   9.262  10.392   3.057  0.0892  0.9723  0.4531
35860SOL    HW213673   9.288  10.267   3.138 -1.3164 -1.1374 -2.2142
35861SOL     OW13674   2.796   1.186   8.107 -0.2648  0.2730  0.4617
35861SOL    HW113675   2.884   1.154   8.087  0.4293  1.6612  1.1474
35861SOL    HW213676   2.762   1.123   8.170  0.2255 -0.2791  0.1893
35862SOL     OW13677   6.277   6.119   0.851  0.1547 -0.2898 -0.1252
35862SOL    HW113678   6.292   6.092   0.760  0.7026  0.7025 -0.3392
35862SOL    HW213679   6.182   6.114   0.863  0.1071 -0.7124 -0.6492
35863SOL     OW13680   9.622  10.466   2.034  0.3145 -0.2766 -0.2243
35863SOL    HW113681   9.651  10.556   2.014 -1.3149  0.5937  1.1222
35863SOL    HW213682   9.613  10.425   1.948  1.2011  0.7894 -0.8695
35864SOL     OW13683   6.356   2.739  10.535  0.1549  0.3085 -0.2231
35864SOL    HW113684   6.429   2.681  10.556  1.5473  2.1842  0.4006
35864SOL    HW213685   6.278   2.689  10.560  1.1899 -1.7199 -0.8304
35865SOL     OW13686  10.812   0.649   4.510  0.3267  0.0840 -0.1042
35865SOL    HW113687  10.768   0.609   4.584  0.7841 -0.5501 -0.1683
35865SOL    HW213688  10.834   0.576   4.452 -0.3814  0.6090 -1.0570
35866SOL     OW13689   6.550   6.996   7.020 -0.0368 -0.5574  0.5891
35866SOL    HW113690   6.521   7.012   6.930  0.2487 -1.5139  0.3238
35866SOL    HW213691   6.580   7.082   7.051  0.2340 -0.3048 -0.3591
35867SOL     OW13692  10.251   2.113   3.432 -0.6999 -0.2863  0.2197
35867SOL    HW113693  10.262   2.119   3.337 -0.9265 -1.3328  0.1115
35867SOL    HW213694  10.331   2.151   3.468 -0.6617  0.2237 -0.3802
35868SOL     OW13695   8.977   0.746   2.522 -0.0237 -0.0183  0.1656
35868SOL    HW113696   8.987   0.697   2.604  1.4366 -1.7728 -0.9752
35868SOL    HW213697   8.955   0.679   2.457  0.2131  1.1333 -1.1383
35869SOL     OW13698   8.919   0.415   5.481 -0.0791  0.2370  0.3481
35869SOL    HW113699   8.999   0.416   5.532  1.0528 -0.3396 -1.3463
35869SOL    HW213700   8.947   0.425   5.390 -2.0528  1.9041 -0.1827
35870SOL     OW13701   7.216   2.398   1.661 -0.0133 -0.5887 -0.2801
35870SOL    HW113702   7.190   2.313   1.623 -0.0515 -0.2527 -1.0245
35870SOL    HW213703   7.279   2.375   1.729 -0.3124 -1.2434 -0.2103
35871SOL     OW13704   6.179  10.443   2.552 -1.0860 -0.4366  0.0317
35871SOL    HW113705   6.217  10.494   2.624 -0.3468 -0.7186 -0.1493
35871SOL    HW213706   6.201  10.492   2.473  0.5553 -1.5534 -0.2361
35872SOL     OW13707   5.454   7.500   9.169 -0.2702 -0.1926  0.2215
35872SOL    HW113708   5.413   7.502   9.256 -2.2411  2.5549 -0.6541
35872SOL    HW213709   5.529   7.559   9.177  0.5555 -1.2456  0.4545
35873SOL     OW13710   9.517   1.497   3.927  1.1031 -0.5985 -0.0624
35873SOL    HW113711   9.488   1.525   3.840 -0.6196 -0.2961  0.5511
35873SOL    HW213712   9.506   1.402   3.927  2.1451 -0.7276 -0.5135
35874SOL     OW13713   7.553  10.919   1.469  0.4672 -0.4707  0.1224
35874SOL    HW113714   7.548  11.008   1.503  1.4702 -0.1256 -0.5947
35874SOL    HW213715   7.465  10.883   1.481  0.4791  0.0248  1.9938
35875SOL     OW13716   2.244   0.393   5.923  0.3582 -0.0439  0.3880
35875SOL    HW113717   2.195   0.321   5.963  1.1963 -0.7845  0.1104
35875SOL    HW213718   2.203   0.405   5.837 -0.6628  0.7438  0.9582
35876SOL     OW13719  10.551   2.405   9.701 -0.2119 -0.1692 -0.2089
35876SOL    HW113720  10.568   2.469   9.633  0.3129 -0.2779 -0.1884
35876SOL    HW213721  10.490   2.448   9.761  0.9204  0.7166  0.3647
35877SOL     OW13722   0.473   1.187   1.148 -0.4012 -0.2279 -0.1578
35877SOL    HW113723   0.562   1.180   1.115 -0.9942 -0.0761 -1.9130
35877SOL    HW213724   0.426   1.114   1.106 -0.7133 -1.4933  2.2335
35878SOL     OW13725   2.434   9.113   7.758 -0.6368  0.4683 -0.2621
35878SOL    HW113726   2.367   9.048   7.778  0.6983 -0.7479  0.5381
35878SOL    HW213727   2.492   9.069   7.696 -0.7211  1.6013 -1.1737
35879SOL     OW13728   3.060   6.036   3.815  0.2617  0.4645  0.3920
35879SOL    HW113729   2.966   6.022   3.830  0.0901  0.9310 -0.2031
35879SOL    HW213730   3.098   5.948   3.816 -0.3302  0.1868 -0.3246
35880SOL     OW13731   2.385   1.039  10.178  0.5886 -0.0462 -0.6384
35880SOL    HW113732   2.323   0.967  10.167  0.7498 -0.2791 -0.0917
35880SOL    HW213733   2.455   1.001  10.231 -0.5204  1.1761  1.8715
35881SOL     OW13734   2.595   7.168  10.505 -0.1669  0.0228 -0.3290
35881SOL    HW113735   2.656   7.184  10.434  0.2334  1.9526  0.3941
35881SOL    HW213736   2.649   7.132  10.576 -0.3992 -0.9544 -0.6206
35882SOL     OW13737   1.435   1.465   1.975  0.2700  0.2425  0.6706
35882SOL    HW113738   1.432   1.420   2.060  2.9295 -1.3840  0.0481
35882SOL    HW213739   1.375   1.415   1.920 -0.5209  0.5360  1.2412
35883SOL     OW13740   2.941   2.887   0.583 -0.4758  0.1050  0.2389
35883SOL    HW113741   2.927   2.940   0.505  0.9287  0.4829  0.2184
35883SOL    HW213742   2.932   2.949   0.656 -0.8966 -0.0693  0.3417
35884SOL     OW13743   5.588   4.840   3.375  0.2057  0.0001 -0.5783
35884SOL    HW113744   5.668   4.796   3.404  1.5005  1.4842 -1.7118
35884SOL    HW213745   5.597   4.845   3.280 -0.5838  1.4236 -0.6025
35885SOL     OW13746   8.347   2.084  10.264 -0.3035  0.3526  0.0040
35885SOL    HW113747   8.436   2.073  10.232 -0.5064 -0.6033 -0.2600
35885SOL    HW213748   8.353   2.072  10.358  0.2019  2.5918  0.3114
35886SOL     OW13749   5.762   6.186   4.052  0.2038  0.4677  0.4934
35886SOL    HW113750   5.705   6.259   4.028 -0.7523 -0.1487  0.8561
35886SOL    HW213751   5.703   6.117   4.080  1.1658  0.0678  1.6168
35887SOL     OW13752   1.328  10.310   9.208  0.1326 -0.4100  0.3245
35887SOL    HW113753   1.291  10.288   9.294 -0.9059  3.9673  1.2353
35887SOL    HW213754   1.390  10.381   9.227  0.9638 -0.2896 -2.4332
35888SOL     OW13755   3.028   1.531   2.646 -0.5655  0.0021 -0.1149
35888SOL    HW113756   2.951   1.555   2.595 -0.9324  0.6068  0.7050
35888SOL    HW213757   2.996   1.520   2.735 -0.0270 -1.5593 -0.0830
35889SOL     OW13758   9.024   8.741  10.023 -0.1443  0.1913 -0.2033
35889SOL    HW113759   8.994   8.684  10.092  0.7097  0.3620  0.3301
35889SOL    HW213760   8.968   8.818  10.028 -1.6706 -0.7940 -1.2879
35890SOL     OW13761   2.083   5.345   1.048  0.4187 -0.1919  0.5930
35890SOL    HW113762   2.037   5.371   1.128 -0.8487 -0.5245  0.0025
35890SOL    HW213763   2.119   5.426   1.014  1.8045 -0.1777  1.9773
35891SOL     OW13764   3.425   2.990   3.331  0.5077 -0.7100 -0.2879
35891SOL    HW113765   3.476   3.053   3.281 -0.0157 -0.2925 -0.2967
35891SOL    HW213766   3.335   3.007   3.307  0.4675 -3.7638 -3.0538
35892SOL     OW13767   1.002   6.825   0.969  0.5763  0.1695 -0.3114
35892SOL    HW113768   1.071   6.763   0.992  0.9704  0.4274 -0.7899
35892SOL    HW213769   0.969   6.794   0.885 -1.2030 -1.0598  0.7874
35893SOL     OW13770   5.082   7.456   5.834  0.1129  0.3443 -0.1906
35893SOL    HW113771   5.104   7.507   5.755 -0.6009  1.7605  0.4894
35893SOL    HW213772   5.132   7.375   5.824 -1.8048 -0.6371 -3.2945
35894SOL     OW13773   3.926   2.195   0.790 -0.0815 -0.0524 -0.1108
35894SOL    HW113774   3.903   2.103   0.775  1.4873 -0.4603 -0.1807
35894SOL    HW213775   4.002   2.211   0.733 -0.4727  1.3578 -0.2681
35895SOL     OW13776   4.807   4.499   3.381 -0.1711  0.7448 -0.0040
35895SOL    HW113777   4.790   4.548   3.301 -0.5211  1.4184  0.4735
35895SOL    HW213778   4.864   4.556   3.433  0.0943  0.2924  0.2074
35896SOL     OW13779   7.949   4.498   5.824 -0.2490 -0.7381 -0.9296
35896SOL    HW113780   8.038   4.506   5.789  1.1233 -0.2703  2.3102
35896SOL    HW213781   7.919   4.589   5.835 -0.4070 -0.8457 -0.4264
35897SOL     OW13782   8.357   9.180   0.079 -0.1112 -0.2959 -0.6006
35897SOL    HW113783   8.351   9.188   0.174  1.3369 -1.3512 -0.3705
35897SOL    HW213784   8.290   9.239   0.045  0.3751  1.3079  1.0411
35898SOL     OW13785   0.176   4.891   6.175  0.2486 -0.0026  0.2050
35898SOL    HW113786   0.235   4.819   6.154 -0.9021 -0.6087 -1.1025
35898SOL    HW213787   0.213   4.966   6.128  2.3663  0.7733  2.8457
35899SOL     OW13788   2.102   9.677   3.242 -0.1596 -0.1854  0.1243
35899SOL    HW113789   2.072   9.588   3.258 -0.1954 -0.1759  0.1084
35899SOL    HW213790   2.103   9.686   3.147  0.8709 -0.5214  0.0930
35900SOL     OW13791   8.297   1.528   8.670  0.1512 -0.5727  0.1572
35900SOL    HW113792   8.356   1.491   8.735 -1.2069  0.5015  2.1194
35900SOL    HW213793   8.314   1.622   8.672  1.0321 -0.6138 -2.1071
35901SOL     OW13794   3.871   7.927   1.803  0.5494  0.4650 -0.5796
35901SOL    HW113795   3.777   7.947   1.801  0.0802 -1.5938 -0.9442
35901SOL    HW213796   3.912   8.001   1.759 -0.6839  2.3739  1.2928
35902SOL     OW13797   3.200   0.027   1.647  0.2440 -0.0015  0.5142
35902SOL    HW113798   3.238   0.099   1.597 -0.6018 -0.6477 -1.1015
35902SOL    HW213799   3.119   0.062   1.682  1.8251  1.1662  3.4209
35903SOL     OW13800   1.121   9.833   4.686 -0.0706 -0.4856  1.3233
35903SOL    HW113801   1.060   9.784   4.740  0.5769 -0.8968  1.6971
35903SOL    HW213802   1.145   9.909   4.740  0.8591 -1.0884  1.7869
35904SOL     OW13803   9.860  10.736   7.777 -0.2356  0.2637 -0.0851
35904SOL    HW113804   9.880  10.650   7.740 -1.3214  0.0184 -0.1252
35904SOL    HW213805   9.860  10.795   7.701  0.9869  0.4037  0.0047
35905SOL     OW13806   6.110   9.727   6.565  0.2319 -0.4304  0.1888
35905SOL    HW113807   6.079   9.742   6.476  0.3820 -2.5499 -0.2700
35905SOL    HW213808   6.050   9.661   6.600  0.3414  0.1724  1.5736
35906SOL     OW13809   4.300   4.751   6.397  0.6265  0.2785  0.0851
35906SOL    HW113810   4.262   4.773   6.482 -0.3710 -1.4385  0.1411
35906SOL    HW213811   4.365   4.819   6.381  0.9184  0.5851  2.2734
35907SOL     OW13812   4.643   1.402   0.042 -0.7003  0.5089 -0.0180
35907SOL    HW113813   4.577   1.403  -0.027  0.3012 -3.0065 -1.1954
35907SOL    HW213814   4.594   1.427   0.121 -3.2782 -1.1135 -0.9821
35908SOL     OW13815   0.138   1.434   7.861 -0.0075  0.4937 -0.3300
35908SOL    HW113816   0.106   1.377   7.792 -0.3798  1.1850 -0.7420
35908SOL    HW213817   0.123   1.385   7.942  0.7032 -0.4373 -0.7532
35909SOL     OW13818   4.203   1.545   8.265  0.3040 -0.5729  0.8464
35909SOL    HW113819   4.134   1.598   8.306  1.0661  0.4758  0.7934
35909SOL    HW213820   4.174   1.534   8.174  0.4830  0.3471  0.6762
35910SOL     OW13821   5.302  10.653   3.357  0.4055 -0.7777 -0.4976
35910SOL    HW113822   5.302  10.612   3.270  0.9877 -0.6656 -0.5513
35910SOL    HW213823   5.384  10.626   3.397  0.4895 -0.2025 -0.2758
35911SOL     OW13824   3.689   7.019   2.730 -0.4266 -0.7585  0.1057
35911SOL    HW113825   3.754   7.009   2.660  0.3137 -1.1668  0.8352
35911SOL    HW213826   3.605   7.008   2.686  0.0051 -0.5863 -0.7960
35912SOL     OW13827   5.608   9.986   1.649 -0.4206 -0.0592 -0.4913
35912SOL    HW113828   5.658  10.039   1.587 -0.3689 -0.4533 -0.7848
35912SOL    HW213829   5.528   9.962   1.602 -0.4296 -0.2698 -0.3683
35913SOL     OW13830   8.780   5.325   9.037  0.1449 -0.2771 -0.7143
35913SOL    HW113831   8.809   5.249   8.986 -2.5048  0.0177 -2.9199
35913SOL    HW213832   8.713   5.289   9.095 -0.9552  0.2795 -1.6061
35914SOL     OW13833   2.894   0.626   3.517 -0.2576 -0.6937 -0.6472
35914SOL    HW113834   2.910   0.531   3.516 -0.2122 -0.7127  0.3791
35914SOL    HW213835   2.970   0.662   3.562 -0.0585 -0.1095 -1.4378
35915SOL     OW13836   5.483   4.390   3.513  0.8019  0.1737 -0.2520
35915SOL    HW113837   5.471   4.465   3.571  2.0210  0.5390 -0.4537
35915SOL    HW213838   5.425   4.323   3.549 -0.0673  1.0853  0.1190
35916SOL     OW13839   5.843   9.869   5.433 -0.1495 -0.1112 -0.7026
35916SOL    HW113840   5.818   9.920   5.511  1.2906 -1.1505  0.4961
35916SOL    HW213841   5.852   9.935   5.364 -0.7266  0.9391  0.1792
35917SOL     OW13842  10.226   0.828   8.715  0.0566 -0.3632  0.5254
35917SOL    HW113843  10.255   0.918   8.700 -1.0811  0.1707  1.2842
35917SOL    HW213844  10.228   0.787   8.629  1.9207 -0.0526  0.3727
35918SOL     OW13845   8.262   1.642   6.741  0.5866  0.3319 -0.1175
35918SOL    HW113846   8.317   1.598   6.806 -0.5702 -0.2085  0.5314
35918SOL    HW213847   8.312   1.719   6.716  2.2104 -0.7898 -0.5107
35919SOL     OW13848   9.708   0.824   0.817  0.3153  0.1062 -0.6200
35919SOL    HW113849   9.771   0.842   0.748 -0.5226 -0.2746 -1.5108
35919SOL    HW213850   9.663   0.908   0.831  1.4371  0.5523  0.4856
35920SOL     OW13851   8.480   0.111   0.471  0.2988  0.2318  0.2994
35920SOL    HW113852   8.448   0.158   0.547  2.9178 -1.6907  2.8146
35920SOL    HW213853   8.500   0.179   0.406 -0.1554  2.1349  2.0726
35921SOL     OW13854   5.445   1.444   5.252  0.5086  0.2032 -0.1539
35921SOL    HW113855   5.446   1.441   5.347 -0.5614  1.2553 -0.0856
35921SOL    HW213856   5.443   1.352   5.224 -1.1963 -0.1113  0.8876
35922SOL     OW13857   4.623   9.473  10.502 -0.3547 -0.2508 -0.3936
35922SOL    HW113858   4.655   9.394  10.460 -0.7617  0.3186 -1.8157
35922SOL    HW213859   4.546   9.499  10.451 -0.1995  1.0956  0.0041
35923SOL     OW13860   8.826  10.335   2.511  0.9437 -0.3262 -0.4024
35923SOL    HW113861   8.861  10.253   2.476  1.2315 -0.4610  0.1843
35923SOL    HW213862   8.827  10.323   2.606 -0.4702 -0.2354 -0.3585
35924SOL     OW13863   1.401   8.891   9.234  0.0625 -0.6860  0.6413
35924SOL    HW113864   1.390   8.803   9.270  1.1439 -1.4379 -0.7891
35924SOL    HW213865   1.487   8.890   9.192 -0.5836  0.5493 -0.8153
35925SOL     OW13866   1.703   7.074   9.693 -0.0729  0.1682 -0.1815
35925SOL    HW113867   1.613   7.106   9.698  0.0080  0.2680  0.7105
35925SOL    HW213868   1.741   7.122   9.620 -0.1192  1.7165  0.7817
35926SOL     OW13869   2.754   3.621   8.078 -0.1208  0.0850  0.2275
35926SOL    HW113870   2.840   3.584   8.058 -0.5625 -1.0377  0.3471
35926SOL    HW213871   2.705   3.550   8.118 -1.1527  0.6737  0.0633
35927SOL     OW13872   3.308   7.325   1.109  0.7004  0.6311 -0.1667
35927SOL    HW113873   3.360   7.263   1.058 -1.1151  0.3986 -1.8818
35927SOL    HW213874   3.224   7.280   1.122  0.1431  1.8472  0.5781
35928SOL     OW13875   4.288   5.015   0.411  0.5127 -0.1723 -0.0778
35928SOL    HW113876   4.207   4.974   0.439 -0.0802  1.2992  0.4595
35928SOL    HW213877   4.287   5.006   0.315 -0.6443  0.4401 -0.1437
35929SOL     OW13878   5.887   9.785   8.980 -0.0010 -0.1669  0.2120
35929SOL    HW113879   5.884   9.847   9.053  2.5693 -1.9128  1.9358
35929SOL    HW213880   5.971   9.802   8.938 -0.5694 -0.5722 -1.1435
35930SOL     OW13881   7.580   5.642   0.282 -0.3827 -0.6768  0.5317
35930SOL    HW113882   7.567   5.698   0.359 -0.0293  0.6312 -0.3212
35930SOL    HW213883   7.498   5.594   0.273 -0.3796 -0.9602  1.7911
35931SOL     OW13884   7.545   8.279   3.563  0.7879  0.1229  0.4402
35931SOL    HW113885   7.597   8.206   3.532  0.8175  0.7401 -1.0520
35931SOL    HW213886   7.455   8.246   3.563  0.6376  0.4200 -1.4487
35932SOL     OW13887   6.334   2.831  10.281  0.3907 -0.0969  0.2962
35932SOL    HW113888   6.349   2.805  10.372 -0.0517  0.4499  0.5312
35932SOL    HW213889   6.241   2.851  10.277  0.4970  0.3362 -0.1622
35933SOL     OW13890   7.637   9.074   6.515  0.3403 -0.4254  0.0589
35933SOL    HW113891   7.622   9.091   6.608  1.9806  0.8230  0.1559
35933SOL    HW213892   7.651   9.161   6.477 -2.3869 -0.6779 -1.8294
35934SOL     OW13893   4.676   5.710   1.103 -0.5154  0.1739 -0.5391
35934SOL    HW113894   4.592   5.727   1.060 -0.7086 -1.9237 -1.1020
35934SOL    HW213895   4.717   5.642   1.049  0.8881  0.1056  0.5549
35935SOL     OW13896   8.025   1.894   0.531 -0.1851  0.0800  0.0820
35935SOL    HW113897   7.939   1.852   0.539 -0.4705  0.5239 -0.6501
35935SOL    HW213898   8.073   1.839   0.469  0.3994 -0.6989  1.1904
35936SOL     OW13899   6.474  10.535   7.659  0.2579  0.1663 -0.0722
35936SOL    HW113900   6.510  10.517   7.745  0.5696 -0.9038 -0.4094
35936SOL    HW213901   6.396  10.480   7.653 -0.1918  0.7961 -0.1989
35937SOL     OW13902  10.524   5.031   0.162  0.1281 -0.1310  0.4929
35937SOL    HW113903  10.560   5.019   0.074 -1.0840 -3.4439  0.2967
35937SOL    HW213904  10.453   5.094   0.151  0.8971  0.5812 -0.5798
35938SOL     OW13905   2.969  10.620   0.033  0.0287  0.3031  0.4279
35938SOL    HW113906   3.001  10.703  -0.002 -0.7754  1.6219  2.6377
35938SOL    HW213907   2.877  10.617   0.009  0.2245 -0.3721 -0.3125
35939SOL     OW13908   3.983   6.483   6.622 -0.0535 -0.5589 -0.4068
35939SOL    HW113909   4.063   6.444   6.658  1.5386  1.0761 -1.9424
35939SOL    HW213910   3.957   6.548   6.688  0.7631 -0.0750 -0.5464
35940SOL     OW13911   1.373   0.539   3.298 -0.0479 -0.1373 -0.0454
35940SOL    HW113912   1.330   0.566   3.218 -0.1356  1.2086  0.4266
35940SOL    HW213913   1.399   0.448   3.283 -2.4363 -0.7856 -0.5872
35941SOL     OW13914   9.546   2.893   5.978 -0.0863  0.6055 -0.2280
35941SOL    HW113915   9.571   2.965   5.920  1.0533  1.0724  0.8059
35941SOL    HW213916   9.563   2.814   5.928 -1.9948  1.0061 -1.6402
35942SOL     OW13917   2.260   2.394   9.704  0.1734 -0.0483  0.0133
35942SOL    HW113918   2.235   2.397   9.612 -0.4069  0.3586  0.1736
35942SOL    HW213919   2.314   2.316   9.712  0.9642  0.3843 -0.8542
35943SOL     OW13920   8.557   0.431   1.361 -0.0903 -0.2977  0.2669
35943SOL    HW113921   8.628   0.372   1.336  0.2208 -0.3138  1.1535
35943SOL    HW213922   8.491   0.420   1.292  1.2881  0.6626 -1.2756
35944SOL     OW13923   8.952   8.828   9.513 -0.2264  0.1135  0.4098
35944SOL    HW113924   8.974   8.907   9.463 -1.5025 -0.2321 -0.7473
35944SOL    HW213925   8.957   8.757   9.450 -0.8432 -0.4836  1.0133
35945SOL     OW13926  10.152   2.191   1.230 -0.2344  0.0028  0.2235
35945SOL    HW113927  10.177   2.167   1.319  1.3640  0.3138 -0.1055
35945SOL    HW213928  10.224   2.247   1.199 -0.0878 -1.1752 -1.7277
35946SOL     OW13929   7.864   1.936   4.794 -0.0681  0.6996 -0.4082
35946SOL    HW113930   7.902   1.930   4.881 -0.6859  1.5647 -0.0572
35946SOL    HW213931   7.934   1.910   4.734  0.4024  0.2387  0.3351
35947SOL     OW13932   8.204   1.315   1.437 -0.0391 -0.0168 -0.1981
35947SOL    HW113933   8.229   1.230   1.473  2.9931  0.3924 -1.0776
35947SOL    HW213934   8.186   1.298   1.344  0.1826  0.2351 -0.2889
35948SOL     OW13935   2.820   6.534   6.588  0.6188  0.0555 -0.2258
35948SOL    HW113936   2.776   6.572   6.511  0.3171 -0.4945 -0.3323
35948SOL    HW213937   2.760   6.466   6.618  0.3848  0.7558  0.9475
35949SOL     OW13938   6.155   5.205   7.189  0.4314 -0.0277 -0.0384
35949SOL    HW113939   6.207   5.285   7.198  0.6718 -0.0968 -0.7536
35949SOL    HW213940   6.203   5.140   7.241  0.9240 -0.0240 -0.4803
35950SOL     OW13941   5.334   0.144   4.781  0.4652  0.0875 -0.3684
35950SOL    HW113942   5.317   0.050   4.792  1.3717 -0.1839 -1.2356
35950SOL    HW213943   5.258   0.186   4.822 -0.7840 -1.0427 -1.4221
35951SOL     OW13944   1.397   4.070   2.147  0.0423  0.1173  0.1236
35951SOL    HW113945   1.339   4.024   2.206 -0.8063 -1.3120 -1.7300
35951SOL    HW213946   1.339   4.110   2.082  1.0029  0.6133 -0.4553
35952SOL     OW13947   9.950   0.205   0.778 -0.2928  0.2998 -0.0184
35952SOL    HW113948   9.865   0.223   0.817 -0.3856  1.6133 -0.7397
35952SOL    HW213949  10.013   0.248   0.836 -0.3252  1.1457 -0.5837
35953SOL     OW13950   1.558  10.610   7.802  0.0539  0.2164  0.1264
35953SOL    HW113951   1.587  10.700   7.787 -1.8100  0.9277  0.5200
35953SOL    HW213952   1.618  10.576   7.869  0.8294  1.1377 -0.0930
35954SOL     OW13953   8.869   2.221   6.124  0.0445 -0.1042  0.1497
35954SOL    HW113954   8.840   2.312   6.116 -0.7247 -0.4463 -1.1529
35954SOL    HW213955   8.819   2.174   6.057  2.5504 -0.9748 -1.2395
35955SOL     OW13956   4.187   2.483  10.818 -0.7949  0.4545 -0.0595
35955SOL    HW113957   4.230   2.547  10.762 -0.7222 -0.1901 -0.7530
35955SOL    HW213958   4.224   2.399  10.792 -1.7587 -0.0075  0.0030
35956SOL     OW13959   5.394   5.118   7.815  0.1491  0.3835  0.2946
35956SOL    HW113960   5.474   5.170   7.806 -0.1823  1.0932  1.3014
35956SOL    HW213961   5.377   5.117   7.909  0.9034 -2.7260  0.5061
35957SOL     OW13962   7.051   7.649   6.038 -0.2808 -0.5103 -0.0415
35957SOL    HW113963   6.996   7.630   5.962 -1.8100  1.0016  0.6314
35957SOL    HW213964   7.088   7.736   6.020 -0.7247 -0.1003  0.9550
35958SOL     OW13965   2.353   0.243   0.389 -0.4977 -0.4554 -0.1196
35958SOL    HW113966   2.339   0.253   0.295  1.8603  0.3586 -0.4446
35958SOL    HW213967   2.396   0.158   0.398 -1.8012 -1.0887  0.3936
35959SOL     OW13968   1.676   9.613   4.957  0.5663 -1.2557  0.7510
35959SOL    HW113969   1.730   9.645   5.029  0.4199  1.1254 -0.0896
35959SOL    HW213970   1.677   9.685   4.893 -2.0389 -1.9072 -0.1361
35960SOL     OW13971   0.891   9.608   7.207  0.1439 -0.3177 -0.1804
35960SOL    HW113972   0.975   9.567   7.186  0.4803  0.0895  0.3344
35960SOL    HW213973   0.847   9.617   7.123  0.8214 -0.0888 -0.5207
35961SOL     OW13974   7.255   3.442   7.292 -0.7073 -0.0366 -0.0371
35961SOL    HW113975   7.231   3.532   7.314 -0.1349 -0.1837  1.2598
35961SOL    HW213976   7.172   3.394   7.297 -1.1486  0.5423 -1.4861
35962SOL     OW13977   7.730   0.697   9.158 -0.3450 -0.4231 -0.1567
35962SOL    HW113978   7.755   0.766   9.097 -2.9916  1.6072  0.8267
35962SOL    HW213979   7.758   0.730   9.244 -1.1228 -0.8257  0.2588
35963SOL     OW13980   6.032   5.980   1.215  0.3214 -0.7538 -0.7272
35963SOL    HW113981   6.008   5.932   1.294  1.4421 -0.1932 -0.0320
35963SOL    HW213982   5.982   6.061   1.220  0.8330 -0.4597 -0.2849
35964SOL     OW13983   1.595   8.991  10.334  0.0381  0.6220 -0.5006
35964SOL    HW113984   1.563   9.077  10.361 -0.5665 -0.3816  2.3804
35964SOL    HW213985   1.543   8.929  10.385  2.3587 -1.3265 -0.2813
35965SOL     OW13986   9.926   8.964   2.835 -0.7808 -0.2540 -0.4658
35965SOL    HW113987   9.926   8.869   2.832 -0.6747 -0.2497 -0.6369
35965SOL    HW213988  10.011   8.988   2.871 -0.9249 -0.2318 -0.1401
35966SOL     OW13989   6.771   4.394   5.631 -0.5707  0.1539  0.3593
35966SOL    HW113990   6.770   4.489   5.639 -4.0482  0.5191 -2.0465
35966SOL    HW213991   6.742   4.362   5.716 -0.3757  1.2958  0.8764
35967SOL     OW13992   2.096   2.442   6.434  0.5948  0.0069 -0.5082
35967SOL    HW113993   2.190   2.427   6.426  0.3714 -1.6830 -0.3074
35967SOL    HW213994   2.056   2.377   6.377 -0.4473  1.8258 -1.9599
35968SOL     OW13995  10.847   2.984   3.775  0.1486  0.4174  0.4205
35968SOL    HW113996  10.770   2.999   3.829  0.9075 -0.2661  1.7657
35968SOL    HW213997  10.834   2.897   3.737  0.7081 -0.1695  1.5168
35969SOL     OW13998   1.028   6.091  10.914  0.6440 -0.3820 -0.0554
35969SOL    HW113999   0.940   6.063  10.941  0.6902  0.2072  0.7407
35969SOL    HW214000   1.012   6.160  10.849  0.5058 -0.0421  0.3320
35970SOL     OW14001   5.118   5.064   1.245  0.1334  0.0153  0.8286
35970SOL    HW114002   5.130   4.973   1.272  0.1629 -0.5881 -1.0538
35970SOL    HW214003   5.046   5.060   1.181  2.3116  0.7284 -1.8490
35971SOL     OW14004  10.310   8.382   6.814  0.7225 -0.0507 -0.2330
35971SOL    HW114005  10.380   8.436   6.778 -0.1378  0.5448 -1.0696
35971SOL    HW214006  10.271   8.436   6.882  0.2378  0.1533 -0.6684
35972SOL     OW14007   7.991   3.430   6.160 -0.0548  0.0019  0.1894
35972SOL    HW114008   8.047   3.447   6.235  0.1682 -2.9526  0.8297
35972SOL    HW214009   7.987   3.334   6.154 -4.3550  0.0129 -0.3366
35973SOL     OW14010   2.366   1.589   9.898 -0.9546 -0.4176  0.1060
35973SOL    HW114011   2.452   1.561   9.930  0.5327  1.3006 -2.0363
35973SOL    HW214012   2.311   1.512   9.907  0.2281 -1.0446  3.3280
35974SOL     OW14013   0.401   5.611   7.318  0.0743 -0.4314 -0.4146
35974SOL    HW114014   0.449   5.623   7.400  3.6125  1.6029 -2.5317
35974SOL    HW214015   0.378   5.518   7.317  1.5170 -0.9158  2.0321
35975SOL     OW14016   8.083   8.851   7.538 -0.6989  0.6372 -0.0553
35975SOL    HW114017   8.069   8.927   7.481  0.8995  0.6192 -0.5174
35975SOL    HW214018   8.175   8.827   7.524 -0.8471 -0.6470  0.9909
35976SOL     OW14019   9.583   7.921   8.729  0.1276 -0.2724  0.1351
35976SOL    HW114020   9.496   7.895   8.761 -0.2146  0.1191 -0.4380
35976SOL    HW214021   9.566   8.002   8.680  0.7771 -0.3411 -0.2093
35977SOL     OW14022   9.988   3.538   8.486 -0.7857  0.7292 -0.1395
35977SOL    HW114023  10.059   3.596   8.460  0.6484 -1.7693 -2.1686
35977SOL    HW214024   9.939   3.521   8.405 -2.7742  1.0979  0.9061
35978SOL     OW14025   1.203  10.766   0.573 -0.7383 -0.1747  0.1490
35978SOL    HW114026   1.143  10.709   0.621 -0.1126  1.0086  2.5124
35978SOL    HW214027   1.151  10.844   0.553 -0.8515 -0.4553 -0.6817
35979SOL     OW14028   0.697   7.618   6.006  0.1698 -0.8330  0.2033
35979SOL    HW114029   0.759   7.676   5.962 -0.0703 -1.8101 -1.5159
35979SOL    HW214030   0.630   7.676   6.040  1.4669  0.1500  1.2010
35980SOL     OW14031   9.962  10.127   3.105 -0.0635 -0.5372 -0.4647
35980SOL    HW114032  10.040  10.180   3.088 -0.6886  0.6105  0.1021
35980SOL    HW214033   9.902  10.187   3.150 -1.7063 -1.0554 -1.8378
35981SOL     OW14034   7.821   8.005   2.247 -0.4912 -0.4594 -0.2756
35981SOL    HW114035   7.747   8.019   2.307  0.8792  2.3356  0.9587
35981SOL    HW214036   7.801   8.060   2.171 -1.1920 -2.3270 -1.5252
35982SOL     OW14037   3.644   5.125   2.642 -0.0759  0.1938  0.5214
35982SOL    HW114038   3.593   5.075   2.578 -0.6173 -0.1996  1.2405
35982SOL    HW214039   3.604   5.104   2.726  1.3874 -0.2610  1.1422
35983SOL     OW14040   2.601   2.255   0.945  0.0425  0.3540 -0.6108
35983SOL    HW114041   2.517   2.295   0.921  0.0048 -1.1389 -3.2903
35983SOL    HW214042   2.665   2.297   0.887  0.7363 -0.2897 -0.3234
35984SOL     OW14043   2.402  10.709   4.468  0.3262  0.4628  0.0679
35984SOL    HW114044   2.380  10.770   4.397 -0.1656 -0.7195 -0.8389
35984SOL    HW214045   2.321  10.661   4.485  1.1815 -1.4244 -0.7754
35985SOL     OW14046  10.314   4.169   9.218 -0.7387  0.1017 -0.1136
35985SOL    HW114047  10.301   4.103   9.150 -0.3004  0.3349 -0.4267
35985SOL    HW214048  10.408   4.191   9.213 -1.1402  1.8145 -1.0098
35986SOL     OW14049   4.281   9.430   2.655  0.4329  0.3506 -0.1725
35986SOL    HW114050   4.333   9.466   2.583 -0.0406 -2.1862 -1.8996
35986SOL    HW214051   4.221   9.369   2.613 -1.7163  0.7200  2.1304
35987SOL     OW14052   6.641   1.173   4.505 -0.1663 -0.4192  0.0232
35987SOL    HW114053   6.667   1.092   4.462  0.9674 -0.6620  1.1260
35987SOL    HW214054   6.560   1.151   4.552  0.6968 -1.2241  1.1787
35988SOL     OW14055   4.867   4.976   2.596 -0.1424  0.4491 -0.1568
35988SOL    HW114056   4.793   4.995   2.539 -1.2406  0.2267  1.1603
35988SOL    HW214057   4.832   4.982   2.685  1.0559 -1.0586  0.4710
35989SOL     OW14058   8.289   0.014   3.263  0.4118  0.1142  0.4286
35989SOL    HW114059   8.323   0.103   3.257 -1.2711  1.0806  3.3864
35989SOL    HW214060   8.202   0.018   3.223  0.5230 -0.3624  0.1210
35990SOL     OW14061   0.081   5.824   7.240  0.3687  0.4275  0.2905
35990SOL    HW114062   0.136   5.895   7.273 -0.3357  0.6416  1.0283
35990SOL    HW214063   0.006   5.868   7.200 -0.1732  0.0985  0.9356
35991SOL     OW14064   8.760   7.734   4.976  0.1220 -0.0951  0.2394
35991SOL    HW114065   8.804   7.673   4.918 -3.1411 -0.3923 -2.2044
35991SOL    HW214066   8.701   7.680   5.028 -0.8160  0.6658  0.0044
35992SOL     OW14067   9.199   0.940   3.500 -0.3693  0.1683 -0.1918
35992SOL    HW114068   9.208   0.994   3.578 -1.0043  0.0572 -0.0341
35992SOL    HW214069   9.113   0.963   3.465  0.6730  1.6245 -1.9429
35993SOL     OW14070   9.771   7.670   8.913 -0.3028 -0.2328  0.2322
35993SOL    HW114071   9.752   7.764   8.921 -0.4301 -0.4317  3.1335
35993SOL    HW214072   9.684   7.629   8.913 -0.2116 -0.4445  1.1217
35994SOL     OW14073   8.402   0.732  10.727 -0.3219 -0.7007  0.3444
35994SOL    HW114074   8.422   0.673  10.800  0.6883 -0.5068  0.2472
35994SOL    HW214075   8.486   0.775  10.707 -1.0996  1.0352  0.6437
35995SOL     OW14076   1.184   8.759   8.628  0.3519 -0.1811 -0.2665
35995SOL    HW114077   1.100   8.732   8.591  0.5316 -0.7317 -0.2867
35995SOL    HW214078   1.232   8.677   8.639  0.6603  0.0701  0.2985
35996SOL     OW14079   1.743   7.358   4.918 -0.1165 -0.1496  0.1102
35996SOL    HW114080   1.753   7.291   4.850 -0.3226 -0.8203  0.7243
35996SOL    HW214081   1.799   7.327   4.989  0.4286  0.7654  0.0909
35997SOL     OW14082   3.400   0.085   8.543  0.0582 -0.2930 -0.0775
35997SOL    HW114083   3.363   0.002   8.572 -0.7698 -0.1089 -0.5660
35997SOL    HW214084   3.325   0.144   8.539  0.8247  0.8808  1.5746
35998SOL     OW14085   1.517   7.872  10.381  0.3790 -0.3112 -0.0516
35998SOL    HW114086   1.438   7.925  10.393  0.0794 -1.0411  1.5191
35998SOL    HW214087   1.558   7.872  10.468  1.4226 -1.0024 -0.5291
35999SOL     OW14088   5.749   9.748   7.472 -0.5243 -0.3143  0.0312
35999SOL    HW114089   5.723   9.838   7.493  2.3779  0.4168  0.9749
35999SOL    HW214090   5.770   9.709   7.556  2.4958 -0.3531 -0.6189
36000SOL     OW14091   3.368  10.336   6.405  0.3665  0.9221  0.1066
36000SOL    HW114092   3.446  10.315   6.353  0.3284 -0.6287  0.6222
36000SOL    HW214093   3.368  10.271   6.476 -2.4680 -0.4654 -0.9940
36001SOL     OW14094   3.964   3.800   7.408  0.1177  0.2979 -0.1450
36001SOL    HW114095   3.897   3.764   7.350 -0.3845  1.1520 -0.1069
36001SOL    HW214096   4.028   3.838   7.348  0.1164  0.2776 -0.1595
36002SOL     OW14097   8.370   5.635  10.760  0.0181 -0.2444 -0.1576
36002SOL    HW114098   8.335   5.700  10.820  1.0258 -0.2022  0.4048
36002SOL    HW214099   8.354   5.551  10.802  2.1194 -0.1502  0.9990
36003SOL     OW14100   9.171  10.603   8.068 -0.1897  0.4040  0.4098
36003SOL    HW114101   9.190  10.564   7.982 -1.5570  0.0511  0.2482
36003SOL    HW214102   9.124  10.684   8.047  0.4340  0.8828  0.8153
36004SOL     OW14103   6.066   0.532   4.385 -0.1405  0.3036  0.2031
36004SOL    HW114104   6.050   0.623   4.360 -1.2909 -0.1415 -0.7988
36004SOL    HW214105   6.156   0.515   4.358 -0.1554  0.9441 -0.2732
36005SOL     OW14106   6.073  10.329   7.152  0.4443  0.2281 -0.1271
36005SOL    HW114107   5.989  10.300   7.116  0.1984  1.0350 -0.2186
36005SOL    HW214108   6.130  10.254   7.141  0.1483  0.1689 -1.4513
36006SOL     OW14109   7.758   9.829   4.432  0.1504 -0.7989  0.3063
36006SOL    HW114110   7.725   9.827   4.521 -3.9382 -0.4793 -0.9905
36006SOL    HW214111   7.712   9.757   4.388  0.1106  0.5538 -2.0563
36007SOL     OW14112   3.999   0.815   1.386 -0.2311  0.1663 -0.3422
36007SOL    HW114113   4.070   0.824   1.322  0.9914 -0.5678  0.8487
36007SOL    HW214114   3.981   0.904   1.416 -0.0757  0.3936 -0.9064
36008SOL     OW14115   0.583   1.089   4.669  0.0407  0.4609 -0.1089
36008SOL    HW114116   0.617   1.026   4.733 -2.6757 -0.9230  0.1142
36008SOL    HW214117   0.543   1.158   4.721  1.6305  1.6556 -0.3753
36009SOL     OW14118   4.440   4.400   5.030 -0.3847 -0.4344 -0.1145
36009SOL    HW114119   4.534   4.386   5.036 -0.4402 -0.6267  0.3644
36009SOL    HW214120   4.423   4.415   4.937  0.1911  0.1232 -0.1360
36010SOL     OW14121   1.075   5.167   0.763 -0.5056  0.4795 -0.1406
36010SOL    HW114122   0.996   5.152   0.711 -0.6254  1.0976 -0.1458
36010SOL    HW214123   1.145   5.177   0.698  0.2516 -3.2731 -0.1407
36011SOL     OW14124   7.270   6.006   7.855 -0.0470  0.1317  0.0148
36011SOL    HW114125   7.243   6.097   7.868 -1.5259 -0.2583 -0.1315
36011SOL    HW214126   7.253   5.964   7.939 -0.3514 -0.2295 -0.2250
36012SOL     OW14127   3.297   9.040   7.818  0.6434 -0.5568  0.3680
36012SOL    HW114128   3.304   9.135   7.829 -2.8471  0.3301 -2.9273
36012SOL    HW214129   3.228   9.014   7.879  0.8881 -0.7967  0.5422
36013SOL     OW14130   9.479   6.994   6.414 -0.0721 -0.0174 -0.0080
36013SOL    HW114131   9.561   6.998   6.463 -0.5148 -0.5273  0.7867
36013SOL    HW214132   9.499   7.036   6.330  0.6675  0.9948  0.6506
36014SOL     OW14133   8.195   4.120   7.441  0.0796 -0.0353 -0.0423
36014SOL    HW114134   8.202   4.181   7.368  0.2321  0.0984  0.0844
36014SOL    HW214135   8.285   4.090   7.457  0.4138  1.6360  1.5400
36015SOL     OW14136   2.094   7.913   9.311  0.1988 -0.2755  0.3427
36015SOL    HW114137   2.085   7.995   9.360 -0.4547 -0.2383  0.1701
36015SOL    HW214138   2.042   7.850   9.360 -0.8634 -0.1204 -0.5541
36016SOL     OW14139   4.534   3.669   8.129  0.1392  0.0241  0.2471
36016SOL    HW114140   4.551   3.575   8.141  1.1998  0.1046 -0.4874
36016SOL    HW214141   4.569   3.688   8.042  0.4088  1.2042  0.6024
36017SOL     OW14142   5.240   1.284  10.321  0.4680 -0.0758 -0.2787
36017SOL    HW114143   5.173   1.331  10.371  0.1668  0.0327 -0.7764
36017SOL    HW214144   5.286   1.232  10.387  0.2602  0.2768  0.1547
36018SOL     OW14145   4.775   0.832   4.948  0.3960 -0.6147  0.3023
36018SOL    HW114146   4.769   0.921   4.911 -0.7371 -0.7610  0.1089
36018SOL    HW214147   4.747   0.842   5.039 -2.5036 -1.1950 -0.4355
36019SOL     OW14148   8.965  10.455   3.798  0.0764 -0.0969  0.8571
36019SOL    HW114149   8.986  10.362   3.812  0.3543  0.0323  1.2856
36019SOL    HW214150   9.025  10.502   3.855  1.1933  0.4448 -0.6993
36020SOL     OW14151   6.649   0.108   2.355  0.5363  0.0323  0.3723
36020SOL    HW114152   6.611   0.059   2.428  0.8948 -0.6651  0.1080
36020SOL    HW214153   6.705   0.173   2.395  2.3056 -1.6230  0.7345
36021SOL     OW14154   9.361   9.152   4.324  0.4819  0.4730 -0.2883
36021SOL    HW114155   9.358   9.248   4.321 -0.9033  0.5412  1.6393
36021SOL    HW214156   9.318   9.125   4.243  0.9584  1.4649 -0.8925
36022SOL     OW14157   6.785   3.161  10.690 -0.2233 -0.1893  0.1328
36022SOL    HW114158   6.758   3.070  10.703  0.0898 -0.1790  0.8974
36022SOL    HW214159   6.759   3.181  10.600  2.3195 -1.9558 -1.1065
36023SOL     OW14160   6.964  10.436   1.460  0.1267  0.2348 -0.1122
36023SOL    HW114161   6.967  10.437   1.365 -2.2838 -2.6098 -0.3513
36023SOL    HW214162   7.005  10.353   1.485  0.7941  0.9574  1.3997
36024SOL     OW14163  10.542   0.582   1.712 -0.4465  0.3590 -0.0955
36024SOL    HW114164  10.556   0.505   1.766  2.0791  0.5645 -0.3610
36024SOL    HW214165  10.471   0.629   1.756 -0.0077 -0.6124  1.7540
36025SOL     OW14166   1.382   4.428   4.058 -0.0490 -0.2556  0.0256
36025SOL    HW114167   1.292   4.459   4.057  0.2437  1.0267  2.8299
36025SOL    HW214168   1.375   4.335   4.080 -0.7072  0.0832  1.3448
36026SOL     OW14169   0.051   1.959   6.677 -0.4448  0.2216 -0.5700
36026SOL    HW114170   0.068   2.053   6.686  2.5326 -0.3384  0.9276
36026SOL    HW214171   0.082   1.937   6.589  2.7307  0.0489  0.4933
36027SOL     OW14172   9.967   1.873   7.896  0.2078  0.1649 -0.4432
36027SOL    HW114173   9.996   1.953   7.853  1.0922  0.1606  0.1232
36027SOL    HW214174  10.039   1.811   7.884 -0.7663 -0.8141 -1.5270
36028SOL     OW14175   2.111   7.329   0.998  0.0396  0.0899  0.1934
36028SOL    HW114176   2.114   7.234   1.002 -1.6928  0.0188  0.6253
36028SOL    HW214177   2.139   7.358   1.084 -1.3462 -0.1385  0.7556
36029SOL     OW14178   3.550   9.000   1.424 -0.2289 -0.7935  0.2261
36029SOL    HW114179   3.517   8.954   1.347 -0.0132 -1.5177  0.5554
36029SOL    HW214180   3.512   9.087   1.418 -1.6973 -1.4078  0.2567
36030SOL     OW14181   6.229   9.696   7.028 -0.0732  0.6855  0.3170
36030SOL    HW114182   6.146   9.712   6.983  0.1722  1.3403  0.0804
36030SOL    HW214183   6.292   9.676   6.959 -0.3029 -1.1321  0.5893
36031SOL     OW14184  10.243   4.207  10.632 -0.5783 -0.1088  0.0340
36031SOL    HW114185  10.314   4.233  10.692  0.0902 -1.8168  0.0278
36031SOL    HW214186  10.268   4.120  10.601 -2.2958 -0.4169 -0.5980
36032SOL     OW14187   6.760   2.024   5.291 -0.4113  0.0495 -0.4524
36032SOL    HW114188   6.811   2.075   5.228 -0.8547 -0.7695 -1.5227
36032SOL    HW214189   6.682   1.997   5.241 -1.3886  0.4149  0.8313
36033SOL     OW14190   3.798   5.935   4.384 -0.5568 -0.3673 -0.4344
36033SOL    HW114191   3.841   5.866   4.333 -0.9968 -1.7560  0.9882
36033SOL    HW214192   3.785   6.006   4.322  3.1995 -0.0853 -1.1371
36034SOL     OW14193   9.900   1.522   8.493  0.1164 -0.3791  0.4474
36034SOL    HW114194   9.838   1.456   8.523  0.5757 -0.4295  1.3243
36034SOL    HW214195   9.890   1.595   8.555  0.4009 -0.0883  0.1556
36035SOL     OW14196  10.012   1.631   8.260  0.0116 -0.0256 -0.4607
36035SOL    HW114197   9.955   1.591   8.325  1.3604  0.7840  1.2856
36035SOL    HW214198   9.952   1.666   8.194 -1.4356 -0.3568  0.6450
36036SOL     OW14199   9.546   3.379   5.356  0.7836 -0.4776 -0.5342
36036SOL    HW114200   9.558   3.300   5.302  0.4225 -2.3056  1.8955
36036SOL    HW214201   9.460   3.412   5.330  1.0490 -0.6863 -1.7703
36037SOL     OW14202   6.110   2.875   4.043  0.5057  0.6753 -0.3440
36037SOL    HW114203   6.034   2.847   3.991  0.5707 -1.1365  0.4501
36037SOL    HW214204   6.093   2.966   4.063 -0.4594  0.8853 -1.9003
36038SOL     OW14205   6.056  10.430  10.923 -0.0019 -0.3744  0.4267
36038SOL    HW114206   6.019  10.416  10.836  0.3004 -1.0292  0.3919
36038SOL    HW214207   6.048  10.344  10.966 -2.3940  0.5232  1.9495
36039SOL     OW14208   2.913   0.848   8.445 -0.3248 -0.1497  0.2031
36039SOL    HW114209   2.934   0.830   8.537  0.6628 -1.1941 -0.2064
36039SOL    HW214210   2.989   0.897   8.413 -0.7923  0.4584  0.0069
36040SOL     OW14211   5.921   3.099   8.596  0.4109 -0.8334 -0.0010
36040SOL    HW114212   5.941   3.077   8.505  1.7291 -0.7155  0.2529
36040SOL    HW214213   5.831   3.067   8.608 -0.5271  0.8205 -1.8705
36041SOL     OW14214   6.657   4.991  10.594 -0.7010 -0.4675 -0.4785
36041SOL    HW114215   6.590   5.020  10.532 -0.5468  0.4680 -0.2272
36041SOL    HW214216   6.650   5.053  10.667  3.1422  2.3738 -2.2029
36042SOL     OW14217   3.679   0.764  10.266  0.5135 -0.5716  0.3290
36042SOL    HW114218   3.760   0.799  10.301 -0.0341  1.0137  0.0856
36042SOL    HW214219   3.701   0.735  10.177  0.9227 -0.6376  0.4519
36043SOL     OW14220   5.468   6.672   9.479 -0.3506  0.0453  0.2345
36043SOL    HW114221   5.563   6.660   9.479 -0.2402  0.5912  2.2350
36043SOL    HW214222   5.434   6.595   9.526 -1.0187 -0.6604 -1.3283
36044SOL     OW14223   4.806   4.761   9.276 -0.2643 -0.4547 -0.3131
36044SOL    HW114224   4.713   4.758   9.254 -0.7097  0.3759  1.2791
36044SOL    HW214225   4.817   4.844   9.323  0.9858 -1.1686  0.7172
36045SOL     OW14226   4.772   2.782   6.123 -0.0963 -0.1240  1.1617
36045SOL    HW114227   4.762   2.772   6.218  0.7489 -0.8968  1.1869
36045SOL    HW214228   4.737   2.700   6.087 -1.0638  0.4594  0.7470
36046SOL     OW14229   3.036   6.516   7.863  0.0443 -0.0174 -0.4698
36046SOL    HW114230   2.973   6.579   7.827 -0.4684  0.0815  0.5638
36046SOL    HW214231   3.001   6.430   7.837  0.7221  0.0947 -1.8451
36047SOL     OW14232  10.334   8.301   8.011  0.3328  0.3111 -0.0700
36047SOL    HW114233  10.306   8.209   8.009  0.9915  0.1100 -0.2042
36047SOL    HW214234  10.299   8.335   8.093  2.0167 -0.6964  1.1314
36048SOL     OW14235   2.263   0.716   9.431  0.0614  0.3490  0.0453
36048SOL    HW114236   2.353   0.741   9.447 -0.4710  2.0159  0.6854
36048SOL    HW214237   2.257   0.624   9.458  1.3600  0.4587  0.7588
36049SOL     OW14238   3.720   1.199   1.886 -0.2299 -0.2498 -0.3672
36049SOL    HW114239   3.662   1.249   1.830 -1.5987  0.8656  1.8886
36049SOL    HW214240   3.662   1.163   1.954  1.5520 -0.0363  1.3432
36050SOL     OW14241   0.504   3.812   5.156 -0.2008  0.5756 -0.0142
36050SOL    HW114242   0.457   3.854   5.229 -2.8110 -0.2176 -1.1368
36050SOL    HW214243   0.502   3.877   5.086  0.2708  0.4615 -0.1365
36051SOL     OW14244   2.977   7.400   1.439  0.2494 -0.4403  0.1868
36051SOL    HW114245   3.004   7.425   1.528  0.0873  0.4856 -0.0168
36051SOL    HW214246   2.945   7.310   1.449  1.4018 -0.8064  0.8212
36052SOL     OW14247  10.877   4.744   8.603  0.2608  0.4637 -0.3225
36052SOL    HW114248  10.887   4.811   8.534  1.4169 -0.1112 -0.7395
36052SOL    HW214249  10.933   4.672   8.574 -1.4871 -0.9918 -0.2270
36053SOL     OW14250   0.388   2.598   1.192  0.0848  0.4347 -0.1144
36053SOL    HW114251   0.376   2.637   1.106  0.6491 -1.9226 -1.3627
36053SOL    HW214252   0.315   2.536   1.201  2.2015 -2.3875 -0.8216
36054SOL     OW14253   4.625   2.171  10.673  0.1818  0.1878  0.6088
36054SOL    HW114254   4.669   2.256  10.672  0.1988  0.2108  1.7547
36054SOL    HW214255   4.652   2.131  10.756 -0.2043 -0.7357  0.3002
36055SOL     OW14256  10.252   2.615   0.690  0.1824 -0.3458  0.2589
36055SOL    HW114257  10.277   2.666   0.614  0.6979 -2.4317 -1.0510
36055SOL    HW214258  10.314   2.542   0.692 -1.4143 -1.7536  1.1403
36056SOL     OW14259   5.789   2.982   1.999  0.0909 -0.2892  0.0173
36056SOL    HW114260   5.874   2.938   1.995  0.4110  0.3651 -0.7938
36056SOL    HW214261   5.761   2.972   2.090  0.6318 -1.2489  0.0933
36057SOL     OW14262   9.773   9.780   9.488 -0.8810 -0.4588 -0.0949
36057SOL    HW114263   9.706   9.835   9.530 -0.0656  1.4732 -1.1900
36057SOL    HW214264   9.793   9.713   9.553 -3.1546 -0.5077  0.6492
36058SOL     OW14265   2.967   2.735   7.455 -0.0977  0.0203  0.3877
36058SOL    HW114266   3.026   2.666   7.425  1.2863  1.3608 -0.0865
36058SOL    HW214267   2.996   2.755   7.544 -0.9986 -0.5141  0.8186
36059SOL     OW14268   7.453   6.913   7.671  0.1731 -0.1700 -0.1887
36059SOL    HW114269   7.525   6.921   7.608  0.6619  0.0448  0.3870
36059SOL    HW214270   7.392   6.852   7.630 -0.1423  0.9382 -1.4447
36060SOL     OW14271   8.229   1.208   1.882 -0.0967 -0.2600 -0.1798
36060SOL    HW114272   8.164   1.237   1.818 -0.6493 -0.0739  0.4556
36060SOL    HW214273   8.204   1.118   1.901 -1.2930  0.3616  1.4099
36061SOL     OW14274   7.450   3.887   9.458  0.2617 -0.0240  0.5252
36061SOL    HW114275   7.436   3.821   9.390 -0.2654  0.1267  0.4822
36061SOL    HW214276   7.514   3.847   9.517  1.2559  0.1213 -0.4199
36062SOL     OW14277   2.604   7.083   4.213 -0.1266  0.2763  0.2658
36062SOL    HW114278   2.513   7.087   4.240 -0.6143  0.3581 -1.2650
36062SOL    HW214279   2.601   7.085   4.117  1.4775  0.1993  0.1746
36063SOL     OW14280   4.282   7.789   9.771  0.8246 -0.0114  0.0635
36063SOL    HW114281   4.190   7.765   9.757  1.5106 -1.6239 -2.3034
36063SOL    HW214282   4.280   7.882   9.790 -1.2418  0.2245 -1.0271
36064SOL     OW14283   0.366   9.480   5.635  0.0331 -0.0040 -0.2646
36064SOL    HW114284   0.290   9.472   5.577  0.6098 -0.0501 -1.0211
36064SOL    HW214285   0.437   9.436   5.589  0.5985  0.2961  0.3018
36065SOL     OW14286   6.401   5.369   6.664  0.0696  0.3780  0.1232
36065SOL    HW114287   6.396   5.343   6.572  1.5837 -1.0467  0.3936
36065SOL    HW214288   6.372   5.460   6.665 -0.4248  0.2759 -1.6803
36066SOL     OW14289   7.635   5.134   5.393 -0.2136 -0.2663 -0.3468
36066SOL    HW114290   7.541   5.114   5.399  0.0730 -1.3283  1.3763
36066SOL    HW214291   7.638   5.227   5.370 -1.7512  0.3793  1.6775
36067SOL     OW14292   2.716   8.810   2.201  0.5848  0.3422  0.5255
36067SOL    HW114293   2.688   8.830   2.111  0.9763 -1.1741  0.0384
36067SOL    HW214294   2.679   8.881   2.254 -0.1684  0.9329 -0.7445
36068SOL     OW14295   3.121   4.123   4.724 -0.8153 -0.4278  0.6557
36068SOL    HW114296   3.101   4.163   4.809  3.2089  0.4716  1.3971
36068SOL    HW214297   3.167   4.192   4.676  1.9850 -2.5800  0.0174
36069SOL     OW14298   6.659   4.055   1.708 -0.2406 -0.7962  0.3814
36069SOL    HW114299   6.709   4.130   1.739 -1.1384 -0.6220  1.4739
36069SOL    HW214300   6.662   3.993   1.781 -1.0122 -1.0675  0.1934
36070SOL     OW14301   3.699   0.908   6.647 -0.5263  0.1021  0.0068
36070SOL    HW114302   3.636   0.965   6.690 -1.1760  1.0875 -2.1298
36070SOL    HW214303   3.672   0.820   6.673  0.5564  0.6162  3.4533
36071SOL     OW14304   6.652  10.838   5.858  0.0383 -0.1264 -0.3289
36071SOL    HW114305   6.715  10.911   5.859  1.0051 -0.8425 -2.8319
36071SOL    HW214306   6.682  10.781   5.929 -1.2360  2.1809  2.2649
36072SOL     OW14307   1.718   5.850   7.696  0.0052 -0.1747 -0.0255
36072SOL    HW114308   1.768   5.786   7.746  0.6894 -0.1533 -0.6698
36072SOL    HW214309   1.628   5.839   7.727  0.2596 -0.8256  0.5067
36073SOL     OW14310   6.979   8.803   2.047 -0.0939 -0.1673  0.0131
36073SOL    HW114311   7.051   8.755   2.008 -1.1787 -2.0433  0.1890
36073SOL    HW214312   6.901   8.769   2.004 -0.9500  1.2291  0.3860
36074SOL     OW14313   9.848   5.451   4.687  0.1232  0.2464 -0.0501
36074SOL    HW114314   9.828   5.540   4.656  1.1813 -0.1758 -2.0650
36074SOL    HW214315   9.765   5.419   4.723 -1.5175  0.4727 -3.3047
36075SOL     OW14316   0.704   9.643   8.361 -0.1249  0.0755 -0.2393
36075SOL    HW114317   0.754   9.724   8.370 -1.2297  1.2117 -3.1932
36075SOL    HW214318   0.626   9.657   8.416 -2.0059  2.6277 -3.2432
36076SOL     OW14319   1.693   1.832   4.341 -0.1685  0.4226 -0.0727
36076SOL    HW114320   1.633   1.810   4.413  1.3909 -0.2900  1.0606
36076SOL    HW214321   1.728   1.918   4.363  1.0305 -0.2059  0.5437
36077SOL     OW14322   1.372   2.517   2.727 -0.0967  0.7874  0.6023
36077SOL    HW114323   1.339   2.577   2.794  0.6622  0.1521  1.5850
36077SOL    HW214324   1.345   2.430   2.757 -1.7210  0.6250 -1.1144
36078SOL     OW14325   7.257   1.564   8.914  0.6187  0.2108 -0.3499
36078SOL    HW114326   7.343   1.524   8.908  1.5231  2.1712 -1.6266
36078SOL    HW214327   7.222   1.536   8.998  2.1107 -1.3486 -0.2219
36079SOL     OW14328   0.365  10.565   7.917 -0.0797 -0.3068 -0.1474
36079SOL    HW114329   0.431  10.507   7.955  0.8420  0.1035 -1.0790
36079SOL    HW214330   0.345  10.526   7.832 -0.3944  0.0417 -0.2335
36080SOL     OW14331   6.031   5.872   6.570 -0.4695 -0.4420  0.1240
36080SOL    HW114332   6.093   5.832   6.510  0.2679 -0.9095  1.1701
36080SOL    HW214333   6.061   5.962   6.580 -0.6651 -0.3283 -0.2875
36081SOL     OW14334   7.161   7.956   5.056 -0.8027  0.2451  0.3509
36081SOL    HW114335   7.211   7.940   4.976 -0.1476  1.9055  0.3950
36081SOL    HW214336   7.152   8.051   5.061  1.2455  0.4145  3.4640
36082SOL     OW14337   2.321   3.453   9.466  0.2505 -0.2631 -0.0941
36082SOL    HW114338   2.285   3.476   9.552  0.2738 -1.8085  0.3664
36082SOL    HW214339   2.267   3.501   9.404 -1.1272 -0.7310  0.6983
36083SOL     OW14340   6.496   1.479   8.836  0.1058 -0.1026 -0.3578
36083SOL    HW114341   6.542   1.499   8.754 -0.9260 -0.0168 -0.9364
36083SOL    HW214342   6.493   1.384   8.839  0.6334 -0.1148 -0.1327
36084SOL     OW14343   0.106   8.029   8.583 -0.4104  0.0678  0.1314
36084SOL    HW114344   0.071   8.077   8.659  2.9482 -0.1927  2.0397
36084SOL    HW214345   0.166   8.091   8.541 -0.3711 -0.6021 -0.8264
36085SOL     OW14346   2.610   3.494  10.729  0.0676 -0.1583  0.3573
36085SOL    HW114347   2.692   3.525  10.690 -0.1108  0.6140  0.5842
36085SOL    HW214348   2.584   3.564  10.789 -0.0183 -1.0348  1.3537
36086SOL     OW14349   1.499   9.656   0.772  0.3765  0.0175  0.1031
36086SOL    HW114350   1.517   9.745   0.803 -2.1862  0.9008 -0.6581
36086SOL    HW214351   1.538   9.653   0.684  1.0015  0.1461  0.3677
36087SOL     OW14352   8.817   7.243   2.688  0.6593  0.3367  0.1450
36087SOL    HW114353   8.787   7.155   2.668  0.7114  0.9200 -2.8955
36087SOL    HW214354   8.788   7.258   2.779 -0.4432 -2.3008  0.3083
36088SOL     OW14355   1.538   9.570   7.239 -0.5962 -0.0679 -0.2447
36088SOL    HW114356   1.504   9.538   7.323  1.3770 -1.7774 -0.0218
36088SOL    HW214357   1.579   9.653   7.261 -0.7705 -0.1261  0.3410
36089SOL     OW14358   6.342   2.066   7.915 -0.1266  0.2718  0.4728
36089SOL    HW114359   6.419   2.120   7.894  0.6419 -0.7796  0.5024
36089SOL    HW214360   6.303   2.109   7.991  0.6128  0.6621  0.6462
36090SOL     OW14361   0.588   0.988   6.856  0.3226 -0.1364  0.2001
36090SOL    HW114362   0.590   0.928   6.782  1.1140  1.3123 -0.9981
36090SOL    HW214363   0.495   1.013   6.864  0.5923  2.4370 -2.6862
36091SOL     OW14364   1.524   6.169   6.347 -0.2980  0.4075 -0.4264
36091SOL    HW114365   1.511   6.178   6.252 -2.5483 -0.0447 -0.2032
36091SOL    HW214366   1.459   6.228   6.386 -1.4285 -1.5784  0.8287
36092SOL     OW14367   9.645   9.780   4.066 -0.1156  0.2129  0.2227
36092SOL    HW114368   9.728   9.791   4.111  0.4974 -1.9295 -0.2832
36092SOL    HW214369   9.579   9.805   4.130  0.8632  1.2784  0.8551
36093SOL     OW14370   0.854   5.870   4.520 -0.0547  0.1342 -0.8009
36093SOL    HW114371   0.905   5.944   4.486  0.9869  1.0142  2.3257
36093SOL    HW214372   0.766   5.884   4.486  0.9481  0.4870 -3.5577
36094SOL     OW14373   8.001   7.733   9.968 -0.4326  0.2136  0.3450
36094SOL    HW114374   7.943   7.797  10.010 -0.3764 -0.0406  0.8144
36094SOL    HW214375   8.073   7.785   9.933 -1.0255  0.5540 -0.3920
36095SOL     OW14376   1.489   0.629   3.815  0.2728  0.2168  0.1452
36095SOL    HW114377   1.457   0.673   3.736  1.4825  1.8845  0.5267
36095SOL    HW214378   1.472   0.536   3.799 -0.4063  0.5967 -1.6364
36096SOL     OW14379   1.710   1.802   1.510  0.3098 -0.6465 -0.0999
36096SOL    HW114380   1.765   1.835   1.439  0.2997  0.4982  0.3932
36096SOL    HW214381   1.622   1.798   1.472  0.3161 -0.1035 -0.1810
36097SOL     OW14382   9.843   8.984   6.025  0.1444 -0.2545 -0.0923
36097SOL    HW114383   9.933   9.001   6.051 -0.2358  1.1062  0.4361
36097SOL    HW214384   9.809   9.070   5.999 -0.2895 -1.1060 -2.6837
36098SOL     OW14385   4.859  10.578   3.600 -0.4106  0.4656  0.4598
36098SOL    HW114386   4.869  10.564   3.505  0.6094 -1.0816  0.7526
36098SOL    HW214387   4.923  10.646   3.620  0.2293 -0.0452  0.2064
36099SOL     OW14388   3.272   0.856   2.652 -0.3005 -0.4535 -0.4433
36099SOL    HW114389   3.189   0.840   2.697  0.3351 -3.0030 -0.0431
36099SOL    HW214390   3.331   0.886   2.721  0.2098 -2.7451  0.2040
36100SOL     OW14391   3.249   6.751   1.276 -0.3593  0.1456  0.2454
36100SOL    HW114392   3.315   6.691   1.241 -0.8812 -0.8024  0.8343
36100SOL    HW214393   3.217   6.798   1.199  0.7754  0.4053 -0.0897
36101SOL     OW14394   4.861  10.246   8.726 -0.2795  0.0250  0.3619
36101SOL    HW114395   4.886  10.214   8.813  2.0830 -2.1293 -0.9828
36101SOL    HW214396   4.765  10.252   8.729 -0.4101 -1.9158  2.5077
36102SOL     OW14397   6.165   1.435   3.575  0.7754 -0.4392 -0.3784
36102SOL    HW114398   6.145   1.372   3.645  2.9277 -1.8481 -0.9241
36102SOL    HW214399   6.169   1.381   3.496  0.8059  0.7114 -1.1717
36103SOL     OW14400   2.784   7.052   6.907  0.2998 -0.6098  0.1256
36103SOL    HW114401   2.736   6.987   6.958  2.1785 -1.6411  0.6852
36103SOL    HW214402   2.805   7.006   6.825 -1.1408  0.4328 -0.8861
36104SOL     OW14403   5.298  10.033   5.821  0.1755 -0.0025  0.5653
36104SOL    HW114404   5.368   9.985   5.866 -0.3737 -0.3182  1.0968
36104SOL    HW214405   5.265  10.093   5.887  0.3954  0.6320  0.1053
36105SOL     OW14406   8.993   2.684   4.018 -0.6641 -0.3238 -0.7455
36105SOL    HW114407   8.998   2.687   4.114  0.4614 -0.8193 -0.7747
36105SOL    HW214408   9.084   2.684   3.989 -0.9258 -2.2854 -1.7473
36106SOL     OW14409   5.561   9.929   5.363  0.3791 -0.1672 -0.5122
36106SOL    HW114410   5.482   9.920   5.417  1.5485 -1.2340  1.0850
36106SOL    HW214411   5.631   9.947   5.424  1.3798  1.0798 -1.9516
36107SOL     OW14412   1.405   1.441   1.554 -0.1892  0.0830  0.2632
36107SOL    HW114413   1.435   1.441   1.463 -0.0518 -2.7119  0.2154
36107SOL    HW214414   1.312   1.465   1.548 -0.1604  0.0163 -0.5981
36108SOL     OW14415   4.465   7.018   7.597 -0.2893  0.3961  0.5243
36108SOL    HW114416   4.554   7.055   7.602  0.8490 -2.1796  0.7520
36108SOL    HW214417   4.452   6.974   7.681  0.1806 -3.2073 -1.1022
36109SOL     OW14418   7.239   9.547   0.797  0.0094 -0.2437  0.2959
36109SOL    HW114419   7.283   9.590   0.870  1.1820  0.0896 -0.5814
36109SOL    HW214420   7.152   9.586   0.796  0.4018  0.6796  0.7396
36110SOL     OW14421   1.408   9.181   9.200 -0.0453  0.4705  0.1798
36110SOL    HW114422   1.485   9.218   9.244  0.3233  0.7509 -0.6668
36110SOL    HW214423   1.433   9.090   9.183  0.2048  0.6252 -0.3081
36111SOL     OW14424   4.849   8.445  10.266 -0.0753  0.4898  0.3782
36111SOL    HW114425   4.829   8.527  10.311 -1.3074  0.4321 -0.0252
36111SOL    HW214426   4.926   8.464  10.213  0.8177  0.8247  1.7608
36112SOL     OW14427   1.201  10.614   6.634  0.9716 -0.6655  1.0134
36112SOL    HW114428   1.294  10.619   6.615  0.6329 -1.4915 -1.2242
36112SOL    HW214429   1.171  10.535   6.588 -0.8640 -0.3321  1.5220
36113SOL     OW14430   8.515   3.302   0.704 -0.6673  0.0614 -0.3437
36113SOL    HW114431   8.497   3.244   0.778 -1.0081 -1.5758 -1.6447
36113SOL    HW214432   8.443   3.285   0.642  0.0811  0.7166 -1.4332
36114SOL     OW14433   1.050   8.851   7.260 -0.4115 -0.0794 -0.0551
36114SOL    HW114434   1.118   8.891   7.205 -0.4448  0.2388  0.1352
36114SOL    HW214435   1.013   8.924   7.309 -1.1617 -0.1882 -0.4402
36115SOL     OW14436   5.261   0.899   0.096  0.5219  0.0279  0.0591
36115SOL    HW114437   5.182   0.938   0.059  0.6465  0.8010  0.5984
36115SOL    HW214438   5.251   0.805   0.079 -0.9178  0.0108  0.8772
36116SOL     OW14439   5.480   8.753   9.996  0.0263 -0.3768  0.3629
36116SOL    HW114440   5.471   8.686   9.928 -0.8192 -0.1123  0.1988
36116SOL    HW214441   5.466   8.836   9.949  0.9409 -0.0876  0.5851
36117SOL     OW14442   7.309   2.209   2.061 -0.2702  0.1842 -0.5119
36117SOL    HW114443   7.281   2.125   2.098  0.4964  1.2553  2.7594
36117SOL    HW214444   7.243   2.271   2.090  1.0380  1.3063  0.1534
36118SOL     OW14445  10.214   7.800   8.102 -0.3977 -0.3633  0.0353
36118SOL    HW114446  10.184   7.789   8.192  1.9520 -2.6764  0.6169
36118SOL    HW214447  10.213   7.712   8.065  0.8169  0.2241 -1.4926
36119SOL     OW14448   1.205   2.535   6.521  0.1816 -0.1560  0.3245
36119SOL    HW114449   1.138   2.589   6.480  0.0733  0.4806  1.3305
36119SOL    HW214450   1.252   2.594   6.580  0.4176 -1.0250  1.0292
36120SOL     OW14451  10.230  10.336   6.196 -0.0774  0.3432 -0.0413
36120SOL    HW114452  10.316  10.316   6.159 -0.7170 -0.1416 -1.3429
36120SOL    HW214453  10.179  10.367   6.121 -1.7248 -1.5977  0.1970
36121SOL     OW14454  10.464   0.042   9.890  0.3178 -0.2044  0.2509
36121SOL    HW114455  10.472   0.119   9.834 -1.3916 -0.8505 -0.9853
36121SOL    HW214456  10.404   0.069   9.960  0.3268 -0.1981  0.2568
36122SOL     OW14457   1.433   1.193   8.040  0.3063  0.1145  0.0188
36122SOL    HW114458   1.360   1.200   8.101 -1.3200 -0.5684 -1.7871
36122SOL    HW214459   1.399   1.224   7.956  2.7918  2.0666 -0.3905
36123SOL     OW14460  10.090   8.083   1.695 -0.1891  0.2731 -0.1805
36123SOL    HW114461  10.034   8.121   1.763 -1.9304  2.1258 -2.4865
36123SOL    HW214462  10.032   8.025   1.646  1.3171 -1.9190  0.4829
36124SOL     OW14463   7.944  10.099   9.963 -0.0424  0.2124 -0.2693
36124SOL    HW114464   7.990  10.018   9.985 -0.8691  0.5013  2.9802
36124SOL    HW214465   8.007  10.168   9.984 -0.2554  0.5080 -0.5863
36125SOL     OW14466   0.479   2.691   1.664  0.5328  0.5557 -0.2494
36125SOL    HW114467   0.445   2.766   1.615 -0.3513 -0.5987 -1.4750
36125SOL    HW214468   0.556   2.663   1.615  1.2676  1.0361  0.5852
36126SOL     OW14469   3.463   0.837   9.697  0.1978 -0.1702 -0.4694
36126SOL    HW114470   3.389   0.795   9.742 -0.3757  0.7346 -0.5396
36126SOL    HW214471   3.533   0.772   9.700  0.0353 -0.3158  1.3256
36127SOL     OW14472   9.707   9.596   1.337 -0.3783 -0.0481  0.3919
36127SOL    HW114473   9.708   9.691   1.352 -0.3604 -0.0378  0.3205
36127SOL    HW214474   9.615   9.574   1.323 -0.5453 -0.2207  1.5814
36128SOL     OW14475   8.802   4.290   7.893  0.7564 -0.3401  0.6365
36128SOL    HW114476   8.707   4.275   7.898  0.8645 -1.1632  0.3046
36128SOL    HW214477   8.834   4.267   7.980  0.7994 -1.1807  0.4034
36129SOL     OW14478   4.693   1.364   0.508  0.3736  0.4777 -0.4795
36129SOL    HW114479   4.779   1.322   0.501  0.2966  0.1271  0.5473
36129SOL    HW214480   4.661   1.340   0.595  0.1606  2.3410  0.0183
36130SOL     OW14481   5.635   1.047   1.932  0.1979  0.5803 -0.1819
36130SOL    HW114482   5.651   0.957   1.905  0.7735  0.5538  0.2258
36130SOL    HW214483   5.691   1.060   2.009 -0.0030  1.2324 -0.1325
36131SOL     OW14484   0.144   4.571   7.062 -0.4839  0.4778 -0.1212
36131SOL    HW114485   0.179   4.623   6.989 -0.6362  2.3573  1.0897
36131SOL    HW214486   0.205   4.587   7.134 -2.0578  1.2781  1.0898
36132SOL     OW14487   4.777   3.252   7.869 -0.7885  0.5994  0.3018
36132SOL    HW114488   4.801   3.279   7.958 -1.8083  0.5724  0.5992
36132SOL    HW214489   4.697   3.201   7.881 -0.4502 -0.1641 -0.5464
36133SOL     OW14490   6.930   4.679   7.646  0.1205 -0.5089 -0.9414
36133SOL    HW114491   7.021   4.700   7.669  0.9575 -2.4506 -2.2270
36133SOL    HW214492   6.888   4.764   7.636  2.1514  0.4786 -1.6476
36134SOL     OW14493   9.476   5.097   1.887  0.2974 -0.6635 -0.4235
36134SOL    HW114494   9.552   5.140   1.847  0.2018 -1.9079 -2.0704
36134SOL    HW214495   9.422   5.071   1.812 -0.3736 -2.2731  0.5640
36135SOL     OW14496   4.301   0.940   5.948  0.2488 -0.0334  0.5801
36135SOL    HW114497   4.245   1.000   5.899  1.0833  0.5144  0.2786
36135SOL    HW214498   4.290   0.966   6.040 -0.7930 -0.6219  0.6388
36136SOL     OW14499   0.015   9.577   1.719  0.1104 -0.4635 -0.1935
36136SOL    HW114500   0.093   9.591   1.773 -0.7347 -0.5002  1.0739
36136SOL    HW214501  -0.006   9.484   1.731  0.1213 -0.5608 -0.8886
36137SOL     OW14502  10.230   0.004   6.979 -0.5954 -0.6574 -0.4111
36137SOL    HW114503  10.246   0.061   6.905 -0.0794 -2.3358 -1.6568
36137SOL    HW214504  10.317  -0.021   7.010 -0.7929  0.4525  1.1548
36138SOL     OW14505   5.048   4.648   2.045 -0.4243 -0.0869 -0.5203
36138SOL    HW114506   5.030   4.729   2.092 -1.6880  0.2632 -1.5529
36138SOL    HW214507   5.102   4.597   2.105 -0.5255  1.0552  0.5861
36139SOL     OW14508   5.266   9.162  10.185 -0.1564  0.2235  0.0735
36139SOL    HW114509   5.188   9.174  10.131 -0.2160  0.0027  0.1112
36139SOL    HW214510   5.307   9.248  10.187 -0.3440  0.3155 -0.0314
36140SOL     OW14511   0.713   2.443  10.082  0.0006 -0.7985  0.0828
36140SOL    HW114512   0.632   2.494  10.081 -0.0742 -0.8756  1.1695
36140SOL    HW214513   0.691   2.365  10.134  0.5571 -1.1938 -0.2621
36141SOL     OW14514   0.896   1.548   4.373 -0.4374 -0.0439 -0.2059
36141SOL    HW114515   0.984   1.515   4.393  0.2563  0.4997 -2.1731
36141SOL    HW214516   0.838   1.478   4.401  0.6201 -0.5127  0.9264
36142SOL     OW14517   5.654   4.729   0.153  0.3938 -0.5576  0.1563
36142SOL    HW114518   5.637   4.790   0.225  3.2211  0.8175 -0.1815
36142SOL    HW214519   5.646   4.642   0.192  1.2156  0.1525  2.0091
36143SOL     OW14520   0.526   8.164  10.056 -0.5961 -0.8863  0.5125
36143SOL    HW114521   0.465   8.211  10.114  1.7403  1.3516  1.3536
36143SOL    HW214522   0.535   8.221   9.980 -0.0664 -1.5276  0.0875
36144SOL     OW14523  10.076   8.527   6.250 -0.3459  0.3582 -0.2719
36144SOL    HW114524  10.074   8.519   6.345  0.7154 -0.0897 -0.2690
36144SOL    HW214525  10.002   8.476   6.220 -1.4063  1.4746  0.3496
36145SOL     OW14526  10.725   7.967   3.178  0.3385  0.1191 -0.1064
36145SOL    HW114527  10.641   7.964   3.132 -0.0029  2.0745  0.3040
36145SOL    HW214528  10.701   7.963   3.271  0.5724  1.9698  0.0600
36146SOL     OW14529   3.362   1.737   7.974 -0.2155 -0.1513 -0.0916
36146SOL    HW114530   3.428   1.774   8.032 -1.0962 -2.1370  2.3678
36146SOL    HW214531   3.385   1.644   7.968 -1.4364 -0.4218 -1.0951
36147SOL     OW14532   7.552   6.370   3.739  0.5148 -0.6852  0.0788
36147SOL    HW114533   7.572   6.450   3.691  0.2829 -0.8835 -0.3572
36147SOL    HW214534   7.596   6.381   3.823 -1.4775  0.9574  0.9936
36148SOL     OW14535   5.452   3.423   0.132 -0.1770  0.5976 -0.6269
36148SOL    HW114536   5.526   3.479   0.110 -0.0338  0.3221 -0.8631
36148SOL    HW214537   5.492   3.348   0.177 -0.2879  0.3583 -0.9208
36149SOL     OW14538   8.082   4.396  10.888  0.4745 -0.0560 -0.1270
36149SOL    HW114539   8.144   4.330  10.857 -0.2166 -0.6626 -0.2364
36149SOL    HW214540   8.037   4.354  10.961  0.9029  0.7529  0.6262
36150SOL     OW14541   3.412   3.024   6.675  0.4300  0.1497 -0.0576
36150SOL    HW114542   3.357   3.101   6.663  0.5911  0.0344 -1.8558
36150SOL    HW214543   3.368   2.955   6.625  1.6157 -0.2373 -0.5951
36151SOL     OW14544   6.510   9.147   2.263  0.3227 -0.4326 -1.0660
36151SOL    HW114545   6.559   9.126   2.184  1.6850 -2.9288  0.3316
36151SOL    HW214546   6.506   9.065   2.312 -1.1641  0.8246  1.1080
36152SOL     OW14547   8.706   8.629   1.065 -0.2457 -0.1912 -0.4161
36152SOL    HW114548   8.769   8.675   1.009 -0.8696  0.8743 -0.2657
36152SOL    HW214549   8.724   8.536   1.049  0.9272  0.0910 -0.8580
36153SOL     OW14550  10.797   7.400   0.122 -0.1058  0.3984  0.1298
36153SOL    HW114551  10.701   7.393   0.121 -0.0734  0.0444 -0.6759
36153SOL    HW214552  10.822   7.404   0.030  0.7533 -0.8415  0.2844
36154SOL     OW14553   4.488   1.271   6.087  0.1307 -0.0850  0.3386
36154SOL    HW114554   4.562   1.214   6.108  0.7878  0.7382  0.3035
36154SOL    HW214555   4.414   1.211   6.079  0.6904 -0.8729  0.8538
36155SOL     OW14556   3.161   6.940   9.928 -0.0477  0.6342 -0.2706
36155SOL    HW114557   3.245   6.967   9.964 -0.5346  2.2042 -0.2060
36155SOL    HW214558   3.163   6.971   9.837 -0.5825  0.7637 -0.2414
36156SOL     OW14559   3.904   5.733   0.901 -0.4150 -0.1041 -0.1757
36156SOL    HW114560   3.888   5.726   0.807 -1.4763  0.2489 -0.0462
36156SOL    HW214561   3.911   5.643   0.932  0.0398 -0.2181 -0.6055
36157SOL     OW14562  10.616   2.445   4.324  0.6238  0.3513  0.2625
36157SOL    HW114563  10.684   2.417   4.264  1.1534  0.1759  0.9287
36157SOL    HW214564  10.562   2.367   4.338  0.9079  0.1994  0.5417
36158SOL     OW14565   6.839   6.760   8.422 -0.5570 -0.1520  0.2833
36158SOL    HW114566   6.811   6.850   8.404 -0.7888 -0.5070 -1.3251
36158SOL    HW214567   6.821   6.713   8.340 -0.9631 -1.7896  1.2630
36159SOL     OW14568   7.826   3.075   2.048 -0.0746 -0.0870  0.2672
36159SOL    HW114569   7.835   3.117   2.133 -1.5711 -0.1354  0.4774
36159SOL    HW214570   7.830   3.148   1.985  0.2626  0.0394  0.4364
36160SOL     OW14571   1.736  10.664   0.320  0.1521 -0.5215 -0.0614
36160SOL    HW114572   1.739  10.679   0.226 -1.9450 -0.5207 -0.1744
36160SOL    HW214573   1.804  10.600   0.337  0.6994 -0.3511 -1.5371
36161SOL     OW14574   3.003   7.399   2.972  0.4572  0.0185 -0.2844
36161SOL    HW114575   2.984   7.463   2.903  1.1217  0.4187 -0.1104
36161SOL    HW214576   3.069   7.442   3.027 -0.3754 -0.1121  0.8623
36162SOL     OW14577  10.342   4.494   7.277 -0.3080 -0.0763  0.1611
36162SOL    HW114578  10.413   4.555   7.301  0.9268 -1.4343  0.0987
36162SOL    HW214579  10.378   4.444   7.204 -1.8955  0.1495 -0.8199
36163SOL     OW14580   9.057   9.047   9.377 -0.2566 -0.2123  0.4426
36163SOL    HW114581   9.045   9.058   9.282 -0.1982 -2.5254  0.1045
36163SOL    HW214582   9.151   9.039   9.388 -0.3879 -2.4387  0.3132
36164SOL     OW14583   3.157   4.143   8.465 -0.4838  0.7420 -0.3991
36164SOL    HW114584   3.229   4.196   8.430 -0.4879  0.5189 -0.7611
36164SOL    HW214585   3.171   4.056   8.427  0.3929  0.0612  1.3781
36165SOL     OW14586   5.787   9.240   8.076  0.3709 -0.8107 -0.3440
36165SOL    HW114587   5.827   9.322   8.048 -0.2661 -0.4781 -0.3213
36165SOL    HW214588   5.695   9.263   8.091  0.4341 -1.2485  0.8579
36166SOL     OW14589   9.707   6.712   5.038 -0.2253 -0.0161  0.0782
36166SOL    HW114590   9.794   6.681   5.013 -1.0750 -3.7528  1.1633
36166SOL    HW214591   9.721   6.760   5.119  0.9228  0.5050 -0.4021
36167SOL     OW14592   6.876   5.136   3.177 -0.0449  0.2104 -0.1593
36167SOL    HW114593   6.967   5.128   3.146 -0.7195 -0.8204 -2.0056
36167SOL    HW214594   6.829   5.174   3.103 -1.4612 -0.9655  0.0964
36168SOL     OW14595   4.435  10.162  10.529  0.2167  0.2612  0.4024
36168SOL    HW114596   4.395  10.075  10.532  0.1616  0.2653 -0.1974
36168SOL    HW214597   4.395  10.205  10.453  1.3778  0.2548 -0.2356
36169SOL     OW14598   2.121   2.383   8.484  0.2309 -0.2822  0.9854
36169SOL    HW114599   2.211   2.411   8.470  0.1614 -0.1575  0.7883
36169SOL    HW214600   2.098   2.416   8.570  0.3156 -0.1675  0.9628
36170SOL     OW14601   1.873   7.397   1.284 -0.5492  0.2255 -0.1760
36170SOL    HW114602   1.797   7.415   1.228 -1.0443  0.4788  0.5619
36170SOL    HW214603   1.916   7.322   1.243 -1.1608  0.1185 -0.6349
36171SOL     OW14604  10.142   0.624  10.231 -0.4070  0.3050  0.3285
36171SOL    HW114605  10.079   0.560  10.263 -0.5783  1.1376  1.7376
36171SOL    HW214606  10.227   0.593  10.263 -0.6164  1.3139  2.0027
36172SOL     OW14607   4.743   3.376  10.692  0.3755 -0.0588 -0.5916
36172SOL    HW114608   4.674   3.429  10.732  1.5458  1.7837 -0.8823
36172SOL    HW214609   4.796   3.345  10.766 -0.1192 -0.5674 -0.4444
36173SOL     OW14610   3.728   7.679   2.511 -0.1814  0.3472 -0.0593
36173SOL    HW114611   3.782   7.704   2.436  2.6085  1.4847  2.1680
36173SOL    HW214612   3.682   7.759   2.535 -0.4513  0.1936 -0.0561
36174SOL     OW14613   8.819   2.762   7.916 -0.1356  0.7128 -0.4455
36174SOL    HW114614   8.871   2.724   7.845  0.2659 -0.2925  0.3650
36174SOL    HW214615   8.800   2.689   7.974 -1.4271  1.2998 -0.0838
36175SOL     OW14616   5.401   0.085   0.153 -0.4189  0.3661  0.5878
36175SOL    HW114617   5.401  -0.010   0.161 -0.7816  0.3985  0.9542
36175SOL    HW214618   5.459   0.115   0.223 -1.4019  0.4896  1.3619
36176SOL     OW14619   2.252   0.305   9.169  0.1931 -1.0325  0.2393
36176SOL    HW114620   2.205   0.273   9.246 -0.2321  0.3817  0.5798
36176SOL    HW214621   2.200   0.379   9.137  0.4615 -1.4654 -1.3053
36177SOL     OW14622   4.204   4.439   6.297  0.5781  0.1310  0.3847
36177SOL    HW114623   4.214   4.469   6.388 -1.0967 -1.2182  1.0642
36177SOL    HW214624   4.230   4.347   6.299 -2.2557 -0.7670  0.2020
36178SOL     OW14625   6.436   7.357   8.032  0.2554  0.0316 -0.1219
36178SOL    HW114626   6.366   7.300   8.063 -0.8575  0.6012 -1.5078
36178SOL    HW214627   6.511   7.299   8.019 -0.6369 -0.9927 -0.8066
36179SOL     OW14628   1.449   0.723   7.980 -0.4652 -0.2930 -0.0056
36179SOL    HW114629   1.447   0.750   7.888  0.2206 -1.0705 -0.2551
36179SOL    HW214630   1.381   0.655   7.986 -0.1910 -0.5705 -0.0438
36180SOL     OW14631   6.908   1.932   4.819 -0.8041  0.1987 -0.3404
36180SOL    HW114632   6.856   1.929   4.739  1.5368  0.1148 -1.9382
36180SOL    HW214633   6.909   2.025   4.843  0.2381  0.5466 -1.6488
36181SOL     OW14634   6.387   2.809   8.656  0.4985  0.6259  0.2022
36181SOL    HW114635   6.351   2.730   8.695 -0.9234  0.6315 -1.0165
36181SOL    HW214636   6.374   2.798   8.562  1.0411  1.9351 -0.0577
36182SOL     OW14637   4.964   4.001   0.834 -0.3501 -0.1327  0.2287
36182SOL    HW114638   4.884   4.050   0.853 -0.9683 -0.7862 -0.6253
36182SOL    HW214639   4.936   3.910   0.826 -0.4749  0.0352 -4.7256
36183SOL     OW14640   3.472   8.247   7.304  0.0816 -0.1358 -0.2530
36183SOL    HW114641   3.404   8.202   7.254  1.4846 -1.6770 -0.8732
36183SOL    HW214642   3.427   8.279   7.382 -1.5122 -0.4121 -1.0140
36184SOL     OW14643   0.410   8.145   5.167  0.2535  0.2269  0.1381
36184SOL    HW114644   0.389   8.081   5.099  1.0044  1.7122 -1.5589
36184SOL    HW214645   0.504   8.133   5.183  0.5564  1.3595 -0.7156
36185SOL     OW14646   0.231   3.050   8.543  0.0418  0.0559 -0.2118
36185SOL    HW114647   0.322   3.021   8.547 -0.2366 -0.7694  1.0219
36185SOL    HW214648   0.183   2.973   8.515 -0.5939 -0.4719  2.0971
36186SOL     OW14649   9.020   2.505   3.693  0.2017 -0.0150  0.0797
36186SOL    HW114650   8.927   2.503   3.670  0.3482 -0.0304 -0.5238
36186SOL    HW214651   9.062   2.551   3.621  0.7108 -0.3148  0.1766
36187SOL     OW14652   5.971   8.424   7.564 -0.7686 -0.1159  0.2325
36187SOL    HW114653   5.936   8.433   7.476  0.5803 -1.4834 -0.4931
36187SOL    HW214654   6.028   8.499   7.576 -0.7194 -0.0857 -0.1837
36188SOL     OW14655   3.443   2.456   9.022  0.0154  0.4492  0.3445
36188SOL    HW114656   3.514   2.498   8.975 -0.4508  1.1224  0.2354
36188SOL    HW214657   3.372   2.449   8.959  0.4637 -1.6301 -0.0226
36189SOL     OW14658  10.632   4.587  10.552 -0.1832  0.0156  0.2663
36189SOL    HW114659  10.573   4.589  10.628  0.0396 -0.1987  0.4483
36189SOL    HW214660  10.635   4.495  10.526 -2.2081  0.3918 -1.5553
36190SOL     OW14661   6.412   4.362   0.928  0.0171 -0.2347  0.6096
36190SOL    HW114662   6.339   4.394   0.981 -0.2080  0.0937  0.1102
36190SOL    HW214663   6.483   4.347   0.991  0.6336  2.6782  0.7232
36191SOL     OW14664   5.335   7.529   9.446 -0.1270  0.4223 -0.0560
36191SOL    HW114665   5.241   7.548   9.438  0.0145  0.9040 -0.6318
36191SOL    HW214666   5.366   7.590   9.513  0.0222  1.1783 -0.7959
36192SOL     OW14667   2.291  10.433   6.497  0.4461 -0.0923  0.0964
36192SOL    HW114668   2.266  10.450   6.588 -0.5623  0.1267 -0.2049
36192SOL    HW214669   2.256  10.507   6.448  1.2339 -0.0645 -0.4344
36193SOL     OW14670   4.202   6.890   3.207 -0.3336  0.5478 -0.4654
36193SOL    HW114671   4.278   6.851   3.163  0.6299  1.8671 -0.0417
36193SOL    HW214672   4.155   6.936   3.138 -2.8462 -3.1069 -1.5087
36194SOL     OW14673   4.016   7.672   1.715  0.0887 -0.3302  0.0323
36194SOL    HW114674   3.961   7.594   1.716 -0.3654 -0.0856 -1.7494
36194SOL    HW214675   3.996   7.714   1.631 -0.0830  2.0067  1.1500
36195SOL     OW14676   6.645   3.418   9.333  0.1362  0.0024 -0.3684
36195SOL    HW114677   6.699   3.371   9.271  0.7628 -0.8256  0.7592
36195SOL    HW214678   6.606   3.490   9.283  1.5534  0.0710 -1.4047
36196SOL     OW14679   0.743   2.695   5.632 -0.1197 -0.0434 -0.8228
36196SOL    HW114680   0.741   2.769   5.693 -0.7322  0.3436 -1.2981
36196SOL    HW214681   0.766   2.619   5.687 -0.3565  0.3493 -0.1664
36197SOL     OW14682  10.353   5.777   0.235 -0.2405 -0.1466  0.7013
36197SOL    HW114683  10.317   5.689   0.247 -1.2776  0.1407 -0.1738
36197SOL    HW214684  10.303   5.814   0.163  1.8749  0.2516 -0.6685
36198SOL     OW14685   7.039   3.597   8.199 -0.2451  0.5893 -0.2759
36198SOL    HW114686   7.030   3.532   8.130  1.0577 -1.0205  0.9824
36198SOL    HW214687   6.953   3.638   8.205 -0.9416 -0.6102 -1.4814
36199SOL     OW14688   7.481   8.016   8.065  0.0565 -0.3985  0.6184
36199SOL    HW114689   7.418   7.984   8.129 -1.0964 -0.4019 -0.4825
36199SOL    HW214690   7.458   8.108   8.052  1.1172 -0.0419  1.1608
36200SOL     OW14691   6.371   8.762   0.772  0.0696 -0.0811  0.3321
36200SOL    HW114692   6.309   8.730   0.838  0.2640 -1.8239 -0.2618
36200SOL    HW214693   6.346   8.717   0.691  0.9151  0.6683 -0.3787
36201SOL     OW14694   9.624   8.397   5.990  0.1339  0.2050  0.2424
36201SOL    HW114695   9.534   8.422   6.012  0.8203  1.7219  1.5545
36201SOL    HW214696   9.675   8.478   6.000  0.9868  0.6506 -5.1223
36202SOL     OW14697   2.182   5.620   5.815 -0.0130 -0.4339  0.3929
36202SOL    HW114698   2.133   5.701   5.800 -3.9595 -2.7663 -0.8018
36202SOL    HW214699   2.190   5.613   5.910  1.0563  1.6088  0.4986
36203SOL     OW14700   9.394   5.543   9.841 -0.2030 -0.5043  0.4596
36203SOL    HW114701   9.475   5.506   9.807  0.2018  1.4892 -0.9460
36203SOL    HW214702   9.337   5.550   9.765 -0.2236  1.6919  0.6012
36204SOL     OW14703   8.240   9.994   4.610 -1.1178 -0.2295 -0.8815
36204SOL    HW114704   8.153   9.987   4.571 -1.2065  0.2074 -0.7590
36204SOL    HW214705   8.227   9.970   4.702 -1.0433 -0.5123 -0.9421
36205SOL     OW14706   0.488   9.478  10.425 -0.0602 -0.2291 -0.1038
36205SOL    HW114707   0.452   9.507  10.342  0.4070 -0.5756 -0.4286
36205SOL    HW214708   0.412   9.472  10.483 -0.3600  0.2025 -0.4442
36206SOL     OW14709   4.341   1.772   3.609 -0.4658  0.0330 -0.1923
36206SOL    HW114710   4.337   1.749   3.516  0.8795 -0.7829 -0.0708
36206SOL    HW214711   4.271   1.836   3.621 -0.1706  0.7378 -1.9421
36207SOL     OW14712   3.872   5.427   2.315  0.0840  0.1950 -0.4821
36207SOL    HW114713   3.948   5.370   2.306  0.4641  0.6234 -0.0153
36207SOL    HW214714   3.874   5.482   2.237  0.5803  0.5836 -0.2042
36208SOL     OW14715   2.466   1.852   7.773  0.2346  0.2041 -0.1393
36208SOL    HW114716   2.396   1.843   7.838  0.4300 -0.7756 -0.0485
36208SOL    HW214717   2.515   1.929   7.801 -0.1325  0.2296  0.4523
36209SOL     OW14718   9.524   0.420   9.303 -0.3245 -0.2184  0.3542
36209SOL    HW114719   9.554   0.460   9.221 -0.7792 -1.6951 -0.5647
36209SOL    HW214720   9.517   0.494   9.364 -1.7439  1.2441 -1.4511
36210SOL     OW14721   5.301   2.893   4.310  0.6268  0.3161  0.4933
36210SOL    HW114722   5.241   2.950   4.262  2.2307  0.4159 -1.5388
36210SOL    HW214723   5.294   2.808   4.266  1.8683  0.3054  0.2792
36211SOL     OW14724   0.840   0.015   8.771  0.2142  0.0209 -0.6892
36211SOL    HW114725   0.853  -0.079   8.756 -0.0477 -0.1169 -0.0543
36211SOL    HW214726   0.788   0.043   8.696 -0.1801 -0.4555 -0.6035
36212SOL     OW14727   2.833   3.820   0.372 -0.0696  0.0238 -0.1202
36212SOL    HW114728   2.908   3.864   0.414  0.7710 -0.6230 -0.9089
36212SOL    HW214729   2.843   3.728   0.395  0.1222 -0.2674 -1.2773
36213SOL     OW14730   4.597   2.598   3.655 -0.1074 -0.3755 -0.0608
36213SOL    HW114731   4.544   2.537   3.604 -1.9456  0.2270  1.0324
36213SOL    HW214732   4.537   2.633   3.721  1.0353  2.1103 -0.2164
36214SOL     OW14733   6.010  10.385   1.341 -0.2069 -0.1101  0.1576
36214SOL    HW114734   6.009  10.339   1.425 -0.7275 -1.6061 -0.6248
36214SOL    HW214735   6.098  10.370   1.306 -0.3019 -0.3404  0.0102
36215SOL     OW14736   2.610   9.166   9.238  0.5585 -0.3191  0.1207
36215SOL    HW114737   2.581   9.234   9.177 -0.4244 -0.5345  0.3286
36215SOL    HW214738   2.619   9.211   9.322  1.4563 -0.1215 -0.0727
36216SOL     OW14739   2.181   3.813   9.641  0.6823  0.1578 -0.2609
36216SOL    HW114740   2.096   3.822   9.685  0.5697 -1.4352 -0.0830
36216SOL    HW214741   2.225   3.744   9.689  2.5053  1.5909  0.2312
36217SOL     OW14742   1.806   0.028   3.647  0.4897 -0.0427 -0.2252
36217SOL    HW114743   1.753  -0.008   3.718  1.4674 -1.8641 -0.3640
36217SOL    HW214744   1.761   0.001   3.567  0.8113 -0.2758 -0.3282
36218SOL     OW14745   8.647   5.271   8.194 -0.1499  0.3550  0.3077
36218SOL    HW114746   8.685   5.194   8.237 -1.7014 -0.1865  0.7903
36218SOL    HW214747   8.715   5.301   8.134  1.2199 -0.2231  1.5079
36219SOL     OW14748   4.126   9.518   1.632 -0.3999  0.1994  0.1215
36219SOL    HW114749   4.059   9.564   1.582 -0.7281 -0.8831 -0.4693
36219SOL    HW214750   4.141   9.437   1.584  0.0995 -0.3632  1.1739
36220SOL     OW14751   2.726   5.832   7.621  0.4361 -0.3189  0.2292
36220SOL    HW114752   2.711   5.849   7.528 -1.7241  0.3008  0.6243
36220SOL    HW214753   2.719   5.737   7.629  2.4337 -0.5650 -0.4722
36221SOL     OW14754   9.220   9.783   0.174  0.3795  0.3466 -0.5202
36221SOL    HW114755   9.146   9.740   0.218  0.5194  0.5472 -0.0770
36221SOL    HW214756   9.209   9.876   0.196  0.2052  0.5089 -1.2864
36222SOL     OW14757   8.281   9.113   5.709 -0.0242 -0.4164  0.6354
36222SOL    HW114758   8.235   9.042   5.755  0.1886 -1.4109 -0.6134
36222SOL    HW214759   8.219   9.141   5.641  0.6610 -0.8645 -0.2089
36223SOL     OW14760   0.846   4.086   7.601  0.4019  0.3184  0.4770
36223SOL    HW114761   0.873   4.106   7.691  0.6149  1.3854  0.1832
36223SOL    HW214762   0.852   4.169   7.555 -1.3749  0.1699 -0.1089
36224SOL     OW14763   0.975   7.445   9.091  0.7191 -0.5762  0.0297
36224SOL    HW114764   0.926   7.430   9.171 -2.1607  1.4542 -1.1949
36224SOL    HW214765   1.050   7.498   9.118  0.6619 -1.2129  1.5419
36225SOL     OW14766   1.547   0.690   1.975  0.1372  0.4481 -0.0381
36225SOL    HW114767   1.515   0.681   2.065  1.7655 -0.2504  0.5227
36225SOL    HW214768   1.641   0.705   1.985  0.3653  0.2564 -1.6327
36226SOL     OW14769   0.982   3.492  10.734 -0.2657  0.3138  0.3450
36226SOL    HW114770   1.016   3.450  10.656  1.3685 -0.1092  1.2327
36226SOL    HW214771   0.886   3.486  10.725 -0.1002 -0.6865 -1.0768
36227SOL     OW14772   2.103   7.271   0.606  0.9340  0.3640 -0.6739
36227SOL    HW114773   2.170   7.207   0.633 -1.2446 -1.8147 -0.1175
36227SOL    HW214774   2.066   7.234   0.526 -0.9996  0.4073  0.1647
36228SOL     OW14775   9.869   6.817   7.029  0.4598 -0.1562  0.5708
36228SOL    HW114776   9.939   6.766   6.990  1.3826  1.1803  0.4073
36228SOL    HW214777   9.852   6.887   6.965 -0.4264  0.0465  1.0053
36229SOL     OW14778   0.413   7.877   3.538 -0.0765  0.1370 -0.3029
36229SOL    HW114779   0.441   7.894   3.448  0.2012 -0.8709 -0.4205
36229SOL    HW214780   0.493   7.887   3.590 -0.5032  2.1390  0.0636
36230SOL     OW14781   4.066   5.024   3.690 -0.6786 -0.5617 -0.2204
36230SOL    HW114782   4.126   5.050   3.760 -0.2374 -1.4315 -0.2624
36230SOL    HW214783   3.986   5.074   3.707  0.1859  0.9393 -0.4014
36231SOL     OW14784   6.083   2.096   0.608  0.1744  0.3718  0.3274
36231SOL    HW114785   6.129   2.164   0.558  1.1664  1.7397  2.8975
36231SOL    HW214786   6.031   2.145   0.673 -2.6260 -1.2521 -0.5300
36232SOL     OW14787  10.219  10.383   7.077 -0.3437  0.7472 -0.1471
36232SOL    HW114788  10.230  10.473   7.106 -1.7818  0.5357  1.1589
36232SOL    HW214789  10.157  10.345   7.139  0.6540 -1.3041 -0.3200
36233SOL     OW14790   8.577   3.207   1.430  0.2906  0.4473  0.3423
36233SOL    HW114791   8.610   3.191   1.519 -0.9653  0.2729  0.7940
36233SOL    HW214792   8.620   3.289   1.404  1.3651  0.0392  0.7445
36234SOL     OW14793   1.445   2.130  10.184  0.4386 -0.0233 -0.3878
36234SOL    HW114794   1.494   2.051  10.162  0.8711  0.3911 -0.9806
36234SOL    HW214795   1.399   2.153  10.103 -0.4361 -0.1917  0.0541
36235SOL     OW14796   7.428   5.785  10.852  0.4357 -0.1545  0.7057
36235SOL    HW114797   7.520   5.764  10.867 -0.2443 -2.9936  1.5389
36235SOL    HW214798   7.399   5.826  10.933  0.3929 -1.6258  1.4676
36236SOL     OW14799   8.082   1.530   0.672  0.5095 -0.4080  0.5547
36236SOL    HW114800   8.166   1.567   0.645 -0.1183  0.8617  0.2581
36236SOL    HW214801   8.028   1.535   0.593  0.2072 -1.3759  0.6947
36237SOL     OW14802   0.696   0.878   9.264  0.0239  0.3812  0.3677
36237SOL    HW114803   0.622   0.930   9.295  0.0367  1.2412 -0.9834
36237SOL    HW214804   0.744   0.936   9.205  1.0580 -0.5881  0.2154
36238SOL     OW14805   9.111   9.784   6.791 -0.2085 -0.0585  0.5741
36238SOL    HW114806   9.157   9.701   6.785 -0.1034  0.0655 -0.5517
36238SOL    HW214807   9.155   9.840   6.727 -1.2955  0.3709  0.1898
36239SOL     OW14808  10.824   3.623   2.666  0.1320  0.0407  0.0256
36239SOL    HW114809  10.876   3.543   2.676 -1.0097 -0.7448 -0.1363
36239SOL    HW214810  10.754   3.615   2.731 -0.5048  0.4913 -0.5836
36240SOL     OW14811   2.257   0.163   3.241  0.2259 -0.1364 -0.0654
36240SOL    HW114812   2.327   0.100   3.258  0.8058  0.0806 -1.5008
36240SOL    HW214813   2.287   0.212   3.164 -1.0144  0.7088 -0.0404
36241SOL     OW14814   4.420  10.097   7.779 -0.2669  0.1359  0.0707
36241SOL    HW114815   4.394  10.180   7.740 -0.9362  0.7037  1.6195
36241SOL    HW214816   4.509  10.083   7.749 -0.0867  1.5036 -0.0923
36242SOL     OW14817   0.640   3.262   7.843 -0.2134 -0.3205  0.1406
36242SOL    HW114818   0.671   3.268   7.933 -0.5877  0.3905  0.2250
36242SOL    HW214819   0.718   3.280   7.790  0.0001 -0.7085  0.3200
36243SOL     OW14820   3.596   1.980   1.630 -0.0363  0.5124  0.3174
36243SOL    HW114821   3.624   1.898   1.671 -1.4438  0.5004  1.3538
36243SOL    HW214822   3.623   2.047   1.692 -0.7471  0.6377  0.4996
36244SOL     OW14823   1.509  10.454   8.708  0.3366 -0.0398  0.1841
36244SOL    HW114824   1.447  10.403   8.656 -1.1285  1.1362  0.7128
36244SOL    HW214825   1.501  10.419   8.797 -0.4995  0.9095  0.5002
36245SOL     OW14826   6.856   7.970   1.727 -0.0138  0.0813  0.0092
36245SOL    HW114827   6.931   7.938   1.676 -0.4089 -1.6875  0.4858
36245SOL    HW214828   6.785   7.978   1.663 -0.2411 -1.2145  0.0666
36246SOL     OW14829   3.653   4.303   7.562  0.6951 -0.9973 -0.1352
36246SOL    HW114830   3.585   4.334   7.502  1.5621 -1.0681 -1.1757
36246SOL    HW214831   3.606   4.287   7.644 -0.4926 -0.7583 -0.7394
36247SOL     OW14832  10.387   1.634  10.535  0.0578 -0.2666 -0.0822
36247SOL    HW114833  10.341   1.608  10.455  0.7271  1.0478 -0.9379
36247SOL    HW214834  10.444   1.706  10.507  0.5630 -0.0097  1.5174
36248SOL     OW14835   2.246   5.069   7.466 -0.8851 -0.4790 -0.6257
36248SOL    HW114836   2.233   4.982   7.504  2.0965 -1.3915 -1.3995
36248SOL    HW214837   2.210   5.062   7.377 -2.0825 -0.3562 -0.1756
36249SOL     OW14838   8.905   1.670   3.641 -0.1339  0.0888  0.7649
36249SOL    HW114839   8.868   1.725   3.711 -2.1765 -1.8568  1.3239
36249SOL    HW214840   8.889   1.580   3.671  1.1311 -0.8139 -1.1223
36250SOL     OW14841   5.827   3.353   4.961 -0.1887  0.8191 -0.7001
36250SOL    HW114842   5.879   3.414   4.908  1.4343 -0.9560 -1.2536
36250SOL    HW214843   5.773   3.306   4.897  0.4557 -0.0795 -0.6007
36251SOL     OW14844   3.757   3.071   7.271 -0.4842  0.1480 -0.0762
36251SOL    HW114845   3.802   2.989   7.249  0.1742 -0.2494  2.4236
36251SOL    HW214846   3.821   3.139   7.250  0.5754 -0.2874  1.5248
36252SOL     OW14847   1.078   9.046  10.083 -0.1839  0.4801 -0.0928
36252SOL    HW114848   1.168   9.027  10.111  0.1746 -0.1981 -1.5982
36252SOL    HW214849   1.047   9.113  10.144  1.7939  1.6817 -0.3285
36253SOL     OW14850   5.198   7.822   9.679  0.3005  0.1769  0.1305
36253SOL    HW114851   5.209   7.728   9.692 -1.2207 -0.2379 -1.2399
36253SOL    HW214852   5.203   7.859   9.768 -0.2949 -1.3463  0.8403
36254SOL     OW14853   7.769  10.137   8.013 -0.0254  0.6201  0.4711
36254SOL    HW114854   7.853  10.100   7.986 -1.0584 -0.9782 -0.7029
36254SOL    HW214855   7.754  10.210   7.953 -0.4077 -0.3791 -0.6726
36255SOL     OW14856   2.688   9.685   9.430  0.3753  0.3601 -0.7368
36255SOL    HW114857   2.618   9.648   9.483 -0.4964  1.5360 -1.0286
36255SOL    HW214858   2.649   9.699   9.344  1.1567  0.4110 -1.0920
36256SOL     OW14859   1.271   1.484   9.109 -0.2372  0.1405 -0.2983
36256SOL    HW114860   1.333   1.411   9.111  0.0359  0.3608 -0.4964
36256SOL    HW214861   1.325   1.561   9.131  0.0808  0.6968 -2.7645
36257SOL     OW14862   2.628   3.187   7.383 -0.2538  0.2201  0.0520
36257SOL    HW114863   2.650   3.095   7.397  0.1081  0.4682  1.2378
36257SOL    HW214864   2.710   3.234   7.401 -0.6108  0.8215  0.1420
36258SOL     OW14865   4.617   1.644   9.873  0.2593 -0.7066 -0.3898
36258SOL    HW114866   4.620   1.551   9.894 -0.3005 -0.9940 -1.5135
36258SOL    HW214867   4.573   1.648   9.788 -2.2341  0.7708  0.8514
36259SOL     OW14868  10.793  10.479   0.868 -0.6338 -0.8608  0.2415
36259SOL    HW114869  10.808  10.420   0.794 -0.6649  3.4182 -3.6757
36259SOL    HW214870  10.878  10.488   0.910 -0.2946 -2.4277 -0.0563
36260SOL     OW14871   4.555   1.404   1.615  0.1084 -0.1383  0.1916
36260SOL    HW114872   4.466   1.401   1.579  0.3782  1.9918 -0.8110
36260SOL    HW214873   4.543   1.409   1.710 -0.7528 -1.4103  0.1820
36261SOL     OW14874   4.954   4.271   6.599 -0.0687  0.2994  0.3080
36261SOL    HW114875   4.914   4.355   6.576  0.1894  0.5362  0.7054
36261SOL    HW214876   4.982   4.234   6.515  0.8875  1.1555  0.2307
36262SOL     OW14877   3.483   9.817   5.181  0.1994 -0.5726 -0.0185
36262SOL    HW114878   3.454   9.878   5.113  2.0302  1.9172  1.2689
36262SOL    HW214879   3.402   9.787   5.222 -0.8080  0.3072 -1.2788
36263SOL     OW14880  10.720  10.354   7.548  0.3562  0.0605 -0.2634
36263SOL    HW114881  10.722  10.375   7.641  0.9909  2.1520 -0.7076
36263SOL    HW214882  10.796  10.297   7.535 -0.1867 -0.9179  0.5957
36264SOL     OW14883   4.562   5.406  10.053  0.4828 -0.2653  0.1975
36264SOL    HW114884   4.616   5.334  10.022  0.9549  0.1861 -0.0347
36264SOL    HW214885   4.482   5.401  10.001 -0.8829 -2.5613  2.3277
36265SOL     OW14886   3.803   2.591   5.159  0.2973 -0.3405 -0.5646
36265SOL    HW114887   3.731   2.636   5.116 -0.1528  0.1584  0.6485
36265SOL    HW214888   3.778   2.498   5.157  0.6762 -0.4266 -2.0547
36266SOL     OW14889   7.401   3.676   9.280 -0.0397  0.8309 -0.7727
36266SOL    HW114890   7.454   3.621   9.222 -0.7518 -1.2759  0.4296
36266SOL    HW214891   7.324   3.699   9.228 -1.7214 -2.8084 -0.2065
36267SOL     OW14892   0.074   5.003   5.563  0.3185 -0.3063 -0.2854
36267SOL    HW114893   0.052   5.073   5.501 -0.8089 -0.0361  0.3802
36267SOL    HW214894   0.012   5.015   5.635  0.6025 -1.5322  0.1913
36268SOL     OW14895   1.904   5.523   1.512 -0.1368  0.1491  0.2590
36268SOL    HW114896   1.928   5.610   1.482 -0.4988  0.4237  0.7570
36268SOL    HW214897   1.900   5.530   1.607  1.4313 -0.8144  0.4437
36269SOL     OW14898   5.741   5.982   7.815  0.5027  0.8733 -0.0541
36269SOL    HW114899   5.737   5.896   7.774  1.8714  0.9693 -0.4455
36269SOL    HW214900   5.708   5.968   7.904  0.6578 -0.0432 -0.1322
36270SOL     OW14901   7.019  10.717   7.827 -0.3165 -0.2359 -0.6195
36270SOL    HW114902   6.942  10.661   7.819 -0.4811 -0.2767  0.9637
36270SOL    HW214903   7.041  10.741   7.737 -1.6353 -0.9523 -1.1532
36271SOL     OW14904   7.661   7.008   5.048 -0.5504 -0.0912  0.7333
36271SOL    HW114905   7.710   7.014   4.966 -1.3514  0.7727  0.2834
36271SOL    HW214906   7.700   6.935   5.095 -2.0014 -2.6395 -1.7434
36272SOL     OW14907   6.458  10.809  10.518 -0.1365 -0.4951 -0.4627
36272SOL    HW114908   6.416  10.876  10.572 -0.8018 -1.0551 -0.2695
36272SOL    HW214909   6.421  10.823  10.430  0.8446  0.3305 -0.7504
36273SOL     OW14910  10.291   0.500   6.177  0.3607 -0.4514 -0.5930
36273SOL    HW114911  10.209   0.466   6.140 -0.2434 -0.9329  1.0790
36273SOL    HW214912  10.311   0.577   6.124 -2.0645  0.6389 -0.0686
36274SOL     OW14913  10.372   4.051   6.129 -0.4967 -0.5979 -0.2767
36274SOL    HW114914  10.379   4.049   6.033  0.1467  0.0724 -0.2520
36274SOL    HW214915  10.418   4.131   6.154 -1.3465 -0.3485  0.5364
36275SOL     OW14916   8.676   7.759   0.046 -0.7573  0.3119 -0.5526
36275SOL    HW114917   8.687   7.688  -0.017  0.2136 -0.1483  0.1176
36275SOL    HW214918   8.760   7.766   0.090 -1.2897  0.8987  0.4187
36276SOL     OW14919   4.085   1.117   5.884 -0.3438 -0.1566 -0.2025
36276SOL    HW114920   4.042   1.107   5.799 -2.5085 -0.5627  0.8528
36276SOL    HW214921   4.070   1.208   5.909 -1.8483 -0.6343  0.7587
36277SOL     OW14922   0.143   8.659   6.913  0.0644  0.0153  0.6042
36277SOL    HW114923   0.080   8.606   6.963  0.8755 -1.7196 -0.1478
36277SOL    HW214924   0.222   8.605   6.909  0.1431  0.2355 -2.2507
36278SOL     OW14925   6.225   0.296   6.872 -0.5645  0.3113 -0.8861
36278SOL    HW114926   6.249   0.291   6.780 -3.0155 -1.7550 -1.5388
36278SOL    HW214927   6.160   0.366   6.877  0.9935  1.7557 -0.3056
36279SOL     OW14928   6.878   9.282   2.171  0.0293  0.1216  0.1421
36279SOL    HW114929   6.931   9.215   2.128  0.1884  0.4325 -0.1526
36279SOL    HW214930   6.821   9.234   2.231 -1.7812 -0.5709 -1.9760
36280SOL     OW14931   9.393   9.942   2.046 -0.3817 -0.7166  0.9105
36280SOL    HW114932   9.481   9.955   2.081 -0.2144 -1.0440  0.6248
36280SOL    HW214933   9.368   9.855   2.077  0.4232 -1.7241 -1.0870
36281SOL     OW14934   6.402   1.645   5.572 -0.0955  0.0288 -0.1896
36281SOL    HW114935   6.455   1.602   5.638 -0.5502 -0.3891 -0.0908
36281SOL    HW214936   6.463   1.666   5.501  0.2252 -0.3225 -0.0196
36282SOL     OW14937   5.055   2.499   4.969  0.4442 -0.1379 -0.9882
36282SOL    HW114938   5.078   2.583   4.929 -0.3848 -0.3190 -1.8867
36282SOL    HW214939   4.977   2.517   5.021 -0.3529 -0.5190 -1.9929
36283SOL     OW14940   0.699   0.518  10.890  0.2117  0.2803  0.4749
36283SOL    HW114941   0.640   0.456  10.848 -0.0467 -1.2730  2.9627
36283SOL    HW214942   0.660   0.604  10.875  1.2151  0.1754 -4.1433
36284SOL     OW14943   6.674   3.674   2.461  0.0418 -0.6205 -0.1114
36284SOL    HW114944   6.754   3.645   2.417  1.5444  2.4612  0.2882
36284SOL    HW214945   6.676   3.632   2.546  1.3480 -0.4769 -0.0520
36285SOL     OW14946   8.114   8.432   6.203  0.1331 -0.0004 -0.0010
36285SOL    HW114947   8.135   8.357   6.147  1.0841 -1.2735  1.9664
36285SOL    HW214948   8.072   8.394   6.280 -0.8825  1.6693  0.3260
36286SOL     OW14949   0.451   3.007   6.586  0.2469  0.3558  0.0434
36286SOL    HW114950   0.532   2.996   6.536  1.0049 -1.2356  1.5064
36286SOL    HW214951   0.479   3.048   6.668 -0.3834 -0.3826  0.6407
36287SOL     OW14952   5.672   0.935   5.362  0.1735  0.0317  0.3198
36287SOL    HW114953   5.726   0.896   5.431 -0.4343  0.2729  0.9389
36287SOL    HW214954   5.637   0.860   5.314  1.6495 -0.1338 -0.5869
36288SOL     OW14955   9.242   0.719   3.954 -0.5240  0.2240 -0.8598
36288SOL    HW114956   9.314   0.745   3.897 -1.6744  0.9385 -2.0305
36288SOL    HW214957   9.168   0.706   3.895 -1.4700 -0.1018  0.3598
36289SOL     OW14958   2.472   9.784   1.726 -0.2081 -0.1514  0.4104
36289SOL    HW114959   2.564   9.761   1.735 -0.2481 -0.3877  0.2301
36289SOL    HW214960   2.442   9.733   1.650 -0.0413  1.2659 -0.6563
36290SOL     OW14961   1.904   4.772   7.274  0.1376  0.1198 -0.0638
36290SOL    HW114962   1.946   4.704   7.220  0.1479 -0.2266  0.3757
36290SOL    HW214963   1.970   4.840   7.283 -0.2349  0.6893 -1.4030
36291SOL     OW14964   0.256   9.002   4.850  0.7082 -0.2309 -0.3850
36291SOL    HW114965   0.348   9.002   4.875  1.4899 -2.0470 -2.7875
36291SOL    HW214966   0.235   8.909   4.836 -1.7553  0.0656  0.8567
36292SOL     OW14967   2.431   0.317   0.662 -0.9276 -0.3977 -0.4203
36292SOL    HW114968   2.427   0.226   0.691 -0.6526  0.1999  1.6894
36292SOL    HW214969   2.457   0.312   0.570  1.4729 -2.4102  0.2488
36293SOL     OW14970   2.571   8.640   1.722  0.5332  0.1599  0.1701
36293SOL    HW114971   2.627   8.623   1.798 -0.7887 -0.9314  0.9588
36293SOL    HW214972   2.487   8.602   1.746 -0.4069  1.2744 -1.1863
36294SOL     OW14973   5.169   3.636   0.797 -0.1820 -0.0598 -0.4038
36294SOL    HW114974   5.232   3.601   0.860 -0.9004  0.3908  0.5743
36294SOL    HW214975   5.224   3.674   0.728  0.6381  0.8105  0.6908
36295SOL     OW14976   4.644   1.272   9.347  0.2852  0.0896  0.3999
36295SOL    HW114977   4.607   1.347   9.301  0.3259  0.3214  0.7387
36295SOL    HW214978   4.706   1.310   9.410 -1.4950 -0.0099  2.3335
36296SOL     OW14979   8.212   0.948   6.768  0.2414  0.2190  0.2731
36296SOL    HW114980   8.248   0.927   6.682  0.9146  0.1155  0.5735
36296SOL    HW214981   8.252   0.885   6.828 -1.0706 -0.4291  0.5046
36297SOL     OW14982   7.155   1.974   7.016  0.4182 -0.0446 -0.2055
36297SOL    HW114983   7.185   2.065   7.014  1.0008 -0.2467 -1.0372
36297SOL    HW214984   7.148   1.949   6.923  0.6973 -0.9884  0.0212
36298SOL     OW14985   2.157   0.379   5.648  0.3507  0.0177 -0.0140
36298SOL    HW114986   2.099   0.403   5.576  1.1833 -0.0856 -0.7362
36298SOL    HW214987   2.209   0.306   5.614  0.8489  0.0518  0.6420
36299SOL     OW14988   1.861   7.766  10.143 -0.0162  0.4461 -0.0805
36299SOL    HW114989   1.812   7.849  10.141  0.7836  0.9324 -0.1067
36299SOL    HW214990   1.852   7.735  10.233 -0.8398  0.2344 -0.2302
36300SOL     OW14991   3.463   6.031   4.101  0.4379 -0.1904  0.5008
36300SOL    HW114992   3.401   5.973   4.145  0.4490  0.4574  1.3722
36300SOL    HW214993   3.526   5.971   4.060 -0.0546 -0.8137  0.6341
36301SOL     OW14994   1.300  10.622   1.173 -0.0493  0.6167  0.5293
36301SOL    HW114995   1.286  10.529   1.189  0.3033 -0.1228 -2.7133
36301SOL    HW214996   1.379  10.644   1.223 -0.8068 -0.4566  2.2912
36302SOL     OW14997   0.718  10.642   2.739  0.0683 -0.3104  0.7024
36302SOL    HW114998   0.669  10.678   2.813  0.7378 -1.0725  1.5319
36302SOL    HW214999   0.771  10.572   2.777  2.2238  0.8338 -0.0738
36303SOL     OW15000   6.175   1.986   6.812 -0.0585 -0.5493 -0.1361
36303SOL    HW115001   6.105   1.920   6.805  0.9800 -1.6212 -0.8383
36303SOL    HW215002   6.228   1.973   6.734 -0.5462  2.0430 -0.9885
36304SOL     OW15003   8.960   7.890   1.695 -0.1896  0.5971  0.3836
36304SOL    HW115004   9.039   7.886   1.749 -0.2170 -0.6135  0.3705
36304SOL    HW215005   8.987   7.852   1.611 -0.9283 -0.4185  0.5852
36305SOL     OW15006   1.206   2.477   1.194 -0.8111 -0.0596  0.0925
36305SOL    HW115007   1.187   2.493   1.102  0.5573 -0.8120 -0.3536
36305SOL    HW215008   1.197   2.382   1.204  0.0573 -0.1069  0.4796
36306SOL     OW15009   5.652   9.079   1.724 -0.1996  0.4356 -0.1616
36306SOL    HW115010   5.624   9.020   1.795 -0.7646  0.0029 -0.7330
36306SOL    HW215011   5.747   9.069   1.721 -0.2039  0.2089  0.3185
36307SOL     OW15012   6.578  10.925  10.231  0.1620  0.5573 -0.2833
36307SOL    HW115013   6.553  11.017  10.239 -2.1676 -0.1679  3.2776
36307SOL    HW215014   6.497  10.876  10.245  1.4392 -2.0734 -1.2873
36308SOL     OW15015  10.243   5.320  10.523 -0.5180 -0.2531 -0.1569
36308SOL    HW115016  10.332   5.306  10.493 -0.2075 -0.1586  0.6867
36308SOL    HW215017  10.205   5.382  10.460  1.0592  2.3318  1.2694
36309SOL     OW15018   8.467  10.597   5.704 -0.1556 -0.3766  0.3865
36309SOL    HW115019   8.443  10.663   5.639 -1.2352 -0.2719  0.8734
36309SOL    HW215020   8.558  10.576   5.683 -0.5234 -0.4733 -1.2553
36310SOL     OW15021   5.666   4.720   9.523  0.7235  0.0969 -0.2022
36310SOL    HW115022   5.619   4.641   9.551  0.6291  1.1321  2.8557
36310SOL    HW215023   5.744   4.687   9.478  1.0248 -1.8203  1.5751
36311SOL     OW15024   2.808   4.407   6.153  0.3333  0.5636 -0.6922
36311SOL    HW115025   2.750   4.475   6.119  0.4767  1.4475  0.7784
36311SOL    HW215026   2.894   4.448   6.157  0.6472 -0.0587 -0.8171
36312SOL     OW15027   5.556   4.149   0.600  0.1367  0.4158  0.1147
36312SOL    HW115028   5.551   4.063   0.642 -0.2875  1.5525  2.6471
36312SOL    HW215029   5.471   4.159   0.556 -0.2596 -0.0319  0.7550
36313SOL     OW15030   8.495  10.817   3.693  0.3036  0.8333  0.7246
36313SOL    HW115031   8.500  10.731   3.734 -2.0773  1.1168  1.8211
36313SOL    HW215032   8.459  10.874   3.762  0.6761  2.4257 -0.3456
36314SOL     OW15033   7.098   1.394   7.408 -0.2163  0.1363  0.0440
36314SOL    HW115034   7.130   1.476   7.444  1.4013 -0.7934  0.8265
36314SOL    HW215035   7.142   1.326   7.459  1.5928 -1.2559 -3.0432
36315SOL     OW15036   2.114   1.940   6.371  0.1329 -0.3044  0.2790
36315SOL    HW115037   2.080   1.869   6.425 -2.4709 -0.2677 -1.1551
36315SOL    HW215038   2.127   2.013   6.432 -4.5614  0.3825  0.8040
36316SOL     OW15039   6.962   2.649   9.348  0.0648 -0.4854 -0.1433
36316SOL    HW115040   6.866   2.648   9.346  0.0054  1.1115  0.3834
36316SOL    HW215041   6.986   2.570   9.397 -0.8838 -1.8121 -1.7069
36317SOL     OW15042   6.397   6.251   8.177  0.6793  0.1541 -0.6496
36317SOL    HW115043   6.394   6.217   8.088 -0.3001 -0.0846 -0.5360
36317SOL    HW215044   6.445   6.185   8.227 -1.1503 -1.0862 -0.4387
36318SOL     OW15045   6.837   1.575  10.238  0.4384 -0.0602  0.0635
36318SOL    HW115046   6.854   1.562  10.331 -0.9511  1.1592  0.5301
36318SOL    HW215047   6.780   1.503  10.213 -1.1048  0.8860  0.7614
36319SOL     OW15048   1.113   6.678   0.407  0.5952  0.4750 -0.0133
36319SOL    HW115049   1.095   6.767   0.377 -0.1974 -0.1611 -1.5925
36319SOL    HW215050   1.170   6.688   0.482  3.2579  2.2525 -2.1040
36320SOL     OW15051   7.227   1.158   2.604  0.6233 -0.3800 -0.3362
36320SOL    HW115052   7.213   1.161   2.509  0.7882 -2.1365 -0.4372
36320SOL    HW215053   7.305   1.212   2.618  0.9420 -0.5797 -1.2670
36321SOL     OW15054   9.101   3.787   8.811  0.4347 -0.6124 -0.0010
36321SOL    HW115055   9.159   3.864   8.807  0.8512 -0.9527 -0.7807
36321SOL    HW215056   9.062   3.791   8.898  1.3787 -0.1889  0.4146
36322SOL     OW15057   3.390   8.826   9.166 -0.5311 -0.2205  0.5114
36322SOL    HW115058   3.436   8.890   9.220 -0.2000  1.9409 -2.1101
36322SOL    HW215059   3.302   8.823   9.202 -0.3729  1.2724  1.1037
36323SOL     OW15060   6.811   0.867   2.395  0.2400  0.5601 -0.1517
36323SOL    HW115061   6.890   0.872   2.448  0.0392  1.1528  0.1050
36323SOL    HW215062   6.775   0.956   2.397 -0.4666  0.2836 -0.2083
36324SOL     OW15063   8.574   2.055   1.307 -0.6129  0.0255 -0.1298
36324SOL    HW115064   8.521   2.002   1.247  1.6183 -0.9885 -1.3359
36324SOL    HW215065   8.656   2.069   1.260 -0.8324  4.1015  0.3959
36325SOL     OW15066   3.581   0.834   0.202  0.1007  0.0405 -0.0720
36325SOL    HW115067   3.534   0.756   0.173  2.4963 -1.3767 -0.3507
36325SOL    HW215068   3.617   0.809   0.288  0.7627  0.8941 -0.0925
36326SOL     OW15069  10.486   2.458   0.169  0.0905 -0.4957 -0.1666
36326SOL    HW115070  10.476   2.553   0.176 -1.6150 -0.6208 -0.3035
36326SOL    HW215071  10.580   2.443   0.166  0.4725  1.0546  1.8605
36327SOL     OW15072   5.114   5.481   1.663 -0.2555 -0.1036  0.0162
36327SOL    HW115073   5.112   5.568   1.703  0.9592 -0.3707  0.7221
36327SOL    HW215074   5.144   5.423   1.733 -3.2266 -1.5286  0.2667
36328SOL     OW15075   3.058   1.343   3.152 -0.2153  0.2773 -0.0453
36328SOL    HW115076   3.074   1.335   3.246  1.9853 -0.9163 -0.4653
36328SOL    HW215077   3.042   1.253   3.123  0.8910  0.3999 -1.0868
36329SOL     OW15078   2.743   1.221   7.508  0.0160  0.1930 -0.1868
36329SOL    HW115079   2.748   1.273   7.428  0.1425  0.2304 -0.1542
36329SOL    HW215080   2.652   1.232   7.537 -1.0769 -2.5089 -2.1276
36330SOL     OW15081   1.449   7.259   5.921  0.1716 -0.2358 -0.1273
36330SOL    HW115082   1.541   7.285   5.908  0.3135 -0.1534  0.9891
36330SOL    HW215083   1.438   7.257   6.016 -0.6198 -1.5461 -0.2335
36331SOL     OW15084   0.757   2.188   5.590  0.3955  0.2704 -0.4162
36331SOL    HW115085   0.704   2.237   5.654  0.0247  0.3038 -0.7444
36331SOL    HW215086   0.747   2.237   5.508 -0.5362 -0.7103 -0.9177
36332SOL     OW15087   3.702   8.364   5.254 -0.2256  0.4292  0.2701
36332SOL    HW115088   3.678   8.307   5.181 -0.5938  0.7718  0.1275
36332SOL    HW215089   3.724   8.303   5.325 -0.1985  0.1025 -0.0179
36333SOL     OW15090   5.634   8.186   3.703  0.1992 -0.5287 -0.3289
36333SOL    HW115091   5.641   8.275   3.668  0.1441  0.4146  1.8900
36333SOL    HW215092   5.707   8.179   3.764 -1.3850 -0.9475  1.6117
36334SOL     OW15093   6.119   4.080   0.559  0.7106  0.3440  0.0584
36334SOL    HW115094   6.208   4.099   0.588  1.5408 -1.4837 -1.0781
36334SOL    HW215095   6.122   3.987   0.535 -1.6409  0.1337  0.4378
36335SOL     OW15096   7.374   0.972   7.794  0.6722  0.2091  0.2473
36335SOL    HW115097   7.415   0.959   7.708  1.4100 -3.5377  0.9844
36335SOL    HW215098   7.281   0.979   7.775  0.9137  0.5864 -0.9110
36336SOL     OW15099   3.891  10.842   1.264 -0.0618  0.3711  0.5500
36336SOL    HW115100   3.874  10.930   1.230 -0.0116 -0.8615 -3.1726
36336SOL    HW215101   3.818  10.823   1.322 -1.2135  2.1026 -0.2617
36337SOL     OW15102   8.404  10.810   0.583 -0.1586  0.1834 -0.2947
36337SOL    HW115103   8.473  10.804   0.649 -0.8474 -0.7478  0.3741
36337SOL    HW215104   8.425  10.889   0.534  0.8391  0.4481  0.5068
36338SOL     OW15105   2.714  10.291   7.931 -0.0107  0.0758  0.3969
36338SOL    HW115106   2.695  10.214   7.877 -0.4800  0.1095  0.5147
36338SOL    HW215107   2.783  10.337   7.882 -1.0526  0.5788 -0.6325
36339SOL     OW15108   8.485   5.993   0.593 -0.1947 -0.3070 -0.4745
36339SOL    HW115109   8.437   6.019   0.514 -1.0086  1.3555  0.5103
36339SOL    HW215110   8.435   6.031   0.665 -0.3797 -3.1420  1.0057
36340SOL     OW15111   8.900   7.185   7.826  0.0656  0.1677 -0.3554
36340SOL    HW115112   8.985   7.207   7.786 -0.4996 -1.0018 -2.3517
36340SOL    HW215113   8.896   7.090   7.822 -1.5749  0.2262 -0.8406
36341SOL     OW15114   1.786   1.484   5.964 -0.1677  0.0846  0.6002
36341SOL    HW115115   1.708   1.467   6.017 -0.7802 -0.7913 -0.5480
36341SOL    HW215116   1.758   1.548   5.899  0.7415  1.6117  1.6291
36342SOL     OW15117   4.506   8.101   9.559 -0.7908  0.5681 -0.2835
36342SOL    HW115118   4.562   8.172   9.590  0.4177 -0.0520 -0.9906
36342SOL    HW215119   4.418   8.125   9.589 -0.0400  1.1192  1.6011
36343SOL     OW15120   0.024   3.339   1.904  0.0415 -0.4134  1.0741
36343SOL    HW115121   0.107   3.381   1.929 -0.0468 -1.0307  2.5323
36343SOL    HW215122   0.048   3.278   1.835  0.2695  1.5409 -0.6729
36344SOL     OW15123   4.115  10.643   3.221  0.3340  0.2820  0.0101
36344SOL    HW115124   4.204  10.644   3.187  0.1853  2.4307 -0.4366
36344SOL    HW215125   4.079  10.728   3.196 -1.9706 -0.6773 -0.1473
36345SOL     OW15126   5.329   8.596   6.902  0.5964 -0.2299  0.7842
36345SOL    HW115127   5.323   8.542   6.823  0.5658  1.6373 -0.5655
36345SOL    HW215128   5.263   8.560   6.961  0.2031 -1.3092 -0.2621
36346SOL     OW15129   5.738  10.030   4.123  0.2867 -0.4535 -0.0650
36346SOL    HW115130   5.649   9.997   4.139 -0.2529  0.5419 -0.8958
36346SOL    HW215131   5.741  10.045   4.029  1.7003 -1.4346 -0.2018
36347SOL     OW15132  10.767   1.530   3.959  0.1613 -0.1897 -0.3614
36347SOL    HW115133  10.848   1.561   3.920 -0.7028  0.2601 -1.8844
36347SOL    HW215134  10.767   1.566   4.048  0.2801  2.2815 -1.3039
36348SOL     OW15135   9.480   8.969   8.587 -0.1649 -0.3093 -0.4574
36348SOL    HW115136   9.497   8.921   8.506  0.9842 -0.5272 -0.1109
36348SOL    HW215137   9.506   8.909   8.657 -0.4567  0.1380  0.0436
36349SOL     OW15138   7.745  10.590   1.620 -1.1370  0.1651 -0.0106
36349SOL    HW115139   7.817  10.652   1.606  0.5010 -1.8278 -0.8571
36349SOL    HW215140   7.667  10.637   1.591  0.0275  1.8415 -0.5738
36350SOL     OW15141   0.470   4.833   7.856  0.3357  0.3005  0.5036
36350SOL    HW115142   0.489   4.740   7.845  0.0834  0.3490 -0.4011
36350SOL    HW215143   0.387   4.847   7.810  1.7031  1.4842 -1.7844
36351SOL     OW15144   5.951   2.485   5.481 -0.4414  0.9691  0.5397
36351SOL    HW115145   5.887   2.417   5.503 -1.0729  1.1668 -0.6380
36351SOL    HW215146   5.898   2.563   5.464  0.2377  1.6009  1.2504
36352SOL     OW15147   2.511   4.903   5.136  0.5022 -0.1104 -0.0216
36352SOL    HW115148   2.556   4.963   5.076 -0.3376  0.7984  0.2338
36352SOL    HW215149   2.418   4.917   5.119  0.2668 -0.3495  1.0022
36353SOL     OW15150   8.020   2.060   7.157 -0.2960 -0.2225  0.0269
36353SOL    HW115151   7.989   2.080   7.069 -3.1846 -2.9278  0.2394
36353SOL    HW215152   8.053   2.143   7.191 -1.2828  1.4294 -2.7389
36354SOL     OW15153   1.661   0.004   1.818  0.4087 -0.7540  0.3410
36354SOL    HW115154   1.590   0.067   1.830  1.7108  1.2620 -1.5140
36354SOL    HW215155   1.631  -0.052   1.746  0.0203 -1.0391  0.7186
36355SOL     OW15156   3.776   3.793   1.529 -0.3350 -0.3349 -0.4158
36355SOL    HW115157   3.806   3.726   1.467 -1.3975 -0.1921 -1.1095
36355SOL    HW215158   3.820   3.771   1.611 -1.2292 -2.3783 -0.4127
36356SOL     OW15159   4.785   2.283   1.571 -0.1951 -0.3479  0.2161
36356SOL    HW115160   4.749   2.198   1.546 -0.2587  0.3449 -2.2516
36356SOL    HW215161   4.878   2.278   1.548 -0.0548  0.0250  0.6845
36357SOL     OW15162   8.578  10.552   4.857 -0.1279  0.1338  0.4084
36357SOL    HW115163   8.516  10.623   4.842 -0.3883 -0.3248 -0.8391
36357SOL    HW215164   8.646  10.565   4.791 -1.0906 -1.7403 -1.0672
36358SOL     OW15165   5.187   8.051   0.629  0.4655  0.2408 -0.3274
36358SOL    HW115166   5.183   8.139   0.591  1.4136  1.0322  1.3273
36358SOL    HW215167   5.132   8.055   0.707 -0.2513 -0.9369 -0.7374
36359SOL     OW15168   9.012   5.761   7.766 -0.5138 -0.4064  0.1197
36359SOL    HW115169   8.939   5.708   7.732 -0.2290  0.3871 -1.9228
36359SOL    HW215170   8.984   5.851   7.750  0.3289 -0.0469  0.6175
36360SOL     OW15171   9.805   8.833   1.054 -0.6595  0.6563  0.1281
36360SOL    HW115172   9.729   8.874   1.013 -0.4691  0.9865  0.1000
36360SOL    HW215173   9.841   8.777   0.986 -0.9882  0.3523  0.2035
36361SOL     OW15174   8.479   0.562   4.219 -0.1267 -0.2391  0.0772
36361SOL    HW115175   8.566   0.551   4.258 -0.2064  1.0524  0.6812
36361SOL    HW215176   8.495   0.610   4.138 -0.3485  1.1287  0.8021
36362SOL     OW15177   1.631   1.584   0.876  0.7549  0.1410  0.2268
36362SOL    HW115178   1.628   1.659   0.935 -0.3900  0.4400 -0.1838
36362SOL    HW215179   1.566   1.523   0.910  1.3357 -0.4635  0.2773
36363SOL     OW15180   2.064   6.218  10.436  0.0942  0.1795 -0.3760
36363SOL    HW115181   1.972   6.240  10.445  0.1348 -0.1800  1.2404
36363SOL    HW215182   2.093   6.198  10.525  1.7324  0.2753 -0.8464
36364SOL     OW15183  10.075   1.686   4.199 -0.1842  0.0282  0.4762
36364SOL    HW115184  10.021   1.728   4.133 -0.5243  0.4344  1.0127
36364SOL    HW215185  10.015   1.665   4.271  0.1625 -0.4895  0.6279
36365SOL     OW15186   9.752   1.266   0.903  0.5645 -0.8554  0.0182
36365SOL    HW115187   9.766   1.328   0.975 -0.4027 -1.4390  0.7415
36365SOL    HW215188   9.798   1.304   0.829 -0.4862  1.0310  0.2776
36366SOL     OW15189   1.071   9.996   5.992  0.0600 -0.1298 -0.1296
36366SOL    HW115190   0.999  10.055   6.015 -0.0775 -0.6907  0.9660
36366SOL    HW215191   1.131  10.050   5.941 -0.0442  0.9747  0.8790
36367SOL     OW15192   1.883   4.048   4.183  0.3289  0.0871 -0.0268
36367SOL    HW115193   1.868   4.021   4.093 -1.6316  0.0944  0.2506
36367SOL    HW215194   1.886   4.144   4.180  1.0398  0.0704 -0.1606
36368SOL     OW15195   4.797   7.238   9.245 -0.0371  0.0767  0.3454
36368SOL    HW115196   4.804   7.292   9.166  0.9762 -0.9297 -0.2837
36368SOL    HW215197   4.887   7.221   9.271 -0.3331 -0.9384  0.7738
36369SOL     OW15198   2.101   2.635  10.914 -0.3767  0.1606 -0.1993
36369SOL    HW115199   2.068   2.599  10.832  0.2764 -1.9107  0.3758
36369SOL    HW215200   2.024   2.641  10.970 -0.1861 -3.4641  0.7166
36370SOL     OW15201  10.470   6.113   8.053  0.0963  0.3093  0.3446
36370SOL    HW115202  10.470   6.137   7.960 -1.4181 -0.1263  0.2103
36370SOL    HW215203  10.386   6.145   8.086  0.7831  0.8097  1.6765
36371SOL     OW15204  10.611   7.832   5.022 -0.3232 -0.3553  0.2561
36371SOL    HW115205  10.568   7.917   5.026  0.4578  0.1525 -1.2319
36371SOL    HW215206  10.671   7.832   5.097 -0.4559  0.3408  0.3675
36372SOL     OW15207   1.530   9.891   7.293  0.3270 -0.0155 -0.0833
36372SOL    HW115208   1.476   9.890   7.373  0.0119 -2.3403 -0.2772
36372SOL    HW215209   1.617   9.918   7.324 -0.2073  0.8737  0.7183
36373SOL     OW15210   5.848   4.460   6.193 -0.4803 -0.3069  0.3077
36373SOL    HW115211   5.760   4.492   6.211 -0.5310 -0.0660 -0.3298
36373SOL    HW215212   5.850   4.371   6.230 -1.6444 -1.0877 -1.3516
36374SOL     OW15213  10.180   3.578   4.893 -0.3860 -0.5366  0.0028
36374SOL    HW115214  10.230   3.578   4.974 -0.1816 -1.3527 -0.1093
36374SOL    HW215215  10.228   3.638   4.835 -0.4121 -0.1231  0.4123
36375SOL     OW15216   0.621   0.713  10.106  0.3850 -0.3124 -0.0970
36375SOL    HW115217   0.674   0.714  10.185  0.4941  1.6162 -0.1497
36375SOL    HW215218   0.570   0.794  10.110 -0.9997 -1.0978 -1.0897
36376SOL     OW15219   7.007   3.153   1.019  0.7101 -0.2733 -0.2415
36376SOL    HW115220   7.099   3.168   1.043  0.8941  1.0121 -1.5734
36376SOL    HW215221   6.958   3.210   1.078  0.8724 -0.0167 -0.3487
36377SOL     OW15222  10.277   2.319   6.965  0.2418 -0.2489 -0.0562
36377SOL    HW115223  10.367   2.297   6.992  0.7722 -0.0614 -1.6055
36377SOL    HW215224  10.256   2.398   7.015  0.9440 -0.2841  0.3052
36378SOL     OW15225   2.877   7.608   8.316  0.6757 -0.1951  0.2482
36378SOL    HW115226   2.845   7.625   8.227  0.7449 -2.6700 -0.3193
36378SOL    HW215227   2.802   7.630   8.372 -0.0887 -0.5641 -0.5999
36379SOL     OW15228   4.723   1.807   2.862  0.2692  0.6959  0.1824
36379SOL    HW115229   4.740   1.717   2.837  1.5353  1.2090 -0.9271
36379SOL    HW215230   4.718   1.855   2.779 -1.3542  1.5118  0.6934
36380SOL     OW15231   8.326   4.532  10.538  0.2288  0.1134 -0.1159
36380SOL    HW115232   8.315   4.537  10.633 -0.0704 -0.3211 -0.1229
36380SOL    HW215233   8.244   4.568  10.503  0.9502  1.7458 -0.2398
36381SOL     OW15234   2.086   2.887   2.132 -0.4279 -0.0867 -0.6133
36381SOL    HW115235   2.176   2.858   2.147 -0.3143  0.5234 -0.0671
36381SOL    HW215236   2.045   2.884   2.218 -1.9258 -3.5111 -1.2924
36382SOL     OW15237   3.103   8.395   7.101  0.5229  0.4375 -0.1514
36382SOL    HW115238   3.156   8.468   7.069  1.8858 -0.4744 -0.0674
36382SOL    HW215239   3.067   8.355   7.022 -1.8934  2.3331 -0.1173
36383SOL     OW15240   4.039   4.734   4.993  0.3849 -0.4300  0.3128
36383SOL    HW115241   4.111   4.719   5.054  1.1365  0.0957 -0.4272
36383SOL    HW215242   4.081   4.761   4.912 -0.6405 -0.3205 -0.2043
36384SOL     OW15243   5.115   1.992   0.126 -0.1204 -0.4464  0.0993
36384SOL    HW115244   5.056   1.945   0.186 -1.5283 -0.9922 -1.6256
36384SOL    HW215245   5.171   1.924   0.089  0.7888 -0.1006  0.7908
36385SOL     OW15246   9.387   3.196   6.228 -0.4115  0.1615  0.0885
36385SOL    HW115247   9.431   3.139   6.290 -1.3326 -0.0193  0.6062
36385SOL    HW215248   9.294   3.187   6.250 -0.6957  0.6230 -0.8750
36386SOL     OW15249   7.965   1.669   8.346 -0.6760  0.2750 -0.0236
36386SOL    HW115250   7.996   1.648   8.434  0.9739 -0.3453 -0.7066
36386SOL    HW215251   7.898   1.604   8.328  1.3433 -1.8205 -0.4520
36387SOL     OW15252   9.739   7.088  10.362  0.2790 -0.2776 -0.1854
36387SOL    HW115253   9.814   7.031  10.380 -0.0635 -0.7521 -0.2452
36387SOL    HW215254   9.778   7.165  10.319  0.9926  0.4313  1.6232
36388SOL     OW15255   4.147  10.697   6.298  0.1653 -0.4855 -0.4197
36388SOL    HW115256   4.221  10.694   6.237 -0.4783 -1.1955 -1.1837
36388SOL    HW215257   4.178  10.751   6.370  1.3609 -0.6074 -0.8228
36389SOL     OW15258   8.834   1.491   0.060 -0.2349  0.5025  0.1928
36389SOL    HW115259   8.792   1.426   0.116 -1.3136  2.0571  1.2883
36389SOL    HW215260   8.762   1.532   0.012  0.0462  2.5473  1.3743
36390SOL     OW15261   6.745  10.219   9.554 -0.3977  0.0294 -0.4782
36390SOL    HW115262   6.715  10.129   9.564  0.6576 -0.3976 -0.9078
36390SOL    HW215263   6.817  10.226   9.617 -2.3425  1.5378  1.7480
36391SOL     OW15264   2.671   9.775   8.311  0.0532 -0.2038 -0.2592
36391SOL    HW115265   2.640   9.705   8.368  0.5863  1.1147  1.7747
36391SOL    HW215266   2.707   9.840   8.371  1.2288  1.0072 -2.1744
36392SOL     OW15267   1.765   7.005   8.757 -0.0974  0.1697 -0.2632
36392SOL    HW115268   1.723   7.021   8.672  0.2776 -0.6521 -0.6130
36392SOL    HW215269   1.697   7.022   8.821 -1.2805 -1.9900 -0.8505
36393SOL     OW15270   1.889   7.805   9.431  0.2363 -0.4091 -0.3774
36393SOL    HW115271   1.936   7.751   9.494  1.6704 -0.8127 -1.7264
36393SOL    HW215272   1.802   7.817   9.469  1.1073 -0.4376  1.7690
36394SOL     OW15273   9.968   0.959   7.152 -0.8209  0.2501  0.0144
36394SOL    HW115274  10.061   0.979   7.144 -0.1010 -2.3009  0.9242
36394SOL    HW215275   9.955   0.883   7.094 -2.0612 -0.1683  0.7975
36395SOL     OW15276   2.505   0.151   9.223  0.2135  0.5855 -0.1457
36395SOL    HW115277   2.559   0.152   9.145  2.0713  0.3363  1.0671
36395SOL    HW215278   2.415   0.155   9.191  0.8491 -0.9821 -2.3204
36396SOL     OW15279   9.527  10.838   7.000 -0.0864 -0.3334 -0.2729
36396SOL    HW115280   9.611  10.793   6.990  0.3370  0.0098  1.3316
36396SOL    HW215281   9.547  10.911   7.058 -1.3986  0.0554 -0.2972
36397SOL     OW15282   5.321   3.462   7.874  0.5328  0.3061 -0.5048
36397SOL    HW115283   5.328   3.388   7.813  1.9398 -0.4464  0.5215
36397SOL    HW215284   5.401   3.512   7.861  0.2556  0.8510 -0.1680
36398SOL     OW15285   6.576   0.339   3.367 -0.2921  0.5715 -0.3218
36398SOL    HW115286   6.634   0.317   3.440 -1.8362  1.7788  1.3676
36398SOL    HW215287   6.496   0.289   3.385 -0.2496 -0.1292 -1.9375
36399SOL     OW15288   4.550   7.606  10.800 -0.1474 -0.5958  0.1846
36399SOL    HW115289   4.530   7.610  10.706 -0.3426  2.2177  0.2698
36399SOL    HW215290   4.464   7.604  10.843 -0.1084  0.3962  0.3271
36400SOL     OW15291   0.619   5.108   9.096 -0.4129 -0.6203 -0.3204
36400SOL    HW115292   0.712   5.128   9.105 -0.5851  0.4089 -0.7382
36400SOL    HW215293   0.591   5.082   9.183  0.7573 -3.1921 -0.6061
36401SOL     OW15294   0.997   6.190   8.274 -0.2436  0.3435 -0.5780
36401SOL    HW115295   0.919   6.182   8.328  0.1515 -1.4637 -0.2335
36401SOL    HW215296   1.042   6.106   8.283  1.5498  1.1994 -1.0662
36402SOL     OW15297   4.800   8.144   1.886  0.0370 -0.0909 -0.4871
36402SOL    HW115298   4.766   8.095   1.811  0.3094 -2.2549  0.7364
36402SOL    HW215299   4.731   8.207   1.905 -0.8988 -0.8016 -1.3663
36403SOL     OW15300   4.157   5.319   5.430 -0.4783 -0.1336 -0.2621
36403SOL    HW115301   4.209   5.322   5.350 -1.1783 -0.6578 -0.7520
36403SOL    HW215302   4.184   5.238   5.473  0.4856  0.5478  0.4573
36404SOL     OW15303   1.080   7.706   6.173  0.2750 -0.1153 -0.0144
36404SOL    HW115304   1.141   7.715   6.099 -0.2678 -2.7415 -0.8907
36404SOL    HW215305   1.135   7.679   6.247  0.3073 -2.5562 -0.8237
36405SOL     OW15306   3.707   0.973   8.763  0.0541  0.3289 -0.1684
36405SOL    HW115307   3.730   1.019   8.682  1.1282  0.9399  0.4486
36405SOL    HW215308   3.620   0.937   8.747 -0.0531  1.0574 -1.3288
36406SOL     OW15309   6.748   6.375   9.538 -0.2400  0.4375  0.1016
36406SOL    HW115310   6.819   6.359   9.600 -0.3296  0.7028  0.2726
36406SOL    HW215311   6.791   6.414   9.462 -0.5574  3.4632  1.3617
36407SOL     OW15312  10.209  10.601   3.780 -0.6453 -0.1573  0.1458
36407SOL    HW115313  10.215  10.666   3.710 -0.9587 -0.5193 -0.2244
36407SOL    HW215314  10.139  10.633   3.837 -1.0515 -0.3445 -0.2334
36408SOL     OW15315   6.173   8.106   5.102 -0.8143  0.2457  0.3395
36408SOL    HW115316   6.155   8.159   5.180 -0.2817 -0.3575  0.8841
36408SOL    HW215317   6.094   8.053   5.090 -0.4844 -0.4452  1.1232
36409SOL     OW15318  10.417   1.195   5.242 -0.0820  0.1907  0.4629
36409SOL    HW115319  10.487   1.180   5.305 -0.3669  0.7490  0.9199
36409SOL    HW215320  10.342   1.148   5.278  0.6075 -2.3354 -1.1472
36410SOL     OW15321   2.678   4.887   3.888 -0.3244 -0.3767 -0.0295
36410SOL    HW115322   2.742   4.895   3.959 -1.2377 -1.4445  0.9701
36410SOL    HW215323   2.594   4.880   3.933 -1.0569  0.0278 -1.2802
36411SOL     OW15324   7.951   8.294   5.739 -0.1245 -0.2326  0.1022
36411SOL    HW115325   7.982   8.378   5.772 -0.4787  0.0845 -0.3535
36411SOL    HW215326   7.856   8.297   5.750 -0.5065  0.7146 -2.6908
36412SOL     OW15327   6.389   1.967   8.788 -0.1835  0.5780  0.2343
36412SOL    HW115328   6.332   2.041   8.767 -0.8935  0.1255  0.5229
36412SOL    HW215329   6.360   1.938   8.874  0.0851 -0.0433  0.1206
36413SOL     OW15330   0.147  10.603   2.968  0.5121 -0.2746 -0.2532
36413SOL    HW115331   0.081  10.553   3.016 -0.0178 -0.0378 -0.7251
36413SOL    HW215332   0.229  10.556   2.983  0.0992 -1.0253 -0.3263
36414SOL     OW15333   0.180   4.240   9.964 -0.0811 -0.3288  0.5867
36414SOL    HW115334   0.204   4.328   9.933 -0.4514 -0.6256 -0.6316
36414SOL    HW215335   0.150   4.254  10.053  0.5863  0.6693  0.6790
36415SOL     OW15336   0.661   1.874   4.115 -0.6236  0.2601  0.1884
36415SOL    HW115337   0.622   1.910   4.035 -2.1024 -0.9807  0.3135
36415SOL    HW215338   0.587   1.841   4.165  0.5183 -1.6124  0.7452
36416SOL     OW15339   2.247   9.017   1.292 -0.7336 -0.2983 -0.8154
36416SOL    HW115340   2.312   9.087   1.294 -0.6576 -0.3810 -0.2779
36416SOL    HW215341   2.168   9.058   1.256 -0.2418 -0.3259 -1.9619
36417SOL     OW15342   3.035   3.292   2.878 -0.7445  0.2849  0.4105
36417SOL    HW115343   3.012   3.306   2.786  0.7981 -2.9426 -0.6130
36417SOL    HW215344   2.963   3.241   2.914 -1.4508  1.7276  1.1285
36418SOL     OW15345   8.160   9.626   3.585  0.4697 -1.0611 -0.2988
36418SOL    HW115346   8.084   9.638   3.527  1.4035  1.4102 -1.1538
36418SOL    HW215347   8.139   9.678   3.662  1.6339  0.4417 -0.9520
36419SOL     OW15348   1.822   9.213   5.081 -0.3718 -0.2863 -0.8000
36419SOL    HW115349   1.761   9.254   5.019 -1.3557 -1.9422 -0.9902
36419SOL    HW215350   1.849   9.132   5.038  0.8440 -0.2891 -0.0760
36420SOL     OW15351   4.173   9.558   3.126 -0.1197  0.2639 -0.7995
36420SOL    HW115352   4.149   9.503   3.052  1.0268 -0.9283 -0.3226
36420SOL    HW215353   4.105   9.625   3.129 -1.3093 -0.8564 -1.6887
36421SOL     OW15354   7.084   7.351   4.266  0.2325 -0.1559  0.1478
36421SOL    HW115355   7.037   7.280   4.222  0.0897 -1.4565  2.2938
36421SOL    HW215356   7.015   7.406   4.303  0.3604 -0.0869  0.2834
36422SOL     OW15357   5.629   6.770   5.838  0.1388  0.3990  0.1143
36422SOL    HW115358   5.536   6.791   5.840  0.2196  1.1589 -1.9095
36422SOL    HW215359   5.651   6.750   5.929 -1.9417  0.3826  0.6668
36423SOL     OW15360   2.383   0.213   6.190 -0.4917 -0.2056 -0.4126
36423SOL    HW115361   2.474   0.241   6.195 -1.1789  2.1200  0.5702
36423SOL    HW215362   2.359   0.194   6.281 -0.3251 -3.3953 -0.9376
36424SOL     OW15363   8.212   7.115   6.699 -0.5429 -0.4780  0.4009
36424SOL    HW115364   8.300   7.149   6.712 -0.6748 -0.5103  1.4305
36424SOL    HW215365   8.218   7.062   6.619 -0.1062  1.1494 -0.7125
36425SOL     OW15366   5.470   1.247   7.549 -0.1076  0.0951  0.4728
36425SOL    HW115367   5.414   1.250   7.471 -0.5722 -2.6554  0.5931
36425SOL    HW215368   5.444   1.324   7.600 -0.2549  1.6046 -1.7264
36426SOL     OW15369   7.170   8.852   9.585  0.8336 -0.0617  0.6774
36426SOL    HW115370   7.184   8.838   9.678 -2.4316  3.0100  1.8779
36426SOL    HW215371   7.103   8.788   9.561  0.3259  0.3324  1.0003
36427SOL     OW15372   5.341  10.146   0.781  0.3674  0.0971  0.5292
36427SOL    HW115373   5.370  10.188   0.700 -1.1516 -0.2188 -0.2276
36427SOL    HW215374   5.388  10.192   0.851  1.1181  0.9041 -0.4814
36428SOL     OW15375   3.232   9.832   4.578 -0.2874 -0.0290 -0.1386
36428SOL    HW115376   3.228   9.869   4.490 -1.5139 -0.9817 -0.5117
36428SOL    HW215377   3.175   9.756   4.575  0.6933 -0.8607  1.1307
36429SOL     OW15378   7.215   8.273   8.260  0.6299 -0.1943 -0.4344
36429SOL    HW115379   7.250   8.214   8.327 -0.7640  0.2755  0.7659
36429SOL    HW215380   7.128   8.239   8.241  0.7952  0.0036 -1.6339
36430SOL     OW15381  10.418   3.628   9.202 -0.0783  0.8991 -0.1005
36430SOL    HW115382  10.476   3.562   9.166 -0.7340 -0.2414  0.8488
36430SOL    HW215383  10.452   3.645   9.289 -1.5758 -0.3994  0.7938
36431SOL     OW15384   1.127   3.616   1.508 -0.2885 -0.0453  0.2161
36431SOL    HW115385   1.034   3.634   1.520 -0.1895 -0.6017  2.1801
36431SOL    HW215386   1.144   3.540   1.563  1.5382  0.6876  0.7458
36432SOL     OW15387   3.936   0.966   6.819  0.4846 -0.2769 -0.0296
36432SOL    HW115388   3.860   0.950   6.764  0.4929 -1.0171  0.1564
36432SOL    HW215389   3.969   1.051   6.791 -0.5379  0.1522  0.0433
36433SOL     OW15390  10.568   3.012   3.874 -0.1113 -0.2330  0.0475
36433SOL    HW115391  10.503   3.083   3.873 -0.5082 -0.5925 -0.4279
36433SOL    HW215392  10.573   2.985   3.965  0.6094  0.9165  0.3582
36434SOL     OW15393   6.908   1.199   3.015  0.4514  0.0619 -0.4784
36434SOL    HW115394   6.865   1.114   3.015  2.4939 -1.0381 -0.8329
36434SOL    HW215395   6.950   1.205   2.930 -1.2041  2.3229 -1.2320
36435SOL     OW15396   8.863   1.362   4.192 -0.2881 -0.3187  0.0147
36435SOL    HW115397   8.831   1.277   4.164  0.0834 -0.3827 -0.2277
36435SOL    HW215398   8.824   1.424   4.130  0.2049 -0.4164 -0.3953
36436SOL     OW15399   9.452   0.856   6.753 -0.7377 -0.1081 -0.4650
36436SOL    HW115400   9.502   0.831   6.830  0.5247 -0.9268 -1.5123
36436SOL    HW215401   9.426   0.947   6.769  0.8102  0.2360  0.2494
36437SOL     OW15402   5.401   9.250   9.577  0.3010 -0.3639  0.2658
36437SOL    HW115403   5.386   9.267   9.484 -0.4593  3.4904  0.9037
36437SOL    HW215404   5.314   9.258   9.617  0.6542 -1.6957  1.3716
36438SOL     OW15405   6.203   0.880  10.825  0.2331 -0.6130  0.3301
36438SOL    HW115406   6.262   0.860  10.899 -0.7234  0.3405  1.3838
36438SOL    HW215407   6.125   0.827  10.842 -0.2736  0.1431  0.4070
36439SOL     OW15408  10.289  10.348   9.499  0.0304 -0.2033 -0.2890
36439SOL    HW115409  10.287  10.268   9.552 -0.0456 -1.9571 -2.7935
36439SOL    HW215410  10.198  10.362   9.474  0.2100 -0.0336 -0.8483
36440SOL     OW15411   6.152   5.954   0.006 -0.4393 -0.3639  0.1114
36440SOL    HW115412   6.242   5.964   0.036 -0.4471  0.2542 -0.0482
36440SOL    HW215413   6.152   5.873  -0.045  0.2332  0.0757 -0.6157
36441SOL     OW15414   5.827   8.976   6.984  0.1210 -0.3808 -0.3270
36441SOL    HW115415   5.737   8.998   6.959  0.5475  0.4847 -1.1684
36441SOL    HW215416   5.844   8.891   6.943  0.3216  0.3492 -1.8241
36442SOL     OW15417   0.650   3.990   8.085 -0.2123  0.8044 -0.3043
36442SOL    HW115418   0.571   4.043   8.084 -0.6760  0.1283 -0.3285
36442SOL    HW215419   0.653   3.954   8.173 -0.4165  0.1307 -0.5640
36443SOL     OW15420   7.081   0.650   1.317  0.2987 -0.2184  0.1885
36443SOL    HW115421   6.996   0.654   1.274  0.6186  1.0254 -0.3573
36443SOL    HW215422   7.126   0.729   1.289  1.2457 -0.3371  1.3055
36444SOL     OW15423   4.207   7.542   0.416 -0.1727 -0.3536  0.5684
36444SOL    HW115424   4.161   7.501   0.343 -1.5555 -0.1077  1.2716
36444SOL    HW215425   4.285   7.581   0.376 -1.1190  0.1501 -0.8689
36445SOL     OW15426   2.237   5.104  10.715  0.3800 -0.0334 -0.3036
36445SOL    HW115427   2.300   5.126  10.647 -0.9039  0.9130 -1.2200
36445SOL    HW215428   2.290   5.093  10.794  1.5031  3.0653 -0.4973
36446SOL     OW15429   5.234   2.809   6.205 -0.3677 -0.1625 -0.1087
36446SOL    HW115430   5.306   2.782   6.148 -1.2041  0.3958 -1.4713
36446SOL    HW215431   5.195   2.727   6.234  0.4017 -0.4598  0.1324
36447SOL     OW15432   0.157   3.735   1.984 -0.4648  0.4978 -0.1020
36447SOL    HW115433   0.231   3.746   2.044 -0.5392  0.8725 -0.0758
36447SOL    HW215434   0.147   3.640   1.976  0.5790  0.4294 -0.7916
36448SOL     OW15435   3.506   1.840   9.338 -0.1379  0.4491 -0.0154
36448SOL    HW115436   3.598   1.838   9.366 -0.5356  0.7731  1.3781
36448SOL    HW215437   3.478   1.930   9.353 -0.0802  0.9463 -2.5724
36449SOL     OW15438   9.474   5.613   6.593  0.2036 -0.1888 -0.1286
36449SOL    HW115439   9.432   5.544   6.541  0.7867 -0.9704  0.4205
36449SOL    HW215440   9.549   5.641   6.540 -0.7266  0.9097 -0.9151
36450SOL     OW15441   0.626   4.671   0.544  0.4453 -0.2096 -0.1074
36450SOL    HW115442   0.658   4.591   0.502  1.2965  0.4896 -0.8369
36450SOL    HW215443   0.698   4.698   0.601 -0.2216 -0.4803  0.8771
36451SOL     OW15444   8.203  10.596  10.263  0.5590 -0.1376  0.0868
36451SOL    HW115445   8.155  10.679  10.266 -0.0101 -0.4463 -0.3549
36451SOL    HW215446   8.171  10.546  10.338  2.0609  0.6409  1.3235
36452SOL     OW15447   3.794   2.636   2.637  0.0542 -0.3671 -0.1554
36452SOL    HW115448   3.757   2.708   2.588  1.1279 -0.8857 -1.7987
36452SOL    HW215449   3.735   2.562   2.620 -0.7002 -0.0758  1.0307
36453SOL     OW15450   4.648   0.609   2.359  0.1946 -0.0853 -0.7784
36453SOL    HW115451   4.706   0.642   2.428  1.5173 -1.0995 -1.3332
36453SOL    HW215452   4.672   0.660   2.282 -0.8095  0.5918 -0.6477
36454SOL     OW15453   5.774   5.814  10.176 -0.2719 -0.4622 -0.4754
36454SOL    HW115454   5.785   5.762  10.096  0.4242  2.7218 -2.6574
36454SOL    HW215455   5.686   5.850  10.169 -0.2122 -0.1733  0.2352
36455SOL     OW15456   0.288   5.223  10.563  0.1238  0.2305  0.0345
36455SOL    HW115457   0.363   5.221  10.622  1.1675  2.8953 -1.0389
36455SOL    HW215458   0.324   5.199  10.478 -0.4307  0.6326 -0.3174
36456SOL     OW15459   1.979   6.891   0.685 -0.2935  0.3607  0.4489
36456SOL    HW115460   2.057   6.851   0.722 -0.6763 -1.5763 -0.7169
36456SOL    HW215461   2.000   6.905   0.593 -1.2627 -0.0873  0.1426
36457SOL     OW15462   1.292   6.966   8.186 -0.6215  0.0026  0.0403
36457SOL    HW115463   1.315   6.891   8.131 -1.2992 -0.3065  0.1774
36457SOL    HW215464   1.371   7.020   8.186  0.0620 -0.9713  0.3810
36458SOL     OW15465   5.933   4.218   2.689 -0.2316 -0.0991 -0.1542
36458SOL    HW115466   5.987   4.273   2.745 -0.5462 -0.7875  0.8590
36458SOL    HW215467   5.889   4.158   2.750 -0.7982 -0.6857 -1.1169
36459SOL     OW15468   8.084  10.827   6.799 -0.0391 -0.3904  0.2290
36459SOL    HW115469   8.170  10.868   6.791 -0.5995  0.4662 -2.5674
36459SOL    HW215470   8.100  10.734   6.781  0.7654 -1.0029  3.4865
36460SOL     OW15471   5.231   5.368   5.138  1.0351  0.2092  0.8760
36460SOL    HW115472   5.264   5.399   5.223  0.2996  0.4010  1.1028
36460SOL    HW215473   5.276   5.285   5.123  1.0189  0.0717  1.5593
36461SOL     OW15474   0.991   2.591   8.115  0.0706 -0.0017 -0.6526
36461SOL    HW115475   1.011   2.499   8.133  0.1658 -0.1120 -1.2909
36461SOL    HW215476   1.060   2.619   8.054 -1.2519 -0.1790 -2.2976
36462SOL     OW15477   4.473   6.626   8.536  0.3636  0.1479 -0.1309
36462SOL    HW115478   4.505   6.549   8.583 -1.3281 -1.7075 -1.8127
36462SOL    HW215479   4.384   6.602   8.510  0.5047  1.8672 -2.4840
36463SOL     OW15480   2.355   7.566   4.582  0.0889  0.0394  0.0712
36463SOL    HW115481   2.335   7.651   4.621 -2.9416 -0.1456 -0.8850
36463SOL    HW215482   2.329   7.574   4.491  0.0873 -1.7944 -0.1293
36464SOL     OW15483   3.324  10.229  10.164  0.4786  0.1295 -0.4587
36464SOL    HW115484   3.369  10.314  10.158 -0.2835  0.5877  0.1492
36464SOL    HW215485   3.261  10.230  10.092  0.2687  0.2113 -0.2776
36465SOL     OW15486   5.136   5.123   6.081 -0.2177 -0.6891  0.5267
36465SOL    HW115487   5.146   5.183   6.155 -0.5223  0.9760 -0.7135
36465SOL    HW215488   5.213   5.066   6.085  0.8953  0.7744  0.9172
36466SOL     OW15489   1.112   1.744   8.300  0.1624  0.3532  0.4415
36466SOL    HW115490   1.202   1.720   8.279 -0.1805  0.8188 -1.8908
36466SOL    HW215491   1.093   1.818   8.242 -1.5939  0.5136  1.1610
36467SOL     OW15492   1.372   0.282   1.819  0.7754 -0.0649  0.8411
36467SOL    HW115493   1.349   0.189   1.826  0.3399  0.1011  1.9096
36467SOL    HW215494   1.312   0.326   1.879  1.5937  0.7967  1.0569
36468SOL     OW15495   0.127   5.000   0.339  0.4672  0.1522  0.4273
36468SOL    HW115496   0.084   4.916   0.354  1.3997 -0.6166 -0.9417
36468SOL    HW215497   0.121   5.046   0.423  2.1659 -2.3163  2.0554
36469SOL     OW15498   5.487   9.049   4.305 -0.0436  0.5621 -0.2788
36469SOL    HW115499   5.534   8.973   4.271  2.4708  0.7790  2.3819
36469SOL    HW215500   5.489   9.039   4.400 -0.9197  3.2307  0.1213
36470SOL     OW15501   4.874   5.471   8.029 -0.6008 -0.4529 -0.5725
36470SOL    HW115502   4.802   5.469   8.092  0.6937 -2.3926  0.9703
36470SOL    HW215503   4.831   5.464   7.944 -2.3104  0.2812  0.1752
36471SOL     OW15504  10.338   0.842  10.317  0.2609 -0.2065  0.4115
36471SOL    HW115505  10.278   0.768  10.315  0.0401 -0.2104  3.1898
36471SOL    HW215506  10.313   0.891  10.396  2.8347  0.6871  0.7643
36472SOL     OW15507   7.261   7.071   7.021  0.1135  0.1901  0.2312
36472SOL    HW115508   7.194   7.003   7.027 -1.6123  1.6261 -1.5377
36472SOL    HW215509   7.254   7.118   7.104  0.0466 -0.6113  0.6968
36473SOL     OW15510   8.148   7.361   4.582  0.1426  0.3294  0.0363
36473SOL    HW115511   8.130   7.284   4.529 -2.7861  1.0050 -0.1004
36473SOL    HW215512   8.118   7.338   4.670  0.0277  1.0244  0.1891
36474SOL     OW15513   2.334   4.937   0.827 -0.5228 -1.1606 -0.1732
36474SOL    HW115514   2.373   4.905   0.909 -0.5880 -0.5287  0.1119
36474SOL    HW215515   2.245   4.961   0.850 -0.9619 -2.2137 -0.7376
36475SOL     OW15516   4.549   2.100   3.099  0.0349 -0.1589  0.1201
36475SOL    HW115517   4.569   2.142   3.182  0.7471 -0.6376  0.1961
36475SOL    HW215518   4.551   2.172   3.035 -1.4111  0.3666  0.6268
36476SOL     OW15519   6.797   1.112   0.022  0.1980  0.7263  0.2597
36476SOL    HW115520   6.886   1.125  -0.011  0.5246 -0.7507  0.4722
36476SOL    HW215521   6.773   1.196   0.061  0.6449  1.8275 -1.7219
36477SOL     OW15522   1.781   7.632   6.613 -0.3606 -0.3040 -0.5668
36477SOL    HW115523   1.727   7.639   6.535 -0.3349 -1.7577 -0.7461
36477SOL    HW215524   1.777   7.539   6.637  0.8366 -0.1691  0.2863
36478SOL     OW15525   7.245   1.750   5.626  0.8370 -0.8020  0.0812
36478SOL    HW115526   7.254   1.736   5.721  1.3515 -0.3949  0.0956
36478SOL    HW215527   7.257   1.662   5.588  3.1739 -0.6124  0.2340
36479SOL     OW15528   4.642   6.325   9.574  0.7425 -0.6942 -0.0817
36479SOL    HW115529   4.549   6.314   9.555  0.1585  0.9092  1.5909
36479SOL    HW215530   4.654   6.280   9.658  1.6798 -1.5332 -0.6383
36480SOL     OW15531   5.060  10.055   2.994  0.4189 -0.1631  0.2335
36480SOL    HW115532   5.145  10.015   3.012 -0.2766 -1.0895  1.7096
36480SOL    HW215533   5.064  10.081   2.902  2.1930 -0.4025  0.2087
36481SOL     OW15534   6.474   3.986   6.513 -0.4045 -0.0167  0.1565
36481SOL    HW115535   6.536   3.919   6.543  0.1607  0.0647 -0.7733
36481SOL    HW215536   6.388   3.945   6.522 -0.1780 -0.3287  0.9676
36482SOL     OW15537   2.209   6.761   5.214  0.3760  0.9825 -0.1765
36482SOL    HW115538   2.298   6.734   5.189  0.5731  2.1847 -0.8409
36482SOL    HW215539   2.207   6.752   5.309  0.5566 -0.9343 -0.3201
36483SOL     OW15540   6.559   3.503   4.007 -0.5453 -0.0841 -0.3535
36483SOL    HW115541   6.568   3.561   3.931  0.7884 -0.2144 -0.3205
36483SOL    HW215542   6.643   3.459   4.013 -0.2076  0.7634  1.8822
36484SOL     OW15543   1.541   6.047   6.601  0.2053 -0.3443  0.1610
36484SOL    HW115544   1.514   6.068   6.512  0.9937  0.4273  0.0940
36484SOL    HW215545   1.494   5.967   6.622 -1.3481  0.4202 -0.3044
36485SOL     OW15546   0.521   0.070   5.335  0.0848  0.0276  0.3088
36485SOL    HW115547   0.568   0.053   5.254 -0.3679 -2.8063  0.5381
36485SOL    HW215548   0.589   0.081   5.401  0.4983 -1.4239  0.1636
36486SOL     OW15549   4.591   7.059   4.431  0.2202  0.3025 -0.1847
36486SOL    HW115550   4.643   7.113   4.490  2.2256  0.0254 -1.5916
36486SOL    HW215551   4.648   6.985   4.410 -1.9384 -1.7496  0.6588
36487SOL     OW15552  10.761   5.915   1.272  0.3257  0.0593 -0.3787
36487SOL    HW115553  10.699   5.974   1.317 -0.6261 -0.1288 -1.4021
36487SOL    HW215554  10.800   5.864   1.343  0.8252  1.5712  0.4960
36488SOL     OW15555   5.047   8.720   8.239 -0.2786  0.0194  0.4565
36488SOL    HW115556   5.050   8.746   8.147  0.9621 -0.5497  0.3209
36488SOL    HW215557   5.051   8.803   8.287  4.4059  0.2891  0.0504
36489SOL     OW15558   0.883   2.980   7.949  0.1134  0.6250 -0.7036
36489SOL    HW115559   0.811   2.927   7.914  0.5727 -0.7400  0.3275
36489SOL    HW215560   0.957   2.961   7.892  0.9427 -1.8284  1.0302
36490SOL     OW15561   4.912   1.475   1.846 -0.7055 -1.0975  0.2430
36490SOL    HW115562   4.960   1.538   1.793 -0.5662 -1.7921 -0.4745
36490SOL    HW215563   4.847   1.527   1.893 -0.2481 -0.3567  0.0711
36491SOL     OW15564   8.144   3.237  10.441  0.3044 -0.1350  0.1882
36491SOL    HW115565   8.110   3.223  10.352 -0.8524  0.6053  0.4928
36491SOL    HW215566   8.217   3.298  10.429 -0.3723  0.6200 -0.1825
36492SOL     OW15567   7.288   1.853   1.427 -0.4436  0.1047 -0.1990
36492SOL    HW115568   7.306   1.797   1.503  1.2217  1.0431  0.1538
36492SOL    HW215569   7.249   1.794   1.363  0.8900 -1.4163  0.2949
36493SOL     OW15570   2.462   9.308   7.205 -0.1835 -0.5441  0.6671
36493SOL    HW115571   2.516   9.240   7.165 -1.8985 -2.4821  1.4886
36493SOL    HW215572   2.415   9.264   7.275 -4.7786  0.2305 -1.5292
36494SOL     OW15573   6.204   7.534   0.165 -0.3119 -0.2898  0.6874
36494SOL    HW115574   6.196   7.508   0.073 -1.5850  2.9026 -0.2335
36494SOL    HW215575   6.285   7.584   0.169 -1.0160  0.8675  0.9192
36495SOL     OW15576   9.208   1.356   3.883  0.5123 -0.0529  0.0440
36495SOL    HW115577   9.274   1.290   3.865  1.2038  0.7968 -0.6146
36495SOL    HW215578   9.171   1.330   3.968  1.4233 -0.7429  0.2505
36496SOL     OW15579   0.529   1.700   9.196 -0.1488  0.1534 -0.1711
36496SOL    HW115580   0.560   1.672   9.109  1.5474  0.8043  0.1910
36496SOL    HW215581   0.479   1.625   9.228 -0.4545 -0.2607 -1.5401
36497SOL     OW15582   6.288   5.201   3.725  0.8838  0.4619  0.6909
36497SOL    HW115583   6.280   5.296   3.716  1.4681  0.4218 -0.5393
36497SOL    HW215584   6.202   5.172   3.757 -0.9326  0.9725 -3.1769
36498SOL     OW15585   3.484   0.922   0.550 -0.2781  0.3402 -0.0241
36498SOL    HW115586   3.447   0.928   0.462 -1.5797  0.4945  0.5230
36498SOL    HW215587   3.430   0.979   0.603 -0.9433 -1.4571  1.3349
36499SOL     OW15588   7.408   8.591   5.172 -0.1032  0.1827  0.3591
36499SOL    HW115589   7.380   8.591   5.264  2.5714 -1.3257  1.2829
36499SOL    HW215590   7.473   8.521   5.166  1.2825  1.5138 -2.2069
36500SOL     OW15591   9.993  10.551   0.605  0.4444 -0.1340  0.6311
36500SOL    HW115592  10.024  10.577   0.518  1.2282  0.8391  1.1829
36500SOL    HW215593   9.917  10.495   0.588  1.1211 -0.6897 -0.7021
36501SOL     OW15594   3.103  10.395   6.835  0.5928 -0.0316 -0.8798
36501SOL    HW115595   3.102  10.450   6.757 -1.8862 -0.0502 -0.9661
36501SOL    HW215596   3.091  10.456   6.908 -0.1815 -0.2602 -0.8064
36502SOL     OW15597   2.133   5.345   7.077 -0.2912 -0.1901  0.1469
36502SOL    HW115598   2.133   5.406   7.004  0.6235  0.3200  0.5562
36502SOL    HW215599   2.066   5.379   7.137 -1.6822 -1.1059 -0.8205
36503SOL     OW15600   4.255   9.226   2.416  0.3611  0.1117 -0.0169
36503SOL    HW115601   4.306   9.246   2.338 -3.1548 -1.5774 -3.0888
36503SOL    HW215602   4.178   9.283   2.410 -0.1835 -0.2941  2.0991
36504SOL     OW15603  10.854   3.186   1.495 -0.1511 -0.2955  0.1114
36504SOL    HW115604  10.928   3.223   1.543  0.6135  1.2417 -2.1149
36504SOL    HW215605  10.820   3.258   1.443 -1.0589 -1.8082 -1.5099
36505SOL     OW15606   6.189   1.743   8.193  0.1454  0.6145  0.2179
36505SOL    HW115607   6.158   1.693   8.268 -0.7981  0.3295 -0.3426
36505SOL    HW215608   6.229   1.677   8.135  0.9016  0.8360  0.4712
36506SOL     OW15609   2.121   9.288   9.079  0.1737 -0.0313 -0.1270
36506SOL    HW115610   2.073   9.313   9.158  2.7586  2.1733  0.9197
36506SOL    HW215611   2.209   9.268   9.111  0.9695 -0.3241 -2.3428
36507SOL     OW15612   3.577   5.868   2.017  0.4823  0.3114  0.0508
36507SOL    HW115613   3.596   5.848   1.925 -0.6062 -0.5270 -0.0075
36507SOL    HW215614   3.662   5.891   2.054  0.9405  0.6526 -1.1581
36508SOL     OW15615   8.193   0.974   6.189  0.2190  0.0601  0.7327
36508SOL    HW115616   8.216   0.989   6.097  0.6289  0.9091  0.9688
36508SOL    HW215617   8.214   0.881   6.204  0.2260 -0.0644 -0.0028
36509SOL     OW15618   5.167   0.414   2.068  0.3164 -0.0683 -0.7099
36509SOL    HW115619   5.188   0.351   2.138 -2.4229 -1.7713 -1.2542
36509SOL    HW215620   5.233   0.397   2.001  2.2086  0.6979  0.8340
36510SOL     OW15621   5.749   5.366   9.768 -0.1800 -0.0743 -0.7313
36510SOL    HW115622   5.716   5.287   9.811 -1.0740  1.1770  1.0028
36510SOL    HW215623   5.834   5.383   9.810  1.2893 -1.4542 -2.8995
36511SOL     OW15624   8.384   7.202  10.754 -0.7409 -0.1028  0.7830
36511SOL    HW115625   8.342   7.284  10.780 -0.5914  0.9980 -2.1161
36511SOL    HW215626   8.477   7.215  10.774 -0.6425  0.6562 -0.1531
36512SOL     OW15627  10.852   6.478  10.245  0.5225  0.4522  0.7860
36512SOL    HW115628  10.946   6.474  10.261  0.4358  0.1932  1.2464
36512SOL    HW215629  10.824   6.386  10.242  0.3977  0.5054 -0.0756
36513SOL     OW15630   5.362   7.997   4.276  0.1308 -0.0438  0.0911
36513SOL    HW115631   5.458   7.998   4.272  0.1293  0.2431  0.1048
36513SOL    HW215632   5.340   8.066   4.338 -0.0925  0.0287 -0.0682
36514SOL     OW15633   4.202   0.151   6.769  0.1523  0.2631  0.2851
36514SOL    HW115634   4.146   0.219   6.731 -0.1462 -0.8395 -1.3775
36514SOL    HW215635   4.257   0.197   6.833  1.6655  2.5874 -2.4510
36515SOL     OW15636   3.592   6.900   6.972  0.0805 -0.4656 -0.1144
36515SOL    HW115637   3.687   6.885   6.975  0.2604  0.7328  2.2633
36515SOL    HW215638   3.557   6.848   7.044 -1.5204 -3.0722 -2.5824
36516SOL     OW15639   5.393   4.877   5.393 -0.3401 -0.2844 -0.7938
36516SOL    HW115640   5.307   4.873   5.434 -1.0434  0.6433 -2.0986
36516SOL    HW215641   5.411   4.786   5.366 -1.1442 -0.3913 -0.9802
36517SOL     OW15642   1.921   7.479   6.343 -0.0818 -0.3337  0.2448
36517SOL    HW115643   1.906   7.493   6.249  0.1116  0.0620  0.2714
36517SOL    HW215644   1.950   7.564   6.375  1.8492 -0.9536  0.2650
36518SOL     OW15645   2.304   7.936   3.603 -0.4728  0.2411 -0.5873
36518SOL    HW115646   2.276   7.959   3.514  1.9841 -0.4288 -1.6418
36518SOL    HW215647   2.328   8.020   3.643 -2.1719  0.6156 -0.2889
36519SOL     OW15648   2.222   2.411   4.718  0.0420 -0.8965  0.0915
36519SOL    HW115649   2.220   2.343   4.651  1.3972 -1.5370  0.6588
36519SOL    HW215650   2.229   2.493   4.670 -1.2726 -1.1637 -0.5945
36520SOL     OW15651   4.074   5.886   7.023  0.0437 -0.2638 -0.2157
36520SOL    HW115652   4.079   5.873   7.118 -0.4625  0.5788 -0.0650
36520SOL    HW215653   4.046   5.977   7.013 -2.0930 -0.9636 -1.1250
36521SOL     OW15654   3.316   8.468   9.704  0.4626 -0.1292 -0.4479
36521SOL    HW115655   3.324   8.414   9.782  0.2786  0.1500 -0.2310
36521SOL    HW215656   3.278   8.550   9.735  0.4390  0.0070 -0.8202
36522SOL     OW15657   6.154   5.681  10.511 -0.2169  0.0163  0.0277
36522SOL    HW115658   6.231   5.693  10.454 -0.7356  0.3280 -0.6250
36522SOL    HW215659   6.082   5.664  10.450 -0.4244 -1.6465  0.6903
36523SOL     OW15660   0.204   1.745   2.553 -0.3008 -0.3924 -0.9895
36523SOL    HW115661   0.198   1.777   2.643  0.0538 -1.1488 -0.6868
36523SOL    HW215662   0.157   1.810   2.501 -1.1263 -0.3140 -0.1698
36524SOL     OW15663  10.675   8.814   4.750  0.5015  0.5876 -0.0072
36524SOL    HW115664  10.629   8.823   4.667  2.2712 -0.8900 -1.2228
36524SOL    HW215665  10.632   8.741   4.795  0.2105  0.7028 -0.1001
36525SOL     OW15666   5.600   4.689   8.232  0.1504  0.3487  0.2911
36525SOL    HW115667   5.692   4.665   8.245  1.1841  3.5867 -0.1526
36525SOL    HW215668   5.575   4.734   8.313 -0.8383  0.1234  0.1284
36526SOL     OW15669   3.093   8.969   0.469 -0.4454  0.6285  0.4524
36526SOL    HW115670   3.142   9.016   0.401 -1.5412  0.0475 -0.7958
36526SOL    HW215671   3.002   8.992   0.452 -0.7474  0.4644  1.7563
36527SOL     OW15672   9.147   9.424   6.809 -0.5927 -0.6060 -0.4122
36527SOL    HW115673   9.211   9.385   6.750 -0.3412 -0.8020 -0.0098
36527SOL    HW215674   9.165   9.385   6.894 -0.2355  0.4979  0.0358
36528SOL     OW15675   5.478   4.768  10.046  0.7289 -0.6067 -0.3935
36528SOL    HW115676   5.557   4.731  10.084 -0.6667 -2.6604  0.7199
36528SOL    HW215677   5.465   4.719   9.965  2.6288  2.4384 -2.7837
36529SOL     OW15678   1.709   6.152   1.185  0.2438 -0.2412  0.5297
36529SOL    HW115679   1.677   6.238   1.211 -0.9469 -0.4708 -0.0658
36529SOL    HW215680   1.656   6.090   1.236 -0.1720 -0.6376 -0.3497
36530SOL     OW15681   6.084   3.486   0.178 -0.8685  0.1243  0.2962
36530SOL    HW115682   6.034   3.427   0.121 -1.7365  1.3996 -0.2956
36530SOL    HW215683   6.155   3.431   0.212 -2.0945 -1.4741  0.4008
36531SOL     OW15684   7.652   0.909   4.432  0.4111 -0.8294  0.0956
36531SOL    HW115685   7.648   0.955   4.516 -2.3440  1.8761 -1.3008
36531SOL    HW215686   7.723   0.953   4.384  0.9905 -1.3670  0.4455
36532SOL     OW15687   3.942  10.475   3.585  0.2253 -0.5290  0.8427
36532SOL    HW115688   4.036  10.469   3.573  0.1290  0.7950 -1.0057
36532SOL    HW215689   3.926  10.437   3.671  2.3468 -1.4073  0.9025
36533SOL     OW15690   9.263  10.326   0.481 -0.7553 -0.7621 -1.0886
36533SOL    HW115691   9.219  10.386   0.422  0.3628 -1.2651 -2.5196
36533SOL    HW215692   9.285  10.251   0.426  0.7908 -1.0343 -0.1651
36534SOL     OW15693  10.899   6.252   5.175 -0.1268 -0.5267  0.2182
36534SOL    HW115694  10.892   6.256   5.271  0.7246 -1.9937  0.3734
36534SOL    HW215695  10.820   6.205   5.147 -1.0113  0.9830  0.0470
36535SOL     OW15696   8.151   8.944   8.158  0.0494 -0.4370 -0.5011
36535SOL    HW115697   8.126   9.036   8.147  0.2287 -0.4932 -1.4945
36535SOL    HW215698   8.233   8.947   8.207  0.4790 -0.0110 -1.2256
36536SOL     OW15699   6.561   0.399   3.817 -0.1608 -0.4644 -0.0180
36536SOL    HW115700   6.646   0.440   3.833 -0.6167  0.0113  1.3165
36536SOL    HW215701   6.514   0.463   3.764  0.4340 -0.8969 -1.0963
36537SOL     OW15702   6.294   3.111   9.457 -0.4365 -0.1558  0.2036
36537SOL    HW115703   6.219   3.060   9.425 -1.7665  1.6771  0.2137
36537SOL    HW215704   6.264   3.149   9.539  0.3055  1.0040 -0.0333
36538SOL     OW15705   9.746   8.485   0.615 -0.2941  0.0665  0.0460
36538SOL    HW115706   9.767   8.393   0.598  4.3579  0.7702  0.5582
36538SOL    HW215707   9.744   8.525   0.529  1.0328 -0.0591 -0.0762
36539SOL     OW15708   4.933   6.572   8.169 -0.0308  0.4311  0.2354
36539SOL    HW115709   4.857   6.514   8.178  0.8567 -0.5889  1.6088
36539SOL    HW215710   5.006   6.521   8.204  1.0104  1.9438  0.3540
36540SOL     OW15711   0.100  10.927   4.688 -0.0038  0.1051  0.2992
36540SOL    HW115712   0.136  10.945   4.601 -1.4490 -0.8223 -0.5302
36540SOL    HW215713   0.025  10.986   4.696 -0.1165 -0.0956  0.7662
36541SOL     OW15714   7.518   7.269   5.564 -0.0294  0.2355  0.0747
36541SOL    HW115715   7.449   7.238   5.505 -1.1600 -2.2520  2.4441
36541SOL    HW215716   7.483   7.349   5.602 -0.5291  0.2977 -0.4984
36542SOL     OW15717   5.656   9.551   6.692  0.2435 -0.2214 -0.4448
36542SOL    HW115718   5.682   9.496   6.767  2.0976  1.0334 -0.1027
36542SOL    HW215719   5.594   9.614   6.729  1.2363  0.4653  0.0949
36543SOL     OW15720   6.625   3.908   0.519 -0.0804 -0.4439 -0.6568
36543SOL    HW115721   6.547   3.933   0.568  1.9477  1.6194  1.8351
36543SOL    HW215722   6.625   3.813   0.521 -1.5353 -0.4626  0.9980
36544SOL     OW15723   1.306   1.471  10.387 -0.6224  0.2918  0.2400
36544SOL    HW115724   1.395   1.459  10.352 -0.7005  0.0696  0.1187
36544SOL    HW215725   1.250   1.419  10.329 -0.6633 -0.6473  1.1059
36545SOL     OW15726  10.178   1.119   1.139 -0.0433  0.6407 -0.2267
36545SOL    HW115727  10.214   1.147   1.223  0.5685  0.2609 -0.3603
36545SOL    HW215728  10.084   1.112   1.155 -0.1347  2.0828 -0.0029
36546SOL     OW15729   1.084  10.540   4.592  0.1596 -0.7433 -0.1047
36546SOL    HW115730   1.085  10.584   4.676 -0.9080 -0.9721  0.0509
36546SOL    HW215731   1.173  10.546   4.559  0.8672 -1.6327  1.5573
36547SOL     OW15732   3.218  10.104   7.302 -0.7812 -0.0568  0.2359
36547SOL    HW115733   3.165  10.105   7.382 -1.7065 -0.3266 -0.3594
36547SOL    HW215734   3.193  10.184   7.256  0.4744  0.6105  0.6489
36548SOL     OW15735   1.257   9.834   6.750  0.0035 -0.0712  0.3842
36548SOL    HW115736   1.343   9.816   6.787  0.1032  1.0933  0.7555
36548SOL    HW215737   1.197   9.777   6.798  0.3451  0.3209  1.3054
36549SOL     OW15738   8.958   5.261  10.102  0.4895 -0.1012 -0.0146
36549SOL    HW115739   9.004   5.221  10.176 -0.1112  2.5157  1.9082
36549SOL    HW215740   8.880   5.206  10.090  0.5027 -0.4721  1.4207
36550SOL     OW15741   4.697   5.374   8.958 -0.3106  0.1297 -0.3796
36550SOL    HW115742   4.619   5.406   9.003 -0.1816 -0.2581  0.1370
36550SOL    HW215743   4.668   5.358   8.868 -0.3174  1.8600 -0.7176
36551SOL     OW15744  10.103  10.478   2.395 -0.0564 -0.5435 -0.2134
36551SOL    HW115745  10.184  10.481   2.346 -0.0566  0.7209 -0.1656
36551SOL    HW215746  10.038  10.443   2.334  0.0882  0.3865 -0.9137
36552SOL     OW15747   1.517   1.379   3.127  0.3816  0.6934  0.4632
36552SOL    HW115748   1.524   1.358   3.034  0.4424  1.7449  0.2182
36552SOL    HW215749   1.597   1.346   3.167 -0.6565 -1.8810  0.5875
36553SOL     OW15750   1.009   0.689  10.788 -0.3266 -0.8345  0.1290
36553SOL    HW115751   0.980   0.599  10.780  1.1664 -1.3891  0.6244
36553SOL    HW215752   1.099   0.688  10.756 -0.1783  0.4210  0.4554
36554SOL     OW15753   1.273   8.316   5.110 -0.0530  0.3625  0.0614
36554SOL    HW115754   1.275   8.228   5.147 -1.1896 -0.3884 -1.5338
36554SOL    HW215755   1.182   8.328   5.082 -0.9511  3.4977  3.4726
36555SOL     OW15756   1.131   3.608   4.763  0.0668 -0.1817 -0.0800
36555SOL    HW115757   1.131   3.574   4.853  0.0109 -0.9512 -0.3689
36555SOL    HW215758   1.217   3.584   4.728  0.3538  0.7059 -0.0274
36556SOL     OW15759   2.682   1.172   1.422  0.0956 -0.1868 -0.3690
36556SOL    HW115760   2.612   1.229   1.389 -0.4117 -1.3594 -1.4505
36556SOL    HW215761   2.743   1.231   1.466 -0.4716  1.1603 -1.3095
36557SOL     OW15762   7.105   6.601  10.179  0.7181  0.6370  0.0859
36557SOL    HW115763   7.114   6.671  10.114  0.9388  0.1447 -0.4193
36557SOL    HW215764   7.169   6.622  10.247  0.2062  1.3757  0.3559
36558SOL     OW15765   2.048   0.803   8.149 -0.1446 -0.1170  0.1032
36558SOL    HW115766   1.988   0.869   8.114  0.5770  0.2578 -0.4585
36558SOL    HW215767   2.026   0.797   8.242  0.4548  1.6965  0.4040
36559SOL     OW15768   9.775   1.889   2.603 -0.4989  0.0906  0.4574
36559SOL    HW115769   9.781   1.809   2.656 -3.2663 -0.8852 -0.5109
36559SOL    HW215770   9.696   1.933   2.635 -1.4855  0.1671 -1.8565
36560SOL     OW15771   6.409   3.805   5.267 -0.1549 -0.1503 -0.2235
36560SOL    HW115772   6.387   3.881   5.321 -1.0273 -0.4647 -0.1266
36560SOL    HW215773   6.331   3.751   5.268 -0.0824 -0.3170 -1.5677
36561SOL     OW15774   8.374   7.002   9.987 -0.8222 -0.5944 -0.0940
36561SOL    HW115775   8.308   7.070   9.998 -1.6438 -1.2914 -0.5469
36561SOL    HW215776   8.333   6.923  10.024  0.1822 -0.8130  0.5916
36562SOL     OW15777  10.883   9.929   3.893  0.1609 -0.0928 -0.3902
36562SOL    HW115778  10.925  10.000   3.846 -0.4182  1.4053  1.2276
36562SOL    HW215779  10.797   9.963   3.917 -0.0770 -1.2652  0.5597
36563SOL     OW15780   2.263   7.827   9.612 -0.4518  0.1839 -0.4331
36563SOL    HW115781   2.354   7.808   9.633 -0.5925 -0.2651 -0.2043
36563SOL    HW215782   2.213   7.781   9.679 -0.8173  1.4571  0.1844
36564SOL     OW15783   2.990   7.186   1.021 -0.3705  0.0206 -1.0164
36564SOL    HW115784   2.966   7.122   1.088  1.3704  0.7630  0.3807
36564SOL    HW215785   2.915   7.247   1.019 -1.2465 -1.0266 -1.0913
36565SOL     OW15786   5.675   7.600   9.419 -0.7315 -0.1708 -0.0421
36565SOL    HW115787   5.697   7.508   9.434 -2.1088 -0.9835 -2.4312
36565SOL    HW215788   5.596   7.615   9.471  0.9230  0.5264  2.4510
36566SOL     OW15789   1.407   4.294   8.399 -0.3425  0.1093  0.2519
36566SOL    HW115790   1.438   4.253   8.318  1.9694 -0.0206  1.1294
36566SOL    HW215791   1.337   4.353   8.370  0.8790  0.6077 -1.9652
36567SOL     OW15792   7.419   2.329   1.856  0.0754 -0.3200 -0.1005
36567SOL    HW115793   7.377   2.282   1.929  0.2959  0.2423  0.3965
36567SOL    HW215794   7.469   2.262   1.810  0.8676 -0.4681  0.9564
36568SOL     OW15795   6.906   1.148   6.543 -0.0924  0.2420 -0.0122
36568SOL    HW115796   6.851   1.127   6.618  0.6102 -0.1024  0.4246
36568SOL    HW215797   6.981   1.193   6.581  0.7643 -0.8295 -0.3720
36569SOL     OW15798   8.706   7.454   1.133  0.0246 -0.0280 -0.5192
36569SOL    HW115799   8.644   7.446   1.206 -0.2088  0.3057 -0.6781
36569SOL    HW215800   8.725   7.548   1.129  2.2674 -0.3396  0.9601
36570SOL     OW15801   5.890   5.073  10.335  0.4143  0.1803 -0.3683
36570SOL    HW115802   5.934   5.136  10.391  0.0121 -0.3457  0.5536
36570SOL    HW215803   5.935   4.990  10.350  0.0305 -0.0562 -0.5051
36571SOL     OW15804   5.744   6.057   9.324  0.8549 -1.0745  0.1764
36571SOL    HW115805   5.782   6.053   9.412  0.9944 -2.7653  0.0807
36571SOL    HW215806   5.652   6.036   9.337  0.7262 -0.6328 -0.0100
36572SOL     OW15807   7.343   8.177   6.046  0.7720 -0.0313  0.6405
36572SOL    HW115808   7.373   8.256   6.002  0.2206 -0.3468 -0.3345
36572SOL    HW215809   7.362   8.107   5.984 -0.8843 -0.3791  0.4865
36573SOL     OW15810   5.277   1.991   3.730  0.7176 -0.7417 -0.1038
36573SOL    HW115811   5.289   1.905   3.771  0.8097  0.2395  2.0512
36573SOL    HW215812   5.343   1.994   3.660  1.1436 -2.1681  0.2080
36574SOL     OW15813   3.883   0.378   6.341 -0.6364 -0.1536  0.7132
36574SOL    HW115814   3.877   0.292   6.298 -1.2361  0.4372 -0.4358
36574SOL    HW215815   3.977   0.389   6.358 -0.1682  0.1461 -1.7113
36575SOL     OW15816  10.896   7.211   9.821 -0.4158 -0.2317  0.0089
36575SOL    HW115817  10.807   7.245   9.816 -0.2390  0.0905 -3.2935
36575SOL    HW215818  10.936   7.237   9.737  2.1726 -1.9990  0.5816
36576SOL     OW15819   1.910   4.248   5.335 -0.1723  0.1737  0.6774
36576SOL    HW115820   1.885   4.304   5.262  1.1290 -0.1961 -0.0868
36576SOL    HW215821   1.852   4.172   5.330  1.3995 -0.9792 -1.4294
36577SOL     OW15822   3.192   7.275   9.628 -0.8644 -0.0279 -0.7318
36577SOL    HW115823   3.217   7.291   9.719 -0.9205  0.6468 -0.8297
36577SOL    HW215824   3.274   7.250   9.585 -0.4785  1.3704 -0.8702
36578SOL     OW15825   7.922   1.087   9.022  0.6249  0.1015  0.1727
36578SOL    HW115826   7.939   1.080   9.115  0.4467  1.0253  0.2899
36578SOL    HW215827   7.951   1.175   8.999 -3.0498  1.5244  0.2276
36579SOL     OW15828  10.705   4.750   0.650 -0.6405 -0.0586  0.1948
36579SOL    HW115829  10.634   4.692   0.679 -0.3338 -1.1212 -1.0481
36579SOL    HW215830  10.785   4.708   0.682 -0.5201  0.8892  1.1934
36580SOL     OW15831   8.984   9.285   2.093  0.1005 -0.4306  0.2108
36580SOL    HW115832   8.998   9.193   2.115 -0.3701 -0.0921  2.0585
36580SOL    HW215833   8.970   9.328   2.177 -0.5649  1.1934 -0.6897
36581SOL     OW15834   5.377   8.708   6.566 -0.7805 -0.8063 -0.0318
36581SOL    HW115835   5.377   8.803   6.552 -0.0379 -0.4427  2.1809
36581SOL    HW215836   5.355   8.672   6.480 -0.5951  1.3395 -1.0445
36582SOL     OW15837   3.880  10.861   4.948  0.3433 -0.3233  0.0488
36582SOL    HW115838   3.910  10.781   4.992  1.8575  1.3896  2.3548
36582SOL    HW215839   3.916  10.854   4.859 -0.0988 -2.4509 -0.0116
36583SOL     OW15840   9.528   3.227   8.978  0.1260  0.1293 -0.4895
36583SOL    HW115841   9.511   3.317   9.004 -0.1164  0.6072 -2.1524
36583SOL    HW215842   9.489   3.219   8.891 -1.1538 -2.0216  0.1885
36584SOL     OW15843   0.675   1.388   6.698 -0.1391  0.0983 -0.9574
36584SOL    HW115844   0.720   1.470   6.680  1.0783 -0.6191 -1.2834
36584SOL    HW215845   0.599   1.389   6.640  0.9642  0.1191 -2.4746
36585SOL     OW15846   7.849   5.992   6.390  0.6939  0.0121  0.0721
36585SOL    HW115847   7.888   6.043   6.461 -4.3503  1.4583  2.2778
36585SOL    HW215848   7.846   6.052   6.316 -0.3188  1.1347  0.9685
36586SOL     OW15849   5.090   5.228   8.191  0.6977  0.6548 -0.3236
36586SOL    HW115850   5.134   5.263   8.113  2.3216  1.5080  0.9211
36586SOL    HW215851   5.101   5.296   8.258 -3.0044  1.1677  0.0090
36587SOL     OW15852   8.699   6.547   6.918 -0.0099 -0.1877  0.6771
36587SOL    HW115853   8.667   6.458   6.936 -1.4266  0.4813  1.6370
36587SOL    HW215854   8.625   6.592   6.878  0.7755  0.5045 -0.0242
36588SOL     OW15855   6.530  10.661   2.311  0.5367 -0.0244  0.4964
36588SOL    HW115856   6.469  10.710   2.365  1.7559  0.2300  1.6898
36588SOL    HW215857   6.579  10.607   2.373  1.9925  0.2834 -0.3526
36589SOL     OW15858   9.596   9.831   2.230  0.1747 -0.1318  0.2432
36589SOL    HW115859   9.588   9.748   2.277 -1.0846 -0.0963  0.1132
36589SOL    HW215860   9.629   9.805   2.143 -1.8267 -0.7416 -0.4022
36590SOL     OW15861   4.669   0.614   7.140 -0.3093 -0.0839 -0.0567
36590SOL    HW115862   4.580   0.611   7.174 -0.6422 -1.1996 -0.9704
36590SOL    HW215863   4.659   0.622   7.046  0.4956 -2.0639 -0.3546
36591SOL     OW15864   9.272   0.702  10.015  0.0018  0.7319  0.1306
36591SOL    HW115865   9.278   0.794  10.041  0.4196  0.5152  0.8267
36591SOL    HW215866   9.205   0.666  10.073  0.6166  0.3484  0.6180
36592SOL     OW15867   3.862   8.674   2.263 -0.2772 -0.0957  0.2076
36592SOL    HW115868   3.843   8.740   2.329 -3.1769 -1.7684  1.2494
36592SOL    HW215869   3.797   8.689   2.195  1.6115  0.5450 -1.5436
36593SOL     OW15870   5.773   2.313   7.204 -0.2466 -0.0967  0.2146
36593SOL    HW115871   5.710   2.351   7.143 -0.9525 -1.7196 -0.1418
36593SOL    HW215872   5.802   2.386   7.258  0.5044  1.4359 -2.1134
36594SOL     OW15873  10.855   1.402   6.230 -0.1686  0.1669  0.1373
36594SOL    HW115874  10.791   1.350   6.277 -0.2312 -0.0029 -0.1320
36594SOL    HW215875  10.843   1.491   6.263  0.8452 -0.1871  1.5866
36595SOL     OW15876   7.903   9.445   2.972  0.1189 -0.4736  0.2344
36595SOL    HW115877   7.830   9.505   2.985  0.5288  0.0106  0.3580
36595SOL    HW215878   7.899   9.385   3.046 -0.2451 -0.5504  0.1560
36596SOL     OW15879   3.960   0.286   2.221  0.1325 -0.3385 -0.9650
36596SOL    HW115880   3.936   0.376   2.244 -1.7728 -1.3769  1.5888
36596SOL    HW215881   3.966   0.240   2.305  1.5078 -2.5449 -2.1570
36597SOL     OW15882   9.509   2.332   8.808  0.0708  0.7781 -0.3548
36597SOL    HW115883   9.549   2.300   8.727  0.4865 -1.3448  0.6272
36597SOL    HW215884   9.444   2.266   8.830 -0.3110  1.5228  0.8561
36598SOL     OW15885   9.689   4.066   2.881  0.4772  0.2244  0.4057
36598SOL    HW115886   9.605   4.100   2.912  1.3818  2.6156  0.4819
36598SOL    HW215887   9.754   4.111   2.936  1.8722  0.1513 -1.1126
36599SOL     OW15888   3.001   6.512   8.340 -0.0425 -0.1395  0.4246
36599SOL    HW115889   2.923   6.543   8.294 -1.2434 -2.8049  0.4719
36599SOL    HW215890   3.067   6.504   8.271  1.0358  4.0686  0.6786
36600SOL     OW15891   8.088   4.435  10.288 -0.2194  0.7669  0.0696
36600SOL    HW115892   7.995   4.444  10.268 -0.3211 -0.1525  0.0629
36600SOL    HW215893   8.103   4.493  10.362 -0.5067  1.9166 -0.7532
36601SOL     OW15894   9.715   9.870   4.871 -0.1273  0.2175 -0.1581
36601SOL    HW115895   9.685   9.880   4.781  0.6147  0.1036 -0.4314
36601SOL    HW215896   9.806   9.839   4.862  0.3841  1.4191  0.5999
36602SOL     OW15897   0.465   7.635   3.928  0.1984  0.8890 -0.0427
36602SOL    HW115898   0.427   7.665   3.846 -1.9306 -0.6059  0.2834
36602SOL    HW215899   0.536   7.577   3.902  1.0761  2.2373 -0.7444
36603SOL     OW15900   2.466  10.109   4.214 -0.3327  0.1588  0.2364
36603SOL    HW115901   2.399  10.168   4.249  0.4708  0.4659  1.2966
36603SOL    HW215902   2.417  10.039   4.172 -1.3118  1.0045 -0.0804
36604SOL     OW15903   7.679   2.402   8.731 -0.3586 -0.0249 -0.1870
36604SOL    HW115904   7.587   2.413   8.753 -0.6737 -2.6683  0.1101
36604SOL    HW215905   7.725   2.405   8.815  0.3251  4.1533 -0.5007
36605SOL     OW15906   5.951  10.830   1.221 -0.0150 -0.1183 -0.1966
36605SOL    HW115907   5.990  10.810   1.136 -1.4511 -0.5022 -0.8033
36605SOL    HW215908   5.921  10.745   1.253  0.5134  0.0270  0.7064
36606SOL     OW15909   0.294   0.455   2.294 -0.1749  0.2325  0.4112
36606SOL    HW115910   0.258   0.442   2.206 -0.7480  0.7717  0.5566
36606SOL    HW215911   0.371   0.398   2.297  0.6400  1.1973 -0.9095
36607SOL     OW15912   9.640  10.126   8.172  0.0835  0.0540  0.3003
36607SOL    HW115913   9.606  10.204   8.127  0.7864  1.0226  1.3841
36607SOL    HW215914   9.576  10.058   8.153 -0.0460  0.6266 -1.4954
36608SOL     OW15915   3.548   1.198   0.770  0.3936 -0.7073  0.1947
36608SOL    HW115916   3.539   1.243   0.854  1.2852  0.9833 -0.5640
36608SOL    HW215917   3.470   1.143   0.763 -2.5886  3.1844 -0.2359
36609SOL     OW15918   2.047  10.537   4.220 -1.3049 -0.8151 -0.2912
36609SOL    HW115919   2.109  10.570   4.156 -3.2068  3.1337 -0.4269
36609SOL    HW215920   1.967  10.519   4.170 -1.8954 -0.5958  0.5375
36610SOL     OW15921   3.713   2.998   8.781 -0.1705  0.4556  0.3347
36610SOL    HW115922   3.628   2.968   8.814 -0.3205  2.3191  1.8413
36610SOL    HW215923   3.776   2.969   8.847 -0.0228  1.3612  0.6100
36611SOL     OW15924   4.285   4.434   6.569  0.0932  0.3147 -0.0431
36611SOL    HW115925   4.236   4.402   6.644 -0.2752 -1.4648 -0.9997
36611SOL    HW215926   4.353   4.491   6.607  0.6266 -1.3959  1.7272
36612SOL     OW15927   4.721   1.687   4.040 -0.0215 -0.4837 -0.1962
36612SOL    HW115928   4.721   1.774   4.082 -1.4970 -0.8512  0.6311
36612SOL    HW215929   4.770   1.632   4.101  1.4620 -0.1434 -1.0196
36613SOL     OW15930   1.961   4.818   8.138 -0.3192  0.4948  0.1510
36613SOL    HW115931   2.004   4.845   8.220 -0.1874  2.1549 -0.4357
36613SOL    HW215932   2.025   4.761   8.096  0.0639  0.5051  0.7026
36614SOL     OW15933   2.030   0.966   4.320 -0.0921 -0.0896  0.5224
36614SOL    HW115934   1.960   1.007   4.371  0.6622 -0.7926  2.1899
36614SOL    HW215935   2.027   0.874   4.344  1.2548 -0.1789  0.4598
36615SOL     OW15936  10.392   2.919   7.668  0.1748 -0.4335  0.1320
36615SOL    HW115937  10.306   2.882   7.650 -0.7333  1.5184  0.1324
36615SOL    HW215938  10.445   2.895   7.591 -0.5155 -1.2265 -0.1089
36616SOL     OW15939   5.306  10.722   6.381 -0.2632 -0.2564 -0.7102
36616SOL    HW115940   5.264  10.738   6.465  0.6808  0.5656 -0.3772
36616SOL    HW215941   5.344  10.634   6.390  0.7315  0.2303  0.1310
36617SOL     OW15942   9.653  10.834   0.948  0.2957 -0.3975  0.0583
36617SOL    HW115943   9.743  10.822   0.919 -0.2979 -1.4838 -1.4643
36617SOL    HW215944   9.620  10.907   0.894 -0.2098 -1.0912 -0.5938
36618SOL     OW15945   4.783   8.876   9.766 -0.1108  0.4530 -0.4762
36618SOL    HW115946   4.781   8.784   9.791  2.5195  0.2044 -0.9453
36618SOL    HW215947   4.705   8.914   9.807 -0.6613 -1.7349  0.6287
36619SOL     OW15948   5.695   1.487   7.969 -0.2558 -0.1439 -0.1803
36619SOL    HW115949   5.756   1.508   8.039 -1.2669 -0.1039  0.7167
36619SOL    HW215950   5.751   1.467   7.893  0.8510  2.2974 -0.1174
36620SOL     OW15951   6.883   9.001   9.695 -0.2191  0.5897 -0.5365
36620SOL    HW115952   6.933   8.977   9.616  0.0860 -0.1187 -0.1346
36620SOL    HW215953   6.841   8.920   9.722 -2.4271  1.3785 -1.4310
36621SOL     OW15954   6.037   8.316   9.662  0.0417  0.2654  0.3828
36621SOL    HW115955   6.052   8.261   9.585 -0.6674 -0.4909  0.7696
36621SOL    HW215956   6.022   8.404   9.627 -3.0927 -0.5291 -0.6002
36622SOL     OW15957   1.033   2.930   9.111 -0.2660 -0.5895 -0.2092
36622SOL    HW115958   1.084   2.866   9.161  2.0311  1.6865  0.5537
36622SOL    HW215959   0.990   2.984   9.177 -0.6963 -0.1785 -0.8114
36623SOL     OW15960   9.854   5.889   4.019 -0.3150  0.1682 -0.8097
36623SOL    HW115961   9.865   5.795   4.009 -0.5855 -0.3071  2.4054
36623SOL    HW215962   9.760   5.901   4.030 -0.3087  0.8930 -1.3987
36624SOL     OW15963   8.196   7.791   7.793  0.2512  0.7382  0.1635
36624SOL    HW115964   8.169   7.788   7.701  0.5946 -0.6371  0.0801
36624SOL    HW215965   8.163   7.708   7.830  0.8645  0.8840  1.0574
36625SOL     OW15966   2.897   8.792   1.606 -0.1740 -0.1506  0.1072
36625SOL    HW115967   2.811   8.754   1.587  0.0602 -0.6829  0.0776
36625SOL    HW215968   2.923   8.751   1.689 -0.7068  1.3250  1.0503
36626SOL     OW15969   2.517   4.679   8.923  0.5485  0.2263 -0.3451
36626SOL    HW115970   2.543   4.591   8.897  3.1659  0.9609 -0.4917
36626SOL    HW215971   2.460   4.709   8.852  1.6074 -0.4718 -1.5205
36627SOL     OW15972   0.895   4.213   9.500 -0.0903  0.6661  0.0207
36627SOL    HW115973   0.848   4.284   9.543  0.9127  0.4553  1.5146
36627SOL    HW215974   0.968   4.193   9.558  1.0447  0.0314 -1.5565
36628SOL     OW15975   7.225   0.542   7.365 -0.4777 -0.4420  0.1998
36628SOL    HW115976   7.269   0.457   7.365  2.1983  0.7835 -1.1578
36628SOL    HW215977   7.220   0.567   7.457  2.5851 -0.3680  0.4799
36629SOL     OW15978   4.045   6.491   3.014 -0.0112 -0.0642  0.7334
36629SOL    HW115979   4.082   6.570   2.975  0.3989 -0.8500 -0.5320
36629SOL    HW215980   4.017   6.518   3.101  0.3823  1.3998  0.4313
36630SOL     OW15981   4.295   3.208   5.042  0.4675  0.8030  0.3378
36630SOL    HW115982   4.222   3.151   5.019 -0.1043  0.9371  1.6986
36630SOL    HW215983   4.339   3.225   4.959 -0.4583 -0.0815 -0.3700
36631SOL     OW15984   1.767   0.344   7.308  0.5315 -0.0472  0.4537
36631SOL    HW115985   1.738   0.431   7.335  2.3644  0.9474 -0.5550
36631SOL    HW215986   1.790   0.300   7.390 -1.2849  0.0279  1.0518
36632SOL     OW15987   6.467   0.223   5.710  0.2182  0.0498  1.2230
36632SOL    HW115988   6.432   0.139   5.682 -0.2272  1.0375 -1.5746
36632SOL    HW215989   6.543   0.201   5.763 -1.4576 -2.0824  2.9352
36633SOL     OW15990  10.114   3.352   6.845 -0.2911  0.1664 -0.7677
36633SOL    HW115991  10.156   3.428   6.886 -1.7454  1.4524 -1.5547
36633SOL    HW215992  10.171   3.278   6.867 -0.5272  0.8780  2.8472
36634SOL     OW15993   4.800   1.198   5.286  0.1940  0.1026  0.2376
36634SOL    HW115994   4.789   1.270   5.348 -1.0973 -0.0870  0.2644
36634SOL    HW215995   4.859   1.137   5.329  1.1978  1.0769  0.2665
36635SOL     OW15996   8.384   2.180   9.867 -0.1706 -0.0312 -0.6689
36635SOL    HW115997   8.321   2.184   9.938 -1.9391 -0.1599 -2.1526
36635SOL    HW215998   8.464   2.146   9.907 -0.7703  0.9150  1.4319
36636SOL     OW15999   8.868   2.089   2.964 -0.0768  0.3206  0.1116
36636SOL    HW116000   8.867   2.180   2.996 -0.0657  0.5523 -0.5266
36636SOL    HW216001   8.948   2.051   3.000  0.8729  1.1102 -1.0805
36637SOL     OW16002   5.020   1.154   2.327 -0.1532  0.2373  0.3386
36637SOL    HW116003   4.976   1.228   2.284  1.0322  0.0721 -1.2217
36637SOL    HW216004   4.954   1.084   2.326  0.0187  0.0660 -1.7522
36638SOL     OW16005   5.352   9.504   3.626 -0.2664  0.8221  0.1940
36638SOL    HW116006   5.423   9.468   3.679 -0.5511  0.6708  0.4779
36638SOL    HW216007   5.282   9.522   3.688 -2.1644 -3.0735 -0.5153
36639SOL     OW16008   2.831   2.201   1.105 -0.1955 -0.3011  0.1372
36639SOL    HW116009   2.754   2.219   1.052 -0.6144  1.4424  1.2709
36639SOL    HW216010   2.800   2.139   1.172 -0.9587  1.2354  1.2665
36640SOL     OW16011   6.575   8.925   6.734  0.2650 -0.5960 -0.1185
36640SOL    HW116012   6.528   8.872   6.799 -0.2235 -0.0079  0.0143
36640SOL    HW216013   6.506   8.967   6.683  0.6424  0.0878 -0.0783
36641SOL     OW16014   9.852   7.860   3.659 -0.4859 -0.1824 -0.5862
36641SOL    HW116015   9.915   7.932   3.658  0.5084 -1.0205 -0.3402
36641SOL    HW216016   9.768   7.901   3.641 -0.1189  1.2136  0.7421
36642SOL     OW16017   6.320  10.189  10.291 -0.3279  0.6565 -0.2169
36642SOL    HW116018   6.413  10.212  10.283 -0.0530 -0.5704 -0.7962
36642SOL    HW216019   6.296  10.158  10.203 -0.7556 -0.8934  0.4214
36643SOL     OW16020   5.579   3.027   5.890  0.1176 -0.4150  0.5442
36643SOL    HW116021   5.533   3.020   5.807 -1.1767 -1.7619  1.3216
36643SOL    HW216022   5.591   2.936   5.919 -0.2887  0.0295  2.2407
36644SOL     OW16023   4.056   7.720   7.633 -0.1624  1.2019  0.1848
36644SOL    HW116024   4.111   7.713   7.711 -0.1326  1.7057  0.2099
36644SOL    HW216025   4.080   7.643   7.581  1.1000  1.7798 -0.1351
36645SOL     OW16026   9.253   4.321  10.202  0.1528 -0.4882  0.3447
36645SOL    HW116027   9.296   4.369  10.273 -0.2919 -1.4692  1.2941
36645SOL    HW216028   9.176   4.283  10.242 -0.4976 -0.4757 -0.8540
36646SOL     OW16029   0.936   9.498   8.737 -0.2329 -0.8284 -0.0298
36646SOL    HW116030   0.956   9.421   8.790 -0.0807 -2.3425 -2.1969
36646SOL    HW216031   1.020   9.522   8.697 -0.7681 -1.1095 -1.3548
36647SOL     OW16032   1.072   1.848   2.666  0.1510 -0.1612  0.6703
36647SOL    HW116033   0.984   1.881   2.680 -0.5608 -1.1651 -1.1154
36647SOL    HW216034   1.061   1.756   2.644  1.4148  0.1311 -1.4881
36648SOL     OW16035   0.584   3.280   9.740 -0.8993 -0.2573 -0.2934
36648SOL    HW116036   0.636   3.200   9.746  0.6532  0.7952  1.7376
36648SOL    HW216037   0.629   3.333   9.674  0.3667  0.3963  1.0203
36649SOL     OW16038   4.378   4.445   7.079  0.2802  0.1129  0.6307
36649SOL    HW116039   4.436   4.504   7.030 -0.2695 -0.2904 -0.5342
36649SOL    HW216040   4.298   4.495   7.092  0.2125  0.0065  0.6237
36650SOL     OW16041   7.349   4.503   9.857 -0.2295 -0.2906 -0.1340
36650SOL    HW116042   7.277   4.484   9.797 -1.8717 -1.2992  2.0034
36650SOL    HW216043   7.335   4.444   9.931  2.7340 -0.4085  0.4864
36651SOL     OW16044   8.193   2.215   1.100  0.0476  0.5234 -0.5030
36651SOL    HW116045   8.239   2.214   1.184 -0.6030  0.7991 -0.1346
36651SOL    HW216046   8.263   2.222   1.035  0.7040 -1.5151 -0.1102
36652SOL     OW16047   8.005   1.342   9.069  0.5081 -0.0467  0.4206
36652SOL    HW116048   8.076   1.312   9.013  0.2589 -0.0382  0.0950
36652SOL    HW216049   8.045   1.355   9.155  0.6122 -1.3495  0.5806
36653SOL     OW16050   8.824   0.346  10.109 -0.1881 -0.4407  0.1782
36653SOL    HW116051   8.803   0.403  10.183 -0.0527 -0.6504  0.3789
36653SOL    HW216052   8.918   0.330  10.117 -0.4763 -1.8702  0.9625
36654SOL     OW16053   8.761   3.352   8.238 -0.1088  0.2586 -0.0326
36654SOL    HW116054   8.725   3.429   8.194 -0.1718  0.4484  0.3399
36654SOL    HW216055   8.756   3.282   8.173  0.5518  0.7250 -0.5923
36655SOL     OW16056   7.092   2.679   0.923  0.0254 -0.1994 -0.0553
36655SOL    HW116057   7.098   2.775   0.924 -0.4060 -0.1743 -0.0487
36655SOL    HW216058   7.181   2.650   0.901  0.4422  0.1797  1.0631
36656SOL     OW16059   2.937   4.112   0.687 -0.2432  0.5199  0.0594
36656SOL    HW116060   2.850   4.105   0.648 -0.2590 -1.3118  0.3720
36656SOL    HW216061   2.989   4.158   0.621 -1.2790  1.1076 -0.3756
36657SOL     OW16062   3.358   8.260   4.229  0.2330 -0.3214  0.4693
36657SOL    HW116063   3.336   8.226   4.142  0.5982  2.6941 -0.8988
36657SOL    HW216064   3.452   8.242   4.238  0.8269  1.7295 -1.0116
36658SOL     OW16065   9.015  10.661   9.151 -0.5942 -0.1954 -0.1924
36658SOL    HW116066   9.024  10.683   9.244  0.6908 -0.5289 -0.2189
36658SOL    HW216067   9.061  10.577   9.142  1.4825  1.0221 -1.5891
36659SOL     OW16068   8.745  10.420   1.281 -0.1785  0.6683 -0.0810
36659SOL    HW116069   8.706  10.490   1.333  0.4105 -0.0636  1.4088
36659SOL    HW216070   8.793  10.465   1.212 -2.9974  1.6226 -1.5910
36660SOL     OW16071   8.764   7.593   1.890  0.2747 -0.3863 -0.2579
36660SOL    HW116072   8.685   7.599   1.943  0.9001  0.4618  0.5983
36660SOL    HW216073   8.763   7.672   1.836 -0.5646 -1.4232 -1.8698
36661SOL     OW16074   9.091   7.904   8.277  0.6066 -0.1871  0.1891
36661SOL    HW116075   9.126   7.974   8.223  1.0126 -1.2556 -0.9818
36661SOL    HW216076   9.022   7.864   8.224  0.3849 -0.6756  0.8259
36662SOL     OW16077   6.407  10.215   2.945 -0.6677 -0.0925 -0.3676
36662SOL    HW116078   6.404  10.253   3.033 -1.1563  0.8605 -0.7807
36662SOL    HW216079   6.446  10.129   2.957  1.2050  0.8077  0.5212
36663SOL     OW16080   2.449   5.483   6.067  0.6451  0.2815 -0.2841
36663SOL    HW116081   2.381   5.500   6.132  0.5279  0.0788 -0.3517
36663SOL    HW216082   2.530   5.515   6.107  0.1908  2.6507 -1.0950
36664SOL     OW16083   5.854   3.546   1.391  0.4901 -0.0374 -0.0557
36664SOL    HW116084   5.889   3.483   1.454  2.7199 -1.1012 -2.1797
36664SOL    HW216085   5.794   3.495   1.337 -0.4948  0.5811  0.4272
36665SOL     OW16086   4.781  10.016   6.522  0.1125 -0.3268 -0.4656
36665SOL    HW116087   4.787   9.925   6.492 -0.6485 -0.4477 -0.2732
36665SOL    HW216088   4.728  10.011   6.601 -2.3650  0.5822 -1.9489
36666SOL     OW16089   2.189   9.102  10.006 -0.5338  0.0147 -0.4826
36666SOL    HW116090   2.209   9.079  10.096 -1.5347  1.6362  0.1985
36666SOL    HW216091   2.153   9.022   9.968 -1.4674 -0.3062  0.9946
36667SOL     OW16092  10.516  10.472   5.574 -0.3906 -0.0971  0.6559
36667SOL    HW116093  10.504  10.564   5.553 -1.0192 -0.1490  0.7613
36667SOL    HW216094  10.427  10.438   5.583 -0.2260 -1.0315 -0.7703
36668SOL     OW16095   8.408   5.187   8.068  0.3701 -0.7933  0.6896
36668SOL    HW116096   8.499   5.209   8.090  0.4849 -1.2894  0.7232
36668SOL    HW216097   8.376   5.138   8.144 -0.2841  0.3183  1.1625
36669SOL     OW16098   1.240   9.712   1.104 -0.7401  0.1639 -0.0359
36669SOL    HW116099   1.313   9.651   1.104 -0.2513  0.6791 -1.6290
36669SOL    HW216100   1.168   9.664   1.063 -0.3210  0.6490 -1.3975
36670SOL     OW16101   9.629   3.032   1.634 -0.2610 -0.0999  0.6496
36670SOL    HW116102   9.721   3.043   1.656 -0.0011  0.5880 -0.7048
36670SOL    HW216103   9.582   3.087   1.697  0.3083  0.1481  0.8560
36671SOL     OW16104   2.514   3.782   8.331  0.0125 -0.9513  0.1113
36671SOL    HW116105   2.603   3.771   8.298 -0.3026 -2.6250 -0.2752
36671SOL    HW216106   2.460   3.734   8.269 -0.9215 -1.8135  1.5485
36672SOL     OW16107   7.696   0.501   4.765  0.3620  0.1623  0.4948
36672SOL    HW116108   7.625   0.437   4.766  0.4951 -0.0237  2.3877
36672SOL    HW216109   7.653   0.586   4.772  0.2635  0.1988 -0.3922
36673SOL     OW16110   6.009   4.857  10.505  0.8157 -0.6234  0.7310
36673SOL    HW116111   5.946   4.788  10.485  0.2053  0.2315 -0.4725
36673SOL    HW216112   5.993   4.879  10.596 -3.1971  1.9762 -0.3178
36674SOL     OW16113   1.690   7.615   0.041 -0.5438  0.0880 -0.3503
36674SOL    HW116114   1.620   7.579  -0.013 -0.2179 -1.3601  0.1279
36674SOL    HW216115   1.758   7.641  -0.021 -0.7398 -0.2610 -0.7185
36675SOL     OW16116   0.084   1.674   3.190 -0.1821  0.4964 -0.0806
36675SOL    HW116117   0.020   1.661   3.120  0.6856  0.2205 -0.8297
36675SOL    HW216118   0.168   1.679   3.146  0.1208  3.5505  0.6335
36676SOL     OW16119   4.356   4.605   7.838  0.5488 -0.1620  0.2250
36676SOL    HW116120   4.290   4.557   7.887  1.0255 -0.4711  0.5647
36676SOL    HW216121   4.319   4.693   7.827  0.2001 -0.2584  0.6486
36677SOL     OW16122   7.885   1.811   1.720 -0.1885  0.2106  0.1132
36677SOL    HW116123   7.817   1.878   1.722  1.3717  1.8245  0.8064
36677SOL    HW216124   7.934   1.823   1.802  0.9930 -0.8505 -0.3978
36678SOL     OW16125   7.907   9.670   6.826  0.4036 -0.0463  0.2990
36678SOL    HW116126   7.930   9.723   6.903  0.6032  0.7680 -0.3161
36678SOL    HW216127   7.838   9.720   6.782  1.2166  0.1699 -0.7736
36679SOL     OW16128   1.132   9.437   7.168 -0.0349  0.6373 -0.2072
36679SOL    HW116129   1.141   9.413   7.261  0.6171  3.1485  0.4563
36679SOL    HW216130   1.211   9.401   7.127  1.0368  1.7568  0.7864
36680SOL     OW16131   3.378   6.668   5.712 -0.8028 -0.1821 -0.6245
36680SOL    HW116132   3.429   6.657   5.631  2.7037 -0.7780  1.4816
36680SOL    HW216133   3.369   6.579   5.746  1.3304  0.3244  1.5336
36681SOL     OW16134   6.121  10.385   3.029 -0.2020  0.0400 -0.3328
36681SOL    HW116135   6.133  10.316   3.094  2.8809  0.3482 -0.4295
36681SOL    HW216136   6.080  10.457   3.078  0.8414 -0.2073  0.9758
36682SOL     OW16137   0.914   9.232   7.642  0.0800 -0.0609 -0.0078
36682SOL    HW116138   0.986   9.250   7.703 -0.7425 -0.6961  1.1809
36682SOL    HW216139   0.854   9.305   7.653  1.6781  1.8987 -2.9162
36683SOL     OW16140   9.547   6.104   6.915  0.1285 -0.2199 -0.1508
36683SOL    HW116141   9.546   6.163   6.840 -0.1706 -0.0359 -0.0012
36683SOL    HW216142   9.482   6.140   6.976  1.0850  0.2182  0.6408
36684SOL     OW16143   0.559   0.884   4.475  0.2950 -0.3485  0.0279
36684SOL    HW116144   0.529   0.938   4.548  0.4847 -0.5143  0.2291
36684SOL    HW216145   0.594   0.947   4.411  1.2872 -0.2849  0.6198
36685SOL     OW16146   9.678   9.253   3.856  0.4170  0.3572  0.4762
36685SOL    HW116147   9.732   9.265   3.777 -0.1546 -0.5246 -0.0632
36685SOL    HW216148   9.695   9.163   3.883 -1.8940 -0.4871 -0.6010
36686SOL     OW16149   4.756   1.849   7.879  0.1640  0.2273 -0.2281
36686SOL    HW116150   4.841   1.806   7.886 -0.1198 -0.3035  0.0208
36686SOL    HW216151   4.729   1.836   7.789 -1.1149 -2.4595  0.4484
36687SOL     OW16152   7.937   5.533   4.817 -0.6541  0.2689 -0.1069
36687SOL    HW116153   7.957   5.621   4.847  0.4771 -0.0132  0.0063
36687SOL    HW216154   7.932   5.540   4.722 -1.7830  0.6772 -0.0345
36688SOL     OW16155   4.657   2.122   1.797  0.2006 -0.3089 -0.0008
36688SOL    HW116156   4.640   2.078   1.714 -3.1993  2.6844 -1.1257
36688SOL    HW216157   4.732   2.179   1.779  0.8964 -1.2768 -0.2609
36689SOL     OW16158   6.016   4.955   5.973 -0.0718  0.1999 -0.3011
36689SOL    HW116159   6.009   4.877   6.028 -1.2500  0.2950 -0.3002
36689SOL    HW216160   6.003   5.028   6.033  0.1378  0.3656 -0.4554
36690SOL     OW16161   0.041   8.930   1.533  0.3344 -0.3019 -0.3803
36690SOL    HW116162  -0.003   8.974   1.606  3.7524  0.4659  1.4169
36690SOL    HW216163   0.075   8.849   1.571 -0.1310 -1.2517 -1.9003
36691SOL     OW16164   5.526   5.815   5.082  0.7593  0.0980 -0.0380
36691SOL    HW116165   5.524   5.740   5.142  1.1440  1.5662  1.8998
36691SOL    HW216166   5.450   5.867   5.107  2.0587  1.7682  0.6237
36692SOL     OW16167   9.478  10.332   2.215  0.4228 -0.3960  0.1725
36692SOL    HW116168   9.471  10.364   2.305  0.1337 -0.9700  0.3576
36692SOL    HW216169   9.543  10.389   2.174  0.1581  0.2129  0.5876
36693SOL     OW16170   8.889   9.048   3.071 -0.2989 -0.2260  0.1849
36693SOL    HW116171   8.818   9.086   3.123 -0.2168 -1.5442  1.3115
36693SOL    HW216172   8.892   9.102   2.992 -1.4941  0.8381  0.8261
36694SOL     OW16173   4.977   3.927   1.588 -0.1222 -0.1994  0.3143
36694SOL    HW116174   5.070   3.920   1.607 -0.1124  1.7857  1.2783
36694SOL    HW216175   4.969   4.010   1.539 -1.3883 -0.2465  0.4033
36695SOL     OW16176   5.754   4.732   1.643  0.1815 -0.5167  0.1193
36695SOL    HW116177   5.804   4.749   1.563  1.4067  1.5983  1.2680
36695SOL    HW216178   5.668   4.706   1.612  0.2471  1.4244 -1.9128
36696SOL     OW16179   6.450  10.896   9.334  0.6566 -0.2909  0.2543
36696SOL    HW116180   6.389  10.965   9.362  0.6342 -0.1241 -0.1809
36696SOL    HW216181   6.430  10.821   9.390  0.7698  0.0975  0.8186
36697SOL     OW16182   9.914   3.920   0.373  0.1030 -0.4160  0.8606
36697SOL    HW116183   9.860   3.978   0.427 -0.8981 -0.8800  0.3735
36697SOL    HW216184   9.909   3.836   0.418  0.7590 -0.3714  1.0277
36698SOL     OW16185   1.637   3.654   6.731 -0.3172 -0.0782  0.8139
36698SOL    HW116186   1.623   3.747   6.717 -2.7395 -0.1981  1.8469
36698SOL    HW216187   1.630   3.615   6.644  2.7993  0.7921  0.0296
36699SOL     OW16188   7.621   0.916   6.388  0.1827  0.9983  0.2802
36699SOL    HW116189   7.694   0.927   6.326 -1.3940 -0.9269 -2.1042
36699SOL    HW216190   7.545   0.952   6.342 -1.5195 -2.6849 -0.0955
36700SOL     OW16191   6.038   6.206   8.112 -0.2331  0.3835  0.1100
36700SOL    HW116192   5.967   6.258   8.075 -0.4511  0.4157  0.5666
36700SOL    HW216193   6.101   6.271   8.144 -0.4128  0.3669  0.5019
36701SOL     OW16194   8.898   7.714   9.393 -0.5011  0.1839  0.1848
36701SOL    HW116195   8.840   7.743   9.464  2.3220  0.8573  2.3784
36701SOL    HW216196   8.917   7.622   9.414  0.8015  0.5503  0.6692
36702SOL     OW16197   9.852   2.217   6.029  0.0956  0.0881  0.0994
36702SOL    HW116198   9.880   2.181   6.114  1.6968 -0.2197 -0.5107
36702SOL    HW216199   9.934   2.239   5.985 -0.7411  1.0075 -1.0583
36703SOL     OW16200   3.169   5.048   7.196 -0.1700  0.0085  0.2428
36703SOL    HW116201   3.116   5.028   7.273  2.5167  0.9932  2.4974
36703SOL    HW216202   3.247   5.091   7.230  2.0846 -1.2248 -2.8569
36704SOL     OW16203   1.472   5.774   8.651 -0.0519  0.0743  0.1150
36704SOL    HW116204   1.460   5.722   8.572  0.8480 -0.6731  0.4491
36704SOL    HW216205   1.531   5.844   8.625  1.9280 -1.3539  0.5830
36705SOL     OW16206   5.273   1.960   5.360 -0.0051  0.5778  0.6404
36705SOL    HW116207   5.299   2.048   5.334  0.1286  0.8209  1.5775
36705SOL    HW216208   5.341   1.931   5.421  0.2664 -0.4089 -0.1009
36706SOL     OW16209   8.838  10.729   2.949 -0.5064  0.3944  0.0102
36706SOL    HW116210   8.769  10.676   2.990 -1.0021 -0.1103 -1.4358
36706SOL    HW216211   8.915  10.672   2.949 -0.4290  0.4898  0.4428
36707SOL     OW16212   8.321   2.385   7.390 -0.0635  0.7723  0.3777
36707SOL    HW116213   8.267   2.450   7.345  1.0091  0.6897 -1.1079
36707SOL    HW216214   8.259   2.322   7.426 -1.0276  1.6110  0.2253
36708SOL     OW16215  10.692   9.752   5.100  0.6407 -0.0496 -0.2947
36708SOL    HW116216  10.734   9.666   5.101 -0.4122 -0.6618 -2.5165
36708SOL    HW216217  10.664   9.765   5.009 -1.6468  1.4414  0.5110
36709SOL     OW16218   8.128   2.985  10.774 -0.8477  0.4765  0.3353
36709SOL    HW116219   8.196   2.972  10.839  0.0181 -1.1982 -0.8216
36709SOL    HW216220   8.174   2.981  10.690 -2.1267  1.1294 -0.4362
36710SOL     OW16221   2.212   2.414   1.528  0.1115  0.0820  0.0285
36710SOL    HW116222   2.135   2.373   1.487  1.5942 -0.6912 -2.1156
36710SOL    HW216223   2.175   2.484   1.582 -2.2243 -1.4474  0.5842
36711SOL     OW16224   4.802   1.668   0.723  1.0566 -0.2112 -0.2795
36711SOL    HW116225   4.887   1.705   0.749 -0.4241  2.0951  1.8637
36711SOL    HW216226   4.796   1.586   0.772  1.4226  0.3988  0.8333
36712SOL     OW16227   9.233   5.626   5.758  0.2758 -0.1249  0.0487
36712SOL    HW116228   9.320   5.653   5.729  0.3501 -0.9958 -0.6025
36712SOL    HW216229   9.173   5.681   5.708  0.4376 -0.5939 -0.6902
36713SOL     OW16230   9.171   2.221   6.751 -0.0067  0.0611  0.6057
36713SOL    HW116231   9.159   2.286   6.681  0.2628 -0.2642  0.2521
36713SOL    HW216232   9.190   2.140   6.704 -2.2104 -0.7197  0.9312
36714SOL     OW16233   3.383   9.783   1.739 -0.7823 -0.7004  0.0271
36714SOL    HW116234   3.432   9.715   1.694 -1.8552 -1.2029 -0.4150
36714SOL    HW216235   3.393   9.860   1.683  1.0741 -0.2151  0.9122
36715SOL     OW16236   5.214   0.253   8.836 -0.5484  0.5884  0.0248
36715SOL    HW116237   5.299   0.296   8.829 -0.5986  0.3881 -3.2898
36715SOL    HW216238   5.159   0.317   8.883  1.5658  0.2161  3.3720
36716SOL     OW16239   5.442   8.562   1.296  0.1483 -0.2258 -0.1493
36716SOL    HW116240   5.455   8.494   1.363 -0.7730  0.7127  1.0226
36716SOL    HW216241   5.488   8.529   1.219 -0.5948 -2.3698  0.2618
36717SOL     OW16242   2.146  10.811   3.031  0.2448  0.2553  0.1573
36717SOL    HW116243   2.081  10.873   3.066 -2.3037 -1.6551 -0.8929
36717SOL    HW216244   2.197  10.864   2.969 -0.8807  1.6491  0.3511
36718SOL     OW16245   3.885  10.241   1.500  0.1811 -0.3206  0.8105
36718SOL    HW116246   3.854  10.246   1.409  4.6141 -3.0436 -1.1809
36718SOL    HW216247   3.824  10.180   1.542 -1.0528 -0.2708 -0.8010
36719SOL     OW16248   3.127   4.668   9.001 -0.8045  0.7166  1.2161
36719SOL    HW116249   3.217   4.702   9.007 -0.5112  0.3949 -0.8210
36719SOL    HW216250   3.133   4.581   9.040  0.5915 -0.6392 -1.7043
36720SOL     OW16251   8.034   6.696   5.465 -0.7775 -0.3542 -0.3033
36720SOL    HW116252   7.976   6.757   5.510  0.0555  0.5376 -0.4057
36720SOL    HW216253   8.102   6.676   5.530 -0.3913 -0.2408 -0.6692
36721SOL     OW16254   8.872   9.416   5.198 -0.2815 -0.3987  0.1613
36721SOL    HW116255   8.817   9.464   5.259 -0.7745 -0.6122 -0.1125
36721SOL    HW216256   8.958   9.413   5.240 -0.7064 -0.8643  1.0025
36722SOL     OW16257   1.116   7.505   8.666 -0.1120 -0.3765  0.0332
36722SOL    HW116258   1.111   7.600   8.655  2.0273 -0.1823  0.2740
36722SOL    HW216259   1.074   7.470   8.587 -1.2051  0.7409  0.0836
36723SOL     OW16260   7.272  10.806  10.661  0.0602 -0.2444  0.3564
36723SOL    HW116261   7.176  10.809  10.659  0.0315  1.7275 -2.6940
36723SOL    HW216262   7.295  10.735  10.600  0.4168  1.4190 -1.5625
36724SOL     OW16263   8.071   7.636   9.498 -0.5385 -0.2493  0.2463
36724SOL    HW116264   8.160   7.642   9.532 -1.0867  1.0075  1.5730
36724SOL    HW216265   8.055   7.722   9.458 -1.0474 -0.5877 -0.2996
36725SOL     OW16266   0.767   8.021   4.764 -0.0134  0.7134 -0.4742
36725SOL    HW116267   0.685   8.066   4.748 -0.5199  0.3780  1.0151
36725SOL    HW216268   0.829   8.060   4.703 -1.0683  1.5775 -1.0075
36726SOL     OW16269   5.666   0.674   7.105  0.2836  0.1522 -0.1199
36726SOL    HW116270   5.620   0.753   7.131  0.3641  1.0163 -2.3506
36726SOL    HW216271   5.602   0.604   7.116 -1.0041  1.0619 -1.3630
36727SOL     OW16272   6.536   0.271   0.755  0.0615 -0.4562  0.4137
36727SOL    HW116273   6.535   0.367   0.749 -2.4502 -0.4232  0.3033
36727SOL    HW216274   6.562   0.242   0.668 -1.8174  0.1454 -0.3865
36728SOL     OW16275   4.984   6.106   7.090  0.8951  0.0214  0.5752
36728SOL    HW116276   5.041   6.029   7.097 -1.1016 -1.4759  1.0913
36728SOL    HW216277   5.011   6.162   7.162  0.8021 -1.3154  1.6885
36729SOL     OW16278   9.116   2.542   6.236 -0.8144 -0.3904 -0.1605
36729SOL    HW116279   9.083   2.537   6.147 -1.5786 -0.0415  0.0875
36729SOL    HW216280   9.176   2.468   6.244  0.3101  0.3481 -1.3606
36730SOL     OW16281   1.569   2.731   9.056  0.1291 -0.0908 -0.0232
36730SOL    HW116282   1.604   2.801   9.001 -0.1444 -0.9375 -1.3397
36730SOL    HW216283   1.481   2.760   9.080  0.0409  0.0529 -0.5051
36731SOL     OW16284   8.489   0.633   5.615 -0.0343  0.7699 -0.2644
36731SOL    HW116285   8.563   0.579   5.586  1.8524  0.9852  3.4998
36731SOL    HW216286   8.522   0.722   5.616 -0.9297  1.1152 -0.1497
36732SOL     OW16287  10.591   5.780   4.205 -0.4171 -0.8144  0.2691
36732SOL    HW116288  10.649   5.714   4.168  0.9505  0.1813  0.5698
36732SOL    HW216289  10.590   5.761   4.299 -2.0608 -1.9232  0.0833
36733SOL     OW16290   9.913   9.672  10.235 -0.0077  0.2225 -0.6972
36733SOL    HW116291   9.987   9.664  10.175  0.1861  0.0905 -0.4428
36733SOL    HW216292   9.845   9.717  10.184 -0.0460 -0.3837 -1.1953
36734SOL     OW16293   9.934   5.459   9.818  0.3071  0.2830  0.0876
36734SOL    HW116294   9.900   5.416   9.740 -1.6885 -1.3705  1.7337
36734SOL    HW216295  10.025   5.481   9.797  0.1697 -1.1281 -2.2506
36735SOL     OW16296   1.467   2.305   6.460 -0.1618 -0.1837  0.4520
36735SOL    HW116297   1.480   2.213   6.436 -0.0956 -0.7141  2.3526
36735SOL    HW216298   1.389   2.331   6.411  0.2003 -1.0433 -0.6285
36736SOL     OW16299   4.584   4.383   8.496  0.8185  0.4779  0.2169
36736SOL    HW116300   4.605   4.431   8.416 -2.9655  2.3878  0.1642
36736SOL    HW216301   4.574   4.292   8.467  0.0204  1.0398 -1.4461
36737SOL     OW16302   8.240   4.597   8.707  0.6670  0.0343 -0.2666
36737SOL    HW116303   8.284   4.619   8.789  1.4800 -1.2690 -0.3237
36737SOL    HW216304   8.155   4.562   8.735 -0.3134  2.3449 -0.1487
36738SOL     OW16305   9.391   6.848   9.571 -0.1322  0.2353  0.4698
36738SOL    HW116306   9.303   6.815   9.553  0.7430 -0.3663 -3.9220
36738SOL    HW216307   9.381   6.943   9.575 -0.9777  0.1833 -0.1636
36739SOL     OW16308   2.027   3.887  10.236  0.0859  0.0145 -0.3196
36739SOL    HW116309   1.960   3.821  10.255  0.3070  0.1618  1.1134
36739SOL    HW216310   1.985   3.970  10.256  1.3415  0.0064  3.0522
36740SOL     OW16311  10.047   9.802   2.062  0.5332  0.0080 -0.1831
36740SOL    HW116312  10.088   9.789   2.147  1.2584 -0.8396 -0.6531
36740SOL    HW216313  10.090   9.740   2.004  0.6437  1.1419 -1.3704
36741SOL     OW16314  10.773  10.215   6.382 -0.1824 -0.0967  0.6765
36741SOL    HW116315  10.842  10.154   6.410 -0.1099 -0.5026 -0.3569
36741SOL    HW216316  10.705  10.159   6.345 -0.7135  0.3663  0.9349
36742SOL     OW16317   2.641   5.458  10.218  0.1759 -0.0939  0.3622
36742SOL    HW116318   2.623   5.452  10.124 -0.0499  0.6058  0.3502
36742SOL    HW216319   2.554   5.461  10.259  0.2494  0.8490  0.4892
36743SOL     OW16320   1.800   6.805   7.619  0.2126 -0.3266  0.0875
36743SOL    HW116321   1.797   6.787   7.525 -0.9442  0.2029  0.0156
36743SOL    HW216322   1.891   6.830   7.635  0.6596 -1.3318 -0.7049
36744SOL     OW16323   5.446   0.500   1.648 -0.0005  0.2292 -0.0548
36744SOL    HW116324   5.503   0.496   1.725 -1.8820 -1.2999  1.3386
36744SOL    HW216325   5.494   0.450   1.581  1.9894  2.1781 -0.2329
36745SOL     OW16326   6.984   9.424   0.464 -0.1661 -0.7297 -0.3067
36745SOL    HW116327   6.896   9.389   0.450 -0.8453  0.7710  0.1328
36745SOL    HW216328   7.026   9.416   0.378 -1.0411 -0.6004 -0.7600
36746SOL     OW16329   4.912   4.117  10.209  0.2145 -0.4882  0.1932
36746SOL    HW116330   4.929   4.166  10.290 -0.5953  1.0269 -0.4961
36746SOL    HW216331   4.818   4.127  10.194  0.4863  0.1328 -1.4199
36747SOL     OW16332   1.585  10.231   2.899 -0.4815 -0.2732 -0.8627
36747SOL    HW116333   1.629  10.302   2.853 -0.3700  0.3192  0.1170
36747SOL    HW216334   1.506  10.214   2.848 -0.1747  0.1026 -1.4723
36748SOL     OW16335   2.797   8.094   0.753 -0.1838 -0.1944  0.1991
36748SOL    HW116336   2.755   8.141   0.825 -1.7408  0.2452 -0.9472
36748SOL    HW216337   2.842   8.163   0.704 -1.1268 -0.1124 -0.5745
36749SOL     OW16338   2.135   8.582   7.776  0.0565  0.2163  0.0059
36749SOL    HW116339   2.066   8.637   7.738 -0.7897 -1.1238 -0.4843
36749SOL    HW216340   2.109   8.493   7.753  0.2529 -0.5748  2.5485
36750SOL     OW16341   4.681   9.071   3.108  0.2129 -0.5928  0.3875
36750SOL    HW116342   4.721   9.142   3.057  0.7632 -1.8093 -0.9303
36750SOL    HW216343   4.602   9.111   3.145 -0.3029  0.3340 -1.5622
36751SOL     OW16344   9.434  10.708   7.208  0.1912 -0.3650 -0.4485
36751SOL    HW116345   9.491  10.756   7.269  0.4273  0.2626 -1.1425
36751SOL    HW216346   9.452  10.748   7.123 -0.4822 -0.9123 -0.8554
36752SOL     OW16347   1.247   5.069   1.006 -0.0592 -0.0736  0.1145
36752SOL    HW116348   1.322   5.121   0.976 -0.2098 -1.0443 -2.0772
36752SOL    HW216349   1.171   5.108   0.963 -0.5802 -0.2902  0.8103
36753SOL     OW16350   5.056   0.024   7.473  0.1795 -0.2296 -0.5209
36753SOL    HW116351   5.051   0.039   7.568 -0.7656 -0.7743 -0.4764
36753SOL    HW216352   5.149   0.008   7.457  0.4449  0.4740  0.2166
36754SOL     OW16353   2.631  10.299   5.115  0.0189  0.6612  0.1276
36754SOL    HW116354   2.696  10.316   5.047 -0.0800  0.1033 -0.1111
36754SOL    HW216355   2.551  10.342   5.084 -0.8081 -1.7830 -1.4486
36755SOL     OW16356   7.044   1.289   2.755  0.2503 -0.4364 -0.0282
36755SOL    HW116357   7.125   1.245   2.729 -0.6662 -1.4356 -1.3779
36755SOL    HW216358   7.069   1.380   2.770  1.5716 -0.6622 -0.6976
36756SOL     OW16359   0.236   2.976   5.391  0.4325  0.1501 -0.6822
36756SOL    HW116360   0.178   3.020   5.452  0.3259  1.0450 -1.4062
36756SOL    HW216361   0.267   2.898   5.438 -2.2410 -1.0060 -0.6894
36757SOL     OW16362   2.866   6.769   0.194 -0.2392  0.1418 -0.3873
36757SOL    HW116363   2.839   6.682   0.223  3.7861 -1.5584 -1.0535
36757SOL    HW216364   2.895   6.813   0.275 -2.5661  1.1497 -0.0003
36758SOL     OW16365   0.958   1.210   5.222 -0.0314  0.2431  0.2874
36758SOL    HW116366   1.011   1.252   5.290 -1.8024  1.8428  0.7568
36758SOL    HW216367   1.020   1.190   5.152  1.7729 -1.0451  2.1416
36759SOL     OW16368   8.033  10.014   6.809 -0.1413 -0.6597  0.1273
36759SOL    HW116369   8.107  10.072   6.826 -0.8567  0.2783  0.1078
36759SOL    HW216370   8.006   9.983   6.896 -0.1478 -0.4589  0.1984
36760SOL     OW16371   2.441   1.401   3.652  0.1250 -0.3879  0.1832
36760SOL    HW116372   2.464   1.493   3.634  0.1704 -0.7635 -1.9905
36760SOL    HW216373   2.525   1.359   3.671  0.5125 -0.5167 -1.6446
36761SOL     OW16374   7.028   4.186   9.532 -0.1853  0.1631  0.9424
36761SOL    HW116375   7.050   4.132   9.457 -2.8115  1.5912 -1.0071
36761SOL    HW216376   7.031   4.126   9.607  3.4025 -1.1080 -0.0012
36762SOL     OW16377   4.688   0.688   5.397 -0.1008 -0.1924  0.0658
36762SOL    HW116378   4.593   0.702   5.391 -0.4620 -1.7871  1.2724
36762SOL    HW216379   4.703   0.671   5.490  1.0130 -2.1735 -0.4275
36763SOL     OW16380   8.778   0.821   5.684 -0.5021  0.2121  0.0464
36763SOL    HW116381   8.744   0.885   5.622  0.8259  1.1393  0.2446
36763SOL    HW216382   8.871   0.841   5.691 -0.1333 -1.5026  0.4175
36764SOL     OW16383   5.834   6.371   8.033 -0.4782  0.1525  0.6991
36764SOL    HW116384   5.818   6.409   8.119 -1.2766 -0.8126  0.9953
36764SOL    HW216385   5.914   6.414   8.002  0.5317 -0.3839  2.4631
36765SOL     OW16386  10.637   5.909   5.988  0.3087 -0.0360  0.5689
36765SOL    HW116387  10.615   5.999   5.966  0.3754 -0.3854 -1.0705
36765SOL    HW216388  10.563   5.857   5.957  1.8049 -0.8744 -1.9361
36766SOL     OW16389   6.847   5.804   4.898  0.1321  0.2451 -0.1629
36766SOL    HW116390   6.779   5.737   4.896 -2.0782  2.3419 -0.5650
36766SOL    HW216391   6.833   5.855   4.818  0.4116  2.3494  1.0423
36767SOL     OW16392  10.716   2.710   7.115 -0.2054 -0.0608  0.2330
36767SOL    HW116393  10.749   2.743   7.198  0.2669 -0.2813  0.1325
36767SOL    HW216394  10.634   2.758   7.101  0.6492  1.3657 -0.0825
36768SOL     OW16395   7.331   3.729   3.282 -0.5742 -0.2028 -0.3650
36768SOL    HW116396   7.375   3.809   3.309 -1.5090 -0.3554  1.8200
36768SOL    HW216397   7.396   3.660   3.293 -0.0919  0.0860 -1.2654
36769SOL     OW16398   4.205   9.956   7.834  0.2274 -0.3699 -0.7181
36769SOL    HW116399   4.292   9.995   7.827  0.6482 -1.4601 -1.8983
36769SOL    HW216400   4.215   9.868   7.798 -0.8847 -1.3120  1.1058
36770SOL     OW16401   3.643   0.236   6.238  0.1979  0.4658 -0.0969
36770SOL    HW116402   3.717   0.194   6.193 -0.9948  0.9927 -2.7087
36770SOL    HW216403   3.596   0.164   6.280 -0.0287 -0.4419 -1.8386
36771SOL     OW16404   3.131   5.143   9.138 -0.5203  0.5770  0.4982
36771SOL    HW116405   3.185   5.069   9.112 -2.2377 -0.4828 -0.2022
36771SOL    HW216406   3.048   5.131   9.091 -2.1956  0.9359  3.0894
36772SOL     OW16407   7.901  10.770   1.468 -0.2419 -0.2266 -0.3765
36772SOL    HW116408   7.974  10.709   1.455 -1.1986 -1.4565 -0.2120
36772SOL    HW216409   7.942  10.850   1.499  1.0238 -0.9537 -0.0819
36773SOL     OW16410   5.590   0.724   1.796  0.5983  0.0839  0.2353
36773SOL    HW116411   5.641   0.647   1.822 -0.5824 -0.7324  0.1912
36773SOL    HW216412   5.618   0.742   1.706  0.2190 -0.8563 -0.0746
36774SOL     OW16413  10.497   9.418   1.904 -0.2984 -0.5875 -0.0530
36774SOL    HW116414  10.488   9.456   1.816  3.5977 -0.7399 -0.6786
36774SOL    HW216415  10.410   9.381   1.923 -2.2271  2.2242 -2.4122
36775SOL     OW16416  10.491   3.934   9.243  0.0427  0.6215 -0.4010
36775SOL    HW116417  10.538   3.882   9.307 -0.8913  0.7452  0.4098
36775SOL    HW216418  10.399   3.908   9.253 -0.3204  1.7466 -0.6202
36776SOL     OW16419  10.514   8.015   9.596 -0.5888  0.1137 -0.1441
36776SOL    HW116420  10.436   8.069   9.595 -0.7058 -0.0547 -0.3708
36776SOL    HW216421  10.500   7.952   9.525  0.3001  0.8573 -1.0112
36777SOL     OW16422   4.224   3.816   6.429  0.2781  0.5568  0.2176
36777SOL    HW116423   4.268   3.765   6.497 -0.5576 -0.0207  0.3358
36777SOL    HW216424   4.285   3.814   6.355 -0.4856 -2.1510 -0.4173
36778SOL     OW16425   4.503   7.765   2.447  0.0411 -0.5264 -0.4859
36778SOL    HW116426   4.544   7.844   2.484  0.6092 -0.7397 -0.6460
36778SOL    HW216427   4.528   7.695   2.508 -0.0265 -0.6731 -0.6286
36779SOL     OW16428   2.992   7.917   4.845 -0.3956 -0.3229 -0.4887
36779SOL    HW116429   3.020   8.007   4.829 -2.2472 -0.0651 -2.8065
36779SOL    HW216430   3.070   7.864   4.827  0.0511  0.6667 -1.5958
36780SOL     OW16431  10.403   2.314   0.718 -0.2858  0.0667 -0.3532
36780SOL    HW116432  10.385   2.270   0.634  1.3303 -0.1130 -0.6394
36780SOL    HW216433  10.358   2.260   0.783 -1.6833  0.2788 -1.0920
36781SOL     OW16434   2.406   8.634   2.077  0.3361 -0.3163 -0.3597
36781SOL    HW116435   2.495   8.603   2.062  0.1215 -0.6526 -0.9839
36781SOL    HW216436   2.407   8.670   2.166  0.7279 -1.6487  0.2086
36782SOL     OW16437   0.648   2.098   9.168  0.2013 -0.0074  0.2891
36782SOL    HW116438   0.620   2.124   9.081  1.1234 -0.9416 -0.3104
36782SOL    HW216439   0.625   2.006   9.175 -1.5990  0.4807  1.7908
36783SOL     OW16440   9.113   0.835   0.302  0.1578 -0.2526 -0.6107
36783SOL    HW116441   9.082   0.806   0.388  0.2479  0.7167 -0.2361
36783SOL    HW216442   9.207   0.850   0.314 -0.3824  3.3488  0.1844
36784SOL     OW16443   8.927   6.838   4.990 -0.0708 -0.1458  0.0022
36784SOL    HW116444   8.999   6.829   5.052  0.3637 -0.1107 -0.4927
36784SOL    HW216445   8.938   6.926   4.953 -0.3014 -0.1838 -0.1570
36785SOL     OW16446   5.590   6.360   4.430 -0.1696 -0.6007  0.0878
36785SOL    HW116447   5.514   6.314   4.393  1.0363 -0.9677 -2.0847
36785SOL    HW216448   5.572   6.453   4.414  0.9125 -0.8100 -2.7755
36786SOL     OW16449   2.052   0.513   2.937  0.0875  0.3253  0.4820
36786SOL    HW116450   2.100   0.489   3.017  0.5611 -0.0118  0.1030
36786SOL    HW216451   2.119   0.519   2.869 -0.4131 -0.3152 -0.0964
36787SOL     OW16452   3.433  10.623   3.366 -0.0156  0.2073  0.5517
36787SOL    HW116453   3.357  10.630   3.425 -0.6880  0.2287 -0.2912
36787SOL    HW216454   3.490  10.695   3.392 -0.0691 -0.0740  1.4957
36788SOL     OW16455   0.569   6.418   5.768 -0.2948 -0.3294  0.2556
36788SOL    HW116456   0.484   6.420   5.724  0.1267 -2.7900 -0.8604
36788SOL    HW216457   0.556   6.359   5.842  0.2555 -0.0934  0.5405
36789SOL     OW16458   0.259   8.131   3.537  0.1298 -0.1528 -0.4564
36789SOL    HW116459   0.320   8.057   3.545  1.9116  1.2813 -0.0295
36789SOL    HW216460   0.311   8.201   3.497 -1.4617  0.9323 -0.7271
36790SOL     OW16461   0.300   7.933   2.274  0.2072 -0.4291  0.5015
36790SOL    HW116462   0.205   7.932   2.280  0.1114  0.8482 -0.5947
36790SOL    HW216463   0.319   7.896   2.188  0.7384 -1.0874  0.8897
36791SOL     OW16464   4.109   9.046   6.569  0.3674 -0.8450  0.2674
36791SOL    HW116465   4.165   8.973   6.593 -0.9321 -2.0554 -0.2402
36791SOL    HW216466   4.028   9.031   6.618  0.0461  0.2229  0.0902
36792SOL     OW16467  10.651   8.025   7.297 -0.4979  0.4919  0.0834
36792SOL    HW116468  10.731   7.998   7.252  0.4024  0.0029  1.8542
36792SOL    HW216469  10.600   8.071   7.231  0.1144 -1.3259 -1.7661
36793SOL     OW16470   8.165   5.182   0.053 -0.2460  0.6956 -0.0068
36793SOL    HW116471   8.238   5.243   0.038 -0.5194  0.9017 -0.5298
36793SOL    HW216472   8.089   5.237   0.064 -0.2384  0.4962  1.1105
36794SOL     OW16473   0.266   7.466   5.047 -0.4868  0.2398  0.2453
36794SOL    HW116474   0.286   7.401   5.114  1.8810 -0.4575 -1.0153
36794SOL    HW216475   0.253   7.416   4.967  0.0251  1.1929 -0.4696
36795SOL     OW16476   8.114   0.183   8.104  0.2224 -0.0538  0.5069
36795SOL    HW116477   8.054   0.184   8.030  0.3203  1.8716  0.4208
36795SOL    HW216478   8.170   0.107   8.088  0.7596  0.7687 -1.8331
36796SOL     OW16479   1.692   9.635   9.188 -0.4174  0.0419 -0.2529
36796SOL    HW116480   1.727   9.571   9.125  2.0357  1.6068 -0.5707
36796SOL    HW216481   1.618   9.589   9.229  0.6684 -2.6603 -1.0966
36797SOL     OW16482   5.945   5.192   6.114  0.1536 -0.4220  0.5046
36797SOL    HW116483   5.878   5.191   6.182 -0.3702 -1.6080 -0.0123
36797SOL    HW216484   5.897   5.213   6.033  0.4189 -1.1638  0.1493
36798SOL     OW16485   2.534   4.637   4.393 -0.5151 -0.5021  0.3751
36798SOL    HW116486   2.452   4.598   4.423 -0.6318 -0.6682 -0.1481
36798SOL    HW216487   2.603   4.583   4.433 -0.6525 -0.3190  0.8712
36799SOL     OW16488   7.716   8.676   7.738  0.0286  0.5778  0.3730
36799SOL    HW116489   7.656   8.683   7.812  0.8560  0.3838  1.0863
36799SOL    HW216490   7.704   8.587   7.706 -1.0463  0.9755 -0.3685
36800SOL     OW16491   5.647   4.508   4.750  0.2803 -0.2269  0.3023
36800SOL    HW116492   5.566   4.553   4.730  0.2811 -0.1848  0.3937
36800SOL    HW216493   5.709   4.540   4.685  0.3017 -0.0371  0.4146
36801SOL     OW16494   3.768   4.942   0.189 -0.2991  0.0338 -0.1749
36801SOL    HW116495   3.700   4.962   0.254  0.3985  1.4451  0.1477
36801SOL    HW216496   3.787   5.026   0.148  1.7877 -0.1929  0.2510
36802SOL     OW16497   4.326   2.653   6.967 -0.0077  0.0678 -1.0777
36802SOL    HW116498   4.364   2.566   6.953 -1.5489 -0.3470 -3.1725
36802SOL    HW216499   4.379   2.711   6.913  0.5257  0.3322 -0.2954
36803SOL     OW16500  10.679   3.330   4.889  0.2458  0.1024 -0.2979
36803SOL    HW116501  10.713   3.417   4.868 -0.2133  0.4951  0.5465
36803SOL    HW216502  10.586   3.335   4.868  0.4340 -0.5622 -1.3575
36804SOL     OW16503   5.863   5.080   3.090 -0.2887  0.0580  0.1407
36804SOL    HW116504   5.944   5.078   3.141  1.0526  1.1848 -1.8137
36804SOL    HW216505   5.814   5.154   3.126  1.4288  1.9615 -1.2215
36805SOL     OW16506   3.768   4.413   6.889 -0.3389  0.0970 -0.5258
36805SOL    HW116507   3.850   4.368   6.907  0.4157  1.6903  0.2199
36805SOL    HW216508   3.721   4.354   6.830  1.2974 -0.8914 -0.9149
36806SOL     OW16509   9.058   0.184   2.855 -0.5012  0.1004  0.0285
36806SOL    HW116510   9.081   0.271   2.823  0.9385 -0.3889 -0.3661
36806SOL    HW216511   9.110   0.173   2.934 -0.3184 -0.5639 -0.1729
36807SOL     OW16512   4.506   1.163   1.020  0.5460  0.2438 -0.1103
36807SOL    HW116513   4.573   1.107   1.058  0.1945  0.0688  0.2612
36807SOL    HW216514   4.431   1.106   1.006 -0.0598  0.7423  0.9255
36808SOL     OW16515   1.413   9.685   6.410 -0.2709  0.2310  0.3708
36808SOL    HW116516   1.450   9.621   6.471 -1.1543 -0.5411  0.1099
36808SOL    HW216517   1.385   9.633   6.334 -0.9579  0.9300  0.1324
36809SOL     OW16518   9.135   2.405   7.728 -0.0921  0.2626 -0.5611
36809SOL    HW116519   9.147   2.343   7.800 -1.1523  0.7807  0.0870
36809SOL    HW216520   9.144   2.352   7.648  0.7867 -0.3746 -0.0475
36810SOL     OW16521   1.060  10.710   9.250 -0.1143  0.3683  0.0641
36810SOL    HW116522   1.070  10.616   9.234 -0.8365  0.3827 -0.4824
36810SOL    HW216523   0.969  10.721   9.277 -0.4078  1.0657 -1.1245
36811SOL     OW16524   1.554   6.490   0.214 -0.4664 -0.5153 -0.1978
36811SOL    HW116525   1.525   6.427   0.149 -0.8314  0.9542 -1.5133
36811SOL    HW216526   1.649   6.495   0.202 -0.6790  0.7956 -1.6616
36812SOL     OW16527   8.430   5.549   7.996  0.2966  0.3039 -0.3051
36812SOL    HW116528   8.455   5.635   8.031 -1.7153  0.6931  0.3702
36812SOL    HW216529   8.510   5.513   7.959  1.7658  1.4091  1.6108
36813SOL     OW16530   7.038   1.619   4.210  0.0597  0.1055  0.9486
36813SOL    HW116531   7.001   1.687   4.155  0.3948  0.9481  1.7302
36813SOL    HW216532   7.127   1.648   4.227  0.5843 -1.1130  0.3675
36814SOL     OW16533   0.744   2.120   7.467  0.0644  0.6122  0.1085
36814SOL    HW116534   0.801   2.178   7.415 -0.0538 -0.9177 -1.8213
36814SOL    HW216535   0.664   2.113   7.416 -1.0598  1.0089  1.7482
36815SOL     OW16536  10.602   2.081  10.278  0.1033 -0.8180  0.4917
36815SOL    HW116537  10.645   1.997  10.264 -0.8277 -1.7364  2.6788
36815SOL    HW216538  10.672   2.139  10.310  0.2977 -1.4835  1.3043
36816SOL     OW16539   7.473   5.073   7.919  0.3628 -0.8340  0.3611
36816SOL    HW116540   7.489   5.088   8.012  0.2453 -0.8632  0.3863
36816SOL    HW216541   7.450   4.981   7.913  1.9648 -1.2507  0.0833
36817SOL     OW16542   1.725  10.010   2.850  0.1493 -0.1679 -0.2790
36817SOL    HW116543   1.690  10.098   2.862  0.8007  0.0055  0.3780
36817SOL    HW216544   1.652   9.952   2.869  0.2021  0.1910  1.0923
36818SOL     OW16545   5.560   6.444   5.452  0.1179  0.4862  0.5545
36818SOL    HW116546   5.625   6.375   5.437  0.2034  0.6730  0.0652
36818SOL    HW216547   5.559   6.455   5.547 -0.6009 -0.8596  0.7271
36819SOL     OW16548   0.336   5.378   0.693 -0.6463 -0.1580 -0.6561
36819SOL    HW116549   0.298   5.443   0.633 -1.4442 -0.9089 -0.9829
36819SOL    HW216550   0.285   5.388   0.773  1.1444  1.6272  0.3604
36820SOL     OW16551   6.619   7.134   9.499 -0.7556  0.0248  0.2860
36820SOL    HW116552   6.588   7.095   9.417 -1.7756 -0.3271  0.8255
36820SOL    HW216553   6.653   7.219   9.473 -0.8872 -0.1584 -0.5303
36821SOL     OW16554   2.226   1.570   6.530  0.4200  0.4161 -0.1494
36821SOL    HW116555   2.238   1.476   6.537 -0.1374  0.4290  1.4168
36821SOL    HW216556   2.301   1.601   6.479  0.8971 -0.7954 -0.2021
36822SOL     OW16557   3.495   3.502   1.197 -0.3831 -0.6042 -0.1467
36822SOL    HW116558   3.499   3.532   1.288 -0.9225 -0.7240 -0.0781
36822SOL    HW216559   3.488   3.583   1.146  2.2908 -0.3748 -0.2792
36823SOL     OW16560   0.087   0.956   3.305  0.0987 -0.2594  0.3061
36823SOL    HW116561   0.110   0.957   3.398 -2.8050  1.5647  1.1341
36823SOL    HW216562   0.011   0.898   3.299 -0.2058  0.2183 -0.7660
36824SOL     OW16563   1.748   8.868   0.453  0.5777 -0.2987  0.2787
36824SOL    HW116564   1.772   8.785   0.412 -1.7468 -0.5001 -0.8414
36824SOL    HW216565   1.683   8.844   0.519 -0.9238  0.6658 -0.7810
36825SOL     OW16566   5.104   7.371   3.079 -0.1354  0.0489  0.3121
36825SOL    HW116567   5.121   7.278   3.066  0.8605  0.0419  1.4486
36825SOL    HW216568   5.016   7.385   3.043 -0.3317 -1.3441  0.1949
36826SOL     OW16569   8.552   9.049   1.660 -0.5513  0.6330 -0.2993
36826SOL    HW116570   8.559   9.132   1.614  0.5695  0.8998  0.2956
36826SOL    HW216571   8.513   9.071   1.745 -1.0053  0.4203 -0.4515
36827SOL     OW16572   0.729   1.289   4.536 -0.0356 -0.0204 -0.0547
36827SOL    HW116573   0.684   1.236   4.602  0.5548  0.5883  0.8594
36827SOL    HW216574   0.817   1.253   4.532 -0.1105 -0.1482 -0.6323
36828SOL     OW16575   9.593   0.436   8.294  0.2751  0.4715  0.4465
36828SOL    HW116576   9.526   0.496   8.259  0.6625  0.9617  0.5237
36828SOL    HW216577   9.643   0.409   8.216 -0.5229 -0.5560  0.2772
36829SOL     OW16578  10.378   8.202   2.516 -0.2972  0.5250  0.0578
36829SOL    HW116579  10.342   8.132   2.571 -2.3647  1.6892  0.2599
36829SOL    HW216580  10.400   8.158   2.434  1.8590 -1.0362  1.3634
36830SOL     OW16581   5.882   9.249   6.055 -0.1299 -0.3169  0.5557
36830SOL    HW116582   5.809   9.310   6.048  0.0832  0.0038  1.0422
36830SOL    HW216583   5.910   9.233   5.965  0.5121  1.1517  0.4682
36831SOL     OW16584   9.527   0.414   0.575  0.5582  0.2566  0.2692
36831SOL    HW116585   9.517   0.462   0.657  0.9035 -0.9477  1.0401
36831SOL    HW216586   9.522   0.481   0.507  0.8073  1.3456  1.2969
36832SOL     OW16587   4.185   9.864   8.095  0.1467 -0.2912 -0.3223
36832SOL    HW116588   4.249   9.926   8.132  0.8447 -0.4996 -1.1599
36832SOL    HW216589   4.151   9.908   8.018 -0.8166 -0.1446  0.1669
36833SOL     OW16590   3.491   6.754   0.349 -0.2438  0.0269 -0.0666
36833SOL    HW116591   3.411   6.749   0.297 -0.9725  0.2959  0.9893
36833SOL    HW216592   3.476   6.826   0.410 -0.0336 -1.1923  1.4965
36834SOL     OW16593   1.635   0.869   6.441 -0.1591  0.3801  0.4765
36834SOL    HW116594   1.705   0.927   6.472  0.6724 -0.1707 -0.3070
36834SOL    HW216595   1.643   0.870   6.345  1.1226 -2.4242  0.4419
36835SOL     OW16596   4.633   0.500  10.641  0.1894  0.1062 -0.2391
36835SOL    HW116597   4.674   0.545  10.568  0.1193 -0.6274 -0.7403
36835SOL    HW216598   4.645   0.407  10.622 -1.0342 -0.1146 -0.0121
36836SOL     OW16599  10.278   2.977   8.471 -0.2444 -0.0178 -0.3835
36836SOL    HW116600  10.310   3.027   8.396  1.4024  0.7631  0.7988
36836SOL    HW216601  10.253   2.892   8.434 -0.9318  0.8631 -2.0503
36837SOL     OW16602   9.871   1.432   0.729 -0.7995 -0.5852  0.0206
36837SOL    HW116603   9.959   1.465   0.713 -1.2857  0.1854 -1.1444
36837SOL    HW216604   9.816   1.510   0.734 -1.5474 -1.0972 -0.0677
36838SOL     OW16605   2.084   0.187   7.285 -0.2847  0.1426  0.9057
36838SOL    HW116606   2.081   0.218   7.195 -0.0512 -0.1878  0.7801
36838SOL    HW216607   2.025   0.111   7.287 -0.2969  0.1542  1.0332
36839SOL     OW16608   6.794   1.478   0.697  0.3939 -0.1845  0.0291
36839SOL    HW116609   6.743   1.399   0.715 -1.0107  0.4825 -0.8262
36839SOL    HW216610   6.739   1.550   0.729  1.4013  0.4948  0.2965
36840SOL     OW16611   4.172   3.853   0.486 -0.4159 -0.3384  0.2048
36840SOL    HW116612   4.134   3.933   0.450 -0.4772  0.3633  1.7980
36840SOL    HW216613   4.258   3.847   0.444  0.0340  1.1399  0.8594
36841SOL     OW16614   2.629   6.593   9.138 -0.1041  0.2315 -0.2245
36841SOL    HW116615   2.700   6.545   9.180 -0.3656  0.2251  0.2086
36841SOL    HW216616   2.555   6.533   9.139 -0.6134  0.8436  0.8705
36842SOL     OW16617   3.051   7.908   1.581  0.0022 -0.1169  0.1203
36842SOL    HW116618   3.052   7.821   1.540  1.7208 -1.2205  2.3259
36842SOL    HW216619   3.011   7.894   1.666  2.2596  0.7647  1.4014
36843SOL     OW16620   2.932   6.606   1.307  0.0457 -0.3241  0.4111
36843SOL    HW116621   3.003   6.645   1.256 -0.4361  0.0464  0.0067
36843SOL    HW216622   2.897   6.537   1.250  0.1028 -0.5283  0.6235
36844SOL     OW16623   9.142   2.136   3.423 -0.6335 -0.9040  0.0867
36844SOL    HW116624   9.196   2.070   3.380  0.6222 -0.4712  0.9203
36844SOL    HW216625   9.169   2.133   3.515  1.0402  2.1296 -0.1523
36845SOL     OW16626   4.676   9.414   5.009  0.0655 -0.3103  0.5655
36845SOL    HW116627   4.687   9.336   5.064 -0.8730 -1.1292 -0.3737
36845SOL    HW216628   4.642   9.380   4.927  1.8556  0.8348 -0.7224
36846SOL     OW16629   6.417   0.323   2.378 -0.1412  0.4198 -0.2120
36846SOL    HW116630   6.496   0.356   2.334 -1.0432  0.6719 -1.7277
36846SOL    HW216631   6.443   0.313   2.469  1.7841  0.0300 -0.7501
36847SOL     OW16632   7.600   8.310   0.157  0.3339 -0.3262  0.5207
36847SOL    HW116633   7.669   8.311   0.090 -0.3268 -2.0238 -0.2384
36847SOL    HW216634   7.550   8.390   0.140  0.5336 -0.4282 -0.6525
36848SOL     OW16635   4.727   2.450  10.651  0.1189 -0.0447  0.1474
36848SOL    HW116636   4.731   2.529  10.598  1.0559  0.7979  1.4225
36848SOL    HW216637   4.657   2.467  10.714  0.8611  0.1180  0.9441
36849SOL     OW16638   6.620   8.953   1.239  0.1740 -0.1387  0.7293
36849SOL    HW116639   6.573   8.870   1.240  1.7255 -1.1189 -1.4648
36849SOL    HW216640   6.603   8.990   1.153  1.4432  0.6480  0.7853
36850SOL     OW16641   1.627   8.962   3.336  0.2224  0.3616  0.4311
36850SOL    HW116642   1.692   8.908   3.290  2.2610  1.3709  1.9730
36850SOL    HW216643   1.601   8.909   3.411 -0.8401 -0.0552 -0.2019
36851SOL     OW16644   4.600   1.023  10.865 -0.3915  0.5338 -0.3473
36851SOL    HW116645   4.665   0.952  10.854  1.3355  2.2842 -2.2632
36851SOL    HW216646   4.613   1.052  10.956  0.3824 -0.1883 -0.2049
36852SOL     OW16647  10.392   9.274   6.498 -0.3915 -0.3083  0.4910
36852SOL    HW116648  10.462   9.323   6.454 -0.4025 -0.0901  0.7115
36852SOL    HW216649  10.335   9.245   6.427 -2.2453  2.7988  0.5136
36853SOL     OW16650  10.026   9.192   8.994 -0.2825 -0.0196 -0.1649
36853SOL    HW116651  10.070   9.134   8.933 -1.7881  0.0171 -1.3257
36853SOL    HW216652   9.994   9.134   9.064 -0.2714 -0.3353 -0.4206
36854SOL     OW16653   1.469   0.878   3.648 -0.5945 -0.1303 -0.1045
36854SOL    HW116654   1.421   0.954   3.614  1.7984  1.5923  0.0529
36854SOL    HW216655   1.521   0.914   3.720  1.5671 -1.6113 -0.8204
36855SOL     OW16656   3.793  10.404   9.035 -0.2196  1.0035 -0.0856
36855SOL    HW116657   3.783  10.355   9.116  1.8231  1.3758  0.4519
36855SOL    HW216658   3.879  10.379   9.002 -0.6741  1.4633 -1.7471
36856SOL     OW16659   0.970   9.069   6.725 -0.4921  0.1448  0.2526
36856SOL    HW116660   0.917   8.993   6.749 -0.2299  0.1442  0.8409
36856SOL    HW216661   1.060   9.042   6.742 -0.4869  1.0380  1.7284
36857SOL     OW16662   2.175   2.764   8.767  0.2857 -0.2639 -0.0986
36857SOL    HW116663   2.256   2.804   8.797  0.0659  0.7950 -0.8343
36857SOL    HW216664   2.132   2.733   8.846  1.5711 -1.1856  0.2654
36858SOL     OW16665   8.849   9.907   8.905 -0.0575 -0.2891  0.1634
36858SOL    HW116666   8.863   9.952   8.821 -0.4976  0.4992  0.5074
36858SOL    HW216667   8.757   9.880   8.902 -0.3871  0.7238  0.8536
36859SOL     OW16668   1.909  10.623   9.703  0.2509  0.8119  0.4627
36859SOL    HW116669   1.958  10.555   9.658  0.3622 -0.0307  1.8070
36859SOL    HW216670   1.976  10.680   9.741  0.1759  0.5805  0.9434
36860SOL     OW16671   4.584   6.615   3.830 -0.1567  0.6222  0.2184
36860SOL    HW116672   4.555   6.639   3.742  0.7728  2.6312  0.4148
36860SOL    HW216673   4.580   6.519   3.831 -4.2265  0.6058 -0.6022
36861SOL     OW16674   8.404   0.408   5.294 -0.9070 -0.5678 -0.0508
36861SOL    HW116675   8.359   0.380   5.374  0.6802 -1.3898  0.6023
36861SOL    HW216676   8.361   0.490   5.270 -2.3684 -1.0368  0.8280
36862SOL     OW16677   9.832   3.212   4.805 -0.0378 -0.2705 -0.2315
36862SOL    HW116678   9.861   3.296   4.839 -1.1042  0.4809 -1.1190
36862SOL    HW216679   9.811   3.229   4.713  0.2573 -1.6390 -0.5865
36863SOL     OW16680   4.337   8.756   9.013  0.6046  0.0551 -0.2914
36863SOL    HW116681   4.279   8.807   8.958 -1.6155  0.0772  1.8764
36863SOL    HW216682   4.326   8.666   8.984 -1.9346 -0.1773  1.0965
36864SOL     OW16683   3.670   0.832   1.911  0.5636 -0.3073 -0.4154
36864SOL    HW116684   3.657   0.927   1.911  0.6981 -0.2801 -1.0714
36864SOL    HW216685   3.635   0.802   1.995 -0.4242  0.2066 -0.6284
36865SOL     OW16686   6.173   1.432   6.934 -0.5132  0.0304  0.0180
36865SOL    HW116687   6.081   1.427   6.908 -0.6346  0.9772  0.2372
36865SOL    HW216688   6.200   1.521   6.910 -0.1251  0.3361  1.4861
36866SOL     OW16689   7.290   0.894   6.132 -0.1816  0.1588 -0.3667
36866SOL    HW116690   7.294   0.946   6.212 -0.7970  0.0166 -0.2328
36866SOL    HW216691   7.315   0.806   6.159 -0.3496  0.1194 -0.3410
36867SOL     OW16692   1.916   5.639   3.406  0.3999 -0.0442  0.6760
36867SOL    HW116693   1.978   5.712   3.417 -0.3415  0.3105  2.7979
36867SOL    HW216694   1.952   5.568   3.459 -0.6950 -0.0231  1.4701
36868SOL     OW16695   5.468   4.703   6.794  0.5288  0.1873  0.3222
36868SOL    HW116696   5.439   4.638   6.858 -2.1424 -1.3169 -2.1650
36868SOL    HW216697   5.542   4.662   6.749 -0.2508 -0.5762 -0.2914
36869SOL     OW16698   7.375   2.677   4.115  0.1091  0.3622  0.1263
36869SOL    HW116699   7.433   2.683   4.192  0.4995  2.1179 -0.2608
36869SOL    HW216700   7.427   2.715   4.044 -0.6772 -0.2034 -0.7622
36870SOL     OW16701   9.391   2.751   5.723 -0.4636  0.0804  0.1469
36870SOL    HW116702   9.474   2.713   5.750 -0.8840 -1.6489 -0.8391
36870SOL    HW216703   9.415   2.813   5.653 -0.0404 -0.9443 -0.6424
36871SOL     OW16704   1.357   2.494   5.898 -0.0568 -0.0399 -0.2375
36871SOL    HW116705   1.398   2.446   5.826  0.8954  1.0760 -0.4747
36871SOL    HW216706   1.301   2.559   5.854 -0.2817 -0.0393  0.0472
36872SOL     OW16707   1.564   2.191   7.444  0.1843  0.3648  0.5865
36872SOL    HW116708   1.568   2.285   7.428 -1.2139  0.0559 -2.0738
36872SOL    HW216709   1.470   2.171   7.450  0.2614 -1.1859 -1.7621
36873SOL     OW16710   7.446   7.440   7.031 -0.1612  0.1707  0.2527
36873SOL    HW116711   7.357   7.443   6.996 -0.3354 -1.2082  0.5079
36873SOL    HW216712   7.444   7.499   7.107 -0.5656  0.9404 -0.3493
36874SOL     OW16713   5.125   6.574   1.339 -0.3073 -0.0241  0.2171
36874SOL    HW116714   5.210   6.593   1.380 -0.4515  1.8149 -0.2482
36874SOL    HW216715   5.147   6.551   1.249 -0.2981  0.8802 -0.0262
36875SOL     OW16716   9.598   6.244   4.773  0.0380  0.9218  0.3683
36875SOL    HW116717   9.674   6.247   4.832  0.9580  0.9955 -0.7899
36875SOL    HW216718   9.604   6.325   4.722  0.2309  0.0842 -0.9810
36876SOL     OW16719   1.198   2.017   5.917 -0.0431  0.2164  0.0671
36876SOL    HW116720   1.161   2.063   5.842 -0.6650 -0.1133  0.1631
36876SOL    HW216721   1.278   2.065   5.939 -0.7316  1.3061  0.2354
36877SOL     OW16722   7.783   9.685   9.583 -0.1683 -0.4407  0.0348
36877SOL    HW116723   7.788   9.754   9.648 -0.9240 -0.4266  0.0828
36877SOL    HW216724   7.723   9.620   9.620 -0.1626 -0.7016 -0.3941
36878SOL     OW16725   4.708   7.760   3.557 -0.3002  0.7280  0.8485
36878SOL    HW116726   4.710   7.845   3.601 -0.9684  0.8417  0.6817
36878SOL    HW216727   4.701   7.782   3.464  3.6866  0.5392  0.3548
36879SOL     OW16728   5.072   6.836   0.965  0.1694 -0.0739 -0.6283
36879SOL    HW116729   5.049   6.883   0.885  0.0387 -0.7734 -1.0157
36879SOL    HW216730   5.167   6.829   0.963  0.3041  1.2676  0.0749
36880SOL     OW16731   7.071   5.973   3.390 -0.3364  0.4606 -0.3504
36880SOL    HW116732   7.016   6.017   3.325 -0.0008 -0.4326 -1.2616
36880SOL    HW216733   7.159   5.975   3.353  0.2768  1.7974  1.0568
36881SOL     OW16734   0.868   4.762  10.291 -0.0958 -0.5137 -0.1023
36881SOL    HW116735   0.923   4.689  10.264 -1.7381 -1.8068 -0.1470
36881SOL    HW216736   0.819   4.787  10.212  1.4505  1.6463 -0.4665
36882SOL     OW16737   5.614   8.245   9.341  0.2381 -0.2914  0.9382
36882SOL    HW116738   5.663   8.318   9.303 -1.3797  0.7309  0.7394
36882SOL    HW216739   5.672   8.211   9.409  0.9069  1.3986  1.2792
36883SOL     OW16740   2.587   1.946  10.131 -0.1260  0.6810  0.3382
36883SOL    HW116741   2.643   1.984  10.063  0.2815 -0.0449  0.2552
36883SOL    HW216742   2.646   1.892  10.183 -0.4236  1.2897  1.3261
36884SOL     OW16743   7.006   6.659   5.621 -0.0237  0.5112  0.0925
36884SOL    HW116744   6.967   6.600   5.686  1.4368 -4.0303 -2.6679
36884SOL    HW216745   7.084   6.694   5.664 -0.8435  0.3193  1.8155
36885SOL     OW16746   6.041   8.058   4.639 -0.4493 -0.0214  0.1696
36885SOL    HW116747   6.074   8.146   4.620  2.1872 -0.8271  0.4948
36885SOL    HW216748   6.046   8.013   4.554  0.5065 -0.4701  0.4427
36886SOL     OW16749   0.661  10.513   3.658 -0.2273 -0.1219  0.3026
36886SOL    HW116750   0.656  10.607   3.677  0.8925 -0.2718  1.4173
36886SOL    HW216751   0.631  10.471   3.738 -0.6426 -0.7377 -0.1660
36887SOL     OW16752   3.140   3.336   6.012  0.3945  0.6739  0.0557
36887SOL    HW116753   3.231   3.363   6.017 -0.1460  3.0010 -1.1812
36887SOL    HW216754   3.090   3.416   6.030 -1.4434 -0.7480  1.7118
36888SOL     OW16755   4.073   9.530  10.818  0.7148 -0.0081  0.3064
36888SOL    HW116756   4.145   9.480  10.856  1.3859  0.8371  0.1830
36888SOL    HW216757   4.012   9.545  10.891  1.5657  0.8446  0.8616
36889SOL     OW16758   2.033   7.990   7.413 -0.3285  0.4036  0.3131
36889SOL    HW116759   1.987   8.055   7.465  0.8232 -0.4422  2.5004
36889SOL    HW216760   2.062   7.924   7.476  0.8573 -0.8603 -1.4494
36890SOL     OW16761   1.496   0.571   5.929 -0.0398 -0.4131 -0.3911
36890SOL    HW116762   1.589   0.582   5.948  0.0039 -1.0258 -0.2352
36890SOL    HW216763   1.494   0.499   5.866 -0.2772  0.7138 -1.7196
36891SOL     OW16764   3.056   1.430   7.946  0.2965 -0.2440 -0.1851
36891SOL    HW116765   3.113   1.488   7.897 -0.0313  0.3795  0.1535
36891SOL    HW216766   3.020   1.485   8.016  0.3187 -0.9670  0.4062
36892SOL     OW16767   4.019   9.358   2.316  0.4852 -0.1417  0.3546
36892SOL    HW116768   3.928   9.329   2.314  0.3334  0.2624  1.1743
36892SOL    HW216769   4.020   9.432   2.376  1.6554 -1.2229  1.7549
36893SOL     OW16770   8.477   8.644   9.410  0.4620 -0.0446  0.0075
36893SOL    HW116771   8.525   8.643   9.327 -0.7535  1.2403 -0.7577
36893SOL    HW216772   8.540   8.678   9.474  1.3222 -0.7766 -0.4283
36894SOL     OW16773   8.477   7.023   4.107 -0.9889 -0.2174  0.9437
36894SOL    HW116774   8.563   7.008   4.146 -1.5582 -0.6272  2.0919
36894SOL    HW216775   8.493   7.089   4.039  0.9023 -2.8980 -1.4907
36895SOL     OW16776   7.005   8.692   7.577  0.1819  0.2257 -0.5925
36895SOL    HW116777   7.023   8.758   7.510  2.2397  0.7545  0.3816
36895SOL    HW216778   7.068   8.622   7.559  0.3660  0.1122  0.4308
36896SOL     OW16779   7.424   6.386   1.859  0.0657  0.5543 -0.2253
36896SOL    HW116780   7.384   6.472   1.870 -1.7559 -0.0541 -1.6210
36896SOL    HW216781   7.351   6.328   1.838  1.3445 -1.2027 -0.0417
36897SOL     OW16782   5.047   5.752   8.881 -0.3974 -0.1927  0.5230
36897SOL    HW116783   4.978   5.686   8.873 -0.8119  0.1953  0.8540
36897SOL    HW216784   5.000   5.835   8.895  0.0659  0.4359 -1.4060
36898SOL     OW16785   7.227   7.412   4.493  0.2295  0.2333  0.5156
36898SOL    HW116786   7.246   7.495   4.448 -0.5345  0.1922  0.0983
36898SOL    HW216787   7.169   7.365   4.432 -2.1270  0.8225  2.1557
36899SOL     OW16788   5.904   7.618   5.092  0.1143 -0.0814 -0.4079
36899SOL    HW116789   5.882   7.544   5.147 -0.8127  1.0150  0.7585
36899SOL    HW216790   5.907   7.583   5.003 -0.3009 -1.4954  0.1225
36900SOL     OW16791   3.512   4.760   8.402 -0.3707  0.4622  0.2580
36900SOL    HW116792   3.571   4.818   8.354 -0.1034  0.3327  0.4248
36900SOL    HW216793   3.455   4.722   8.335 -0.3562  0.6962  0.1135
36901SOL     OW16794   8.231   1.687   2.103 -0.2172  0.1520 -0.8647
36901SOL    HW116795   8.287   1.743   2.049 -0.1092  1.0827  0.1766
36901SOL    HW216796   8.247   1.599   2.071  0.8133  0.5531 -1.4873
36902SOL     OW16797   7.926  10.544   6.927 -0.2989  0.0065 -0.0021
36902SOL    HW116798   7.964  10.461   6.954  0.1492 -0.5460 -2.1757
36902SOL    HW216799   7.913  10.592   7.009  0.4110 -1.7696  1.2049
36903SOL     OW16800   1.928   4.017   6.357  0.0526  0.1891  0.3139
36903SOL    HW116801   1.935   4.087   6.421 -0.4912  1.5961 -1.1138
36903SOL    HW216802   1.884   3.946   6.404  0.8535  0.6655  1.8615
36904SOL     OW16803   7.002   9.427   3.190  0.0936  0.2757 -0.3493
36904SOL    HW116804   7.066   9.358   3.210 -1.7341 -1.7286 -1.0101
36904SOL    HW216805   7.026   9.499   3.248  1.7620 -1.0988  0.7966
36905SOL     OW16806   8.828   1.355   1.249 -0.2136 -0.0980  1.1201
36905SOL    HW116807   8.803   1.437   1.207  1.4429 -0.0641  0.1078
36905SOL    HW216808   8.746   1.305   1.255 -0.7232  0.3186 -1.2638
36906SOL     OW16809  10.235   1.427   1.228 -0.1756 -0.3800 -0.7174
36906SOL    HW116810  10.204   1.488   1.294 -1.8244 -1.1850 -0.7078
36906SOL    HW216811  10.163   1.421   1.165  0.6725 -0.9406 -1.6640
36907SOL     OW16812   7.710   0.014   2.956  0.0695  0.0401  0.6282
36907SOL    HW116813   7.719   0.057   2.871  0.8274 -0.3343  0.5089
36907SOL    HW216814   7.744  -0.074   2.942  0.8684  0.1927  1.4896
36908SOL     OW16815   1.512   2.002   5.685 -0.1758  0.0820  0.0073
36908SOL    HW116816   1.589   2.023   5.738  0.3276 -0.3464 -0.5428
36908SOL    HW216817   1.467   1.934   5.735  1.5233 -2.0037 -1.1512
36909SOL     OW16818   4.844   4.616   8.503  0.1406 -0.1951  0.2367
36909SOL    HW116819   4.820   4.584   8.590  1.0039 -1.2779  0.0890
36909SOL    HW216820   4.848   4.711   8.513  0.2756 -0.3087  1.3826
36910SOL     OW16821   7.915   0.209   7.920 -0.4899 -0.0617  0.2001
36910SOL    HW116822   7.830   0.242   7.948 -0.9624 -1.5531  0.6432
36910SOL    HW216823   7.905   0.191   7.827 -0.5393  0.1233  0.1699
36911SOL     OW16824   9.428   1.529   4.821  0.1366 -0.3799  0.1044
36911SOL    HW116825   9.353   1.588   4.831  0.0576 -0.5867  0.7722
36911SOL    HW216826   9.495   1.582   4.779  0.6309  0.6609  2.1258
36912SOL     OW16827   8.671   5.284   1.878  0.1856 -0.2877  0.1021
36912SOL    HW116828   8.632   5.285   1.791  0.0666  0.8990  0.1594
36912SOL    HW216829   8.609   5.332   1.933  1.2811  0.8844  0.3730
36913SOL     OW16830   6.289   9.578   1.974  0.0649  0.0618 -0.2127
36913SOL    HW116831   6.292   9.493   2.018  2.2439 -0.3626 -1.0366
36913SOL    HW216832   6.381   9.600   1.961 -0.4637  2.4169 -0.3200
36914SOL     OW16833   1.746   3.067   6.544  0.4446 -0.9152 -0.2516
36914SOL    HW116834   1.808   3.089   6.473  0.0823  1.2795  0.0255
36914SOL    HW216835   1.800   3.023   6.610  2.1200  2.0022  0.5260
36915SOL     OW16836   8.082   0.610   1.143 -0.1881  0.7236 -0.3964
36915SOL    HW116837   8.045   0.548   1.206 -1.0037  1.7669  0.1757
36915SOL    HW216838   8.095   0.558   1.063 -0.8243 -0.1908  0.0801
36916SOL     OW16839   4.319   2.688   5.638  0.4013  0.4092 -0.4786
36916SOL    HW116840   4.385   2.757   5.629 -0.1733  0.9753 -0.4387
36916SOL    HW216841   4.365   2.608   5.614  1.2741  0.7035  0.1650
36917SOL     OW16842   0.937   2.034   0.782  0.3553 -0.8660 -0.0139
36917SOL    HW116843   0.966   2.023   0.691  0.4374 -1.2850  0.0620
36917SOL    HW216844   0.858   1.981   0.789 -1.0110  0.9972 -0.4750
36918SOL     OW16845   1.381  10.783   3.513 -0.1214  0.0939 -0.3359
36918SOL    HW116846   1.329  10.795   3.593 -2.0801 -2.5387 -1.0845
36918SOL    HW216847   1.335  10.834   3.446 -0.1605 -0.0384 -0.4101
36919SOL     OW16848   9.542  10.120   7.465 -0.0705 -0.3934  0.0228
36919SOL    HW116849   9.588  10.137   7.548  2.0529 -1.2950 -0.8853
36919SOL    HW216850   9.551  10.201   7.415  1.5419 -0.8791 -0.5469
36920SOL     OW16851  10.597   7.069   6.141 -0.1965  0.3823  0.1513
36920SOL    HW116852  10.656   7.133   6.180  0.9090 -0.0279 -0.7801
36920SOL    HW216853  10.653   6.994   6.120 -0.6375  0.6933 -2.4486
36921SOL     OW16854   5.608   6.897   0.689 -0.0629  0.0086  0.2759
36921SOL    HW116855   5.557   6.977   0.697 -0.1777  0.1224 -1.3218
36921SOL    HW216856   5.668   6.913   0.617  1.6478 -0.4585  1.5291
36922SOL     OW16857   4.272   1.690  10.911 -0.8398 -0.1886 -0.3453
36922SOL    HW116858   4.262   1.595  10.909 -1.6065 -0.1619  0.8443
36922SOL    HW216859   4.320   1.711  10.831 -2.5794 -1.3506 -1.7696
36923SOL     OW16860   7.315   1.903   5.869  0.1336 -0.2841 -0.4240
36923SOL    HW116861   7.347   1.832   5.925 -0.2748 -0.7857 -0.8097
36923SOL    HW216862   7.385   1.918   5.807  0.7600  0.5612  0.4733
36924SOL     OW16863   3.866   7.956  10.670 -0.2921 -0.5528  0.4306
36924SOL    HW116864   3.893   8.037  10.713 -1.7237  0.0592  0.2529
36924SOL    HW216865   3.905   7.886  10.723 -2.3676  0.1538  3.1162
36925SOL     OW16866   8.635  10.810   6.747 -0.1759  0.0879  0.5810
36925SOL    HW116867   8.703  10.746   6.726 -0.9359 -0.6261  0.1943
36925SOL    HW216868   8.599  10.835   6.661 -0.8040 -0.0168  0.8054
36926SOL     OW16869   8.724   6.321   4.749 -0.2246  0.2604  0.1156
36926SOL    HW116870   8.669   6.378   4.802  0.5729  1.7207 -0.5552
36926SOL    HW216871   8.795   6.295   4.808 -2.1122 -2.5918  1.3497
36927SOL     OW16872   1.347   6.421   1.053  0.1192  0.2668 -0.2243
36927SOL    HW116873   1.383   6.377   0.976  0.6523  0.0957  0.1107
36927SOL    HW216874   1.265   6.460   1.023 -0.8162 -1.6903 -0.3116
36928SOL     OW16875  10.902   5.295   8.276  0.1955 -0.1782 -0.3933
36928SOL    HW116876  10.866   5.346   8.204  0.4506  0.0783 -0.3438
36928SOL    HW216877  10.827   5.251   8.315 -0.7531  3.2210  2.0600
36929SOL     OW16878   1.393   8.743   5.721 -0.1177 -0.5250 -0.0955
36929SOL    HW116879   1.464   8.783   5.771  0.1128  0.3405 -1.0803
36929SOL    HW216880   1.381   8.657   5.761 -1.5821  0.9653  3.0640
36930SOL     OW16881   3.016   4.980   3.502 -0.5022 -0.0173  0.4638
36930SOL    HW116882   3.038   5.032   3.579 -0.3714 -0.7464  0.9288
36930SOL    HW216883   2.933   5.016   3.472  0.4114  1.5793 -0.2503
36931SOL     OW16884   6.744   4.922   5.923 -0.5233  0.1698 -0.3264
36931SOL    HW116885   6.804   4.857   5.960  0.0039  2.1182  2.5696
36931SOL    HW216886   6.801   4.993   5.892 -1.1750  0.2064 -1.4895
36932SOL     OW16887   5.669   2.992  10.159  0.1021  0.0533  0.0374
36932SOL    HW116888   5.679   3.052  10.084 -0.8606  2.1546  1.4868
36932SOL    HW216889   5.651   2.907  10.119 -0.2658  1.0704 -2.1194
36933SOL     OW16890   9.904   1.063   3.176  0.0873  0.0311  0.3560
36933SOL    HW116891   9.928   0.970   3.180  0.4396  0.1096  0.0806
36933SOL    HW216892   9.984   1.109   3.203  0.3738  0.3110 -0.9035
36934SOL     OW16893   4.480   6.645   7.319 -0.0207  0.7519  0.3177
36934SOL    HW116894   4.452   6.648   7.411 -1.0775  3.9001  0.0246
36934SOL    HW216895   4.400   6.632   7.269  0.3007  0.8405 -0.2310
36935SOL     OW16896   1.396   3.497   5.174  0.2499  0.0213  0.3461
36935SOL    HW116897   1.437   3.543   5.246  0.1466 -0.0170  0.4308
36935SOL    HW216898   1.423   3.544   5.096 -0.0582  0.3725  0.4529
36936SOL     OW16899   2.338   4.404   2.181  0.4490 -0.3511 -0.3947
36936SOL    HW116900   2.289   4.339   2.131  0.6226 -0.7583 -0.0461
36936SOL    HW216901   2.276   4.436   2.246  0.9988 -1.8436  0.9223
36937SOL     OW16902   1.809   7.552   6.100 -0.1501 -0.2846 -0.1329
36937SOL    HW116903   1.754   7.493   6.048  1.4192 -0.3068 -1.8608
36937SOL    HW216904   1.755   7.630   6.113 -2.8871 -2.4304  3.4970
36938SOL     OW16905   3.170   2.601   5.604  0.5049 -0.0643  0.1963
36938SOL    HW116906   3.186   2.511   5.575 -2.6747 -0.2731 -1.4008
36938SOL    HW216907   3.257   2.636   5.622  1.9503 -3.0820 -0.2025
36939SOL     OW16908   8.505   8.951   5.943 -0.4537 -0.0618 -0.1752
36939SOL    HW116909   8.556   8.926   6.020  0.7455  0.2366 -0.8534
36939SOL    HW216910   8.414   8.934   5.968 -0.0159 -0.7768  0.9942
36940SOL     OW16911   2.925   4.711   3.517 -0.0134  0.5326 -0.7334
36940SOL    HW116912   2.854   4.707   3.453 -1.1945  0.7011  0.5211
36940SOL    HW216913   2.962   4.799   3.506 -2.2647  1.7808  0.8682
36941SOL     OW16914   2.214   7.233   4.727  0.0093  0.0620 -0.3107
36941SOL    HW116915   2.217   7.196   4.815  0.6907  0.8631  0.0217
36941SOL    HW216916   2.191   7.325   4.740  1.2378  0.4775 -0.8469
36942SOL     OW16917   3.892  10.446  10.204  0.4640 -0.5710 -0.4228
36942SOL    HW116918   3.973  10.396  10.219  0.5499 -0.1005  0.8306
36942SOL    HW216919   3.890  10.509  10.276 -0.9112 -0.4259 -0.5691
36943SOL     OW16920   5.479   7.488  10.797  0.8333  0.3418  1.0184
36943SOL    HW116921   5.408   7.502  10.859  1.6462  2.8803  1.4978
36943SOL    HW216922   5.436   7.453  10.719 -0.3292 -2.0083  2.5902
36944SOL     OW16923   3.377   6.737   0.658  0.5361 -0.4653  0.3711
36944SOL    HW116924   3.397   6.660   0.604  2.9646 -0.3964  1.0336
36944SOL    HW216925   3.308   6.783   0.611  1.2603 -1.3840 -1.6988
36945SOL     OW16926   1.068   8.758   6.760  0.1122  0.2618  0.4589
36945SOL    HW116927   1.143   8.782   6.813 -0.1022  1.5574  0.2257
36945SOL    HW216928   1.001   8.730   6.822  0.1559  0.9417  0.8232
36946SOL     OW16929   3.287   8.068   7.871 -0.0234 -0.1834  0.3111
36946SOL    HW116930   3.353   8.103   7.811 -0.8040 -2.8848 -2.3914
36946SOL    HW216931   3.204   8.086   7.829 -0.6992 -1.1090  1.1912
36947SOL     OW16932   4.958   3.912   1.906 -0.5909 -0.4509 -0.4891
36947SOL    HW116933   4.867   3.904   1.878 -0.2056 -1.1445 -1.6563
36947SOL    HW216934   5.003   3.842   1.858  0.3589 -0.8778  0.9714
36948SOL     OW16935   4.150   8.975  10.918  0.4606 -0.4671  0.0789
36948SOL    HW116936   4.106   8.892  10.937  0.2001 -1.3743 -3.6492
36948SOL    HW216937   4.079   9.037  10.905  0.5644 -0.2291  0.6431
36949SOL     OW16938   3.268   3.670  10.111  0.1537  1.0784 -0.1197
36949SOL    HW116939   3.235   3.688  10.199  1.1571  0.2324  0.4521
36949SOL    HW216940   3.254   3.576  10.100  2.0043  0.7638 -0.0013
36950SOL     OW16941   1.410   2.136   2.589  0.4007 -0.1791  0.1259
36950SOL    HW116942   1.461   2.173   2.518 -0.1646  1.4228  0.5184
36950SOL    HW216943   1.319   2.142   2.560  0.1757  0.3480  0.9017
36951SOL     OW16944   5.310   2.062   1.235 -0.4680 -0.1331  0.5883
36951SOL    HW116945   5.396   2.040   1.201 -0.0823  2.7991 -0.6262
36951SOL    HW216946   5.254   1.989   1.207  1.3341 -1.5012  0.3449
36952SOL     OW16947   5.299   2.206   0.936  0.7288  0.1195 -0.0844
36952SOL    HW116948   5.204   2.201   0.949  0.5485 -0.2180 -1.3692
36952SOL    HW216949   5.336   2.162   1.012 -0.0521  1.9339  1.4353
36953SOL     OW16950   6.877   8.913   7.649  0.3906 -0.0669 -0.5813
36953SOL    HW116951   6.886   8.908   7.554  0.4582  1.1818 -0.6534
36953SOL    HW216952   6.919   8.833   7.681 -1.6964 -1.7281 -1.6822
36954SOL     OW16953  10.746   4.645   6.567 -0.3085 -0.3759 -0.5310
36954SOL    HW116954  10.815   4.657   6.632 -0.2126  0.0410 -0.7063
36954SOL    HW216955  10.720   4.734   6.543 -0.7278 -0.5267 -0.6564
36955SOL     OW16956   9.107   1.738   1.060 -0.0321 -0.1207  0.1273
36955SOL    HW116957   9.180   1.799   1.047 -0.2252  0.1909  0.4578
36955SOL    HW216958   9.144   1.652   1.045 -0.0401  0.1551 -1.6023
36956SOL     OW16959   8.405   7.953  10.055  0.0347  0.0621  0.3617
36956SOL    HW116960   8.496   7.960  10.083  0.0163 -0.7027  0.6236
36956SOL    HW216961   8.368   8.039  10.073  1.0739  0.8699 -1.0950
36957SOL     OW16962   1.331   3.538   7.299  0.2142  0.0459 -0.9188
36957SOL    HW116963   1.419   3.516   7.331  0.7304 -0.0764 -2.3428
36957SOL    HW216964   1.346   3.606   7.234 -0.9945  1.6912  0.4514
36958SOL     OW16965   7.146   1.748   8.435 -0.0186 -0.6036 -0.0690
36958SOL    HW116966   7.086   1.822   8.440  0.4003 -0.2762  0.2107
36958SOL    HW216967   7.210   1.764   8.505  0.3131 -1.0172 -0.2710
36959SOL     OW16968   4.551   7.968   4.146  0.0798 -0.1909  0.3139
36959SOL    HW116969   4.529   7.988   4.055 -0.2423 -0.6937  0.2816
36959SOL    HW216970   4.477   8.002   4.197 -1.6943 -3.3519  0.0846
36960SOL     OW16971   7.773   1.660   2.507  0.0561 -0.0876 -0.4678
36960SOL    HW116972   7.805   1.623   2.425 -0.8438 -0.0745 -0.8391
36960SOL    HW216973   7.851   1.695   2.549  0.7073 -1.1239 -0.7716
36961SOL     OW16974  10.828   3.425   6.881  0.3221  0.5764 -0.4397
36961SOL    HW116975  10.788   3.341   6.903 -0.5596  0.8143 -1.0742
36961SOL    HW216976  10.782   3.453   6.801  0.6363  1.6353 -0.2626
36962SOL     OW16977   7.948   6.993   0.695  0.3601  0.2879  0.4185
36962SOL    HW116978   7.907   7.056   0.755  1.4118  0.2707  1.1873
36962SOL    HW216979   7.946   6.910   0.743 -2.8461 -0.8599 -1.3441
36963SOL     OW16980   4.673   2.678   9.636 -0.0128 -0.5050  0.2214
36963SOL    HW116981   4.696   2.748   9.575  0.9948 -0.9202  0.1012
36963SOL    HW216982   4.595   2.638   9.598 -0.2289  0.1493 -0.0386
36964SOL     OW16983   0.986   8.769  10.523  0.4721  0.2205 -0.1131
36964SOL    HW116984   1.003   8.855  10.563  1.4669 -1.1879  2.7941
36964SOL    HW216985   0.892   8.757  10.531  0.4203  0.7490  0.1035
36965SOL     OW16986   2.834   7.176   0.355  0.1588 -0.0324 -0.2394
36965SOL    HW116987   2.747   7.211   0.378 -0.6452 -0.7597 -1.9659
36965SOL    HW216988   2.852   7.213   0.269  1.6049  0.1416  0.1251
36966SOL     OW16989   0.863   3.639   4.353 -0.0784  0.3151 -0.6170
36966SOL    HW116990   0.882   3.606   4.441 -1.5291 -0.6159 -0.6349
36966SOL    HW216991   0.788   3.588   4.323  0.0855  0.9529 -2.2163
36967SOL     OW16992   6.500   5.352   9.945  0.6148  0.1632 -0.1673
36967SOL    HW116993   6.503   5.347   9.849  1.0064  0.1240 -0.1551
36967SOL    HW216994   6.584   5.391   9.969  0.0197  1.3243  0.0875
36968SOL     OW16995   6.689   7.497   4.256  0.2516  0.3374  0.0697
36968SOL    HW116996   6.735   7.575   4.224 -0.4186  0.7079 -0.0259
36968SOL    HW216997   6.739   7.469   4.333 -0.0481  1.4461  0.6872
36969SOL     OW16998   7.185   6.226   1.327  0.1861  0.0972 -0.0486
36969SOL    HW116999   7.193   6.245   1.420  0.9413 -0.3035 -0.0208
36969SOL    HW217000   7.092   6.206   1.314 -0.0214  0.6644  0.5109
36970SOL     OW17001   6.827  10.518   4.689 -0.6251 -0.0650 -0.1624
36970SOL    HW117002   6.812  10.460   4.614  1.2744  0.8327 -1.3090
36970SOL    HW217003   6.857  10.459   4.759 -0.3029 -0.6815 -0.7992
36971SOL     OW17004   6.655  10.166   4.163 -0.2833 -0.2895  0.0003
36971SOL    HW117005   6.736  10.158   4.112  0.6504 -0.5616  1.4438
36971SOL    HW217006   6.613  10.244   4.129  1.6476  1.0871  0.5659
36972SOL     OW17007  10.329   0.370   3.229  0.3786  0.0593 -0.7634
36972SOL    HW117008  10.263   0.438   3.216  0.8474  0.9655  1.1804
36972SOL    HW217009  10.329   0.321   3.147 -0.9779  1.5275 -1.7146
36973SOL     OW17010  10.391   2.757   2.581  0.2351  0.2930 -0.0736
36973SOL    HW117011  10.441   2.767   2.500  0.0726  2.1179  0.0175
36973SOL    HW217012  10.458   2.753   2.650  0.3161  0.9435 -0.1111
36974SOL     OW17013   3.746   6.704   4.311  0.3293 -0.0334  0.1224
36974SOL    HW117014   3.770   6.797   4.320  0.0447  0.1685 -0.9906
36974SOL    HW217015   3.829   6.660   4.290  0.5263 -0.0983  0.9940
36975SOL     OW17016   2.291   6.177   0.524 -0.4814  0.0440  0.3864
36975SOL    HW117017   2.280   6.204   0.615  2.3252  1.8595  0.3129
36975SOL    HW217018   2.314   6.084   0.529 -0.0796  0.1858  1.5721
36976SOL     OW17019   7.969   9.159   8.765 -0.3940  0.3760 -0.5508
36976SOL    HW117020   7.983   9.104   8.687  0.0208  0.9698 -0.9025
36976SOL    HW217021   8.057   9.174   8.799 -0.4430  1.3150 -0.8070
36977SOL     OW17022   8.638   5.392  10.786  0.1258  0.6553 -0.5452
36977SOL    HW117023   8.733   5.399  10.788  0.2499 -0.9074 -0.3380
36977SOL    HW217024   8.609   5.418  10.873  0.6623 -2.3934  0.6313
36978SOL     OW17025   5.782   5.141  10.099  0.1850 -0.0290 -0.1604
36978SOL    HW117026   5.816   5.105  10.181  3.2670  1.0683 -0.8074
36978SOL    HW217027   5.817   5.230  10.096 -0.7250  0.3228 -2.1918
36979SOL     OW17028   6.484  10.451   3.796  0.3591 -0.4355  0.1896
36979SOL    HW117029   6.441  10.415   3.874 -0.8453  1.2981  0.3908
36979SOL    HW217030   6.413  10.462   3.733 -0.4935  5.3757  1.5468
36980SOL     OW17031   9.985   5.228   8.033  0.0341  0.0106 -0.2099
36980SOL    HW117032  10.011   5.144   8.072 -0.3862  0.4604  1.0911
36980SOL    HW217033   9.980   5.288   8.107 -2.6009  0.4636 -0.6583
36981SOL     OW17034   4.493   3.638   9.407 -0.7126  0.6657  0.0003
36981SOL    HW117035   4.484   3.557   9.456  0.1185  0.4961 -0.1121
36981SOL    HW217036   4.573   3.678   9.441 -2.2855  2.5965  1.7031
36982SOL     OW17037   6.382   0.392   9.023 -1.0052 -0.5351 -0.1976
36982SOL    HW117038   6.351   0.330   8.956 -1.3088 -1.1091  0.4616
36982SOL    HW217039   6.471   0.414   8.996 -1.4753  0.0083 -1.3337
36983SOL     OW17040   9.613   5.732   9.133  0.6442 -0.3333  0.1069
36983SOL    HW117041   9.600   5.640   9.154  0.9366 -0.2110  0.8646
36983SOL    HW217042   9.664   5.731   9.052  0.3875 -0.8332 -0.0503
36984SOL     OW17043   5.651   5.648   6.994  0.1263  0.2230  0.5217
36984SOL    HW117044   5.740   5.640   7.030  0.5717 -1.1884 -0.8087
36984SOL    HW217045   5.664   5.665   6.901 -0.9027 -3.1888 -0.3909
36985SOL     OW17046   9.888   0.633   9.166  0.0277  0.7517 -0.1212
36985SOL    HW117047   9.905   0.541   9.144 -1.2044  0.7034 -0.9841
36985SOL    HW217048   9.974   0.669   9.184  0.4900 -0.7073  0.8027
36986SOL     OW17049   5.444   2.468   7.410  0.4879  0.0857 -0.1404
36986SOL    HW117050   5.399   2.519   7.478 -1.4710 -1.8392  0.1063
36986SOL    HW217051   5.375   2.417   7.368  2.0259 -0.6658 -1.9195
36987SOL     OW17052   8.399   3.008   1.590 -0.1533  0.6997 -0.5040
36987SOL    HW117053   8.360   2.997   1.503  2.3320  1.6766 -1.8328
36987SOL    HW217054   8.447   3.090   1.585  1.0639  0.1649  1.3983
36988SOL     OW17055   7.818   3.973   0.840  0.3423 -0.5916  0.3577
36988SOL    HW117056   7.788   3.887   0.813  0.5927 -0.7828  0.6776
36988SOL    HW217057   7.865   4.008   0.764 -0.8924 -0.1766 -0.2464
36989SOL     OW17058   4.900   8.311   4.867  0.2509 -0.1883  0.7859
36989SOL    HW117059   4.985   8.302   4.824 -0.6244 -0.0263 -1.1253
36989SOL    HW217060   4.889   8.230   4.916  0.9530 -0.7920 -0.0146
36990SOL     OW17061   4.096   7.901   0.686 -0.8230 -0.7485  0.4469
36990SOL    HW117062   4.165   7.953   0.643 -1.5811 -0.0793  0.0153
36990SOL    HW217063   4.123   7.897   0.777  0.0236 -0.8737  0.2013
36991SOL     OW17064  10.727   8.643   7.299 -0.5166  1.2082 -0.3791
36991SOL    HW117065  10.654   8.622   7.358  0.4995 -2.4142 -0.1297
36991SOL    HW217066  10.797   8.671   7.358 -0.3727  0.3481 -0.1262
36992SOL     OW17067  10.883   0.192   6.919 -0.2948  0.0163  0.0785
36992SOL    HW117068  10.949   0.261   6.911  0.4903 -0.6652  0.4411
36992SOL    HW217069  10.931   0.111   6.901 -1.2998 -0.4113 -0.8276
36993SOL     OW17070   9.604   2.207   0.777 -0.2069  0.6897  0.0976
36993SOL    HW117071   9.520   2.247   0.754 -0.2452 -0.5174 -2.2098
36993SOL    HW217072   9.669   2.270   0.746 -0.2453  1.1779  0.9877
36994SOL     OW17073  10.660   1.004   0.869 -0.1848 -0.1569 -0.5888
36994SOL    HW117074  10.693   1.072   0.809  0.6499 -0.2775 -0.2805
36994SOL    HW217075  10.624   1.054   0.943 -0.7932 -0.0212 -0.9668
36995SOL     OW17076   9.159   2.436   9.499  0.4180 -0.1426  0.2480
36995SOL    HW117077   9.150   2.510   9.439  1.9169 -2.0238 -2.5371
36995SOL    HW217078   9.238   2.455   9.549 -0.2185  0.9200  0.8954
36996SOL     OW17079   4.598   5.604   2.532  1.2212 -0.5558 -0.0715
36996SOL    HW117080   4.600   5.691   2.572 -1.5595  0.3337 -1.6307
36996SOL    HW217081   4.530   5.557   2.580  0.3021 -0.6620 -1.4481
36997SOL     OW17082  10.068   4.241   9.985 -0.6846  0.2610 -0.1045
36997SOL    HW117083   9.991   4.188  10.007 -0.4757 -0.4356 -1.0073
36997SOL    HW217084  10.132   4.220  10.053 -0.5979 -0.6816 -0.4577
36998SOL     OW17085   0.908   5.760   7.116 -0.3433  0.0506 -0.4737
36998SOL    HW117086   0.916   5.854   7.130 -3.3422  0.3113  0.0971
36998SOL    HW217087   0.857   5.751   7.035  0.1927 -1.1101 -0.7109
36999SOL     OW17088   7.062   6.276   5.382 -0.3502  0.3132  0.0898
36999SOL    HW117089   7.137   6.320   5.423 -0.3267  0.9785 -0.6548
36999SOL    HW217090   7.052   6.319   5.297 -0.8005 -0.6149 -0.3393
37000SOL     OW17091  10.274   9.061   5.173  0.1317  0.4505 -0.0010
37000SOL    HW117092  10.242   8.974   5.197  1.0692 -0.2697 -1.2176
37000SOL    HW217093  10.196   9.109   5.148 -0.2937 -0.4620 -0.5038
37001SOL     OW17094   1.315   3.129   5.271 -0.6940 -0.4552 -0.6687
37001SOL    HW117095   1.292   3.145   5.179 -2.2455 -0.6856 -0.3415
37001SOL    HW217096   1.233   3.139   5.318  0.2610  0.6049  0.8363
37002SOL     OW17097   4.197   0.952   4.531  0.4866  0.3037 -0.3048
37002SOL    HW117098   4.241   1.037   4.526  0.5827  0.1973 -1.7111
37002SOL    HW217099   4.269   0.889   4.544  0.7973  0.1415 -2.4915
37003SOL     OW17100   4.592   8.121   2.997  0.3715  0.0837 -0.4275
37003SOL    HW117101   4.612   8.214   3.004  0.1331  0.4059 -2.9297
37003SOL    HW217102   4.509   8.118   2.949 -0.5407 -1.4145  1.1373
37004SOL     OW17103  10.340  10.085   8.893 -0.4593  0.0823 -0.0533
37004SOL    HW117104  10.371  10.029   8.821 -1.4872 -1.2332  0.4867
37004SOL    HW217105  10.258  10.122   8.860  0.2425  1.3432 -0.4248
37005SOL     OW17106   7.691   9.591   4.777  0.5665 -0.1378 -0.2121
37005SOL    HW117107   7.769   9.549   4.739 -0.0848 -0.2726 -1.4723
37005SOL    HW217108   7.702   9.684   4.756  0.8241 -0.0196  0.4240
37006SOL     OW17109   1.342   3.542   4.567  0.5739 -0.3196  0.0834
37006SOL    HW117110   1.372   3.525   4.478  2.7111  0.8755  0.5083
37006SOL    HW217111   1.373   3.467   4.617 -1.9581 -1.7575 -0.3816
37007SOL     OW17112  10.898   6.531   0.843  0.7288  0.1441  0.4875
37007SOL    HW117113  10.967   6.550   0.906  1.3246  2.8725 -0.8504
37007SOL    HW217114  10.888   6.612   0.792 -0.6498 -1.4671 -2.0363
37008SOL     OW17115   8.759   6.226   4.140 -0.4677  0.0411 -0.0471
37008SOL    HW117116   8.847   6.238   4.105  0.4730 -2.3404  1.3136
37008SOL    HW217117   8.726   6.148   4.096 -1.5776  0.4015  0.1076
37009SOL     OW17118   9.624   6.425   7.283 -0.2360 -0.3202 -0.2462
37009SOL    HW117119   9.658   6.427   7.193 -0.0130  1.5547 -0.1666
37009SOL    HW217120   9.701   6.435   7.338 -0.5316  0.1244  0.0931
37010SOL     OW17121  10.089   4.872   3.499 -0.5035 -0.1626 -0.5475
37010SOL    HW117122  10.146   4.795   3.510  0.5553  0.5115 -1.1232
37010SOL    HW217123  10.053   4.862   3.411 -2.6171 -1.4216  0.3872
37011SOL     OW17124  10.391   5.394   8.343 -0.0277  0.4270  0.1752
37011SOL    HW117125  10.462   5.424   8.286  0.9060 -0.1623  0.9872
37011SOL    HW217126  10.347   5.325   8.293 -1.4981  2.3217 -1.2570
37012SOL     OW17127  10.448   0.506   4.433  0.0262 -0.1802  0.2268
37012SOL    HW117128  10.422   0.471   4.518  1.0054 -1.7162 -0.0781
37012SOL    HW217129  10.466   0.599   4.450  1.6806 -0.7635  2.0519
37013SOL     OW17130   5.258   0.627   0.707  0.3833 -0.2641  0.2543
37013SOL    HW117131   5.216   0.568   0.770  1.6293 -0.6132  0.7800
37013SOL    HW217132   5.350   0.628   0.733  0.1352  3.6162  1.6739
37014SOL     OW17133   2.707   3.251   8.368 -0.0475  0.5207  0.2480
37014SOL    HW117134   2.661   3.197   8.304 -1.3617  2.2854 -0.3759
37014SOL    HW217135   2.740   3.189   8.433 -2.0092 -0.9693 -0.1070
37015SOL     OW17136   9.022   3.537   1.062  0.0737  0.0147 -0.3642
37015SOL    HW117137   8.954   3.476   1.093  0.6471 -0.3888  0.1300
37015SOL    HW217138   8.981   3.585   0.990 -1.5590  1.4707  1.4406
37016SOL     OW17139   5.444   6.091   2.634  0.2857 -0.5711 -0.3084
37016SOL    HW117140   5.508   6.026   2.605 -0.1218 -0.5019 -1.4423
37016SOL    HW217141   5.400   6.118   2.553  0.6234  1.3087  0.0809
37017SOL     OW17142   7.193   2.945   0.913 -0.2095 -0.9608 -0.1473
37017SOL    HW117143   7.159   3.031   0.940  0.8142 -0.0252 -1.6685
37017SOL    HW217144   7.167   2.937   0.821  3.0281 -0.4536 -1.2157
37018SOL     OW17145   3.661   5.912   3.310 -0.2827  0.6493  0.0035
37018SOL    HW117146   3.583   5.871   3.271  0.3023 -0.1936 -0.2970
37018SOL    HW217147   3.626   5.963   3.383 -1.2428  1.1397 -0.7607
37019SOL     OW17148   4.443   3.970   4.451 -0.1266 -0.7910 -0.2908
37019SOL    HW117149   4.425   4.017   4.370 -0.3297 -1.2159 -0.4949
37019SOL    HW217150   4.365   3.918   4.466 -0.0795 -0.7292  0.1693
37020SOL     OW17151   0.234   5.861   5.938  0.0064  0.6668 -0.3144
37020SOL    HW117152   0.235   5.786   5.879 -0.5855  0.3271  0.0956
37020SOL    HW217153   0.320   5.859   5.980  0.1085  0.4016 -0.5337
37021SOL     OW17154   7.500   9.325   7.626  0.5164 -0.3640 -0.1352
37021SOL    HW117155   7.579   9.358   7.583  0.4667  1.2041  0.8847
37021SOL    HW217156   7.531   9.255   7.683  1.5090  1.3324  1.5409
37022SOL     OW17157   1.196   8.946   2.563 -0.0609 -0.7247  0.4669
37022SOL    HW117158   1.163   8.958   2.653  0.0183 -2.7035  0.8021
37022SOL    HW217159   1.265   8.880   2.572  0.3824 -0.4748 -0.9757
37023SOL     OW17160   1.042   0.053   0.512  0.7803  0.2764  0.6657
37023SOL    HW117161   1.027   0.123   0.449  0.5419  0.6626  1.1422
37023SOL    HW217162   0.956   0.013   0.526  1.2407 -1.5889 -1.2609
37024SOL     OW17163   2.955   6.005   9.875 -0.6476 -0.1271 -0.0889
37024SOL    HW117164   3.042   6.042   9.861 -0.3077 -0.8761 -0.0366
37024SOL    HW217165   2.972   5.925   9.925 -1.4678  0.2830  0.8597
37025SOL     OW17166  10.640   0.293   0.806  0.0058  0.0665 -0.0044
37025SOL    HW117167  10.578   0.357   0.770 -0.7389  1.2283  3.0629
37025SOL    HW217168  10.708   0.346   0.847  0.9373 -1.1789  0.1003
37026SOL     OW17169   4.599   9.718   5.943  0.5254 -0.1621 -0.5329
37026SOL    HW117170   4.565   9.656   6.007  0.2314 -0.9073 -1.3951
37026SOL    HW217171   4.694   9.711   5.951  0.5078  0.6594  0.6706
37027SOL     OW17172   6.028   8.144   5.948 -0.5105  0.2625  0.5146
37027SOL    HW117173   5.994   8.224   5.909 -1.8043  1.1229  3.1800
37027SOL    HW217174   6.120   8.141   5.922 -1.1430  0.9243 -2.1511
37028SOL     OW17175   9.151   5.957   6.037  0.0336 -0.1794 -0.2173
37028SOL    HW117176   9.074   5.962   6.094  0.2921  0.0621  0.1171
37028SOL    HW217177   9.123   6.000   5.956 -0.1516  0.0070 -0.0583
37029SOL     OW17178   3.370   7.174   8.674 -0.6975 -0.1966 -0.2685
37029SOL    HW117179   3.386   7.102   8.735 -1.4111 -0.7158 -0.6706
37029SOL    HW217180   3.346   7.248   8.730  0.3054 -0.1855  0.1658
37030SOL     OW17181   8.113   4.158  10.084 -0.6816  0.0746 -0.0021
37030SOL    HW117182   8.026   4.175  10.047 -0.7336  0.9336  0.4742
37030SOL    HW217183   8.097   4.146  10.178 -0.4569 -1.2736 -0.1236
37031SOL     OW17184   9.596   4.945   0.064 -0.1380 -0.7940  0.0671
37031SOL    HW117185   9.537   4.995   0.007  0.3381 -1.0699 -0.6984
37031SOL    HW217186   9.679   4.943   0.015  0.6229 -0.1150  1.2554
37032SOL     OW17187   1.068   0.605   0.370  0.5386 -0.0161 -0.6989
37032SOL    HW117188   0.984   0.650   0.383  0.1147 -1.0934  0.4321
37032SOL    HW217189   1.062   0.570   0.281 -1.2866 -2.1901  0.1888
37033SOL     OW17190   9.086   0.509   9.530  0.0431  0.1824 -0.1795
37033SOL    HW117191   8.992   0.492   9.534  0.2842 -1.1368  0.2115
37033SOL    HW217192   9.117   0.500   9.620  0.8213 -1.1455 -0.5566
37034SOL     OW17193   5.056   0.347   7.392 -0.6046 -0.0205  0.1510
37034SOL    HW117194   4.975   0.313   7.354 -0.7255  0.3009  0.1178
37034SOL    HW217195   5.125   0.292   7.356 -0.7511  0.0776 -0.2769
37035SOL     OW17196   6.882   5.284   7.675 -0.5289  0.3826 -0.0993
37035SOL    HW117197   6.880   5.330   7.759 -0.1895 -0.5917  0.4553
37035SOL    HW217198   6.950   5.218   7.685 -1.6908 -0.9210 -0.5022
37036SOL     OW17199   4.514   9.345   7.068 -0.2002 -0.1396  0.3576
37036SOL    HW117200   4.468   9.420   7.104 -0.5450  1.0587 -2.3678
37036SOL    HW217201   4.590   9.334   7.125  0.0626  2.5214  0.6389
37037SOL     OW17202   6.177   6.562   4.349 -0.4024  0.2559 -0.2146
37037SOL    HW117203   6.128   6.491   4.390 -0.9452 -0.9494 -2.7188
37037SOL    HW217204   6.117   6.636   4.349 -1.1569 -0.3375 -0.6374
37038SOL     OW17205   4.086   4.067   9.240 -0.2539  0.1741 -0.5664
37038SOL    HW117206   4.169   4.022   9.258  0.5197  2.0745  1.1341
37038SOL    HW217207   4.025   3.997   9.215  0.3367 -2.2062  3.6451
37039SOL     OW17208   4.828  10.851   2.564  0.2610  0.1605  0.5285
37039SOL    HW117209   4.870  10.860   2.478 -0.0916  1.2193  0.4557
37039SOL    HW217210   4.734  10.855   2.546  0.1198 -1.5241  0.7696
37040SOL     OW17211   2.802   7.152   9.727  0.5469  0.1889  0.7187
37040SOL    HW117212   2.792   7.193   9.641 -0.7174  0.4818  0.9757
37040SOL    HW217213   2.807   7.058   9.708 -0.1410  0.2181  0.3320
37041SOL     OW17214   6.079   0.540   6.833 -0.0725  0.0970  0.0639
37041SOL    HW117215   6.158   0.589   6.855  1.0718 -1.6905  0.1547
37041SOL    HW217216   6.060   0.564   6.742  1.9287 -1.1185 -0.7357
37042SOL     OW17217   0.301   1.642   3.022  0.5388 -0.0078 -0.1423
37042SOL    HW117218   0.369   1.703   3.050 -0.7796  2.3155 -1.7044
37042SOL    HW217219   0.347   1.581   2.965  1.8037 -0.2653  1.0796
37043SOL     OW17220   6.433   4.259   0.303  0.0414 -0.4010 -0.6696
37043SOL    HW117221   6.415   4.216   0.219  0.4774  0.4686 -1.2323
37043SOL    HW217222   6.348   4.292   0.333  0.0780  0.4550 -1.4553
37044SOL     OW17223   2.555   7.452   5.105 -0.7398  0.6243 -0.3716
37044SOL    HW117224   2.506   7.429   5.184 -1.0759  0.9165 -0.4949
37044SOL    HW217225   2.493   7.439   5.033  0.4661 -2.9464 -1.0020
37045SOL     OW17226   0.564   9.823   3.688 -0.2164  0.0966  0.3001
37045SOL    HW117227   0.585   9.902   3.738 -0.5874 -0.2666  1.0451
37045SOL    HW217228   0.480   9.795   3.722 -1.0168  0.4463 -1.3131
37046SOL     OW17229   5.405   5.989   7.664  0.0197 -0.2270 -0.6005
37046SOL    HW117230   5.482   6.036   7.698 -0.6004 -0.4937  1.2617
37046SOL    HW217231   5.432   5.897   7.663 -0.4927 -0.4188  0.8106
37047SOL     OW17232   1.247   6.267   0.003 -0.1195 -0.8853 -0.5810
37047SOL    HW117233   1.239   6.300  -0.086 -1.1635 -1.1881 -0.6225
37047SOL    HW217234   1.161   6.227   0.021 -0.2424 -0.0259  0.8720
37048SOL     OW17235   1.867   8.045   7.625  0.0747 -0.3167  0.0913
37048SOL    HW117236   1.851   7.953   7.647 -0.3535  0.5144  3.9815
37048SOL    HW217237   1.784   8.076   7.589 -0.5508 -0.9594  0.9298
37049SOL     OW17238   7.221   3.893   9.648  0.0132 -0.6462  0.8217
37049SOL    HW117239   7.292   3.921   9.590 -0.6564  1.6179  0.9946
37049SOL    HW217240   7.256   3.908   9.736 -1.1619  2.1675  0.9246
37050SOL     OW17241  10.291   8.821   0.426  0.3089 -0.0042  0.6978
37050SOL    HW117242  10.369   8.767   0.411 -0.2348 -0.8862  0.9624
37050SOL    HW217243  10.324   8.911   0.426  1.1205 -0.2763 -0.5377
37051SOL     OW17244   1.597   2.620   5.278  0.4252  0.1998  0.1776
37051SOL    HW117245   1.580   2.531   5.307 -0.6718  0.8010  1.4687
37051SOL    HW217246   1.590   2.673   5.357  2.8699  1.2425 -0.2009
37052SOL     OW17247   6.477   0.271   4.396  0.3054 -0.4674  0.2030
37052SOL    HW117248   6.562   0.252   4.436  0.1632 -0.7811  0.3534
37052SOL    HW217249   6.497   0.283   4.303  0.4140 -1.2134  0.1280
37053SOL     OW17250   3.253   1.801   1.830  0.4137  0.5926  0.7461
37053SOL    HW117251   3.228   1.851   1.753 -0.3888  0.3958  0.8680
37053SOL    HW217252   3.292   1.865   1.889  1.0991  0.7306  0.1580
37054SOL     OW17253   1.978  10.557   0.711  0.5637 -0.9072  0.2552
37054SOL    HW117254   2.038  10.610   0.659  0.9024 -2.2261 -0.7718
37054SOL    HW217255   1.973  10.601   0.796  0.0116  1.3099 -0.8660
37055SOL     OW17256   4.630  10.390   5.651  0.1288  0.4499 -0.1483
37055SOL    HW117257   4.717  10.398   5.611  0.4972  2.1524  0.8688
37055SOL    HW217258   4.623  10.298   5.676  1.3717  0.1418 -0.8329
37056SOL     OW17259   9.448   0.018   3.554  0.6514  0.0795  0.2752
37056SOL    HW117260   9.489   0.090   3.505  1.8145  0.3675  1.5814
37056SOL    HW217261   9.506  -0.057   3.538  0.2277 -0.1967  0.0424
37057SOL     OW17262   9.462   5.233   0.055  0.0732 -0.7854  0.3450
37057SOL    HW117263   9.388   5.180   0.084  0.0101 -0.3730  0.9706
37057SOL    HW217264   9.482   5.289   0.130 -0.2692  0.5140 -0.4842
37058SOL     OW17265   5.382  10.031   4.288 -0.5353  0.3508 -0.1661
37058SOL    HW117266   5.423   9.952   4.324  0.6484  0.5865 -0.9352
37058SOL    HW217267   5.396  10.098   4.356 -2.5754 -0.3391  1.0052
37059SOL     OW17268   3.467   3.210  10.440 -0.1975 -0.3295 -0.1328
37059SOL    HW117269   3.384   3.257  10.442 -0.0165  0.0066 -0.4643
37059SOL    HW217270   3.501   3.218  10.529 -1.4371 -2.1488  0.5676
37060SOL     OW17271   2.524   6.480   8.031  0.0165  0.1499 -0.0198
37060SOL    HW117272   2.533   6.502   7.939  2.3365  0.0125  0.1162
37060SOL    HW217273   2.540   6.562   8.078  2.7431 -0.4817  0.3088
37061SOL     OW17274  10.218   5.352  10.803  0.4863  0.5193  0.6261
37061SOL    HW117275  10.231   5.339  10.709 -0.9877 -1.6874  0.6671
37061SOL    HW217276  10.253   5.439  10.820  0.3941  1.1511 -2.0365
37062SOL     OW17277   0.759   0.390   1.098  0.0151  0.6051 -0.0774
37062SOL    HW117278   0.819   0.465   1.095 -3.8156  4.1300  1.7993
37062SOL    HW217279   0.711   0.395   1.016 -0.8625  0.8028  0.4389
37063SOL     OW17280   6.195   9.397   3.483  0.6306 -0.3994  0.7203
37063SOL    HW117281   6.109   9.433   3.460  0.8554 -0.5346 -0.3511
37063SOL    HW217282   6.245   9.473   3.514 -0.0607 -0.4228  1.9886
37064SOL     OW17283   4.217   5.125   9.449  0.3553 -0.6484  0.4252
37064SOL    HW117284   4.200   5.147   9.541  0.3749  1.1722  0.0288
37064SOL    HW217285   4.264   5.200   9.414 -3.8401  1.1095 -2.3169
37065SOL     OW17286  10.017   8.029   4.684 -0.3838 -0.4444  0.3298
37065SOL    HW117287   9.926   8.035   4.654 -0.5057  1.5939  0.9294
37065SOL    HW217288  10.046   7.942   4.658 -2.4514 -1.0672 -0.0345
37066SOL     OW17289   8.600   0.156  10.441  0.4218 -0.2261 -0.0152
37066SOL    HW117290   8.619   0.161  10.348  0.4563  2.1494  0.0567
37066SOL    HW217291   8.680   0.123  10.481  1.3789  1.3598 -0.5727
37067SOL     OW17292   3.214   6.047   4.832 -0.0867 -0.6556  0.3436
37067SOL    HW117293   3.208   6.078   4.922  0.1519  2.5761 -0.6159
37067SOL    HW217294   3.129   6.066   4.793  0.1581 -0.9876 -0.3859
37068SOL     OW17295   0.163   6.783   8.126 -0.1012  0.2410 -0.2820
37068SOL    HW117296   0.189   6.691   8.121  0.5063  0.4819 -2.0527
37068SOL    HW217297   0.067   6.780   8.135 -0.0504 -0.5574  0.0662
37069SOL     OW17298   0.403   0.396   7.482 -0.0337  0.2762  0.3914
37069SOL    HW117299   0.457   0.319   7.468  2.4401  1.8851  0.4397
37069SOL    HW217300   0.360   0.381   7.566  1.9007 -0.2932  1.3460
37070SOL     OW17301  10.254   2.613   7.425  0.2535  0.4926  0.0334
37070SOL    HW117302  10.219   2.529   7.395 -1.4152  0.7384  1.1797
37070SOL    HW217303  10.320   2.636   7.360  0.8501 -1.7664 -0.2360
37071SOL     OW17304   5.027   8.656   5.347  0.0295  0.0177 -0.4827
37071SOL    HW117305   5.083   8.671   5.271 -0.0403 -0.1265 -0.5623
37071SOL    HW217306   5.085   8.616   5.412  0.2422  0.7094 -0.2326
37072SOL     OW17307   7.037   1.281   9.478  0.1954 -0.0351  0.2647
37072SOL    HW117308   7.087   1.258   9.400  0.0132  0.8028 -0.1103
37072SOL    HW217309   7.063   1.371   9.498 -0.0728 -0.0973  0.9243
37073SOL     OW17310   4.886   0.949   1.512  0.0445 -0.0096  0.5583
37073SOL    HW117311   4.819   1.018   1.512 -0.5958 -0.6055 -0.8437
37073SOL    HW217312   4.906   0.935   1.419  4.4311  2.3287  0.8791
37074SOL     OW17313   1.427   9.133   2.753 -0.0067 -0.4604  0.2628
37074SOL    HW117314   1.500   9.094   2.704  0.5492  0.4159  0.3701
37074SOL    HW217315   1.373   9.059   2.779  1.1845 -1.1924  0.7250
37075SOL     OW17316   7.528   7.594   6.226 -0.9818 -0.3475  0.0840
37075SOL    HW117317   7.553   7.614   6.316 -3.0471 -1.6847  1.0096
37075SOL    HW217318   7.494   7.505   6.229  0.4173 -1.0643 -2.3607
37076SOL     OW17319   3.765   3.953   9.222 -0.2827 -0.0480 -0.6804
37076SOL    HW117320   3.785   3.988   9.135 -1.8727  0.4859 -0.8685
37076SOL    HW217321   3.743   4.030   9.275  1.3117 -0.2910  0.4149
37077SOL     OW17322   2.544   3.719   9.080 -0.0541 -1.0436  0.5351
37077SOL    HW117323   2.478   3.764   9.131 -1.6222 -3.1669  0.5127
37077SOL    HW217324   2.562   3.778   9.006 -1.0877  0.0582  1.1273
37078SOL     OW17325   9.967   3.746   8.267 -0.1680 -0.3155 -0.0187
37078SOL    HW117326   9.952   3.661   8.225 -0.1758  0.2237 -1.1404
37078SOL    HW217327  10.047   3.779   8.226 -0.1774  0.2259  0.3931
37079SOL     OW17328   6.943   6.467   3.391 -0.2929 -0.8203 -0.4758
37079SOL    HW117329   7.029   6.485   3.351  0.1849  0.0194  0.8756
37079SOL    HW217330   6.896   6.418   3.324  1.6333 -2.2864 -0.8441
37080SOL     OW17331   3.257   9.723   5.302 -0.7703  0.3448  0.8506
37080SOL    HW117332   3.230   9.754   5.389  0.6052 -2.5483  2.4658
37080SOL    HW217333   3.204   9.645   5.286  0.7795 -0.6685  0.3450
37081SOL     OW17334   7.235   1.610   3.746 -0.1478  0.4467  0.0734
37081SOL    HW117335   7.148   1.575   3.769  0.4171 -0.8714  0.2971
37081SOL    HW217336   7.289   1.591   3.823  0.0735  2.3416  0.4283
37082SOL     OW17337   4.016   9.431   7.358 -0.7770  0.4322  0.4336
37082SOL    HW117338   4.068   9.453   7.280  0.9501 -3.4790  0.2708
37082SOL    HW217339   3.976   9.346   7.337 -1.6734  0.0920  3.1812
37083SOL     OW17340   4.292   4.334   2.561 -0.4189 -0.3946 -0.1287
37083SOL    HW117341   4.269   4.248   2.598  0.4713 -1.3199 -1.6282
37083SOL    HW217342   4.353   4.314   2.490 -1.0633  1.4031 -1.2560
37084SOL     OW17343   4.773   0.443   7.889 -0.7496  0.1955 -0.6097
37084SOL    HW117344   4.688   0.402   7.907 -0.0893 -2.1527 -2.4099
37084SOL    HW217345   4.814   0.453   7.974 -1.2386 -2.3589 -0.0061
37085SOL     OW17346   1.212   9.212   4.194  0.4676  0.0616  0.4438
37085SOL    HW117347   1.153   9.227   4.267  0.6022  0.7336  0.4165
37085SOL    HW217348   1.179   9.268   4.124  0.7927  0.0069  0.2424
37086SOL     OW17349   4.338   7.840  10.323 -0.2615  0.0098 -0.1994
37086SOL    HW117350   4.331   7.936  10.331  0.0180  0.0291 -0.1656
37086SOL    HW217351   4.427   7.826  10.290  0.1949 -0.2979  1.0799
37087SOL     OW17352   3.496   4.412   8.662  0.7206  0.6607  0.2022
37087SOL    HW117353   3.457   4.466   8.731  1.4734  1.1536  0.2611
37087SOL    HW217354   3.430   4.409   8.593  1.2792  3.1369 -0.5442
37088SOL     OW17355   3.011   5.637   9.555 -0.6039 -0.0197  0.1109
37088SOL    HW117356   2.985   5.666   9.467 -0.1139 -0.2270 -0.1092
37088SOL    HW217357   3.083   5.697   9.578  0.3913 -1.0071 -0.3306
37089SOL     OW17358   9.515   4.384   8.506  0.1998 -0.3696 -0.2735
37089SOL    HW117359   9.578   4.382   8.434 -0.7938 -1.0608 -1.1422
37089SOL    HW217360   9.458   4.309   8.491 -0.0118 -0.5606  1.2656
37090SOL     OW17361   5.061   1.944   4.217 -0.3236 -0.5395 -0.8593
37090SOL    HW117362   4.966   1.949   4.201 -0.5176 -1.4781 -0.1306
37090SOL    HW217363   5.079   1.850   4.220  0.4879 -0.3730 -0.1938
37091SOL     OW17364   6.859   1.447   0.029  0.5487 -0.1728 -0.9292
37091SOL    HW117365   6.909   1.393   0.091 -1.0505 -1.2744 -0.5284
37091SOL    HW217366   6.891   1.421  -0.057  1.6727  0.2136 -0.6464
37092SOL     OW17367   3.489   7.954   7.995  0.3400  0.6409  0.1757
37092SOL    HW117368   3.434   7.927   8.069 -0.1066 -2.0947 -1.0267
37092SOL    HW217369   3.427   7.975   7.925  0.7187 -1.0850 -0.7428
37093SOL     OW17370   7.077   8.124   6.014  0.1447  0.1522  1.2848
37093SOL    HW117371   7.092   8.035   5.983 -0.0515  0.1513  1.1942
37093SOL    HW217372   7.162   8.151   6.050  0.9892  0.8942 -1.0684
37094SOL     OW17373   9.108   9.211   7.535  0.1177 -0.0624 -0.0160
37094SOL    HW117374   9.064   9.128   7.556 -0.8431  0.7413  1.2865
37094SOL    HW217375   9.037   9.275   7.532  1.0682  1.0907  1.0724
37095SOL     OW17376   6.628  10.633   6.415 -0.4142  0.1843  0.0090
37095SOL    HW117377   6.724  10.624   6.418 -0.1932  2.3012  0.9555
37095SOL    HW217378   6.597  10.576   6.485 -0.0322 -1.8151 -1.3495
37096SOL     OW17379  10.297   3.565   8.014  0.4413  0.4376 -0.0298
37096SOL    HW117380  10.379   3.560   8.063 -0.5986 -0.8231  1.7111
37096SOL    HW217381  10.274   3.473   7.997 -1.7427  0.6320  1.5742
37097SOL     OW17382   9.443   9.971   6.359 -0.2247 -0.1827  0.7598
37097SOL    HW117383   9.374  10.006   6.415 -0.1861 -1.0043  1.3394
37097SOL    HW217384   9.500   9.923   6.419  0.2804 -0.3793  0.1324
37098SOL     OW17385   3.885   1.471   3.428 -0.2155 -0.1643 -0.1366
37098SOL    HW117386   3.832   1.543   3.393 -0.3730 -0.7143 -1.0743
37098SOL    HW217387   3.822   1.415   3.473 -0.3775 -0.5902 -0.8752
37099SOL     OW17388   0.951   7.501   9.849 -0.1147 -0.2096  0.0787
37099SOL    HW117389   0.920   7.542   9.768 -0.8078  3.7404  2.1212
37099SOL    HW217390   1.047   7.504   9.842 -0.1561  1.3073 -0.1036
37100SOL     OW17391   8.958   9.962   8.389 -0.0889 -0.3235  0.0801
37100SOL    HW117392   8.976  10.033   8.327 -1.4484  1.1496  1.2564
37100SOL    HW217393   8.980   9.882   8.342 -0.4614  0.7524 -2.0654
37101SOL     OW17394   6.105   4.545   6.705 -0.3783  0.3795 -0.4556
37101SOL    HW117395   6.036   4.605   6.732 -0.8501 -1.3749  2.7223
37101SOL    HW217396   6.124   4.494   6.783  3.3436 -0.4179 -1.6776
37102SOL     OW17397   0.121   7.514   6.074  0.1900 -0.3815  0.5967
37102SOL    HW117398   0.077   7.437   6.038  0.0333 -0.0969  0.1737
37102SOL    HW217399   0.163   7.482   6.153  0.0778 -0.8917  0.4566
37103SOL     OW17400   3.489  10.102   1.903 -0.2176 -0.8349  0.2186
37103SOL    HW117401   3.493  10.024   1.959 -0.5555 -0.7603  0.3509
37103SOL    HW217402   3.404  10.141   1.924 -0.1063 -0.5062  0.0518
37104SOL     OW17403   0.569   0.008  10.703  0.0855  0.2197  0.1340
37104SOL    HW117404   0.588  -0.054  10.633  2.0412  0.1201  0.6988
37104SOL    HW217405   0.480  -0.013  10.731  0.1218 -1.2284 -0.7861
37105SOL     OW17406   2.694   7.341   8.169  0.4258 -0.1677 -0.1008
37105SOL    HW117407   2.728   7.341   8.259  1.8428  0.3402 -0.6014
37105SOL    HW217408   2.610   7.386   8.175  1.8851  2.7225  0.5365
37106SOL     OW17409   3.534   4.865   7.753  0.1504  0.6259  0.6805
37106SOL    HW117410   3.613   4.872   7.700 -0.5935  3.2139 -0.2124
37106SOL    HW217411   3.486   4.792   7.714  1.1604  0.3222 -0.0451
37107SOL     OW17412   2.730   4.048  10.041  0.4461 -0.2617 -0.2262
37107SOL    HW117413   2.762   4.117  10.100 -1.9496  1.5581 -0.8932
37107SOL    HW217414   2.796   4.044   9.972  0.8788  1.0708  0.0739
37108SOL     OW17415   3.447   6.356   7.481 -0.2844 -0.3334 -0.1916
37108SOL    HW117416   3.427   6.447   7.458 -1.0505 -0.5066 -0.2338
37108SOL    HW217417   3.435   6.307   7.400 -4.1486 -1.1328  0.6619
37109SOL     OW17418   5.229   4.923   9.282 -0.6559  0.5319  0.4260
37109SOL    HW117419   5.310   4.922   9.332 -1.3690  2.4518  1.6976
37109SOL    HW217420   5.218   5.014   9.256 -2.3548  0.2829  0.1946
37110SOL     OW17421   8.049   8.540   0.921 -0.4236 -0.5124 -0.1036
37110SOL    HW117422   8.106   8.492   0.981 -0.0574 -2.4261 -1.8881
37110SOL    HW217423   8.105   8.562   0.847 -1.1879  0.6489 -0.3680
37111SOL     OW17424   8.853   5.726   9.622  1.0028  0.4417  0.2963
37111SOL    HW117425   8.765   5.689   9.634  0.8388  0.7983  0.1889
37111SOL    HW217426   8.910   5.667   9.672  0.6500  0.4465  0.7165
37112SOL     OW17427  10.411   8.916   9.969  0.5060  0.4231 -0.0957
37112SOL    HW117428  10.469   8.886  10.040 -0.5826  1.4624  1.2862
37112SOL    HW217429  10.357   8.840   9.948  1.1773 -0.0380 -0.1742
37113SOL     OW17430   9.655   2.452   6.109  0.0485  1.2218  0.0237
37113SOL    HW117431   9.571   2.498   6.111 -1.4371 -1.2965 -0.2630
37113SOL    HW217432   9.681   2.454   6.017 -0.5509  0.5791 -0.1629
37114SOL     OW17433   2.299   8.032   9.186  0.1586  0.0420  0.6426
37114SOL    HW117434   2.227   7.973   9.210  0.2522 -0.0367  0.7313
37114SOL    HW217435   2.356   8.033   9.263  0.7754 -0.6786  0.2147
37115SOL     OW17436   2.881  10.340   6.533  0.1473 -0.4615 -0.6798
37115SOL    HW117437   2.962  10.318   6.486  1.2569  1.7086  0.0868
37115SOL    HW217438   2.887  10.292   6.615  0.9746  0.1534 -0.3702
37116SOL     OW17439   3.528   2.863   9.232  0.1293  0.9575 -0.4205
37116SOL    HW117440   3.601   2.865   9.294  0.3137  1.1471 -0.6417
37116SOL    HW217441   3.469   2.795   9.266  0.2293  1.0605 -0.0398
37117SOL     OW17442   6.524   7.762   8.577  0.1211  0.2718  0.0212
37117SOL    HW117443   6.603   7.714   8.557 -0.0415 -0.3005  0.7050
37117SOL    HW217444   6.516   7.826   8.506  0.7716 -0.1699 -0.4636
37118SOL     OW17445   6.371   0.866   7.278 -0.7556 -0.4340 -0.1251
37118SOL    HW117446   6.281   0.852   7.249 -0.5918  2.4808 -2.4786
37118SOL    HW217447   6.424   0.813   7.219 -0.8143 -0.9584  0.2814
37119SOL     OW17448   3.392   7.827   2.671 -0.0685  0.5109 -0.0093
37119SOL    HW117449   3.465   7.889   2.666  1.4731 -1.2569 -0.6018
37119SOL    HW217450   3.318   7.873   2.631  1.1814  1.7309 -0.9810
37120SOL     OW17451   7.566   5.965   9.380  0.6853 -0.1589  0.7884
37120SOL    HW117452   7.525   5.910   9.313 -0.4975  1.9695 -0.3347
37120SOL    HW217453   7.660   5.961   9.361  0.3655  0.5689 -1.1969
37121SOL     OW17454   3.215   2.968   0.719  0.4556  0.0473 -0.2100
37121SOL    HW117455   3.264   3.037   0.673 -1.2505  3.0990  2.1628
37121SOL    HW217456   3.137   2.954   0.664 -0.5599  2.1740  0.5590
37122SOL     OW17457   1.609   2.924   1.534 -0.4163 -0.0946 -0.3045
37122SOL    HW117458   1.526   2.919   1.581 -0.2475  0.8672  0.1012
37122SOL    HW217459   1.583   2.931   1.442 -0.7763 -0.1730 -0.2110
37123SOL     OW17460   1.018   3.682   6.957  0.3460 -0.2087 -0.1730
37123SOL    HW117461   1.022   3.769   6.916 -1.6953 -0.3319 -0.7607
37123SOL    HW217462   1.009   3.700   7.050  2.2341  0.1372 -0.0303
37124SOL     OW17463   7.957   8.552   8.310  0.1298 -0.2575  0.0742
37124SOL    HW117464   7.899   8.535   8.384  0.3977  1.1291  0.6376
37124SOL    HW217465   7.903   8.537   8.233 -0.5946 -0.2669  0.5758
37125SOL     OW17466   5.919   2.506   1.854  0.6022 -0.0824  0.0380
37125SOL    HW117467   5.870   2.441   1.803  2.3394 -0.3448 -1.4147
37125SOL    HW217468   5.959   2.563   1.787 -0.0048  1.8592  1.2384
37126SOL     OW17469   8.129   4.997   9.128 -0.0846  0.3527 -0.5872
37126SOL    HW117470   8.035   5.017   9.126 -0.0198  0.6493 -1.5118
37126SOL    HW217471   8.135   4.912   9.169 -0.8665 -0.1432 -1.4576
37127SOL     OW17472   7.625   9.018   8.293 -0.1590  0.1702  0.5283
37127SOL    HW117473   7.672   9.063   8.223 -0.6024  0.5883  0.4975
37127SOL    HW217474   7.666   8.932   8.298  0.9715  0.7003  0.8552
37128SOL     OW17475   6.024  10.282   3.800  0.0267  0.7543  0.1171
37128SOL    HW117476   6.004  10.238   3.717  1.7953  1.4878 -0.7641
37128SOL    HW217477   5.938  10.305   3.836 -0.8623 -1.5594 -0.3764
37129SOL     OW17478   7.153  10.854   1.332 -0.1772  0.2839 -0.1146
37129SOL    HW117479   7.061  10.835   1.349  0.1188 -1.1516  0.0024
37129SOL    HW217480   7.193  10.768   1.318  0.9484  0.9554 -1.1913
37130SOL     OW17481   7.418   7.186   7.637 -0.8744  0.3183  0.1840
37130SOL    HW117482   7.492   7.203   7.578 -1.7617  0.9193 -0.7733
37130SOL    HW217483   7.422   7.092   7.653  0.0485  0.3279  0.0726
37131SOL     OW17484  10.506   7.564   2.631  0.7242  0.0615  0.3332
37131SOL    HW117485  10.504   7.508   2.554  0.9281  0.2983  0.1566
37131SOL    HW217486  10.482   7.651   2.598 -0.6053 -0.1181  0.7727
37132SOL     OW17487   8.871   7.045   6.988  0.4961 -0.2897  0.2583
37132SOL    HW117488   8.898   6.958   7.018 -1.3780 -1.4739 -1.2762
37132SOL    HW217489   8.776   7.039   6.978  0.2437  2.0937  0.5127
37133SOL     OW17490   1.166   3.153   1.836  0.3686  0.0499 -0.0756
37133SOL    HW117491   1.118   3.073   1.859  0.6931 -0.5882 -1.4663
37133SOL    HW217492   1.258   3.131   1.851  0.4100  0.4454  0.2834
37134SOL     OW17493   2.477   3.751  10.416  0.5508 -0.3716  0.3503
37134SOL    HW117494   2.384   3.772  10.417  0.5637 -0.3162  0.4718
37134SOL    HW217495   2.506   3.771  10.505  1.0138  1.0948 -0.0995
37135SOL     OW17496   2.177   5.669   9.387  0.3491 -0.4082  0.0166
37135SOL    HW117497   2.158   5.656   9.294  0.1918 -0.6770  0.0840
37135SOL    HW217498   2.253   5.728   9.389  0.7052 -0.8569 -0.2910
37136SOL     OW17499   8.874   4.132   9.993  0.0928 -0.0053 -0.5638
37136SOL    HW117500   8.779   4.126   9.997  0.0430 -0.4000 -1.8144
37136SOL    HW217501   8.892   4.188   9.918  0.8429 -0.0504 -0.4297
37137SOL     OW17502   4.946   6.352   6.338 -0.6763  0.9560  0.0228
37137SOL    HW117503   4.995   6.385   6.263 -0.1042  0.2399  0.0809
37137SOL    HW217504   4.949   6.257   6.330 -0.5428  0.8692  0.9965
37138SOL     OW17505   6.238   3.519   2.325 -0.5192  0.1288 -0.0718
37138SOL    HW117506   6.155   3.485   2.293 -0.1934  0.8178 -1.7966
37138SOL    HW217507   6.300   3.448   2.312 -0.6112  0.0047  0.1555
37139SOL     OW17508   9.733   6.667   0.890 -0.1199  0.1000 -0.5572
37139SOL    HW117509   9.716   6.575   0.908  0.5340  0.4498  2.3423
37139SOL    HW217510   9.648   6.702   0.863 -1.4727 -0.5224  2.5117
37140SOL     OW17511   8.677   9.341   5.620 -0.1772  0.2963 -0.2329
37140SOL    HW117512   8.751   9.351   5.679 -1.6547  1.0796  1.6000
37140SOL    HW217513   8.645   9.252   5.637 -0.5879  0.5137  0.1460
37141SOL     OW17514   1.099   0.661   9.726  0.0730 -0.4741 -0.1297
37141SOL    HW117515   1.184   0.677   9.684 -0.1888  1.0911 -0.1119
37141SOL    HW217516   1.040   0.724   9.685 -0.2505  0.9500  2.3973
37142SOL     OW17517   2.762   7.313   7.168 -0.0379 -0.1461 -0.0578
37142SOL    HW117518   2.715   7.397   7.166 -0.7979 -0.5797 -1.6149
37142SOL    HW217519   2.850   7.334   7.137  0.1649  0.2819  0.7758
37143SOL     OW17520   9.290   8.772   7.584  0.2179 -0.0006  0.0104
37143SOL    HW117521   9.221   8.723   7.539  2.6768 -3.2662 -0.6190
37143SOL    HW217522   9.306   8.848   7.528 -3.1077  1.2106  0.4970
37144SOL     OW17523   2.346   5.141   5.343  0.4362  0.1964 -0.5719
37144SOL    HW117524   2.263   5.115   5.384 -0.1771 -0.3380 -2.0868
37144SOL    HW217525   2.411   5.080   5.378 -0.1688 -0.5631 -0.7502
37145SOL     OW17526   6.778  10.339   2.454 -0.1922 -0.1721 -0.3043
37145SOL    HW117527   6.715  10.278   2.492  0.2930 -0.3508  0.2347
37145SOL    HW217528   6.747  10.425   2.480 -0.2229 -0.2593 -0.0487
37146SOL     OW17529  10.660   8.578   4.022 -0.3642  0.2907  0.2235
37146SOL    HW117530  10.595   8.597   4.091 -1.3676 -0.0894 -0.5915
37146SOL    HW217531  10.623   8.503   3.975  1.4296 -0.9407  0.6927
37147SOL     OW17532   1.148   9.266   0.992 -0.5944 -0.2487  0.1431
37147SOL    HW117533   1.169   9.206   1.063  0.1571  0.6944  0.7288
37147SOL    HW217534   1.154   9.212   0.913 -0.9880 -1.1886  0.7369
37148SOL     OW17535   2.097   6.773   5.948  0.0883 -0.4749  0.2318
37148SOL    HW117536   2.180   6.808   5.916 -0.7762  1.0232 -0.5046
37148SOL    HW217537   2.057   6.847   5.994 -1.3913 -0.7601 -0.5294
37149SOL     OW17538   8.712   4.797   0.702  0.0393  0.4067  0.3607
37149SOL    HW117539   8.685   4.708   0.723 -1.3339  0.5359 -0.6863
37149SOL    HW217540   8.648   4.853   0.746  1.6714  0.9588  2.1194
37150SOL     OW17541  10.906   7.780  10.815 -0.1036 -0.3187 -0.7387
37150SOL    HW117542  10.859   7.811  10.892  0.6613  0.8741 -0.7191
37150SOL    HW217543  10.995   7.764  10.846  0.1468 -0.0798 -1.3081
37151SOL     OW17544   1.201   8.485   5.351 -0.1436 -0.1209  0.4369
37151SOL    HW117545   1.156   8.568   5.335 -0.5467 -0.4803 -0.3400
37151SOL    HW217546   1.229   8.456   5.264 -0.6547 -1.1660  0.6147
37152SOL     OW17547   5.738   5.176   6.346  0.1125 -0.3988  0.4801
37152SOL    HW117548   5.659   5.193   6.398 -1.2258 -3.8177 -0.1854
37152SOL    HW217549   5.809   5.178   6.411 -1.0932 -1.3447  1.9154
37153SOL     OW17550   2.293   3.369   6.664 -0.6458 -0.0280 -0.0299
37153SOL    HW117551   2.352   3.319   6.608  1.0784  0.9265  0.8514
37153SOL    HW217552   2.217   3.387   6.609  0.3646 -0.3510 -1.5807
37154SOL     OW17553   8.794   7.051   8.795 -0.2303  0.5213 -0.1929
37154SOL    HW117554   8.841   7.112   8.852  0.7110 -0.7352  0.4288
37154SOL    HW217555   8.762   6.983   8.854  2.1822 -1.7068 -1.2291
37155SOL     OW17556   7.380   3.699   1.427  0.2289 -0.2801  0.2111
37155SOL    HW117557   7.367   3.650   1.508  0.5791  0.3139  0.6360
37155SOL    HW217558   7.301   3.752   1.418  0.5310  0.2502  0.5990
37156SOL     OW17559   5.978   6.339   7.517 -0.0476 -0.1285 -0.0029
37156SOL    HW117560   5.911   6.273   7.536  0.8006 -0.9177  0.2965
37156SOL    HW217561   6.061   6.297   7.540  0.4962  1.1099  0.3657
37157SOL     OW17562   8.851   2.289   7.027  0.2137  0.2158 -0.1437
37157SOL    HW117563   8.796   2.365   7.008 -0.5842 -0.6803 -1.5699
37157SOL    HW217564   8.905   2.278   6.948  0.7253 -0.3580  0.2790
37158SOL     OW17565   3.844   2.111   2.703 -0.0982  0.4777  0.2496
37158SOL    HW117566   3.847   2.016   2.699  1.5285  0.5015 -0.1355
37158SOL    HW217567   3.804   2.131   2.787 -1.9031 -0.5111 -0.3424
37159SOL     OW17568   6.871   2.345   5.212 -0.3557 -0.4643 -0.2239
37159SOL    HW117569   6.888   2.252   5.194 -0.1927 -1.5015  4.2111
37159SOL    HW217570   6.956   2.387   5.201  0.2930 -1.4740  0.6493
37160SOL     OW17571  10.693   7.290   4.845  0.1212 -0.3956  0.4763
37160SOL    HW117572  10.697   7.371   4.794 -0.1221  0.0040  1.0745
37160SOL    HW217573  10.600   7.268   4.848  0.3900 -2.4093 -2.2688
37161SOL     OW17574   7.264  10.133   4.425 -0.2844  0.1142  0.1911
37161SOL    HW117575   7.332  10.195   4.450  2.3704 -2.4721 -0.0675
37161SOL    HW217576   7.282  10.112   4.333 -0.3566 -1.7849  0.5543
37162SOL     OW17577   7.622   1.542   8.570 -0.2740  0.5440  0.1080
37162SOL    HW117578   7.714   1.562   8.557 -0.5181  1.0602 -0.9253
37162SOL    HW217579   7.575   1.618   8.537 -1.1228 -0.4331 -1.0347
37163SOL     OW17580   7.253   3.122   6.017  0.1448  0.2051 -0.2882
37163SOL    HW117581   7.320   3.121   5.949  0.9358  1.4509  0.4473
37163SOL    HW217582   7.274   3.048   6.073 -0.1327 -0.4395 -1.0084
37164SOL     OW17583   9.072   1.501   3.240 -0.0392 -0.1791 -0.8230
37164SOL    HW117584   9.051   1.547   3.158  1.2763  0.6105 -0.7365
37164SOL    HW217585   8.987   1.469   3.272 -1.1440  2.8505 -0.4788
37165SOL     OW17586   2.981   7.697   8.605 -0.1838 -1.0677 -0.0529
37165SOL    HW117587   2.904   7.669   8.555 -0.5257  0.9112 -0.7245
37165SOL    HW217588   3.041   7.623   8.600 -1.8269 -2.4681  0.0695
37166SOL     OW17589   9.139   9.715   1.138 -0.0067 -0.5125 -0.3760
37166SOL    HW117590   9.091   9.734   1.057 -1.8469 -0.8446  0.5719
37166SOL    HW217591   9.088   9.645   1.180  1.6587 -1.2889  0.4353
37167SOL     OW17592   0.841   8.273  10.100 -0.1696  0.3911 -0.1501
37167SOL    HW117593   0.754   8.233  10.089 -0.2461  0.9696 -2.1412
37167SOL    HW217594   0.825   8.352  10.151 -0.7354  0.2299 -0.0683
37168SOL     OW17595   8.369   0.132   6.656  0.8093 -0.1088  0.0388
37168SOL    HW117596   8.312   0.177   6.594 -0.9404 -1.2184  0.7501
37168SOL    HW217597   8.385   0.047   6.616  0.9616 -0.2445  0.3873
37169SOL     OW17598   7.168   7.214   2.197 -0.5189 -0.2413 -0.0190
37169SOL    HW117599   7.142   7.262   2.119 -0.6702 -0.5188 -0.1404
37169SOL    HW217600   7.087   7.174   2.230 -0.6724  0.8145  0.9396
37170SOL     OW17601   7.563   2.193   2.471  0.3303 -0.3568  0.0854
37170SOL    HW117602   7.543   2.280   2.505  1.0935 -0.1585  0.0512
37170SOL    HW217603   7.537   2.197   2.379 -0.2647 -0.3884  0.2464
37171SOL     OW17604   1.549   7.546  10.478  0.1517  0.1255  0.1209
37171SOL    HW117605   1.462   7.572  10.509  0.0348 -1.0710  0.8663
37171SOL    HW217606   1.534   7.465  10.429  0.6684  0.7025 -1.0285
37172SOL     OW17607   5.390   9.921   7.088 -0.2124  0.3138  0.1501
37172SOL    HW117608   5.364  10.013   7.082  0.9244  0.6047 -0.4321
37172SOL    HW217609   5.381   9.887   6.999 -0.5338 -0.1323  0.3434
37173SOL     OW17610   6.616   3.954   3.366 -0.4582 -0.0755  0.3637
37173SOL    HW117611   6.591   3.961   3.458 -1.2188  0.3079  0.1343
37173SOL    HW217612   6.631   4.045   3.339  0.7728 -0.2604  0.3754
37174SOL     OW17613   7.865   8.202   9.060 -0.2346  0.1626  0.5459
37174SOL    HW117614   7.900   8.262   9.125  2.4772 -1.8270  1.0949
37174SOL    HW217615   7.936   8.190   8.997 -1.2584 -1.2540 -0.4065
37175SOL     OW17616  10.115   1.039   0.193  0.1353  0.3017 -0.0479
37175SOL    HW117617  10.079   1.051   0.281  0.0133  3.7005 -0.4058
37175SOL    HW217618  10.051   1.082   0.135  0.0592 -2.1010 -1.8966
37176SOL     OW17619  10.806   8.853   6.483  0.5982 -0.0881 -0.5357
37176SOL    HW117620  10.756   8.878   6.406 -2.9204  0.3884  1.6512
37176SOL    HW217621  10.787   8.760   6.495 -1.1195  0.3796  1.0421
37177SOL     OW17622   3.680   3.074   9.180  0.1931 -0.3670  0.3439
37177SOL    HW117623   3.630   2.993   9.173  0.8900 -0.7418 -0.6235
37177SOL    HW217624   3.615   3.142   9.200 -0.6283 -0.9110 -0.4180
37178SOL     OW17625  10.686   7.996   3.436 -0.3841  0.0505 -0.4997
37178SOL    HW117626  10.762   8.039   3.475 -0.7490 -0.2391  0.5540
37178SOL    HW217627  10.616   8.009   3.500 -0.1525 -3.3895  0.6315
37179SOL     OW17628   0.515  10.078   3.478  0.4264 -0.7740  0.2035
37179SOL    HW117629   0.494  10.163   3.438  0.2130  0.1038  2.0726
37179SOL    HW217630   0.482  10.085   3.568  3.4143 -1.5507  1.4788
37180SOL     OW17631   6.586   7.773   4.353 -0.6801  0.4959 -0.3858
37180SOL    HW117632   6.537   7.692   4.334  3.2532 -1.7746 -2.0335
37180SOL    HW217633   6.645   7.750   4.424 -0.4954  2.4760  0.1669
37181SOL     OW17634   8.553   9.120   5.740  0.3790  0.6449  0.2908
37181SOL    HW117635   8.464   9.147   5.718  0.8000  2.7076  0.9195
37181SOL    HW217636   8.542   9.051   5.805 -0.7497 -0.1731 -0.7254
37182SOL     OW17637   0.039   8.379  10.629  0.2258  0.1963 -0.3879
37182SOL    HW117638  -0.036   8.320  10.641 -0.3119  0.5999 -1.5702
37182SOL    HW217639   0.003   8.466  10.642  0.4634  0.3971 -1.0478
37183SOL     OW17640   2.675   2.153   7.465  0.7713 -0.2375  0.6529
37183SOL    HW117641   2.709   2.172   7.552 -3.3472  0.4830  2.3581
37183SOL    HW217642   2.710   2.222   7.409  2.1159  0.3179  2.1075
37184SOL     OW17643   9.169   7.769   4.362  0.0763 -0.5012  0.4302
37184SOL    HW117644   9.102   7.838   4.360 -0.3615 -0.8934 -2.2002
37184SOL    HW217645   9.147   7.717   4.439 -1.7388  0.2473  0.4771
37185SOL     OW17646   7.681   9.967   8.448  0.2819  0.1603 -0.1832
37185SOL    HW117647   7.620   9.995   8.516  0.7392  1.7389 -0.3675
37185SOL    HW217648   7.626   9.926   8.382 -0.5179  1.0078 -0.0654
37186SOL     OW17649   9.777   2.628   6.434 -0.1112 -0.2492  0.4055
37186SOL    HW117650   9.729   2.689   6.378 -0.1890 -0.3114  0.4047
37186SOL    HW217651   9.768   2.664   6.522  2.9684  1.8267  0.0119
37187SOL     OW17652   2.125   6.321   4.703 -0.2147 -0.2032 -0.3091
37187SOL    HW117653   2.100   6.339   4.613 -1.0484  0.2099 -0.0092
37187SOL    HW217654   2.042   6.317   4.751  0.2576  0.7101  0.6310
37188SOL     OW17655   8.732   9.921   6.832  0.6276 -0.1236  0.0877
37188SOL    HW117656   8.757   9.964   6.751  0.6589 -2.1409 -1.0237
37188SOL    HW217657   8.791   9.846   6.840 -0.9957 -1.4160  0.6108
37189SOL     OW17658   7.308   9.797   8.731 -0.1784 -0.2076 -0.4189
37189SOL    HW117659   7.328   9.839   8.648 -3.7805  0.0181 -1.3577
37189SOL    HW217660   7.265   9.865   8.783 -1.7330 -1.3932 -0.0634
37190SOL     OW17661   1.917   0.268   5.193  0.1559  0.6113 -0.0055
37190SOL    HW117662   1.945   0.359   5.202  0.3719  0.4760  0.7682
37190SOL    HW217663   1.994   0.221   5.163  0.5341  0.3988  1.2389
37191SOL     OW17664   2.296  10.892   6.313 -0.0453  0.1224  0.0292
37191SOL    HW117665   2.301  10.970   6.368  0.0386  0.3554 -0.3064
37191SOL    HW217666   2.311  10.924   6.224 -1.3379 -0.0667 -0.2753
37192SOL     OW17667   8.180  10.871   7.745 -0.0890  0.1138 -0.2444
37192SOL    HW117668   8.217  10.953   7.779 -1.3219  0.4034  0.4724
37192SOL    HW217669   8.153  10.823   7.824 -0.6839 -0.3343 -0.7127
37193SOL     OW17670   0.074   7.590   8.163 -0.2244 -0.4072  0.0733
37193SOL    HW117671   0.013   7.546   8.105 -1.4940  0.3685  0.7575
37193SOL    HW217672   0.077   7.680   8.131  0.0191 -0.2730  0.4644
37194SOL     OW17673  10.277   0.878  10.844 -0.2903 -0.8536 -0.3850
37194SOL    HW117674  10.334   0.953  10.863 -0.2169 -0.5972 -1.5119
37194SOL    HW217675  10.262   0.837  10.929  1.3045 -0.7284  0.0046
37195SOL     OW17676   1.415   7.162  10.584 -0.1942  0.1849  0.1774
37195SOL    HW117677   1.414   7.126  10.673  0.1575  1.3266  0.6599
37195SOL    HW217678   1.503   7.142  10.552 -0.1620  0.1970  0.2572
37196SOL     OW17679   6.955   7.772   3.063 -0.1974  0.3499  0.2110
37196SOL    HW117680   6.929   7.864   3.072  0.5366  0.6022 -0.2064
37196SOL    HW217681   7.039   7.775   3.019  0.9589 -0.4138  2.2338
37197SOL     OW17682   9.270   7.743   4.854  0.1615 -0.1432 -0.2044
37197SOL    HW117683   9.265   7.831   4.893  1.8872  0.5732 -1.4458
37197SOL    HW217684   9.348   7.704   4.893  0.9319 -0.0657 -1.6158
37198SOL     OW17685   6.149   6.587   4.759  0.5044 -0.7461  0.6101
37198SOL    HW117686   6.080   6.583   4.826 -0.1570 -1.4538 -0.1026
37198SOL    HW217687   6.116   6.650   4.695  1.0244 -0.2599  0.8141
37199SOL     OW17688   4.445   3.902   5.770 -0.3310 -0.0607 -0.2598
37199SOL    HW117689   4.520   3.844   5.775 -0.9358 -0.9435 -1.1214
37199SOL    HW217690   4.481   3.990   5.784  0.8258 -0.4822 -0.5269
37200SOL     OW17691   4.965   6.646   4.404  0.2238 -0.6879  0.0134
37200SOL    HW117692   5.060   6.646   4.404  0.2822  0.4205 -1.8933
37200SOL    HW217693   4.941   6.560   4.369  0.6787  0.2168 -2.7635
37201SOL     OW17694   8.454   0.261   7.862 -0.0691 -0.2333  0.3870
37201SOL    HW117695   8.365   0.237   7.838 -0.9074  0.1317  2.8688
37201SOL    HW217696   8.502   0.178   7.864 -0.8370 -0.6711  0.8123
37202SOL     OW17697  10.044   9.148   8.001 -0.5525  0.0275  0.2906
37202SOL    HW117698   9.960   9.183   8.032  0.7924  2.2089  1.6844
37202SOL    HW217699  10.107   9.218   8.015  1.9983 -2.2845  1.4638
37203SOL     OW17700   1.426  10.659  10.167 -1.4042 -0.1943 -0.5783
37203SOL    HW117701   1.424  10.575  10.212 -0.7189 -0.1097 -0.3657
37203SOL    HW217702   1.442  10.637  10.076 -2.7953 -0.3674 -0.8007
37204SOL     OW17703   3.828   3.925   1.983 -0.8603 -0.1479  0.0259
37204SOL    HW117704   3.777   3.999   2.015  0.8790  1.2845 -0.3103
37204SOL    HW217705   3.885   3.901   2.056 -0.7419 -0.5378 -0.1871
37205SOL     OW17706   8.800   6.107  10.398  0.6073 -0.2001  0.2731
37205SOL    HW117707   8.886   6.149  10.397  0.5112 -0.0127 -0.2665
37205SOL    HW217708   8.807   6.036  10.334  0.8512 -1.1950  1.3634
37206SOL     OW17709   3.414   6.254   3.804 -0.0399  0.0467  0.7965
37206SOL    HW117710   3.482   6.252   3.872  0.8050 -0.0298 -0.0390
37206SOL    HW217711   3.370   6.338   3.817 -0.2429 -0.1930  1.7651
37207SOL     OW17712   2.335   8.293   9.115 -0.2224 -0.6252 -0.5344
37207SOL    HW117713   2.348   8.334   9.200  0.2919 -0.3810 -0.7251
37207SOL    HW217714   2.311   8.203   9.135  1.1365 -0.9281 -0.1360
37208SOL     OW17715   5.327   9.263   7.288  0.0509  0.5547  0.3216
37208SOL    HW117716   5.310   9.249   7.195 -0.0239  0.4690  0.3475
37208SOL    HW217717   5.397   9.200   7.308  1.1394  1.6174 -0.0202
37209SOL     OW17718   5.101   8.200  10.184  0.0699  0.4122 -0.0213
37209SOL    HW117719   5.128   8.266  10.119  1.6139 -2.7831 -2.9817
37209SOL    HW217720   5.015   8.172  10.156 -1.0068  1.6735  1.8005
37210SOL     OW17721   0.003   0.218   2.201 -0.3080 -0.0438  0.3178
37210SOL    HW117722  -0.081   0.172   2.204 -0.2766 -0.4120 -2.2367
37210SOL    HW217723   0.065   0.157   2.241 -1.0084 -0.3673  0.9402
37211SOL     OW17724   3.595   6.350  10.302 -0.5452  0.6023  0.5506
37211SOL    HW117725   3.589   6.381  10.212 -0.0234 -1.2536 -0.1462
37211SOL    HW217726   3.661   6.407  10.342 -0.3792  1.0826 -0.3735
37212SOL     OW17727   1.027   7.476   5.320  0.0382  0.0877 -0.4231
37212SOL    HW117728   1.120   7.488   5.300 -0.0952 -1.5258 -2.2777
37212SOL    HW217729   1.008   7.385   5.296 -1.6357 -0.2084  1.6285
37213SOL     OW17730   8.357   4.008   9.244 -0.2486 -0.3222 -0.8784
37213SOL    HW117731   8.302   4.085   9.259 -0.3312 -0.4811 -0.3453
37213SOL    HW217732   8.442   4.044   9.218  0.4804  0.0740  1.7431
37214SOL     OW17733   6.595   6.070   3.778 -0.1883 -0.0442  0.5739
37214SOL    HW117734   6.537   5.996   3.796 -0.9320  0.4847  0.4068
37214SOL    HW217735   6.681   6.030   3.765 -0.7959 -1.0114 -0.7504
37215SOL     OW17736   2.958   9.697   5.839  0.0242  0.4148 -0.6373
37215SOL    HW117737   2.932   9.648   5.917  0.0141  2.0791  0.4739
37215SOL    HW217738   3.042   9.659   5.814 -0.7398 -1.2236 -0.8283
37216SOL     OW17739   5.978   2.745   1.990  0.0154  0.5018 -0.3338
37216SOL    HW117740   6.070   2.755   2.014  0.0949  0.9704 -0.8089
37216SOL    HW217741   5.971   2.655   1.960 -0.0887 -0.1044  1.3944
37217SOL     OW17742   8.974  10.861   0.417 -0.1395  0.0849 -0.3951
37217SOL    HW117743   9.003  10.770   0.414 -0.0131  0.1405 -2.1510
37217SOL    HW217744   8.894  10.859   0.470  0.0893 -0.9747 -0.0615
37218SOL     OW17745   9.614   4.223  10.163 -0.4079  0.2670 -0.3162
37218SOL    HW117746   9.601   4.233  10.257 -0.4168 -0.2462 -0.2601
37218SOL    HW217747   9.638   4.310  10.133 -1.9640  0.8187 -0.0989
37219SOL     OW17748   3.820   1.050   6.456 -0.5582  0.7672 -0.1389
37219SOL    HW117749   3.775   0.996   6.522  0.1643  1.6754  1.1385
37219SOL    HW217750   3.754   1.067   6.389 -0.9983 -1.1236 -0.2411
37220SOL     OW17751   6.527   9.628   1.333  0.5309  0.3862  0.8113
37220SOL    HW117752   6.501   9.637   1.241 -0.0103 -1.2486  0.7687
37220SOL    HW217753   6.501   9.711   1.373 -0.0608  0.7787 -0.3291
37221SOL     OW17754   3.530   4.513   2.110  0.1135 -0.2627  0.6394
37221SOL    HW117755   3.486   4.482   2.031 -1.0480 -0.2923  1.2805
37221SOL    HW217756   3.525   4.440   2.172 -2.5588  1.0053  2.1240
37222SOL     OW17757   4.863   2.539   3.758  0.3648  0.3130 -0.2078
37222SOL    HW117758   4.790   2.549   3.697 -0.0000 -1.1559 -0.0507
37222SOL    HW217759   4.838   2.591   3.834  0.9538  2.4126 -1.3387
37223SOL     OW17760   4.371   7.373   5.338  0.2581 -0.8418 -0.2495
37223SOL    HW117761   4.294   7.411   5.380 -0.5084  1.4922 -3.3943
37223SOL    HW217762   4.430   7.446   5.325  1.8898 -2.1110 -0.2702
37224SOL     OW17763   2.708   7.073   9.015  0.0271  0.2614 -0.4996
37224SOL    HW117764   2.616   7.049   9.032  0.1553 -0.8971 -1.3526
37224SOL    HW217765   2.754   7.049   9.096 -0.3460  0.4521 -0.2264
37225SOL     OW17766   3.244   9.017   8.194 -0.1258  0.4530  0.2929
37225SOL    HW117767   3.194   9.055   8.265  0.0398  1.2073  0.0167
37225SOL    HW217768   3.188   8.948   8.158 -0.8728  1.1439  0.1206
37226SOL     OW17769   6.543   4.261   6.621  0.0583  0.8033  0.1984
37226SOL    HW117770   6.569   4.207   6.546 -0.0003  1.5129 -0.3401
37226SOL    HW217771   6.596   4.341   6.613 -0.0275  0.9308  0.8558
37227SOL     OW17772   8.192   4.571   8.006  1.0516  0.6268  0.1304
37227SOL    HW117773   8.242   4.512   8.063 -1.2265 -0.0454  1.6053
37227SOL    HW217774   8.143   4.512   7.949  1.4794  1.2415 -0.8929
37228SOL     OW17775   2.370   5.249   8.666  0.3920  0.0628 -0.6981
37228SOL    HW117776   2.431   5.321   8.679  2.1926 -1.5297  0.0691
37228SOL    HW217777   2.292   5.274   8.715  0.5333  1.9432 -1.3501
37229SOL     OW17778   5.950   9.818   8.614 -0.0325 -0.0373  0.5223
37229SOL    HW117779   5.973   9.778   8.530 -1.2072 -0.7660  0.5290
37229SOL    HW217780   6.021   9.791   8.673  0.9589  0.7268 -0.2892
37230SOL     OW17781   8.988   8.236   8.646  0.0486 -0.8195  0.5554
37230SOL    HW117782   8.928   8.162   8.648 -0.0787 -0.7793 -0.7144
37230SOL    HW217783   8.932   8.312   8.628  0.3397 -0.6272  0.4408
37231SOL     OW17784   3.385   6.634   7.385  0.2622 -0.1453  0.4886
37231SOL    HW117785   3.292   6.637   7.406  0.4191 -1.4699  1.5322
37231SOL    HW217786   3.426   6.697   7.445  0.1233 -0.1053  0.5406
37232SOL     OW17787   0.995   2.525  10.044 -0.1221  0.5120  0.3129
37232SOL    HW117788   0.900   2.515  10.052 -0.5240 -1.0889 -3.8843
37232SOL    HW217789   1.031   2.456  10.100 -1.3009  1.3593  2.2403
37233SOL     OW17790   6.881   8.903  10.160  0.3561 -0.3404  0.4410
37233SOL    HW117791   6.942   8.833  10.183  0.8483 -0.2094 -0.3971
37233SOL    HW217792   6.934   8.982  10.163  0.3412 -0.2704 -0.6585
37234SOL     OW17793   1.335   0.455   7.114 -0.0007 -0.0311 -0.1287
37234SOL    HW117794   1.327   0.409   7.030  1.2661 -2.2506  0.8877
37234SOL    HW217795   1.279   0.406   7.174 -0.9828  1.6015  0.3663
37235SOL     OW17796   6.472   7.704   6.745 -0.5479  0.4330  0.1766
37235SOL    HW117797   6.413   7.651   6.691 -0.0648 -0.0925  0.1543
37235SOL    HW217798   6.443   7.794   6.731 -0.9461  0.2326 -0.3192
37236SOL     OW17799   9.030   5.217   8.724  0.4695  0.2462 -0.3776
37236SOL    HW117800   9.076   5.287   8.679  0.4267  1.8262  1.8658
37236SOL    HW217801   8.951   5.202   8.671  1.4074  0.5199 -1.9063
37237SOL     OW17802   5.760   8.396   7.913  0.0417 -0.6946 -0.3057
37237SOL    HW117803   5.710   8.376   7.833 -0.3684  1.5562 -0.6759
37237SOL    HW217804   5.695   8.433   7.973  0.7676 -0.2747  0.2337
37238SOL     OW17805  10.407   3.819   9.999 -0.1593 -0.4257 -0.4377
37238SOL    HW117806  10.453   3.819   9.915 -0.0049 -0.9990 -0.3530
37238SOL    HW217807  10.325   3.865   9.981 -0.1518 -0.5935 -0.9162
37239SOL     OW17808   6.294   4.935  10.488  0.1416 -0.5708  0.1972
37239SOL    HW117809   6.276   4.853  10.442 -0.9193 -0.0053 -0.4380
37239SOL    HW217810   6.209   4.963  10.521  0.5681  0.0483  0.8013
37240SOL     OW17811   1.883   3.635   7.443  0.3698 -0.7159 -0.2664
37240SOL    HW117812   1.873   3.541   7.455 -2.2753 -0.7187 -1.8427
37240SOL    HW217813   1.886   3.648   7.349 -0.1326  0.8309 -0.1054
37241SOL     OW17814   2.101   8.317   7.656 -0.2595 -0.2233  0.4249
37241SOL    HW117815   2.120   8.229   7.690  1.6618  0.5173  1.4091
37241SOL    HW217816   2.121   8.311   7.563 -0.2656 -0.8614  0.4574
37242SOL     OW17817   7.348   8.763   3.196  0.1340  0.2108 -0.1290
37242SOL    HW117818   7.271   8.820   3.201 -0.1294  0.1467 -2.5336
37242SOL    HW217819   7.325   8.687   3.249 -0.5665  1.1158  0.9363
37243SOL     OW17820   1.876   4.353   3.814 -0.2940  0.0903 -0.5044
37243SOL    HW117821   1.919   4.415   3.755  0.7486  0.3690  0.5087
37243SOL    HW217822   1.812   4.406   3.862  0.5668  0.3936  0.3309
37244SOL     OW17823   9.284   1.432   9.442  0.4534  0.4175  0.1725
37244SOL    HW117824   9.367   1.391   9.417 -0.7013 -0.9593 -1.7609
37244SOL    HW217825   9.307   1.521   9.467  2.4991  0.1334 -0.5238
37245SOL     OW17826   8.804   4.796   7.012  0.1070 -0.0921  0.2822
37245SOL    HW117827   8.894   4.795   7.044 -0.6074 -1.3588  2.4886
37245SOL    HW217828   8.796   4.717   6.958  0.2530 -0.1437  0.3359
37246SOL     OW17829   1.515   1.214   1.410 -0.0956  0.4870  0.1470
37246SOL    HW117830   1.535   1.303   1.381 -0.9345  0.8414  0.6241
37246SOL    HW217831   1.552   1.209   1.498  1.5917 -0.2690 -0.5652
37247SOL     OW17832   8.690   1.510   9.840  0.2367  0.0374  0.0114
37247SOL    HW117833   8.609   1.459   9.841 -1.0565  2.0014  0.8050
37247SOL    HW217834   8.721   1.508   9.930  1.2563 -0.8898 -0.3272
37248SOL     OW17835   1.302   9.835   0.191  0.2646 -0.0519  0.0389
37248SOL    HW117836   1.370   9.888   0.150 -0.8264  1.5794  0.2011
37248SOL    HW217837   1.325   9.835   0.284  0.5340 -0.2692 -0.0282
37249SOL     OW17838   6.134   1.520   2.872  0.1889 -0.1310  0.3603
37249SOL    HW117839   6.201   1.462   2.835  1.1246  0.8880  0.3962
37249SOL    HW217840   6.051   1.481   2.845  0.8010  0.2617 -2.3879
37250SOL     OW17841   8.031   6.553  10.752  0.7356 -0.2450  0.2904
37250SOL    HW117842   7.979   6.562  10.672  2.0181  1.7562 -0.3891
37250SOL    HW217843   7.977   6.595  10.820 -0.2496 -1.7394  0.4820
37251SOL     OW17844   9.613   2.907   2.617  0.8138  0.2707  0.6002
37251SOL    HW117845   9.692   2.854   2.612  0.2760 -0.6117  1.1279
37251SOL    HW217846   9.642   2.991   2.654  1.5245  0.0356  0.5889
37252SOL     OW17847   1.796   3.549   0.250 -0.2813  0.4766 -0.2458
37252SOL    HW117848   1.846   3.484   0.299 -2.6774 -1.3077 -0.0055
37252SOL    HW217849   1.743   3.593   0.316  0.9784  2.4719 -0.4714
37253SOL     OW17850   3.048   4.511   3.721 -0.1139 -0.1509  0.3589
37253SOL    HW117851   3.028   4.577   3.655  2.3449 -1.9642 -2.4273
37253SOL    HW217852   2.967   4.501   3.770 -1.5568  2.4969 -1.2450
37254SOL     OW17853   1.796   0.374   3.595 -0.0751  0.5097 -0.1827
37254SOL    HW117854   1.702   0.376   3.577 -0.3709  0.1008  1.2011
37254SOL    HW217855   1.834   0.330   3.518 -1.4268 -2.4520  0.6642
37255SOL     OW17856   9.257   1.169   5.305  0.6299  0.1177 -0.2277
37255SOL    HW117857   9.300   1.128   5.230  2.0124  0.0875  0.5405
37255SOL    HW217858   9.290   1.258   5.307 -0.8196  0.7001 -0.7003
37256SOL     OW17859   0.288   4.116   6.802 -0.1454 -0.6241 -0.0445
37256SOL    HW117860   0.262   4.062   6.877  1.1765 -0.8477  0.2850
37256SOL    HW217861   0.325   4.053   6.739 -1.4416 -0.4682 -1.0008
37257SOL     OW17862   0.437   3.102   2.024  0.0953  0.1646 -0.4911
37257SOL    HW117863   0.346   3.106   2.052  0.0390 -2.5861  0.0284
37257SOL    HW217864   0.453   3.186   1.983 -1.6812  2.0106  2.2709
37258SOL     OW17865   5.491   7.322   9.629  0.3933 -0.1788 -0.3245
37258SOL    HW117866   5.426   7.362   9.572  0.8313  1.0083 -0.0255
37258SOL    HW217867   5.575   7.338   9.586  0.7281  0.7106  0.6056
37259SOL     OW17868   6.713   2.356   0.743  0.1198  0.5598  0.2146
37259SOL    HW117869   6.626   2.319   0.731  0.4652 -0.1742 -0.1319
37259SOL    HW217870   6.700   2.450   0.749 -0.4730  0.6894 -2.2238
37260SOL     OW17871  10.672   4.034   7.738 -0.1759 -0.4049  0.0234
37260SOL    HW117872  10.698   3.942   7.749  0.7469 -0.1232  0.2888
37260SOL    HW217873  10.629   4.036   7.653  0.0383 -1.0280 -0.1090
37261SOL     OW17874   1.674   1.300   8.627 -0.9952 -0.0141 -0.0080
37261SOL    HW117875   1.583   1.274   8.637 -1.3466 -0.2653 -2.9717
37261SOL    HW217876   1.670   1.391   8.596 -0.2599 -0.0645 -0.2893
37262SOL     OW17877   6.209   2.621   4.139 -0.0488  0.1842 -0.6694
37262SOL    HW117878   6.142   2.690   4.139 -1.3430 -1.0303 -0.9789
37262SOL    HW217879   6.220   2.598   4.231 -0.0016  0.4263 -0.6127
37263SOL     OW17880   0.852   4.132   1.786  0.0752 -0.4725 -0.4735
37263SOL    HW117881   0.916   4.065   1.767 -0.2254 -0.5615 -1.2540
37263SOL    HW217882   0.816   4.156   1.700 -2.3406 -1.8227  0.0547
37264SOL     OW17883   9.569   3.044   6.357 -0.4299  0.4211 -0.1824
37264SOL    HW117884   9.635   3.059   6.424  0.7513  1.3786 -1.5094
37264SOL    HW217885   9.609   2.982   6.296 -0.9407  0.6153 -0.7347
37265SOL     OW17886   2.788   5.637   2.126 -0.3354 -0.2558 -0.7713
37265SOL    HW117887   2.846   5.701   2.168  1.7771 -2.0909 -0.6514
37265SOL    HW217888   2.739   5.598   2.199 -0.4527  0.1186 -0.6498
37266SOL     OW17889   7.260   8.970   1.704 -0.0731 -0.0641  0.4299
37266SOL    HW117890   7.324   8.900   1.719 -0.5634 -0.5956  0.0930
37266SOL    HW217891   7.192   8.929   1.650  0.7238  1.2489 -1.7134
37267SOL     OW17892   1.189   2.547   3.362 -0.3152 -0.2678 -0.2122
37267SOL    HW117893   1.258   2.590   3.412 -2.1431  0.1017  2.1578
37267SOL    HW217894   1.232   2.520   3.281  1.6939  3.3214 -0.5586
37268SOL     OW17895   5.110   4.045   9.628 -0.0735 -0.6518 -0.2138
37268SOL    HW117896   5.051   4.120   9.635  0.2619 -0.2792 -1.2143
37268SOL    HW217897   5.172   4.056   9.700 -0.0822 -0.0106 -0.3018
37269SOL     OW17898  10.807   8.885  10.121 -0.3509  0.1564  0.3322
37269SOL    HW117899  10.721   8.846  10.137  0.2063 -1.2686  0.0186
37269SOL    HW217900  10.826   8.863  10.029  0.1510  0.8557  0.2629
37270SOL     OW17901   5.464  10.813   2.421 -0.5086 -0.3323  0.0612
37270SOL    HW117902   5.506  10.883   2.370  0.4871  2.4354  4.1880
37270SOL    HW217903   5.382  10.851   2.451 -1.4990 -2.2125 -0.0889
37271SOL     OW17904   7.484  10.439   8.758 -0.1913  0.4136 -0.1811
37271SOL    HW117905   7.460  10.509   8.818 -1.9100  0.5420 -0.9680
37271SOL    HW217906   7.418  10.371   8.772 -0.7933  0.5548 -2.0816
37272SOL     OW17907   8.805   7.785  10.218 -0.1528 -0.1919 -0.3314
37272SOL    HW117908   8.773   7.715  10.162 -0.0183 -0.6474  0.1535
37272SOL    HW217909   8.898   7.768  10.228 -0.4019 -0.8951  1.0926
37273SOL     OW17910   6.121   7.614   8.054  0.1012  0.2083 -0.2858
37273SOL    HW117911   6.164   7.699   8.050  1.8030 -0.5635  0.5300
37273SOL    HW217912   6.146   7.570   7.972  0.3003  0.0116 -0.1209
37274SOL     OW17913   6.075   0.071   9.660 -0.3835  0.3702  0.2888
37274SOL    HW117914   6.057   0.163   9.675 -0.5857  0.2624  0.7144
37274SOL    HW217915   5.989   0.031   9.647 -0.3700  0.0809  1.0336
37275SOL     OW17916   2.583   6.444  10.848 -0.0894 -0.0464  0.1693
37275SOL    HW117917   2.628   6.523  10.819 -1.9117  0.6045 -1.0546
37275SOL    HW217918   2.628   6.373  10.802  0.8909  0.3585  0.4664
37276SOL     OW17919   1.626   3.455   8.248  0.4773 -0.8301  1.0829
37276SOL    HW117920   1.630   3.472   8.342 -0.0255 -0.1813  0.9984
37276SOL    HW217921   1.671   3.372   8.237  0.3106 -1.0508  1.9331
37277SOL     OW17922   1.848   8.719   6.554  0.2046  0.7270 -0.3923
37277SOL    HW117923   1.902   8.640   6.543 -1.3924 -0.4052 -0.5159
37277SOL    HW217924   1.806   8.708   6.639 -2.1708 -0.0132 -1.5555
37278SOL     OW17925   2.228   9.624  10.803  0.3901 -0.6818 -0.3503
37278SOL    HW117926   2.222   9.654  10.712 -1.7596 -1.5753 -0.5654
37278SOL    HW217927   2.158   9.672  10.848  1.1738 -0.5497  0.7586
37279SOL     OW17928   2.763   5.695   5.682 -0.1061  0.5327 -0.7633
37279SOL    HW117929   2.743   5.789   5.682 -0.2571  0.5163  0.2211
37279SOL    HW217930   2.714   5.660   5.756 -0.0463 -0.3282 -1.1204
37280SOL     OW17931   3.745   3.627   9.952  0.2887  0.6685 -0.2849
37280SOL    HW117932   3.742   3.609   9.858 -0.9886  0.8391 -0.3044
37280SOL    HW217933   3.800   3.558   9.988  0.7372  0.5548 -1.1432
37281SOL     OW17934   4.696   9.435   6.686 -0.5199 -0.1880  0.2533
37281SOL    HW117935   4.745   9.487   6.749  0.0245 -0.6289  0.2077
37281SOL    HW217936   4.759   9.417   6.616 -0.5186 -1.3898  0.5390
37282SOL     OW17937   3.083   9.983   6.297  0.5973 -0.4075  0.3358
37282SOL    HW117938   3.032   9.963   6.219  1.4209 -1.6579  0.0886
37282SOL    HW217939   3.120   9.899   6.324  1.9663  0.3430  0.9071
37283SOL     OW17940   4.000   7.664   1.415  0.3097  0.3174  0.1804
37283SOL    HW117941   3.992   7.591   1.477  1.1242  1.1695  1.3500
37283SOL    HW217942   4.029   7.623   1.333 -0.3534 -0.7888  0.4768
37284SOL     OW17943   9.720  10.347  10.828  0.5940  0.0190 -0.4953
37284SOL    HW117944   9.770  10.316  10.752 -0.2929 -1.1126 -0.6554
37284SOL    HW217945   9.640  10.294  10.827  1.0546 -0.8632  1.8928
37285SOL     OW17946   9.121   2.011   8.911 -0.1887  0.4666  0.4121
37285SOL    HW117947   9.177   1.950   8.958  1.1196 -0.4191 -2.0992
37285SOL    HW217948   9.036   1.966   8.904 -0.1395  0.2544  1.1322
37286SOL     OW17949   6.374   4.219  10.417  0.6281 -0.2732  0.3595
37286SOL    HW117950   6.359   4.265  10.334  0.4610  0.1417  0.6159
37286SOL    HW217951   6.464   4.189  10.411  0.7080 -0.0007  0.1440
37287SOL     OW17952   0.935   7.734   1.933 -0.3982 -0.0072  0.1468
37287SOL    HW117953   1.015   7.754   1.884 -1.1713  0.8833 -0.7787
37287SOL    HW217954   0.940   7.790   2.010  0.0836 -0.3019  0.3395
37288SOL     OW17955   7.515   5.686   0.536 -0.1804 -0.4684 -0.4582
37288SOL    HW117956   7.509   5.639   0.619  0.4960 -0.2764 -0.2955
37288SOL    HW217957   7.544   5.774   0.560 -0.9525 -0.1090 -0.8092
37289SOL     OW17958   4.124   6.189   9.285 -0.6598 -0.2173 -0.0885
37289SOL    HW117959   4.125   6.175   9.190 -1.1983  0.1843 -0.1593
37289SOL    HW217960   4.158   6.277   9.296 -2.2445  0.4223 -0.0519
37290SOL     OW17961   8.332   7.583   9.589 -0.5928  0.4647 -0.7466
37290SOL    HW117962   8.378   7.544   9.515  0.3521 -0.6620  0.3976
37290SOL    HW217963   8.399   7.633   9.636 -1.2225  1.3156 -0.7159
37291SOL     OW17964   4.047   0.008   3.652 -0.1804  0.1782 -0.1264
37291SOL    HW117965   4.058  -0.019   3.561 -0.9009 -0.4936 -0.0270
37291SOL    HW217966   4.036  -0.074   3.700  2.0222  0.3958  0.8526
37292SOL     OW17967   9.779   7.776   0.299  0.6898  0.3781 -0.3302
37292SOL    HW117968   9.783   7.858   0.348  1.5491 -0.2395  0.7173
37292SOL    HW217969   9.790   7.801   0.208 -1.3253  1.6112 -0.2769
37293SOL     OW17970   8.286   9.066   5.392  0.3012 -0.0648  0.1920
37293SOL    HW117971   8.271   8.972   5.379  0.3152 -0.0494  0.0562
37293SOL    HW217972   8.217   9.093   5.452  0.4714 -0.2199  0.4576
37294SOL     OW17973   8.035   5.496   6.328  0.5340 -0.0214 -0.3316
37294SOL    HW117974   8.106   5.475   6.388  1.1462 -0.8475 -1.3088
37294SOL    HW217975   8.003   5.581   6.357 -0.3278 -1.1077  2.1932
37295SOL     OW17976   2.199   7.769   5.340  0.1666  0.5720 -0.2119
37295SOL    HW117977   2.205   7.719   5.258 -0.6516 -1.2184  0.7642
37295SOL    HW217978   2.286   7.763   5.378  0.6127  1.5988 -1.0325
37296SOL     OW17979   7.607  10.356   2.021 -0.3497  0.3088 -0.4246
37296SOL    HW117980   7.623  10.262   2.024  2.3963  0.6398  4.2340
37296SOL    HW217981   7.669  10.389   1.955  1.3482 -0.8643  0.5218
37297SOL     OW17982   3.301   5.589   4.504  0.3292  0.0584 -0.1509
37297SOL    HW117983   3.260   5.648   4.567  0.2097 -0.8968  0.6877
37297SOL    HW217984   3.267   5.618   4.419  1.0103  1.7957  0.1219
37298SOL     OW17985   1.487  10.311   6.584  0.5018  0.4738 -0.0350
37298SOL    HW117986   1.522  10.260   6.511 -0.7221 -0.2873 -0.1285
37298SOL    HW217987   1.487  10.250   6.658  0.7297  0.9051  0.3225
37299SOL     OW17988   7.184   7.159   5.168  0.6659  0.3650 -0.3179
37299SOL    HW117989   7.147   7.244   5.143 -0.0387 -0.1482 -1.0358
37299SOL    HW217990   7.273   7.161   5.134  0.2731  0.3601 -1.3896
37300SOL     OW17991   1.862  10.404   7.765  0.1772  0.0919  0.3780
37300SOL    HW117992   1.884  10.327   7.713  0.6668  0.4372  0.0717
37300SOL    HW217993   1.939  10.461   7.758  0.0389  0.3703  1.0485
37301SOL     OW17994   2.334   1.834   1.113  0.0771  0.0259 -0.6313
37301SOL    HW117995   2.321   1.812   1.021 -1.5546  0.5271 -0.5579
37301SOL    HW217996   2.277   1.773   1.160 -0.0175  0.5645 -0.0391
37302SOL     OW17997   5.055   7.415   1.832 -0.7489  0.4441  0.4828
37302SOL    HW117998   5.014   7.376   1.754  0.7172  1.1867 -0.7148
37302SOL    HW217999   5.117   7.349   1.862  1.4900  1.5473 -1.3472
37303SOL     OW18000   4.904   3.114   8.707  0.0283 -0.0371  0.2927
37303SOL    HW118001   4.861   3.176   8.648 -0.4639 -0.1843  0.4876
37303SOL    HW218002   4.855   3.120   8.789 -0.9518 -1.6871 -0.1158
37304SOL     OW18003   5.961   7.978   0.546 -0.3692  0.3282  0.0722
37304SOL    HW118004   5.983   7.955   0.456 -0.2214  0.1067  0.1660
37304SOL    HW218005   5.917   7.901   0.582 -0.4423  0.4208  0.1870
37305SOL     OW18006   4.329   8.839   1.062  0.2974  0.2551 -0.6523
37305SOL    HW118007   4.323   8.910   0.998 -0.2836  0.2795 -0.5742
37305SOL    HW218008   4.379   8.876   1.135 -0.3647  0.7254 -0.4263
37306SOL     OW18009   6.744  10.648   9.127 -0.7109  0.7585  0.1613
37306SOL    HW118010   6.664  10.604   9.099 -0.2816  0.9904 -1.4928
37306SOL    HW218011   6.713  10.719   9.184 -1.6814  0.8558 -0.4697
37307SOL     OW18012   2.992   2.908   6.855 -0.3415 -0.4421 -0.3461
37307SOL    HW118013   3.028   2.862   6.931  0.5666 -1.0899 -1.1357
37307SOL    HW218014   3.056   2.978   6.837 -1.0006  0.2645  0.0019
37308SOL     OW18015   3.675   9.513   8.589  0.5265  0.5967 -0.1045
37308SOL    HW118016   3.608   9.526   8.655 -0.1052  1.0678 -0.8231
37308SOL    HW218017   3.748   9.473   8.636 -0.8763 -1.5693  0.3494
37309SOL     OW18018   9.410   8.651   5.584  0.1914 -0.2674  0.3795
37309SOL    HW118019   9.440   8.632   5.496 -1.2265  2.6311 -0.8341
37309SOL    HW218020   9.478   8.615   5.641  2.1044 -0.5192 -1.9362
37310SOL     OW18021   3.305   9.209   3.186  0.1105  0.2135  0.3565
37310SOL    HW118022   3.239   9.152   3.227  0.0249  0.0380 -0.0250
37310SOL    HW218023   3.356   9.150   3.131  2.7163 -0.3548  3.0853
37311SOL     OW18024   5.559   8.175   2.418  0.0854 -0.3360  0.3168
37311SOL    HW118025   5.483   8.136   2.376 -0.1773 -0.8535  1.2522
37311SOL    HW218026   5.526   8.257   2.456  0.0577 -0.4133  0.4623
37312SOL     OW18027   2.399   0.790   8.861 -0.1754  0.0887  0.0369
37312SOL    HW118028   2.443   0.717   8.904 -2.2068 -0.7011  0.9134
37312SOL    HW218029   2.433   0.788   8.771  0.9019 -0.9923  0.4346
37313SOL     OW18030   3.085   5.248   5.976 -0.1240 -0.6179 -0.4100
37313SOL    HW118031   3.074   5.165   6.024  1.7730  0.7281  2.6314
37313SOL    HW218032   3.170   5.239   5.933 -0.2494 -0.5276 -0.6731
37314SOL     OW18033  10.618  10.391   1.601 -0.1391 -0.0531  0.6894
37314SOL    HW118034  10.702  10.436   1.604 -0.6017  0.9654 -0.7425
37314SOL    HW218035  10.559  10.448   1.650 -0.5769  0.5832 -0.5594
37315SOL     OW18036   9.454   0.098   7.436 -0.3270 -0.1199  0.2070
37315SOL    HW118037   9.490   0.056   7.514 -0.6692 -0.6799  0.0648
37315SOL    HW218038   9.364   0.119   7.458 -0.5880 -0.7661 -0.2199
37316SOL     OW18039   4.489   3.155   1.878  0.1204 -0.3992  0.1468
37316SOL    HW118040   4.533   3.221   1.826  1.1446 -1.3226 -0.1914
37316SOL    HW218041   4.421   3.120   1.820 -1.0263  0.9315  0.6248
37317SOL     OW18042   6.567   2.283   8.973 -0.4221 -0.1254 -0.0416
37317SOL    HW118043   6.654   2.247   8.953  0.2978  1.6424 -0.2568
37317SOL    HW218044   6.567   2.370   8.933 -1.7144  0.5318  1.3013
37318SOL     OW18045   9.677   8.666   5.991 -0.4535  0.1770  0.4132
37318SOL    HW118046   9.691   8.760   5.983 -1.6656  0.5098  1.7518
37318SOL    HW218047   9.661   8.652   6.084  0.0326 -1.4123  0.2921
37319SOL     OW18048   9.257   6.434   7.110 -0.3928 -0.4398  0.4505
37319SOL    HW118049   9.186   6.378   7.078  0.9220 -1.5343 -0.7066
37319SOL    HW218050   9.213   6.513   7.142 -2.2214 -1.6001  0.9822
37320SOL     OW18051   0.961   3.468   7.254  0.8700  0.0440  0.3838
37320SOL    HW118052   0.882   3.419   7.277  0.7054 -0.3932 -1.0028
37320SOL    HW218053   1.002   3.415   7.186  1.3719  1.1925 -0.2338
37321SOL     OW18054   1.568   7.744   5.055  0.2214 -0.7811 -0.1537
37321SOL    HW118055   1.547   7.651   5.065  0.1326 -0.8404 -0.8190
37321SOL    HW218056   1.515   7.788   5.122  0.3758 -1.2211  0.2647
37322SOL     OW18057   7.181   1.449   0.342 -0.2889 -0.0857 -0.0386
37322SOL    HW118058   7.229   1.380   0.389 -0.6162  0.9679  1.9189
37322SOL    HW218059   7.113   1.401   0.294  1.3291 -1.3923 -1.1695
37323SOL     OW18060   4.183   2.532   0.174 -0.3183  0.7025 -0.0621
37323SOL    HW118061   4.262   2.478   0.173  1.9503  3.6701 -1.8235
37323SOL    HW218062   4.153   2.532   0.083 -2.1603 -0.0289  0.5067
37324SOL     OW18063   3.943   4.618   0.885  0.3690  0.3143  0.7481
37324SOL    HW118064   3.925   4.705   0.922 -0.5007  0.0145  1.0770
37324SOL    HW218065   4.037   4.616   0.873  0.3910  1.3521  0.6209
37325SOL     OW18066   4.183   5.200   1.797  0.3995 -0.1713 -0.3295
37325SOL    HW118067   4.099   5.244   1.808 -0.6780 -2.3601  0.7907
37325SOL    HW218068   4.174   5.118   1.846  2.2166 -1.7617 -2.4394
37326SOL     OW18069   2.082   6.652   8.634 -0.5539  0.0611  0.0750
37326SOL    HW118070   2.020   6.651   8.562  1.1801 -0.2171 -1.4870
37326SOL    HW218071   2.082   6.743   8.665  0.9440  1.0458 -2.4379
37327SOL     OW18072   7.913   2.447   4.961  0.0952 -0.4311  0.8806
37327SOL    HW118073   7.869   2.441   4.877  0.4264  0.0746  0.6615
37327SOL    HW218074   7.855   2.499   5.015  0.8016  1.0147  0.3111
37328SOL     OW18075   5.114   8.806   6.448  0.2872 -0.1172  0.4935
37328SOL    HW118076   5.060   8.733   6.478 -0.7015  1.2903  2.2759
37328SOL    HW218077   5.152   8.774   6.366 -0.5963 -2.3906  0.8800
37329SOL     OW18078   0.253   9.527   7.502  0.2937  0.1678  0.6258
37329SOL    HW118079   0.216   9.571   7.579  0.2394 -0.2397  0.8313
37329SOL    HW218080   0.339   9.568   7.490  0.7157 -0.4474  1.4918
37330SOL     OW18081   4.164  10.769   4.227  0.2639 -0.0053  0.7827
37330SOL    HW118082   4.205  10.848   4.262  2.7308 -0.1906 -1.3512
37330SOL    HW218083   4.070  10.785   4.234  0.6884  2.1451  2.4244
37331SOL     OW18084   3.830   7.717   4.804  0.4224  0.4040 -0.3226
37331SOL    HW118085   3.815   7.627   4.833 -1.1136  1.0160  0.9527
37331SOL    HW218086   3.849   7.765   4.884  1.3753  1.1961 -1.0052
37332SOL     OW18087   6.024   9.604   6.858 -0.3263 -0.7966  0.1380
37332SOL    HW118088   6.022   9.519   6.902  0.3392 -0.8552  0.0657
37332SOL    HW218089   5.990   9.587   6.770  0.4875 -1.1337 -0.1147
37333SOL     OW18090  10.149   0.378  10.013  0.0425 -0.0642 -0.2494
37333SOL    HW118091  10.210   0.420   9.952 -1.6918 -0.5274 -2.4454
37333SOL    HW218092  10.087   0.447  10.036  0.3664 -0.0394  0.5586
37334SOL     OW18093   5.914   3.777   2.025 -0.2237 -0.3366  0.2985
37334SOL    HW118094   5.962   3.783   2.108 -1.0073 -0.5970  0.7778
37334SOL    HW218095   5.852   3.705   2.038 -1.3915  0.5866  0.0296
37335SOL     OW18096   4.891   8.312   6.999  0.4529  0.3307  0.9149
37335SOL    HW118097   4.814   8.369   7.014  0.0219  0.0184 -0.0596
37335SOL    HW218098   4.866   8.228   7.038 -1.0839 -0.7991 -2.2181
37336SOL     OW18099   9.642   9.010   0.936 -0.2317  0.2030 -0.2491
37336SOL    HW118100   9.592   9.058   1.002 -1.6668 -0.3428 -0.8874
37336SOL    HW218101   9.620   9.053   0.854 -0.7543 -0.8935 -0.7075
37337SOL     OW18102   1.807   4.257   9.685 -0.2498  0.2160 -0.3305
37337SOL    HW118103   1.794   4.292   9.597  0.2262  1.5806  0.1150
37337SOL    HW218104   1.727   4.282   9.733 -0.9145 -1.3119 -0.5913
37338SOL     OW18105   8.087   0.805   7.444  0.0328  0.2834 -0.5475
37338SOL    HW118106   7.994   0.793   7.423  0.2605 -1.4856 -0.6574
37338SOL    HW218107   8.132   0.790   7.361  0.4493  1.0547 -0.4748
37339SOL     OW18108   4.917  10.739   6.921 -0.1052  0.3380 -0.3216
37339SOL    HW118109   4.961  10.789   6.853  1.2444  0.4251  0.5804
37339SOL    HW218110   4.916  10.797   6.997  0.7259 -0.6654  0.4828
37340SOL     OW18111   8.034  10.056   0.658  0.3840  0.1679  0.2427
37340SOL    HW118112   8.006  10.089   0.743 -0.9609  0.0801 -0.1493
37340SOL    HW218113   8.017   9.962   0.662 -0.4239  0.2835 -0.4012
37341SOL     OW18114   9.791  10.357   0.154  0.5024  0.8277 -0.6326
37341SOL    HW118115   9.782  10.338   0.061  2.3982  1.5098 -1.0171
37341SOL    HW218116   9.850  10.288   0.186 -0.2339  0.5285  0.1046
37342SOL     OW18117   6.140  10.747   4.116  0.1350  0.2798 -0.0643
37342SOL    HW118118   6.072  10.800   4.075  0.1776  0.5843  0.2484
37342SOL    HW218119   6.128  10.659   4.080  0.5806  0.6664 -1.2271
37343SOL     OW18120   1.747   2.830   8.302  0.6104 -0.1671 -0.1401
37343SOL    HW118121   1.677   2.891   8.324  0.1653 -0.4446 -0.7414
37343SOL    HW218122   1.714   2.744   8.330 -0.1427 -0.5916 -2.1317
37344SOL     OW18123   6.179   3.609   7.789 -0.2542 -0.3181  0.5748
37344SOL    HW118124   6.253   3.554   7.813 -0.3772 -0.4505  0.6533
37344SOL    HW218125   6.188   3.687   7.844 -0.5050 -0.5970  1.0148
37345SOL     OW18126   4.817   9.422   4.321  0.8664  0.1046  0.2038
37345SOL    HW118127   4.756   9.464   4.260  1.0518 -2.1343 -1.6788
37345SOL    HW218128   4.782   9.443   4.408 -1.3507  0.6713 -0.7409
37346SOL     OW18129   9.179   9.826   3.108 -0.5499 -0.0984 -0.3997
37346SOL    HW118130   9.115   9.796   3.044 -1.6957  0.5361  0.4179
37346SOL    HW218131   9.235   9.750   3.123 -1.1622 -0.6906 -1.0671
37347SOL     OW18132   0.968   7.400   5.805 -0.3494 -0.6595  0.2751
37347SOL    HW118133   1.035   7.419   5.871 -0.2727  1.7197 -0.4065
37347SOL    HW218134   0.887   7.392   5.855 -0.0108 -0.7050  0.8326
37348SOL     OW18135   7.296   2.705   9.820 -0.1628  0.3104  0.2065
37348SOL    HW118136   7.351   2.727   9.745  1.2766 -0.0745  1.1059
37348SOL    HW218137   7.217   2.668   9.782 -0.5937  2.4488 -1.1944
37349SOL     OW18138   2.554   8.840  10.124  0.3541  0.1989  0.1080
37349SOL    HW118139   2.638   8.858  10.165  0.8146 -0.1235 -0.6600
37349SOL    HW218140   2.516   8.926  10.107  1.8901  0.5248 -2.2358
37350SOL     OW18141   7.482   3.886   7.626 -0.4660  0.2385  0.1427
37350SOL    HW118142   7.462   3.801   7.665 -0.7794  0.5123  0.5926
37350SOL    HW218143   7.402   3.936   7.636  0.3680  1.3434  1.9663
37351SOL     OW18144   2.457   4.771   4.000  0.0164 -0.5173 -0.1497
37351SOL    HW118145   2.441   4.818   4.082  0.7556  1.4202 -1.0482
37351SOL    HW218146   2.370   4.744   3.970 -0.1917 -2.1294  1.7030
37352SOL     OW18147   4.233   4.344   7.373 -0.3655 -0.1483  0.6009
37352SOL    HW118148   4.246   4.438   7.387 -0.4305 -0.1935  0.9975
37352SOL    HW218149   4.166   4.338   7.305 -0.3769  0.0943  0.5915
37353SOL     OW18150   3.875   1.668   2.387 -0.3188 -0.3382 -0.0297
37353SOL    HW118151   3.863   1.733   2.456 -0.3217  0.9017 -1.1682
37353SOL    HW218152   3.804   1.605   2.401 -1.0730  0.5756  0.3532
37354SOL     OW18153   0.522   5.033   0.673 -0.0599 -0.1782  0.0688
37354SOL    HW118154   0.545   5.065   0.586  1.6209 -0.4248  0.3950
37354SOL    HW218155   0.606   5.019   0.717 -0.8254 -1.6834  1.1439
37355SOL     OW18156   2.667   9.612   8.536 -0.6041 -0.3381 -0.2493
37355SOL    HW118157   2.739   9.647   8.588 -1.3582  1.6117 -0.4609
37355SOL    HW218158   2.596   9.601   8.599 -1.0058  0.4622 -0.5587
37356SOL     OW18159   8.496   1.832   0.733  0.0973 -0.2818  0.4791
37356SOL    HW118160   8.563   1.803   0.671  0.3306  2.9279 -0.9748
37356SOL    HW218161   8.544   1.883   0.798 -0.7328  1.0440  0.0962
37357SOL     OW18162  10.103   4.159   9.685 -0.0929 -0.4661 -0.0971
37357SOL    HW118163  10.032   4.118   9.635 -0.5518 -1.0709  1.0073
37357SOL    HW218164  10.183   4.129   9.642 -0.4665 -1.3301 -0.2242
37358SOL     OW18165   9.234   4.224   0.712  0.0889  0.0926  0.1306
37358SOL    HW118166   9.260   4.249   0.624  2.9622 -3.2989 -0.1876
37358SOL    HW218167   9.312   4.241   0.766 -1.6990  2.4099  2.2069
37359SOL     OW18168   0.654   2.599   3.541 -0.1467  0.3421  0.8684
37359SOL    HW118169   0.645   2.680   3.590  0.2934 -0.5954  2.5698
37359SOL    HW218170   0.738   2.607   3.496 -1.2105  1.8241 -1.0357
37360SOL     OW18171   7.755   1.590   1.289 -0.2680 -0.0103 -0.2594
37360SOL    HW118172   7.775   1.529   1.218  1.4074 -0.2824  0.3843
37360SOL    HW218173   7.676   1.636   1.260 -0.3064 -0.9369 -1.7468
37361SOL     OW18174   6.487   3.091   8.548 -0.1247 -0.0518 -0.5406
37361SOL    HW118175   6.540   3.056   8.476  0.4291  0.9876 -0.6603
37361SOL    HW218176   6.427   3.020   8.570  0.7033 -0.9256 -1.0226
37362SOL     OW18177   7.461   1.395   9.296 -0.2902 -0.1553 -0.0546
37362SOL    HW118178   7.475   1.471   9.240  1.7544  0.8194  1.6145
37362SOL    HW218179   7.407   1.429   9.368 -0.9937 -0.8134 -0.2584
37363SOL     OW18180   1.288   6.825   5.436 -0.0712  0.1633  0.1310
37363SOL    HW118181   1.194   6.842   5.438  0.0250  0.7662 -0.1843
37363SOL    HW218182   1.320   6.873   5.360  0.5858  0.4694  0.5830
37364SOL     OW18183   4.023   5.929   3.707  0.1169 -0.5818 -0.1788
37364SOL    HW118184   3.980   5.863   3.760  1.0872 -1.9366 -1.0204
37364SOL    HW218185   4.075   5.879   3.644  1.4030  0.9838 -0.4233
37365SOL     OW18186   4.986   6.576   2.174 -0.2062  0.2927 -0.8362
37365SOL    HW118187   4.992   6.481   2.175 -0.4681  0.2509 -1.8229
37365SOL    HW218188   4.923   6.597   2.243  2.3621  0.0143  1.7872
37366SOL     OW18189   6.479   3.190  10.651  0.2139 -0.0981  0.5489
37366SOL    HW118190   6.562   3.151  10.624 -0.1852  0.1937 -1.2699
37366SOL    HW218191   6.415   3.119  10.642 -0.3380  0.6078 -1.7795
37367SOL     OW18192   0.913   0.621   3.799  0.4767 -0.0340  0.0240
37367SOL    HW118193   0.928   0.601   3.891 -0.4519  0.7433  0.3637
37367SOL    HW218194   0.818   0.614   3.787  0.5896 -0.1941 -0.8869
37368SOL     OW18195   5.172   7.535   9.734  0.0629  0.2656  0.5483
37368SOL    HW118196   5.143   7.510   9.646 -0.2519 -0.3974  0.8310
37368SOL    HW218197   5.193   7.452   9.777  0.7816  0.6247  0.9105
37369SOL     OW18198   7.058  10.246   2.462 -0.1434 -0.3699 -0.1542
37369SOL    HW118199   6.973  10.267   2.500 -0.4308  1.0615 -1.4879
37369SOL    HW218200   7.113  10.225   2.537 -1.8857 -2.2968  0.6888
37370SOL     OW18201   3.405   8.865   1.229 -0.2940 -0.1034 -0.1161
37370SOL    HW118202   3.358   8.842   1.149 -0.1481  1.8884 -0.8220
37370SOL    HW218203   3.384   8.794   1.290 -2.7693 -0.2161 -0.9779
37371SOL     OW18204   0.672   3.801   9.962 -0.5223 -0.6819  0.7089
37371SOL    HW118205   0.747   3.833   9.912  1.3114 -2.1426  2.3513
37371SOL    HW218206   0.604   3.783   9.896  0.3454  1.1743 -0.7695
37372SOL     OW18207  10.495   9.542   2.560  0.0050 -0.1150 -0.1820
37372SOL    HW118208  10.487   9.476   2.629  1.0536  0.4273  0.4828
37372SOL    HW218209  10.435   9.612   2.587 -0.7317 -0.5700 -0.6260
37373SOL     OW18210   3.416   3.382   6.061  0.2887 -0.7572  0.1690
37373SOL    HW118211   3.388   3.368   6.152  0.8598  1.1279  0.6872
37373SOL    HW218212   3.505   3.348   6.058 -0.1234 -1.8568 -0.0154
37374SOL     OW18213   4.238   5.749   9.579  0.0264  0.2768 -0.6871
37374SOL    HW118214   4.233   5.844   9.585 -0.9187  0.1982 -0.0466
37374SOL    HW218215   4.330   5.729   9.595  0.0263  1.0146  0.3351
37375SOL     OW18216   5.693   4.824   5.987 -0.5394 -0.6104 -0.1820
37375SOL    HW118217   5.603   4.802   5.966 -0.9398  1.8649 -1.4430
37375SOL    HW218218   5.688   4.874   6.069 -0.4285  0.1432 -0.6234
37376SOL     OW18219   8.386   9.712   5.498  0.2213  0.0667  0.1464
37376SOL    HW118220   8.392   9.635   5.555  1.4414 -0.9129 -1.1980
37376SOL    HW218221   8.308   9.758   5.527 -1.2749 -2.3519  0.2191
37377SOL     OW18222   7.493   2.606   2.261 -0.0663 -0.2440  0.0614
37377SOL    HW118223   7.584   2.599   2.231 -0.1946  1.1364 -0.7674
37377SOL    HW218224   7.448   2.651   2.189 -1.0963  0.3532  1.0484
37378SOL     OW18225   7.669   7.930   0.055 -0.5339  0.2173 -0.0531
37378SOL    HW118226   7.745   7.900   0.106 -0.2025  1.6774  0.3415
37378SOL    HW218227   7.696   7.917  -0.036 -0.4679 -0.8152  0.1038
37379SOL     OW18228   2.557   9.377   9.384 -0.0945  0.2963  0.1338
37379SOL    HW118229   2.529   9.458   9.340 -0.9196 -0.0670 -0.0242
37379SOL    HW218230   2.592   9.407   9.468  0.4450  0.8931 -0.2924
37380SOL     OW18231   0.800   1.394   7.828  0.3999 -0.0882 -0.5395
37380SOL    HW118232   0.871   1.454   7.849 -0.0881  0.5086 -0.5643
37380SOL    HW218233   0.811   1.321   7.889  2.0514 -0.8474 -1.6653
37381SOL     OW18234   2.453  10.356   8.073  0.8141  0.0699 -0.6078
37381SOL    HW118235   2.546  10.372   8.087  0.6574 -0.9840  2.3843
37381SOL    HW218236   2.450  10.273   8.026  1.4010 -0.3722  0.1167
37382SOL     OW18237   1.057   2.973   7.734 -0.3668 -0.1508 -0.3140
37382SOL    HW118238   1.151   2.969   7.747 -0.6919 -1.2264  2.5673
37382SOL    HW218239   1.039   2.907   7.668  0.8847  0.2829 -1.1288
37383SOL     OW18240   5.334   9.409  10.463 -0.2444 -0.5272 -0.7593
37383SOL    HW118241   5.342   9.316  10.484 -2.4452 -0.5230  0.2965
37383SOL    HW218242   5.242   9.430  10.479 -0.5050  1.1845 -3.7269
37384SOL     OW18243   4.006   0.692   5.118  0.0890  0.0517  0.2021
37384SOL    HW118244   4.006   0.771   5.173 -0.9615  0.1915  0.0367
37384SOL    HW218245   3.941   0.711   5.050 -0.4402 -1.0942  0.3651
37385SOL     OW18246   9.060   0.078   2.602 -0.4734 -0.1178 -0.1999
37385SOL    HW118247   9.052   0.085   2.698 -0.2128 -2.9134  0.1114
37385SOL    HW218248   9.155   0.078   2.586 -0.5268  1.5988 -0.6154
37386SOL     OW18249   2.194   4.208   4.327 -0.2160 -0.0972 -0.2342
37386SOL    HW118250   2.183   4.169   4.414  1.3148 -1.2117 -0.4926
37386SOL    HW218251   2.269   4.162   4.289 -0.7272  0.4856 -2.0875
37387SOL     OW18252   8.571   0.650   2.156 -0.4959  0.1695  0.6969
37387SOL    HW118253   8.478   0.648   2.136 -0.7167 -0.4509  1.7157
37387SOL    HW218254   8.586   0.738   2.193 -0.5383  0.4940 -0.0393
37388SOL     OW18255   8.268   2.141   3.952 -0.0954 -0.4755 -0.4171
37388SOL    HW118256   8.280   2.196   4.029 -0.5616 -0.5484 -0.2898
37388SOL    HW218257   8.326   2.179   3.886 -0.2498  0.0296 -0.2627
37389SOL     OW18258   5.587   4.127   6.040 -0.9337 -0.2963 -0.2685
37389SOL    HW118259   5.533   4.081   6.105  0.5649  0.4000  1.5272
37389SOL    HW218260   5.634   4.057   5.995  1.2942 -0.7020  2.4072
37390SOL     OW18261  10.498   8.625   7.489  0.8434 -0.4675  0.1367
37390SOL    HW118262  10.492   8.534   7.460  0.1013 -0.5753  0.6169
37390SOL    HW218263  10.408   8.657   7.488  1.3141  1.0851 -2.5485
37391SOL     OW18264   3.897  10.828   5.310 -0.0899  0.0434  1.0192
37391SOL    HW118265   3.976  10.826   5.255 -0.8317 -0.5674 -0.0552
37391SOL    HW218266   3.907  10.908   5.362 -0.2453  1.7543 -1.3995
37392SOL     OW18267   9.749   1.076   6.182  0.3967 -0.5633  0.1247
37392SOL    HW118268   9.682   1.047   6.120  0.1617  1.0889 -0.4199
37392SOL    HW218269   9.831   1.067   6.134  0.1615  1.3204 -0.7121
37393SOL     OW18270   5.945   8.443   3.555  0.4949  0.0077  0.2511
37393SOL    HW118271   5.905   8.361   3.525  1.5253 -0.8241  1.0895
37393SOL    HW218272   5.878   8.483   3.611 -0.1359 -0.0867 -0.4188
37394SOL     OW18273   9.676   3.058  10.327 -0.3554  0.7719 -0.2813
37394SOL    HW118274   9.589   3.064  10.288 -1.0770  0.4541  1.2019
37394SOL    HW218275   9.674   3.121  10.399 -0.4682 -1.3544  1.6965
37395SOL     OW18276   5.941   0.862   7.445 -0.4723  0.3315  0.3845
37395SOL    HW118277   6.004   0.905   7.503 -0.3711  0.4755  0.1688
37395SOL    HW218278   5.864   0.917   7.448  0.4379  1.8620 -1.7070
37396SOL     OW18279   0.590   1.472   0.390  0.7289 -0.0132  0.4533
37396SOL    HW118280   0.609   1.402   0.453 -0.9024 -2.1237 -1.2531
37396SOL    HW218281   0.592   1.429   0.305  2.5432  2.6745 -1.0103
37397SOL     OW18282   4.943   2.687   1.138 -0.0564 -0.6174 -0.4753
37397SOL    HW118283   4.899   2.745   1.201 -0.8058 -1.7565  0.0862
37397SOL    HW218284   4.871   2.651   1.086  0.5873  0.6409 -2.3070
37398SOL     OW18285   8.397   2.398   6.135  0.3157  0.1732  0.8662
37398SOL    HW118286   8.315   2.413   6.181 -1.2023  0.7422 -1.7887
37398SOL    HW218287   8.397   2.305   6.115 -0.7259  0.4822 -0.7935
37399SOL     OW18288   4.101   2.259   6.889  0.6499  0.5798 -0.3922
37399SOL    HW118289   4.106   2.164   6.893  0.5256  0.6090  0.8821
37399SOL    HW218290   4.073   2.278   6.800 -1.3805 -0.6737 -0.0821
37400SOL     OW18291   6.837   1.727   0.037  0.3710  0.0394 -0.5001
37400SOL    HW118292   6.858   1.634   0.034  1.6612  0.3006 -0.2356
37400SOL    HW218293   6.748   1.731   0.071  0.4360 -1.0768 -0.1767
37401SOL     OW18294   6.861   5.459   6.591 -0.6349 -0.3031  0.3777
37401SOL    HW118295   6.871   5.366   6.572 -0.9828 -0.1091 -0.7972
37401SOL    HW218296   6.783   5.485   6.542  1.1431  1.2776 -1.7763
37402SOL     OW18297   5.710   1.621   1.685 -0.7447 -0.0516 -0.5579
37402SOL    HW118298   5.660   1.556   1.735  0.3766 -0.4045  0.1400
37402SOL    HW218299   5.681   1.705   1.720  1.8588 -0.2775  2.7324
37403SOL     OW18300   0.117   3.162   1.706 -0.3112  0.4881  0.1898
37403SOL    HW118301   0.204   3.170   1.668 -0.0427  0.3099  0.7589
37403SOL    HW218302   0.103   3.068   1.714  0.0293  0.5289  1.4089
37404SOL     OW18303   3.682   5.511   1.190  0.0935  0.5904 -0.1583
37404SOL    HW118304   3.667   5.587   1.134 -0.8196 -1.1765 -2.4270
37404SOL    HW218305   3.749   5.460   1.144 -0.5879 -0.8644  0.4065
37405SOL     OW18306   3.748   0.012  10.894 -0.6420  0.4747 -0.5105
37405SOL    HW118307   3.699   0.094  10.896  1.2017  1.7523 -2.3705
37405SOL    HW218308   3.723  -0.029  10.811 -0.2705  0.0015 -0.3941
37406SOL     OW18309   9.150   8.730   5.552 -0.0327 -0.0341  0.2173
37406SOL    HW118310   9.125   8.711   5.462 -1.2097 -0.3573  0.5951
37406SOL    HW218311   9.240   8.697   5.559 -0.7221 -2.1182 -0.2013
37407SOL     OW18312   9.337   4.190   8.463 -0.7566  0.1520 -0.1241
37407SOL    HW118313   9.336   4.199   8.368 -1.5356  1.9559  0.0159
37407SOL    HW218314   9.289   4.109   8.480 -0.6167 -0.1782 -1.2649
37408SOL     OW18315   5.864  10.806  10.004 -0.7277  0.0490  0.4991
37408SOL    HW118316   5.832  10.882   9.956  0.5627  0.0596 -0.4008
37408SOL    HW218317   5.810  10.733   9.971 -1.3602  0.4157  0.7037
37409SOL     OW18318   3.697   8.298   8.331 -0.6307  0.4807  0.5552
37409SOL    HW118319   3.762   8.346   8.384  1.9751 -2.1987  0.0840
37409SOL    HW218320   3.664   8.230   8.390  0.0558 -0.6689 -0.3418
37410SOL     OW18321   1.328   6.992   2.117  0.3268  0.5160 -0.2741
37410SOL    HW118322   1.331   6.910   2.165  1.3841  1.2028  0.8853
37410SOL    HW218323   1.241   6.992   2.076  0.1230 -0.9450  0.0883
37411SOL     OW18324   4.786   4.995  10.179  0.3135 -0.3801  0.5169
37411SOL    HW118325   4.722   5.000  10.250  0.3313  0.5783  0.4860
37411SOL    HW218326   4.818   4.905  10.182 -0.9615 -0.8491  0.5900
37412SOL     OW18327   5.461   0.433   6.786  0.0915 -0.4301 -0.1170
37412SOL    HW118328   5.397   0.502   6.772  1.2595  0.5848 -0.6773
37412SOL    HW218329   5.447   0.371   6.714 -0.6547 -0.5434  0.1239
37413SOL     OW18330   2.328   9.751   4.268  0.0923 -0.8355 -0.5276
37413SOL    HW118331   2.419   9.742   4.240  0.5664  0.9500  0.2957
37413SOL    HW218332   2.289   9.811   4.205  0.2163  0.4258  0.5571
37414SOL     OW18333   0.974   0.933   1.270  0.0199 -0.7762 -0.0882
37414SOL    HW118334   0.997   0.976   1.353 -2.5400  0.0831  0.2698
37414SOL    HW218335   1.033   0.858   1.265  1.8535  0.4701  1.3184
37415SOL     OW18336   8.180   8.380   8.411  0.1441 -0.3262  0.2769
37415SOL    HW118337   8.102   8.325   8.411 -0.2455  0.1412 -1.8339
37415SOL    HW218338   8.154   8.457   8.463 -1.5465  0.6994 -1.8975
37416SOL     OW18339   5.891   2.442   2.560  0.0777  0.1764 -0.2048
37416SOL    HW118340   5.803   2.471   2.536  0.0002 -0.9315 -1.3281
37416SOL    HW218341   5.878   2.367   2.618  0.2963  0.5569  0.3527
37417SOL     OW18342   1.501   0.509   5.584  0.0017 -0.3462  0.1383
37417SOL    HW118343   1.419   0.545   5.617  0.1322 -0.2371  0.3429
37417SOL    HW218344   1.565   0.579   5.596 -0.1573  0.0715 -1.2728
37418SOL     OW18345   8.823   0.650   2.808 -0.0228  0.4943  0.0420
37418SOL    HW118346   8.756   0.638   2.742  0.1717  3.1008 -0.7543
37418SOL    HW218347   8.790   0.603   2.885 -2.4385  1.1390 -0.5187
37419SOL     OW18348   3.480   2.236   5.554 -0.1887  0.7835 -0.1066
37419SOL    HW118349   3.387   2.218   5.565 -0.2834  1.0850 -0.3897
37419SOL    HW218350   3.509   2.172   5.488 -0.0055  0.1317  0.5955
37420SOL     OW18351   2.418   1.470   8.901 -0.4150 -0.1362  0.2688
37420SOL    HW118352   2.379   1.552   8.931  0.3684  0.4329 -0.2179
37420SOL    HW218353   2.433   1.419   8.981  0.1578  0.6834  0.6943
37421SOL     OW18354   4.700   1.649   0.457 -0.5463  0.1946  0.4962
37421SOL    HW118355   4.745   1.670   0.539 -1.7084 -0.8503  1.4368
37421SOL    HW218356   4.708   1.554   0.449  0.7134  0.3981 -1.3283
37422SOL     OW18357   5.234   0.447   9.895 -0.7961 -0.0055 -0.7074
37422SOL    HW118358   5.322   0.482   9.881 -0.5783  0.1982  0.9737
37422SOL    HW218359   5.191   0.512   9.950 -1.0850 -1.3681  0.7521
37423SOL     OW18360   4.097   5.306   4.577 -0.1161  0.0891 -0.6557
37423SOL    HW118361   4.143   5.257   4.646 -0.2144 -1.5693 -1.7102
37423SOL    HW218362   4.074   5.389   4.619  3.0657  0.6929  0.1659
37424SOL     OW18363   3.505   2.521   3.580 -0.4927 -0.8516  0.1802
37424SOL    HW118364   3.566   2.479   3.520 -0.1647  0.7981 -0.6977
37424SOL    HW218365   3.559   2.583   3.629 -0.9356 -1.4881  1.5234
37425SOL     OW18366   7.963   2.278  10.382 -0.3223  0.3557 -0.0889
37425SOL    HW118367   8.005   2.361  10.362  0.8738  0.1521  1.3780
37425SOL    HW218368   7.920   2.293  10.466 -1.2582 -0.1174 -0.4716
37426SOL     OW18369   8.967  10.609   8.318 -0.7349  0.3383  0.4248
37426SOL    HW118370   8.991  10.660   8.241 -1.7419 -0.7236 -0.6336
37426SOL    HW218371   9.013  10.651   8.391  0.8134  0.9222 -0.8600
37427SOL     OW18372   2.929   5.387   0.681 -0.4395  0.0589 -0.2278
37427SOL    HW118373   2.966   5.475   0.667 -0.7266 -0.1319 -2.6423
37427SOL    HW218374   2.838   5.395   0.653 -0.2667 -1.1610 -1.2387
37428SOL     OW18375   1.763   3.899   4.450  0.1209  0.0050 -0.3760
37428SOL    HW118376   1.670   3.916   4.466  0.2399  0.2567  0.0602
37428SOL    HW218377   1.763   3.829   4.385 -0.3899 -0.9779  0.6320
37429SOL     OW18378   5.319   6.900   5.491 -0.0827  0.1948 -0.1116
37429SOL    HW118379   5.335   6.815   5.450 -3.6231 -1.3361  1.2678
37429SOL    HW218380   5.228   6.922   5.467 -0.2959  2.0656  2.0331
37430SOL     OW18381   4.344   9.496   2.351 -0.0699 -0.9377  0.0720
37430SOL    HW118382   4.300   9.490   2.267  0.5228 -1.0978 -0.2304
37430SOL    HW218383   4.418   9.436   2.344  0.0848 -0.8239  0.6465
37431SOL     OW18384   2.943   4.658   5.698 -0.2810  0.7858  0.4708
37431SOL    HW118385   3.036   4.638   5.691  0.0919  2.9050 -2.4539
37431SOL    HW218386   2.901   4.602   5.632 -0.6360  1.9252 -0.3005
37432SOL     OW18387  10.866   8.656   0.518 -0.2658 -0.9694  0.1294
37432SOL    HW118388  10.911   8.692   0.594  1.5578 -2.3180 -0.2388
37432SOL    HW218389  10.794   8.605   0.555 -1.1257  0.6555  0.7720
37433SOL     OW18390   9.187   7.300   8.293 -0.1442 -0.0108 -0.1318
37433SOL    HW118391   9.143   7.361   8.352  0.3391 -0.0868  0.3147
37433SOL    HW218392   9.125   7.287   8.222  0.0792  1.6582 -0.6704
37434SOL     OW18393   2.694   7.311   3.724 -0.0176  0.0738 -0.1159
37434SOL    HW118394   2.707   7.282   3.634 -2.2697 -1.0146 -0.1546
37434SOL    HW218395   2.683   7.231   3.774  1.6073  0.6474  1.2485
37435SOL     OW18396   5.025   4.098   5.403  0.2551  0.2172  0.0011
37435SOL    HW118397   5.101   4.086   5.345  0.2755  0.1542  0.0418
37435SOL    HW218398   5.059   4.150   5.476  0.7975 -1.6340  1.1123
37436SOL     OW18399   1.149   4.578   4.846  0.0002  0.1561  0.3635
37436SOL    HW118400   1.147   4.672   4.862  0.4899  0.1654  0.3640
37436SOL    HW218401   1.120   4.539   4.929 -1.4922  0.3395 -0.0330
37437SOL     OW18402   8.236   7.096   7.445  0.0284  0.0427  0.0674
37437SOL    HW118403   8.289   7.051   7.379 -0.9702 -0.6000 -0.3180
37437SOL    HW218404   8.165   7.035   7.465  0.0628  0.4104  1.4225
37438SOL     OW18405   7.409   0.748   4.230 -0.3262 -0.4495  0.2649
37438SOL    HW118406   7.412   0.807   4.305 -0.0561  0.2382 -0.2765
37438SOL    HW218407   7.338   0.688   4.250  0.3499 -0.8731  1.5044
37439SOL     OW18408   1.448  10.219   3.597 -0.1630 -0.4835 -0.1269
37439SOL    HW118409   1.366  10.252   3.560  0.3590 -2.0255 -2.9549
37439SOL    HW218410   1.502  10.297   3.610 -0.6734  0.2330 -2.0502
37440SOL     OW18411   4.475   4.785   6.853  0.2431  0.2287 -0.5162
37440SOL    HW118412   4.406   4.795   6.787 -0.2528 -0.1669 -0.0742
37440SOL    HW218413   4.438   4.825   6.932  0.9688  1.0129 -0.5611
37441SOL     OW18414   8.352   3.288   6.127 -0.4512  0.0002 -0.5592
37441SOL    HW118415   8.341   3.261   6.218 -1.6033  0.5136 -0.5340
37441SOL    HW218416   8.321   3.214   6.076 -0.0687 -0.1791 -0.5329
37442SOL     OW18417   5.418  10.080   4.001 -0.0119 -0.2084  0.2128
37442SOL    HW118418   5.453   9.991   3.992  2.3498  0.7038 -0.2249
37442SOL    HW218419   5.410  10.093   4.095 -0.9660 -1.0722  0.2713
37443SOL     OW18420   3.633   6.813   4.791 -0.3808 -0.1569 -0.4053
37443SOL    HW118421   3.707   6.753   4.796 -1.4307 -1.5409 -0.7174
37443SOL    HW218422   3.672   6.901   4.792  1.2981 -0.8444 -1.3115
37444SOL     OW18423   5.269   4.593   2.415 -0.2530  0.5313  0.4534
37444SOL    HW118424   5.211   4.669   2.418 -0.3242  0.4617  0.8935
37444SOL    HW218425   5.357   4.630   2.417 -0.2596  0.5744  2.5779
37445SOL     OW18426  10.051   5.930   6.851  0.1103  0.1451 -0.3065
37445SOL    HW118427   9.960   5.956   6.867  0.7250  1.8979  0.5501
37445SOL    HW218428  10.087   5.914   6.938 -0.1902 -3.8502 -0.7243
37446SOL     OW18429   8.093  10.688   0.698 -0.1080 -0.0800 -0.7773
37446SOL    HW118430   8.028  10.645   0.754 -0.8070 -0.3646 -1.7687
37446SOL    HW218431   8.165  10.710   0.757 -1.3656  0.8185  0.4994
37447SOL     OW18432   9.401   4.859   6.641 -0.4351 -0.3963 -1.0363
37447SOL    HW118433   9.397   4.954   6.634  1.8131 -0.1896 -0.3827
37447SOL    HW218434   9.336   4.836   6.707  1.5645  1.1694  1.6775
37448SOL     OW18435  10.294   9.355   5.734 -0.3391  0.3999  0.5532
37448SOL    HW118436  10.223   9.292   5.747 -0.1105 -0.1539 -0.7232
37448SOL    HW218437  10.318   9.383   5.822 -0.9504 -0.7385  1.0985
37449SOL     OW18438   9.118   0.082   9.093 -0.4502  0.3644  0.3387
37449SOL    HW118439   9.185   0.016   9.077 -1.9201 -1.0421 -0.3433
37449SOL    HW218440   9.089   0.108   9.005 -2.6899 -1.1497  0.5231
37450SOL     OW18441   8.796  10.768   1.695 -0.5584  0.0583  0.1145
37450SOL    HW118442   8.831  10.690   1.652 -1.3814  0.7999 -2.0056
37450SOL    HW218443   8.731  10.734   1.757  1.0040 -1.0618  1.2281
37451SOL     OW18444  10.514   8.688   0.325 -0.2114 -0.5155  0.3731
37451SOL    HW118445  10.529   8.603   0.366  1.6249  0.0965  1.0416
37451SOL    HW218446  10.559   8.682   0.241  0.0808 -0.1525  0.5023
37452SOL     OW18447   9.926   9.306   1.498  0.3344  0.4277  0.4410
37452SOL    HW118448   9.921   9.260   1.582 -0.3059  0.7863  0.6104
37452SOL    HW218449   9.965   9.243   1.437 -3.4814 -1.6218 -0.1653
37453SOL     OW18450   8.983   7.363   5.794 -0.6911  0.2026  0.2540
37453SOL    HW118451   9.051   7.301   5.820 -1.5197 -0.2280  1.4872
37453SOL    HW218452   9.011   7.447   5.831 -0.6817  0.0937  0.4927
37454SOL     OW18453   8.890   2.168   0.776  0.0315 -0.4028  0.2267
37454SOL    HW118454   8.924   2.254   0.800  0.4649 -0.3182 -0.6663
37454SOL    HW218455   8.932   2.107   0.837  2.1160 -0.3475 -1.0705
37455SOL     OW18456   0.960   8.076   4.270  0.5421 -0.0511  0.6307
37455SOL    HW118457   1.026   8.012   4.296  0.6503  0.2300  1.0541
37455SOL    HW218458   1.006   8.135   4.210  0.2915 -0.7021 -0.2161
37456SOL     OW18459   1.685   2.286   2.790 -0.2573  0.2573  0.2725
37456SOL    HW118460   1.709   2.314   2.701 -3.4310 -1.3900 -1.3169
37456SOL    HW218461   1.616   2.347   2.816 -1.7127 -1.2286  0.0841
37457SOL     OW18462  10.591   0.770   6.349  0.1485 -0.3058  0.2608
37457SOL    HW118463  10.682   0.790   6.370  0.6518 -0.3140 -1.6560
37457SOL    HW218464  10.594   0.678   6.321 -0.5132 -0.3997  0.4973
37458SOL     OW18465   3.733   0.728   5.730  0.2386 -0.1419 -0.2891
37458SOL    HW118466   3.748   0.653   5.672  0.9406 -0.2169 -0.0164
37458SOL    HW218467   3.722   0.689   5.817  1.4284  0.1096 -0.0071
37459SOL     OW18468   1.751   9.757   4.729 -0.3635 -0.3308 -0.0494
37459SOL    HW118469   1.711   9.806   4.657  2.3489 -0.3212 -1.6810
37459SOL    HW218470   1.817   9.702   4.687  1.3672 -0.3127  2.3994
37460SOL     OW18471   3.179   0.048   7.567  0.1251  0.5310  0.5299
37460SOL    HW118472   3.094   0.005   7.555  0.4404 -0.3857  1.3500
37460SOL    HW218473   3.179   0.120   7.505 -0.1494 -1.0803 -1.4480
37461SOL     OW18474   8.114   8.749   8.396 -0.0636 -0.8334  0.1366
37461SOL    HW118475   8.142   8.798   8.319  0.2567 -0.2530  0.6109
37461SOL    HW218476   8.081   8.667   8.361  0.5966 -0.8098 -0.5796
37462SOL     OW18477   6.399  10.920   3.290 -0.6119 -0.5941  1.1875
37462SOL    HW118478   6.322  10.901   3.236  0.4008  0.7833 -0.9092
37462SOL    HW218479   6.380  11.005   3.329 -0.3219 -0.4284  0.9703
37463SOL     OW18480   2.296   6.639   9.602 -0.0208  0.2829  0.3109
37463SOL    HW118481   2.305   6.731   9.629  1.5428  0.3395 -0.2940
37463SOL    HW218482   2.246   6.642   9.521  0.6835  0.6836 -0.1163
37464SOL     OW18483   8.142   3.839   9.249 -0.2202  0.5776  0.4761
37464SOL    HW118484   8.176   3.761   9.293  0.7467 -0.4313 -1.9143
37464SOL    HW218485   8.220   3.891   9.228 -0.6063  0.8308 -0.3942
37465SOL     OW18486   0.644   8.248   2.306  0.2861 -0.0732  1.0120
37465SOL    HW118487   0.557   8.265   2.343  0.2666  0.8605  0.5855
37465SOL    HW218488   0.705   8.272   2.376  0.2081 -0.5351  1.2408
37466SOL     OW18489   0.263   2.135   0.818 -0.0237 -0.2156 -0.2359
37466SOL    HW118490   0.201   2.206   0.834 -0.2508  0.1260 -2.3122
37466SOL    HW218491   0.293   2.108   0.905 -2.7016 -0.0514  0.8334
37467SOL     OW18492   6.982   8.041  10.442 -0.2898 -0.2345 -0.2878
37467SOL    HW118493   7.004   7.967  10.386  1.0510  0.9989 -1.4743
37467SOL    HW218494   7.022   8.116  10.400  1.6036  0.6701  2.7772
37468SOL     OW18495   3.356   5.392   0.988 -0.3464 -0.0015 -0.0539
37468SOL    HW118496   3.352   5.302   1.020  0.5863 -0.2506 -0.6046
37468SOL    HW218497   3.295   5.440   1.044 -0.6694 -0.9227  0.4044
37469SOL     OW18498   3.675   0.572   3.770  0.1801 -0.6644  0.2723
37469SOL    HW118499   3.602   0.630   3.747 -0.7880 -1.9251  0.1035
37469SOL    HW218500   3.735   0.581   3.696 -0.6442 -0.9689 -0.4514
37470SOL     OW18501   2.783   6.315   7.294  0.0369 -0.1374 -0.0164
37470SOL    HW118502   2.700   6.287   7.331  0.3230 -0.6477  0.2390
37470SOL    HW218503   2.813   6.385   7.352  0.5267 -0.9898  0.7846
37471SOL     OW18504   1.446   2.068   8.162 -0.3389 -0.3221 -0.5113
37471SOL    HW118505   1.515   2.008   8.134  0.2364  0.3920 -0.6479
37471SOL    HW218506   1.454   2.070   8.258 -1.9197 -2.2984 -0.2598
37472SOL     OW18507   0.216   2.949   5.968 -0.6251  0.1294  0.6410
37472SOL    HW118508   0.285   2.969   5.905 -1.5466  0.3891 -0.3232
37472SOL    HW218509   0.169   3.032   5.979 -0.8164 -0.0566  1.2498
37473SOL     OW18510   4.456   6.776   6.635 -0.0838  0.0181  0.2193
37473SOL    HW118511   4.441   6.703   6.575  1.3537  0.8654 -1.2412
37473SOL    HW218512   4.396   6.845   6.604 -0.5357 -0.0969  0.8167
37474SOL     OW18513   7.959   5.859   3.676  0.0484 -0.4733 -0.2041
37474SOL    HW118514   7.909   5.936   3.705  1.7687  0.1361  1.3078
37474SOL    HW218515   7.895   5.807   3.628 -1.5859  1.1239  0.0942
37475SOL     OW18516   5.412   5.390  10.242 -0.2827  0.1634 -0.1180
37475SOL    HW118517   5.459   5.467  10.210  0.2888 -0.2025 -0.1778
37475SOL    HW218518   5.339   5.379  10.181  0.2988 -0.0119 -0.7975
37476SOL     OW18519   3.527  10.569   1.435  0.4777 -0.1501  0.2175
37476SOL    HW118520   3.487  10.515   1.503 -0.4837 -2.1881 -1.8252
37476SOL    HW218521   3.469  10.644   1.427 -0.0206 -0.4463  0.8891
37477SOL     OW18522   3.304   8.712   6.616 -0.7355  0.2459  0.0610
37477SOL    HW118523   3.263   8.783   6.666  0.3052  0.0952  1.1714
37477SOL    HW218524   3.246   8.637   6.628  0.3498 -0.2767  2.5408
37478SOL     OW18525   6.285   1.248   7.117 -0.4977 -0.4513 -0.1978
37478SOL    HW118526   6.301   1.161   7.081  1.6149 -0.0992 -0.2462
37478SOL    HW218527   6.231   1.292   7.051  1.1192 -0.6715 -1.7380
37479SOL     OW18528   2.854   9.747   9.731  0.0601  0.0363  0.5438
37479SOL    HW118529   2.893   9.820   9.779  1.7941 -0.1541 -0.4529
37479SOL    HW218530   2.857   9.776   9.639 -0.0454 -0.9213  0.2353
37480SOL     OW18531   3.712   1.570   1.266 -0.3581  0.2335  0.8876
37480SOL    HW118532   3.622   1.543   1.247  0.0792 -1.0019  0.4787
37480SOL    HW218533   3.714   1.663   1.243 -1.0903 -0.1236 -0.8213
37481SOL     OW18534   6.982   0.980   9.794 -0.2665  0.4505  0.7119
37481SOL    HW118535   6.977   0.972   9.889  0.8692  1.7371  0.9142
37481SOL    HW218536   6.919   1.048   9.772 -0.2202  0.4592  0.6042
37482SOL     OW18537   1.903   5.269   6.752 -0.4269 -0.2766  0.4604
37482SOL    HW118538   1.852   5.189   6.740 -0.6498  0.0450 -0.8970
37482SOL    HW218539   1.838   5.340   6.748 -0.0813  0.0427  0.4488
37483SOL     OW18540   2.704  10.427   8.287  0.6175  0.1623 -0.3550
37483SOL    HW118541   2.770  10.471   8.234  2.5890 -0.5045  1.4387
37483SOL    HW218542   2.637  10.494   8.302  0.3113  0.5704 -3.0149
37484SOL     OW18543   5.561   6.995   3.417 -0.5418  0.2240  0.6757
37484SOL    HW118544   5.504   6.975   3.491 -1.0602 -0.2755  0.1460
37484SOL    HW218545   5.528   7.078   3.383 -2.2417 -0.9866 -0.8306
37485SOL     OW18546   6.973   1.682   5.575 -0.4634 -0.5855  0.4295
37485SOL    HW118547   6.950   1.771   5.551  1.0753  0.3518  2.1836
37485SOL    HW218548   7.051   1.662   5.523  0.2401 -0.2162  1.3189
37486SOL     OW18549   7.828   7.658   6.920  0.0076  0.3828 -0.0427
37486SOL    HW118550   7.800   7.677   7.010  1.0759 -1.0297  0.6215
37486SOL    HW218551   7.747   7.639   6.873 -0.4679 -0.0780  0.9369
37487SOL     OW18552   0.680  10.529   2.103  0.5250  0.0568 -0.1283
37487SOL    HW118553   0.772  10.514   2.083  0.4515 -0.1740 -0.3009
37487SOL    HW218554   0.679  10.546   2.197  0.7476  0.1011 -0.1332
37488SOL     OW18555  10.881   3.592   9.528  0.5130 -0.2924 -0.9150
37488SOL    HW118556  10.864   3.498   9.530  0.4857 -0.3402 -2.4737
37488SOL    HW218557  10.940   3.605   9.455  1.1684  0.8277 -0.2225
37489SOL     OW18558   9.965   9.322   4.105 -0.1634  0.1358  0.0136
37489SOL    HW118559  10.048   9.353   4.070 -0.0121 -0.3689 -0.0781
37489SOL    HW218560   9.902   9.391   4.083 -0.2399 -0.4998 -1.9425
37490SOL     OW18561   2.575   8.634   3.173  0.3679  0.1576  0.3613
37490SOL    HW118562   2.670   8.631   3.161  0.0945 -1.4794 -2.2624
37490SOL    HW218563   2.545   8.695   3.106 -0.5123 -0.4557  0.1854
37491SOL     OW18564   1.347   8.683   4.331 -0.0760 -0.0289  0.3502
37491SOL    HW118565   1.409   8.667   4.260  1.4353  1.7317  1.1894
37491SOL    HW218566   1.313   8.771   4.314 -0.0828  0.2114  1.4974
37492SOL     OW18567   6.482   8.476   4.863 -0.4164  0.2710 -0.5529
37492SOL    HW118568   6.389   8.459   4.876 -0.2688 -0.0518  0.0915
37492SOL    HW218569   6.526   8.427   4.932  0.0880  2.5246  0.8382
37493SOL     OW18570   7.521   6.740   8.787  0.2693 -0.0546  0.1072
37493SOL    HW118571   7.476   6.812   8.742 -2.3263 -1.5665  0.0956
37493SOL    HW218572   7.461   6.666   8.781  2.3163 -1.9244  1.1659
37494SOL     OW18573   2.268   9.931   3.855 -0.3602 -0.1883  0.3267
37494SOL    HW118574   2.341   9.908   3.797 -0.7451 -0.4883 -0.0485
37494SOL    HW218575   2.191   9.930   3.797 -0.5144  1.1647  0.4956
37495SOL     OW18576   8.650   2.656   0.525 -0.7018  0.2016  0.0076
37495SOL    HW118577   8.724   2.715   0.538 -1.0514  0.4247  1.2249
37495SOL    HW218578   8.617   2.676   0.438 -0.8274  1.8646  0.4046
37496SOL     OW18579   9.975   9.408   2.067 -0.0639  0.0049  0.5569
37496SOL    HW118580   9.966   9.315   2.091 -1.2045  0.0706  0.4591
37496SOL    HW218581   9.947   9.412   1.976 -1.2681  0.6171  0.9246
37497SOL     OW18582   6.394  10.440   4.092  0.1249  0.0265 -0.0178
37497SOL    HW118583   6.424  10.414   4.179 -0.5111  0.3372  0.3006
37497SOL    HW218584   6.359  10.360   4.054 -3.0713  0.5452  1.4668
37498SOL     OW18585   7.533   5.913   4.981  0.1598  0.0595  0.0053
37498SOL    HW118586   7.612   5.862   4.960  0.1855 -0.1477  0.5801
37498SOL    HW218587   7.462   5.865   4.938  0.4005  0.5238 -0.9386
37499SOL     OW18588  10.295   1.373   0.502  0.1439 -0.3391 -0.0526
37499SOL    HW118589  10.333   1.287   0.486  0.8978 -0.5715  2.6044
37499SOL    HW218590  10.207   1.367   0.464  0.4691 -1.9973 -0.6271
37500SOL     OW18591   3.581  10.108   5.540  0.5076 -0.9096  0.4064
37500SOL    HW118592   3.497  10.136   5.578  0.3713  0.7483 -0.9632
37500SOL    HW218593   3.560  10.088   5.448  1.4050 -1.5983  0.3393
37501SOL     OW18594   5.978   3.480   4.762 -0.4996 -0.0365  0.4904
37501SOL    HW118595   5.940   3.458   4.677 -0.1575  1.4289 -0.0800
37501SOL    HW218596   6.049   3.417   4.774 -0.7460 -0.4522 -0.1647
37502SOL     OW18597   5.870   9.242   0.498 -0.2607 -0.2055 -0.6599
37502SOL    HW118598   5.784   9.279   0.517 -0.8501 -2.0471  0.4795
37502SOL    HW218599   5.853   9.150   0.475  1.3378 -0.4204 -1.1643
37503SOL     OW18600   7.346   9.485   3.808  0.3008  0.0008 -0.2402
37503SOL    HW118601   7.401   9.524   3.741 -0.2565 -0.2145 -0.8303
37503SOL    HW218602   7.267   9.538   3.810 -0.0739 -0.5399 -0.4058
37504SOL     OW18603   9.233   1.501   6.546 -0.4621  0.0879  0.9196
37504SOL    HW118604   9.184   1.548   6.613  0.1118  0.2477  1.2313
37504SOL    HW218605   9.307   1.558   6.526 -0.1512 -0.3609  0.7789
37505SOL     OW18606   2.528   6.646   7.805 -0.6151  0.4318 -0.1183
37505SOL    HW118607   2.460   6.666   7.869 -1.1102 -0.1639 -0.4473
37505SOL    HW218608   2.531   6.722   7.748  1.2775  1.9030  1.8159
37506SOL     OW18609   4.920   6.504   5.984  0.1267  0.0799 -0.1885
37506SOL    HW118610   4.838   6.532   6.023  0.6595  2.2047 -0.4784
37506SOL    HW218611   4.967   6.460   6.055 -0.3912  0.7031  0.5502
37507SOL     OW18612   8.028   7.270   4.801  0.0253 -0.3338  0.1670
37507SOL    HW118613   7.951   7.276   4.745  0.1326 -0.7073 -0.0233
37507SOL    HW218614   7.994   7.263   4.890 -0.1405  1.0418  0.2295
37508SOL     OW18615   4.737   2.597   5.842 -0.2585  0.5927  0.5395
37508SOL    HW118616   4.660   2.647   5.816 -0.3722  0.3907  0.4882
37508SOL    HW218617   4.811   2.655   5.822 -0.3897  0.7416  0.4867
37509SOL     OW18618   1.947   5.728   6.693 -0.0493 -0.2855  0.3074
37509SOL    HW118619   1.999   5.797   6.652 -0.1635  0.7056  1.7731
37509SOL    HW218620   1.862   5.767   6.707  0.5402  0.1383  3.2811
37510SOL     OW18621   5.879   8.665   6.484  0.0080 -0.6161 -0.2724
37510SOL    HW118622   5.915   8.646   6.397  0.3728 -0.8023 -0.0824
37510SOL    HW218623   5.794   8.705   6.466  1.2088  1.9000 -0.8007
37511SOL     OW18624   7.712   6.992   4.142  0.0876 -0.3036 -0.5811
37511SOL    HW118625   7.702   7.044   4.222 -0.1556 -1.1092 -0.0711
37511SOL    HW218626   7.622   6.978   4.112  0.2211  1.0447 -1.7120
37512SOL     OW18627   5.009   7.055   9.509 -0.1834  0.7322 -0.2155
37512SOL    HW118628   5.062   7.135   9.512 -0.6447  1.0080  1.4220
37512SOL    HW218629   5.071   6.984   9.526  0.1860  0.7403 -1.4371
37513SOL     OW18630  10.399   5.004   3.794  0.0660 -0.6880 -0.3492
37513SOL    HW118631  10.319   5.040   3.755 -1.4285 -1.9767  1.3537
37513SOL    HW218632  10.398   5.036   3.884  1.6491 -0.4988 -0.3792
37514SOL     OW18633   5.983   0.768  10.655  0.1356 -0.4143  0.2525
37514SOL    HW118634   6.006   0.733  10.741 -1.7997 -2.2978  0.1221
37514SOL    HW218635   6.041   0.722  10.594  1.1147  0.4987  0.4664
37515SOL     OW18636   0.669   0.556   8.657  0.3382  0.1579 -0.0831
37515SOL    HW118637   0.618   0.575   8.578 -1.7484 -3.2012  0.2287
37515SOL    HW218638   0.737   0.495   8.627  0.6905  0.3224  0.3899
37516SOL     OW18639   6.075   8.085   7.256  0.2982  0.3445 -0.2822
37516SOL    HW118640   6.006   8.130   7.207  0.7661  0.8958 -0.4431
37516SOL    HW218641   6.149   8.146   7.255  0.5081  0.1223  0.6195
37517SOL     OW18642   5.496   6.958   6.101  0.2174  0.0047  0.1058
37517SOL    HW118643   5.580   6.912   6.099  1.0462  1.4343  0.0529
37517SOL    HW218644   5.475   6.967   6.193  0.0955 -0.3929  0.1182
37518SOL     OW18645  10.120   0.183   7.736  0.4872 -0.0711 -0.2257
37518SOL    HW118646  10.054   0.175   7.666  1.4323 -0.6621 -1.0819
37518SOL    HW218647  10.141   0.276   7.740  0.3194 -0.0153 -0.6326
37519SOL     OW18648   0.696   0.335   7.590 -0.1538 -0.4571  0.4538
37519SOL    HW118649   0.759   0.382   7.645  0.1794 -0.7567  0.3370
37519SOL    HW218650   0.750   0.291   7.524 -0.6333  0.9573 -0.9289
37520SOL     OW18651   5.651   6.676   1.658  0.0094  0.0657 -0.0610
37520SOL    HW118652   5.660   6.691   1.564  1.2193  1.4523  0.2400
37520SOL    HW218653   5.667   6.583   1.669 -2.2194 -0.5708 -1.4366
37521SOL     OW18654   7.109   4.774  10.324  0.0150  0.3000 -0.0056
37521SOL    HW118655   7.201   4.775  10.352  0.4813 -1.2208 -1.3058
37521SOL    HW218656   7.113   4.762  10.229 -1.5153 -1.0880  0.0520
37522SOL     OW18657   9.035   3.586   6.912 -0.3476  0.0102 -0.2368
37522SOL    HW118658   9.048   3.636   6.992 -1.9243 -0.5518  0.4162
37522SOL    HW218659   8.974   3.639   6.860 -1.2149 -0.7186  0.0092
37523SOL     OW18660  10.568   0.613   4.996 -0.4862 -0.0578 -0.1587
37523SOL    HW118661  10.513   0.608   4.919  0.9961  3.3227 -1.6318
37523SOL    HW218662  10.598   0.704   5.000  0.5780 -0.3551  3.6931
37524SOL     OW18663   3.791   2.270   0.180  0.4730  0.3049 -0.2117
37524SOL    HW118664   3.864   2.264   0.119  0.4447 -0.9466 -0.1568
37524SOL    HW218665   3.829   2.251   0.266  0.5960  2.4855  0.2703
37525SOL     OW18666   8.425   6.478   9.341 -0.6467  0.4802 -0.6069
37525SOL    HW118667   8.351   6.516   9.389 -0.8347 -0.7335  0.1057
37525SOL    HW218668   8.498   6.538   9.358 -1.0735  0.8295  0.0367
37526SOL     OW18669   9.736   3.712   9.246  0.2687  0.4080  0.2343
37526SOL    HW118670   9.830   3.733   9.255  0.1133  1.2114  0.1186
37526SOL    HW218671   9.724   3.634   9.299  1.3982 -0.9224 -1.3749
37527SOL     OW18672   1.021   2.394   2.050  0.1355  0.1301 -0.4317
37527SOL    HW118673   1.092   2.343   2.012  1.7458  0.8031  1.4759
37527SOL    HW218674   1.008   2.356   2.137 -2.2899 -0.3428 -0.9428
37528SOL     OW18675  10.900   1.047   1.086  0.3113 -0.3444  0.3914
37528SOL    HW118676  10.857   0.961   1.085 -0.8395  0.1307  2.6512
37528SOL    HW218677  10.953   1.046   1.166 -1.7575  1.9070  1.9322
37529SOL     OW18678   9.590   2.222   0.354 -0.3635 -0.0322  0.0963
37529SOL    HW118679   9.572   2.152   0.417 -1.6169 -1.0196 -1.2659
37529SOL    HW218680   9.520   2.285   0.367 -1.3480 -0.8311 -1.0498
37530SOL     OW18681   6.679   1.853   3.532 -0.0464  0.7208  0.6712
37530SOL    HW118682   6.616   1.922   3.513 -0.2626  0.6865  1.2620
37530SOL    HW218683   6.757   1.899   3.564  0.2058  0.7569  0.0287
37531SOL     OW18684   9.269   6.021   4.472  0.1813 -0.6830  0.0398
37531SOL    HW118685   9.193   5.970   4.446  0.2248 -0.8596  0.2583
37531SOL    HW218686   9.314   5.966   4.536 -0.3747  0.0863  1.1284
37532SOL     OW18687   4.128   2.462   7.092 -0.4570  0.2302 -0.3572
37532SOL    HW118688   4.051   2.513   7.067  0.8507  1.8875 -1.1273
37532SOL    HW218689   4.138   2.397   7.022  0.0656  1.3906 -1.3811
37533SOL     OW18690   6.043   9.021   9.167 -0.0260 -0.0059  0.7332
37533SOL    HW118691   6.123   8.988   9.127  0.1131  1.3970 -0.2506
37533SOL    HW218692   6.047   9.116   9.154 -2.3310  0.0277 -0.3134
37534SOL     OW18693   7.569  10.393   6.234 -0.7223 -0.3554 -0.2935
37534SOL    HW118694   7.552  10.486   6.249 -1.2030 -0.6010  0.7060
37534SOL    HW218695   7.665  10.386   6.240 -0.7970 -0.2399  1.6175
37535SOL     OW18696  10.291   1.897   7.164  0.2358  0.6863  0.7482
37535SOL    HW118697  10.210   1.948   7.169 -0.1491  0.2527 -0.5657
37535SOL    HW218698  10.263   1.806   7.176  0.5135  0.5254  0.2146
37536SOL     OW18699   8.341   4.179   0.636  0.4382 -0.1997 -0.1211
37536SOL    HW118700   8.389   4.259   0.656  0.9386 -0.7255  0.8583
37536SOL    HW218701   8.365   4.119   0.706 -1.6826 -0.4706  0.4555
37537SOL     OW18702   5.561   7.793   2.515 -0.1192 -0.0487 -0.4093
37537SOL    HW118703   5.562   7.833   2.601  1.2430  2.7050 -1.5870
37537SOL    HW218704   5.618   7.716   2.522  1.0147  0.8858  0.8255
37538SOL     OW18705   3.986   1.587   7.687  0.2703 -0.3391  0.7588
37538SOL    HW118706   3.923   1.534   7.735  0.0411  0.0507  0.8943
37538SOL    HW218707   3.938   1.619   7.611  0.2509  0.0942  0.9479
37539SOL     OW18708   9.314   1.949   5.696  0.0473 -0.3749  0.5095
37539SOL    HW118709   9.367   1.914   5.625 -1.8869 -1.0554 -0.6803
37539SOL    HW218710   9.232   1.900   5.691 -0.7852  0.7621  2.1412
37540SOL     OW18711   6.975   3.342   5.509  0.0591  0.2197  0.4462
37540SOL    HW118712   6.892   3.297   5.495  0.9041 -1.3839  0.2587
37540SOL    HW218713   7.002   3.316   5.597  0.8878 -0.2201  0.0806
37541SOL     OW18714   3.995   7.074   1.058 -0.5326 -0.4284 -0.1355
37541SOL    HW118715   3.913   7.114   1.088 -1.9026 -1.4341 -2.2822
37541SOL    HW218716   3.991   7.079   0.963  1.5255 -1.2945 -0.3152
37542SOL     OW18717  10.528   2.712   0.066  0.4882  0.1792  0.2704
37542SOL    HW118718  10.573   2.778   0.013 -0.7548 -1.2606 -2.8162
37542SOL    HW218719  10.444   2.751   0.088  0.3294  0.1702 -0.3123
37543SOL     OW18720   6.376   4.091   9.234 -0.0888  0.2784  0.1116
37543SOL    HW118721   6.358   4.020   9.296 -1.7042  0.5167 -0.0458
37543SOL    HW218722   6.380   4.170   9.289 -2.3252  0.6047 -0.1266
37544SOL     OW18723   5.863   1.663   1.460  0.0240  0.2678 -0.0817
37544SOL    HW118724   5.936   1.604   1.479 -2.5235 -2.8364  0.9300
37544SOL    HW218725   5.795   1.639   1.523 -2.2977  2.2611 -1.6198
37545SOL     OW18726   9.244   4.185   9.725  0.5126 -0.9754 -0.2544
37545SOL    HW118727   9.239   4.256   9.789 -0.3039  0.1951 -1.5593
37545SOL    HW218728   9.329   4.198   9.682 -0.4752  0.5590 -1.9051
37546SOL     OW18729   4.319   1.397   5.775  1.0331 -0.1905 -0.2956
37546SOL    HW118730   4.321   1.452   5.696 -2.4182 -0.7578 -0.9174
37546SOL    HW218731   4.381   1.326   5.755  2.3639  1.1552 -1.2462
37547SOL     OW18732   2.887   7.545   3.810 -0.0013  0.6153  0.5002
37547SOL    HW118733   2.814   7.534   3.750 -1.0218  0.4460  1.7259
37547SOL    HW218734   2.848   7.580   3.890  0.8128 -1.8377  2.0919
37548SOL     OW18735   4.378   1.965   8.484  0.3335  0.5546 -0.3586
37548SOL    HW118736   4.359   1.883   8.437 -3.4444  0.5994  0.7302
37548SOL    HW218737   4.439   1.940   8.552  1.0037 -0.8541 -1.4141
37549SOL     OW18738   6.020   1.949   9.096 -0.6303 -0.0730 -0.3407
37549SOL    HW118739   5.973   2.027   9.124 -0.6057 -0.5214  0.9997
37549SOL    HW218740   5.969   1.876   9.131  1.1784 -0.5740  1.4040
37550SOL     OW18741   3.082   4.996   7.433 -0.3209 -0.0390  0.0100
37550SOL    HW118742   3.133   4.992   7.514 -1.4449  2.7825  0.9773
37550SOL    HW218743   3.008   4.937   7.448  0.5345 -1.1232  0.1513
37551SOL     OW18744  10.285   8.076   8.911 -0.8053 -0.2600 -0.6321
37551SOL    HW118745  10.337   8.018   8.968 -1.0215  1.9432  2.0158
37551SOL    HW218746  10.202   8.030   8.900  0.1996 -1.9679 -1.5195
37552SOL     OW18747   3.494   2.109   4.088  0.4099 -0.0355  0.1687
37552SOL    HW118748   3.574   2.125   4.137 -0.0423  0.0228  0.8927
37552SOL    HW218749   3.423   2.127   4.149 -0.1618 -0.1943 -0.4287
37553SOL     OW18750   1.898   3.223   5.703  0.3762  0.1924 -0.0850
37553SOL    HW118751   1.818   3.235   5.653  0.8600 -0.9226 -1.1961
37553SOL    HW218752   1.924   3.133   5.684  0.7148 -0.1909  2.0176
37554SOL     OW18753   5.192   7.165   6.569 -0.0424 -0.3287 -0.4681
37554SOL    HW118754   5.190   7.257   6.543 -1.4237 -0.3186 -0.3880
37554SOL    HW218755   5.177   7.116   6.489 -2.9809 -0.3368 -0.0023
37555SOL     OW18756   2.684   8.205   8.001 -0.0528 -0.3028 -0.1244
37555SOL    HW118757   2.726   8.158   7.929  2.1206 -1.9252  2.0792
37555SOL    HW218758   2.624   8.141   8.039  0.6440 -0.2883  1.0106
37556SOL     OW18759   6.090   4.730   1.217 -0.0241  0.0470 -0.0004
37556SOL    HW118760   6.080   4.659   1.153  0.1199 -0.1958  0.2460
37556SOL    HW218761   6.182   4.727   1.243  0.1106  0.6624 -0.3794
37557SOL     OW18762  10.269   1.058   1.438 -0.2030 -0.1055  0.3497
37557SOL    HW118763  10.295   0.982   1.386  2.8079  0.8022  0.3256
37557SOL    HW218764  10.244   1.021   1.523  3.3574 -1.1392  1.1287
37558SOL     OW18765  10.016   6.748   0.230 -0.3894  0.2528 -0.3726
37558SOL    HW118766  10.084   6.781   0.172  0.2067  0.8899  0.6626
37558SOL    HW218767   9.971   6.680   0.179  0.2418  0.6592 -1.4862
37559SOL     OW18768   9.943   0.608   6.447  0.4110  0.3018  0.5272
37559SOL    HW118769  10.025   0.648   6.418  0.4565 -0.4385 -0.4231
37559SOL    HW218770   9.953   0.515   6.427 -1.5555  0.4995 -1.9363
37560SOL     OW18771   0.742   3.663   9.087  0.3114  0.6002 -0.5453
37560SOL    HW118772   0.797   3.645   9.011 -1.1110  1.9640 -1.9736
37560SOL    HW218773   0.653   3.647   9.056 -0.3179  1.4235  0.7576
37561SOL     OW18774   2.362   6.152   4.586 -0.1003 -0.0526  0.0414
37561SOL    HW118775   2.455   6.169   4.574 -0.3627  1.2899 -0.2382
37561SOL    HW218776   2.323   6.170   4.500 -0.6945 -0.0065  0.3153
37562SOL     OW18777   5.767   0.820   9.789  0.2689 -0.1694  0.4111
37562SOL    HW118778   5.841   0.863   9.744  0.0622  2.2399  2.1606
37562SOL    HW218779   5.707   0.796   9.718  0.3465  2.6698 -0.7527
37563SOL     OW18780   6.057   4.055   8.053 -0.3168  0.2559 -0.1680
37563SOL    HW118781   6.099   4.130   8.012 -0.8229 -0.4761 -2.1386
37563SOL    HW218782   6.044   4.082   8.144  0.3403  2.1838 -0.5900
37564SOL     OW18783   1.903   3.102   6.893  0.1186  0.2380 -0.4387
37564SOL    HW118784   1.938   3.058   6.816  0.0090 -0.9774  0.1899
37564SOL    HW218785   1.968   3.087   6.962 -1.0419 -1.0871  0.4428
37565SOL     OW18786   0.776   6.017   0.005  0.2562  0.5249 -0.1465
37565SOL    HW118787   0.702   6.063  -0.034  1.2954  1.8101 -0.6732
37565SOL    HW218788   0.773   5.929  -0.033 -1.7169  0.1425  0.8113
37566SOL     OW18789   0.794   6.912   7.877  0.2697 -0.3548  0.0882
37566SOL    HW118790   0.741   6.992   7.873  0.5848 -0.1380  0.2517
37566SOL    HW218791   0.810   6.890   7.785 -0.1805 -0.4760  0.0341
37567SOL     OW18792   3.598  10.861   1.094 -0.0260  0.3733 -0.0734
37567SOL    HW118793   3.530  10.810   1.138 -2.8440  1.1706 -3.1342
37567SOL    HW218794   3.603  10.943   1.144 -1.3648  0.3133  0.2002
37568SOL     OW18795   2.836   6.933   7.941  0.5338 -0.0538  0.2816
37568SOL    HW118796   2.920   6.978   7.950  0.5884 -0.5003  2.6008
37568SOL    HW218797   2.800   6.931   8.029 -1.7322 -0.2988 -0.5753
37569SOL     OW18798   5.398   1.666   3.289 -0.0114 -0.0068 -0.3750
37569SOL    HW118799   5.368   1.698   3.374  1.5019  0.4777  0.0110
37569SOL    HW218800   5.372   1.734   3.228 -0.0484  0.2180 -0.1133
37570SOL     OW18801   1.908  10.562   2.864 -0.1918  0.4084  0.2080
37570SOL    HW118802   1.971  10.624   2.899 -0.1655  0.8353 -0.5711
37570SOL    HW218803   1.961  10.490   2.831 -0.2009  0.1324  0.7849
37571SOL     OW18804   5.119   2.088   5.081  0.8019 -0.0693  0.1915
37571SOL    HW118805   5.164   2.021   5.030 -0.7743  0.5200 -2.1690
37571SOL    HW218806   5.027   2.062   5.078  0.3273  1.4911  0.3044
37572SOL     OW18807   2.468   8.842  10.472 -0.3177 -0.3978 -0.1134
37572SOL    HW118808   2.504   8.923  10.435  1.0377 -0.6930  0.5214
37572SOL    HW218809   2.536   8.777  10.458 -1.2292 -1.3425 -0.2342
37573SOL     OW18810   7.631   6.371   1.563 -0.3112 -0.1791 -0.1742
37573SOL    HW118811   7.615   6.459   1.598 -0.6680 -0.8223  1.3404
37573SOL    HW218812   7.544   6.335   1.547 -0.1634 -0.1948 -0.9950
37574SOL     OW18813   6.784   1.486   0.375  0.1141  0.2265 -0.4182
37574SOL    HW118814   6.799   1.489   0.469  1.5852  0.2000 -0.6178
37574SOL    HW218815   6.854   1.430   0.342 -1.8972 -1.9065 -1.2688
37575SOL     OW18816   2.262   1.482   4.791  0.7208  0.2741 -0.1333
37575SOL    HW118817   2.184   1.433   4.762  0.6058  1.0534 -1.1979
37575SOL    HW218818   2.251   1.569   4.752  2.0427  0.4399 -0.1539
37576SOL     OW18819   0.439   1.750   4.177  0.5193 -0.0305  0.4292
37576SOL    HW118820   0.393   1.773   4.096  1.5370 -0.2600 -0.2316
37576SOL    HW218821   0.371   1.748   4.244 -0.4031 -0.2244 -0.4947
37577SOL     OW18822   3.606  10.271   6.273  0.4710  0.3307  0.0484
37577SOL    HW118823   3.553  10.199   6.241 -0.8439  1.7736 -1.1865
37577SOL    HW218824   3.647  10.237   6.353 -0.3789 -1.6303 -0.2867
37578SOL     OW18825   8.546   7.214   2.828  0.3957  0.7653  0.5068
37578SOL    HW118826   8.554   7.258   2.913  0.7295 -0.8556  1.3525
37578SOL    HW218827   8.460   7.242   2.795 -0.3429  0.4019  2.0141
37579SOL     OW18828   7.555   8.927   7.535 -0.1627  0.3649  0.3096
37579SOL    HW118829   7.475   8.972   7.561 -1.3344 -1.2869 -0.3115
37579SOL    HW218830   7.573   8.866   7.606  1.4782  1.7997  1.1995
37580SOL     OW18831   2.757   6.005   5.098 -0.3498  0.3937  0.2619
37580SOL    HW118832   2.790   5.965   5.017 -0.6948  0.6516 -0.0095
37580SOL    HW218833   2.664   6.022   5.080 -0.8994 -1.1738  1.3280
37581SOL     OW18834   9.975   9.752   4.825 -0.3821  0.2981  0.2006
37581SOL    HW118835   9.948   9.682   4.885  2.2118  0.5583  1.8407
37581SOL    HW218836  10.022   9.707   4.755 -0.1037  0.2778  0.4002
37582SOL     OW18837   8.094   2.542   7.539 -0.4158 -0.3341  0.2123
37582SOL    HW118838   8.163   2.486   7.575  0.1289  0.1340 -0.0835
37582SOL    HW218839   8.137   2.591   7.468 -1.5266 -1.4001 -1.2428
37583SOL     OW18840   7.186   1.980   8.719 -0.1926  0.2821  0.1723
37583SOL    HW118841   7.257   1.976   8.655  1.2829 -1.0503  1.7784
37583SOL    HW218842   7.196   2.066   8.760 -0.9034  0.9828 -1.0712
37584SOL     OW18843  10.474   6.397   7.619 -0.2792  0.5739  0.4032
37584SOL    HW118844  10.440   6.396   7.529 -1.1224  1.8122  0.6725
37584SOL    HW218845  10.531   6.321   7.624 -2.4515 -1.2066 -0.3188
37585SOL     OW18846   2.779   7.120   5.916  0.4439 -0.2576 -0.4139
37585SOL    HW118847   2.768   7.129   6.011  0.9790 -1.6354 -0.2122
37585SOL    HW218848   2.873   7.109   5.903  0.3890  0.0693 -1.1235
37586SOL     OW18849   8.540   5.984  10.841 -0.0043  0.7426  0.2540
37586SOL    HW118850   8.599   6.059  10.837  1.3176 -0.2780  0.1194
37586SOL    HW218851   8.452   6.023  10.846  0.6810  2.2889  0.8123
37587SOL     OW18852   6.097   3.501   6.816 -0.4338 -0.7557 -0.0579
37587SOL    HW118853   6.024   3.449   6.783  1.7529 -2.7030 -2.1787
37587SOL    HW218854   6.148   3.525   6.738  0.4545  1.8354  1.1726
37588SOL     OW18855   8.605  10.874   9.530 -0.0315  0.5120 -0.7396
37588SOL    HW118856   8.671  10.917   9.585 -0.5981  2.0760 -1.2070
37588SOL    HW218857   8.624  10.904   9.442  0.9581 -2.1036 -1.4878
37589SOL     OW18858   3.072   3.128  10.396  0.1666 -0.7184  0.2209
37589SOL    HW118859   3.109   3.068  10.460  0.7295 -1.7513 -1.0276
37589SOL    HW218860   3.118   3.211  10.411 -0.3868 -0.6641  1.7435
37590SOL     OW18861   5.467   9.601   9.948  0.0915 -0.0007  0.0392
37590SOL    HW118862   5.487   9.560   9.864  0.1511  1.5315 -0.7221
37590SOL    HW218863   5.377   9.575   9.967 -0.4475  0.8630 -1.2606
37591SOL     OW18864   8.289  10.843   4.209  0.4761 -0.0503 -0.9779
37591SOL    HW118865   8.324  10.821   4.295 -0.8411 -1.7706 -0.8250
37591SOL    HW218866   8.363  10.880   4.161  1.4245  0.2295  0.6350
37592SOL     OW18867   4.688   9.905   7.139  0.3866  0.0643  0.0237
37592SOL    HW118868   4.660   9.862   7.220 -1.1477 -0.1336 -0.5773
37592SOL    HW218869   4.722   9.990   7.167 -0.2199  0.0335  0.8792
37593SOL     OW18870   6.421   2.563   0.697  0.0882 -0.2251  0.1220
37593SOL    HW118871   6.469   2.646   0.690 -0.3942  0.2185  1.7699
37593SOL    HW218872   6.364   2.563   0.620  1.3988  0.0789 -0.8930
37594SOL     OW18873   8.629   3.182   6.137  0.9070 -0.4262  0.9526
37594SOL    HW118874   8.675   3.240   6.076  1.6304 -0.8296  1.1047
37594SOL    HW218875   8.543   3.224   6.149  0.8017 -0.2660 -0.2232
37595SOL     OW18876   9.432   3.128   0.974  0.5866  0.1005  0.9035
37595SOL    HW118877   9.489   3.088   0.908  0.7366  0.8340  0.5817
37595SOL    HW218878   9.481   3.204   1.006 -0.5534  1.2566 -0.0039
37596SOL     OW18879   5.191   1.226   4.948 -0.3394  0.6193 -0.1105
37596SOL    HW118880   5.149   1.165   5.009 -2.1801  1.6256 -0.3330
37596SOL    HW218881   5.152   1.311   4.968  3.8964  2.4045  1.9317
37597SOL     OW18882   4.692  10.161   9.805 -0.3333  0.0556  0.2014
37597SOL    HW118883   4.680  10.067   9.801  1.1693 -0.3433  2.6929
37597SOL    HW218884   4.679  10.183   9.897 -0.2831  2.2343 -0.2471
37598SOL     OW18885   7.246   4.450   7.231 -0.0442 -0.7585 -0.2821
37598SOL    HW118886   7.159   4.411   7.239 -0.2885 -0.2109 -0.2263
37598SOL    HW218887   7.256   4.503   7.309 -0.2606  0.3402 -0.9844
37599SOL     OW18888   3.050   6.434   5.511  0.3440  0.0450 -0.4490
37599SOL    HW118889   3.043   6.345   5.477  1.6267  0.8859 -3.2232
37599SOL    HW218890   3.028   6.490   5.436  0.6798  2.0953  0.8868
37600SOL     OW18891   1.921   3.697   2.709 -0.0466  0.0541 -0.0765
37600SOL    HW118892   1.916   3.786   2.675  1.0863 -0.9565 -3.2295
37600SOL    HW218893   1.831   3.673   2.730 -0.3031  2.0462  1.3034
37601SOL     OW18894   1.774   2.367   2.494  0.1192  0.0318  0.4254
37601SOL    HW118895   1.863   2.359   2.460 -0.6647  3.0706 -2.9824
37601SOL    HW218896   1.722   2.307   2.439 -0.3173  0.4237  0.4015
37602SOL     OW18897   3.267   6.959   0.826 -0.0873 -0.2881 -0.0942
37602SOL    HW118898   3.184   6.960   0.778  0.2824 -0.9741 -0.7628
37602SOL    HW218899   3.315   6.885   0.789  0.8390  0.1205  0.2688
37603SOL     OW18900   6.856   8.157   0.055  0.6322  0.2732  0.3019
37603SOL    HW118901   6.919   8.196   0.116  1.3775  1.9633 -1.4519
37603SOL    HW218902   6.777   8.210   0.065  0.4662  0.0051  0.4092
37604SOL     OW18903   3.429   5.302   4.813  0.0955 -0.4176  0.1812
37604SOL    HW118904   3.367   5.316   4.741 -1.7101  0.9708  1.8723
37604SOL    HW218905   3.461   5.390   4.834  0.3090 -0.7435  1.2866
37605SOL     OW18906   7.326   9.735   2.642  0.4274  0.1413  0.0589
37605SOL    HW118907   7.304   9.658   2.590 -0.1706  0.7120 -0.5565
37605SOL    HW218908   7.410   9.714   2.683 -0.0728 -1.1173  0.4825
37606SOL     OW18909   5.642   7.515   4.681 -0.6621 -0.3269  0.4719
37606SOL    HW118910   5.601   7.601   4.671 -0.2489  0.0183  1.5008
37606SOL    HW218911   5.666   7.512   4.774  0.1254 -1.1927  0.2497
37607SOL     OW18912  10.158   2.558   8.477  0.1067  0.6395  0.5484
37607SOL    HW118913  10.101   2.607   8.417  0.0311 -0.9175 -0.7141
37607SOL    HW218914  10.107   2.481   8.500  0.6671  0.5653  1.5881
37608SOL     OW18915   8.509  10.860   6.513 -0.0752 -0.1417  0.2147
37608SOL    HW118916   8.509  10.909   6.431  1.6196 -0.8607 -0.2608
37608SOL    HW218917   8.476  10.774   6.490  0.1761 -0.2707  0.3237
37609SOL     OW18918   1.983   6.363   9.531  0.3299  0.4261  0.2218
37609SOL    HW118919   1.950   6.285   9.576 -0.5492  0.6782  0.0362
37609SOL    HW218920   2.063   6.334   9.488 -1.3195 -1.0816 -2.0378
37610SOL     OW18921   2.922  10.592  10.223  0.1159  0.0644 -0.1529
37610SOL    HW118922   2.878  10.508  10.240 -1.8456  0.6826 -1.7520
37610SOL    HW218923   2.929  10.633  10.309  1.0102 -1.6663  0.6440
37611SOL     OW18924   0.726   3.512   8.725 -0.2949 -0.4857 -0.2621
37611SOL    HW118925   0.772   3.557   8.796 -2.5468  1.9727 -0.2252
37611SOL    HW218926   0.768   3.426   8.720  2.2713  0.5353  1.6542
37612SOL     OW18927   4.474   9.092   8.319 -0.1872  0.2618  0.3026
37612SOL    HW118928   4.397   9.095   8.262  0.4182 -2.9534 -0.9345
37612SOL    HW218929   4.446   9.041   8.395  0.5339 -0.4661  0.0981
37613SOL     OW18930   1.631  10.000   4.126 -0.1712 -0.0344  0.4990
37613SOL    HW118931   1.560   9.976   4.068  0.2904  1.1228 -0.5869
37613SOL    HW218932   1.708   9.956   4.090 -0.2133 -0.8511  1.3608
37614SOL     OW18933   5.738   9.654  10.598  0.1558 -0.1644 -0.1471
37614SOL    HW118934   5.827   9.628  10.574 -0.3095 -0.9743 -1.0908
37614SOL    HW218935   5.683   9.582  10.566 -1.0611  1.3075 -1.5567
37615SOL     OW18936   5.837   2.522   4.785 -0.5157  0.2256 -0.0890
37615SOL    HW118937   5.862   2.471   4.707  0.6273  1.9215 -0.9018
37615SOL    HW218938   5.796   2.601   4.749 -1.3884  0.3218  1.0967
37616SOL     OW18939   4.545   8.819   9.435 -0.0822  0.1308 -0.7466
37616SOL    HW118940   4.641   8.826   9.438 -0.1513  0.7194  1.4327
37616SOL    HW218941   4.528   8.769   9.355  2.1367 -1.7266 -0.1650
37617SOL     OW18942   4.868   0.050   8.129 -0.5088 -0.4740 -0.4023
37617SOL    HW118943   4.901   0.140   8.128 -1.9481  0.0884 -0.3687
37617SOL    HW218944   4.873   0.024   8.221 -2.1002  0.3915 -0.0377
37618SOL     OW18945   1.867   0.653   1.762 -0.1578 -0.2814 -0.2775
37618SOL    HW118946   1.775   0.647   1.736 -0.5019  1.1337  0.5047
37618SOL    HW218947   1.915   0.654   1.680 -1.0541  1.7876 -0.8307
37619SOL     OW18948   9.168   0.555   6.068  0.6789  0.6218  0.0601
37619SOL    HW118949   9.150   0.634   6.017 -1.4519  0.4075  0.4123
37619SOL    HW218950   9.187   0.587   6.156  1.0317  0.7991 -0.0774
37620SOL     OW18951   2.675   7.553   0.027 -0.1767 -0.2554  0.2100
37620SOL    HW118952   2.668   7.546  -0.068 -0.7565 -1.4391  0.3263
37620SOL    HW218953   2.606   7.614   0.052  1.2111  1.6030 -0.2882
37621SOL     OW18954   9.346   3.822   6.080  0.2838  0.0454 -0.5432
37621SOL    HW118955   9.438   3.810   6.106  0.0874 -1.2922 -0.3860
37621SOL    HW218956   9.351   3.869   5.997  1.0885  0.4547 -0.2799
37622SOL     OW18957   6.295   1.253   2.209  0.5064 -0.5194  0.2894
37622SOL    HW118958   6.353   1.210   2.272 -1.0168 -1.2918  1.2401
37622SOL    HW218959   6.212   1.263   2.256 -0.1319  0.6004 -0.9894
37623SOL     OW18960   4.920   2.736  10.334  0.1258  0.2585 -0.2779
37623SOL    HW118961   4.851   2.673  10.357  0.9124 -0.5462 -0.0268
37623SOL    HW218962   4.890   2.819  10.370  0.0104 -0.4078  1.2399
37624SOL     OW18963   4.001  10.473   2.408  0.3173  0.0516 -0.8568
37624SOL    HW118964   3.946  10.535   2.360 -0.2848 -0.6158 -1.0338
37624SOL    HW218965   4.030  10.410   2.342 -0.2529 -0.6888 -0.4069
37625SOL     OW18966   0.794   2.588   3.908 -0.1002  0.2871 -0.2585
37625SOL    HW118967   0.819   2.680   3.915  1.7833 -0.0467 -1.7143
37625SOL    HW218968   0.828   2.560   3.823 -1.3803 -1.5491 -0.2289
37626SOL     OW18969   6.417   3.692  10.664  0.2377 -0.5866 -0.1395
37626SOL    HW118970   6.324   3.673  10.675 -0.2428  0.5484 -1.8274
37626SOL    HW218971   6.460   3.608  10.678 -1.1784 -1.4714 -0.8511
37627SOL     OW18972   5.531  10.838   1.456  0.3717 -0.4190 -0.8519
37627SOL    HW118973   5.598  10.889   1.502  0.1787  0.2229 -1.2666
37627SOL    HW218974   5.457  10.835   1.516  0.7755 -1.1667 -0.3730
37628SOL     OW18975  10.391   1.652   8.074 -0.0124  0.2618  0.3497
37628SOL    HW118976  10.381   1.598   8.152  0.4646 -1.1787 -0.5649
37628SOL    HW218977  10.439   1.729   8.105 -1.1996  0.4792  1.7788
37629SOL     OW18978   5.390   8.616   8.938 -0.6067 -0.4617 -0.7136
37629SOL    HW118979   5.422   8.630   9.027 -0.6311  0.7433 -0.8780
37629SOL    HW218980   5.469   8.617   8.884 -0.7819  2.0576 -1.0649
37630SOL     OW18981   7.284  10.926   8.585  0.1727  0.1743 -0.2282
37630SOL    HW118982   7.333  10.846   8.564  2.8020  1.6152 -0.0871
37630SOL    HW218983   7.262  10.917   8.678  4.2033  1.2503  1.0479
37631SOL     OW18984   7.297   2.457   4.598  0.1616  0.0461  0.1321
37631SOL    HW118985   7.366   2.523   4.589 -0.2586  0.3565 -0.9854
37631SOL    HW218986   7.217   2.503   4.575 -0.2607 -0.6152  0.2708
37632SOL     OW18987   9.129   0.067   7.956 -0.5462 -0.3602 -0.0128
37632SOL    HW118988   9.215   0.048   7.993 -0.6713 -2.0800 -0.5100
37632SOL    HW218989   9.116   0.160   7.971  0.2749 -0.5777  2.4195
37633SOL     OW18990   5.052   6.609   6.734  0.7346  0.3106  0.3264
37633SOL    HW118991   5.031   6.531   6.785 -0.9019 -0.0899 -0.8851
37633SOL    HW218992   5.108   6.577   6.664  0.0375  0.2100 -0.1888
37634SOL     OW18993   8.522   9.806   5.801 -0.3123 -0.5686  0.3459
37634SOL    HW118994   8.585   9.868   5.838 -1.1044 -0.4073  1.4895
37634SOL    HW218995   8.551   9.720   5.833  0.0821 -0.6442 -0.2177
37635SOL     OW18996   3.132  10.589   2.422  0.4200  0.5123 -0.6600
37635SOL    HW118997   3.040  10.562   2.427  0.0058  2.0941  1.7876
37635SOL    HW218998   3.140  10.631   2.337 -0.3708 -1.9668 -2.0598
37636SOL     OW18999   3.578   7.058   2.158  0.1023 -0.0764  0.2465
37636SOL    HW119000   3.670   7.032   2.156 -0.4266 -2.1798 -1.0215
37636SOL    HW219001   3.532   6.982   2.121 -2.2805  0.3350  2.1283
37637SOL     OW19002   9.755   9.718   8.047  0.5360 -0.3584 -0.0621
37637SOL    HW119003   9.674   9.733   8.094  0.1621 -1.7746 -0.2069
37637SOL    HW219004   9.814   9.787   8.076 -0.5508  0.3664  0.4397
37638SOL     OW19005   4.172   3.146   3.758  0.1537  0.2261 -0.5177
37638SOL    HW119006   4.210   3.082   3.697  0.5503 -1.6516  1.5789
37638SOL    HW219007   4.079   3.127   3.758  0.2208 -0.1187 -0.1850
37639SOL     OW19008   4.433   4.045   7.915  0.1500 -0.0052  0.5788
37639SOL    HW119009   4.449   4.012   7.827 -1.4202 -0.1923  0.3271
37639SOL    HW219010   4.357   3.995   7.946  0.4774  0.2861  1.9144
37640SOL     OW19011   9.487   5.280   9.317 -0.5058  0.6288  0.5652
37640SOL    HW119012   9.401   5.317   9.337 -0.8618  0.3786 -0.4518
37640SOL    HW219013   9.478   5.187   9.337 -0.2935  0.7035  1.0065
37641SOL     OW19014   4.972   7.256  10.369  0.5121 -0.1136 -0.2962
37641SOL    HW119015   4.884   7.217  10.366 -0.7192  2.4758 -0.8020
37641SOL    HW219016   5.029   7.188  10.332 -1.1644 -2.0611  0.4692
37642SOL     OW19017   7.499   2.916   5.766 -0.0317  0.1853  0.0463
37642SOL    HW119018   7.449   2.966   5.702 -2.4164 -2.7476 -0.5754
37642SOL    HW219019   7.496   2.826   5.735  2.8284 -0.6825  1.8440
37643SOL     OW19020   9.208   0.993   1.045  0.2485  1.0355  0.0837
37643SOL    HW119021   9.137   1.037   1.091  0.6588  1.5291  0.2541
37643SOL    HW219022   9.176   0.904   1.030  0.4488  0.5648  2.1415
37644SOL     OW19023   7.907   9.060   5.819  0.6546  0.3179 -0.1708
37644SOL    HW119024   7.906   9.067   5.914  0.4038  1.2278 -0.2255
37644SOL    HW219025   7.822   9.095   5.791  1.9882  3.3661 -0.8662
37645SOL     OW19026   3.575   3.339   7.521  0.4246 -0.4526 -0.6774
37645SOL    HW119027   3.513   3.370   7.586  1.8131 -0.7581  0.8512
37645SOL    HW219028   3.549   3.248   7.504  0.2316 -0.4602 -0.3375
37646SOL     OW19029   4.590   8.745   6.900  0.2595  0.1981  1.0418
37646SOL    HW119030   4.678   8.731   6.934  0.4731 -0.6002  0.1913
37646SOL    HW219031   4.600   8.748   6.805 -0.5477  0.7610  0.9572
37647SOL     OW19032   2.292   0.116   6.820  0.2076  0.4908  0.3821
37647SOL    HW119033   2.343   0.194   6.798 -1.3716  1.5910  0.4460
37647SOL    HW219034   2.203   0.149   6.832 -0.8429 -1.5507 -1.2251
37648SOL     OW19035   4.518   2.281   0.547 -0.3022 -0.5011 -0.9560
37648SOL    HW119036   4.454   2.210   0.546  0.3965 -1.5014  3.9752
37648SOL    HW219037   4.603   2.237   0.537  0.0475 -0.2695  0.7628
37649SOL     OW19038   1.055   4.772   6.841 -0.0732 -0.0761  0.3481
37649SOL    HW119039   1.057   4.695   6.898  1.9771 -0.6005 -0.3637
37649SOL    HW219040   1.110   4.836   6.886  1.8305 -0.6030 -1.1125
37650SOL     OW19041  10.344  10.841   0.940  0.1408  0.0218 -0.0756
37650SOL    HW119042  10.335  10.930   0.906 -0.3447  0.9911  2.3677
37650SOL    HW219043  10.436  10.833   0.965  0.2341 -0.2776 -0.4864
37651SOL     OW19044   3.849   5.436   9.449 -0.4979 -0.0721 -0.0780
37651SOL    HW119045   3.810   5.349   9.456 -0.4822 -0.1351 -0.6727
37651SOL    HW219046   3.899   5.446   9.530  0.2806 -1.0169 -0.4148
37652SOL     OW19047   3.760   8.668   5.833 -0.2857  0.5676  0.1814
37652SOL    HW119048   3.755   8.641   5.924  0.2035  2.7582  0.9142
37652SOL    HW219049   3.812   8.599   5.790  2.3372  1.0937  2.2618
37653SOL     OW19050   9.678   8.250   7.875 -0.4701 -0.3938 -0.1991
37653SOL    HW119051   9.771   8.264   7.858 -0.3938 -1.5950 -0.9809
37653SOL    HW219052   9.673   8.224   7.967 -0.2308  1.0958  0.2612
37654SOL     OW19053   3.203   3.653   0.831  0.2549 -0.3620  0.3899
37654SOL    HW119054   3.114   3.668   0.797  0.8002  1.1366 -0.5035
37654SOL    HW219055   3.190   3.628   0.922 -1.1008 -0.5621  0.1680
37655SOL     OW19056   7.483   7.516  10.837  0.1346  0.1041 -0.3797
37655SOL    HW119057   7.533   7.573  10.778 -0.6132 -0.7830 -1.9164
37655SOL    HW219058   7.524   7.529  10.923  1.6760  0.9384 -1.2017
37656SOL     OW19059   3.448   3.880  10.121 -0.4106  0.8559  0.1322
37656SOL    HW119060   3.374   3.821  10.123 -0.4363  0.8998  0.6147
37656SOL    HW219061   3.432   3.942  10.193  0.3499  0.5380  0.6006
37657SOL     OW19062   1.688   4.246   1.978 -0.2120 -0.2762 -0.3708
37657SOL    HW119063   1.663   4.160   2.011 -0.2060 -0.5792 -1.1325
37657SOL    HW219064   1.719   4.293   2.055  0.1707 -1.0957 -0.0112
37658SOL     OW19065   0.827   7.776   3.767  0.0985  0.0722 -0.0740
37658SOL    HW119066   0.905   7.790   3.714  0.4839  1.0777  0.7186
37658SOL    HW219067   0.839   7.834   3.843 -1.4485  0.3091  0.0212
37659SOL     OW19068   5.705   0.878   8.052 -0.1010 -0.1900  0.2290
37659SOL    HW119069   5.632   0.828   8.017  1.5730 -1.7017 -1.3243
37659SOL    HW219070   5.721   0.947   7.987  0.3589 -0.3802  0.1324
37660SOL     OW19071   6.168   6.248   7.705 -0.4933 -0.1836 -0.3667
37660SOL    HW119072   6.215   6.315   7.754 -0.5962  0.5859 -1.3054
37660SOL    HW219073   6.156   6.176   7.768 -0.4530  0.7008  0.6755
37661SOL     OW19074   2.385   7.830   8.549  0.0018  0.3816  0.0906
37661SOL    HW119075   2.297   7.858   8.573 -1.2230 -1.4735 -1.8629
37661SOL    HW219076   2.431   7.820   8.632 -2.0548  0.1275  1.2578
37662SOL     OW19077   9.746   8.683   9.895 -0.8054 -0.2625  0.2235
37662SOL    HW119078   9.692   8.617   9.938 -0.5385 -1.7769 -1.6428
37662SOL    HW219079   9.697   8.764   9.903 -1.0901 -0.6015  2.6977
37663SOL     OW19080   7.498   4.877   5.576 -0.1161  0.1544 -0.1322
37663SOL    HW119081   7.409   4.863   5.542 -0.5848  1.6125  0.4015
37663SOL    HW219082   7.513   4.803   5.635  0.2732 -1.8247 -2.5370
37664SOL     OW19083   5.852   5.313   8.965 -0.0557 -0.0220  0.1503
37664SOL    HW119084   5.872   5.363   8.886 -1.1697  0.0626 -0.0926
37664SOL    HW219085   5.814   5.377   9.025  1.2288  0.0221  0.9713
37665SOL     OW19086   9.185   2.083   2.794  0.5333  0.3127 -0.3100
37665SOL    HW119087   9.208   1.993   2.816  0.7382  0.9582  2.5359
37665SOL    HW219088   9.222   2.135   2.865  1.1132  2.7661 -2.2783
37666SOL     OW19089   6.530   9.375   3.627  0.0199 -0.1601  0.5142
37666SOL    HW119090   6.457   9.435   3.612 -1.8381 -2.3020  0.4478
37666SOL    HW219091   6.590   9.391   3.555 -1.5616  0.0222 -0.8130
37667SOL     OW19092   4.724  10.366   9.154  0.2810  0.0424 -0.0366
37667SOL    HW119093   4.787  10.414   9.208 -0.4116  1.6240 -0.5464
37667SOL    HW219094   4.666  10.323   9.217  1.0840 -0.3765  0.4394
37668SOL     OW19095   0.893   0.876  10.511 -0.0723 -0.2175  0.2695
37668SOL    HW119096   0.870   0.900  10.600 -1.9226  0.3528 -0.3143
37668SOL    HW219097   0.971   0.929  10.491  1.3962 -1.5956  2.0498
37669SOL     OW19098   9.197  10.610   7.769  0.2535 -0.5101 -0.2172
37669SOL    HW119099   9.213  10.702   7.750 -0.1052 -0.4239 -0.1222
37669SOL    HW219100   9.138  10.581   7.699 -1.0924 -0.1851  0.7362
37670SOL     OW19101   7.584   5.379  10.797 -0.2103  0.2943  0.4545
37670SOL    HW119102   7.566   5.410  10.886  0.3606  2.1845 -0.0335
37670SOL    HW219103   7.509   5.410  10.746  0.7973  1.7596 -0.2177
37671SOL     OW19104   2.722   0.957   1.770  0.0722 -0.3510  0.0110
37671SOL    HW119105   2.736   0.904   1.691 -1.9149 -1.6775  0.4728
37671SOL    HW219106   2.710   1.046   1.738  0.6638 -0.6343 -1.0519
37672SOL     OW19107  10.905   1.313   1.044 -0.1600  0.2106 -0.1546
37672SOL    HW119108  10.877   1.329   1.134  1.7493 -0.6942  0.6640
37672SOL    HW219109  10.922   1.219   1.039 -0.4922  0.1981 -1.5514
37673SOL     OW19110   2.370   8.567   9.584 -0.1031 -0.6774 -0.0024
37673SOL    HW119111   2.386   8.658   9.558 -2.1164 -0.0749  0.6992
37673SOL    HW219112   2.284   8.569   9.626 -0.3179 -2.9797 -0.2447
37674SOL     OW19113   3.892   0.426   3.402  0.3778 -0.1810 -0.2877
37674SOL    HW119114   3.891   0.437   3.307 -0.9722 -1.8557 -0.5058
37674SOL    HW219115   3.975   0.382   3.420 -0.4323 -2.0920 -1.0182
37675SOL     OW19116   5.638   2.514   2.485  0.1770 -0.8052 -0.1240
37675SOL    HW119117   5.605   2.452   2.420 -3.2588  0.0205  0.6002
37675SOL    HW219118   5.612   2.600   2.451  3.3170  0.1964 -0.2777
37676SOL     OW19119   1.754   4.627   8.151 -0.1009 -0.3119  0.0788
37676SOL    HW119120   1.822   4.695   8.149  0.0443 -0.4194  0.9043
37676SOL    HW219121   1.672   4.675   8.141 -0.0455  0.0781  1.2660
37677SOL     OW19122   2.811   9.860   4.442 -0.9993  0.2805  0.2896
37677SOL    HW119123   2.884   9.801   4.422 -1.4129 -0.0506 -0.2633
37677SOL    HW219124   2.839   9.945   4.407 -0.7872  0.2090  0.2834
37678SOL     OW19125   7.696  10.794   6.657  0.2775  0.0661 -0.2938
37678SOL    HW119126   7.678  10.700   6.652  0.6150 -0.0445  0.3721
37678SOL    HW219127   7.609  10.834   6.669  0.0819 -0.1117 -1.0744
37679SOL     OW19128   9.452   4.927   7.219  0.1732 -0.0348 -0.3145
37679SOL    HW119129   9.476   4.848   7.169  2.5731 -0.1545  0.8772
37679SOL    HW219130   9.460   4.998   7.155 -1.1102 -0.6152 -1.1674
37680SOL     OW19131   9.656   7.384   8.088  0.5519  0.2790 -0.3353
37680SOL    HW119132   9.565   7.378   8.116  0.7214 -1.0390  0.0279
37680SOL    HW219133   9.652   7.399   7.994 -0.0423 -0.5363 -0.4441
37681SOL     OW19134   0.536   2.462   1.368 -0.1997  0.6532 -0.4843
37681SOL    HW119135   0.465   2.432   1.425  0.0635 -2.3672 -1.6007
37681SOL    HW219136   0.492   2.511   1.298 -1.2027 -0.8794 -0.9737
37682SOL     OW19137   6.098   9.464   2.636  0.3813 -0.3554 -0.1791
37682SOL    HW119138   6.121   9.515   2.713 -0.6764 -1.6852  1.0643
37682SOL    HW219139   6.179   9.461   2.584  1.0179  0.8158  0.6925
37683SOL     OW19140   0.449   3.366   2.942 -0.0720 -0.3405 -0.1955
37683SOL    HW119141   0.512   3.437   2.952  0.2605 -0.9135  3.1968
37683SOL    HW219142   0.364   3.407   2.961 -0.0181 -0.5790  0.6084
37684SOL     OW19143   2.814   3.403   3.162 -0.4549  0.0035 -0.4562
37684SOL    HW119144   2.734   3.434   3.119 -1.0766  0.4476  0.9402
37684SOL    HW219145   2.867   3.481   3.174 -0.2477 -0.1288 -0.5071
37685SOL     OW19146   7.952   1.583   0.431  0.7270  0.2064  0.6334
37685SOL    HW119147   8.032   1.628   0.403  1.6043 -0.1178  2.4574
37685SOL    HW219148   7.897   1.652   0.469  1.3286  0.0649  1.8300
37686SOL     OW19149   1.887   1.420   2.281 -0.4640 -0.4215  0.6386
37686SOL    HW119150   1.969   1.463   2.255 -0.1689 -1.2799  0.1251
37686SOL    HW219151   1.914   1.350   2.340 -0.8167 -0.7730  0.3899
37687SOL     OW19152   5.535   8.982   9.507  0.7802  0.1108 -0.0449
37687SOL    HW119153   5.471   9.046   9.541 -0.9130  0.0883 -2.9211
37687SOL    HW219154   5.620   9.020   9.530 -0.1856  2.8328 -0.5457
37688SOL     OW19155   6.497   1.598   4.206  0.0990 -0.1152 -0.2963
37688SOL    HW119156   6.431   1.549   4.157  0.8591 -0.9543 -0.4952
37688SOL    HW219157   6.553   1.637   4.139  0.9886 -1.0520 -0.1114
37689SOL     OW19158   7.939   7.309   5.516 -0.2546 -0.2412 -0.5500
37689SOL    HW119159   7.885   7.350   5.584  0.5041 -3.0934  2.0125
37689SOL    HW219160   7.882   7.241   5.480  0.5352 -1.1714 -0.0824
37690SOL     OW19161   6.072   2.199   1.786  0.5841  0.0909 -0.0901
37690SOL    HW119162   6.148   2.255   1.770  0.2133  0.3019 -1.2272
37690SOL    HW219163   6.097   2.144   1.860  1.8854  0.0836 -0.5146
37691SOL     OW19164   1.933   9.346   2.183 -0.1121  0.7008  0.6056
37691SOL    HW119165   1.948   9.276   2.120 -0.6690  2.1438 -1.2376
37691SOL    HW219166   2.014   9.351   2.233 -0.1909 -1.4444  1.0348
37692SOL     OW19167   3.538   2.521   1.017  0.1945  0.5793  0.1543
37692SOL    HW119168   3.505   2.610   1.009  1.6160  1.0981 -0.1627
37692SOL    HW219169   3.594   2.509   0.940  0.6877 -0.2851  0.6324
37693SOL     OW19170   0.766   6.860   8.833  0.0666  0.7310 -0.0985
37693SOL    HW119171   0.789   6.873   8.741 -0.3298 -0.6376 -0.4089
37693SOL    HW219172   0.840   6.897   8.881  1.2409 -0.3591 -1.0107
37694SOL     OW19173   4.074   9.426   9.478 -0.1584  0.1606  0.2112
37694SOL    HW119174   4.024   9.371   9.418  0.4877  0.6106 -0.7646
37694SOL    HW219175   4.100   9.501   9.425 -0.7431  1.2600  1.4181
37695SOL     OW19176   8.246  10.543   4.590  0.2531 -0.1546  0.9597
37695SOL    HW119177   8.319  10.575   4.642 -1.1408 -1.3392  3.8633
37695SOL    HW219178   8.270  10.453   4.568  0.1606 -0.1605  0.8753
37696SOL     OW19179   3.650   7.451   7.228 -0.8668  0.3637  0.0892
37696SOL    HW119180   3.670   7.453   7.134  0.3626 -1.9547  0.2236
37696SOL    HW219181   3.598   7.371   7.239 -0.1394  0.0502  1.4868
37697SOL     OW19182  10.337   7.118   8.216  0.2793  0.0189 -0.0864
37697SOL    HW119183  10.341   7.068   8.134  0.6524 -0.3670  0.1673
37697SOL    HW219184  10.304   7.056   8.280  2.6444 -0.5148  0.6881
37698SOL     OW19185   5.105   2.659   0.921  0.7938  0.1262  0.2324
37698SOL    HW119186   5.190   2.694   0.949  1.3628 -1.0893  0.0813
37698SOL    HW219187   5.045   2.685   0.990  0.8146  2.7833 -0.6267
37699SOL     OW19188   3.075  10.922   1.324 -0.4175  0.0792 -0.2832
37699SOL    HW119189   3.090  10.829   1.337 -1.7795 -0.6001 -2.7855
37699SOL    HW219190   3.154  10.954   1.281  0.6153  0.4615  1.7718
37700SOL     OW19191   4.032   5.491   7.664 -0.3915  0.0583 -0.0191
37700SOL    HW119192   3.971   5.460   7.598  1.0526 -0.5450 -1.1358
37700SOL    HW219193   3.982   5.553   7.717 -2.0046 -0.5969 -0.7242
37701SOL     OW19194   7.137   7.456   0.652 -0.6073 -0.4222  0.3140
37701SOL    HW119195   7.113   7.545   0.626 -2.2774 -0.3758  1.8246
37701SOL    HW219196   7.215   7.467   0.707  0.3256 -0.1114 -1.0302
37702SOL     OW19197   2.218   4.500   1.329  0.0064 -0.2125  0.0011
37702SOL    HW119198   2.146   4.462   1.278 -0.6790  0.8500  0.1363
37702SOL    HW219199   2.276   4.426   1.347  0.0136 -0.7163 -1.8740
37703SOL     OW19200  10.869   5.864   5.821 -0.2206 -0.3865 -0.0109
37703SOL    HW119201  10.823   5.853   5.904 -0.3153  0.6205  0.0829
37703SOL    HW219202  10.905   5.777   5.802  0.0994 -0.5633  1.2573
37704SOL     OW19203   2.351  10.872  10.447 -0.3851  0.2166  0.0707
37704SOL    HW119204   2.325  10.963  10.431 -1.6849  0.0125  0.8593
37704SOL    HW219205   2.374  10.838  10.360  1.5278  1.6698 -0.0683
37705SOL     OW19206   9.137   5.150  10.280 -0.5765 -0.2287 -0.4030
37705SOL    HW119207   9.152   5.163  10.374  0.0379  0.0479 -0.5305
37705SOL    HW219208   9.118   5.057  10.271  0.5594 -0.5071 -0.1408
37706SOL     OW19209   4.646   9.904   9.856  0.0244  0.4761 -0.2342
37706SOL    HW119210   4.638   9.815   9.823 -0.4144  0.5843 -0.4270
37706SOL    HW219211   4.557   9.928   9.884  0.4515  0.2282  1.4493
37707SOL     OW19212   6.335   9.204   4.433 -0.0319 -0.0715  0.6118
37707SOL    HW119213   6.309   9.279   4.380  1.9381  0.0965 -0.2007
37707SOL    HW219214   6.265   9.195   4.498 -1.0262  1.5531 -0.1722
37708SOL     OW19215   2.549   7.420  10.395 -0.2880 -0.1413  0.1079
37708SOL    HW119216   2.640   7.447  10.401 -0.3536  0.5081 -1.4153
37708SOL    HW219217   2.550   7.328  10.421  0.6495  0.0952  0.9686
37709SOL     OW19218   2.534   1.511   9.450  0.3236  0.1198  0.1942
37709SOL    HW119219   2.447   1.494   9.485 -0.1522  1.3744 -0.3409
37709SOL    HW219220   2.519   1.538   9.359  1.2901  0.0845  0.0088
37710SOL     OW19221   8.659   8.338   8.201  0.2697  0.1494 -0.8286
37710SOL    HW119222   8.647   8.403   8.133  2.5599 -0.4414 -1.9169
37710SOL    HW219223   8.729   8.374   8.257  1.1380 -1.0519 -1.0937
37711SOL     OW19224  10.637   4.789   5.930 -0.0230  0.1031 -0.1950
37711SOL    HW119225  10.613   4.759   5.842 -1.2570  0.4946 -0.0090
37711SOL    HW219226  10.638   4.709   5.982 -1.1874  0.0858 -0.1669
37712SOL     OW19227   0.058   6.445   9.491 -0.4712 -0.1503  0.1531
37712SOL    HW119228   0.004   6.371   9.518 -0.3356  0.6836  3.0417
37712SOL    HW219229   0.148   6.416   9.505 -0.4021  0.4073  0.9011
37713SOL     OW19230   5.380   2.527  10.890 -0.3119 -0.0809  0.7163
37713SOL    HW119231   5.357   2.441  10.926  0.0422 -1.0803 -1.2983
37713SOL    HW219232   5.323   2.537  10.814  2.5084 -0.5042 -1.6338
37714SOL     OW19233   7.498   2.601   9.984 -0.2879 -0.2000  0.1088
37714SOL    HW119234   7.448   2.633   9.909  0.5281  1.9854  0.4096
37714SOL    HW219235   7.433   2.584  10.052 -0.9178 -0.9518 -0.6699
37715SOL     OW19236   4.152   3.953   7.967 -0.5121 -0.1675  0.2866
37715SOL    HW119237   4.100   3.994   8.035 -0.2785  0.3772  0.1406
37715SOL    HW219238   4.103   3.968   7.886 -0.2429  0.1546  0.1806
37716SOL     OW19239   9.859   0.956   4.006 -0.5071  0.3502 -0.3634
37716SOL    HW119240   9.849   1.038   3.957 -1.1737  1.7422  1.9340
37716SOL    HW219241   9.795   0.963   4.077  0.0061 -1.8090  0.3886
37717SOL     OW19242   9.717   4.741   1.104 -0.1285 -0.6304 -0.3704
37717SOL    HW119243   9.642   4.692   1.072 -0.3841 -0.8359  0.5401
37717SOL    HW219244   9.780   4.737   1.032 -1.5094  0.7608 -1.7422
37718SOL     OW19245   0.233   2.072   4.958  0.1520  0.1917  0.2843
37718SOL    HW119246   0.254   2.125   5.035  0.5556 -0.0425  0.3384
37718SOL    HW219247   0.222   2.136   4.887 -2.4170  0.6313  0.9510
37719SOL     OW19248   7.195   3.369   9.195  0.1560  0.1500  0.0339
37719SOL    HW119249   7.201   3.417   9.112 -1.5991  0.8692  0.2943
37719SOL    HW219250   7.177   3.435   9.261  1.1542 -0.4647  0.9635
37720SOL     OW19251   1.019   0.407   9.022 -0.6450 -0.2003 -0.1505
37720SOL    HW119252   1.036   0.379   9.112  0.5473  0.3747 -0.1811
37720SOL    HW219253   1.026   0.328   8.970 -0.3815 -0.3690  0.1394
37721SOL     OW19254   1.672   6.456   6.851  0.3613  0.0864 -0.0203
37721SOL    HW119255   1.616   6.390   6.812 -0.8281  0.6079  0.7610
37721SOL    HW219256   1.633   6.540   6.825  1.2904  0.4794 -0.2039
37722SOL     OW19257   0.729   6.510   3.227  0.5953  0.4593  0.5346
37722SOL    HW119258   0.673   6.545   3.159 -1.0100  0.0115  1.5718
37722SOL    HW219259   0.736   6.580   3.291  0.5599  0.2374  0.7834
37723SOL     OW19260  10.554   9.039   6.549  0.2164 -0.1162  0.2948
37723SOL    HW119261  10.593   9.084   6.474 -1.1841  0.1362 -0.3065
37723SOL    HW219262  10.466   9.076   6.556 -0.6843 -2.1425  0.2906
37724SOL     OW19263   8.415   1.939   7.349  0.0336 -0.8674 -0.4608
37724SOL    HW119264   8.400   1.940   7.444 -1.8341  1.0857 -0.7064
37724SOL    HW219265   8.469   2.016   7.332 -0.3187 -0.7507 -1.0752
37725SOL     OW19266   2.639   6.695   3.738 -0.4410 -0.3316  0.5821
37725SOL    HW119267   2.684   6.660   3.662  1.7282  2.6804  0.3112
37725SOL    HW219268   2.547   6.703   3.710  0.2677  0.5545 -1.6935
37726SOL     OW19269   9.556   1.698   4.375 -0.2276 -0.2479 -0.3390
37726SOL    HW119270   9.588   1.752   4.303  1.2633  1.5242  1.5307
37726SOL    HW219271   9.461   1.702   4.368 -0.1335  1.4532 -1.1011
37727SOL     OW19272   3.452   1.382   7.455 -0.0126 -0.4830 -0.0632
37727SOL    HW119273   3.509   1.307   7.471 -0.7731 -1.4935 -1.8016
37727SOL    HW219274   3.459   1.435   7.534  1.1218 -2.0076  0.9053
37728SOL     OW19275   9.172   2.241   9.792 -0.1713  0.1558 -0.1771
37728SOL    HW119276   9.261   2.272   9.776  0.8789 -2.5303 -0.0759
37728SOL    HW219277   9.175   2.205   9.881 -1.2834 -0.2108 -0.2740
37729SOL     OW19278   5.934   4.713   9.732 -0.3349  0.1916 -0.3485
37729SOL    HW119279   6.013   4.753   9.695  0.1607  0.0445  0.5162
37729SOL    HW219280   5.917   4.637   9.676  1.1591 -0.7844  0.4449
37730SOL     OW19281   1.188   8.167   7.079 -0.6764 -0.1396 -0.7540
37730SOL    HW119282   1.169   8.152   6.986 -0.7686  1.3181 -0.9847
37730SOL    HW219283   1.283   8.160   7.085 -0.5047  1.4191 -1.2989
37731SOL     OW19284   2.069   0.787   8.441 -0.9828 -0.0643  0.6961
37731SOL    HW119285   2.129   0.852   8.478 -0.6433 -1.2662  2.3428
37731SOL    HW219286   2.097   0.704   8.479 -2.1735 -1.0074 -0.4192
37732SOL     OW19287   1.529   9.902   0.861 -0.4445  0.0862  0.0849
37732SOL    HW119288   1.556   9.884   0.951 -1.2089 -0.2361  0.2566
37732SOL    HW219289   1.433   9.908   0.865 -0.4639  0.3951 -0.6479
37733SOL     OW19290   5.864   2.884   4.258 -0.8593 -0.2551 -0.2976
37733SOL    HW119291   5.922   2.824   4.303 -1.0450  0.7492  1.3528
37733SOL    HW219292   5.823   2.831   4.189  2.2787 -0.8956 -1.8619
37734SOL     OW19293   1.059   6.929   5.984 -0.3616 -0.2300 -0.1136
37734SOL    HW119294   1.087   6.906   5.895  1.2361  2.7705 -0.5010
37734SOL    HW219295   0.988   6.992   5.972 -0.1369  0.2014  0.7395
37735SOL     OW19296   4.850   6.867   4.724  0.3421  0.1083 -0.2768
37735SOL    HW119297   4.929   6.915   4.750  0.0334  0.9251 -0.7959
37735SOL    HW219298   4.784   6.891   4.789  0.4085 -0.2544 -0.0748
37736SOL     OW19299   4.137   3.597   6.812  0.4125  0.0444 -0.0955
37736SOL    HW119300   4.112   3.689   6.808  2.1024  0.8107  2.9980
37736SOL    HW219301   4.181   3.589   6.897  0.5614 -3.5808 -0.3816
37737SOL     OW19302   8.802   6.367   8.923 -0.1551 -0.2834 -0.5382
37737SOL    HW119303   8.872   6.423   8.891  0.1796 -0.5622 -0.2973
37737SOL    HW219304   8.845   6.303   8.979 -0.7893  0.5995  1.0420
37738SOL     OW19305   4.422  10.867   3.506  0.2339  0.3199 -0.4520
37738SOL    HW119306   4.432  10.897   3.597  0.4348  0.3435 -0.4820
37738SOL    HW219307   4.349  10.805   3.509 -0.8531  1.5432 -0.5564
37739SOL     OW19308   7.429   4.582   0.172  0.3361  0.2703 -0.2595
37739SOL    HW119309   7.368   4.513   0.147  0.6979  0.0934 -0.6531
37739SOL    HW219310   7.377   4.662   0.169 -0.2950 -0.0666  0.9724
37740SOL     OW19311   0.727   9.004  10.763 -0.2338  0.5162  0.1531
37740SOL    HW119312   0.800   8.990  10.703 -0.4456 -0.3139  0.0738
37740SOL    HW219313   0.660   9.047  10.710  0.0605  0.9601  0.1349
37741SOL     OW19314   3.365   9.953   8.013  0.1157 -0.1679  0.2804
37741SOL    HW119315   3.372   9.951   7.917 -1.1380  0.9995  0.1295
37741SOL    HW219316   3.433   9.893   8.043 -1.1286 -2.6208 -1.4055
37742SOL     OW19317   3.851   5.590   5.455  0.2044  0.2292 -0.5509
37742SOL    HW119318   3.858   5.497   5.475 -0.2489 -0.1117 -1.8965
37742SOL    HW219319   3.913   5.632   5.515  0.4308 -0.9274  0.0561
37743SOL     OW19320  10.136   9.068   8.771 -0.2745 -0.2379 -0.1691
37743SOL    HW119321  10.227   9.087   8.795  0.0283 -0.1480 -1.3320
37743SOL    HW219322  10.118   9.128   8.699 -0.1652 -2.4926 -2.1909
37744SOL     OW19323   6.699   4.467   6.581 -0.1515  0.1438 -0.0412
37744SOL    HW119324   6.771   4.424   6.533 -1.5529 -0.4263 -1.7657
37744SOL    HW219325   6.692   4.554   6.541 -0.2662  0.2832  0.2805
37745SOL     OW19326   6.636   8.950   8.925  0.1753 -0.5298  0.7593
37745SOL    HW119327   6.634   8.919   8.834  0.0184  0.6291  0.3492
37745SOL    HW219328   6.595   8.880   8.975  2.1462 -2.1306  0.2569
37746SOL     OW19329   1.583   7.631   6.376 -0.7495 -0.1371 -0.0296
37746SOL    HW119330   1.618   7.561   6.321 -2.0645  0.3398 -1.5509
37746SOL    HW219331   1.571   7.705   6.316 -4.2070 -0.2416  0.3488
37747SOL     OW19332   1.085   1.657   0.633  0.3138  0.5198 -0.4024
37747SOL    HW119333   1.037   1.699   0.704 -0.2581  0.6136 -0.8369
37747SOL    HW219334   1.027   1.665   0.557  0.6742 -0.0748 -0.7477
37748SOL     OW19335  10.906   9.983  10.040 -0.1711  0.4354 -0.3994
37748SOL    HW119336  10.864   9.897  10.037 -1.8559  1.2343 -0.6525
37748SOL    HW219337  10.972   9.980   9.970  0.3840 -0.9094  0.1402
37749SOL     OW19338   9.974   3.475   4.201  0.2832  0.0169 -0.4809
37749SOL    HW119339  10.026   3.545   4.161  1.0404 -0.9306 -1.1949
37749SOL    HW219340  10.016   3.394   4.171 -0.8171 -0.7506  0.0111
37750SOL     OW19341   0.706   2.971   1.313  0.2985 -0.1171 -0.7687
37750SOL    HW119342   0.748   2.894   1.351  0.4657 -1.0089 -2.6625
37750SOL    HW219343   0.761   2.995   1.239  1.3777  3.1211  0.8917
37751SOL     OW19344   5.626   6.305   2.591  0.2076 -0.1874 -0.2842
37751SOL    HW119345   5.701   6.261   2.631 -0.2523  0.3728  1.2457
37751SOL    HW219346   5.557   6.239   2.589 -0.0842  0.0625  0.8310
37752SOL     OW19347   9.579   3.838   6.715  0.0238 -0.0579  0.2048
37752SOL    HW119348   9.510   3.778   6.744 -0.4504 -0.2472 -1.2225
37752SOL    HW219349   9.640   3.782   6.666 -0.1863  0.5419 -0.7536
37753SOL     OW19350   1.757   8.163   2.876 -0.7069  0.6047  0.1440
37753SOL    HW119351   1.698   8.202   2.940 -0.4798 -1.2039  1.5347
37753SOL    HW219352   1.720   8.077   2.858 -1.8912  1.7085 -3.7827
37754SOL     OW19353   5.106   6.316   6.653  0.2649  0.2708  0.1537
37754SOL    HW119354   5.065   6.310   6.567 -0.8084 -0.6154  0.7158
37754SOL    HW219355   5.200   6.310   6.635  0.0289 -0.4239 -0.9137
37755SOL     OW19356   6.003   9.582   2.376  0.0171 -0.3127  0.3771
37755SOL    HW119357   5.987   9.619   2.463  0.1785  0.1369  0.2211
37755SOL    HW219358   6.011   9.659   2.319  1.3683 -0.5531  0.2104
37756SOL     OW19359   9.521   1.829   5.541  0.1648 -0.1354 -0.2102
37756SOL    HW119360   9.565   1.908   5.573 -0.6070 -0.6519  2.3436
37756SOL    HW219361   9.586   1.788   5.484  1.4093  1.2321  0.1382
37757SOL     OW19362   8.161   3.276   7.333 -0.4673 -0.4329  0.9344
37757SOL    HW119363   8.172   3.302   7.425 -0.7466  0.7179  0.6556
37757SOL    HW219364   8.152   3.358   7.286  0.9441 -0.9559 -0.3081
37758SOL     OW19365   2.709   0.953   8.297  0.0460 -0.0126 -0.4604
37758SOL    HW119366   2.703   0.962   8.392 -1.9372  1.8169 -0.6864
37758SOL    HW219367   2.793   0.911   8.282  0.7762  0.3980  2.0619
37759SOL     OW19368   4.073   2.606   6.479  0.1261 -0.0889  0.3342
37759SOL    HW119369   4.159   2.618   6.520  0.9321 -1.6349 -0.8150
37759SOL    HW219370   4.092   2.565   6.395 -1.7297 -0.0583 -0.1413
37760SOL     OW19371   2.080   6.916   8.010 -0.1229  0.1080 -0.1296
37760SOL    HW119372   2.058   7.009   8.008  0.1534  0.2132  1.1700
37760SOL    HW219373   1.997   6.872   8.028  0.2046  0.3401  2.2845
37761SOL     OW19374  10.568   2.761   7.895 -0.2001 -0.4275 -0.0595
37761SOL    HW119375  10.527   2.846   7.875 -1.0791 -0.7149  0.4511
37761SOL    HW219376  10.658   2.770   7.864 -0.1260  0.8766  0.4467
37762SOL     OW19377   6.108   3.987   1.244 -0.2554  0.5743  0.4734
37762SOL    HW119378   6.063   4.049   1.301  0.4811  0.8444  0.7759
37762SOL    HW219379   6.194   4.025   1.230  0.7355 -1.0138  1.8273
37763SOL     OW19380   3.713   8.589   8.990 -0.1273 -0.2256 -0.3110
37763SOL    HW119381   3.767   8.611   9.065 -0.6209 -1.9197  0.6009
37763SOL    HW219382   3.644   8.655   8.990  0.3948  0.3289  0.1592
37764SOL     OW19383   8.302   9.093   3.598  0.2349  0.0850  0.1605
37764SOL    HW119384   8.314   9.160   3.664  2.7429 -1.9445  1.9794
37764SOL    HW219385   8.227   9.041   3.629  0.1010  0.3485  0.2790
37765SOL     OW19386   4.919   8.052   7.935 -0.1092 -0.4790  0.6719
37765SOL    HW119387   4.947   8.082   8.022 -0.6530 -1.2759  1.1290
37765SOL    HW219388   5.001   8.027   7.891  0.1953  0.1892  0.8468
37766SOL     OW19389   6.931   9.274   9.793  0.2497  0.0854  0.0741
37766SOL    HW119390   6.887   9.268   9.877  0.1024 -0.1820 -0.0227
37766SOL    HW219391   6.923   9.187   9.755 -0.1037  0.3360 -0.4292
37767SOL     OW19392   1.855   8.470   1.069 -0.0526 -0.1754  0.8382
37767SOL    HW119393   1.762   8.478   1.050  0.3930  1.1488 -1.0582
37767SOL    HW219394   1.872   8.375   1.070 -0.8298 -0.4264 -2.1292
37768SOL     OW19395  10.827  10.218   4.622  1.1290  0.0639  0.0636
37768SOL    HW119396  10.885  10.214   4.698  1.3630 -0.5389 -0.1407
37768SOL    HW219397  10.885  10.237   4.549  0.8874  0.7616  0.0468
37769SOL     OW19398   8.746   3.415   5.972 -0.1506 -0.4617 -0.1423
37769SOL    HW119399   8.714   3.429   5.882  0.6956  1.2284 -0.2171
37769SOL    HW219400   8.708   3.487   6.022  0.9920 -0.2329  0.4172
37770SOL     OW19401   4.699   7.652   9.704  0.1809  0.0429  0.5475
37770SOL    HW119402   4.705   7.700   9.786 -1.0360 -0.5987  1.0489
37770SOL    HW219403   4.636   7.701   9.652 -0.1379 -0.3200  0.5810
37771SOL     OW19404   4.767   3.075   4.207  0.3183  0.1676 -0.3237
37771SOL    HW119405   4.779   3.135   4.281  1.7989 -0.4641 -0.0247
37771SOL    HW219406   4.840   3.013   4.214 -0.5740 -1.0385 -1.2386
37772SOL     OW19407   1.102   4.854   4.878 -0.1192  0.3682  0.2360
37772SOL    HW119408   1.126   4.906   4.801  0.2643 -0.6406 -0.3453
37772SOL    HW219409   1.148   4.897   4.951  0.5201  0.6075 -0.2980
37773SOL     OW19410   5.309   3.678   2.398  0.2045  0.3614 -0.5472
37773SOL    HW119411   5.317   3.727   2.480  0.8581  1.2458 -1.1194
37773SOL    HW219412   5.262   3.599   2.422  0.1097  0.7522  0.6245
37774SOL     OW19413   4.503   0.992   8.013 -0.4056 -0.3163 -0.0366
37774SOL    HW119414   4.547   1.071   7.983  0.8126 -1.7267 -2.2183
37774SOL    HW219415   4.572   0.938   8.052 -0.9695 -0.8612  0.2399
37775SOL     OW19416   2.651   8.591   0.380  0.2092 -0.6444 -0.0020
37775SOL    HW119417   2.573   8.623   0.426 -0.3497 -1.1276 -0.5995
37775SOL    HW219418   2.679   8.514   0.431  0.9418  0.1590  0.8345
37776SOL     OW19419   6.410   9.096   9.168 -0.1380 -0.5202  0.1296
37776SOL    HW119420   6.380   9.060   9.084  1.3455 -0.1869 -0.5732
37776SOL    HW219421   6.440   9.185   9.146  0.9661 -0.7022  0.8567
37777SOL     OW19422   6.270   1.386   8.367  0.2125 -0.4172 -0.2458
37777SOL    HW119423   6.360   1.406   8.342  0.1948  1.5132  1.0100
37777SOL    HW219424   6.251   1.303   8.324  2.4048 -0.6138 -0.9640
37778SOL     OW19425   6.548   2.586   2.529  0.4533  0.0714  0.0111
37778SOL    HW119426   6.572   2.551   2.443 -0.2225 -0.5475  0.0641
37778SOL    HW219427   6.452   2.594   2.525  0.2620 -1.2585  1.1713
37779SOL     OW19428   0.090   6.089   5.781  0.0742 -0.4027  0.1140
37779SOL    HW119429   0.180   6.070   5.807  1.2028 -1.0485 -3.6827
37779SOL    HW219430   0.043   6.006   5.795 -0.0616 -0.0596  2.1160
37780SOL     OW19431   3.007   9.030   3.908 -0.4072  0.8750  0.4415
37780SOL    HW119432   3.029   8.965   3.975 -0.4695  0.3788 -0.0137
37780SOL    HW219433   3.089   9.045   3.862 -0.7099  0.0125 -0.4033
37781SOL     OW19434   8.671   3.502   0.573  0.7491  0.1933 -0.3668
37781SOL    HW119435   8.620   3.436   0.620  1.1283 -0.2186 -0.5209
37781SOL    HW219436   8.752   3.509   0.623 -0.0673  2.0130  0.8032
37782SOL     OW19437   8.418  10.054   2.850 -0.7597 -0.0689  0.1077
37782SOL    HW119438   8.454  10.082   2.933 -0.8621  0.6424 -0.0846
37782SOL    HW219439   8.475  10.094   2.784 -0.6178 -0.7074 -0.1656
37783SOL     OW19440   3.561   2.868   3.530 -0.2055  0.1293 -0.2185
37783SOL    HW119441   3.655   2.847   3.529 -0.7982 -2.9557 -0.2993
37783SOL    HW219442   3.538   2.879   3.438  0.1625  1.7528 -0.1604
37784SOL     OW19443   9.537   9.817   1.214  0.2100  0.2887  0.3234
37784SOL    HW119444   9.622   9.841   1.178 -0.1783 -0.6159 -1.2901
37784SOL    HW219445   9.474   9.865   1.160 -0.4401 -2.0231 -1.1059
37785SOL     OW19446   3.505   9.067   6.610 -0.1267  1.0377  0.0690
37785SOL    HW119447   3.412   9.082   6.629 -0.2612 -0.0607  0.3410
37785SOL    HW219448   3.547   9.064   6.696 -0.2055 -0.6255  0.0823
37786SOL     OW19449   2.587  10.006   7.090  0.1496 -0.1598  0.6239
37786SOL    HW119450   2.580   9.914   7.064 -1.4675 -0.1674  0.9703
37786SOL    HW219451   2.670  10.012   7.137  1.0606 -1.0686 -0.7975
37787SOL     OW19452   1.657   9.926  10.459  0.1737 -0.5361  0.2292
37787SOL    HW119453   1.704   9.951  10.539  1.7187 -2.3418 -0.0149
37787SOL    HW219454   1.673   9.832  10.451 -2.6205 -1.0394 -0.5287
37788SOL     OW19455   9.972   8.130   2.710  0.6244  0.3393 -0.0540
37788SOL    HW119456   9.909   8.100   2.776  2.6881 -1.0965  1.3732
37788SOL    HW219457   9.975   8.225   2.722 -1.6555  0.5499 -0.6044
37789SOL     OW19458   4.403   3.824   4.776  0.2426  0.0388 -0.0341
37789SOL    HW119459   4.461   3.776   4.834  0.7100  0.4176 -0.1857
37789SOL    HW219460   4.432   3.915   4.782  0.4975  0.0437 -1.0818
37790SOL     OW19461   5.092   4.364   9.536 -0.3232 -0.0708 -0.0486
37790SOL    HW119462   5.067   4.437   9.481  0.7008  1.3903  1.3386
37790SOL    HW219463   5.186   4.374   9.549 -0.1178 -1.7685  0.0064
37791SOL     OW19464   1.449   5.856  10.880 -0.4997  0.3726  0.1114
37791SOL    HW119465   1.429   5.940  10.839 -0.2308  1.7067  2.5479
37791SOL    HW219466   1.541   5.862  10.905 -0.0513 -1.2692 -0.9761
37792SOL     OW19467  10.285   4.439   9.760  0.0577  0.4108 -0.1096
37792SOL    HW119468  10.271   4.529   9.790 -0.4246  0.7618 -1.3255
37792SOL    HW219469  10.379   4.425   9.770  0.1375  1.0516  0.0742
37793SOL     OW19470   7.792   1.112   2.909  0.1594 -0.1214 -0.2911
37793SOL    HW119471   7.711   1.066   2.928  0.2678 -0.5077 -0.7541
37793SOL    HW219472   7.831   1.064   2.836 -0.8749  2.0376 -2.4334
37794SOL     OW19473   2.405  10.626   8.653  0.2764  0.6713  0.7672
37794SOL    HW119474   2.495  10.627   8.619  0.2060  1.0008  0.5937
37794SOL    HW219475   2.364  10.704   8.616 -0.8292 -0.7367 -1.1599
37795SOL     OW19476   4.834   0.966   6.334  0.0915  0.5454  0.2516
37795SOL    HW119477   4.805   1.036   6.393  0.4921  1.4734 -0.6121
37795SOL    HW219478   4.858   0.894   6.392 -0.3434  1.1202  1.1710
37796SOL     OW19479   5.155   3.011   3.121 -0.0397  0.1558 -0.3688
37796SOL    HW119480   5.143   2.928   3.074  0.0578 -0.1130  0.0839
37796SOL    HW219481   5.248   3.032   3.110 -0.0615  0.1991 -0.4723
37797SOL     OW19482   5.617   8.155   4.835  0.5405  0.0181  0.5138
37797SOL    HW119483   5.617   8.250   4.823 -0.6703 -0.0558 -0.1895
37797SOL    HW219484   5.525   8.130   4.834  0.8268 -1.1276  1.0643
37798SOL     OW19485   7.215   9.622   7.024  0.0912 -0.7907  0.5649
37798SOL    HW119486   7.268   9.660   7.094  1.1664 -0.4696 -0.3890
37798SOL    HW219487   7.200   9.532   7.050  0.6351 -0.7209  1.1264
37799SOL     OW19488   9.314   8.073   5.546  0.0275 -0.3702 -0.3551
37799SOL    HW119489   9.404   8.089   5.573 -0.1120 -0.9966  0.4991
37799SOL    HW219490   9.322   8.036   5.457  0.6595 -1.1329  0.0075
37800SOL     OW19491   3.873   1.534   5.952  0.5684 -0.2668  1.0066
37800SOL    HW119492   3.880   1.460   5.892  1.3389 -1.3259  2.3468
37800SOL    HW219493   3.952   1.585   5.935  1.1602 -0.9627  1.6067
37801SOL     OW19494   6.003   7.962   1.859  0.2393 -0.2707  0.2997
37801SOL    HW119495   5.963   8.039   1.818 -0.5526 -0.1328  1.3093
37801SOL    HW219496   5.986   7.891   1.797 -0.3327  0.0767  0.0465
37802SOL     OW19497   1.993   7.368   5.849  0.1267 -0.3251  0.0675
37802SOL    HW119498   1.974   7.462   5.846  1.3781 -0.0823 -1.7666
37802SOL    HW219499   2.089   7.363   5.847  0.1178 -1.6484  1.1600
37803SOL     OW19500   3.107   6.705   5.677  0.1658  0.2078 -0.3412
37803SOL    HW119501   3.078   6.641   5.612 -0.5487  0.8053 -0.6245
37803SOL    HW219502   3.202   6.698   5.678  0.0787 -1.1091 -0.1056
37804SOL     OW19503   1.106   8.604   4.210  0.9796 -0.1716 -0.1035
37804SOL    HW119504   1.165   8.625   4.282 -1.2302 -1.4263  2.2633
37804SOL    HW219505   1.125   8.512   4.191  1.1182 -0.0213 -0.6881
37805SOL     OW19506   3.362   1.718   8.794  0.2175 -0.6571 -0.3912
37805SOL    HW119507   3.318   1.777   8.732  1.6305 -1.6291 -2.4446
37805SOL    HW219508   3.451   1.752   8.800  0.0355 -0.4242  1.3863
37806SOL     OW19509   4.450   6.547   6.472 -0.0781 -0.3745  0.6749
37806SOL    HW119510   4.448   6.478   6.539  0.9677 -0.5674  0.5222
37806SOL    HW219511   4.420   6.504   6.393  1.9635 -1.0957  0.2254
37807SOL     OW19512   8.253   9.236   1.667  0.3159  0.0371 -0.6467
37807SOL    HW119513   8.312   9.299   1.627  0.1179 -0.6233 -2.0554
37807SOL    HW219514   8.165   9.267   1.644  0.1964 -0.3689 -0.7484
37808SOL     OW19515   1.968   4.713   5.942 -0.2803 -0.2103  0.0378
37808SOL    HW119516   1.924   4.782   5.893 -1.1690 -0.6308  0.2180
37808SOL    HW219517   1.976   4.641   5.880  0.7790  0.0952 -0.1942
37809SOL     OW19518   9.318   8.006   7.763  0.8747 -0.1606  0.0080
37809SOL    HW119519   9.304   7.916   7.734 -2.5058 -0.1027  1.0148
37809SOL    HW219520   9.381   7.999   7.835 -0.4402 -2.0174  1.0781
37810SOL     OW19521   3.311   8.292  10.721 -0.2666 -0.3815 -0.2888
37810SOL    HW119522   3.363   8.214  10.743 -0.0096 -0.3184 -0.6793
37810SOL    HW219523   3.375   8.357  10.693 -0.4609  0.0447  0.2315
37811SOL     OW19524  10.875   9.583   9.116  0.3037  0.1097  0.0622
37811SOL    HW119525  10.790   9.558   9.079 -0.5900  2.1156  0.6431
37811SOL    HW219526  10.939   9.539   9.060 -1.0624  0.0959 -1.5769
37812SOL     OW19527   9.270   9.755  10.386  1.0996 -0.0192  0.0997
37812SOL    HW119528   9.259   9.791  10.474  2.4669  2.3957 -0.6403
37812SOL    HW219529   9.187   9.771  10.343  1.1871  0.9517  0.2635
37813SOL     OW19530  10.923   9.849  10.641  0.4328  0.1090  0.0030
37813SOL    HW119531  10.848   9.889  10.686  1.0305  0.9529  0.2739
37813SOL    HW219532  10.922   9.887  10.553  0.0580 -0.5220 -0.2743
37814SOL     OW19533   1.435   3.879   9.472  0.5918  0.2273  0.1359
37814SOL    HW119534   1.410   3.891   9.563  0.3607  0.0412  0.0965
37814SOL    HW219535   1.513   3.934   9.462  0.9167 -0.1446  0.5806
37815SOL     OW19536   9.885   5.425   8.882 -0.2146  0.1909  0.5501
37815SOL    HW119537   9.822   5.439   8.952  0.2441  0.3447  0.9364
37815SOL    HW219538   9.964   5.393   8.926  0.5023  1.4810  0.2623
37816SOL     OW19539  10.418   3.851   0.693  0.0093  0.1657 -0.5625
37816SOL    HW119540  10.508   3.823   0.711 -0.0832  1.4379  2.4204
37816SOL    HW219541  10.372   3.836   0.775 -2.1344  0.9752 -1.5622
37817SOL     OW19542   5.810   6.458   6.419 -0.3646 -0.1297  0.3369
37817SOL    HW119543   5.794   6.449   6.513  0.5316 -2.8690  0.3357
37817SOL    HW219544   5.743   6.403   6.378 -0.4267  0.6227 -0.6005
37818SOL     OW19545   7.291   2.215   2.742 -0.9288 -1.3909 -0.2148
37818SOL    HW119546   7.324   2.251   2.825  1.3397 -1.4624 -0.9964
37818SOL    HW219547   7.201   2.188   2.761 -1.8287  2.1094  1.1603
37819SOL     OW19548  10.649   0.866   0.571  0.0983  0.1193  0.3790
37819SOL    HW119549  10.700   0.941   0.601 -0.9768  1.4651 -0.9930
37819SOL    HW219550  10.699   0.831   0.497 -0.4303  0.8081 -0.3174
37820SOL     OW19551   7.778  10.903   3.340 -0.6466 -0.1064 -0.2764
37820SOL    HW119552   7.739  10.821   3.310 -0.0810  0.2546 -2.1310
37820SOL    HW219553   7.717  10.937   3.405 -0.7831 -2.0850  0.7036
37821SOL     OW19554   8.149   8.075   6.782  0.8577 -0.2101  0.9607
37821SOL    HW119555   8.109   8.161   6.789  1.1120  0.2425 -1.9498
37821SOL    HW219556   8.242   8.090   6.798  1.1319  0.3991 -0.9401
37822SOL     OW19557   8.544   5.660   8.860 -0.3772 -0.3699  0.7092
37822SOL    HW119558   8.562   5.687   8.950 -1.8012  0.2185  0.8399
37822SOL    HW219559   8.609   5.706   8.808  0.0889 -0.2529  1.3794
37823SOL     OW19560   0.514   0.330   7.154  0.0255 -0.0420  0.0896
37823SOL    HW119561   0.589   0.277   7.130  0.4759  0.6937 -0.1652
37823SOL    HW219562   0.438   0.281   7.123  0.3407 -1.1438  0.9908
37824SOL     OW19563   4.480   9.204   8.683 -0.1200 -0.3274 -0.4602
37824SOL    HW119564   4.505   9.189   8.774  0.8202 -0.6533 -0.7600
37824SOL    HW219565   4.456   9.118   8.650  0.8490 -0.4433 -0.8919
37825SOL     OW19566   3.945   0.078   8.700 -0.3961 -0.1703  0.1783
37825SOL    HW119567   3.908   0.063   8.787  0.4690  0.9131  0.7612
37825SOL    HW219568   3.967  -0.010   8.668 -0.3309 -0.5538  1.2378
37826SOL     OW19569   3.869   2.248   0.449 -0.0077  0.1508 -0.5121
37826SOL    HW119570   3.894   2.330   0.492  1.8079  0.0546 -1.3030
37826SOL    HW219571   3.847   2.189   0.520  0.4258  0.7778  0.1575
37827SOL     OW19572   4.107   5.968   7.673 -0.6232  0.2577 -0.9454
37827SOL    HW119573   4.048   6.044   7.672 -0.4645  0.5328  1.7574
37827SOL    HW219574   4.194   6.006   7.662 -0.6134  0.3835 -0.4589
37828SOL     OW19575   0.255   2.099   2.021 -0.7453  0.0156  0.5061
37828SOL    HW119576   0.286   2.166   2.083 -0.8748  0.1813  0.3904
37828SOL    HW219577   0.326   2.092   1.957 -1.0753  0.6256  0.0588
37829SOL     OW19578   2.343  10.771   4.780 -0.3981  0.0439  0.1014
37829SOL    HW119579   2.296  10.808   4.855 -0.3825  0.9332 -0.3181
37829SOL    HW219580   2.423  10.734   4.817 -0.4952  0.2789  0.5508
37830SOL     OW19581   1.706   9.066   8.927 -0.4423  0.5663  0.4156
37830SOL    HW119582   1.719   9.004   8.855 -1.6704  0.6867  0.0603
37830SOL    HW219583   1.616   9.098   8.915  0.6165  3.5996 -0.3269
37831SOL     OW19584   6.606   5.876   4.065  0.2326 -0.0381  0.2318
37831SOL    HW119585   6.693   5.846   4.038  0.1413  1.7165 -2.3423
37831SOL    HW219586   6.624   5.938   4.136  1.2656  1.2254 -1.0613
37832SOL     OW19587   2.546   7.217   1.378 -0.1860 -0.8422  0.0037
37832SOL    HW119588   2.495   7.142   1.348 -1.6281  1.1654 -2.9916
37832SOL    HW219589   2.515   7.232   1.467 -3.3681 -1.0166 -0.9586
37833SOL     OW19590   0.417   3.309   3.859 -0.0622  0.4077 -0.1389
37833SOL    HW119591   0.418   3.291   3.765 -0.2296 -0.2343 -0.0165
37833SOL    HW219592   0.379   3.231   3.899 -1.7011  1.4060  0.3197
37834SOL     OW19593   5.707   5.672   3.696 -0.0162 -0.2450  0.1510
37834SOL    HW119594   5.708   5.733   3.623 -0.0161  0.4030  0.6754
37834SOL    HW219595   5.697   5.586   3.656  0.9048  0.0088 -0.6611
37835SOL     OW19596   8.688   1.477   4.507 -0.0044  0.3020  0.0202
37835SOL    HW119597   8.722   1.567   4.512 -0.1198  0.4556 -1.5719
37835SOL    HW219598   8.635   1.468   4.586  0.7460  1.3162  0.6781
37836SOL     OW19599   0.232   6.385   0.972  0.7870 -0.2096  0.0480
37836SOL    HW119600   0.182   6.305   0.958  0.1444  0.1236  0.3802
37836SOL    HW219601   0.293   6.389   0.898  0.0081 -0.3887 -0.6213
37837SOL     OW19602   2.938   4.005   6.475 -0.2132  0.4845  0.2269
37837SOL    HW119603   2.853   3.962   6.480  0.1471 -0.2632  0.0485
37837SOL    HW219604   2.925   4.076   6.412  0.0619 -1.5298 -2.2547
37838SOL     OW19605   1.505   1.332   8.987  0.2115  0.2380  0.4386
37838SOL    HW119606   1.489   1.238   8.986  0.1276  0.2420 -0.8744
37838SOL    HW219607   1.585   1.343   9.039  0.3970 -0.5877  0.3345
37839SOL     OW19608   7.082   9.579   5.026 -0.3568 -0.0831 -0.0135
37839SOL    HW119609   7.165   9.532   5.019 -0.0174  0.4748  0.1769
37839SOL    HW219610   7.074   9.626   4.943  2.4001  4.4701  1.8540
37840SOL     OW19611  10.160   8.503   2.285  0.1157  0.3714 -0.0221
37840SOL    HW119612  10.108   8.424   2.299  1.4317 -0.5252  0.0581
37840SOL    HW219613  10.239   8.472   2.239  0.5670  1.6744 -0.1854
37841SOL     OW19614  10.895   7.618  10.595  0.5260 -0.1853  0.2369
37841SOL    HW119615  10.800   7.616  10.601  0.5590 -2.5978  0.8571
37841SOL    HW219616  10.923   7.672  10.669 -0.3338  0.1186  0.3473
37842SOL     OW19617   6.783   7.876   3.805 -0.1783 -0.3434 -0.5321
37842SOL    HW119618   6.709   7.840   3.853  0.2979  1.4909  1.7494
37842SOL    HW219619   6.808   7.954   3.854  1.7510  0.4515 -2.6000
37843SOL     OW19620   5.439   3.650   4.268 -0.5235  0.0278  0.0168
37843SOL    HW119621   5.474   3.647   4.357 -0.6744 -1.1901  0.0375
37843SOL    HW219622   5.344   3.647   4.278 -0.5234 -1.1996 -0.2115
37844SOL     OW19623   5.396   5.299   4.831 -0.0710 -0.0467  0.7038
37844SOL    HW119624   5.403   5.236   4.903  1.9620 -0.6192  0.0604
37844SOL    HW219625   5.432   5.253   4.756 -0.6192  1.1376 -0.3152
37845SOL     OW19626   5.672   6.620   8.085  0.2449  0.5817  0.2103
37845SOL    HW119627   5.657   6.680   8.012 -0.1642  1.2440  0.8214
37845SOL    HW219628   5.596   6.562   8.085 -0.2443  1.1999  0.6830
37846SOL     OW19629   6.243  10.113  10.029 -0.4199 -0.8853 -0.4312
37846SOL    HW119630   6.169  10.174  10.031  0.5452  0.3098 -0.0527
37846SOL    HW219631   6.213  10.041   9.974 -1.9044 -0.4772 -0.2021
37847SOL     OW19632   6.248  10.265   7.634  0.3208 -0.2880 -0.1750
37847SOL    HW119633   6.244  10.185   7.686 -0.0388 -0.3159 -0.2420
37847SOL    HW219634   6.159  10.276   7.598 -0.1572  1.1116  1.3042
37848SOL     OW19635  10.191   2.940   9.990 -0.1970 -0.0898 -0.5707
37848SOL    HW119636  10.195   2.929  10.085  2.2138  0.7569 -0.4930
37848SOL    HW219637  10.164   3.031   9.977  0.0209 -0.0353 -0.6591
37849SOL     OW19638   3.952   8.773   1.667  0.4980  0.5216  0.6031
37849SOL    HW119639   3.897   8.724   1.605  1.0177 -0.2029  0.6976
37849SOL    HW219640   3.911   8.859   1.672  0.6003  0.7019 -0.9810
37850SOL     OW19641   2.151   8.925   4.705  0.0887  0.3166 -0.0889
37850SOL    HW119642   2.187   8.956   4.621  0.9034  0.7018  0.3853
37850SOL    HW219643   2.061   8.957   4.706  0.1159  0.4317 -0.7563
37851SOL     OW19644   7.906   3.022   6.842 -0.2636 -0.5626 -0.1182
37851SOL    HW119645   7.929   3.110   6.872 -0.2259 -0.7745  0.5027
37851SOL    HW219646   7.824   3.002   6.888 -0.4686 -0.7029 -0.5461
37852SOL     OW19647   7.031   2.434   6.163 -0.2757  0.0609 -0.1766
37852SOL    HW119648   6.948   2.435   6.116 -0.2463  3.2479 -0.4055
37852SOL    HW219649   7.007   2.414   6.254 -1.0273 -0.8931 -0.5724
37853SOL     OW19650   2.004   9.923   4.597  0.2907 -0.4570  0.2552
37853SOL    HW119651   1.969  10.001   4.641  0.3404 -0.0160 -0.4631
37853SOL    HW219652   2.062   9.883   4.661 -0.1515 -0.1961  0.8239
37854SOL     OW19653   1.224   1.003   5.798  0.6002  0.3415 -0.3042
37854SOL    HW119654   1.253   1.089   5.769 -0.5013  0.1800 -1.9850
37854SOL    HW219655   1.163   1.021   5.870  1.2590  0.8750  0.1422
37855SOL     OW19656   1.544   4.340  10.431 -0.1608 -0.1760 -0.4574
37855SOL    HW119657   1.550   4.435  10.425 -0.2017 -0.2080 -1.0318
37855SOL    HW219658   1.455   4.323  10.461 -0.2186 -0.0399 -0.5527
37856SOL     OW19659   5.859   0.704   2.884 -0.1415  0.0927  0.3919
37856SOL    HW119660   5.838   0.669   2.798  1.0332  0.2900  0.0021
37856SOL    HW219661   5.863   0.799   2.872 -1.7177  0.2796  1.0842
37857SOL     OW19662   7.937   6.648   7.831 -0.4315  0.3815  0.5945
37857SOL    HW119663   8.029   6.651   7.855 -0.5619  0.5411  1.0970
37857SOL    HW219664   7.928   6.570   7.777  0.0072  0.3957  0.4987
37858SOL     OW19665   5.441   3.571   8.141 -0.0183 -0.2739 -0.3997
37858SOL    HW119666   5.477   3.585   8.053  1.5038  2.2529  0.4894
37858SOL    HW219667   5.347   3.587   8.132  0.4083  2.3126 -1.2562
37859SOL     OW19668   5.069   9.861   5.212  0.1326  0.5765  0.4497
37859SOL    HW119669   4.985   9.864   5.165  0.8500 -2.8465 -1.4084
37859SOL    HW219670   5.135   9.875   5.145  1.1213  1.3500  1.5465
37860SOL     OW19671   8.055   1.010   8.765 -0.1159  0.0512 -0.4059
37860SOL    HW119672   7.967   1.011   8.802 -0.2322  1.0026 -0.6922
37860SOL    HW219673   8.061   0.926   8.720 -0.3653 -0.6440  0.8089
37861SOL     OW19674   6.858   8.668   3.181  0.6708  0.0364 -0.1637
37861SOL    HW119675   6.824   8.736   3.122  0.2447 -0.9402 -1.0817
37861SOL    HW219676   6.784   8.645   3.237  0.6693 -0.0193 -0.1882
37862SOL     OW19677   1.875   8.968  10.308  0.3385  0.1962  0.8397
37862SOL    HW119678   1.868   8.879  10.272 -0.7561  0.4023  0.4863
37862SOL    HW219679   1.784   8.992  10.327  0.7871  0.3996  3.0218
37863SOL     OW19680   7.963   9.995   8.200 -0.0742 -0.0715 -0.0912
37863SOL    HW119681   8.013   9.921   8.235  0.9527  1.2527  1.4175
37863SOL    HW219682   7.960   9.979   8.106  3.1022 -0.3434 -0.2729
37864SOL     OW19683   6.193   6.714   5.966  0.1887 -0.2825 -0.2672
37864SOL    HW119684   6.108   6.713   5.922 -0.3146 -3.2894  0.5812
37864SOL    HW219685   6.190   6.641   6.027  2.6700  0.7580  1.2786
37865SOL     OW19686   8.398   8.651   8.189  0.1448 -0.3925 -0.5303
37865SOL    HW119687   8.419   8.609   8.272  2.2637  0.0355 -0.7934
37865SOL    HW219688   8.344   8.588   8.142  1.9566 -2.1969 -0.2974
37866SOL     OW19689   9.654   8.053   3.959 -0.4419  0.4875  0.1721
37866SOL    HW119690   9.702   7.971   3.965  1.5388  1.2339 -3.1044
37866SOL    HW219691   9.649   8.085   4.049  3.2193 -0.8187  0.9725
37867SOL     OW19692   6.930   2.990   8.887  0.1698 -0.4703 -0.3096
37867SOL    HW119693   6.922   2.959   8.977 -1.0936 -0.0323 -0.2576
37867SOL    HW219694   7.024   3.004   8.875  0.3937 -0.9220  0.8031
37868SOL     OW19695   3.996  10.650   1.718  0.5254 -0.8049 -0.2175
37868SOL    HW119696   4.082  10.608   1.710  0.4728 -0.6638 -1.9009
37868SOL    HW219697   3.945  10.615   1.645 -1.5578 -2.3902  1.8655
37869SOL     OW19698   3.162   1.511   4.929  0.3898 -0.2076 -0.1615
37869SOL    HW119699   3.156   1.607   4.933 -0.4565 -0.1731 -1.6077
37869SOL    HW219700   3.254   1.493   4.948  0.9013  1.0136 -1.3012
37870SOL     OW19701   8.902   8.866   9.771  0.1796 -0.6809  0.4736
37870SOL    HW119702   8.925   8.860   9.679  0.1788 -1.1069  0.4994
37870SOL    HW219703   8.819   8.913   9.773  1.3629  1.5549  0.4258
37871SOL     OW19704   7.705  10.567   8.524 -0.5263  0.2888  0.3126
37871SOL    HW119705   7.783  10.512   8.535 -0.9593 -0.5858 -0.7595
37871SOL    HW219706   7.736  10.656   8.540  0.2596 -0.2087  1.8084
37872SOL     OW19707   2.682   4.704   0.616  0.5410  0.2348  0.7009
37872SOL    HW119708   2.688   4.785   0.666  3.3526  0.5593 -0.0042
37872SOL    HW219709   2.773   4.680   0.597 -0.3047 -1.2666 -2.0169
37873SOL     OW19710   2.304   2.193   8.755 -0.4444 -0.4256  0.7661
37873SOL    HW119711   2.235   2.153   8.808 -0.6873 -2.3786 -0.9146
37873SOL    HW219712   2.292   2.156   8.667  0.3368  2.1790 -0.5523
37874SOL     OW19713   4.374   0.084   4.549 -0.4673 -0.3586 -0.7890
37874SOL    HW119714   4.359   0.143   4.623  0.0468  1.1910 -1.8547
37874SOL    HW219715   4.438   0.021   4.581 -2.0672 -1.2529  0.8279
37875SOL     OW19716   2.795  10.399   1.544  0.0237  0.0944  0.6628
37875SOL    HW119717   2.717  10.386   1.598 -0.0889 -1.4447  0.1787
37875SOL    HW219718   2.787  10.334   1.474  0.7001  1.3306 -0.6123
37876SOL     OW19719   0.804  10.645   0.301 -0.3861  0.1645 -0.5130
37876SOL    HW119720   0.745  10.719   0.316 -0.9685 -0.6057  1.1897
37876SOL    HW219721   0.756  10.569   0.333  1.2995 -0.5693  0.4008
37877SOL     OW19722   8.072   5.763   0.616  0.6708 -0.1285 -0.1122
37877SOL    HW119723   8.137   5.725   0.556 -0.1595 -0.4636 -0.8230
37877SOL    HW219724   8.111   5.753   0.703  2.1505  0.8718 -0.6286
37878SOL     OW19725   3.546   4.365   4.315  0.7377  0.5934  0.3432
37878SOL    HW119726   3.615   4.300   4.302  0.2298 -0.0615  0.8775
37878SOL    HW219727   3.566   4.405   4.400 -0.6472 -1.0165  1.4808
37879SOL     OW19728   6.454   1.195   8.747 -0.2160 -0.0168 -0.1718
37879SOL    HW119729   6.461   1.147   8.665 -0.9978  0.0085 -0.2649
37879SOL    HW219730   6.362   1.220   8.752 -0.0046  0.7144  0.3020
37880SOL     OW19731   0.502  10.577   1.166  0.4250  0.2797  0.2077
37880SOL    HW119732   0.596  10.561   1.153  0.7790 -0.3135  2.8823
37880SOL    HW219733   0.459  10.505   1.120  1.3743 -0.2139  0.0721
37881SOL     OW19734   7.496   3.767   6.562 -0.3124 -0.5292 -0.1902
37881SOL    HW119735   7.546   3.707   6.507  0.8416  0.9651 -0.8666
37881SOL    HW219736   7.515   3.740   6.652 -0.6269 -1.7759 -0.4914
37882SOL     OW19737   2.591   5.197   8.266  0.0180 -0.1001  0.0596
37882SOL    HW119738   2.550   5.270   8.221  1.5074  1.1534  0.6594
37882SOL    HW219739   2.619   5.138   8.196  0.8371  1.0239 -0.5782
37883SOL     OW19740   3.224   4.525   2.336  0.1388  0.0303 -0.1520
37883SOL    HW119741   3.254   4.505   2.247  0.6095 -1.4451  0.3047
37883SOL    HW219742   3.130   4.539   2.326 -0.2254 -2.2925 -0.6172
37884SOL     OW19743   9.826   2.443  10.796 -0.5775 -0.0562  0.1493
37884SOL    HW119744   9.833   2.497  10.875 -1.0146  1.5723 -0.8812
37884SOL    HW219745   9.755   2.381  10.816  0.9546 -1.3669  1.9328
37885SOL     OW19746   5.091   6.276   7.921 -0.2089 -0.1602 -0.2632
37885SOL    HW119747   5.124   6.191   7.891  2.0334  0.4273  0.3818
37885SOL    HW219748   5.080   6.266   8.015 -0.8386 -0.0094 -0.3182
37886SOL     OW19749   3.755   7.649   5.991 -0.2410 -0.3486  0.1510
37886SOL    HW119750   3.792   7.650   5.903 -0.6017  1.4499 -0.0023
37886SOL    HW219751   3.696   7.574   5.991 -0.3565 -0.2696 -1.1900
37887SOL     OW19752   5.055   6.114   9.097  0.2739 -0.2008  0.1182
37887SOL    HW119753   5.043   6.209   9.090 -2.4340 -0.5524 -1.0083
37887SOL    HW219754   5.008   6.090   9.177  1.4534 -0.5714  0.7299
37888SOL     OW19755   4.056   0.518   8.613  0.2409  0.6654 -0.4134
37888SOL    HW119756   3.983   0.457   8.602  0.7939 -0.1533  0.3283
37888SOL    HW219757   4.134   0.464   8.607  0.7254  1.1047  1.2918
37889SOL     OW19758   1.112   3.790   5.798 -0.5420 -0.2668  0.0763
37889SOL    HW119759   1.125   3.791   5.704 -2.6222 -2.4181 -0.3249
37889SOL    HW219760   1.166   3.718   5.830 -1.3941 -0.8723  0.1957
37890SOL     OW19761   2.251   6.063   4.179 -0.1007 -0.4237  0.5842
37890SOL    HW119762   2.207   6.135   4.133  0.5371  1.9217  3.3613
37890SOL    HW219763   2.332   6.050   4.130  0.3753  1.7003  0.6919
37891SOL     OW19764   4.757   6.818   9.447  0.0740  0.8405 -0.0257
37891SOL    HW119765   4.744   6.725   9.425 -3.0452  1.3725 -0.9702
37891SOL    HW219766   4.760   6.862   9.362 -0.7600  1.8049  0.4289
37892SOL     OW19767   5.491   1.193   1.670  0.0242 -0.2135 -0.3811
37892SOL    HW119768   5.541   1.203   1.752  2.1201 -0.5938 -1.5526
37892SOL    HW219769   5.436   1.116   1.685  0.8608 -0.6736  0.4439
37893SOL     OW19770   3.188   7.234   0.833 -0.3658 -0.0565 -0.0390
37893SOL    HW119771   3.126   7.249   0.905 -1.1922 -0.0486 -0.7446
37893SOL    HW219772   3.227   7.149   0.853 -0.3797  0.0744  0.5655
37894SOL     OW19773   4.598   3.097   6.703 -0.5447  0.9052 -0.1860
37894SOL    HW119774   4.689   3.065   6.708 -0.6707  0.2866 -1.5076
37894SOL    HW219775   4.571   3.104   6.795  0.6275  0.4878  0.2196
37895SOL     OW19776   9.189   5.283   7.092 -0.2637  0.0007  0.3389
37895SOL    HW119777   9.257   5.244   7.147 -0.7904 -0.7136  0.4848
37895SOL    HW219778   9.202   5.243   7.006 -0.0508  0.4028  0.1791
37896SOL     OW19779   2.438   3.082   8.500 -0.0794 -0.2823  0.4050
37896SOL    HW119780   2.476   3.090   8.413 -0.0825  0.0124  0.4306
37896SOL    HW219781   2.379   3.007   8.494  0.8427 -1.0418  0.4799
37897SOL     OW19782   8.565   2.231   4.992 -0.0683  0.2610 -0.5015
37897SOL    HW119783   8.591   2.293   5.060  0.0914 -0.8889  0.5255
37897SOL    HW219784   8.477   2.257   4.966 -0.2620  0.5082  0.4014
37898SOL     OW19785   3.979   6.200   7.555  0.2151 -0.0131  0.2147
37898SOL    HW119786   3.940   6.286   7.571 -0.2152 -0.3440  1.0165
37898SOL    HW219787   4.014   6.206   7.466 -1.0519  0.5230 -0.2712
37899SOL     OW19788   3.192   9.623   8.024  0.3149  0.6297 -0.1853
37899SOL    HW119789   3.157   9.660   8.105  0.2021  0.1326  0.0002
37899SOL    HW219790   3.115   9.583   7.982  1.0111 -2.7710  1.4692
37900SOL     OW19791   7.130   7.086   8.732 -0.2891 -0.5010 -0.1019
37900SOL    HW119792   7.126   6.993   8.753 -1.5047  0.2487  3.9820
37900SOL    HW219793   7.048   7.105   8.687  0.3943 -1.4785 -1.8564
37901SOL     OW19794   7.724   1.284   8.853 -0.0936  0.1273 -0.1676
37901SOL    HW119795   7.770   1.317   8.775  0.4772  1.7029  0.7932
37901SOL    HW219796   7.733   1.189   8.847 -0.5495  0.1682 -2.3053
37902SOL     OW19797   1.565   4.091   3.536 -0.3528 -0.3279 -0.1060
37902SOL    HW119798   1.536   4.020   3.594 -1.2167 -0.8485 -1.1434
37902SOL    HW219799   1.486   4.119   3.491 -0.3868  2.4838  1.4809
37903SOL     OW19800   7.982   2.415   8.568 -0.1247  0.2016  0.1997
37903SOL    HW119801   7.889   2.428   8.583  0.3401  1.8575  2.2605
37903SOL    HW219802   8.011   2.494   8.523  0.3768  0.0054  0.1670
37904SOL     OW19803   1.595   7.081   7.875  0.1476 -0.1849 -0.0254
37904SOL    HW119804   1.579   7.162   7.826 -0.6771 -0.7788 -0.7834
37904SOL    HW219805   1.582   7.011   7.810  0.6535 -0.9329  0.6601
37905SOL     OW19806   7.178   9.591  10.071 -0.1504 -0.7253  0.3587
37905SOL    HW119807   7.146   9.633   9.991  1.1060  0.0007  0.2064
37905SOL    HW219808   7.255   9.541  10.043  0.7989  0.1972  1.2234
37906SOL     OW19809   0.482   5.742   1.269  1.0104  0.5195  1.4323
37906SOL    HW119810   0.558   5.800   1.270  0.4927  1.2725  3.6662
37906SOL    HW219811   0.407   5.801   1.256  0.6974 -0.0630  0.5132
37907SOL     OW19812   4.714  10.440   7.508  0.3643  0.2788 -0.1671
37907SOL    HW119813   4.743  10.505   7.573  1.2815  0.1006 -0.3826
37907SOL    HW219814   4.795  10.399   7.477 -0.1965 -1.0465  0.0385
37908SOL     OW19815   9.384   0.954   8.010  0.5880 -0.2222  0.4399
37908SOL    HW119816   9.289   0.949   7.997  0.6268 -0.4275  0.2155
37908SOL    HW219817   9.401   1.046   8.030  0.5128  0.1308 -0.9773
37909SOL     OW19818   7.005   6.898   3.424 -0.5926 -0.1195  0.2190
37909SOL    HW119819   6.951   6.912   3.346 -2.3464  2.1002  1.6784
37909SOL    HW219820   6.942   6.875   3.492  0.9954 -3.0229  0.8700
37910SOL     OW19821   9.953   0.016   0.570  0.2561  0.3437 -0.1770
37910SOL    HW119822   9.954   0.049   0.660 -0.6759  0.3773 -0.1690
37910SOL    HW219823  10.044  -0.004   0.551  0.4011 -0.2166  0.9862
37911SOL     OW19824   4.845   0.275   1.715 -0.4184 -0.0113 -0.4610
37911SOL    HW119825   4.852   0.358   1.763 -0.9219  0.6277 -1.4562
37911SOL    HW219826   4.888   0.211   1.772 -1.2571  0.6496  0.9858
37912SOL     OW19827   7.501   3.008   1.374  0.2147  0.1013  0.3211
37912SOL    HW119828   7.583   2.999   1.325 -0.6342  0.7263 -1.2786
37912SOL    HW219829   7.469   2.918   1.383  0.6675 -0.0703  0.2533
37913SOL     OW19830   5.883   4.585   8.209 -0.2613  0.3084 -0.2067
37913SOL    HW119831   5.861   4.557   8.120 -2.1497  1.0501 -0.0189
37913SOL    HW219832   5.877   4.505   8.261  1.3512 -0.2267 -0.7965
37914SOL     OW19833   8.984   1.900   0.057 -0.0551  0.6559  0.1818
37914SOL    HW119834   9.030   1.880  -0.024  0.1335  0.7968  0.2559
37914SOL    HW219835   9.052   1.899   0.125 -0.2217  0.4775  0.3472
37915SOL     OW19836   0.101   0.713   5.419  0.2667  0.5000 -0.0255
37915SOL    HW119837   0.188   0.672   5.413  0.2864  0.4099  0.7953
37915SOL    HW219838   0.057   0.685   5.338  0.1487 -1.4982  0.6585
37916SOL     OW19839   4.153   9.724   7.575 -0.3575  0.5557 -0.5298
37916SOL    HW119840   4.242   9.693   7.587 -0.5720 -0.2413 -0.9217
37916SOL    HW219841   4.103   9.682   7.645 -0.6430  0.0394 -1.0363
37917SOL     OW19842   6.262   2.337   1.055  0.3190  0.1866  0.0997
37917SOL    HW119843   6.197   2.395   1.014  1.0444  1.0693  0.1583
37917SOL    HW219844   6.221   2.251   1.056 -1.2461  0.9004  1.0094
37918SOL     OW19845   8.255   7.567   6.603 -0.2499 -0.5613  0.2741
37918SOL    HW119846   8.299   7.643   6.565 -2.4808  0.6890 -0.0038
37918SOL    HW219847   8.251   7.503   6.532  0.0695 -0.2306 -0.0461
37919SOL     OW19848   4.469   2.723   0.946  0.4699  0.0221 -0.1118
37919SOL    HW119849   4.437   2.737   1.035  1.1535  0.5562  0.0599
37919SOL    HW219850   4.407   2.770   0.890  0.4709  0.3366  0.1479
37920SOL     OW19851   2.292   9.783   1.076  0.3583  0.4250 -0.0192
37920SOL    HW119852   2.280   9.765   1.170  0.1277 -0.0584 -0.1404
37920SOL    HW219853   2.363   9.725   1.049 -0.9601 -0.9572 -0.6035
37921SOL     OW19854   6.720   1.486   8.085  0.1764 -0.4212 -0.2351
37921SOL    HW119855   6.742   1.567   8.039  0.2101 -0.4824 -0.3274
37921SOL    HW219856   6.745   1.417   8.024  0.3290 -0.5051 -0.0792
37922SOL     OW19857   5.492   0.353   0.538 -0.1336  0.3515  0.0595
37922SOL    HW119858   5.490   0.319   0.627 -0.6711 -0.3718 -0.2228
37922SOL    HW219859   5.528   0.441   0.547 -2.0937  1.0935  1.2618
37923SOL     OW19860   4.080  10.012   2.224  0.2691 -0.2494  0.6501
37923SOL    HW119861   4.140   9.940   2.241 -1.5304 -2.2282 -0.8781
37923SOL    HW219862   4.032  10.023   2.306  0.4408 -0.9001  0.8419
37924SOL     OW19863   6.618   2.561   8.375  0.1095 -0.0882 -0.4505
37924SOL    HW119864   6.628   2.492   8.308  0.4252  0.3424 -0.8566
37924SOL    HW219865   6.675   2.631   8.344 -0.6435  0.5811 -0.3286
37925SOL     OW19866   4.062   8.482   0.386  0.3694  0.2018 -0.0125
37925SOL    HW119867   3.986   8.523   0.428  1.6473  1.0758  1.5349
37925SOL    HW219868   4.026   8.402   0.346 -1.7844  1.7175 -1.3462
37926SOL     OW19869   2.608   8.848   5.043  0.1437 -0.1032  0.4166
37926SOL    HW119870   2.589   8.924   5.098  1.8201  1.5263 -1.1170
37926SOL    HW219871   2.691   8.814   5.077  0.1871 -0.2832  0.1321
37927SOL     OW19872   8.243   6.370   6.147  0.3971  0.6856 -0.3033
37927SOL    HW119873   8.307   6.321   6.198  0.3721 -0.8682 -1.6664
37927SOL    HW219874   8.163   6.368   6.199  0.6332  0.0057  0.0416
37928SOL     OW19875   2.105   4.601   8.389  0.0828 -0.2483 -0.0044
37928SOL    HW119876   2.180   4.569   8.440  0.5831 -0.6700 -0.9636
37928SOL    HW219877   2.108   4.696   8.399  0.3543 -0.3036  0.4994
37929SOL     OW19878   5.930   9.205   2.490 -0.1514  0.1885  0.2442
37929SOL    HW119879   5.988   9.236   2.421 -1.3913  1.7287 -0.1723
37929SOL    HW219880   5.975   9.227   2.572 -0.0793  1.2273 -0.0693
37930SOL     OW19881   6.053   9.662   5.995  0.1048 -0.1341  0.0406
37930SOL    HW119882   6.004   9.700   5.922 -0.2118 -1.6213 -0.5643
37930SOL    HW219883   5.987   9.615   6.046  0.9122 -2.6560 -1.1082
37931SOL     OW19884   1.968   9.716  10.888  0.7464 -0.3473  0.0674
37931SOL    HW119885   1.948   9.799  10.932  0.4790 -0.1092 -0.4915
37931SOL    HW219886   1.883   9.674  10.875  0.9742 -1.2512  1.3687
37932SOL     OW19887   5.419   6.682   9.771  0.1909 -0.4331  0.2909
37932SOL    HW119888   5.503   6.638   9.761 -0.2265 -0.7617 -2.6674
37932SOL    HW219889   5.440   6.775   9.768  0.3937 -0.4983 -2.1557
37933SOL     OW19890   0.274   2.437  10.276 -0.1122  0.0892 -0.3370
37933SOL    HW119891   0.362   2.439  10.314 -0.2155  1.0753 -0.1226
37933SOL    HW219892   0.249   2.529  10.269 -1.3491 -0.1945  0.1220
37934SOL     OW19893  10.270   6.707   8.155  0.5909 -0.1420  0.5829
37934SOL    HW119894  10.217   6.783   8.180  1.5713  1.3200 -1.4331
37934SOL    HW219895  10.206   6.641   8.128 -0.2754  0.1082  1.9459
37935SOL     OW19896   2.058   9.673   7.705  0.6077 -0.3028 -0.5093
37935SOL    HW119897   2.030   9.699   7.617  1.0323  0.1391 -0.5196
37935SOL    HW219898   2.030   9.746   7.761  0.9431 -0.2660 -0.3874
37936SOL     OW19899   7.984   0.406   3.292  0.4103  0.8040 -0.3362
37936SOL    HW119900   8.008   0.359   3.372 -1.8976  0.1141  0.0285
37936SOL    HW219901   7.920   0.349   3.249  0.3950  1.9083 -1.8442
37937SOL     OW19902   8.773   8.053   9.560 -0.4412  0.2605 -0.7272
37937SOL    HW119903   8.865   8.030   9.552 -0.7807 -1.8809  0.6583
37937SOL    HW219904   8.728   7.969   9.570 -2.5158  1.2690 -0.9668
37938SOL     OW19905   0.616   8.182   0.266 -0.1531  0.1542 -0.2764
37938SOL    HW119906   0.606   8.275   0.244 -0.9769 -0.1856 -1.4602
37938SOL    HW219907   0.704   8.160   0.237 -0.1980  0.4047 -0.6098
37939SOL     OW19908   2.255   3.887   7.704 -0.4471  0.3208 -0.0820
37939SOL    HW119909   2.303   3.807   7.726 -1.5683 -0.7445 -1.3677
37939SOL    HW219910   2.204   3.906   7.783 -0.2833 -0.3172  0.1854
37940SOL     OW19911   3.169   0.636   7.861 -0.4034  0.4507 -0.0182
37940SOL    HW119912   3.177   0.583   7.781  3.4947  1.4834 -0.4981
37940SOL    HW219913   3.108   0.706   7.836 -2.8361 -1.6678 -0.4975
37941SOL     OW19914   9.088   6.267   0.151 -0.0341 -0.2053  0.0135
37941SOL    HW119915   9.068   6.356   0.121 -0.2031  0.2096  1.2511
37941SOL    HW219916   9.152   6.234   0.089 -1.3886  0.0523 -1.5729
37942SOL     OW19917   2.748   1.335   9.475  0.1314  0.6720 -0.1168
37942SOL    HW119918   2.666   1.381   9.489  0.7122  1.6375  0.1695
37942SOL    HW219919   2.816   1.395   9.506  1.0024  0.2152 -1.0507
37943SOL     OW19920   5.563  10.440   4.508  0.3487 -0.2506  0.6442
37943SOL    HW119921   5.512  10.520   4.498 -0.9899 -1.1770 -0.4215
37943SOL    HW219922   5.652  10.470   4.524 -0.5445  1.4332  3.0261
37944SOL     OW19923   6.141   5.222   1.477 -0.1908 -0.1541 -0.1036
37944SOL    HW119924   6.104   5.136   1.456 -1.2664  0.3018 -0.1646
37944SOL    HW219925   6.110   5.240   1.566 -0.4211  0.3857 -0.2844
37945SOL     OW19926   3.670   4.435   2.901  0.1952 -0.3287  0.7457
37945SOL    HW119927   3.636   4.470   2.984  0.8888  0.0140  0.8953
37945SOL    HW219928   3.762   4.463   2.899  0.0049  0.2748 -0.4736
37946SOL     OW19929   0.062   3.135   8.794  0.0265 -0.1689  0.4133
37946SOL    HW119930   0.038   3.056   8.745  0.2522  0.1104 -0.1532
37946SOL    HW219931  -0.021   3.164   8.832 -0.3397  0.1510 -0.6034
37947SOL     OW19932   6.282   1.378   1.955 -0.0719 -0.4599 -0.1493
37947SOL    HW119933   6.292   1.336   2.041  2.3095  0.4469  0.0990
37947SOL    HW219934   6.332   1.460   1.962 -1.1625  0.4106 -1.9097
37948SOL     OW19935  10.729   7.372   5.097  0.0397  0.1639  0.1791
37948SOL    HW119936  10.808   7.425   5.089 -0.1790  0.3865 -0.5633
37948SOL    HW219937  10.727   7.318   5.018  0.3193 -1.0599  0.9651
37949SOL     OW19938   7.063   5.676   4.997  0.5214  0.2698  0.1585
37949SOL    HW119939   7.137   5.680   4.936  0.3663 -0.5693 -0.1053
37949SOL    HW219940   6.997   5.733   4.959  0.9597  0.8766  0.2970
37950SOL     OW19941  10.414  10.453   3.882  0.4279 -0.5228  0.3577
37950SOL    HW119942  10.334  10.502   3.864 -0.0354 -1.8268 -1.4128
37950SOL    HW219943  10.393  10.400   3.959  0.4939  1.0163  1.4721
37951SOL     OW19944   0.712   2.687   0.779 -0.6743  0.4554  0.0787
37951SOL    HW119945   0.705   2.782   0.779  0.0335  0.5145 -0.5988
37951SOL    HW219946   0.780   2.667   0.715 -0.9305 -0.5181  0.0847
37952SOL     OW19947   7.962   4.799   7.902 -0.2690  0.6577 -0.4143
37952SOL    HW119948   7.928   4.710   7.905  0.4828  0.3947  1.1282
37952SOL    HW219949   7.909   4.842   7.834 -1.0512 -0.7723 -0.7617
37953SOL     OW19950   2.574   6.732   4.959 -0.1996  0.0076 -0.0507
37953SOL    HW119951   2.520   6.809   4.978 -0.2198  0.1962 -0.8206
37953SOL    HW219952   2.664   6.765   4.960 -0.1810 -0.0497  0.0662
37954SOL     OW19953   6.785   7.041   8.384 -0.1815  0.0193 -0.3302
37954SOL    HW119954   6.700   7.010   8.416 -0.5862  1.3287 -0.0816
37954SOL    HW219955   6.820   7.094   8.455  0.2627  0.5374 -0.9284
37955SOL     OW19956   4.384   6.805   2.089 -0.7617 -0.4387 -0.1728
37955SOL    HW119957   4.431   6.802   2.006 -0.0631 -1.1945  0.2402
37955SOL    HW219958   4.413   6.887   2.129 -1.4050  0.1292 -0.8342
37956SOL     OW19959   9.789   1.908   1.888 -0.1415  0.5072 -0.4507
37956SOL    HW119960   9.756   1.819   1.877 -1.0506  0.9669 -1.7178
37956SOL    HW219961   9.712   1.964   1.880  0.4831  1.4418 -0.1678
37957SOL     OW19962   9.716   9.471   0.627  0.0926 -0.0297  0.1742
37957SOL    HW119963   9.650   9.431   0.683 -0.5295 -1.1979 -1.3023
37957SOL    HW219964   9.680   9.463   0.539  1.5035  0.7662 -0.5034
37958SOL     OW19965   0.375   7.731   2.439 -0.0068 -0.2622 -0.1038
37958SOL    HW119966   0.366   7.802   2.376  0.7702 -0.5051 -0.5017
37958SOL    HW219967   0.294   7.682   2.431  0.1499 -0.3965 -1.0618
37959SOL     OW19968  10.247   9.436   1.319 -0.2144 -0.3274  0.0301
37959SOL    HW119969  10.212   9.372   1.256 -0.7642 -1.2470  1.2131
37959SOL    HW219970  10.337   9.406   1.335 -0.3108 -0.5267  0.2128
37960SOL     OW19971   3.701   5.765   9.541 -0.3032 -0.1645 -0.7550
37960SOL    HW119972   3.704   5.752   9.446 -1.9287  0.0467 -0.8535
37960SOL    HW219973   3.791   5.746   9.570 -0.0856 -1.4602 -2.1573
37961SOL     OW19974   8.815   2.694   5.952 -0.0578  0.0403  0.3151
37961SOL    HW119975   8.752   2.652   5.892 -0.8963  0.7859  0.6504
37961SOL    HW219976   8.782   2.784   5.961  1.8172  0.8698 -0.5660
37962SOL     OW19977   1.317   4.797   3.635 -0.2499  0.4992 -0.0864
37962SOL    HW119978   1.299   4.721   3.689  1.7435  1.1813  1.6828
37962SOL    HW219979   1.337   4.762   3.548  1.8519 -1.1484  0.9879
37963SOL     OW19980   9.175   7.799   0.691 -0.4312  0.2908 -0.0045
37963SOL    HW119981   9.193   7.726   0.632 -2.3114 -0.6140  0.4618
37963SOL    HW219982   9.259   7.844   0.700  0.6306 -1.4289 -0.8071
37964SOL     OW19983   0.677   2.843   7.463  0.0449 -0.4329  0.4436
37964SOL    HW119984   0.742   2.911   7.444  0.6222 -1.3778 -1.1230
37964SOL    HW219985   0.727   2.771   7.500 -0.2594 -0.7610  0.2280
37965SOL     OW19986   7.102   6.499   1.607  0.0363 -0.7297 -0.2678
37965SOL    HW119987   7.045   6.430   1.573 -0.9891 -0.0234 -0.0212
37965SOL    HW219988   7.190   6.471   1.583 -0.4690 -1.4230 -1.4228
37966SOL     OW19989   6.728   6.186   8.849 -0.0037  0.0800 -0.2222
37966SOL    HW119990   6.806   6.229   8.884  0.3259 -0.4179 -0.3445
37966SOL    HW219991   6.666   6.258   8.835  0.0908  0.3660  0.7571
37967SOL     OW19992   3.796   3.018  10.242 -0.7794 -0.0376 -0.4109
37967SOL    HW119993   3.839   3.103  10.238 -0.1159 -0.0005  3.4282
37967SOL    HW219994   3.705   3.038  10.262 -0.8854 -0.2153 -0.7077
37968SOL     OW19995   6.224   1.467   7.675  0.1733 -0.7283  0.5416
37968SOL    HW119996   6.249   1.394   7.732 -0.0574 -0.9704  0.3364
37968SOL    HW219997   6.179   1.529   7.733  0.2635 -0.8041  0.6942
37969SOL     OW19998   1.173   0.242   7.237  0.3481  0.4760  0.2373
37969SOL    HW119999   1.120   0.201   7.169  2.2180  1.9781 -2.2878
37969SOL    HW220000   1.113   0.254   7.310 -2.2595  0.3424 -1.7391
37970SOL     OW20001   7.193   3.440   2.816 -0.0973  0.0708 -0.2641
37970SOL    HW120002   7.245   3.365   2.790  2.5476  0.1168  4.0155
37970SOL    HW220003   7.124   3.404   2.872  0.1362  0.6773  0.4254
37971SOL     OW20004   2.199   9.593   2.424  0.4379 -0.1605 -0.2089
37971SOL    HW120005   2.222   9.510   2.382  0.3065 -0.2517 -0.1032
37971SOL    HW220006   2.155   9.644   2.355  1.4374  0.2303 -0.5682
37972SOL     OW20007   9.681   4.952   9.558  0.1650  0.1816 -0.5668
37972SOL    HW120008   9.675   5.026   9.619 -0.1869  0.5973 -1.0894
37972SOL    HW220009   9.749   4.896   9.595  0.3256  0.6886 -0.0690
37973SOL     OW20010   6.558   2.750  10.182  0.1832  0.0428 -0.2081
37973SOL    HW120011   6.541   2.657  10.197 -0.8372  0.3262  0.5266
37973SOL    HW220012   6.481   2.794  10.216  1.2641  1.2609  0.7756
37974SOL     OW20013   6.759   8.159   9.913 -0.3321  0.2574 -0.5384
37974SOL    HW120014   6.697   8.232   9.903 -0.1619  0.6762  1.2318
37974SOL    HW220015   6.845   8.202   9.914 -0.2494  0.0812  0.8304
37975SOL     OW20016  10.069   7.272   2.487  0.0111 -0.2987  0.1938
37975SOL    HW120017  10.126   7.338   2.449  0.3938 -1.5002 -1.4091
37975SOL    HW220018  10.075   7.197   2.428 -0.2859 -1.8486  2.0173
37976SOL     OW20019   8.020   3.117   0.642  0.1873  0.1441  0.1627
37976SOL    HW120020   8.007   3.135   0.549  0.4067 -1.9781 -0.3256
37976SOL    HW220021   7.941   3.070   0.668  1.0100 -1.0704  0.5201
37977SOL     OW20022  10.249   2.412   0.311 -0.2685 -0.1167 -0.0556
37977SOL    HW120023  10.297   2.377   0.386  0.8051 -0.1383 -0.7285
37977SOL    HW220024  10.315   2.421   0.242 -0.7003  2.2323 -0.2620
37978SOL     OW20025   0.866  10.126   0.807 -0.5077  0.4211 -0.0842
37978SOL    HW120026   0.812  10.167   0.875  0.4226  1.0047  0.3217
37978SOL    HW220027   0.918  10.060   0.853 -1.0621 -0.3346 -0.5198
37979SOL     OW20028   6.399   6.123   6.229 -0.2210 -0.0139  0.4263
37979SOL    HW120029   6.482   6.094   6.191  0.0265  0.5335  0.5381
37979SOL    HW220030   6.355   6.042   6.254  0.5859 -0.2830  1.0175
37980SOL     OW20031   6.930   7.410  10.065 -0.5370  0.4774 -0.3047
37980SOL    HW120032   6.982   7.440  10.139 -2.0853 -1.4126  1.6819
37980SOL    HW220033   6.937   7.481  10.000  2.9416  1.0511  0.5390
37981SOL     OW20034   7.528   1.911   9.748  0.3763 -0.4816  0.5056
37981SOL    HW120035   7.598   1.976   9.744 -0.6169  0.6058  0.2521
37981SOL    HW220036   7.447   1.962   9.752 -0.3892 -1.6948  1.5444
37982SOL     OW20037  10.689  10.394   8.045  0.1762 -0.0199  0.3420
37982SOL    HW120038  10.621  10.327   8.043 -0.1141  0.2832 -0.0753
37982SOL    HW220039  10.764  10.350   8.084 -0.5850 -0.0483  1.8486
37983SOL     OW20040   1.213   2.421  10.432 -1.0798  0.2043 -0.0384
37983SOL    HW120041   1.246   2.360  10.498 -1.2833 -1.0158 -1.0368
37983SOL    HW220042   1.201   2.368  10.353 -2.2520  1.3176 -0.6503
37984SOL     OW20043   5.452   2.291  10.610  0.2325  0.2298 -0.3812
37984SOL    HW120044   5.388   2.237  10.655  1.3862 -1.2745 -0.4919
37984SOL    HW220045   5.406   2.374  10.595 -0.3456  0.6845  3.1433
37985SOL     OW20046   8.405  10.901   5.530  0.2847 -0.0561 -0.0024
37985SOL    HW120047   8.319  10.902   5.489  0.5873  0.1008 -0.6544
37985SOL    HW220048   8.466  10.926   5.460  0.7761  0.6313  0.6367
37986SOL     OW20049   5.811   3.715   5.243 -0.0758  0.3251  0.1945
37986SOL    HW120050   5.814   3.638   5.300  1.3335  1.4145  1.6894
37986SOL    HW220051   5.895   3.716   5.198 -0.3349  0.6571 -0.2982
37987SOL     OW20052   5.170   6.469   4.988  0.4049 -0.5479 -0.1040
37987SOL    HW120053   5.133   6.524   4.919 -0.5200 -2.2048 -0.9962
37987SOL    HW220054   5.094   6.440   5.038  1.0144  0.0996  1.2385
37988SOL     OW20055   9.019   0.266  10.627 -0.0028 -0.6147  0.2634
37988SOL    HW120056   8.946   0.222  10.584  0.0899  0.6417 -1.3005
37988SOL    HW220057   9.091   0.260  10.564  0.4729  0.3327  0.6941
37989SOL     OW20058   4.944   0.853  10.407 -0.3788  0.0896 -0.6590
37989SOL    HW120059   4.945   0.859  10.311  0.2405 -3.3105 -0.9935
37989SOL    HW220060   5.032   0.825  10.430 -0.5240  0.8566  0.9255
37990SOL     OW20061   1.482   1.054   5.949  0.5688 -0.1588 -0.4137
37990SOL    HW120062   1.411   0.989   5.945 -0.3799  0.7750  0.5307
37990SOL    HW220063   1.489   1.087   5.860 -0.2629 -0.1948 -0.5005
37991SOL     OW20064   2.380   3.494   8.983  0.0131  0.2448 -0.7859
37991SOL    HW120065   2.437   3.554   9.031  1.0348 -0.6414 -0.8435
37991SOL    HW220066   2.309   3.474   9.044 -0.4610  1.6463 -0.8425
37992SOL     OW20067   5.516   9.081   7.331 -0.0890 -0.0261 -0.3492
37992SOL    HW120068   5.573   9.018   7.288  0.3761 -1.3387  2.0404
37992SOL    HW220069   5.532   9.069   7.424 -0.7637  2.9296  0.2617
37993SOL     OW20070   3.940   6.513   1.141 -0.7606 -0.2531 -0.1717
37993SOL    HW120071   4.034   6.502   1.124 -0.0702  0.2381  2.7303
37993SOL    HW220072   3.899   6.437   1.099  1.1089 -1.2265 -0.3506
37994SOL     OW20073   1.949   2.156   5.599 -0.6199  0.2241 -0.2310
37994SOL    HW120074   1.943   2.176   5.506 -0.0544  0.7697 -0.1553
37994SOL    HW220075   1.928   2.239   5.643 -1.1974 -0.1051  0.1349
37995SOL     OW20076   2.436   1.162   9.599  0.4192 -0.0315 -0.3155
37995SOL    HW120077   2.456   1.089   9.540  1.8554  1.8386 -2.2729
37995SOL    HW220078   2.515   1.171   9.653 -1.0477 -2.0216  2.4006
37996SOL     OW20079   8.403   1.182   7.307 -0.2748  0.0166  0.2594
37996SOL    HW120080   8.470   1.245   7.334 -0.8257 -0.1063  2.0863
37996SOL    HW220081   8.320   1.229   7.319 -0.5974 -0.3942 -0.3243
37997SOL     OW20082   3.786   8.768   4.688  0.4643 -0.0080 -0.0515
37997SOL    HW120083   3.705   8.786   4.734  0.4320 -0.6776  0.1699
37997SOL    HW220084   3.854   8.806   4.743  0.4221 -0.7700  0.5482
37998SOL     OW20085   7.142   6.246   4.770  0.0931  0.2757 -0.4992
37998SOL    HW120086   7.222   6.292   4.797  1.2095 -1.2964 -0.9492
37998SOL    HW220087   7.097   6.227   4.852  0.7032  0.3007 -0.1508
37999SOL     OW20088   8.729   3.018   6.604 -0.1664 -0.8576 -0.2726
37999SOL    HW120089   8.650   3.056   6.566  0.0088 -1.3506 -1.1704
37999SOL    HW220090   8.760   2.956   6.538  1.2910 -0.2611 -0.1924
38000SOL     OW20091   3.559   8.092   2.915 -0.1666 -0.5908 -0.2437
38000SOL    HW120092   3.480   8.053   2.953  1.0087 -1.8628  1.0302
38000SOL    HW220093   3.527   8.146   2.843 -2.3357  0.2781  1.2538
38001SOL     OW20094   2.240   5.450   0.671 -0.5895 -0.4545 -0.1091
38001SOL    HW120095   2.166   5.412   0.623 -0.1337 -0.5148 -0.7790
38001SOL    HW220096   2.310   5.385   0.662 -0.1293  0.0699 -0.3757
38002SOL     OW20097   0.950   1.956   4.141 -0.3741  0.3452  0.1769
38002SOL    HW120098   0.855   1.972   4.136 -0.2383  1.0106 -0.6209
38002SOL    HW220099   0.965   1.883   4.081 -0.3182  0.5857 -0.1058
38003SOL     OW20100   1.293   1.468   7.052  0.0093 -0.5582 -0.5057
38003SOL    HW120101   1.225   1.501   6.993 -0.2840 -0.8771 -0.3447
38003SOL    HW220102   1.249   1.454   7.136  0.5650  0.5348 -0.0030
38004SOL     OW20103   9.584   9.589   3.740  0.4280  0.3137  0.2083
38004SOL    HW120104   9.656   9.539   3.701  2.5039  2.2018  1.3766
38004SOL    HW220105   9.595   9.678   3.704 -1.8834  0.4905 -0.2235
38005SOL     OW20106   6.245   9.947  10.343 -0.2950  0.3273  0.4543
38005SOL    HW120107   6.274  10.036  10.322 -1.2050  0.2767 -1.1390
38005SOL    HW220108   6.323   9.905  10.380  0.2482  1.6525  0.8964
38006SOL     OW20109   2.874   2.730   5.548  0.1143  0.0158  0.1603
38006SOL    HW120110   2.790   2.775   5.561 -0.2480 -0.4274 -0.5430
38006SOL    HW220111   2.910   2.770   5.468 -0.2123 -0.9140 -0.4698
38007SOL     OW20112   0.249  10.213   9.853 -0.2092 -0.5852 -0.4259
38007SOL    HW120113   0.164  10.236   9.890 -0.5625 -2.6141  0.1160
38007SOL    HW220114   0.255  10.118   9.863  2.3682 -0.4384  0.0890
38008SOL     OW20115  10.843   1.783   5.705  0.2998  0.4242 -0.2718
38008SOL    HW120116  10.835   1.714   5.770  2.0387  0.5175  0.0848
38008SOL    HW220117  10.781   1.759   5.636  1.0911 -1.7032 -0.3137
38009SOL     OW20118   8.105   8.254   7.197  0.4332  0.1676  0.0092
38009SOL    HW120119   8.077   8.255   7.288 -1.4372  0.8168 -0.5267
38009SOL    HW220120   8.086   8.342   7.165  2.0183  0.2672 -0.7664
38010SOL     OW20121   1.250   3.420   9.457 -0.2466  0.3023 -0.5135
38010SOL    HW120122   1.281   3.508   9.437  0.1205  0.1152 -0.7742
38010SOL    HW220123   1.320   3.381   9.509 -0.3252  0.0986 -0.5596
38011SOL     OW20124   7.534   6.431  10.258  0.0810  0.8317 -0.5882
38011SOL    HW120125   7.600   6.374  10.296 -0.3115  0.5894 -0.2608
38011SOL    HW220126   7.472   6.447  10.329 -3.1997 -3.2917 -2.0975
38012SOL     OW20127   2.700   4.437   4.497 -0.6198 -0.2243  0.6601
38012SOL    HW120128   2.757   4.475   4.564  2.6268 -1.4123 -1.2024
38012SOL    HW220129   2.710   4.342   4.507 -0.6394 -0.4432 -1.0024
38013SOL     OW20130   8.038   3.942   7.596  0.5014  0.4428  0.2271
38013SOL    HW120131   7.955   3.936   7.548 -0.7179  1.3764  2.0958
38013SOL    HW220132   8.072   4.029   7.575 -1.3283  1.9298  2.8721
38014SOL     OW20133   2.595   1.460   4.306 -0.3118  0.2451  0.4711
38014SOL    HW120134   2.585   1.422   4.219 -1.6642  1.3243  0.1346
38014SOL    HW220135   2.550   1.400   4.364 -1.6357  0.8125  0.0628
38015SOL     OW20136   4.733   3.726  10.815  0.9064 -0.2801  0.1157
38015SOL    HW120137   4.758   3.772  10.734  0.1721 -1.8140 -1.0341
38015SOL    HW220138   4.812   3.729  10.869  1.8708 -0.4131 -1.2363
38016SOL     OW20139  10.654  10.030   5.100  0.0084 -0.1001  0.1838
38016SOL    HW120140  10.748  10.045   5.114 -0.0003 -0.1459  0.2906
38016SOL    HW220141  10.644   9.935   5.107 -0.0548 -0.0901  0.2256
38017SOL     OW20142   7.234   1.030   1.654 -0.4900  0.1487  0.5029
38017SOL    HW120143   7.154   0.985   1.625  0.1962 -0.9451  0.2591
38017SOL    HW220144   7.222   1.121   1.625 -1.2833 -0.1854 -0.2658
38018SOL     OW20145   4.590   0.968   2.546 -0.3472  0.4439 -0.1026
38018SOL    HW120146   4.501   0.943   2.521 -0.5826  0.9120  0.2690
38018SOL    HW220147   4.592   0.958   2.641 -0.5813  2.2511  0.1188
38019SOL     OW20148   1.349   4.636   9.183  0.3635  0.3943 -0.5896
38019SOL    HW120149   1.362   4.549   9.145  0.2536  0.3879 -0.6129
38019SOL    HW220150   1.273   4.626   9.239  0.3318  0.4839 -0.6173
38020SOL     OW20151   3.730   2.942   1.899 -0.4845 -0.0392 -0.1239
38020SOL    HW120152   3.773   2.899   1.825  1.1840  1.9390 -0.4158
38020SOL    HW220153   3.757   2.892   1.975  2.9451  1.4002 -0.2355
38021SOL     OW20154   5.764   1.776   8.902  0.6424  0.3506 -0.5633
38021SOL    HW120155   5.723   1.846   8.952  1.2675  0.0864  0.3488
38021SOL    HW220156   5.699   1.706   8.899  0.3422  0.6388 -0.7160
38022SOL     OW20157   8.908   4.716   1.065  0.5362 -0.4405  0.1292
38022SOL    HW120158   8.872   4.634   1.033 -0.7793 -0.3209  1.1960
38022SOL    HW220159   8.835   4.778   1.059  1.3175  0.4821 -0.0451
38023SOL     OW20160   5.690   4.334   0.460 -0.4339 -0.0461 -0.0015
38023SOL    HW120161   5.772   4.285   0.455 -1.2570 -1.3772 -1.4554
38023SOL    HW220162   5.627   4.271   0.494 -0.8663  0.9656  1.1023
38024SOL     OW20163   8.759   5.928   5.395  0.3712 -0.3169 -0.4791
38024SOL    HW120164   8.758   5.833   5.408 -1.2599 -0.2634  0.0837
38024SOL    HW220165   8.713   5.963   5.472  0.1067  0.8565 -1.1433
38025SOL     OW20166   3.594   6.869   9.115  0.1213 -0.0468  0.0771
38025SOL    HW120167   3.675   6.883   9.164 -0.0963 -1.6957  0.9738
38025SOL    HW220168   3.524   6.886   9.177 -0.1779 -0.9705  0.0033
38026SOL     OW20169   7.934   1.937   1.148 -0.3634  0.2492 -0.3867
38026SOL    HW120170   7.925   1.856   1.099 -2.1123 -0.6183  1.2628
38026SOL    HW220171   7.856   1.988   1.125 -0.5761  0.3557  0.5487
38027SOL     OW20172   8.872   1.532   2.475  0.0226 -0.1490  0.3538
38027SOL    HW120173   8.849   1.537   2.568 -0.1089  0.1336  0.3080
38027SOL    HW220174   8.927   1.609   2.460 -1.6473  0.9906 -0.2678
38028SOL     OW20175   8.919  10.002   9.458 -0.3996 -0.3821  0.0555
38028SOL    HW120176   8.984  10.017   9.390 -0.1047  0.3589  0.4788
38028SOL    HW220177   8.970   9.979   9.536 -0.7095 -0.8333  0.1311
38029SOL     OW20178   3.264   7.403   1.673 -0.5077 -0.3323  0.0165
38029SOL    HW120179   3.213   7.322   1.682  2.0274 -2.0496  0.0165
38029SOL    HW220180   3.314   7.409   1.755  1.3054 -0.2587 -1.0368
38030SOL     OW20181   9.540   2.004   4.774  0.0469  0.3668 -0.3896
38030SOL    HW120182   9.601   2.042   4.838 -0.2738  0.4432 -0.1262
38030SOL    HW220183   9.513   2.078   4.720  2.1553 -0.0719 -2.1795
38031SOL     OW20184   0.729   2.313   7.882 -0.1509 -0.3350 -0.2567
38031SOL    HW120185   0.656   2.270   7.927  1.0270 -1.4989  0.6481
38031SOL    HW220186   0.688   2.369   7.816 -1.8351 -1.5702 -0.3272
38032SOL     OW20187   6.969   5.798   9.843 -0.2082 -0.1575  0.1624
38032SOL    HW120188   6.999   5.772   9.930 -0.1918 -0.4618  0.0658
38032SOL    HW220189   6.989   5.892   9.838 -1.2311  0.1245  0.9165
38033SOL     OW20190   9.694   0.556   4.630  0.2892  0.1587  0.2074
38033SOL    HW120191   9.688   0.461   4.631  1.1752  0.0944  1.6055
38033SOL    HW220192   9.763   0.575   4.566  0.5790 -0.1764  0.4174
38034SOL     OW20193   3.644   2.729   3.041  1.3841  0.2230  0.7536
38034SOL    HW120194   3.616   2.643   3.073 -1.0652  1.1427  1.3383
38034SOL    HW220195   3.644   2.785   3.119  1.6288  1.0346  0.1844
38035SOL     OW20196   4.678   8.649   9.837 -0.1804 -0.2208 -0.7288
38035SOL    HW120197   4.764   8.605   9.839  0.5979  1.2244  1.7288
38035SOL    HW220198   4.617   8.582   9.866  0.4064 -0.7704 -0.7301
38036SOL     OW20199   7.413   2.530   8.465 -0.1532 -0.0069 -0.0174
38036SOL    HW120200   7.489   2.480   8.434 -2.2193 -2.5973 -1.2505
38036SOL    HW220201   7.345   2.465   8.478 -1.6799  1.9711  2.9633
38037SOL     OW20202   5.221   7.255   6.003 -0.3593  0.1293 -0.5448
38037SOL    HW120203   5.245   7.169   6.038 -0.4911  0.5826  0.7075
38037SOL    HW220204   5.135   7.273   6.040 -0.6333  0.5240 -1.3456
38038SOL     OW20205   8.967   4.847   9.313 -0.0078  0.3925  0.4900
38038SOL    HW120206   9.054   4.860   9.276  0.3136  1.7116  1.5965
38038SOL    HW220207   8.909   4.898   9.256 -0.0858 -0.5537 -0.2951
38039SOL     OW20208   1.147   8.508   4.939 -0.3713  0.3490 -0.0520
38039SOL    HW120209   1.063   8.533   4.976 -1.0088  2.5750 -2.6555
38039SOL    HW220210   1.212   8.550   4.996 -0.9906 -0.6063  1.4241
38040SOL     OW20211   6.716   3.419   8.735 -0.3429  0.3583 -0.2126
38040SOL    HW120212   6.626   3.387   8.726  0.2732 -1.2375 -1.1462
38040SOL    HW220213   6.750   3.417   8.646  0.7963  0.3907  0.2154
38041SOL     OW20214   9.778   3.431   6.321 -0.7043  0.2925 -0.0000
38041SOL    HW120215   9.710   3.409   6.257 -1.0247  2.2562 -0.3894
38041SOL    HW220216   9.732   3.429   6.405 -1.2363  1.4472 -0.2443
38042SOL     OW20217   9.918   3.793   9.967 -0.0292  0.4595 -0.3408
38042SOL    HW120218   9.837   3.843   9.978 -1.1382 -1.6519  2.5143
38042SOL    HW220219   9.891   3.716   9.917  0.2812 -0.0722  0.3010
38043SOL     OW20220   1.729   0.926   4.757  0.6635 -0.1326 -0.2648
38043SOL    HW120221   1.745   0.836   4.729  0.6428 -0.0865 -0.4280
38043SOL    HW220222   1.661   0.958   4.697 -0.5243 -0.5359  0.8207
38044SOL     OW20223   6.896   4.222   0.013  0.0913  0.3227  0.3806
38044SOL    HW120224   6.814   4.174   0.004 -0.6568  1.7756 -1.0104
38044SOL    HW220225   6.941   4.209  -0.070  0.4718  0.9386  0.4866
38045SOL     OW20226  10.518   4.679   8.994  0.1282  0.1058 -0.6883
38045SOL    HW120227  10.519   4.591   8.955  0.2936  0.3168 -1.1633
38045SOL    HW220228  10.567   4.733   8.933  0.4586  0.4291 -0.1429
38046SOL     OW20229   6.074  10.217   6.195  0.2265 -0.3386  0.4744
38046SOL    HW120230   6.005  10.177   6.142 -0.3044 -1.0971  1.7032
38046SOL    HW220231   6.060  10.311   6.184 -0.1405 -0.4812 -0.3792
38047SOL     OW20232   0.186  10.546   0.113 -0.4309 -0.3099  0.4524
38047SOL    HW120233   0.163  10.622   0.059  0.3603 -0.0425  0.4819
38047SOL    HW220234   0.109  10.490   0.109 -0.0173 -0.8182 -1.8321
38048SOL     OW20235   2.722   2.287   2.381 -0.1624 -0.8336 -0.4744
38048SOL    HW120236   2.790   2.267   2.315 -0.9398 -1.9491 -0.9827
38048SOL    HW220237   2.699   2.201   2.417 -0.7835 -0.3800  0.2225
38049SOL     OW20238   7.707  10.121   7.385 -0.5339 -0.5539  0.0735
38049SOL    HW120239   7.688  10.187   7.319  2.2584  0.8492  0.5301
38049SOL    HW220240   7.701  10.168   7.468  0.5644 -1.1122  0.4754
38050SOL     OW20241   7.548   6.722   0.004 -0.0258 -0.6453 -0.5804
38050SOL    HW120242   7.630   6.769   0.019 -0.5250  0.3467 -0.8305
38050SOL    HW220243   7.516   6.757  -0.080 -1.8001  0.6687  0.5663
38051SOL     OW20244   4.245   5.185   1.371 -0.2157 -0.2448  0.0203
38051SOL    HW120245   4.289   5.234   1.440  0.7229  0.8411 -1.3035
38051SOL    HW220246   4.158   5.166   1.407 -0.2135  1.4021  1.0082
38052SOL     OW20247   0.369   6.942   9.893 -0.4682 -0.0545  0.0349
38052SOL    HW120248   0.374   6.923   9.986  1.2041  2.8716  0.6916
38052SOL    HW220249   0.339   7.033   9.889  1.2273  0.4862 -2.1559
38053SOL     OW20250   3.782   1.760   7.042 -0.6208 -0.1832  0.6256
38053SOL    HW120251   3.853   1.813   7.007  0.6224 -2.7034 -0.9506
38053SOL    HW220252   3.798   1.759   7.137  2.0549 -1.3808  0.2477
38054SOL     OW20253   4.030   0.377   4.245 -0.5221 -0.2719  0.9021
38054SOL    HW120254   4.043   0.319   4.171  0.9006  0.4919  0.5032
38054SOL    HW220255   4.052   0.324   4.322 -1.2079 -0.8304  0.7102
38055SOL     OW20256   0.395   0.646   7.873 -0.1716 -0.3784  0.0147
38055SOL    HW120257   0.490   0.657   7.867 -0.0988 -1.0538 -0.0873
38055SOL    HW220258   0.360   0.716   7.818  0.2809 -0.5154 -0.4622
38056SOL     OW20259   2.528   4.177   7.481 -0.2396  0.3221  0.5576
38056SOL    HW120260   2.615   4.192   7.516 -0.2608  0.4465  0.5564
38056SOL    HW220261   2.537   4.099   7.426 -0.1691  0.2274  0.7024
38057SOL     OW20262   6.122   5.237   0.690 -0.3269 -0.3312 -0.0880
38057SOL    HW120263   6.061   5.178   0.645 -1.6162 -0.2905  1.5249
38057SOL    HW220264   6.176   5.179   0.743 -0.0821 -0.2274 -0.2228
38058SOL     OW20265   0.587   8.798   5.862 -0.0029  0.1639 -0.1605
38058SOL    HW120266   0.496   8.784   5.837 -0.2650 -0.8285  1.3006
38058SOL    HW220267   0.628   8.833   5.782 -1.2824 -0.8686 -1.3210
38059SOL     OW20268   4.883   8.811  10.912  0.0172  0.1629  0.1521
38059SOL    HW120269   4.813   8.870  10.886  2.0613  1.4440 -3.0851
38059SOL    HW220270   4.907   8.840  11.000 -2.3134  0.7860  0.6473
38060SOL     OW20271   7.832   2.072   6.147 -0.4565 -0.0725 -0.4516
38060SOL    HW120272   7.739   2.085   6.130 -1.0543 -3.4209 -0.4373
38060SOL    HW220273   7.848   1.981   6.124  2.5763  0.0415  0.7190
38061SOL     OW20274  10.163   6.255   5.851  0.5270  0.0104  0.3188
38061SOL    HW120275  10.128   6.216   5.931  0.9710  0.9479  0.9828
38061SOL    HW220276  10.205   6.182   5.805 -0.5563 -0.7254  0.4679
38062SOL     OW20277   2.177   8.688   1.367 -0.1861  0.2139  0.5970
38062SOL    HW120278   2.163   8.610   1.421  0.1006  1.3292  2.3858
38062SOL    HW220279   2.089   8.723   1.353 -0.1737  0.6941  1.6099
38063SOL     OW20280   4.556   0.890   4.309 -0.3079 -0.1430  0.1603
38063SOL    HW120281   4.639   0.885   4.261  0.2838  1.0361  1.0013
38063SOL    HW220282   4.577   0.856   4.396 -1.0317 -0.9935  0.0140
38064SOL     OW20283   9.819   1.480   7.377 -0.3036  0.2532  0.2711
38064SOL    HW120284   9.864   1.530   7.309  1.8724 -1.1168  0.5836
38064SOL    HW220285   9.801   1.395   7.335  2.1063 -1.0349  1.6146
38065SOL     OW20286   3.356   8.090   2.336  0.0918 -0.1916  0.3107
38065SOL    HW120287   3.357   8.179   2.374  0.6978 -0.9342  2.1783
38065SOL    HW220288   3.352   8.104   2.242 -1.2957  1.8046  0.6001
38066SOL     OW20289   7.626   1.329   3.521  0.0024 -0.1363 -0.2506
38066SOL    HW120290   7.705   1.332   3.467 -1.1297  0.7758 -1.9544
38066SOL    HW220291   7.590   1.241   3.505 -1.2038  0.6709 -2.4230
38067SOL     OW20292   6.523   6.096   2.312 -0.1762  0.1496 -0.0585
38067SOL    HW120293   6.537   6.112   2.218  1.0831 -2.3442 -0.4025
38067SOL    HW220294   6.499   6.003   2.316 -0.8964  0.3816  2.0638
38068SOL     OW20295   2.446   1.415   1.954  0.2274  0.1255 -0.4974
38068SOL    HW120296   2.371   1.355   1.954  0.1311  0.2444 -0.5370
38068SOL    HW220297   2.522   1.359   1.966 -0.0510  0.2430  2.6599
38069SOL     OW20298  10.191   4.195   5.693  0.1830  0.2377  0.3250
38069SOL    HW120299  10.121   4.133   5.713  1.5638 -1.2338  0.7750
38069SOL    HW220300  10.170   4.226   5.604 -0.6526 -0.6949  0.1777
38070SOL     OW20301   3.756   2.153  10.554 -0.5879 -0.4149  0.6843
38070SOL    HW120302   3.663   2.160  10.529 -0.2331  1.3322 -0.3898
38070SOL    HW220303   3.784   2.068  10.520 -1.3982 -0.2282 -0.5356
38071SOL     OW20304   3.818   0.809   4.544 -0.2191 -0.5547  0.5032
38071SOL    HW120305   3.830   0.718   4.572 -1.5697 -0.4407  1.5543
38071SOL    HW220306   3.772   0.803   4.460 -0.3156 -0.8472  0.5756
38072SOL     OW20307  10.277  10.515   2.962 -0.1026  0.5568 -0.2157
38072SOL    HW120308  10.254  10.481   2.875  1.6619  1.5167 -1.1254
38072SOL    HW220309  10.318  10.600   2.944  2.7445 -0.3695  1.2928
38073SOL     OW20310   6.544   3.778   8.918 -0.1501  0.0757  0.4701
38073SOL    HW120311   6.478   3.807   8.981 -2.1332  0.2061 -1.5526
38073SOL    HW220312   6.519   3.688   8.897  0.1575  0.2091 -0.5257
38074SOL     OW20313   9.026   8.132   5.947  0.2374  0.1404  0.4484
38074SOL    HW120314   8.963   8.130   5.875 -0.9320 -0.5837  1.4567
38074SOL    HW220315   9.026   8.223   5.977  0.4232  0.3537 -0.1987
38075SOL     OW20316   4.031   4.374   8.480  0.9030 -0.4344  0.0736
38075SOL    HW120317   3.993   4.397   8.565 -0.6600 -2.1493 -0.1033
38075SOL    HW220318   4.125   4.379   8.495  0.6958  1.9047  1.1207
38076SOL     OW20319   6.666   4.984   4.534  0.0941  0.5837 -0.2220
38076SOL    HW120320   6.651   4.907   4.480  0.1094 -0.4230  1.1635
38076SOL    HW220321   6.578   5.017   4.555  0.0853  0.8598 -0.6696
38077SOL     OW20322   2.739  10.573   0.815  0.1454 -0.7463  0.5784
38077SOL    HW120323   2.818  10.565   0.761  0.6497  1.3553  0.9148
38077SOL    HW220324   2.672  10.526   0.766  0.9937 -0.3566 -1.0280
38078SOL     OW20325   3.932   3.569   9.061  0.1740 -0.5336  0.0603
38078SOL    HW120326   4.012   3.518   9.078  0.7413  0.2156 -0.3105
38078SOL    HW220327   3.884   3.567   9.144 -0.5412 -2.8851 -0.3229
38079SOL     OW20328   5.808   9.200   7.641  0.4620 -0.4709 -0.7210
38079SOL    HW120329   5.777   9.124   7.691 -0.0274  0.4063  0.3341
38079SOL    HW220330   5.744   9.268   7.659  1.9692  0.8238  0.0064
38080SOL     OW20331   2.185   5.301   2.334  0.2116 -0.6213 -0.4246
38080SOL    HW120332   2.116   5.235   2.337 -0.9924  0.6039  0.0667
38080SOL    HW220333   2.218   5.299   2.244 -2.6933  0.9171 -1.6613
38081SOL     OW20334   3.488   9.950   3.252 -0.0761 -0.4062  0.0197
38081SOL    HW120335   3.526   9.994   3.329 -0.3515  0.3244 -0.2464
38081SOL    HW220336   3.563   9.906   3.211  0.4321  0.6795 -0.2693
38082SOL     OW20337   6.919   7.216   8.026 -0.3345  0.5368 -0.2922
38082SOL    HW120338   6.937   7.126   8.054 -0.3985  0.2718 -1.0893
38082SOL    HW220339   6.959   7.270   8.095 -0.9737 -0.0940  0.6043
38083SOL     OW20340   8.835   2.397   0.566  0.0516  0.5522  0.7943
38083SOL    HW120341   8.801   2.486   0.567  1.5263  1.1559  1.0958
38083SOL    HW220342   8.871   2.385   0.654 -0.7404 -0.6044  0.9794
38084SOL     OW20343   2.900   6.856   4.461 -0.0673 -0.7782  0.2346
38084SOL    HW120344   2.841   6.824   4.393 -0.4729 -1.0696  0.7133
38084SOL    HW220345   2.986   6.859   4.420 -0.6499  1.1259 -0.9544
38085SOL     OW20346   2.552   7.954   0.290 -0.7528 -0.1781  0.1149
38085SOL    HW120347   2.611   7.936   0.216 -0.2482  0.0796  0.4412
38085SOL    HW220348   2.547   8.050   0.292  0.9966 -0.0494  1.7252
38086SOL     OW20349   2.694   5.437   0.529 -0.0778  0.3974  0.1050
38086SOL    HW120350   2.725   5.528   0.520  0.4457 -0.0046 -3.2919
38086SOL    HW220351   2.599   5.445   0.539 -0.2331  1.3294 -1.7067
38087SOL     OW20352   6.280   3.944   9.044  0.2602 -0.1703 -0.0657
38087SOL    HW120353   6.315   4.008   9.105  1.2162 -2.3753  1.8406
38087SOL    HW220354   6.189   3.931   9.071  0.6877 -1.1564  0.9639
38088SOL     OW20355   7.322   1.674  10.903  0.1466 -0.3750  0.0906
38088SOL    HW120356   7.259   1.736  10.868 -0.0666 -0.1107  0.9127
38088SOL    HW220357   7.371   1.644  10.827 -1.4707 -1.1735 -0.6999
38089SOL     OW20358   2.917   0.326   2.325 -0.3047  0.1993  0.1104
38089SOL    HW120359   2.874   0.311   2.409 -1.1961 -0.7787 -0.5020
38089SOL    HW220360   2.938   0.420   2.325 -1.0873  0.3840  1.0564
38090SOL     OW20361   7.489   4.331   6.850  0.2433 -0.1341 -0.7240
38090SOL    HW120362   7.430   4.302   6.920  0.8091 -2.2868 -1.0504
38090SOL    HW220363   7.509   4.422   6.871 -1.8643  0.1516  0.3067
38091SOL     OW20364   0.040  10.755   3.838  0.1382  0.2769 -0.2266
38091SOL    HW120365   0.106  10.808   3.883 -0.0963  1.2185 -0.9425
38091SOL    HW220366   0.059  10.767   3.745 -0.4085 -0.2772 -0.4194
38092SOL     OW20367   8.898   9.377   1.747 -0.3245 -0.0119  0.2651
38092SOL    HW120368   8.978   9.429   1.739 -1.4876  2.0339  1.0757
38092SOL    HW220369   8.926   9.287   1.729  2.1880  0.5854  0.7396
38093SOL     OW20370   6.179   5.372   0.168 -0.0850  0.2446 -0.2171
38093SOL    HW120371   6.198   5.304   0.103 -0.3905 -0.1034  0.0502
38093SOL    HW220372   6.264   5.397   0.203  0.0585  0.2478 -0.5664
38094SOL     OW20373   0.069   6.914   0.997  0.3831  0.4437  0.3781
38094SOL    HW120374   0.077   6.890   0.905 -1.0570  0.6839  0.1594
38094SOL    HW220375   0.012   6.846   1.035  0.2223  0.8486  0.8756
38095SOL     OW20376   7.018   3.295  10.710  0.2456 -0.0165 -0.3122
38095SOL    HW120377   6.923   3.280  10.716  0.2076  0.2322 -0.2764
38095SOL    HW220378   7.053   3.214  10.673  0.1909 -0.6432  0.9789
38096SOL     OW20379   2.174   2.772   0.988  0.3684 -0.3824  0.3929
38096SOL    HW120380   2.208   2.712   1.055 -0.0073  0.2437  1.1665
38096SOL    HW220381   2.199   2.859   1.020  1.0568 -0.1231 -0.8010
38097SOL     OW20382   5.414   3.524   1.611  0.6916 -0.0407  0.0596
38097SOL    HW120383   5.453   3.498   1.694  0.8317  2.2720  0.7920
38097SOL    HW220384   5.479   3.583   1.572 -0.9024  1.8513  0.1085
38098SOL     OW20385   5.262   7.229  10.205 -0.0764  0.1001 -0.0909
38098SOL    HW120386   5.256   7.292  10.276 -0.7253 -0.7689  0.6554
38098SOL    HW220387   5.256   7.143  10.248 -2.1261 -0.4434 -1.2721
38099SOL     OW20388   7.623   1.735   8.277  0.2583 -0.3883 -0.3570
38099SOL    HW120389   7.555   1.760   8.339  3.2006 -0.8339  3.4482
38099SOL    HW220390   7.650   1.817   8.236 -0.2205  0.3497  0.7454
38100SOL     OW20391   2.661   3.496   1.761 -0.0025  0.4862 -0.1012
38100SOL    HW120392   2.641   3.433   1.830 -0.3976 -0.1526 -0.7926
38100SOL    HW220393   2.579   3.507   1.714  0.5063  0.1545 -1.0926
38101SOL     OW20394   7.979   9.763   9.153  0.1619 -0.2496 -0.2612
38101SOL    HW120395   7.930   9.819   9.093 -0.0365 -1.4229 -1.2376
38101SOL    HW220396   7.918   9.693   9.177  0.3552  0.0078  1.0538
38102SOL     OW20397   3.892   5.588   5.866  0.0630 -0.0554 -1.1695
38102SOL    HW120398   3.903   5.495   5.847 -0.2377 -0.4668  0.5008
38102SOL    HW220399   3.797   5.600   5.870  0.0612  0.6742 -2.8832
38103SOL     OW20400   8.080   1.565   2.589 -0.0030 -0.2296  0.6820
38103SOL    HW120401   8.091   1.640   2.531  1.3307  0.4280  1.7317
38103SOL    HW220402   8.052   1.493   2.531 -0.6508  0.8823 -0.4346
38104SOL     OW20403   4.263   4.912   1.391 -0.1821 -0.5409  0.4162
38104SOL    HW120404   4.281   5.006   1.395 -0.3805 -0.5498  1.8348
38104SOL    HW220405   4.168   4.906   1.387 -0.1388 -0.6700 -0.7658
38105SOL     OW20406   3.250   4.443   5.391 -0.1887  0.6845 -0.0528
38105SOL    HW120407   3.196   4.367   5.416  0.6463  0.5492  1.4343
38105SOL    HW220408   3.248   4.442   5.295  1.4567 -2.4830 -0.2095
38106SOL     OW20409   2.660  10.561   0.236 -0.3723 -0.0179  0.1222
38106SOL    HW120410   2.703  10.481   0.267  0.3555  0.8579  1.4612
38106SOL    HW220411   2.582  10.529   0.189  0.1087 -1.5197  0.2716
38107SOL     OW20412   2.428   9.375   4.923  0.3612 -0.0388  0.1034
38107SOL    HW120413   2.462   9.324   4.849  0.2918 -0.4865  0.3783
38107SOL    HW220414   2.483   9.453   4.925  1.8576 -1.0677  0.9747
38108SOL     OW20415   2.123   6.360   5.426  0.1335  0.0619  0.7496
38108SOL    HW120416   2.178   6.418   5.478 -2.5860  1.3545  2.4058
38108SOL    HW220417   2.076   6.307   5.490 -0.8077 -0.7369 -0.5434
38109SOL     OW20418   3.257   2.651   3.550 -0.5228 -0.4736  0.2324
38109SOL    HW120419   3.246   2.667   3.644  2.2922  4.4805  0.0646
38109SOL    HW220420   3.331   2.590   3.545 -0.1488 -0.1225  1.2294
38110SOL     OW20421   6.421   2.466   6.847  0.7335 -0.2472  0.2058
38110SOL    HW120422   6.358   2.537   6.838  2.0138  0.6493 -2.8645
38110SOL    HW220423   6.372   2.387   6.824  0.5176  0.3676 -1.6194
38111SOL     OW20424   5.962   6.001   8.655  0.7734  0.1046 -0.2764
38111SOL    HW120425   5.968   5.994   8.750 -0.4284 -0.7391 -0.2389
38111SOL    HW220426   5.884   6.054   8.640  0.0455 -1.0608 -0.7835
38112SOL     OW20427   2.556   9.117   9.558 -0.1566  0.1586 -0.5848
38112SOL    HW120428   2.544   9.179   9.631  1.6024  0.6401 -0.6605
38112SOL    HW220429   2.517   9.161   9.482 -1.7266 -0.2158 -0.0471
38113SOL     OW20430   0.746   0.713  10.344 -0.5748  0.0102 -0.0238
38113SOL    HW120431   0.792   0.630  10.328 -1.0693 -0.3338  0.2965
38113SOL    HW220432   0.809   0.765  10.394  0.3106  0.4250 -1.5008
38114SOL     OW20433   0.028   5.169   5.909  0.5938  0.1080  0.0738
38114SOL    HW120434   0.031   5.078   5.937 -0.9502 -0.1187 -0.4294
38114SOL    HW220435   0.041   5.220   5.989 -1.2540 -0.5435  0.8365
38115SOL     OW20436   8.609   2.360   6.301  0.5878  0.1664  0.3608
38115SOL    HW120437   8.531   2.362   6.245  0.3169  0.6766  0.7494
38115SOL    HW220438   8.678   2.398   6.247 -0.0890  2.4331  0.9736
38116SOL     OW20439   5.608  10.388   4.889 -0.0753  0.0497  0.1869
38116SOL    HW120440   5.627  10.295   4.875  0.9615  0.1974  0.5241
38116SOL    HW220441   5.516  10.398   4.863 -0.7353 -1.4077  1.7315
38117SOL     OW20442   0.497   2.738  10.511  0.1321 -0.3475  0.9201
38117SOL    HW120443   0.415   2.750  10.558 -0.4541  1.3375 -0.4397
38117SOL    HW220444   0.471   2.715  10.422  1.1384 -0.1898  0.5631
38118SOL     OW20445   1.485   5.884   7.160 -0.1413  0.1356 -0.1346
38118SOL    HW120446   1.403   5.881   7.210  0.5191  0.3327  1.0072
38118SOL    HW220447   1.472   5.824   7.087 -1.3053  0.1832  0.0266
38119SOL     OW20448   1.622   6.266   7.619 -0.1434  0.2399 -0.4101
38119SOL    HW120449   1.659   6.339   7.571 -0.0009  0.4073 -0.0487
38119SOL    HW220450   1.580   6.306   7.695 -0.2354 -0.0343 -0.3149
38120SOL     OW20451   4.714   1.124   6.802 -0.3019 -0.4918 -0.5349
38120SOL    HW120452   4.664   1.132   6.721 -1.3929 -0.7055  0.1013
38120SOL    HW220453   4.672   1.184   6.863  0.9037  0.1468 -0.2998
38121SOL     OW20454   9.890   7.179   7.706  0.7581  0.1254 -0.1852
38121SOL    HW120455   9.836   7.200   7.630 -0.9709  0.5452  1.1062
38121SOL    HW220456   9.948   7.254   7.716  0.1327  0.6387 -0.3633
38122SOL     OW20457   0.081   2.152  10.678  0.5206 -0.3804  0.2264
38122SOL    HW120458   0.002   2.134  10.626  0.9340  0.1073 -0.5887
38122SOL    HW220459   0.144   2.086  10.649 -0.2023 -2.1882  2.4106
38123SOL     OW20460   0.925   1.954   9.348  0.4317 -0.4299  0.0944
38123SOL    HW120461   0.929   1.861   9.368  1.1482 -0.5994 -0.7803
38123SOL    HW220462   0.859   1.962   9.280 -0.9630 -0.0369  1.4297
38124SOL     OW20463   8.280   0.738   2.022  0.5026 -0.4112  0.3234
38124SOL    HW120464   8.284   0.662   2.079 -2.9544 -1.0878 -0.1257
38124SOL    HW220465   8.311   0.706   1.937  0.4910 -0.9050  0.5034
38125SOL     OW20466   5.248  10.169   7.039  0.1549  0.1183  0.4855
38125SOL    HW120467   5.161  10.149   7.006  0.6826 -2.1722  0.3420
38125SOL    HW220468   5.304  10.169   6.962  0.7746 -1.5436  0.9052
38126SOL     OW20469   7.691   1.900   9.029 -0.1429  0.0348  0.5584
38126SOL    HW120470   7.735   1.907   8.944  1.1234 -1.6765  1.0158
38126SOL    HW220471   7.682   1.991   9.059  0.5564  0.5837 -0.8169
38127SOL     OW20472   8.796   1.800   6.729 -0.0058 -0.1859 -0.0369
38127SOL    HW120473   8.880   1.841   6.749 -0.6390  1.9819 -1.5434
38127SOL    HW220474   8.763   1.848   6.654 -2.6115 -0.9822  0.5018
38128SOL     OW20475   5.594   7.274   0.850  0.2015 -0.2365  0.0576
38128SOL    HW120476   5.626   7.198   0.899 -0.4713 -0.6591 -0.1314
38128SOL    HW220477   5.551   7.236   0.773 -0.1852  0.3343 -0.0154
38129SOL     OW20478   2.131   2.421   9.448 -0.0907 -0.0779  0.5223
38129SOL    HW120479   2.054   2.459   9.406  0.0804  0.0166  0.2989
38129SOL    HW220480   2.204   2.442   9.390  0.1045 -0.1725  0.7314
38130SOL     OW20481   1.086   6.790  10.121  0.0829 -0.3337 -0.3186
38130SOL    HW120482   1.032   6.753  10.051  0.0804 -1.4089  0.2295
38130SOL    HW220483   1.058   6.882  10.127 -0.6422 -0.4957 -1.0256
38131SOL     OW20484   0.900   6.364  10.825 -0.3219  0.6506 -0.0976
38131SOL    HW120485   0.863   6.332  10.743 -1.3119 -1.0669  0.9540
38131SOL    HW220486   0.843   6.327  10.893  1.2243  0.9348  1.4198
38132SOL     OW20487   3.057   8.884   6.410 -0.0277 -0.3473  0.1077
38132SOL    HW120488   2.999   8.809   6.424  1.0944 -1.2700 -0.0924
38132SOL    HW220489   3.097   8.900   6.495  0.0567 -0.2453  0.0491
38133SOL     OW20490   3.231   1.011  10.787 -0.7189  0.1572 -0.5282
38133SOL    HW120491   3.148   1.058  10.788 -0.8386 -0.0104  1.1332
38133SOL    HW220492   3.295   1.076  10.817 -0.6477 -0.3186  0.3933
38134SOL     OW20493   8.043   4.716   5.454 -0.1793 -0.4056 -0.3674
38134SOL    HW120494   8.099   4.780   5.499  0.2893 -1.5314  0.6833
38134SOL    HW220495   8.012   4.763   5.376 -0.5242  1.3962  0.7887
38135SOL     OW20496   7.609   4.743   8.114  0.5021  0.5221  0.2891
38135SOL    HW120497   7.674   4.699   8.059  2.2284 -0.6684  3.0468
38135SOL    HW220498   7.589   4.824   8.068  2.9121  0.2910 -1.3547
38136SOL     OW20499   6.378   8.141   0.640 -0.2534 -0.5953 -0.1627
38136SOL    HW120500   6.295   8.154   0.685 -0.0997  0.1652 -0.0944
38136SOL    HW220501   6.371   8.053   0.602 -1.1112 -0.5091 -0.2191
38137SOL     OW20502   9.380   2.750   9.298  0.3130  0.3412 -0.2678
38137SOL    HW120503   9.343   2.756   9.210 -1.9081 -0.3621  0.5545
38137SOL    HW220504   9.387   2.656   9.316  1.5296  0.4709  0.0128
38138SOL     OW20505   8.589   2.719   0.223  0.0817  0.2402  0.3657
38138SOL    HW120506   8.630   2.632   0.221 -0.3747  0.0201 -1.0599
38138SOL    HW220507   8.630   2.766   0.150 -0.9150  0.6093  0.0239
38139SOL     OW20508   5.192   0.856   6.205  0.0916  0.1520  0.2424
38139SOL    HW120509   5.135   0.779   6.198  0.4556 -0.3562  2.3933
38139SOL    HW220510   5.242   0.842   6.285  2.6793  0.9923 -1.1140
38140SOL     OW20511   0.919   1.578   1.159  0.3200  0.8826 -0.0976
38140SOL    HW120512   0.828   1.552   1.147  0.1368  2.2709 -2.4126
38140SOL    HW220513   0.917   1.642   1.230 -0.5701  1.1652 -0.3722
38141SOL     OW20514   0.737   1.200  10.515 -0.6209  0.8221 -0.3784
38141SOL    HW120515   0.675   1.273  10.516  0.1099  1.4532  0.3171
38141SOL    HW220516   0.684   1.123  10.537 -1.5595  0.9882 -1.8986
38142SOL     OW20517   4.749   4.786   3.603 -0.4218  0.7734  0.4743
38142SOL    HW120518   4.836   4.769   3.567 -1.2120 -1.4758 -0.5702
38142SOL    HW220519   4.743   4.728   3.679 -1.4514 -0.0722 -0.2284
38143SOL     OW20520   7.096   6.441   4.111  0.2627 -0.0418  0.9316
38143SOL    HW120521   7.140   6.431   4.195  2.5176 -0.0729 -0.1875
38143SOL    HW220522   7.010   6.478   4.134  0.4134 -0.9608  3.2865
38144SOL     OW20523   9.783   1.515   4.754 -0.1019 -0.2542 -0.2377
38144SOL    HW120524   9.871   1.523   4.716  0.1564  0.8961  0.5521
38144SOL    HW220525   9.724   1.545   4.685  0.5306  4.9723  1.0619
38145SOL     OW20526   7.361   2.940   7.000 -0.2911 -0.2588  0.7040
38145SOL    HW120527   7.338   2.871   6.938  0.0595 -1.7898  2.2036
38145SOL    HW220528   7.302   3.012   6.978 -1.2720 -1.3334 -0.3562
38146SOL     OW20529   7.254   4.175   7.916  0.2832  0.1222  0.5561
38146SOL    HW120530   7.302   4.203   7.838  1.0071  0.4676  1.1123
38146SOL    HW220531   7.206   4.097   7.888 -0.3388  0.8781 -0.5231
38147SOL     OW20532   4.387   3.497   7.771 -0.6120  0.2525  0.2874
38147SOL    HW120533   4.429   3.530   7.692 -0.5733  0.0687  0.2321
38147SOL    HW220534   4.304   3.461   7.740 -0.9347  0.8512  0.4299
38148SOL     OW20535  10.478   0.432   5.940  0.4871  0.7023 -0.0314
38148SOL    HW120536  10.573   0.436   5.935  0.3929  1.6524 -1.7636
38148SOL    HW220537  10.447   0.488   5.869 -1.3786  0.7855  0.7707
38149SOL     OW20538   5.918   4.045   0.815 -0.1232  0.8628  0.0018
38149SOL    HW120539   6.011   4.027   0.828 -0.7137 -1.9501  1.1171
38149SOL    HW220540   5.909   4.060   0.721  1.5920  2.5159  0.0455
38150SOL     OW20541   4.388   9.799  10.109  0.4189  0.0221  0.0711
38150SOL    HW120542   4.355   9.810  10.019  0.1771  1.0888  0.2675
38150SOL    HW220543   4.460   9.862  10.115 -1.0089  1.6229  1.2933
38151SOL     OW20544   4.422   8.784   0.730 -0.1374  0.7915  0.5350
38151SOL    HW120545   4.326   8.782   0.723 -0.2627 -0.3682  2.1118
38151SOL    HW220546   4.447   8.691   0.734  1.2385  1.0018 -1.5633
38152SOL     OW20547   8.075   1.905   4.620  0.2363  0.4423  0.2919
38152SOL    HW120548   8.083   1.863   4.535  0.2763 -2.5458  1.6523
38152SOL    HW220549   8.162   1.943   4.637  0.2196  1.0843 -0.9417
38153SOL     OW20550  10.073   5.185   2.925  0.6657 -1.0108 -0.2818
38153SOL    HW120551  10.167   5.189   2.943  0.7608 -1.2620 -0.6880
38153SOL    HW220552  10.054   5.264   2.875  1.2801 -2.3786 -2.8369
38154SOL     OW20553   5.310   8.113   2.900  0.6320  0.4432  0.0182
38154SOL    HW120554   5.352   8.099   2.815  0.2427 -0.6331 -0.0217
38154SOL    HW220555   5.219   8.133   2.878  0.0378 -1.7806  0.1789
38155SOL     OW20556   7.790   2.578   7.395  0.2239 -0.2731 -0.4498
38155SOL    HW120557   7.785   2.485   7.415 -0.8677 -0.5098 -1.6955
38155SOL    HW220558   7.733   2.620   7.459  0.5645 -0.4676 -0.0123
38156SOL     OW20559   9.651   8.326   6.561  0.0611  0.3903 -0.0766
38156SOL    HW120560   9.604   8.332   6.644 -0.4866 -1.5800 -0.1757
38156SOL    HW220561   9.595   8.271   6.506  0.1507  2.0826 -1.9706
38157SOL     OW20562   3.482   7.569  10.156  0.2702  0.4539  0.5602
38157SOL    HW120563   3.470   7.562  10.250  0.7354 -0.6569  0.5564
38157SOL    HW220564   3.398   7.598  10.122 -0.2844 -0.3579  1.2069
38158SOL     OW20565   8.684   4.895   6.764 -0.0560  0.1841 -0.4056
38158SOL    HW120566   8.701   4.817   6.711 -1.0731 -0.9893  0.9237
38158SOL    HW220567   8.724   4.875   6.849  0.6689  1.6121 -0.3722
38159SOL     OW20568   1.677   7.930   9.861 -0.2566 -0.0576 -0.4738
38159SOL    HW120569   1.674   8.026   9.864  0.4317 -0.0225 -0.7774
38159SOL    HW220570   1.627   7.903   9.938  0.9808  0.5778  0.6123
38160SOL     OW20571  10.227   9.474   4.072 -0.4190  0.0821  0.1703
38160SOL    HW120572  10.289   9.515   4.133 -1.7138  0.7198  1.1210
38160SOL    HW220573  10.282   9.424   4.012  0.9020 -1.1750  2.2901
38161SOL     OW20574   2.482   1.259   4.444 -0.1246 -0.7923  0.2262
38161SOL    HW120575   2.500   1.286   4.534 -0.3677  2.1820 -0.5055
38161SOL    HW220576   2.473   1.164   4.449 -1.0450 -0.6605  3.4930
38162SOL     OW20577  10.464   8.753   3.320 -0.1579  0.2331 -0.5180
38162SOL    HW120578  10.414   8.695   3.262 -0.1695  0.3631 -0.6361
38162SOL    HW220579  10.494   8.695   3.391  1.5816 -0.3565 -1.6865
38163SOL     OW20580   2.383   7.045   7.203 -0.1188  0.2355 -0.0759
38163SOL    HW120581   2.302   7.026   7.251  0.3715  0.1518  0.7201
38163SOL    HW220582   2.428   7.111   7.256 -0.5532  1.7380 -1.4684
38164SOL     OW20583   4.807   1.779   6.898  0.0057  0.4744 -0.3313
38164SOL    HW120584   4.762   1.696   6.887 -0.5945  0.7839 -0.2676
38164SOL    HW220585   4.796   1.823   6.813  0.2131  0.5405 -0.3237
38165SOL     OW20586   0.229   1.004   4.671  0.5793  0.0903  0.0885
38165SOL    HW120587   0.179   0.930   4.638 -1.6228  0.4074  2.3681
38165SOL    HW220588   0.186   1.081   4.632 -1.1574  0.3865  2.3683
38166SOL     OW20589   4.541   3.217   1.289  0.3138  0.0687 -0.4828
38166SOL    HW120590   4.469   3.192   1.347 -0.1282  1.0197 -0.6034
38166SOL    HW220591   4.516   3.183   1.203  0.9260 -1.2615 -0.1685
38167SOL     OW20592   9.076  10.602   6.346 -0.1159  0.7562  0.5494
38167SOL    HW120593   9.048  10.528   6.293  0.7737  0.5347  0.3799
38167SOL    HW220594   9.054  10.679   6.294 -0.0052  0.5701  0.2264
38168SOL     OW20595   5.377   9.380   9.310  0.1557  0.1290  0.0448
38168SOL    HW120596   5.310   9.372   9.242 -0.4156  2.2143  0.3054
38168SOL    HW220597   5.447   9.430   9.268  0.3370  0.3727  0.6337
38169SOL     OW20598  10.588   8.824   7.669 -0.1268  0.3437  0.3508
38169SOL    HW120599  10.575   8.743   7.619 -1.9440  0.5899  0.3372
38169SOL    HW220600  10.653   8.873   7.620  1.0125 -1.0826  0.3577
38170SOL     OW20601  10.915  10.363   0.627 -0.1021  0.1335 -0.4822
38170SOL    HW120602  10.902  10.402   0.541  0.8817  0.1157 -0.6463
38170SOL    HW220603  11.010  10.359   0.638 -0.2031  1.1976  1.0839
38171SOL     OW20604   3.556   0.045   8.328 -0.1308  0.3787 -0.3298
38171SOL    HW120605   3.576   0.135   8.300  0.1164  0.3227 -0.3375
38171SOL    HW220606   3.502   0.055   8.406 -2.6444  0.5713 -1.9779
38172SOL     OW20607   4.850   0.317   4.969 -0.0565 -0.3543 -0.3539
38172SOL    HW120608   4.828   0.224   4.981 -1.0121 -0.0883  0.0788
38172SOL    HW220609   4.843   0.355   5.057  0.2493  0.1414 -0.5406
38173SOL     OW20610   5.998   2.692   9.272 -0.3197  0.3097  0.6249
38173SOL    HW120611   6.079   2.689   9.323 -0.1622  1.5977  0.4777
38173SOL    HW220612   5.934   2.732   9.331 -0.8291 -0.5599  0.6852
38174SOL     OW20613   2.245   6.792   0.746 -0.1375  0.2598  0.2175
38174SOL    HW120614   2.245   6.702   0.779  0.4892 -0.2237 -1.0701
38174SOL    HW220615   2.277   6.844   0.820 -0.3690 -0.5834  0.9295
38175SOL     OW20616   7.790   0.783   3.108 -0.6281  0.5042  0.0650
38175SOL    HW120617   7.775   0.688   3.109  0.0115  0.4000  0.6541
38175SOL    HW220618   7.771   0.809   3.018 -0.5052 -0.2386 -0.1836
38176SOL     OW20619   5.435   9.767   7.532 -0.0541  0.0016  0.2567
38176SOL    HW120620   5.459   9.814   7.612  0.3841 -0.5901  0.4758
38176SOL    HW220621   5.465   9.825   7.461  0.9748 -0.1766  0.5250
38177SOL     OW20622   7.584   7.357   1.606 -0.0553  0.4874  0.4370
38177SOL    HW120623   7.520   7.302   1.561 -0.6637 -0.0179  1.8654
38177SOL    HW220624   7.537   7.392   1.682  0.5825  2.2796  0.0685
38178SOL     OW20625   0.403   0.654   8.993 -0.0990  0.0122  0.1172
38178SOL    HW120626   0.498   0.651   9.007  0.0248  1.5524 -0.1946
38178SOL    HW220627   0.367   0.681   9.077 -0.1597  0.3397 -0.0086
38179SOL     OW20628   0.337   5.863   9.308 -0.4025 -0.3277  0.4127
38179SOL    HW120629   0.417   5.879   9.358  0.3041 -2.0197 -0.0921
38179SOL    HW220630   0.331   5.937   9.248 -0.0519  0.5896  1.4751
38180SOL     OW20631   8.069   2.288   1.934  0.3912 -0.2536 -0.4189
38180SOL    HW120632   7.974   2.279   1.929  0.3831  0.1496 -1.0616
38180SOL    HW220633   8.084   2.383   1.932  0.7033 -0.2110  1.7104
38181SOL     OW20634   3.693   9.390   3.621  0.2330 -0.1886  0.3310
38181SOL    HW120635   3.694   9.345   3.537 -1.2976  2.1698 -1.0757
38181SOL    HW220636   3.608   9.368   3.659  0.7832 -0.9771  1.1421
38182SOL     OW20637  10.661   1.999   9.933 -0.1583  0.1802  0.4648
38182SOL    HW120638  10.660   1.960  10.021  0.8695  1.4823  1.0833
38182SOL    HW220639  10.713   2.078   9.942  0.7960 -0.1511 -1.5405
38183SOL     OW20640   3.583   1.517   1.897  0.3355 -0.2801  0.2109
38183SOL    HW120641   3.569   1.428   1.930  2.5267 -0.8278 -0.1828
38183SOL    HW220642   3.608   1.567   1.974 -0.8766  0.0164  0.4287
38184SOL     OW20643   4.116   3.167   8.884 -0.2204 -0.2925  0.8772
38184SOL    HW120644   4.020   3.177   8.884 -0.3807 -1.3148  2.7100
38184SOL    HW220645   4.130   3.079   8.850  0.0606 -0.1741  0.6919
38185SOL     OW20646   9.945   6.019  10.724  0.1034 -0.0868 -0.2835
38185SOL    HW120647   9.981   6.046  10.640  0.6519  0.7879  0.2279
38185SOL    HW220648   9.985   5.934  10.741 -0.9315 -0.8542 -1.4635
38186SOL     OW20649   3.286   8.137   6.453 -0.3103 -0.4534 -0.7315
38186SOL    HW120650   3.197   8.164   6.432 -1.0494 -1.8764  0.3919
38186SOL    HW220651   3.341   8.205   6.415 -1.9677  1.9021  0.8552
38187SOL     OW20652   5.818   4.770   6.395  0.2771 -0.2574 -0.2839
38187SOL    HW120653   5.805   4.805   6.483 -0.6858  0.7271 -0.7907
38187SOL    HW220654   5.795   4.678   6.402  2.1161 -0.6865  0.9083
38188SOL     OW20655  10.061   5.454   9.094  0.4356  0.1734 -0.2684
38188SOL    HW120656  10.119   5.379   9.108  0.7880  0.4892  0.0081
38188SOL    HW220657  10.102   5.525   9.143 -0.8162  0.1134  0.9326
38189SOL     OW20658   7.383   1.347   0.622  0.4611 -0.0906 -0.0021
38189SOL    HW120659   7.364   1.311   0.536  1.4110  0.2332 -0.3560
38189SOL    HW220660   7.369   1.274   0.682  0.2879 -0.4537 -0.4807
38190SOL     OW20661   1.726   4.131   0.647 -0.4388 -0.4486  0.5191
38190SOL    HW120662   1.687   4.209   0.686 -2.4790 -1.3660  0.4413
38190SOL    HW220663   1.703   4.136   0.555 -0.7388 -1.2156  0.5476
38191SOL     OW20664   5.687   8.736   9.643  0.1379 -0.1084 -0.1644
38191SOL    HW120665   5.760   8.716   9.702  1.2651  1.5147 -0.9400
38191SOL    HW220666   5.662   8.826   9.667 -0.5976 -0.1031 -0.9306
38192SOL     OW20667   0.487   7.610   5.607 -0.2179 -0.7706 -0.4026
38192SOL    HW120668   0.580   7.587   5.611 -0.2643 -1.2250 -1.5153
38192SOL    HW220669   0.486   7.700   5.575 -0.0998  0.2453  2.2166
38193SOL     OW20670   0.796   2.824   4.528  0.7757 -0.3525  0.1260
38193SOL    HW120671   0.758   2.750   4.575 -0.9492 -1.2636 -2.4752
38193SOL    HW220672   0.722   2.883   4.512  1.4556  0.2834 -0.7773
38194SOL     OW20673   2.393   5.894   0.634  0.3532 -0.2114 -0.0978
38194SOL    HW120674   2.473   5.860   0.673 -0.0317 -0.7192  0.2491
38194SOL    HW220675   2.343   5.929   0.707 -0.6173 -1.6637 -0.0309
38195SOL     OW20676   3.814  10.010  10.533  0.2101  0.2676  0.2683
38195SOL    HW120677   3.863   9.984  10.611 -0.0430  1.4197  0.8236
38195SOL    HW220678   3.811   9.930  10.480 -2.2303 -1.4896  2.7551
38196SOL     OW20679   7.193   8.868  10.369 -0.2489 -0.0505 -0.1794
38196SOL    HW120680   7.213   8.775  10.360 -0.1592 -0.0829  0.3180
38196SOL    HW220681   7.107   8.870  10.410  0.4267  0.0669  1.2982
38197SOL     OW20682   4.406   3.120   7.654 -0.0968 -0.2203 -0.1325
38197SOL    HW120683   4.448   3.189   7.603 -0.9593 -0.6720 -1.4957
38197SOL    HW220684   4.314   3.147   7.659 -0.1102 -0.4076  0.8185
38198SOL     OW20685   1.171   1.955   9.703 -0.3444  0.2940  0.1724
38198SOL    HW120686   1.119   2.035   9.699 -2.2334 -0.9112 -0.9191
38198SOL    HW220687   1.201   1.941   9.613 -1.9317 -1.3626 -0.1502
38199SOL     OW20688   0.152   4.553   9.168  0.4227 -0.9090  0.1978
38199SOL    HW120689   0.129   4.520   9.255 -0.8770 -0.7879 -0.0689
38199SOL    HW220690   0.194   4.479   9.124  1.8365 -0.7250  1.1792
38200SOL     OW20691   1.674   9.973   0.613  0.1837 -0.5676  0.0025
38200SOL    HW120692   1.653   9.967   0.706 -0.2967 -0.4802 -0.0949
38200SOL    HW220693   1.589   9.978   0.570  0.2889  3.5948 -0.1596
38201SOL     OW20694  10.244   1.862  10.202 -0.0417  0.4118 -0.4749
38201SOL    HW120695  10.285   1.901  10.125  0.4371 -0.0762 -0.4706
38201SOL    HW220696  10.312   1.864  10.269 -0.5317  1.0716  0.0286
38202SOL     OW20697   3.973   4.896   2.955  0.3536  0.2287  0.3553
38202SOL    HW120698   3.941   4.882   2.865 -0.1411  4.7422 -0.4175
38202SOL    HW220699   3.894   4.901   3.008  0.5207 -0.2369  0.6542
38203SOL     OW20700   7.799   2.693   3.868 -0.6338  0.0367  0.2054
38203SOL    HW120701   7.892   2.672   3.865 -0.6951 -0.1784 -2.3070
38203SOL    HW220702   7.768   2.651   3.949  1.1749 -1.0688  0.3887
38204SOL     OW20703   6.017   9.221   4.134  0.3212 -0.7355  0.3085
38204SOL    HW120704   6.065   9.284   4.080 -1.4513  0.2923 -0.1582
38204SOL    HW220705   6.073   9.144   4.136  2.0485  0.4383 -0.0475
38205SOL     OW20706   2.135   1.997   3.842  0.2804  0.2475 -0.2366
38205SOL    HW120707   2.157   1.983   3.934  0.2994  0.7114 -0.1709
38205SOL    HW220708   2.210   2.043   3.805 -0.2207  1.1126 -0.2024
38206SOL     OW20709   8.062   0.921   0.693 -0.0700 -0.3206  0.4159
38206SOL    HW120710   8.087   0.833   0.666  0.7014  0.1070 -0.2950
38206SOL    HW220711   8.016   0.908   0.776  0.1017 -1.3839  0.3583
38207SOL     OW20712   3.025   8.445   3.077 -0.5755  0.1619  0.9166
38207SOL    HW120713   3.038   8.425   2.984 -1.5774  0.0429  0.7913
38207SOL    HW220714   3.112   8.438   3.115  0.0035  1.0405 -0.1678
38208SOL     OW20715   3.137   0.221   4.677  0.5726  0.4646  0.5015
38208SOL    HW120716   3.134   0.300   4.623  0.6528 -1.7485 -3.0403
38208SOL    HW220717   3.051   0.219   4.719 -0.2203  1.3888 -0.9754
38209SOL     OW20718   0.051   8.293   5.101  0.1065  0.5677  0.1735
38209SOL    HW120719   0.146   8.288   5.088  0.1685  0.8201  0.5001
38209SOL    HW220720   0.032   8.229   5.170  0.0383  0.5089  0.1003
38210SOL     OW20721  10.557   7.778   7.395  0.0642 -0.1979  0.0573
38210SOL    HW120722  10.602   7.837   7.335 -1.2512  0.9134  0.1364
38210SOL    HW220723  10.529   7.833   7.468 -1.8554 -0.7247 -0.2215
38211SOL     OW20724   5.896   4.263   3.510 -0.0027  0.2601 -0.5765
38211SOL    HW120725   5.841   4.337   3.537 -2.0368 -1.4996  0.4036
38211SOL    HW220726   5.951   4.245   3.586 -1.7823 -1.1690  0.4548
38212SOL     OW20727   5.969   0.623   6.052  0.0435 -0.9084 -0.7145
38212SOL    HW120728   5.892   0.631   6.109  2.8814 -1.1065  3.5419
38212SOL    HW220729   5.973   0.530   6.030 -0.2565 -1.0975  0.0223
38213SOL     OW20730  10.773  10.375   5.020  0.3572  0.2536  0.3744
38213SOL    HW120731  10.845  10.434   5.001  0.8265  0.4653  2.5019
38213SOL    HW220732  10.706  10.396   4.955  2.1935 -0.0147 -1.7212
38214SOL     OW20733   2.769   1.380   0.214 -0.5402  0.7134 -0.0222
38214SOL    HW120734   2.756   1.306   0.155 -0.0392  1.5815 -1.2598
38214SOL    HW220735   2.842   1.430   0.175 -1.4453  2.3412  0.2717
38215SOL     OW20736   2.824   6.789   5.348  0.2449  0.4791  0.5072
38215SOL    HW120737   2.813   6.869   5.400  1.4727  0.1695  1.3079
38215SOL    HW220738   2.753   6.731   5.377  0.1853  0.7704  0.9536
38216SOL     OW20739   3.881   7.972   0.305 -0.1082 -0.1722 -0.3077
38216SOL    HW120740   3.960   7.920   0.319  0.0681 -0.3283 -1.7363
38216SOL    HW220741   3.837   7.930   0.231 -0.7695  0.7794 -0.4758
38217SOL     OW20742   3.875   5.571   4.073 -0.5098 -0.1518  0.2580
38217SOL    HW120743   3.911   5.619   4.148  1.8978  0.0529 -0.9480
38217SOL    HW220744   3.841   5.490   4.111 -2.4059  1.3472  1.9946
38218SOL     OW20745   4.151   9.134   8.779  0.2847  0.2365 -0.5780
38218SOL    HW120746   4.168   9.204   8.716 -0.3463  0.1938 -0.8056
38218SOL    HW220747   4.172   9.172   8.864  1.5484  0.1602 -0.8382
38219SOL     OW20748   7.939   8.868   4.486  0.0330  0.5803 -1.0607
38219SOL    HW120749   7.913   8.815   4.410 -2.8749  0.1748  0.1239
38219SOL    HW220750   7.896   8.952   4.472  0.8415  1.0699 -0.6516
38220SOL     OW20751   4.431   7.629   8.150 -0.2894  0.1488 -0.2349
38220SOL    HW120752   4.485   7.698   8.112 -0.8782 -0.2838 -1.9334
38220SOL    HW220753   4.484   7.550   8.143 -0.3711  0.0769 -0.0613
38221SOL     OW20754   8.072   3.476   0.509  0.8581 -0.8777  0.2235
38221SOL    HW120755   8.083   3.527   0.589 -5.1845 -0.4797  1.2694
38221SOL    HW220756   8.057   3.542   0.440  0.3209 -1.1789  0.0432
38222SOL     OW20757   2.946   3.990   7.286 -0.4049 -0.0578  0.0012
38222SOL    HW120758   3.000   3.958   7.359 -0.3810 -0.8309 -0.3471
38222SOL    HW220759   2.966   4.084   7.280  1.9962 -0.5683 -1.0420
38223SOL     OW20760   7.033   6.927   9.006 -0.1921  0.3195 -0.0804
38223SOL    HW120761   7.017   6.861   8.939  0.2592 -0.3223  0.4333
38223SOL    HW220762   7.096   6.887   9.066 -0.5063  0.9119  0.6750
38224SOL     OW20763   9.158   9.142   6.120  0.7326 -0.3961  0.1203
38224SOL    HW120764   9.173   9.103   6.034  1.1061  0.3927 -0.1833
38224SOL    HW220765   9.195   9.080   6.182 -0.6800 -1.6036 -0.1751
38225SOL     OW20766   9.979   6.530   8.807 -0.1650  0.5555  0.2013
38225SOL    HW120767   9.899   6.502   8.763  0.7359 -1.0491 -0.5265
38225SOL    HW220768   9.961   6.619   8.835 -0.7374  1.8354 -3.6419
38226SOL     OW20769   2.792   6.893   8.207 -0.3074  0.0657 -0.2169
38226SOL    HW120770   2.864   6.941   8.248  0.1505 -1.7589  1.2970
38226SOL    HW220771   2.720   6.900   8.270 -0.0566 -1.5966  0.3192
38227SOL     OW20772   6.741   6.515   0.193  0.1299 -0.5857 -0.7580
38227SOL    HW120773   6.810   6.462   0.154  0.2935 -0.9767  0.0428
38227SOL    HW220774   6.730   6.480   0.281 -0.7174 -0.1785 -0.6862
38228SOL     OW20775   7.397   0.105   0.049  0.6882  0.4348  0.3677
38228SOL    HW120776   7.313   0.119   0.006  0.0698 -1.3758  0.9002
38228SOL    HW220777   7.379   0.118   0.142  1.2390  1.0234  0.3979
38229SOL     OW20778   1.272   9.879   7.195 -0.4738 -0.0525 -0.2623
38229SOL    HW120779   1.234   9.913   7.276  0.2850  1.6902 -0.6005
38229SOL    HW220780   1.366   9.893   7.205 -0.4144  0.7451 -1.6653
38230SOL     OW20781   7.062   2.567   4.564 -0.2473 -0.5035  0.3706
38230SOL    HW120782   7.029   2.593   4.650  0.2254 -1.3105  0.8110
38230SOL    HW220783   6.987   2.524   4.522 -0.6639  0.4351  0.1180
38231SOL     OW20784   2.360   0.294   3.029  0.3106 -0.1924 -0.2032
38231SOL    HW120785   2.358   0.218   2.972  0.2112  1.2575 -2.2559
38231SOL    HW220786   2.358   0.369   2.969  0.1712  1.4333  1.7189
38232SOL     OW20787  10.443   0.988   8.991 -0.2527 -0.4383 -0.0495
38232SOL    HW120788  10.525   1.037   8.993 -0.9071  0.6731  0.1528
38232SOL    HW220789  10.464   0.908   8.942  1.0735 -0.4177  0.4341
38233SOL     OW20790   0.649   1.389   5.784 -0.0404  0.2794  0.1424
38233SOL    HW120791   0.638   1.411   5.692  1.7648  1.5948  0.1880
38233SOL    HW220792   0.730   1.337   5.787 -0.5487 -0.5122  0.9062
38234SOL     OW20793   7.611   3.014  10.024 -0.4404 -0.0563 -0.3096
38234SOL    HW120794   7.689   3.066  10.003 -1.3202  2.0353  1.2591
38234SOL    HW220795   7.555   3.023   9.947 -0.3090  0.8108 -0.3124
38235SOL     OW20796   2.703   3.301   0.607  0.6348  0.3450  0.6633
38235SOL    HW120797   2.672   3.272   0.692 -0.0061  0.5897  0.5145
38235SOL    HW220798   2.789   3.341   0.625  0.2028  1.0091  1.2945
38236SOL     OW20799   8.691   4.733   0.131 -0.0731  0.1625 -0.0348
38236SOL    HW120800   8.718   4.688   0.051 -1.6643 -0.8496 -0.0577
38236SOL    HW220801   8.668   4.821   0.102 -1.4420 -0.4385 -0.8936
38237SOL     OW20802   6.847   0.840   1.128  0.3009  0.5664  0.0445
38237SOL    HW120803   6.765   0.874   1.092  0.9938  0.7246 -1.5049
38237SOL    HW220804   6.837   0.745   1.126  1.1166  0.4349 -2.8235
38238SOL     OW20805   5.994   7.335   9.423  0.3167 -0.5573 -0.3521
38238SOL    HW120806   6.054   7.262   9.436  0.9085  0.1674  1.3408
38238SOL    HW220807   6.002   7.358   9.331  2.2897 -0.8027 -0.2712
38239SOL     OW20808   6.324  10.778   0.034 -0.0009  0.3107 -0.7868
38239SOL    HW120809   6.237  10.792   0.071  0.1105  1.5208 -0.9456
38239SOL    HW220810   6.364  10.864   0.034  1.3263 -0.2848 -0.4257
38240SOL     OW20811   3.258   2.559   0.037 -0.1316  0.2205  0.1317
38240SOL    HW120812   3.247   2.520   0.124 -1.5350  3.3999  1.5731
38240SOL    HW220813   3.343   2.603   0.041 -0.7768  1.5183  0.5147
38241SOL     OW20814   3.232   4.602   5.632  0.2994 -0.5291 -0.1459
38241SOL    HW120815   3.309   4.656   5.649  1.5485 -2.5053  0.8438
38241SOL    HW220816   3.255   4.553   5.552 -1.1154  0.8297 -1.4626
38242SOL     OW20817   9.195   8.347   0.570 -0.0810  0.1382 -0.5059
38242SOL    HW120818   9.184   8.419   0.508 -0.8106 -0.0100 -0.5651
38242SOL    HW220819   9.111   8.301   0.567  0.4763 -0.8996 -0.7071
38243SOL     OW20820   9.978   9.006   6.440 -0.8322 -0.3792  0.0432
38243SOL    HW120821  10.007   9.094   6.413 -0.4801 -0.4068  0.3124
38243SOL    HW220822  10.059   8.963   6.468 -1.3300  0.1683  2.6094
38244SOL     OW20823   4.114   6.955  10.765 -0.5825 -0.0247 -0.3112
38244SOL    HW120824   4.079   6.873  10.731 -3.2651  0.8975 -0.0609
38244SOL    HW220825   4.151   6.932  10.850  1.3240 -1.4087 -1.4422
38245SOL     OW20826   1.678   4.146   8.388 -0.1884 -0.2083  0.6767
38245SOL    HW120827   1.718   4.064   8.358  1.2062  0.0110  1.8117
38245SOL    HW220828   1.586   4.138   8.365  0.3337 -1.1244 -1.2867
38246SOL     OW20829   4.539   7.831   5.205  0.1643 -0.5561  0.0404
38246SOL    HW120830   4.532   7.845   5.111  1.5126 -0.9772 -0.1538
38246SOL    HW220831   4.584   7.909   5.238  1.0809 -1.0775  0.0757
38247SOL     OW20832   9.517   6.509  10.248  0.0041  0.2610  0.0514
38247SOL    HW120833   9.448   6.574  10.262  1.2732  1.5137  0.7285
38247SOL    HW220834   9.557   6.496  10.334  1.4075  0.4909 -0.5337
38248SOL     OW20835   9.972  10.347  10.513 -0.1494 -0.5334 -0.6309
38248SOL    HW120836  10.051  10.311  10.472 -0.9260 -1.9710 -0.9082
38248SOL    HW220837   9.940  10.277  10.568 -0.8600  0.2965  0.0353
38249SOL     OW20838   7.605   9.823   5.760  0.1014  0.6518 -0.2430
38249SOL    HW120839   7.669   9.818   5.689  0.1733  3.6555 -0.5084
38249SOL    HW220840   7.637   9.894   5.816 -1.8868  0.8034  0.7986
38250SOL     OW20841   8.200   3.043   8.504  0.5771 -0.4431 -0.0122
38250SOL    HW120842   8.105   3.034   8.513  0.7793 -2.4796  0.4516
38250SOL    HW220843   8.236   2.999   8.581  1.9500 -2.0427 -1.5003
38251SOL     OW20844   2.218   2.823   0.713 -0.0846 -0.2627  0.1313
38251SOL    HW120845   2.299   2.873   0.725  0.4876 -0.8288 -1.1577
38251SOL    HW220846   2.201   2.783   0.799  1.5750 -0.9664  0.1685
38252SOL     OW20847   2.385  10.786   3.213 -0.1360  0.6424 -0.3591
38252SOL    HW120848   2.300  10.746   3.195 -0.0955  0.3853  0.0025
38252SOL    HW220849   2.431  10.782   3.129  0.7580 -2.2702  0.1359
38253SOL     OW20850   2.318   7.498  10.509 -0.4543  0.3069  0.5991
38253SOL    HW120851   2.259   7.468  10.440 -0.3452 -0.2170  0.7266
38253SOL    HW220852   2.403   7.463  10.484 -0.1376  1.2829  0.2741
38254SOL     OW20853   6.933   6.069   7.082 -0.2910 -0.0785 -0.2959
38254SOL    HW120854   6.886   5.988   7.100  0.4330 -0.1541  1.4987
38254SOL    HW220855   7.026   6.044   7.084  0.0755  1.1274  2.6727
38255SOL     OW20856   6.769   3.175   5.766  0.0457 -0.2591 -0.0858
38255SOL    HW120857   6.756   3.269   5.780  0.5505 -0.1580 -0.2745
38255SOL    HW220858   6.727   3.158   5.682  1.5300  0.1716 -0.9523
38256SOL     OW20859   0.918   7.417   0.957  0.1133  0.1104 -0.0503
38256SOL    HW120860   0.956   7.505   0.952  1.2297 -0.3073  0.6903
38256SOL    HW220861   0.992   7.359   0.939 -1.0520 -0.6585 -2.8563
38257SOL     OW20862   1.802   1.771   1.857 -0.1308  0.0661 -0.3623
38257SOL    HW120863   1.730   1.825   1.888  0.7932  1.2596 -0.1871
38257SOL    HW220864   1.801   1.780   1.761  0.6863  1.3381 -0.2749
38258SOL     OW20865   6.527   7.483   1.839 -0.1652 -0.8280  0.4358
38258SOL    HW120866   6.497   7.400   1.801  1.2583 -1.3129  0.3089
38258SOL    HW220867   6.503   7.477   1.931  0.9279 -1.9222  0.6855
38259SOL     OW20868   6.039   5.945   1.813 -0.1526  0.4679 -0.0798
38259SOL    HW120869   6.037   5.860   1.857 -0.1531  1.1576  1.2891
38259SOL    HW220870   5.954   5.985   1.833  0.1246  1.0857 -0.1152
38260SOL     OW20871   1.934   1.162   1.832 -0.0693  0.4294 -0.5386
38260SOL    HW120872   1.881   1.191   1.906 -0.5258  0.4019 -0.8511
38260SOL    HW220873   1.966   1.076   1.857  0.9613  1.0193  0.2256
38261SOL     OW20874   5.394   4.548   3.958 -0.3194 -0.3065 -0.3324
38261SOL    HW120875   5.381   4.473   4.016 -0.4144 -0.1508 -0.1548
38261SOL    HW220876   5.419   4.620   4.016 -1.2467  0.0671 -0.3933
38262SOL     OW20877   9.384   4.982  10.374 -0.2725 -0.2485  0.4485
38262SOL    HW120878   9.381   5.074  10.399  0.1827 -0.2364  0.4560
38262SOL    HW220879   9.419   4.982  10.285 -0.2299 -0.4168  0.4637
38263SOL     OW20880   0.947   0.707   4.648  0.0087  0.0837  0.4018
38263SOL    HW120881   0.875   0.724   4.708 -0.2273 -1.0176  0.4383
38263SOL    HW220882   0.968   0.615   4.660 -0.0290 -0.1613 -1.1757
38264SOL     OW20883   4.221   5.813   1.608  0.2823  0.5246 -0.0928
38264SOL    HW120884   4.267   5.774   1.683  0.1690  0.2725 -0.1545
38264SOL    HW220885   4.152   5.867   1.648  0.6589  0.9414  0.0014
38265SOL     OW20886   5.882   5.812   8.339  0.0206  0.1403  0.5348
38265SOL    HW120887   5.894   5.780   8.428 -1.7256  0.5519  0.9720
38265SOL    HW220888   5.788   5.800   8.322  0.3983 -0.4002 -1.4487
38266SOL     OW20889   8.981   6.403  10.452 -0.2661  0.0501 -0.0796
38266SOL    HW120890   9.057   6.366  10.496  0.1117 -0.3786 -1.0611
38266SOL    HW220891   8.911   6.400  10.518  0.5182  0.3026  0.7778
38267SOL     OW20892   1.974   0.104  10.337  0.4735 -0.4782  0.0815
38267SOL    HW120893   1.914   0.051  10.389  0.6420 -1.4945 -0.7448
38267SOL    HW220894   1.980   0.059  10.253 -1.9623  2.5208 -1.9439
38268SOL     OW20895   0.807   1.072   0.247  0.0631 -0.0847 -0.0197
38268SOL    HW120896   0.869   1.126   0.297 -1.5570  1.8345  0.0085
38268SOL    HW220897   0.745   1.041   0.313 -0.8857  0.7406 -0.5116
38269SOL     OW20898   4.831   9.801   0.947  0.6959  0.0015 -0.0401
38269SOL    HW120899   4.912   9.752   0.958 -0.1516 -1.3814  0.4046
38269SOL    HW220900   4.837   9.873   1.010  1.5092 -0.1684  0.0808
38270SOL     OW20901   1.799   6.111   6.328  0.9391  0.3434  0.0940
38270SOL    HW120902   1.704   6.102   6.322  1.0588 -1.6345  0.3321
38270SOL    HW220903   1.826   6.143   6.243  0.1102  0.3128 -0.1908
38271SOL     OW20904   2.309   5.881  10.492  0.0037  0.2414 -0.6560
38271SOL    HW120905   2.236   5.819  10.489 -0.0052  0.2586 -0.7937
38271SOL    HW220906   2.305   5.917  10.580 -0.4846  0.6352 -0.8301
38272SOL     OW20907   3.448   4.708   6.097  0.1901  0.4262 -0.0306
38272SOL    HW120908   3.450   4.675   6.187  0.1416  0.6298  0.0478
38272SOL    HW220909   3.357   4.737   6.084  0.4882  1.5427  0.2851
38273SOL     OW20910   8.457  10.071  10.185 -0.2359  0.1152 -0.3402
38273SOL    HW120911   8.487  10.065  10.276  2.1732  0.1317 -1.0480
38273SOL    HW220912   8.467  10.164  10.163  2.7815 -0.3737 -1.6080
38274SOL     OW20913   2.667   0.949   6.467 -0.0864 -0.4081 -0.2767
38274SOL    HW120914   2.752   0.917   6.437  0.2913  0.4378 -0.1456
38274SOL    HW220915   2.610   0.872   6.465  0.6584 -0.9661 -0.4455
38275SOL     OW20916   6.499  10.502   9.220  0.3621  0.0693  0.6895
38275SOL    HW120917   6.439  10.519   9.292 -0.1572 -0.8217  0.4894
38275SOL    HW220918   6.445  10.458   9.154  1.0744 -0.1039  0.2092
38276SOL     OW20919   9.741   0.840   9.797  0.0205  0.0548 -0.2788
38276SOL    HW120920   9.690   0.812   9.873  0.0139 -0.9663 -0.6377
38276SOL    HW220921   9.783   0.921   9.825  0.2076 -0.4251  0.8975
38277SOL     OW20922   1.056   6.287   5.598 -0.2618  0.1397  0.5852
38277SOL    HW120923   1.149   6.312   5.602 -0.0395 -0.5053 -0.2235
38277SOL    HW220924   1.042   6.264   5.506 -1.3166  0.5586  0.6332
38278SOL     OW20925   1.476   7.755   5.759 -0.2043  0.1897 -0.5332
38278SOL    HW120926   1.397   7.796   5.723 -0.6044  0.3941  0.5370
38278SOL    HW220927   1.474   7.666   5.725  1.2068  1.2228 -3.7272
38279SOL     OW20928   1.015   0.058   3.656  0.1554  0.0937  0.1532
38279SOL    HW120929   1.039   0.029   3.744 -1.7651  0.0543  0.7087
38279SOL    HW220930   1.017  -0.021   3.603 -0.7713 -0.3064  0.6796
38280SOL     OW20931   3.130   8.554   2.561  0.0665  0.0569 -0.4258
38280SOL    HW120932   3.139   8.567   2.655  0.8316 -1.0484 -0.3296
38280SOL    HW220933   3.092   8.636   2.529 -1.7319 -0.1362  1.0529
38281SOL     OW20934   4.057   4.649   8.376 -0.1986  0.1125 -0.4138
38281SOL    HW120935   4.016   4.622   8.458  0.0513 -1.1097 -0.6729
38281SOL    HW220936   4.150   4.657   8.396 -0.1177 -0.3277 -0.6158
38282SOL     OW20937   6.454   6.517   8.078 -0.3219  0.0014 -0.0861
38282SOL    HW120938   6.409   6.525   7.994 -0.0887 -0.1396 -0.2283
38282SOL    HW220939   6.433   6.429   8.109  0.0786 -0.1673 -0.2876
38283SOL     OW20940   4.766   4.619   1.239 -0.2509  0.6228 -0.5443
38283SOL    HW120941   4.746   4.575   1.322  2.3790 -0.6454 -0.4908
38283SOL    HW220942   4.683   4.659   1.213 -1.9762 -1.6474  1.0755
38284SOL     OW20943   5.958   9.465  10.775 -0.0988 -0.3533 -0.2554
38284SOL    HW120944   5.963   9.417  10.692  1.7772  0.8640 -0.9091
38284SOL    HW220945   5.948   9.397  10.841 -1.5086 -1.3618 -1.4473
38285SOL     OW20946   4.715   1.708   1.752 -0.3052 -0.1300  0.2010
38285SOL    HW120947   4.747   1.648   1.685 -0.2571 -1.7982  1.6325
38285SOL    HW220948   4.620   1.709   1.740 -0.3099 -0.5447  0.1752
38286SOL     OW20949   5.777   6.838   2.160 -0.2161  0.2440  0.3210
38286SOL    HW120950   5.861   6.791   2.162 -0.2245  0.2005 -0.0900
38286SOL    HW220951   5.763   6.867   2.250  0.5822  0.8573  0.2619
38287SOL     OW20952   2.131   5.405   1.651  0.2048 -0.2174 -0.1178
38287SOL    HW120953   2.196   5.424   1.583  0.8547 -1.7805  0.0338
38287SOL    HW220954   2.052   5.382   1.602  0.4055 -0.4641 -0.3249
38288SOL     OW20955   3.831  10.279   7.888  0.4697 -0.0168  0.0216
38288SOL    HW120956   3.784  10.206   7.929 -2.1449  1.1882 -0.5856
38288SOL    HW220957   3.891  10.310   7.956 -1.2490 -0.2537  1.7349
38289SOL     OW20958   1.809   3.681   7.728 -0.1475 -0.3870 -0.0700
38289SOL    HW120959   1.784   3.598   7.768 -2.8859  0.3158 -0.1474
38289SOL    HW220960   1.860   3.656   7.651  2.2141 -1.8348  1.8159
38290SOL     OW20961   5.481   9.735   4.647  0.3548 -0.1208  0.4639
38290SOL    HW120962   5.527   9.735   4.731  0.0952 -0.4726  0.6107
38290SOL    HW220963   5.422   9.659   4.652 -0.9942  0.8954  0.7053
38291SOL     OW20964   4.594   2.151   2.064 -0.5318  0.7428 -0.0383
38291SOL    HW120965   4.629   2.137   1.975  0.1434 -1.5340  0.5323
38291SOL    HW220966   4.521   2.211   2.051  1.4471  3.0018 -1.7304
38292SOL     OW20967   3.304   8.980   8.536 -0.5697  0.3452 -0.5924
38292SOL    HW120968   3.302   8.917   8.608  2.1609  1.9463  1.0425
38292SOL    HW220969   3.231   8.955   8.480 -2.1403 -1.6691  2.1448
38293SOL     OW20970   9.875   7.997   5.849  0.1302 -0.2931  0.2429
38293SOL    HW120971   9.786   7.973   5.825  0.3025 -0.2425 -0.4864
38293SOL    HW220972   9.927   7.920   5.827  0.1244 -0.7454  1.7091
38294SOL     OW20973   7.790   5.278  10.268  0.1327 -0.3035  0.0245
38294SOL    HW120974   7.835   5.222  10.205  0.0137 -0.0158 -0.3209
38294SOL    HW220975   7.815   5.243  10.354  0.7903 -0.3266 -0.1667
38295SOL     OW20976   3.599   7.544   9.008  0.1074 -0.8594 -0.5929
38295SOL    HW120977   3.662   7.504   9.068  1.3233  1.0555 -0.4965
38295SOL    HW220978   3.535   7.475   8.990  0.5863 -1.9715  1.6403
38296SOL     OW20979  10.531   9.521   8.340 -0.5824  0.7658  0.3037
38296SOL    HW120980  10.626   9.513   8.339 -0.7266 -3.2819 -1.0246
38296SOL    HW220981  10.509   9.560   8.256 -0.1009  0.8341  0.2041
38297SOL     OW20982   4.545   1.298   6.962 -0.2123 -0.2613  0.3955
38297SOL    HW120983   4.518   1.382   6.998 -1.1884  0.8277 -2.5874
38297SOL    HW220984   4.466   1.261   6.923  0.7543 -1.2991 -0.6639
38298SOL     OW20985   1.149   0.157   4.582  0.2328  0.5291  0.0065
38298SOL    HW120986   1.231   0.108   4.585  0.5535  1.0351 -0.2137
38298SOL    HW220987   1.159   0.214   4.505  0.1578  1.4115  0.6374
38299SOL     OW20988   4.430   0.852   9.559  0.4915  1.3084 -0.1617
38299SOL    HW120989   4.340   0.820   9.568  1.3409 -1.2457  0.1787
38299SOL    HW220990   4.451   0.836   9.467  1.1696  0.1294  0.1810
38300SOL     OW20991   4.122   7.451   0.932  0.2130  0.2765 -0.4506
38300SOL    HW120992   4.133   7.431   0.839 -1.6595 -0.6254 -0.5094
38300SOL    HW220993   4.211   7.448   0.967  0.7254 -1.9619 -1.7227
38301SOL     OW20994   8.504   0.919   7.286  0.1400 -0.2155  0.0252
38301SOL    HW120995   8.454   0.866   7.224 -1.7402 -1.0868  2.1632
38301SOL    HW220996   8.465   1.006   7.281 -0.9896 -0.6458  0.9661
38302SOL     OW20997   4.636   2.797   2.229  1.0409 -0.7592  0.1619
38302SOL    HW120998   4.585   2.780   2.149 -0.2614  0.7626  0.6089
38302SOL    HW220999   4.723   2.821   2.197 -0.0899  2.1849 -1.0229
38303SOL     OW21000   4.732   1.307   2.614 -0.0399  0.6316  0.4488
38303SOL    HW121001   4.664   1.258   2.659  0.2894  0.4652  0.7667
38303SOL    HW221002   4.691   1.333   2.531  0.0093 -0.7928 -0.0475
38304SOL     OW21003   9.121   1.330   5.037 -0.0766 -0.5045  0.1777
38304SOL    HW121004   9.145   1.322   4.945  1.3388  1.3130  0.3292
38304SOL    HW221005   9.048   1.393   5.038  1.2413  1.0991  0.3901
38305SOL     OW21006   2.774   4.809   1.969  0.3447 -0.3839  0.0447
38305SOL    HW121007   2.867   4.819   1.950  0.4092  1.9488  1.2699
38305SOL    HW221008   2.731   4.871   1.911 -0.1270  0.7892  1.5798
38306SOL     OW21009   4.602   4.149   1.310  0.1117  0.3340  0.4701
38306SOL    HW121010   4.535   4.206   1.271  1.0137  2.4717  1.8787
38306SOL    HW221011   4.684   4.182   1.274  0.6104 -0.8878  0.4269
38307SOL     OW21012   7.939   3.696   5.258 -0.4042  0.0896  0.2205
38307SOL    HW121013   8.001   3.768   5.244 -0.0754 -0.0324  1.0169
38307SOL    HW221014   7.853   3.735   5.243 -0.1568  0.2913 -0.7673
38308SOL     OW21015   3.212  10.906   2.906 -0.7663 -0.2785 -0.0548
38308SOL    HW121016   3.251  10.899   2.994 -1.8957  1.6978  0.6756
38308SOL    HW221017   3.227  10.821   2.866 -1.6264 -1.8508  2.6766
38309SOL     OW21018   5.922   9.077   8.769 -0.0204  0.4214 -0.8702
38309SOL    HW121019   5.928   8.982   8.783 -0.8572  0.4492 -0.2049
38309SOL    HW221020   5.890   9.086   8.679 -1.4145  0.0079 -0.4465
38310SOL     OW21021   2.645   3.016   2.461  0.3457 -0.5089  0.1677
38310SOL    HW121022   2.630   2.930   2.421  2.2276 -1.0600  0.5698
38310SOL    HW221023   2.569   3.028   2.519 -0.7210 -1.1808 -1.0394
38311SOL     OW21024   8.923   3.467   5.649 -0.7055 -0.1902 -0.2887
38311SOL    HW121025   8.965   3.384   5.628  1.4008  0.9464 -0.9249
38311SOL    HW221026   8.980   3.506   5.717 -1.7472  0.6417  0.1385
38312SOL     OW21027   0.017   8.899   7.862 -1.1719 -0.0463 -0.7150
38312SOL    HW121028   0.078   8.845   7.811  1.9734  1.8790  0.7435
38312SOL    HW221029  -0.053   8.838   7.888  1.1000 -2.9188 -0.8550
38313SOL     OW21030   3.648   6.257   2.265  0.1969 -0.1515 -0.5042
38313SOL    HW121031   3.576   6.211   2.221 -0.2035  0.5961 -0.6388
38313SOL    HW221032   3.636   6.237   2.358 -0.0893 -0.1653 -0.5439
38314SOL     OW21033   6.927  10.531   0.752  0.2670  0.1782 -0.1518
38314SOL    HW121034   6.832  10.533   0.767  0.3257  0.4508  0.1885
38314SOL    HW221035   6.956  10.619   0.773  0.6333  0.0274 -0.0263
38315SOL     OW21036  10.251   1.083   7.147  0.6682  0.3977 -0.2694
38315SOL    HW121037  10.207   1.168   7.141  1.5022  0.8038 -0.9555
38315SOL    HW221038  10.318   1.086   7.079 -1.2519 -2.0214 -2.4739
38316SOL     OW21039   5.482   2.505   9.564 -0.4476 -0.0894 -0.8960
38316SOL    HW121040   5.574   2.525   9.549 -0.4457  0.8053  0.1951
38316SOL    HW221041   5.440   2.590   9.573 -0.9513 -0.4754  0.9466
38317SOL     OW21042   7.952   3.413  10.212  0.1747  0.3551 -0.5662
38317SOL    HW121043   8.042   3.423  10.181  0.2326 -2.3773 -1.5408
38317SOL    HW221044   7.911   3.498  10.196  2.2118  1.2245 -1.4008
38318SOL     OW21045   1.247   4.350   2.576  0.2844 -0.6551  0.1532
38318SOL    HW121046   1.276   4.392   2.495 -1.4483 -0.4398 -0.3956
38318SOL    HW221047   1.168   4.302   2.551  0.3276 -1.4862  1.4983
38319SOL     OW21048   2.912   1.835  10.071  0.1807 -0.0366  0.3255
38319SOL    HW121049   2.935   1.756  10.022 -0.7883  0.9912 -1.9479
38319SOL    HW221050   2.849   1.806  10.136 -3.3546 -0.7114 -3.0505
38320SOL     OW21051   5.100   7.228  10.601 -0.1351  0.1784 -0.2554
38320SOL    HW121052   5.080   7.221  10.508 -1.6695  1.4564 -0.0571
38320SOL    HW221053   5.036   7.290  10.635  0.6663  0.0639  1.5816
38321SOL     OW21054   6.133   1.741  10.704  0.3326  0.3742  0.5457
38321SOL    HW121055   6.196   1.703  10.643  0.4294 -0.6948  1.2871
38321SOL    HW221056   6.133   1.834  10.684 -1.2669 -0.1785 -2.6056
38322SOL     OW21057   0.534   1.150   8.111  0.7000  0.0054  0.0322
38322SOL    HW121058   0.556   1.107   8.028 -0.6203  2.0885 -1.5160
38322SOL    HW221059   0.442   1.127   8.126  1.1365 -0.9990  1.4171
38323SOL     OW21060   2.873   8.706   4.978  0.1431 -0.2501 -0.2782
38323SOL    HW121061   2.828   8.634   5.024  1.2882 -0.9019 -0.1560
38323SOL    HW221062   2.951   8.724   5.031 -0.1056  1.0872 -0.3147
38324SOL     OW21063   6.849   2.053   7.806  0.0726 -0.2136  0.0309
38324SOL    HW121064   6.815   2.080   7.891 -2.2095 -0.1985 -0.8195
38324SOL    HW221065   6.880   2.134   7.765 -0.5290  0.0593  0.1187
38325SOL     OW21066   9.767  10.203   2.872  0.3308  0.1869  0.1023
38325SOL    HW121067   9.733  10.248   2.795  0.5491 -0.5639 -0.4535
38325SOL    HW221068   9.851  10.168   2.844  1.6485  2.0857  1.4827
38326SOL     OW21069   7.712   0.893   5.380 -0.0131 -0.4315  0.1767
38326SOL    HW121070   7.700   0.915   5.287  1.4532  1.0816  0.3091
38326SOL    HW221071   7.627   0.859   5.407 -0.6341 -0.4120 -1.5813
38327SOL     OW21072   5.731   0.215   7.104  0.1656  0.0198  0.4586
38327SOL    HW121073   5.758   0.253   7.020 -1.4501  1.3509  0.4930
38327SOL    HW221074   5.785   0.136   7.113  0.8915  0.2403 -1.4654
38328SOL     OW21075   9.311   7.947   7.461 -0.3226 -0.0971  0.1194
38328SOL    HW121076   9.286   8.001   7.536 -1.5237  0.3309 -0.5764
38328SOL    HW221077   9.231   7.900   7.437  0.0244 -0.1407 -0.9714
38329SOL     OW21078   5.940   7.114   8.736 -0.5693  0.6871 -0.7263
38329SOL    HW121079   5.937   7.202   8.699  1.4967  0.9569 -0.3581
38329SOL    HW221080   6.033   7.092   8.739 -0.2310  1.1852  5.3341
38330SOL     OW21081  10.270   9.149   0.150  0.6004 -0.3158  0.3025
38330SOL    HW121082  10.196   9.203   0.175 -1.8914 -1.7421 -3.2163
38330SOL    HW221083  10.324   9.206   0.095 -1.1634 -0.7477 -2.0423
38331SOL     OW21084   7.694   5.259   8.242  0.0680  0.2786 -0.1438
38331SOL    HW121085   7.675   5.258   8.148 -1.2588  0.1928  0.1006
38331SOL    HW221086   7.731   5.173   8.260 -0.6903 -0.1147 -0.4105
38332SOL     OW21087   7.721   6.083   1.189  0.3352 -0.3343 -0.5320
38332SOL    HW121088   7.696   6.034   1.268  0.9893 -0.8007 -0.6045
38332SOL    HW221089   7.648   6.144   1.174  0.8776  0.8638  1.3344
38333SOL     OW21090   3.792   4.553   9.452  0.4196 -0.0990  0.1292
38333SOL    HW121091   3.699   4.553   9.428  0.3403  0.2961  0.4410
38333SOL    HW221092   3.837   4.524   9.373 -0.0447 -1.2151  0.2555
38334SOL     OW21093   9.245   8.554   8.811 -0.0073 -0.0831  0.2116
38334SOL    HW121094   9.305   8.615   8.768 -0.0760  1.4944  2.1859
38334SOL    HW221095   9.158   8.589   8.792 -0.0726  0.1591  0.9272
38335SOL     OW21096   5.881   2.847   7.280 -0.1509 -0.2488  0.5038
38335SOL    HW121097   5.866   2.823   7.372 -3.2746 -1.0262 -0.0792
38335SOL    HW221098   5.905   2.766   7.237  0.3689 -0.0715  0.4534
38336SOL     OW21099   1.582   5.796   6.379  0.0754 -0.4500  0.1445
38336SOL    HW121100   1.536   5.874   6.351 -1.7139 -1.1702  0.9309
38336SOL    HW221101   1.672   5.825   6.393 -0.7848  1.7590  1.6138
38337SOL     OW21102   6.599   7.670   1.637 -0.4936  0.5054  0.0823
38337SOL    HW121103   6.561   7.750   1.672  0.6176  1.0132  0.1895
38337SOL    HW221104   6.562   7.600   1.689 -1.7747  0.9040 -0.2554
38338SOL     OW21105   6.540   5.428   8.275  0.1860  1.0342 -0.0425
38338SOL    HW121106   6.558   5.372   8.350  0.7901 -0.2935 -1.1239
38338SOL    HW221107   6.475   5.492   8.307  0.4305  0.5191  1.5745
38339SOL     OW21108   9.103   6.300   6.742 -0.2851  0.0008 -0.0963
38339SOL    HW121109   9.191   6.270   6.718 -0.7414 -1.7311  0.2873
38339SOL    HW221110   9.095   6.385   6.698  0.8719 -0.6538 -1.7095
38340SOL     OW21111   1.471   5.601   0.151 -0.4495 -0.3604 -0.0790
38340SOL    HW121112   1.383   5.588   0.117 -0.5649  0.0156  0.0729
38340SOL    HW221113   1.476   5.694   0.170  0.1425 -0.2955 -0.5261
38341SOL     OW21114   2.327   7.681   6.114 -0.1286  0.1193  0.4199
38341SOL    HW121115   2.267   7.735   6.063 -0.2937 -1.3404 -1.0022
38341SOL    HW221116   2.389   7.744   6.152  0.2804  1.2775 -1.9597
38342SOL     OW21117   4.759   3.225   2.408  0.2022 -0.2374  0.1045
38342SOL    HW121118   4.815   3.162   2.453  1.0906  0.6283  0.2299
38342SOL    HW221119   4.678   3.177   2.393 -0.0333 -0.6558  2.3462
38343SOL     OW21120   7.153   3.086  10.606  0.1485  0.0543 -0.7134
38343SOL    HW121121   7.198   3.128  10.532 -2.3661 -0.9642 -3.0085
38343SOL    HW221122   7.161   2.992  10.589  0.2543 -0.2417  0.8416
38344SOL     OW21123   0.395   1.751   3.297  0.2127 -0.3581  0.6767
38344SOL    HW121124   0.434   1.669   3.329  1.3998  0.1633  0.6394
38344SOL    HW221125   0.468   1.796   3.254 -1.1669 -0.7261 -2.2518
38345SOL     OW21126   9.640   8.790   7.761  0.2716  0.2823 -0.0431
38345SOL    HW121127   9.588   8.713   7.782  2.3743 -0.4720  3.0906
38345SOL    HW221128   9.708   8.758   7.702 -1.1309  0.7008 -1.9762
38346SOL     OW21129   5.700   0.090   4.962 -0.5266 -0.2128  0.0701
38346SOL    HW121130   5.683   0.182   4.938  1.6531  0.4621  0.9021
38346SOL    HW221131   5.627   0.068   5.021 -0.3951  1.4680  0.9520
38347SOL     OW21132   4.027   8.980   5.562 -0.0242 -0.5932  0.1128
38347SOL    HW121133   4.027   9.074   5.546 -0.4504 -0.9531 -2.3659
38347SOL    HW221134   4.005   8.972   5.655  0.0640  1.7289  0.3963
38348SOL     OW21135   4.546   6.353   3.900  0.2551  0.8068 -0.3896
38348SOL    HW121136   4.468   6.308   3.932  0.2256  1.6926  0.8544
38348SOL    HW221137   4.572   6.304   3.822  0.1343 -1.2581  0.8201
38349SOL     OW21138   3.929   7.891   9.937  0.0941  0.6492 -0.7389
38349SOL    HW121139   3.979   7.838   9.876 -0.0065 -0.7417  0.3241
38349SOL    HW221140   3.953   7.856  10.023 -1.3703  1.1257 -0.1157
38350SOL     OW21141   7.652   1.058   6.867 -0.1143 -0.1172  0.0137
38350SOL    HW121142   7.618   1.015   6.945  0.4068  0.1499  0.3880
38350SOL    HW221143   7.744   1.075   6.886  0.8675 -2.6759 -1.7484
38351SOL     OW21144   6.892   1.066   9.305  0.3817  0.2754  0.2910
38351SOL    HW121145   6.955   0.994   9.309  0.9507  0.8110  1.1990
38351SOL    HW221146   6.892   1.103   9.393  0.0908  1.3884 -0.1624
38352SOL     OW21147   3.434   1.859   6.483 -0.5189  0.2581  0.2507
38352SOL    HW121148   3.498   1.869   6.413  0.4158 -0.6808  0.9287
38352SOL    HW221149   3.482   1.879   6.563 -1.1841 -0.0650  0.7463
38353SOL     OW21150   1.913   1.938   5.058 -0.6637  0.5002 -0.5421
38353SOL    HW121151   1.951   1.872   5.001 -0.3343  0.5984 -0.4392
38353SOL    HW221152   1.875   2.002   4.998  0.8891  1.3279 -0.7109
38354SOL     OW21153   8.772   0.780  10.216  0.2844  1.0475  0.1733
38354SOL    HW121154   8.864   0.787  10.241  0.3143 -0.5244  0.6128
38354SOL    HW221155   8.723   0.796  10.296  0.2681 -0.4705  0.4875
38355SOL     OW21156   3.017   3.114   5.843 -0.5007 -0.3746 -0.2601
38355SOL    HW121157   3.025   3.210   5.839  1.2153 -0.4186  1.0157
38355SOL    HW221158   3.033   3.092   5.935  0.2027 -1.9576 -0.7282
38356SOL     OW21159   1.044  10.016   1.363 -0.0583  0.4530  0.1031
38356SOL    HW121160   0.985  10.038   1.290 -0.0007  0.7365  0.1424
38356SOL    HW221161   0.991   9.960   1.419 -0.2937  0.7051  0.1378
38357SOL     OW21162   6.560   1.107   3.173 -0.4513  0.4362  0.1987
38357SOL    HW121163   6.607   1.184   3.203  3.4011 -1.5102 -0.2182
38357SOL    HW221164   6.507   1.080   3.248  1.8535  0.8288  2.0877
38358SOL     OW21165   8.259   9.503   6.128 -0.3729 -0.0508 -0.3278
38358SOL    HW121166   8.286   9.529   6.216 -1.4198 -0.3393  0.0902
38358SOL    HW221167   8.328   9.443   6.098  1.6454  2.4465 -0.9875
38359SOL     OW21168   2.135   5.502   9.969 -0.0043 -0.0103 -0.0693
38359SOL    HW121169   2.124   5.574  10.030  0.0696 -0.9730  1.1126
38359SOL    HW221170   2.195   5.537   9.902 -0.7058  1.3091 -0.0408
38360SOL     OW21171   5.884   7.187   7.227  0.3594  0.5235  0.2463
38360SOL    HW121172   5.846   7.104   7.199  2.2512 -1.1503  2.2613
38360SOL    HW221173   5.913   7.229   7.146 -2.1535  0.1136 -0.9844
38361SOL     OW21174  10.741   9.150   5.397 -1.0612  0.1950  0.0052
38361SOL    HW121175  10.805   9.147   5.325  0.1414  1.1825  0.9879
38361SOL    HW221176  10.679   9.079   5.377 -0.3177 -0.0527 -1.5820
38362SOL     OW21177   1.645   4.488   3.574 -0.2124  0.0641  0.0336
38362SOL    HW121178   1.718   4.493   3.513  1.4815 -1.0208  1.8351
38362SOL    HW221179   1.654   4.567   3.629  0.2773 -0.5696  0.8996
38363SOL     OW21180   0.778  10.227   7.011 -0.1206  0.3065 -0.0907
38363SOL    HW121181   0.846  10.287   6.980 -1.2064  2.6280  1.7219
38363SOL    HW221182   0.764  10.251   7.103 -2.0692 -1.3879  0.1395
38364SOL     OW21183   7.390   2.645   3.427  0.1422 -0.2687  0.2940
38364SOL    HW121184   7.393   2.740   3.413  0.8966 -0.2282  0.6906
38364SOL    HW221185   7.406   2.634   3.520 -1.3426 -0.7263  0.5224
38365SOL     OW21186   4.990   1.346   1.623 -0.3082 -0.4163  0.4177
38365SOL    HW121187   5.029   1.258   1.620  2.3527  0.6650  1.1351
38365SOL    HW221188   4.999   1.373   1.714  1.9763  1.8328 -0.3794
38366SOL     OW21189   8.642   5.576   9.769  0.8096 -0.0411  0.3885
38366SOL    HW121190   8.649   5.552   9.861  1.7540  0.9934  0.6153
38366SOL    HW221191   8.554   5.613   9.760  0.1565 -1.5148  0.5115
38367SOL     OW21192   6.915   8.989   8.724 -0.6257 -1.0818  0.4292
38367SOL    HW121193   6.881   9.017   8.639 -0.8576 -1.6092  0.3415
38367SOL    HW221194   6.937   8.897   8.711  0.6438 -0.8155  0.5401
38368SOL     OW21195   0.123   6.890   1.357  0.3106 -1.1519  0.2964
38368SOL    HW121196   0.206   6.893   1.404  0.6335 -1.6706 -0.2245
38368SOL    HW221197   0.059   6.867   1.424 -0.0101  2.3879  1.4250
38369SOL     OW21198   8.560   2.194   7.356 -0.3765 -0.5771  0.3602
38369SOL    HW121199   8.613   2.267   7.323 -0.3591 -1.0041 -0.5839
38369SOL    HW221200   8.469   2.224   7.346 -0.3494 -0.2373  1.0567
38370SOL     OW21201   1.068   6.628   1.201 -0.3304 -0.0823  0.0379
38370SOL    HW121202   1.067   6.581   1.285 -1.4440 -0.1670 -0.0070
38370SOL    HW221203   1.057   6.720   1.225  0.3863  0.0107  0.0364
38371SOL     OW21204   4.756   4.464  10.406 -0.0562  0.0571 -0.2159
38371SOL    HW121205   4.689   4.529  10.385  0.6841  0.8447 -0.2236
38371SOL    HW221206   4.834   4.494  10.359  0.4664 -0.5015  0.2744
38372SOL     OW21207   1.384   3.607   7.649 -0.5673 -0.1698  0.7810
38372SOL    HW121208   1.456   3.603   7.586 -1.5423  0.8973 -0.4658
38372SOL    HW221209   1.390   3.525   7.698 -0.0069 -1.2362 -0.9752
38373SOL     OW21210   2.630   6.774   9.446 -0.1519 -0.1145  0.0238
38373SOL    HW121211   2.674   6.739   9.368 -2.4392  1.6909 -2.2784
38373SOL    HW221212   2.588   6.698   9.486  0.7481 -1.0463 -0.7345
38374SOL     OW21213   2.431   9.770   0.381  0.0534  0.4702 -0.0436
38374SOL    HW121214   2.400   9.856   0.355 -0.2730 -0.0194 -1.3641
38374SOL    HW221215   2.421   9.716   0.302 -0.9393 -1.0944  1.0863
38375SOL     OW21216   1.643   2.441   0.342 -0.0991  0.1026  0.2569
38375SOL    HW121217   1.635   2.380   0.415  0.5930  1.5672  1.6217
38375SOL    HW221218   1.603   2.522   0.374 -0.5561  0.5454 -1.3204
38376SOL     OW21219   7.549   5.878   1.747  0.5213  0.3797  1.0548
38376SOL    HW121220   7.522   5.922   1.828  2.2288  1.6411  1.0151
38376SOL    HW221221   7.637   5.913   1.730  0.8978 -1.1633 -0.4226
38377SOL     OW21222   0.542   9.861   9.008 -0.5292 -0.5525 -0.0621
38377SOL    HW121223   0.533   9.832   9.098  2.5545 -0.4964  0.3621
38377SOL    HW221224   0.637   9.860   8.991 -0.6756  2.8951 -2.1220
38378SOL     OW21225   9.272   4.730  10.342 -0.0905  0.5932 -0.3708
38378SOL    HW121226   9.180   4.733  10.314 -0.4536  1.4269  0.8083
38378SOL    HW221227   9.282   4.807  10.399  0.3846 -1.2827  2.3136
38379SOL     OW21228   9.978   5.177  10.851  0.7734  0.5749 -0.1502
38379SOL    HW121229   9.897   5.223  10.873  0.4983 -0.8494  2.2272
38379SOL    HW221230  10.045   5.245  10.847 -0.4955  1.7995 -2.2966
38380SOL     OW21231   7.262   8.358   8.571 -0.4653 -0.1090 -0.1751
38380SOL    HW121232   7.249   8.365   8.666 -2.5026 -0.2446 -0.4122
38380SOL    HW221233   7.252   8.447   8.538 -2.0371 -0.3878 -0.4950
38381SOL     OW21234   4.574   8.112   5.594 -0.2095 -0.1210 -0.2812
38381SOL    HW121235   4.593   8.204   5.577  1.3172 -0.0383  1.4923
38381SOL    HW221236   4.520   8.113   5.672 -1.4068 -0.7151 -1.0715
38382SOL     OW21237   2.509   4.110  10.281 -0.5442 -0.2738  0.3133
38382SOL    HW121238   2.568   4.035  10.275 -1.1054 -0.7989  1.1086
38382SOL    HW221239   2.447   4.098  10.209  0.2485  0.2413 -0.4820
38383SOL     OW21240   4.039   4.976   2.238 -0.2144  0.1030 -0.4643
38383SOL    HW121241   4.049   4.930   2.322 -2.6324 -0.6361 -0.4845
38383SOL    HW221242   3.947   5.004   2.238 -0.0018  0.9357 -2.4642
38384SOL     OW21243   0.470   8.980   3.571 -0.2959 -0.4570  0.0597
38384SOL    HW121244   0.477   8.892   3.534 -1.5982 -0.7598  0.4841
38384SOL    HW221245   0.451   8.965   3.664  0.8659  0.2876  0.4417
38385SOL     OW21246   9.330   3.238  10.854  0.7329 -0.6549  0.4120
38385SOL    HW121247   9.421   3.263  10.837  0.2036  1.0017 -0.2079
38385SOL    HW221248   9.318   3.252  10.947  0.6722  0.7625  0.2084
38386SOL     OW21249  10.330   9.414  10.056  0.3491 -0.0967  0.0885
38386SOL    HW121250  10.357   9.481   9.993 -0.7874 -0.6310 -1.0076
38386SOL    HW221251  10.371   9.334  10.024  0.2511 -0.2652  0.3798
38387SOL     OW21252   7.581   8.212   4.456 -0.2990  0.3007 -0.0998
38387SOL    HW121253   7.561   8.276   4.524  1.1656  1.0994 -0.3667
38387SOL    HW221254   7.537   8.246   4.378 -0.9190  0.0796  0.1578
38388SOL     OW21255   8.450  10.327   3.996 -0.8153 -0.3688 -0.1228
38388SOL    HW121256   8.414  10.402   3.947 -1.8254  0.5898  1.9579
38388SOL    HW221257   8.377  10.266   4.001 -1.0763  0.0056  1.0273
38389SOL     OW21258   1.359   5.316   9.829  0.2370 -0.2744  0.4977
38389SOL    HW121259   1.426   5.381   9.808  0.6555 -0.5749  0.8843
38389SOL    HW221260   1.310   5.304   9.748  0.5728  0.0406  0.2487
38390SOL     OW21261   6.516   0.069   8.698  0.1290  0.0872 -1.0728
38390SOL    HW121262   6.533   0.021   8.617 -0.3278  0.2283 -1.2516
38390SOL    HW221263   6.424   0.093   8.694 -0.2733 -1.0911  0.1049
38391SOL     OW21264   7.585   4.765  10.238  0.2372  0.5945 -0.1070
38391SOL    HW121265   7.577   4.840  10.179  0.4158 -0.0390 -0.9498
38391SOL    HW221266   7.515   4.706  10.211  0.7986 -0.0393 -0.1939
38392SOL     OW21267  10.511   7.351   5.868 -0.4252  0.3863 -0.0414
38392SOL    HW121268  10.475   7.357   5.779 -0.6219  0.1096  0.0191
38392SOL    HW221269  10.596   7.307   5.857  0.2748  1.7415 -0.2826
38393SOL     OW21270   5.040   4.234   6.317 -0.0207 -0.1647  0.0906
38393SOL    HW121271   4.988   4.155   6.301 -0.4595 -0.8264  3.8632
38393SOL    HW221272   5.128   4.201   6.333  0.3575  0.3977 -0.7920
38394SOL     OW21273   6.822   6.391   7.927  0.4136 -0.3438 -0.4491
38394SOL    HW121274   6.781   6.324   7.873 -1.5136  0.5162 -0.1277
38394SOL    HW221275   6.874   6.443   7.865 -0.9675  0.0271 -1.3411
38395SOL     OW21276  10.404   0.784   6.546  0.1217  0.0177 -0.1086
38395SOL    HW121277  10.364   0.867   6.570 -1.3701 -0.6109 -0.2871
38395SOL    HW221278  10.467   0.806   6.478  0.6261  1.1448  0.6996
38396SOL     OW21279   9.666  10.430   9.066  0.1371  1.1115 -0.1667
38396SOL    HW121280   9.755  10.447   9.034  1.5703 -2.5639  1.2609
38396SOL    HW221281   9.631  10.364   9.006  0.1596 -0.6643  1.6553
38397SOL     OW21282   0.881   3.309   1.589  0.1404  0.1278  0.6857
38397SOL    HW121283   0.961   3.343   1.630  0.5167 -0.3787  0.3829
38397SOL    HW221284   0.810   3.345   1.642  0.5498  0.9059  0.7308
38398SOL     OW21285   7.993   3.256   0.398 -0.2851  0.1359 -0.7266
38398SOL    HW121286   7.993   3.260   0.302  1.4371 -0.5886 -0.7803
38398SOL    HW221287   8.013   3.345   0.426  0.1679  0.1414 -1.0642
38399SOL     OW21288   3.244   0.562   1.125  0.0928  0.3768 -0.2065
38399SOL    HW121289   3.271   0.516   1.046 -2.3111 -0.3602 -0.6920
38399SOL    HW221290   3.252   0.655   1.102  0.3119  0.1760 -0.9814
38400SOL     OW21291   4.134   2.010   8.317  0.1498  0.3342  0.0610
38400SOL    HW121292   4.208   2.005   8.378 -0.0329  0.0680  0.2644
38400SOL    HW221293   4.148   1.936   8.257  0.0831  0.3219  0.0608
38401SOL     OW21294   9.634   4.725   8.445 -0.0755  0.8527  0.3961
38401SOL    HW121295   9.717   4.762   8.414  1.7744 -0.8433  2.9445
38401SOL    HW221296   9.611   4.779   8.521  0.7227 -0.8585  1.9175
38402SOL     OW21297   5.529   6.283  10.145 -0.7625  0.1860 -0.0781
38402SOL    HW121298   5.443   6.321  10.162 -1.2299 -0.8020 -0.1631
38402SOL    HW221299   5.524   6.250  10.055 -0.2997  0.1137 -0.0837
38403SOL     OW21300   4.133   0.453   5.108  0.0220  0.4105  0.4536
38403SOL    HW121301   4.110   0.545   5.124 -0.6670  0.3030  0.0991
38403SOL    HW221302   4.120   0.441   5.014 -1.1900 -0.4004  0.7060
38404SOL     OW21303   5.151   4.624   5.236 -0.2533 -0.5344 -0.1019
38404SOL    HW121304   5.168   4.715   5.259 -1.3294 -0.3458  0.0036
38404SOL    HW221305   5.237   4.582   5.238  0.4577  0.7694 -1.5002
38405SOL     OW21306   5.687   3.720   7.634 -0.1982 -0.4423 -0.2859
38405SOL    HW121307   5.712   3.745   7.545 -0.8452 -4.1000 -1.6560
38405SOL    HW221308   5.767   3.684   7.672 -0.0435  0.6712  0.4827
38406SOL     OW21309   4.463  10.920   2.080  0.1040  0.0555 -0.1021
38406SOL    HW121310   4.482  10.891   2.169 -2.0515 -1.6353 -0.1133
38406SOL    HW221311   4.410  10.999   2.091 -2.1576 -1.4382  0.2580
38407SOL     OW21312   7.919   0.081   9.964  0.0518 -0.0147  0.0080
38407SOL    HW121313   7.931   0.137  10.041 -1.0558  1.3121 -0.7550
38407SOL    HW221314   8.007   0.074   9.926  0.4464  0.0693  0.8755
38408SOL     OW21315   3.957   3.128   5.071 -0.7394  0.1972 -0.2499
38408SOL    HW121316   3.912   3.210   5.088  0.2583  1.0143 -1.3726
38408SOL    HW221317   3.933   3.072   5.144 -0.9632  1.6944  0.8740
38409SOL     OW21318   8.973   9.412  10.145 -0.1521  0.0057 -0.0648
38409SOL    HW121319   9.026   9.357  10.203 -0.8487 -0.0824  0.4973
38409SOL    HW221320   8.951   9.489  10.198 -1.5630 -0.4914  0.1253
38410SOL     OW21321   2.222  10.829   9.945  0.5154  0.0464  0.3735
38410SOL    HW121322   2.242  10.906   9.999  1.5619  1.8231 -2.3201
38410SOL    HW221323   2.181  10.866   9.866  0.8007 -2.2064 -0.8903
38411SOL     OW21324   0.841   6.812   7.601 -0.4199  0.1004 -0.2007
38411SOL    HW121325   0.880   6.725   7.610  0.4471  0.4674 -0.2886
38411SOL    HW221326   0.800   6.810   7.514  0.2106  0.0075 -0.5041
38412SOL     OW21327   5.159   1.477   8.841  0.2373  0.1975 -0.0372
38412SOL    HW121328   5.066   1.495   8.822  0.0776  1.3884  1.6773
38412SOL    HW221329   5.157   1.416   8.915  0.8072  0.7861  0.4723
38413SOL     OW21330   0.630   9.452   7.067  0.4401  0.1229 -0.0118
38413SOL    HW121331   0.720   9.425   7.048 -0.0303 -1.4031 -0.2684
38413SOL    HW221332   0.579   9.371   7.060 -0.6644  0.5795  2.0774
38414SOL     OW21333   5.481   5.089   9.641  0.0421 -0.1852 -0.0921
38414SOL    HW121334   5.563   5.136   9.656  0.4412 -1.2258  1.2339
38414SOL    HW221335   5.499   5.035   9.564  1.7577 -2.6620  1.8529
38415SOL     OW21336   6.301   9.284   7.152  0.5636 -0.4564  0.4083
38415SOL    HW121337   6.251   9.244   7.223  1.4608 -0.1520  1.2436
38415SOL    HW221338   6.344   9.359   7.193  0.4321  0.2215 -0.6741
38416SOL     OW21339   0.648  10.063   4.958  0.4216  0.0673 -0.3644
38416SOL    HW121340   0.591  10.021   5.023  0.6683 -0.2491 -0.3489
38416SOL    HW221341   0.595  10.134   4.922  0.3188  0.3132  0.2590
38417SOL     OW21342   9.021   6.199   6.257 -0.3434 -0.2208  0.0744
38417SOL    HW121343   8.946   6.169   6.206  0.3986 -0.9649 -0.6188
38417SOL    HW221344   9.013   6.153   6.341 -0.6424 -0.3291 -0.0120
38418SOL     OW21345   7.181   0.769   8.473  0.7268  0.3245  0.4943
38418SOL    HW121346   7.125   0.726   8.538  0.8304 -0.4062  0.1064
38418SOL    HW221347   7.121   0.797   8.404  0.7668  0.0285  0.3376
38419SOL     OW21348   1.547   5.698   9.359 -0.3996 -0.2573  0.4164
38419SOL    HW121349   1.479   5.658   9.413  0.3233 -0.5011  1.1772
38419SOL    HW221350   1.609   5.627   9.342 -1.7876 -0.8558 -2.8192
38420SOL     OW21351   3.244   0.053   5.305  0.1572 -0.2803 -0.3927
38420SOL    HW121352   3.302   0.082   5.235  1.6446  0.3345  1.0307
38420SOL    HW221353   3.197   0.131   5.332 -0.6842 -0.5912 -0.9325
38421SOL     OW21354   8.486   3.644  10.813  0.2136 -0.5561  0.4630
38421SOL    HW121355   8.444   3.730  10.820  1.6707  0.1556  0.8827
38421SOL    HW221356   8.542   3.639  10.890  2.4629 -0.5656 -1.0781
38422SOL     OW21357   7.935   0.209  10.240  0.1165  0.2771 -0.6298
38422SOL    HW121358   7.967   0.221  10.330 -1.2781  2.2243 -0.3441
38422SOL    HW221359   7.860   0.149  10.249  1.8329 -2.0688 -0.9636
38423SOL     OW21360   2.502   0.815   5.511 -0.5360  0.3064 -0.1174
38423SOL    HW121361   2.443   0.744   5.484  1.0392 -0.8174 -0.8047
38423SOL    HW221362   2.487   0.885   5.447 -0.6547 -0.2306 -0.6897
38424SOL     OW21363   7.998   9.525   7.770 -0.2181  0.0221 -0.4236
38424SOL    HW121364   8.036   9.488   7.690  3.0923  3.6743 -0.8256
38424SOL    HW221365   7.995   9.619   7.755 -1.7199  0.6614  2.9284
38425SOL     OW21366   0.903   3.847   7.727  0.0167  0.0354 -0.0485
38425SOL    HW121367   0.956   3.891   7.793 -0.1447  0.6300 -0.3054
38425SOL    HW221368   0.907   3.904   7.651  0.8474 -1.0292 -0.8349
38426SOL     OW21369   6.749   4.350   1.522  0.1772 -0.1605 -0.5713
38426SOL    HW121370   6.843   4.369   1.535 -0.1189  0.7757  0.4044
38426SOL    HW221371   6.715   4.342   1.611 -0.3374 -2.4000 -0.9214
38427SOL     OW21372  10.150   2.907   6.716 -0.2609 -0.0013  0.2236
38427SOL    HW121373  10.087   2.899   6.645  0.7518 -0.2830 -0.6832
38427SOL    HW221374  10.158   2.819   6.752 -1.5005  0.3251  1.3691
38428SOL     OW21375   1.710   1.069  10.112  0.2506 -0.0511  0.2742
38428SOL    HW121376   1.625   1.099  10.147 -0.4235 -1.5869  0.0394
38428SOL    HW221377   1.697   1.067  10.017  0.3354 -0.8769  0.2755
38429SOL     OW21378   1.941   5.905   3.143 -0.0048 -0.0057 -0.1879
38429SOL    HW121379   2.027   5.931   3.109  0.0455 -2.0877 -1.8740
38429SOL    HW221380   1.959   5.862   3.226  0.3309  1.3973  0.4943
38430SOL     OW21381   1.575   7.391   5.430 -0.0652 -0.0479 -0.3975
38430SOL    HW121382   1.552   7.454   5.498  1.2339  0.4762 -0.4085
38430SOL    HW221383   1.493   7.376   5.383 -1.1576 -0.9174  1.6403
38431SOL     OW21384   2.323   4.915   6.242  0.3401  0.4614  0.4804
38431SOL    HW121385   2.376   4.879   6.314  0.9927 -0.3851 -0.4002
38431SOL    HW221386   2.244   4.860   6.242  0.7872 -0.1890 -0.0795
38432SOL     OW21387   6.505   6.016   8.355 -0.4742  0.0374 -0.4962
38432SOL    HW121388   6.521   6.087   8.417  0.5155 -1.7655  1.4532
38432SOL    HW221389   6.466   5.946   8.408 -0.5308 -1.2368 -2.1366
38433SOL     OW21390   8.443   7.957   0.824 -0.4000 -0.5278 -0.4714
38433SOL    HW121391   8.401   8.036   0.856  0.3920  1.4976 -3.8794
38433SOL    HW221392   8.525   7.952   0.873  0.1058  1.5561 -0.9932
38434SOL     OW21393   4.092   9.959   9.771 -0.2723 -0.1646 -0.0807
38434SOL    HW121394   4.144  10.036   9.750  0.6096 -0.9960 -1.0899
38434SOL    HW221395   4.019   9.992   9.822  0.6850  1.1858  0.4732
38435SOL     OW21396   9.947   1.668   0.439  0.0707 -0.1769  0.3931
38435SOL    HW121397   9.953   1.601   0.371 -1.9930  0.1244 -0.1686
38435SOL    HW221398   9.968   1.750   0.394 -0.1798 -0.1157  0.3851
38436SOL     OW21399  10.152   9.700   5.509 -0.1996  0.6554 -0.6027
38436SOL    HW121400  10.138   9.754   5.431  1.8083  1.0215 -0.7690
38436SOL    HW221401  10.195   9.621   5.476  0.4209  0.6922  0.0844
38437SOL     OW21402  10.581  10.152   4.849 -0.0009 -0.3923  0.5061
38437SOL    HW121403  10.630  10.152   4.931 -0.6426  0.6118  0.9006
38437SOL    HW221404  10.567  10.244   4.828 -0.4076 -0.6434 -0.3900
38438SOL     OW21405   4.584   7.444   5.671  0.0426 -0.5620  0.1504
38438SOL    HW121406   4.640   7.403   5.605  1.2013 -0.4967  1.0531
38438SOL    HW221407   4.504   7.393   5.670 -0.9263  0.7861 -2.8657
38439SOL     OW21408   0.724   4.461  10.608 -0.0398  0.1042 -0.2541
38439SOL    HW121409   0.701   4.379  10.564  0.4149 -0.8295  1.1678
38439SOL    HW221410   0.790   4.436  10.672  0.0345  1.5814  0.2843
38440SOL     OW21411   1.223   9.709   0.589  0.0401  0.6603 -0.5783
38440SOL    HW121412   1.275   9.726   0.667  0.9311  0.4661 -1.1195
38440SOL    HW221413   1.134   9.735   0.614 -0.2195 -1.6541  1.3086
38441SOL     OW21414   1.079   5.300   5.503  0.3963 -0.8975 -0.7924
38441SOL    HW121415   1.167   5.306   5.466  0.6411  0.6750 -0.0097
38441SOL    HW221416   1.021   5.311   5.427  0.8924  0.2443 -1.0317
38442SOL     OW21417   6.871   8.065  10.704  0.3136  0.0413  0.1754
38442SOL    HW121418   6.949   8.035  10.657 -0.5845 -3.5762  0.6891
38442SOL    HW221419   6.905   8.126  10.769  2.3466  0.4824 -1.2001
38443SOL     OW21420   8.539   9.361   4.640 -0.6153  0.2598  0.4233
38443SOL    HW121421   8.507   9.270   4.640  1.8903 -0.7417 -1.2852
38443SOL    HW221422   8.484   9.406   4.577 -2.2582  0.1303  1.7041
38444SOL     OW21423   8.770   2.955   4.796  0.2956  0.1823  0.1499
38444SOL    HW121424   8.857   2.915   4.804  0.4282  0.6786  1.3359
38444SOL    HW221425   8.776   3.008   4.716  0.7089 -0.6858 -0.4126
38445SOL     OW21426   9.686   8.726   4.197  0.7027  0.1578  0.1956
38445SOL    HW121427   9.607   8.724   4.143  0.3601  1.1075  0.6338
38445SOL    HW221428   9.697   8.818   4.220  1.7427 -0.0089  0.4374
38446SOL     OW21429  10.893   2.628   0.257 -0.3723  0.1559  0.2297
38446SOL    HW121430  10.962   2.633   0.191  0.0704 -1.7677  0.4652
38446SOL    HW221431  10.916   2.694   0.322 -1.0696  2.4210 -1.6966
38447SOL     OW21432   2.912   3.006   2.570  0.1704 -0.3635 -0.2245
38447SOL    HW121433   2.890   3.028   2.660 -0.9793 -1.1136 -0.3007
38447SOL    HW221434   2.845   3.051   2.517  1.8457  1.5116 -0.8544
38448SOL     OW21435   3.114   6.904   9.022  0.8307 -0.1799  0.4478
38448SOL    HW121436   3.149   6.820   8.993  0.4709 -0.1570 -0.0481
38448SOL    HW221437   3.080   6.945   8.943  0.8527  0.3618  0.7149
38449SOL     OW21438   6.251   1.080   0.827 -0.1453  0.2171  0.0623
38449SOL    HW121439   6.277   1.172   0.825 -0.5938  0.3935  1.2039
38449SOL    HW221440   6.226   1.065   0.918 -1.5116 -0.6312 -0.4216
38450SOL     OW21441   8.988   1.670   0.394  0.1246  0.1375  0.1400
38450SOL    HW121442   9.037   1.690   0.474 -1.6090 -1.4896  1.6899
38450SOL    HW221443   9.028   1.589   0.361  1.2859  1.1647 -1.0997
38451SOL     OW21444   2.140   3.400   5.562 -0.2704  0.0938 -0.2073
38451SOL    HW121445   2.205   3.386   5.631  0.4652  0.5945 -0.7871
38451SOL    HW221446   2.084   3.323   5.566  1.1158 -0.9688 -0.5306
38452SOL     OW21447   3.017   2.542   1.322  0.0428 -0.4020  0.3639
38452SOL    HW121448   2.941   2.504   1.367  1.5860 -1.0896  2.6041
38452SOL    HW221449   2.980   2.611   1.266 -2.2203 -0.7244  1.3347
38453SOL     OW21450   2.944   5.939   4.888  0.2669  0.0625 -0.0688
38453SOL    HW121451   2.987   5.890   4.958 -0.4652 -0.7320 -0.1624
38453SOL    HW221452   2.941   5.877   4.815  1.4952  1.0454 -0.9990
38454SOL     OW21453   5.991   7.352   8.632  0.0570 -0.2424 -0.2719
38454SOL    HW121454   5.983   7.385   8.542 -1.7049  0.2448  0.0246
38454SOL    HW221455   6.057   7.409   8.672  1.2633 -0.8029 -1.3773
38455SOL     OW21456   9.413   8.074   3.787  0.1457  0.0274 -0.1679
38455SOL    HW121457   9.490   8.054   3.842 -1.9400 -0.2182  2.9318
38455SOL    HW221458   9.346   8.013   3.817 -1.7205  1.2245 -1.7130
38456SOL     OW21459   8.871   9.146   6.706 -0.2115  0.0357 -0.6286
38456SOL    HW121460   8.906   9.059   6.725 -1.9287 -0.8965 -1.5686
38456SOL    HW221461   8.812   9.165   6.779  1.7585  1.4160  0.7213
38457SOL     OW21462   2.979   3.179   8.110  0.1800  0.3249  0.4188
38457SOL    HW121463   2.884   3.189   8.106  0.3311  1.4534 -0.8323
38457SOL    HW221464   3.013   3.244   8.050  1.7806  0.2122  1.1443
38458SOL     OW21465   7.538   0.956  10.445  0.1950 -0.4022 -0.0959
38458SOL    HW121466   7.625   0.918  10.445  0.0747 -0.6786 -0.3801
38458SOL    HW221467   7.483   0.891  10.490  0.1338 -0.2356  0.0713
38459SOL     OW21468   1.993   6.226   0.965 -0.0999  0.0646  0.3000
38459SOL    HW121469   2.085   6.237   0.940 -0.1533  2.8758  0.9697
38459SOL    HW221470   1.996   6.179   1.048  0.7486  0.1520  0.3283
38460SOL     OW21471   2.607   9.582   4.216 -0.2685 -0.1365 -0.1866
38460SOL    HW121472   2.685   9.560   4.266  0.8374  1.5629 -1.0693
38460SOL    HW221473   2.548   9.508   4.229  0.6411 -0.5333  2.2040
38461SOL     OW21474   0.873   3.441   9.247  0.0894 -0.3247  0.0739
38461SOL    HW121475   0.838   3.519   9.204  0.5018  0.4388  1.0714
38461SOL    HW221476   0.829   3.439   9.332  1.0411 -0.4156  0.5867
38462SOL     OW21477   1.124   8.864   4.065  0.4284 -0.4670  0.1842
38462SOL    HW121478   1.141   8.781   4.109  2.2724  0.1584  0.7514
38462SOL    HW221479   1.178   8.861   3.986  0.9589  0.3836  0.4894
38463SOL     OW21480   7.228   8.218   1.284 -0.2154  0.4712 -0.1131
38463SOL    HW121481   7.311   8.188   1.319  0.0542  0.6377 -0.5993
38463SOL    HW221482   7.240   8.312   1.271 -0.8043  0.6757  0.7176
38464SOL     OW21483   1.125   3.409   7.768 -0.6475  0.1004  0.1746
38464SOL    HW121484   1.153   3.453   7.688 -0.9260 -0.8307 -0.4462
38464SOL    HW221485   1.068   3.473   7.811 -0.1612  0.7725 -0.1411
38465SOL     OW21486   8.020  10.127   8.670  0.2850  0.4346  0.3650
38465SOL    HW121487   8.100  10.178   8.679  0.4339 -0.0378  2.2632
38465SOL    HW221488   7.961  10.183   8.619  0.2703  2.7874  2.7348
38466SOL     OW21489   1.439   4.710   6.749 -0.3351  0.3075  0.0515
38466SOL    HW121490   1.518   4.745   6.790  0.2993 -0.9073 -0.0925
38466SOL    HW221491   1.383   4.787   6.736  2.0406  1.7847 -2.7177
38467SOL     OW21492   4.159   8.428   3.467 -0.0198  0.4114 -0.2673
38467SOL    HW121493   4.095   8.384   3.412 -1.6936  2.5901 -0.1545
38467SOL    HW221494   4.238   8.432   3.413 -0.3014 -1.1997 -0.8735
38468SOL     OW21495   1.845   0.357   7.924  0.1097  0.6611 -0.0288
38468SOL    HW121496   1.939   0.375   7.926  0.2614 -0.1106  0.2467
38468SOL    HW221497   1.837   0.267   7.954 -0.5259 -0.0760 -2.2409
38469SOL     OW21498   3.734   6.862   2.988 -0.5329 -0.5186 -0.0821
38469SOL    HW121499   3.751   6.900   2.902  2.1372 -0.3722  0.4397
38469SOL    HW221500   3.748   6.934   3.050  1.7971 -1.5877  0.7173
38470SOL     OW21501   2.677   2.361   7.130 -0.4980  0.3975 -0.1669
38470SOL    HW121502   2.735   2.289   7.105  0.1875  0.8185  0.1759
38470SOL    HW221503   2.590   2.322   7.134 -0.0421 -0.5766  0.6895
38471SOL     OW21504   4.932   0.363   9.165  0.5048  0.1036 -0.5072
38471SOL    HW121505   4.974   0.449   9.162 -0.2650  0.6418  1.7698
38471SOL    HW221506   4.854   0.373   9.110 -0.8288  1.6987  1.4914
38472SOL     OW21507   2.012   9.663   8.392  0.3906  0.5360 -0.3563
38472SOL    HW121508   2.043   9.727   8.328  1.6221  0.7364  0.4060
38472SOL    HW221509   2.006   9.581   8.343  3.4524  0.1643 -0.3234
38473SOL     OW21510   5.064   3.189   2.350  0.3348 -0.4747 -0.3028
38473SOL    HW121511   5.015   3.132   2.410 -1.2714  0.1740 -0.9578
38473SOL    HW221512   4.999   3.219   2.287  2.1783 -2.2776 -3.3356
38474SOL     OW21513   0.931   3.521   2.311 -0.2174 -0.3148 -0.1357
38474SOL    HW121514   0.903   3.430   2.307 -2.6992  0.3432  0.3324
38474SOL    HW221515   0.914   3.556   2.224 -0.3734 -0.0131  0.0148
38475SOL     OW21516   6.631   1.820   2.131  0.8112 -0.3157  0.4488
38475SOL    HW121517   6.682   1.793   2.208  0.6003  1.4087  1.2299
38475SOL    HW221518   6.594   1.905   2.155  1.9493  1.0142 -2.1111
38476SOL     OW21519   0.176   9.588   6.870 -0.0656 -0.1167 -0.2041
38476SOL    HW121520   0.202   9.510   6.919 -1.3048 -0.9085 -0.7284
38476SOL    HW221521   0.227   9.583   6.789 -0.3055 -0.5314 -0.3379
38477SOL     OW21522   9.890   5.625   2.678  0.7984 -0.0941 -0.0598
38477SOL    HW121523   9.807   5.626   2.726  1.4678  1.4406  1.1757
38477SOL    HW221524   9.950   5.575   2.734  1.7021  2.0783  1.0380
38478SOL     OW21525   5.301   4.504   7.913  0.6245 -0.4072 -0.3566
38478SOL    HW121526   5.318   4.569   7.981 -0.9335  2.5420 -2.5756
38478SOL    HW221527   5.366   4.522   7.846 -0.8776  0.1103 -1.7472
38479SOL     OW21528   2.952   6.867   1.420 -0.1247  0.2672  0.0069
38479SOL    HW121529   2.971   6.774   1.413 -1.5553 -0.2166  1.9017
38479SOL    HW221530   3.038   6.909   1.424  0.5733 -1.2388  1.9155
38480SOL     OW21531   0.920   4.866   7.965 -0.1763 -0.3251  0.5638
38480SOL    HW121532   0.832   4.890   7.995  0.0951 -1.0937  2.0439
38480SOL    HW221533   0.905   4.808   7.890 -0.9112  0.0482  0.4147
38481SOL     OW21534   3.689   9.044   6.194  0.4810 -0.0368 -0.1382
38481SOL    HW121535   3.723   9.133   6.185  0.5296 -0.1638 -1.4084
38481SOL    HW221536   3.747   9.003   6.258  0.2821  0.9216  0.6722
38482SOL     OW21537   7.868   2.347   0.782 -0.0207 -0.8888 -0.3314
38482SOL    HW121538   7.915   2.273   0.822 -0.2458 -2.5282 -2.8310
38482SOL    HW221539   7.926   2.376   0.711  0.0103  1.3402  0.5437
38483SOL     OW21540  10.382   9.342   7.040  0.6049  0.0819  1.0127
38483SOL    HW121541  10.339   9.405   7.098 -0.4642 -0.7516  1.1806
38483SOL    HW221542  10.361   9.372   6.952  2.3238  1.4143  1.0129
38484SOL     OW21543   7.574   6.271   8.578  0.5522 -0.1318 -0.0029
38484SOL    HW121544   7.492   6.279   8.530  1.0998  0.3738 -0.8729
38484SOL    HW221545   7.616   6.356   8.568 -0.1346  0.6954  2.9524
38485SOL     OW21546   4.216   1.509   6.743  0.7173  0.0822 -0.5876
38485SOL    HW121547   4.217   1.521   6.838 -0.8615  0.6470 -0.6068
38485SOL    HW221548   4.202   1.415   6.731  1.4502 -0.0707 -0.2704
38486SOL     OW21549  10.371   2.808   0.879 -0.7370  0.2221 -0.0375
38486SOL    HW121550  10.314   2.747   0.833 -0.2166 -0.1223 -0.2447
38486SOL    HW221551  10.372   2.776   0.969 -0.5068 -0.0576 -0.1349
38487SOL     OW21552   0.803   7.922   5.045  0.0852  0.5135 -0.9941
38487SOL    HW121553   0.722   7.872   5.056 -0.8250  1.8921 -1.1685
38487SOL    HW221554   0.804   7.944   4.952  0.9223  0.0878 -1.0897
38488SOL     OW21555   0.967   4.165   6.470  0.3968 -0.2446  0.9203
38488SOL    HW121556   1.058   4.168   6.439  0.1124  1.1995  0.1468
38488SOL    HW221557   0.967   4.217   6.550  0.5075 -1.4351  1.7262
38489SOL     OW21558   4.970   2.251   4.138  0.0911  0.5824 -0.1235
38489SOL    HW121559   4.994   2.159   4.124  1.2283  0.5799  1.4970
38489SOL    HW221560   4.948   2.256   4.231  1.3551  2.1883  0.1442
38490SOL     OW21561   9.492   8.814   1.295  0.1040  0.2296  0.3160
38490SOL    HW121562   9.487   8.889   1.236  0.7675  0.0230 -0.0094
38490SOL    HW221563   9.441   8.841   1.372 -2.0715 -0.0678 -0.9318
38491SOL     OW21564   6.985   0.684   4.361  0.2040  0.1957  0.3111
38491SOL    HW121565   7.030   0.707   4.443  1.4146 -0.4621 -0.1503
38491SOL    HW221566   6.893   0.679   4.386  0.0244  3.5179  0.8893
38492SOL     OW21567  10.722  10.872   7.882  0.0831  0.4050  0.5247
38492SOL    HW121568  10.652  10.819   7.921 -0.0579  0.3621  0.2148
38492SOL    HW221569  10.700  10.877   7.789  1.1134 -0.5769  0.2138
38493SOL     OW21570  10.519   5.037   6.487 -0.2270 -0.6800 -0.3046
38493SOL    HW121571  10.456   5.005   6.423  0.5859  0.2725 -1.6384
38493SOL    HW221572  10.487   5.124   6.511 -0.5442 -1.0466  0.6266
38494SOL     OW21573   0.661   6.663   9.448  0.1971  0.3924 -0.4242
38494SOL    HW121574   0.570   6.635   9.437  0.1710  1.1496 -2.7607
38494SOL    HW221575   0.710   6.582   9.464 -0.7766 -0.1105  0.0444
38495SOL     OW21576   2.761   2.256   0.317 -0.0665  0.2054  0.0074
38495SOL    HW121577   2.834   2.316   0.323  0.8065 -0.5696 -1.9876
38495SOL    HW221578   2.707   2.276   0.393  1.7520  1.3894  1.0562
38496SOL     OW21579   7.343   4.794   6.821 -0.5318 -0.0095 -0.9496
38496SOL    HW121580   7.386   4.742   6.754  2.4617  1.2621 -0.1683
38496SOL    HW221581   7.329   4.879   6.780  2.5974  1.2299  0.2997
38497SOL     OW21582   4.136   5.372   4.966 -0.2637  0.0468  0.0500
38497SOL    HW121583   4.140   5.430   5.042  1.1077  2.0503 -1.4477
38497SOL    HW221584   4.227   5.348   4.949 -0.6468 -1.1597 -0.4050
38498SOL     OW21585  10.653   9.993   7.305 -0.4343 -0.7047  0.2856
38498SOL    HW121586  10.710   9.983   7.381  0.9545 -1.1444 -0.7698
38498SOL    HW221587  10.587   9.925   7.315 -0.4141 -0.5860  1.2323
38499SOL     OW21588   2.642   5.522   0.135  0.3115 -0.1081  0.3562
38499SOL    HW121589   2.633   5.600   0.190  0.7580  0.3453 -0.1959
38499SOL    HW221590   2.720   5.478   0.168  0.7309  0.3029 -0.0675
38500SOL     OW21591   7.621   6.808   5.641  0.2129  0.6145 -0.9149
38500SOL    HW121592   7.634   6.713   5.647 -0.1367  0.5864 -0.5829
38500SOL    HW221593   7.534   6.823   5.677  0.7655  1.2019  0.2186
38501SOL     OW21594   5.464   4.710   4.635 -0.4540 -0.3117 -0.7431
38501SOL    HW121595   5.435   4.756   4.556 -1.0633 -0.6862 -0.7451
38501SOL    HW221596   5.400   4.735   4.702  0.0667  0.0143 -0.3597
38502SOL     OW21597   2.575   4.241   6.992 -0.0497  0.6187 -0.1321
38502SOL    HW121598   2.503   4.216   6.934  0.9432 -0.8079 -0.8204
38502SOL    HW221599   2.612   4.158   7.021  0.8899  1.3240  0.7662
38503SOL     OW21600   9.945  10.658   3.432  0.4140  0.2806  0.0855
38503SOL    HW121601   9.963  10.749   3.454 -0.1517  0.5240 -0.4422
38503SOL    HW221602   9.850  10.653   3.424  0.3615 -0.5799  1.0508
38504SOL     OW21603   8.721   8.003   8.391  0.1072 -0.2820 -0.0402
38504SOL    HW121604   8.734   8.022   8.298 -1.0184  0.0721 -0.1383
38504SOL    HW221605   8.751   7.913   8.401  2.0139  0.2835 -0.3404
38505SOL     OW21606  10.681   7.710   1.617  0.1351 -0.6122 -0.1986
38505SOL    HW121607  10.612   7.721   1.683 -0.5896 -0.1019 -1.0231
38505SOL    HW221608  10.738   7.785   1.629 -0.2640 -0.2618 -0.4525
38506SOL     OW21609   7.728   8.996   8.898  0.5662  0.0982  0.0706
38506SOL    HW121610   7.788   9.063   8.865  0.3310  0.6688  0.7553
38506SOL    HW221611   7.640   9.032   8.881  0.4103  1.1326  2.5743
38507SOL     OW21612  10.048   5.928   9.946 -0.1879 -0.9239 -0.7239
38507SOL    HW121613  10.065   5.896   9.858 -2.0274 -0.4429 -1.2917
38507SOL    HW221614   9.964   5.889   9.971  0.1108 -0.7460  0.6768
38508SOL     OW21615   2.255   4.827   4.344  0.2854 -0.6703 -0.8685
38508SOL    HW121616   2.264   4.751   4.287  2.3570 -2.0872  1.1516
38508SOL    HW221617   2.168   4.817   4.383  0.5479 -2.0535 -0.5992
38509SOL     OW21618   0.531   8.033   3.002  0.1580 -0.0627 -0.3163
38509SOL    HW121619   0.594   8.012   3.070 -1.3387  0.4347  1.2970
38509SOL    HW221620   0.567   8.112   2.960  1.5530 -0.9037 -0.7807
38510SOL     OW21621  10.465   3.208  10.574  0.2997  0.0698  0.5370
38510SOL    HW121622  10.532   3.214  10.643  0.3905 -1.8235  0.6709
38510SOL    HW221623  10.453   3.114  10.561 -0.1465  0.3735 -1.6329
38511SOL     OW21624   6.792   3.983   2.200  0.2042  0.6437  0.1244
38511SOL    HW121625   6.874   3.954   2.241 -0.0217  1.7476  1.3935
38511SOL    HW221626   6.729   3.986   2.272 -0.4357  1.7654 -0.4694
38512SOL     OW21627   3.334   8.238   1.063  0.3057  0.4402  0.1053
38512SOL    HW121628   3.315   8.160   1.012 -1.0077  0.2044  0.9089
38512SOL    HW221629   3.302   8.311   1.009  0.7595  0.3615 -0.2725
38513SOL     OW21630   6.097   4.190   3.689 -0.2349  0.1032  0.0603
38513SOL    HW121631   6.162   4.149   3.746 -0.1062  0.0841 -0.0988
38513SOL    HW221632   6.083   4.277   3.726  2.1345  1.3009 -1.5890
38514SOL     OW21633  10.151   1.599   1.414  0.5779  0.3427  0.0770
38514SOL    HW121634  10.226   1.565   1.463 -0.3999  0.6447  1.8925
38514SOL    HW221635  10.164   1.694   1.413  0.9911  0.2925 -1.0018
38515SOL     OW21636   7.244   1.969   9.823  0.2504 -0.3211  0.1457
38515SOL    HW121637   7.265   1.987   9.915  0.3471 -0.5860  0.1773
38515SOL    HW221638   7.166   1.913   9.828 -0.2014  0.2860  0.0426
38516SOL     OW21639   1.353   5.337   5.148  0.1624  0.0650 -0.3363
38516SOL    HW121640   1.355   5.350   5.243 -3.1257 -2.8528  0.3273
38516SOL    HW221641   1.373   5.244   5.136  1.3524  0.5362 -2.6505
38517SOL     OW21642   0.580   9.577   3.498  0.0959 -0.2466  0.3281
38517SOL    HW121643   0.491   9.603   3.476  0.0447 -0.4600  0.2885
38517SOL    HW221644   0.608   9.642   3.563  0.1030  0.1408 -0.0601
38518SOL     OW21645   6.649   5.306   7.540  0.1411  0.8976  0.2731
38518SOL    HW121646   6.664   5.361   7.464 -0.6378  0.7017 -0.0279
38518SOL    HW221647   6.733   5.305   7.586  0.2892  1.9688  0.0446
38519SOL     OW21648   7.182   6.028   8.587 -0.0952  0.1399 -1.1189
38519SOL    HW121649   7.184   6.115   8.549 -1.7013  0.0247 -1.5516
38519SOL    HW221650   7.111   6.031   8.651 -0.3974 -0.9351 -1.3782
38520SOL     OW21651  10.210   3.271   2.345 -0.0097  0.5720 -0.4397
38520SOL    HW121652  10.236   3.363   2.346 -0.8907  0.8480 -1.2394
38520SOL    HW221653  10.289   3.224   2.318  0.7623  0.9655  1.0709
38521SOL     OW21654   9.026   3.819   0.709 -0.1991 -0.7111  0.0973
38521SOL    HW121655   9.109   3.867   0.713 -0.0789 -0.9796  0.8509
38521SOL    HW221656   9.048   3.737   0.665 -0.3077 -0.2982 -0.7516
38522SOL     OW21657  10.314   6.816   5.584  0.2428 -0.2471  0.3860
38522SOL    HW121658  10.368   6.834   5.507  0.4238 -1.2228  0.2817
38522SOL    HW221659  10.374   6.773   5.646  0.1005  0.5336  1.0841
38523SOL     OW21660  10.198   8.655   7.445 -0.1815 -0.2048  0.1658
38523SOL    HW121661  10.131   8.666   7.512 -0.2103  0.8801 -0.0303
38523SOL    HW221662  10.188   8.565   7.415 -2.1840  0.2184 -0.5416
38524SOL     OW21663   2.542   0.439   5.522  0.0015  0.0642 -0.4246
38524SOL    HW121664   2.485   0.489   5.464 -0.6200  2.1422  1.8097
38524SOL    HW221665   2.627   0.482   5.514  0.3772 -0.7657 -1.0646
38525SOL     OW21666   0.669   2.489   0.440  0.1457 -0.3183  0.2022
38525SOL    HW121667   0.638   2.499   0.530 -0.4214 -0.4083  0.0209
38525SOL    HW221668   0.628   2.408   0.410  0.7030 -0.5323  0.0118
38526SOL     OW21669   9.108   6.732   5.176  0.4902 -0.0884  0.0022
38526SOL    HW121670   9.079   6.669   5.242 -3.2423  0.6659 -0.7316
38526SOL    HW221671   9.202   6.714   5.167  0.8479 -1.4328  4.1122
38527SOL     OW21672   2.546   1.746   5.546 -0.1834  0.2750  0.1151
38527SOL    HW121673   2.490   1.824   5.540 -1.0506 -0.4140 -1.5601
38527SOL    HW221674   2.530   1.711   5.633 -1.2091  0.9308  0.2089
38528SOL     OW21675   1.079   0.970   0.474  0.1636  0.0701  0.0609
38528SOL    HW121676   1.125   0.924   0.544 -0.1267 -1.2160 -0.5661
38528SOL    HW221677   0.992   0.929   0.471 -0.1160  0.6822 -0.4890
38529SOL     OW21678   6.511   1.540  10.766  0.0391 -0.3731  0.2192
38529SOL    HW121679   6.524   1.625  10.807  0.8581 -0.5801  0.3927
38529SOL    HW221680   6.557   1.547  10.682 -0.7412 -0.3070 -0.2114
38530SOL     OW21681   6.843   1.139   5.057 -0.3477 -0.3258 -0.0019
38530SOL    HW121682   6.840   1.068   5.120  0.4313 -1.3826 -1.1085
38530SOL    HW221683   6.878   1.214   5.105  0.0280 -1.0450  0.8571
38531SOL     OW21684   5.075   2.298   1.618 -0.5277  0.1648  0.3264
38531SOL    HW121685   5.148   2.247   1.583  0.1527 -0.1516  2.1075
38531SOL    HW221686   5.065   2.371   1.558  0.6328 -0.3007 -0.4597
38532SOL     OW21687   7.068   0.195   0.787  0.0315 -0.6106 -0.6086
38532SOL    HW121688   6.992   0.235   0.743  1.0199  0.1057 -1.7462
38532SOL    HW221689   7.110   0.143   0.718  0.1833 -1.5619  0.1969
38533SOL     OW21690   4.779   8.327   8.480  0.2693  0.0937 -0.3357
38533SOL    HW121691   4.741   8.400   8.528  0.0294 -0.8938  1.0380
38533SOL    HW221692   4.862   8.310   8.525 -0.3459 -1.3869  0.3229
38534SOL     OW21693   6.471   9.235   5.189 -0.4129  0.2555  1.0252
38534SOL    HW121694   6.499   9.167   5.128 -0.5928 -0.0293  1.2622
38534SOL    HW221695   6.379   9.252   5.167 -0.1135  1.1051  0.3317
38535SOL     OW21696   6.237   7.644   8.986 -0.0137 -0.3938  0.5818
38535SOL    HW121697   6.274   7.564   8.948  1.2371  0.7458 -0.7037
38535SOL    HW221698   6.142   7.627   8.989 -0.1551 -0.7300 -2.7191
38536SOL     OW21699   1.612   5.012   5.883  0.7278  0.2121 -0.1001
38536SOL    HW121700   1.585   5.012   5.975  1.2051 -0.1888  0.0422
38536SOL    HW221701   1.586   4.926   5.850 -0.8857  0.9138 -0.7802
38537SOL     OW21702   4.000   0.171   2.469  0.5936 -0.2031 -0.4572
38537SOL    HW121703   4.039   0.195   2.554  0.9257 -1.7924 -0.1281
38537SOL    HW221704   4.056   0.101   2.436 -0.5571 -0.8129 -1.1661
38538SOL     OW21705   7.366   3.979   1.611 -0.1173 -0.2443  0.1087
38538SOL    HW121706   7.358   3.963   1.705 -0.1909  0.1584  0.1708
38538SOL    HW221707   7.284   3.947   1.574  0.2897 -1.2668  0.0642
38539SOL     OW21708   9.346   9.786   8.579  0.3451  0.4345  0.7269
38539SOL    HW121709   9.385   9.777   8.665 -0.3650  3.6352  1.5220
38539SOL    HW221710   9.252   9.773   8.593  0.3484 -0.3418  0.1407
38540SOL     OW21711   9.944   7.573   1.658 -0.4510  0.6338  0.1766
38540SOL    HW121712  10.008   7.539   1.595 -0.6349 -0.5230  0.5831
38540SOL    HW221713   9.871   7.604   1.604 -0.5382 -0.1999 -0.2024
38541SOL     OW21714   8.156   8.930   5.017 -0.8287  0.2481 -0.0701
38541SOL    HW121715   8.181   9.016   5.050  1.0171 -1.0866  2.3450
38541SOL    HW221716   8.219   8.911   4.947 -0.5197  0.3975  0.1686
38542SOL     OW21717   5.087   3.935   3.620  0.2803 -0.3181  0.1577
38542SOL    HW121718   5.031   3.868   3.581  0.3944 -2.3926  3.1637
38542SOL    HW221719   5.168   3.931   3.569  0.8498 -3.6994  1.0897
38543SOL     OW21720   6.086   3.462   0.980  0.0950  0.1507  0.1520
38543SOL    HW121721   6.050   3.422   0.901 -0.4007 -0.6868  0.7722
38543SOL    HW221722   6.130   3.541   0.950 -1.5856  0.7860 -0.7487
38544SOL     OW21723  10.209   6.786   7.458 -0.2047 -0.0568  0.4396
38544SOL    HW121724  10.207   6.783   7.363  2.5087  0.0932  0.3027
38544SOL    HW221725  10.123   6.753   7.485  0.8387 -6.0762 -1.9934
38545SOL     OW21726   1.771   3.501   0.832 -0.0137  0.7443 -0.9036
38545SOL    HW121727   1.715   3.476   0.759 -1.6068  0.5342  0.3224
38545SOL    HW221728   1.827   3.425   0.847  0.3130  0.7857 -1.8716
38546SOL     OW21729   4.867   7.791   5.996 -0.2319  0.0673 -0.1716
38546SOL    HW121730   4.853   7.881   6.024 -0.1048 -0.4307  1.6518
38546SOL    HW221731   4.787   7.766   5.951 -0.2751  1.0681 -0.6693
38547SOL     OW21732   2.973   6.182   8.778  0.0043 -0.0049  0.0639
38547SOL    HW121733   2.893   6.197   8.727 -0.5281 -0.7538  0.6642
38547SOL    HW221734   2.994   6.268   8.814  0.5747  0.6252 -1.6566
38548SOL     OW21735  10.378   2.006   6.249  0.2726 -0.4234  0.1376
38548SOL    HW121736  10.354   2.095   6.223 -2.5481 -1.6811 -2.0381
38548SOL    HW221737  10.326   1.989   6.328  1.2489 -0.0184  0.8966
38549SOL     OW21738   4.931   7.259   5.208 -0.5582 -0.2285 -0.1822
38549SOL    HW121739   4.950   7.351   5.191 -0.7206 -0.2020 -0.2176
38549SOL    HW221740   4.899   7.226   5.124 -1.6434 -0.0268  0.1319
38550SOL     OW21741   9.609   8.122   2.621  0.0888 -0.3130  0.1774
38550SOL    HW121742   9.550   8.070   2.675 -0.3526  0.1006  0.0995
38550SOL    HW221743   9.629   8.199   2.674  0.9040 -0.6480  0.3761
38551SOL     OW21744   7.048   3.757   6.157  0.1662 -0.2412  0.0075
38551SOL    HW121745   7.105   3.833   6.146 -1.2775  0.9732  0.4991
38551SOL    HW221746   6.993   3.757   6.079  0.1098 -0.7234  0.0482
38552SOL     OW21747   1.339   0.438   4.124  0.4913  0.3140  0.0352
38552SOL    HW121748   1.365   0.350   4.152  0.2388  0.7054  1.6228
38552SOL    HW221749   1.385   0.497   4.184 -1.6563  1.1283  0.9823
38553SOL     OW21750   6.884   1.230   3.768  0.6573 -0.2711  0.3008
38553SOL    HW121751   6.960   1.244   3.711  1.6076  0.5025  1.7045
38553SOL    HW221752   6.914   1.164   3.831  0.0490 -0.2031  0.6631
38554SOL     OW21753  10.882   1.889   6.171 -0.1846 -0.8602 -0.3505
38554SOL    HW121754  10.795   1.874   6.210  0.0567 -0.8504  0.2027
38554SOL    HW221755  10.868   1.882   6.077 -0.5885 -1.9168 -0.2213
38555SOL     OW21756   7.215   0.339   1.735  0.4323  0.2694 -0.0091
38555SOL    HW121757   7.191   0.351   1.827  0.3723  0.6203 -0.0691
38555SOL    HW221758   7.132   0.349   1.688  0.2150 -1.2532  0.0011
38556SOL     OW21759  10.707   6.843   0.150  0.4680 -0.0991 -0.4290
38556SOL    HW121760  10.627   6.809   0.110 -0.5808  0.9872  0.6301
38556SOL    HW221761  10.754   6.765   0.180 -1.8752 -0.7648  1.9890
38557SOL     OW21762   7.247   7.351   6.607 -0.2756  0.2587  0.7556
38557SOL    HW121763   7.246   7.443   6.635  1.5419  0.3259  0.7296
38557SOL    HW221764   7.211   7.304   6.681 -1.4943  1.0068  0.6637
38558SOL     OW21765   9.983   4.826   8.338 -0.3417  0.0017  0.2152
38558SOL    HW121766  10.078   4.826   8.350 -0.3749  0.0499  0.5028
38558SOL    HW221767   9.949   4.868   8.417 -0.4727  2.1499 -0.9083
38559SOL     OW21768   4.905   6.158   0.175  0.2830  0.4854 -0.1546
38559SOL    HW121769   4.946   6.167   0.262 -0.6224  1.6167  0.1704
38559SOL    HW221770   4.883   6.065   0.169 -1.7125  0.7348  1.8190
38560SOL     OW21771   8.515   1.749   3.972 -0.1868  0.4657 -0.3535
38560SOL    HW121772   8.427   1.786   3.968 -0.0885  0.6494 -1.0508
38560SOL    HW221773   8.571   1.815   3.930  0.5193  0.9957  1.3409
38561SOL     OW21774   8.288   7.065   9.025 -0.8138 -0.5525  0.3607
38561SOL    HW121775   8.363   7.011   9.000 -1.6652 -1.1450 -1.0496
38561SOL    HW221776   8.267   7.036   9.114  1.2366  0.3753  1.2193
38562SOL     OW21777   3.414   7.494   5.272 -0.0097 -0.2215  0.1697
38562SOL    HW121778   3.488   7.546   5.241  1.1665 -2.1976 -0.4560
38562SOL    HW221779   3.448   7.445   5.347 -0.8336 -0.7643  0.2076
38563SOL     OW21780   1.366   3.736   6.070 -0.3158  0.9154  0.2177
38563SOL    HW121781   1.449   3.764   6.030  1.3380 -1.6844  1.5449
38563SOL    HW221782   1.324   3.681   6.004  0.0800  0.5191  0.2892
38564SOL     OW21783  10.410   9.665   3.020  0.2382  0.2016 -0.1518
38564SOL    HW121784  10.493   9.638   3.059  0.5390  0.0197 -0.9000
38564SOL    HW221785  10.344   9.640   3.084  0.8369  1.4200  1.0098
38565SOL     OW21786   0.276   9.580   6.622 -0.6885 -0.4228 -0.1116
38565SOL    HW121787   0.353   9.626   6.589 -0.3375 -1.7278 -1.2054
38565SOL    HW221788   0.204   9.642   6.609 -0.1739 -0.0275 -1.1934
38566SOL     OW21789   3.981   2.011   7.525  0.2423 -0.1469  0.4985
38566SOL    HW121790   4.030   2.072   7.579  0.5779 -0.3706  0.4504
38566SOL    HW221791   3.911   1.979   7.582 -0.7645  1.2797  0.1251
38567SOL     OW21792   3.045   2.941   6.062 -0.4114  0.0426 -0.1631
38567SOL    HW121793   3.110   2.875   6.084 -1.7307 -0.9901  0.8548
38567SOL    HW221794   2.965   2.911   6.106 -1.1181  2.1836  0.1363
38568SOL     OW21795   3.306   4.939   1.349  0.0056 -0.1784 -0.6578
38568SOL    HW121796   3.310   4.998   1.424  1.5511 -2.1766  0.9419
38568SOL    HW221797   3.373   4.972   1.289 -1.1139  1.3215 -1.1324
38569SOL     OW21798   4.254   2.801   0.800  0.5649 -0.3540 -0.2299
38569SOL    HW121799   4.191   2.847   0.856  0.5368 -1.5119  0.7392
38569SOL    HW221800   4.243   2.840   0.714 -0.9857 -0.0341  0.0875
38570SOL     OW21801   6.945   1.161   1.362 -0.3029 -0.8864  0.3255
38570SOL    HW121802   7.027   1.197   1.395 -0.6101 -0.9146  1.1305
38570SOL    HW221803   6.884   1.169   1.435 -1.5655  0.9135 -0.8446
38571SOL     OW21804   7.176   8.610   5.932 -0.2971  0.4311 -0.3336
38571SOL    HW121805   7.239   8.673   5.898 -0.0992 -0.6319 -2.0462
38571SOL    HW221806   7.230   8.536   5.961 -0.6115  0.5070  0.4692
38572SOL     OW21807   3.696   5.561   6.271  0.5957  0.3957 -0.0151
38572SOL    HW121808   3.712   5.651   6.241  2.3471  0.2826  0.4719
38572SOL    HW221809   3.759   5.508   6.224  0.2790 -0.4357  0.4753
38573SOL     OW21810  10.210   4.169   7.339 -0.1445  0.0408 -0.4396
38573SOL    HW121811  10.287   4.190   7.286  0.0433 -1.8990 -0.9982
38573SOL    HW221812  10.150   4.128   7.277 -1.7274  1.6506 -0.0465
38574SOL     OW21813   8.907   2.336   8.758 -0.1007  0.1907 -0.0573
38574SOL    HW121814   8.836   2.394   8.730  0.4857  0.8606 -0.1789
38574SOL    HW221815   8.955   2.316   8.678  0.4292  0.5343  0.1705
38575SOL     OW21816   0.290   9.769   5.651  0.0905  0.3056  0.2613
38575SOL    HW121817   0.195   9.776   5.662 -0.0538  2.8998 -1.6386
38575SOL    HW221818   0.310   9.676   5.664 -2.6298 -0.2544  0.9719
38576SOL     OW21819   0.918   8.641   3.978 -0.1969 -0.4387  0.2364
38576SOL    HW121820   0.964   8.650   4.061 -0.8038  1.4065  0.4203
38576SOL    HW221821   0.958   8.707   3.921 -1.4342  0.0125 -0.1464
38577SOL     OW21822   0.046   3.796   9.113  0.1463 -0.3673  0.5372
38577SOL    HW121823   0.031   3.872   9.169 -0.9735  0.6426 -1.0757
38577SOL    HW221824  -0.001   3.725   9.156 -1.9082  0.7186  0.1796
38578SOL     OW21825   9.014   6.528   8.824 -0.0991 -0.0130 -0.4965
38578SOL    HW121826   9.014   6.622   8.810 -0.6141  0.1388  0.4080
38578SOL    HW221827   9.086   6.495   8.771  0.0590  0.8825 -0.8502
38579SOL     OW21828   3.545   0.496  10.209  0.3113  0.6897  0.0667
38579SOL    HW121829   3.489   0.472  10.282 -0.8932  0.5005 -0.8804
38579SOL    HW221830   3.535   0.591  10.201 -0.2876  0.5912 -0.4148
38580SOL     OW21831   9.061   1.409   1.673 -0.3490  0.2730 -0.0609
38580SOL    HW121832   9.150   1.431   1.643 -0.8221  0.0172 -1.7961
38580SOL    HW221833   9.010   1.487   1.652 -0.2348  1.2027  2.7132
38581SOL     OW21834   1.117   0.806   2.097  0.3921 -0.1257 -0.3707
38581SOL    HW121835   1.160   0.891   2.105 -0.6119  0.3175  0.6253
38581SOL    HW221836   1.102   0.794   2.003 -0.8248  1.5225 -0.4236
38582SOL     OW21837  10.349   4.690   7.939 -0.0401  0.1013 -0.2161
38582SOL    HW121838  10.398   4.680   8.021  0.6155  0.2496 -0.5821
38582SOL    HW221839  10.348   4.602   7.901  0.6098  0.2431 -0.5753
38583SOL     OW21840   2.966   7.794  10.384  0.0642 -0.4729  0.3094
38583SOL    HW121841   2.953   7.849  10.307 -0.8942  0.8501  1.3666
38583SOL    HW221842   3.045   7.743  10.365  1.1737  1.4927 -0.5910
38584SOL     OW21843   4.332   4.363  10.510  0.6258 -0.0413 -0.3726
38584SOL    HW121844   4.299   4.453  10.504 -0.4693 -0.2628  1.5002
38584SOL    HW221845   4.264   4.310  10.469  1.9602  0.0327 -2.8828
38585SOL     OW21846   6.902  10.614  10.049  0.9946  0.6068  0.4129
38585SOL    HW121847   6.945  10.533  10.078  1.2065  1.6319  3.1932
38585SOL    HW221848   6.973  10.665  10.010  1.4796  0.6262  1.2902
38586SOL     OW21849   1.162   5.583   0.431 -0.2675 -0.5030  0.6477
38586SOL    HW121850   1.174   5.582   0.336  1.5843 -0.4400  0.8382
38586SOL    HW221851   1.156   5.676   0.453  0.1117 -0.4838  0.6726
38587SOL     OW21852   7.975   7.759   3.881  0.9406  0.6655 -0.4731
38587SOL    HW121853   8.017   7.806   3.953 -0.1543  1.9985 -0.6837
38587SOL    HW221854   7.966   7.824   3.812  0.6910 -0.2387 -1.3127
38588SOL     OW21855   9.694   0.749   2.124  0.4239  0.0836  0.9519
38588SOL    HW121856   9.767   0.778   2.178 -0.2323 -1.1529  2.5825
38588SOL    HW221857   9.619   0.747   2.183 -0.5895 -0.1919 -0.2970
38589SOL     OW21858   4.404   4.069   1.697 -0.0151 -0.2025 -0.5170
38589SOL    HW121859   4.335   4.010   1.669  0.2406 -0.1773 -1.2282
38589SOL    HW221860   4.448   4.023   1.769 -1.0557 -0.0103  0.2575
38590SOL     OW21861   8.228   0.855   7.707 -0.0728 -0.0457 -0.5199
38590SOL    HW121862   8.177   0.831   7.784  0.7470 -0.2795 -0.0451
38590SOL    HW221863   8.192   0.800   7.637 -2.3901  1.7750 -0.9003
38591SOL     OW21864   7.418   7.998   5.821 -0.2227 -0.0583 -0.2653
38591SOL    HW121865   7.506   7.987   5.857 -0.7648 -0.6059  0.9355
38591SOL    HW221866   7.430   7.994   5.726  1.0288 -0.2363 -0.1104
38592SOL     OW21867   7.982  10.433   0.015 -0.2352 -0.7520 -0.2078
38592SOL    HW121868   7.989  10.338   0.006  1.1364 -0.7386  0.4598
38592SOL    HW221869   7.999  10.450   0.108 -0.7587  0.1215 -0.2566
38593SOL     OW21870   6.476   6.313  10.779 -0.0868  0.3705 -0.1292
38593SOL    HW121871   6.419   6.300  10.854 -0.6142  4.6813  0.4636
38593SOL    HW221872   6.519   6.229  10.767 -2.4256 -1.4565  2.8816
38594SOL     OW21873   9.263   0.209   3.750 -0.2531  0.7529  0.3776
38594SOL    HW121874   9.358   0.216   3.751 -0.2304  0.4407  0.2800
38594SOL    HW221875   9.239   0.199   3.842 -0.1782  0.6202  0.3816
38595SOL     OW21876  10.822   4.273   6.083 -0.4201  0.2291 -0.5151
38595SOL    HW121877  10.751   4.338   6.079 -0.9270  0.0675  2.9296
38595SOL    HW221878  10.902   4.326   6.093 -0.6461  0.4167  0.4896
38596SOL     OW21879  10.264   0.004   4.146 -0.2052 -0.5393  0.1933
38596SOL    HW121880  10.240   0.062   4.219  0.8807 -0.0318  0.1730
38596SOL    HW221881  10.254   0.059   4.068 -0.0251 -0.6435  0.0947
38597SOL     OW21882   5.496   1.432   3.345 -0.3095  0.9827  0.1821
38597SOL    HW121883   5.465   1.388   3.425 -0.2546  0.6630  0.0281
38597SOL    HW221884   5.434   1.504   3.333 -1.0098  0.3503 -0.1255
38598SOL     OW21885   7.879   5.539   9.925  0.0666  0.4376  0.1123
38598SOL    HW121886   7.901   5.472   9.860 -1.8440  1.1393 -1.3717
38598SOL    HW221887   7.922   5.618   9.895 -0.9002  0.7884 -0.3938
38599SOL     OW21888   9.663   9.901   2.779  0.2497  0.4359 -0.0144
38599SOL    HW121889   9.756   9.895   2.801  0.4029  4.2525  1.2007
38599SOL    HW221890   9.617   9.882   2.860  0.1305  1.0067  0.0588
38600SOL     OW21891   9.736   9.274   8.889  0.7130 -0.4386  0.1563
38600SOL    HW121892   9.791   9.307   8.817 -0.9059 -0.4533 -1.1362
38600SOL    HW221893   9.748   9.179   8.886  1.3586 -0.3784  0.5312
38601SOL     OW21894   3.678   4.481   0.384 -0.2515 -0.2790 -0.1509
38601SOL    HW121895   3.721   4.510   0.465  1.1595  0.0903 -0.9941
38601SOL    HW221896   3.713   4.540   0.317  0.1185 -1.8299 -1.3584
38602SOL     OW21897   8.827   4.938   9.081 -0.1593 -0.9881  0.3967
38602SOL    HW121898   8.739   4.967   9.104 -0.3932 -0.3854 -1.1752
38602SOL    HW221899   8.876   5.018   9.065  0.2048 -1.3432 -0.3518
38603SOL     OW21900  10.537   9.451   5.247 -0.0768 -0.5886  0.1857
38603SOL    HW121901  10.492   9.535   5.257  1.0050  0.0098  0.1810
38603SOL    HW221902  10.481   9.400   5.189  0.3136  0.9347 -1.6129
38604SOL     OW21903   9.241  10.129  10.224 -0.1164 -0.0662 -0.1085
38604SOL    HW121904   9.263  10.198  10.163  2.4563  0.6636  1.5211
38604SOL    HW221905   9.320  10.076  10.231 -0.8200 -0.9882  1.4816
38605SOL     OW21906   5.659   7.127   1.170  0.9459 -0.6280 -0.2793
38605SOL    HW121907   5.721   7.196   1.193 -3.0291  3.3226 -0.0409
38605SOL    HW221908   5.630   7.091   1.254 -1.0544  1.6195  0.0946
38606SOL     OW21909  10.149   8.577   9.433 -0.3267  0.3799 -0.5694
38606SOL    HW121910  10.147   8.575   9.529  1.7607 -0.5268 -0.4827
38606SOL    HW221911  10.153   8.671   9.411 -0.1220  0.5752  0.2664
38607SOL     OW21912   5.023  10.621   0.630 -0.3176 -0.4732 -0.5979
38607SOL    HW121913   5.082  10.547   0.619 -0.3438 -0.3760 -1.4581
38607SOL    HW221914   4.941  10.583   0.661  0.4336 -0.5162  1.5062
38608SOL     OW21915   4.104   4.796   6.199 -0.0637  0.4024  0.0267
38608SOL    HW121916   4.174   4.743   6.237 -0.4103 -1.3134 -1.6390
38608SOL    HW221917   4.150   4.869   6.157  0.5434  0.4888  0.8136
38609SOL     OW21918   7.669   1.764   7.716 -0.0772  0.4568 -0.1163
38609SOL    HW121919   7.607   1.693   7.733  0.4653 -0.3601 -1.3904
38609SOL    HW221920   7.627   1.818   7.649  0.1897  0.4235 -0.3132
38610SOL     OW21921  10.400   5.999   8.539 -0.7723 -0.2420  0.1505
38610SOL    HW121922  10.320   6.041   8.570  0.9041  0.5786  3.9218
38610SOL    HW221923  10.371   5.916   8.501 -3.4174  0.3089  0.7743
38611SOL     OW21924   2.938  10.402   3.707 -0.4072 -0.2004 -0.1064
38611SOL    HW121925   2.913  10.342   3.777 -0.5077  0.2617  0.2560
38611SOL    HW221926   2.859  10.452   3.688 -0.1264  0.3316  0.1070
38612SOL     OW21927   7.961  10.290   3.721 -0.2693  0.0514 -0.3047
38612SOL    HW121928   7.870  10.318   3.714 -0.0249  1.1140  0.4415
38612SOL    HW221929   7.957  10.201   3.755 -1.0420 -0.1849 -1.0004
38613SOL     OW21930   6.706   2.947   1.705  0.0156  0.0712  0.4693
38613SOL    HW121931   6.738   2.894   1.777 -0.0517 -0.3660  0.1781
38613SOL    HW221932   6.653   3.015   1.747  1.9408  1.3043  1.0517
38614SOL     OW21933   8.174   9.697   4.574 -0.1208 -0.2851  0.1202
38614SOL    HW121934   8.250   9.743   4.610 -0.7070  1.0401 -0.2906
38614SOL    HW221935   8.173   9.723   4.482 -1.7418  0.6543  0.3777
38615SOL     OW21936   4.247   5.887   4.752  0.4926  0.3243 -0.1134
38615SOL    HW121937   4.223   5.940   4.676  2.3226 -0.3912 -1.2712
38615SOL    HW221938   4.164   5.851   4.784 -0.2488 -0.3206 -2.5467
38616SOL     OW21939   2.573   7.344   4.389 -0.5986 -0.4507  0.0207
38616SOL    HW121940   2.640   7.338   4.458  0.3758  0.2545 -0.8411
38616SOL    HW221941   2.535   7.256   4.385  0.3388 -0.8861  0.4527
38617SOL     OW21942   5.437   9.354   0.081 -0.5282 -0.6178 -0.4231
38617SOL    HW121943   5.503   9.417   0.052 -1.6045 -0.1567 -2.0258
38617SOL    HW221944   5.388   9.333   0.001 -0.5257 -3.1463  0.1335
38618SOL     OW21945   8.467   9.843   8.376  0.1032 -0.1649 -0.0040
38618SOL    HW121946   8.390   9.890   8.408 -1.3455 -0.7687 -2.3881
38618SOL    HW221947   8.455   9.753   8.406  0.5336 -0.0136  0.6516
38619SOL     OW21948   6.753   7.979   2.341  0.3149  0.8102 -0.0095
38619SOL    HW121949   6.696   7.903   2.352  0.1895  1.0494  1.0460
38619SOL    HW221950   6.727   8.014   2.255  0.0082 -0.0183 -0.2755
38620SOL     OW21951   6.249  10.517   0.501  0.1244 -0.3769  0.0292
38620SOL    HW121952   6.184  10.478   0.442 -1.0701 -0.1717  1.1519
38620SOL    HW221953   6.249  10.460   0.578  0.7169  0.0556  0.3576
38621SOL     OW21954   9.197   9.862  10.642 -0.3398  0.3674  0.1831
38621SOL    HW121955   9.104   9.872  10.665 -0.2818 -1.1452  1.2287
38621SOL    HW221956   9.234   9.810  10.714  1.2750  0.7330 -0.3396
38622SOL     OW21957   6.370   7.930   9.299  0.3999  0.0879  0.1980
38622SOL    HW121958   6.454   7.954   9.258 -1.0155  1.5298 -2.1428
38622SOL    HW221959   6.328   8.015   9.318 -1.1173 -0.5724 -0.0520
38623SOL     OW21960  10.592   9.361   6.302  0.0857 -0.5191  0.0548
38623SOL    HW121961  10.532   9.308   6.249  1.5215 -0.7142 -1.4548
38623SOL    HW221962  10.666   9.379   6.244  0.9611  0.7116  1.4771
38624SOL     OW21963   6.108   1.285   6.351 -0.2986  0.3682 -0.5403
38624SOL    HW121964   6.107   1.205   6.298 -1.6856  0.5170 -0.7662
38624SOL    HW221965   6.016   1.305   6.366  0.0299  1.8911 -0.4241
38625SOL     OW21966   3.527   8.442   9.540 -0.4806  0.4230  0.7219
38625SOL    HW121967   3.530   8.494   9.459  1.7148  0.1781  0.5932
38625SOL    HW221968   3.462   8.487   9.594 -0.7601  1.5945 -0.5230
38626SOL     OW21969   5.362   4.371   9.487  0.2192 -0.0299  0.1360
38626SOL    HW121970   5.328   4.439   9.430 -2.3439 -1.2961 -0.0066
38626SOL    HW221971   5.450   4.400   9.510 -0.3820  2.7772 -0.7289
38627SOL     OW21972   9.812  10.416   6.575 -0.0385  0.6688 -0.0107
38627SOL    HW121973   9.880  10.464   6.622  0.1623  0.9558 -0.5870
38627SOL    HW221974   9.813  10.454   6.487 -0.1787 -0.0917 -0.3448
38628SOL     OW21975   5.692   0.564   6.182 -0.7456  0.1444  0.1103
38628SOL    HW121976   5.643   0.554   6.100  1.8374  2.3009 -1.9037
38628SOL    HW221977   5.693   0.658   6.198 -1.5924 -0.2333  3.0266
38629SOL     OW21978   8.388   8.472  10.533  0.1200  0.2072 -0.3749
38629SOL    HW121979   8.372   8.516  10.617  0.0794 -1.3866  0.4980
38629SOL    HW221980   8.308   8.487  10.483 -0.2802  0.3192  0.2757
38630SOL     OW21981   7.414   7.105  10.798 -0.1571 -0.0975 -0.1880
38630SOL    HW121982   7.429   7.172  10.732 -3.2048  2.2946  1.2697
38630SOL    HW221983   7.473   7.128  10.870  0.4399 -0.4078 -0.5713
38631SOL     OW21984  10.142   2.077   4.589  0.6221 -0.1902  0.7887
38631SOL    HW121985  10.124   2.019   4.515 -1.1675  0.4085  0.7064
38631SOL    HW221986  10.139   2.019   4.666  3.7271 -1.0544  0.3981
38632SOL     OW21987   1.982   1.690   8.277 -0.0057 -0.1165  0.2597
38632SOL    HW121988   2.004   1.742   8.200  0.0998 -1.0048 -0.3231
38632SOL    HW221989   2.013   1.602   8.257  0.6478 -0.2252  1.6085
38633SOL     OW21990   4.504   9.734   5.697  0.0333 -0.0667  0.0097
38633SOL    HW121991   4.412   9.761   5.698  0.4065  1.2469  0.1438
38633SOL    HW221992   4.529   9.730   5.789  0.2799  0.1958 -0.0442
38634SOL     OW21993   6.435   3.947   1.573 -0.0867  0.1256 -0.0130
38634SOL    HW121994   6.371   3.938   1.644  0.5408 -0.3133  0.4993
38634SOL    HW221995   6.511   3.988   1.615  0.4479 -0.5338 -0.3390
38635SOL     OW21996   4.794   8.243   8.235 -0.1917  0.3826  0.4587
38635SOL    HW121997   4.881   8.204   8.248 -0.1054  0.9695  1.8082
38635SOL    HW221998   4.780   8.296   8.313 -1.3460  1.1042 -0.2148
38636SOL     OW21999   0.837   3.658   2.915 -0.2478  0.2616 -0.2678
38636SOL    HW122000   0.919   3.674   2.963  0.9074 -0.7141 -1.7941
38636SOL    HW222001   0.836   3.563   2.900  0.3237  0.6249 -3.4872
38637SOL     OW22002   8.533   8.993   7.745  0.0527  0.0732  0.3166
38637SOL    HW122003   8.543   8.943   7.664  0.3211 -0.3677  0.6144
38637SOL    HW222004   8.449   9.038   7.735 -0.9079 -1.5639  0.6256
38638SOL     OW22005   7.341   8.195   1.640  0.2023 -0.0664  0.0087
38638SOL    HW122006   7.345   8.196   1.736 -0.5842 -0.4312  0.0546
38638SOL    HW222007   7.388   8.116   1.615 -0.9876 -0.8681  0.1950
38639SOL     OW22008   7.558   2.562   1.877 -0.0563 -0.0565  0.1063
38639SOL    HW122009   7.506   2.482   1.866 -0.6007  0.5721 -2.5230
38639SOL    HW222010   7.509   2.614   1.940 -0.7298 -0.9628  0.3602
38640SOL     OW22011   3.950   4.073   8.724  0.4656 -0.1803  0.3068
38640SOL    HW122012   3.872   4.060   8.671  0.2022  0.0113  0.6464
38640SOL    HW222013   4.015   4.108   8.663  0.4160 -0.7182 -0.0650
38641SOL     OW22014   0.762  10.075   8.047  0.1167 -0.1231  0.5050
38641SOL    HW122015   0.828  10.045   8.111  0.4674  2.1285  1.2672
38641SOL    HW222016   0.798  10.156   8.012 -1.5052  0.2734 -0.3065
38642SOL     OW22017   1.150   1.536   7.323 -0.0321  0.4617  0.0105
38642SOL    HW122018   1.242   1.559   7.335  0.1484 -0.5187  0.5930
38642SOL    HW222019   1.111   1.543   7.410 -0.3601  0.2709 -0.1174
38643SOL     OW22020   8.078   0.893   5.657 -0.4054 -0.2507 -0.0908
38643SOL    HW122021   8.096   0.799   5.660  0.2900 -0.1161  0.2228
38643SOL    HW222022   8.165   0.934   5.659 -0.6973  0.3940 -0.4400
38644SOL     OW22023  10.682   2.398   5.236 -0.7105  0.2138  0.0423
38644SOL    HW122024  10.631   2.476   5.216 -1.1964 -0.5473 -1.8956
38644SOL    HW222025  10.634   2.355   5.308 -3.0985 -0.6550 -1.9196
38645SOL     OW22026   0.166   4.712  10.224  0.1996  0.1840  0.5619
38645SOL    HW122027   0.203   4.643  10.169  1.1988 -0.7166  2.2827
38645SOL    HW222028   0.074   4.688  10.235 -0.1490  0.6610 -1.0828
38646SOL     OW22029   4.632   5.661   2.974  0.1995 -0.4034 -0.1713
38646SOL    HW122030   4.669   5.677   2.887 -0.5772 -1.5121 -0.7289
38646SOL    HW222031   4.537   5.660   2.960 -0.2137  2.9050  1.2966
38647SOL     OW22032   5.498   4.608   3.687  0.2163 -0.2322 -0.0924
38647SOL    HW122033   5.480   4.591   3.779  0.7258 -0.7535 -0.0825
38647SOL    HW222034   5.452   4.689   3.668  3.0791  1.9527  1.5928
38648SOL     OW22035   4.835   5.119   2.890 -0.2952  0.5387 -0.0760
38648SOL    HW122036   4.929   5.120   2.872 -0.1875  1.3217  0.4919
38648SOL    HW222037   4.797   5.173   2.820  0.0090  2.6583  1.2910
38649SOL     OW22038   8.209   8.017   2.599  1.2143 -0.2848  0.6334
38649SOL    HW122039   8.153   8.016   2.521 -1.8676 -1.7612  2.6266
38649SOL    HW222040   8.266   7.940   2.589  1.9642  0.4290 -0.8074
38650SOL     OW22041   9.895   4.441   0.523 -0.2341  0.0234 -0.0060
38650SOL    HW122042   9.807   4.415   0.551  0.7115 -1.9847  1.3124
38650SOL    HW222043   9.949   4.364   0.538  2.2431  1.8799  1.3657
38651SOL     OW22044   8.283   6.564  10.676 -0.0674  0.3434  0.0198
38651SOL    HW122045   8.190   6.583  10.662 -0.4027 -0.2670  1.2694
38651SOL    HW222046   8.301   6.597  10.764  0.2717 -1.6477  0.7577
38652SOL     OW22047   5.414  10.479   7.692  0.2202 -0.0389 -0.8638
38652SOL    HW122048   5.390  10.387   7.705  0.1754  0.2885  1.9571
38652SOL    HW222049   5.506  10.484   7.717  0.1460  0.7315 -0.7247
38653SOL     OW22050   4.596   8.318  10.231 -0.0214  0.1149 -0.3265
38653SOL    HW122051   4.570   8.362  10.313  0.9666 -0.3209  0.2441
38653SOL    HW222052   4.666   8.373  10.197  0.8986 -0.7295  0.1451
38654SOL     OW22053   3.948  10.359   4.794  0.3709  0.6553 -0.8996
38654SOL    HW122054   3.907  10.278   4.824  1.0341  0.9576  0.9325
38654SOL    HW222055   4.024  10.371   4.851  0.4055  2.4419 -1.2503
38655SOL     OW22056   1.911   8.961   5.724  0.7685 -0.0933 -0.0516
38655SOL    HW122057   1.975   9.031   5.712 -0.4569  1.0710 -0.0550
38655SOL    HW222058   1.827   9.001   5.702 -0.1963 -1.0857  1.5811
38656SOL     OW22059   3.557  10.343  10.601 -0.0908 -0.5647  0.3510
38656SOL    HW122060   3.635  10.338  10.657 -0.7508  0.0572  1.3352
38656SOL    HW222061   3.487  10.306  10.654 -0.4096 -1.5599 -0.7019
38657SOL     OW22062   9.620   6.911   9.407 -0.2102 -0.6422  0.1475
38657SOL    HW122063   9.626   6.997   9.365 -1.6310 -1.7295 -2.5877
38657SOL    HW222064   9.533   6.910   9.447  0.0407 -0.5946  0.6927
38658SOL     OW22065   2.800   4.820   2.568 -0.3081 -0.4226 -0.0930
38658SOL    HW122066   2.790   4.913   2.587 -0.2380 -0.2824 -0.7301
38658SOL    HW222067   2.711   4.790   2.550 -0.3269 -0.4697  0.0818
38659SOL     OW22068   2.960   4.533   8.475  0.2678 -0.5558 -0.0202
38659SOL    HW122069   3.043   4.548   8.519  0.2034  0.3312 -0.1924
38659SOL    HW222070   2.980   4.541   8.382  0.0529 -0.6874 -0.0799
38660SOL     OW22071   4.591   3.167   9.075 -0.0360  0.2784 -0.2633
38660SOL    HW122072   4.605   3.079   9.040  0.8768  0.0395  0.6724
38660SOL    HW222073   4.506   3.163   9.118 -1.0694  0.5063 -2.1642
38661SOL     OW22074   2.474   9.608   3.468 -0.4731  0.3836 -0.4152
38661SOL    HW122075   2.568   9.630   3.465 -0.1039 -0.8676  1.0025
38661SOL    HW222076   2.463   9.541   3.401 -0.0117 -0.5547  0.4168
38662SOL     OW22077   2.391   0.311  10.886 -0.0456 -0.5942 -0.1059
38662SOL    HW122078   2.392   0.406  10.882 -1.6926 -0.5880 -1.8286
38662SOL    HW222079   2.319   0.290  10.946  1.1679 -0.8041  1.3462
38663SOL     OW22080   2.522   2.807   1.473  0.0101  0.4351  0.2510
38663SOL    HW122081   2.515   2.718   1.439  0.3068 -0.0774  1.4777
38663SOL    HW222082   2.579   2.799   1.549  0.9287  1.8729 -0.2635
38664SOL     OW22083   4.569   2.359   5.924  0.5386 -0.0814  0.2815
38664SOL    HW122084   4.620   2.433   5.891 -2.3549  1.8342 -0.3158
38664SOL    HW222085   4.505   2.342   5.855  1.0252 -3.1388  0.4663
38665SOL     OW22086   1.921   6.685   1.082 -0.0560  0.5083  0.2716
38665SOL    HW122087   1.871   6.649   1.009 -0.9014  0.8432  0.6703
38665SOL    HW222088   1.919   6.617   1.149  1.6928 -0.2654 -0.4133
38666SOL     OW22089   0.961   5.123   6.545 -0.0313  0.7944 -0.1847
38666SOL    HW122090   1.000   5.204   6.576  0.8736 -0.4388  2.1929
38666SOL    HW222091   0.879   5.150   6.504  0.8215  2.9771 -0.5918
38667SOL     OW22092   8.931   6.363   4.483  0.2314  0.4901  0.4162
38667SOL    HW122093   8.927   6.366   4.388 -1.4765  1.6656  0.4788
38667SOL    HW222094   8.839   6.362   4.511  0.6926  0.7405  2.0645
38668SOL     OW22095   3.086   4.244   5.467 -0.1241 -0.0994 -0.3771
38668SOL    HW122096   3.123   4.262   5.554 -2.8915  2.5051  0.4265
38668SOL    HW222097   2.998   4.210   5.485 -0.8942  0.8679 -2.1275
38669SOL     OW22098   8.958   7.638   0.895  0.1977 -0.0479  0.1414
38669SOL    HW122099   9.009   7.641   0.814 -1.6863 -0.8440 -1.1491
38669SOL    HW222100   8.971   7.549   0.929  0.6235  0.1408  0.4841
38670SOL     OW22101   5.072   0.387   5.493 -0.4360  0.7027  0.0409
38670SOL    HW122102   5.028   0.305   5.518 -0.6102  0.5070 -0.8828
38670SOL    HW222103   5.003   0.440   5.452  0.0364  0.6450 -0.8515
38671SOL     OW22104   7.209   4.486   5.424  0.6784 -0.7171  0.3456
38671SOL    HW122105   7.171   4.507   5.339  2.0403 -1.0695 -0.3803
38671SOL    HW222106   7.185   4.559   5.481  0.1550 -0.2568 -0.4598
38672SOL     OW22107   7.249   1.650   2.465  0.0780  0.0668 -0.7842
38672SOL    HW122108   7.286   1.581   2.410  1.0161  0.4238 -0.6267
38672SOL    HW222109   7.282   1.732   2.427  1.3664  0.2891  0.7046
38673SOL     OW22110   2.671   0.358   1.911 -0.2737 -0.2067  0.3628
38673SOL    HW122111   2.654   0.423   1.842 -0.8637 -0.9968 -0.2484
38673SOL    HW222112   2.767   0.357   1.918 -0.2624  0.9346  0.5891
38674SOL     OW22113   5.818   4.426   7.296 -0.2406 -0.2307  0.0382
38674SOL    HW122114   5.896   4.480   7.283  0.1997 -0.7521  0.4659
38674SOL    HW222115   5.750   4.488   7.324  1.0159 -0.1819  3.5422
38675SOL     OW22116   7.642   7.625   3.233 -0.7318 -0.1173  0.5464
38675SOL    HW122117   7.633   7.563   3.161  1.3655  1.1003 -0.8752
38675SOL    HW222118   7.709   7.586   3.290  0.4442  0.6799 -0.2461
38676SOL     OW22119   0.803   0.019   7.946 -0.2900 -0.5082  0.3556
38676SOL    HW122120   0.742   0.081   7.906 -0.5198  0.2851  1.8661
38676SOL    HW222121   0.748  -0.043   7.994  0.0595  0.3328  1.8982
38677SOL     OW22122   5.817   7.426   3.296 -0.0196  0.0255 -0.1908
38677SOL    HW122123   5.850   7.482   3.366 -0.7704  0.1054  0.1128
38677SOL    HW222124   5.728   7.458   3.280  0.1437  0.0122 -1.1921
38678SOL     OW22125   8.210   4.011   1.561  0.0219 -0.0967 -0.3870
38678SOL    HW122126   8.241   4.067   1.490 -0.7630  0.9365  0.0582
38678SOL    HW222127   8.255   3.928   1.547 -1.1145 -0.3902 -2.9056
38679SOL     OW22128   6.851   0.569   1.143  0.7133 -0.3208 -0.8188
38679SOL    HW122129   6.839   0.476   1.165  0.5257 -0.4669 -1.5177
38679SOL    HW222130   6.898   0.568   1.060 -1.2319  0.1580 -1.9964
38680SOL     OW22131   5.626   1.006   8.285  0.9285  0.7552  0.7865
38680SOL    HW122132   5.647   0.966   8.201 -0.5171  0.3872  0.5689
38680SOL    HW222133   5.629   1.100   8.268  1.0377  0.6879  0.4246
38681SOL     OW22134   3.343   1.827   4.332 -0.7460  0.1842 -0.4104
38681SOL    HW122135   3.420   1.885   4.338 -0.2237 -0.5154 -0.2829
38681SOL    HW222136   3.307   1.826   4.421 -1.3071  1.0334 -0.6084
38682SOL     OW22137   4.093   2.300   8.613 -0.6398  0.4001 -0.0991
38682SOL    HW122138   4.174   2.292   8.563  0.2381  0.9262  1.1859
38682SOL    HW222139   4.059   2.210   8.618 -0.8983  0.3623 -1.8014
38683SOL     OW22140   9.154   6.233   9.815 -0.0257  0.6723  0.1920
38683SOL    HW122141   9.203   6.284   9.880 -1.9767  2.5181  0.3345
38683SOL    HW222142   9.124   6.298   9.752 -1.1372 -0.5848 -0.6140
38684SOL     OW22143   2.846   8.918   8.643 -0.7627 -0.0275 -0.0732
38684SOL    HW122144   2.914   8.855   8.668 -0.8083 -1.4316 -3.0012
38684SOL    HW222145   2.765   8.880   8.678 -0.4525 -0.0711  0.6194
38685SOL     OW22146   6.939  10.605   5.125  0.0934  0.5738  0.3857
38685SOL    HW122147   6.914  10.604   5.217  0.1078 -0.2359  0.3959
38685SOL    HW222148   7.020  10.656   5.122 -0.0020  0.7528  0.7981
38686SOL     OW22149   7.486   3.708  10.298 -0.0939 -0.3592 -0.4358
38686SOL    HW122150   7.475   3.778  10.233  0.6218 -0.7640 -1.0106
38686SOL    HW222151   7.471   3.627  10.250 -0.2263 -0.6385  0.0637
38687SOL     OW22152   8.354   2.066   2.008  0.0651  0.4992  0.4098
38687SOL    HW122153   8.419   2.084   2.076 -0.7124 -0.2103  1.3815
38687SOL    HW222154   8.270   2.076   2.052 -0.4598 -0.2566 -0.3732
38688SOL     OW22155  10.421  10.736   8.308  0.6787  0.4021  0.0407
38688SOL    HW122156  10.495  10.678   8.296  1.3741  1.6308 -2.3096
38688SOL    HW222157  10.346  10.686   8.276  0.9308  0.0743 -0.0425
38689SOL     OW22158   1.345   9.188   2.371 -0.5164 -0.6249 -0.2318
38689SOL    HW122159   1.353   9.096   2.393  0.8303 -0.3605  0.4866
38689SOL    HW222160   1.371   9.235   2.451  1.5903  0.3573 -1.3932
38690SOL     OW22161   9.839   5.525  10.056 -0.5158  0.0652  0.1342
38690SOL    HW122162   9.858   5.504   9.964 -3.4823  0.2522 -0.6238
38690SOL    HW222163   9.925   5.539  10.095  0.8551  0.2437 -2.6647
38691SOL     OW22164   6.873   0.441   3.435  0.1885 -0.3778 -0.6637
38691SOL    HW122165   6.855   0.369   3.495  1.8046 -1.1114 -0.9872
38691SOL    HW222166   6.795   0.447   3.380 -0.6367 -0.7791  0.4404
38692SOL     OW22167   5.579   5.742   1.701 -0.3023  0.1196 -0.3069
38692SOL    HW122168   5.670   5.766   1.684 -0.2787 -0.1358 -0.5460
38692SOL    HW222169   5.528   5.801   1.646 -0.2113 -0.9920 -1.6262
38693SOL     OW22170   4.665  10.068   5.692  0.3903  0.7782 -0.1472
38693SOL    HW122171   4.714   9.992   5.661  0.8759  1.5533 -1.3378
38693SOL    HW222172   4.635  10.043   5.780 -0.6624 -1.3385 -1.0400
38694SOL     OW22173   6.370   7.522   2.121 -0.3162  0.2239  0.0217
38694SOL    HW122174   6.324   7.575   2.186 -2.1654 -0.2066 -0.8668
38694SOL    HW222175   6.303   7.462   2.087  0.7357  0.0439 -1.8540
38695SOL     OW22176   5.890  10.430   1.076 -0.0643  0.4896  0.0722
38695SOL    HW122177   5.938  10.391   1.149  0.4140  0.5287 -0.2144
38695SOL    HW222178   5.907  10.524   1.083  0.8494  0.3996 -0.6848
38696SOL     OW22179   3.644   7.633   5.578 -0.3291  0.4548 -0.0568
38696SOL    HW122180   3.724   7.598   5.617  0.2487  1.9880  0.1677
38696SOL    HW222181   3.628   7.576   5.502 -0.4652 -1.4400  1.3177
38697SOL     OW22182   4.654   5.448   7.017 -0.4859  0.3365 -0.4828
38697SOL    HW122183   4.589   5.505   6.975  1.1803  1.7787 -1.2143
38697SOL    HW222184   4.640   5.462   7.111 -0.4422  1.5853 -0.6431
38698SOL     OW22185   0.729   2.196   3.731 -0.2573  0.2172 -0.0802
38698SOL    HW122186   0.735   2.110   3.688  0.9864  0.7710 -1.1058
38698SOL    HW222187   0.686   2.252   3.667  2.1782  1.2136 -0.9859
38699SOL     OW22188   9.729   1.091   2.147 -0.2858  0.4621  0.2431
38699SOL    HW122189   9.780   1.018   2.181 -0.4060 -0.1306 -0.7952
38699SOL    HW222190   9.668   1.051   2.085 -0.3830  1.4356 -0.3170
38700SOL     OW22191   9.020   8.096   5.555  0.2154 -0.2676 -0.4139
38700SOL    HW122192   9.109   8.130   5.551 -0.1940  1.1664  1.1700
38700SOL    HW222193   8.998   8.099   5.648 -1.2277 -1.2940 -0.7004
38701SOL     OW22194   2.123   0.758   8.959  0.4002  0.0126  0.2233
38701SOL    HW122195   2.137   0.729   9.049 -1.3866  0.2626  0.6258
38701SOL    HW222196   2.211   0.762   8.921  1.1134 -0.9752  1.6698
38702SOL     OW22197   5.916   1.616   3.411  0.0345  0.2832 -0.4256
38702SOL    HW122198   5.831   1.661   3.413 -0.1205 -0.0368  0.3427
38702SOL    HW222199   5.925   1.586   3.321 -0.9132 -0.1379 -0.3922
38703SOL     OW22200   7.508   0.957   6.645  0.0404 -0.0103  0.1265
38703SOL    HW122201   7.569   0.934   6.575 -0.7653  3.2169 -1.8683
38703SOL    HW222202   7.562   0.963   6.724  1.4913 -1.1979 -0.7404
38704SOL     OW22203   1.977   4.961   1.550  0.2375 -0.2185  0.2725
38704SOL    HW122204   1.918   5.003   1.612  0.8754 -1.6168  1.8895
38704SOL    HW222205   1.975   4.869   1.573  1.0755 -0.6774 -1.3226
38705SOL     OW22206   3.850   5.235   6.817  0.1788  0.0850 -0.5038
38705SOL    HW122207   3.864   5.266   6.728  1.7192  1.4562  0.1727
38705SOL    HW222208   3.795   5.302   6.858  0.5862  0.1411 -0.0403
38706SOL     OW22209   4.232   5.556   4.383  0.5411 -0.0234 -0.2944
38706SOL    HW122210   4.247   5.466   4.411  0.6856  0.0783 -0.0354
38706SOL    HW222211   4.241   5.608   4.463 -0.5328  0.1202 -0.2462
38707SOL     OW22212   0.337   8.701   8.451  0.4071  0.8263  0.5751
38707SOL    HW122213   0.281   8.625   8.465  1.5245 -0.1786 -0.2096
38707SOL    HW222214   0.297   8.770   8.504 -1.7849  0.2756 -0.2706
38708SOL     OW22215   1.921   1.608   3.829  0.0231 -0.1399 -0.3220
38708SOL    HW122216   1.837   1.622   3.786 -0.3130  0.9876  0.6713
38708SOL    HW222217   1.981   1.669   3.785 -0.1829  0.5869  0.3913
38709SOL     OW22218   0.823   9.945   4.008  0.6630  0.7253 -0.2716
38709SOL    HW122219   0.826   9.997   3.929 -0.5078 -0.5313 -1.1981
38709SOL    HW222220   0.729   9.932   4.025  0.9049  0.2893  0.8454
38710SOL     OW22221   3.067   6.116   2.125  0.0432  0.1658  0.6213
38710SOL    HW122222   3.044   6.057   2.053  1.8476  0.5780 -0.3578
38710SOL    HW222223   3.071   6.059   2.202 -2.7190 -0.1496  0.6440
38711SOL     OW22224   4.179   4.802   1.641  0.1921 -0.3180 -0.2865
38711SOL    HW122225   4.188   4.882   1.691  1.3330 -0.1037 -0.7954
38711SOL    HW222226   4.223   4.821   1.558  0.1798 -1.3521 -0.5432
38712SOL     OW22227   5.845   5.187   2.615  0.0403  0.2231 -0.3220
38712SOL    HW122228   5.912   5.174   2.549 -0.0629  2.5443 -0.9718
38712SOL    HW222229   5.774   5.231   2.568 -0.5124  0.8752  1.0743
38713SOL     OW22230   1.346   6.814   1.470 -0.1823 -0.0586  0.0539
38713SOL    HW122231   1.318   6.903   1.449  0.3065  0.6795  2.2046
38713SOL    HW222232   1.424   6.800   1.416  1.2421  1.8454  1.4199
38714SOL     OW22233   1.451   7.265   6.204 -0.2448 -0.0440 -0.0612
38714SOL    HW122234   1.513   7.204   6.243 -1.7663 -0.2399  2.2468
38714SOL    HW222235   1.470   7.349   6.247 -1.4566 -0.0925  0.6275
38715SOL     OW22236   1.791   6.873   7.330 -0.1875  0.2106  0.2192
38715SOL    HW122237   1.884   6.893   7.321 -0.1813  0.5631  1.0280
38715SOL    HW222238   1.747   6.951   7.295 -0.1749  0.3663  0.5490
38716SOL     OW22239   7.857   9.817  10.074  0.0731 -0.6256 -0.0806
38716SOL    HW122240   7.861   9.854  10.162  1.8794 -0.4042 -0.2125
38716SOL    HW222241   7.800   9.741  10.082 -0.4285 -0.1401  1.0999
38717SOL     OW22242   9.415  10.848   2.395 -0.4292  0.2187 -0.5377
38717SOL    HW122243   9.466  10.883   2.322 -0.4913 -0.7002 -1.0333
38717SOL    HW222244   9.377  10.767   2.361  0.1478 -0.6136  0.7325
38718SOL     OW22245   2.699   7.785   5.963 -0.3806  0.1089 -0.3400
38718SOL    HW122246   2.662   7.858   5.912  1.2801 -0.0052 -1.7928
38718SOL    HW222247   2.661   7.707   5.923  1.3527 -0.0128 -1.8863
38719SOL     OW22248   7.993   5.885   6.996 -0.7653 -0.1264  0.0617
38719SOL    HW122249   7.931   5.855   6.930 -0.6443 -2.6571  0.9891
38719SOL    HW222250   7.941   5.892   7.076 -0.8182  2.4841 -0.1172
38720SOL     OW22251   8.425   2.314   2.665  0.6007 -0.2240 -0.2847
38720SOL    HW122252   8.491   2.291   2.600  1.0707  0.5444 -0.0950
38720SOL    HW222253   8.438   2.251   2.736 -0.1092 -1.2572 -1.0305
38721SOL     OW22254   3.669  10.028   3.438  0.0373  0.7686 -0.3340
38721SOL    HW122255   3.710   9.948   3.405 -1.1761  0.0530 -0.1804
38721SOL    HW222256   3.743  10.084   3.463  0.9649  0.5309 -2.3091
38722SOL     OW22257   7.556   7.141   4.393  0.0698 -0.3457 -0.3653
38722SOL    HW122258   7.650   7.125   4.398 -0.0412 -0.8318  0.2719
38722SOL    HW222259   7.548   7.225   4.346  0.9661  1.0935  1.8929
38723SOL     OW22260   1.889   9.366  10.079 -0.4494  0.4268  0.2793
38723SOL    HW122261   1.880   9.315  10.159 -1.4133 -0.5288 -0.4263
38723SOL    HW222262   1.882   9.303  10.008 -2.4749  1.6007 -0.6476
38724SOL     OW22263   3.409   6.352   8.334  0.0801  0.2778 -0.0962
38724SOL    HW122264   3.373   6.440   8.340  0.2383  0.4966 -1.8224
38724SOL    HW222265   3.349   6.298   8.385 -0.7803  1.1772 -0.1263
38725SOL     OW22266   9.327   0.886   0.741 -0.6509  0.0361 -0.1144
38725SOL    HW122267   9.315   0.828   0.816  1.3849  0.3371  0.4894
38725SOL    HW222268   9.419   0.911   0.743 -1.0326  1.8113 -1.4532
38726SOL     OW22269   8.182   1.630   0.910  0.1545  0.0780  0.1134
38726SOL    HW122270   8.145   1.627   0.821  0.5825  0.5438 -0.0813
38726SOL    HW222271   8.230   1.712   0.914  0.4834 -0.1322  0.6477
38727SOL     OW22272   0.338   1.286   4.739  0.1467  0.0847 -0.0195
38727SOL    HW122273   0.323   1.202   4.696  1.3851  0.2432 -0.8412
38727SOL    HW222274   0.345   1.348   4.666 -0.1423  0.7894  0.5484
38728SOL     OW22275   4.831   4.295   1.211 -0.5337  0.0898 -0.2747
38728SOL    HW122276   4.760   4.348   1.176  0.1609  1.4246  0.2383
38728SOL    HW222277   4.911   4.339   1.182  0.0817 -0.7170  0.1283
38729SOL     OW22278   3.975  10.074   3.775  0.0412 -0.8240 -0.3077
38729SOL    HW122279   3.977  10.144   3.709  2.7319 -0.3614  0.1514
38729SOL    HW222280   3.922  10.111   3.846  2.7261  1.5627  0.6351
38730SOL     OW22281   3.262   2.165   4.785 -0.2183 -0.0018  0.0486
38730SOL    HW122282   3.283   2.178   4.693  1.0469  2.3898  0.6015
38730SOL    HW222283   3.173   2.130   4.785  0.2060 -1.2220 -2.0861
38731SOL     OW22284   5.761   2.272   5.440 -0.1629 -0.3151  0.1195
38731SOL    HW122285   5.797   2.193   5.400 -0.8628 -0.3905 -0.3955
38731SOL    HW222286   5.666   2.261   5.433 -0.2726  0.7910 -0.4315
38732SOL     OW22287  10.823   8.827   6.802  0.2060 -1.0360  0.2655
38732SOL    HW122288  10.911   8.794   6.789  0.3968 -1.4325  2.2379
38732SOL    HW222289  10.782   8.765   6.863 -0.3414  0.8224  1.9005
38733SOL     OW22290   1.578   8.286  10.546 -0.0461 -0.1391 -0.1832
38733SOL    HW122291   1.502   8.239  10.580 -1.0518  1.5083 -0.0537
38733SOL    HW222292   1.564   8.290  10.451 -1.3480  2.0836  0.0260
38734SOL     OW22293   2.352   3.172   7.605  0.4599 -0.1491  0.3699
38734SOL    HW122294   2.321   3.150   7.693  1.1885  3.2581  1.6145
38734SOL    HW222295   2.272   3.183   7.553 -0.0642 -0.2081  1.1535
38735SOL     OW22296   1.485   9.579   1.769  0.3037 -0.3050 -0.2064
38735SOL    HW122297   1.433   9.515   1.817  1.2008  0.2121  1.5573
38735SOL    HW222298   1.436   9.595   1.688 -0.7749 -1.9441  0.0826
38736SOL     OW22299   8.420   4.270   7.239  0.3209 -0.0235  0.3227
38736SOL    HW122300   8.504   4.245   7.278 -0.2709  0.3700  1.9238
38736SOL    HW222301   8.409   4.362   7.263  0.1943  0.4212 -1.3223
38737SOL     OW22302   5.103   5.787   7.808 -0.0589  0.4346 -0.2417
38737SOL    HW122303   5.012   5.760   7.811  0.5311 -1.5839  0.6245
38737SOL    HW222304   5.117   5.812   7.716 -1.5820  1.3204 -0.2751
38738SOL     OW22305   6.586   7.256   3.386 -0.7063  0.0521 -0.0944
38738SOL    HW122306   6.669   7.219   3.356 -2.1231 -1.5302 -2.3830
38738SOL    HW222307   6.604   7.349   3.397  1.0826 -0.0519 -1.6558
38739SOL     OW22308   7.552   0.904   3.596  0.6480 -0.0625  0.4786
38739SOL    HW122309   7.563   0.883   3.503 -1.8002 -0.9844  0.3296
38739SOL    HW222310   7.628   0.959   3.617  2.6544 -1.8835 -1.3897
38740SOL     OW22311   4.774   8.069   5.839 -0.5295  0.4886 -0.0602
38740SOL    HW122312   4.718   8.012   5.787  0.5396 -0.6298 -0.0413
38740SOL    HW222313   4.747   8.158   5.815 -0.1047  0.0261 -2.4910
38741SOL     OW22314   5.830   8.620   6.136 -0.3567 -0.1249 -0.3211
38741SOL    HW122315   5.825   8.529   6.107 -1.0154  0.3909 -1.9352
38741SOL    HW222316   5.796   8.671   6.062 -0.0402  1.4352  0.5601
38742SOL     OW22317   8.386   0.867   1.449 -0.2512  0.1611 -0.3049
38742SOL    HW122318   8.340   0.818   1.380 -0.4294  0.6792 -0.5630
38742SOL    HW222319   8.431   0.801   1.500 -0.8653 -0.3170 -0.3687
38743SOL     OW22320   5.474   8.500   3.256 -0.0359 -0.2095  0.2800
38743SOL    HW122321   5.451   8.505   3.163  2.6411 -1.6741 -0.5577
38743SOL    HW222322   5.569   8.491   3.257  0.4318  2.8313  3.3305
38744SOL     OW22323   8.413   6.408   6.975 -0.5190  0.2630  0.4308
38744SOL    HW122324   8.363   6.438   7.051  1.1678  0.7990  1.3921
38744SOL    HW222325   8.386   6.465   6.904 -1.6473  0.1827  0.7805
38745SOL     OW22326   4.542   4.964   4.491 -0.4098  0.0886  0.0795
38745SOL    HW122327   4.628   4.999   4.513  0.2674 -1.4383 -0.0316
38745SOL    HW222328   4.503   5.029   4.433  0.1870  1.3547  1.0642
38746SOL     OW22329   8.063   1.093   7.474 -0.2563  0.4850  0.5681
38746SOL    HW122330   8.140   1.135   7.513  0.1788  0.5196 -0.3038
38746SOL    HW222331   8.084   1.000   7.473  0.5150  0.6243 -1.1660
38747SOL     OW22332   5.153   1.159   5.284 -0.6735  0.3859  0.0410
38747SOL    HW122333   5.090   1.116   5.341 -2.1743  1.6012 -0.6424
38747SOL    HW222334   5.133   1.253   5.291 -1.7307  0.5499 -3.2826
38748SOL     OW22335   6.787   9.991   0.529  0.3081 -0.0044 -0.3383
38748SOL    HW122336   6.696   9.989   0.500  0.3305 -0.7423 -0.3831
38748SOL    HW222337   6.782   9.982   0.625  0.3305  0.0918 -0.3278
38749SOL     OW22338   5.672   5.807   0.084 -0.2711 -0.5459 -0.1350
38749SOL    HW122339   5.646   5.889   0.127  0.2533 -0.0914 -0.6774
38749SOL    HW222340   5.622   5.739   0.130  0.6613 -0.1421  1.5517
38750SOL     OW22341   5.945   4.903   9.269 -0.0073 -0.1123 -0.1634
38750SOL    HW122342   5.980   4.957   9.339  1.2924 -0.3389 -0.6122
38750SOL    HW222343   5.930   4.964   9.197 -1.3204  0.1161  0.2808
38751SOL     OW22344  10.073   4.009   1.753  0.4619 -0.3800 -0.3988
38751SOL    HW122345  10.121   4.084   1.719  2.1767 -0.0342  2.4307
38751SOL    HW222346   9.984   4.019   1.720  1.1603  1.6965 -1.8078
38752SOL     OW22347   7.171   7.944   2.950 -0.3417 -0.5764  0.1406
38752SOL    HW122348   7.219   7.862   2.942  1.0187 -0.0418  2.0458
38752SOL    HW222349   7.235   8.005   2.987 -1.6214  1.0645 -0.2154
38753SOL     OW22350   8.384   3.524   7.103  0.0015 -0.1554  0.0291
38753SOL    HW122351   8.380   3.574   7.022  0.7575  1.7795  1.1364
38753SOL    HW222352   8.298   3.538   7.144  0.4809  0.8583  0.6923
38754SOL     OW22353   4.916   3.374  10.382  0.1169  0.4094 -0.1760
38754SOL    HW122354   4.997   3.324  10.367  0.0108  0.1111  0.2083
38754SOL    HW222355   4.847   3.307  10.382  0.0168  0.4965  0.7285
38755SOL     OW22356   9.922   5.313   3.362  0.1734 -0.0409 -0.4462
38755SOL    HW122357   9.889   5.262   3.288  0.9415  0.3832 -1.0949
38755SOL    HW222358   9.843   5.334   3.412 -0.2857 -0.9026 -0.7692
38756SOL     OW22359   9.811  10.673   8.537 -0.0832 -0.3527 -0.1250
38756SOL    HW122360   9.906  10.670   8.528 -0.2612  0.2983 -3.1453
38756SOL    HW222361   9.779  10.707   8.453 -3.0470 -1.4249  0.4309
38757SOL     OW22362   8.009   2.170   3.827 -0.1815 -0.4194 -0.3091
38757SOL    HW122363   8.102   2.149   3.841  0.0572  0.6406 -0.1884
38757SOL    HW222364   7.964   2.086   3.836  0.6083 -0.7435  1.0706
38758SOL     OW22365  10.900   8.974   5.557  0.4137 -0.1694 -0.3523
38758SOL    HW122366  10.865   8.912   5.493 -0.7108  0.6157 -0.5323
38758SOL    HW222367  10.838   9.046   5.557  1.0398  0.4046  0.7531
38759SOL     OW22368  10.738   8.203   7.484 -0.3293  0.5313  0.6763
38759SOL    HW122369  10.728   8.127   7.427 -1.7859  0.7893  0.5540
38759SOL    HW222370  10.833   8.214   7.492 -0.0040  0.9950 -2.3882
38760SOL     OW22371   6.716   8.593   8.270 -0.2645  0.9638  0.7498
38760SOL    HW122372   6.790   8.540   8.301  1.2382  1.7095 -1.2584
38760SOL    HW222373   6.639   8.538   8.283  1.0823 -1.2686 -0.1848
38761SOL     OW22374   7.323   0.162   8.127  0.5872  0.4161 -0.1630
38761SOL    HW122375   7.345   0.250   8.157 -0.5770  0.5398  0.3920
38761SOL    HW222376   7.270   0.125   8.198  0.1700 -0.3399 -0.8468
38762SOL     OW22377   1.075  10.170   9.987 -0.2031  0.7311  0.0317
38762SOL    HW122378   1.014  10.244   9.991  0.2211  1.1313 -0.6683
38762SOL    HW222379   1.020  10.095   9.962 -0.7000  0.7155  1.1188
38763SOL     OW22380   4.287   6.575   0.518 -0.1052  0.3540  0.1665
38763SOL    HW122381   4.249   6.663   0.519  0.2370  0.5013  0.4945
38763SOL    HW222382   4.382   6.590   0.521 -0.0301 -0.0178 -0.2049
38764SOL     OW22383   4.017   1.996   6.383 -0.5287  0.3272 -0.2363
38764SOL    HW122384   4.101   1.956   6.359 -0.1943  0.7939  0.1422
38764SOL    HW222385   4.002   2.063   6.317 -0.7396  0.0661 -0.4571
38765SOL     OW22386  10.719   0.255   3.154 -0.0284  0.4676  0.4642
38765SOL    HW122387  10.773   0.229   3.080 -1.1115  1.0332 -0.5642
38765SOL    HW222388  10.751   0.202   3.227  2.7368  1.6977  0.2525
38766SOL     OW22389   3.736   5.269   3.904  0.0420  0.2830  0.2243
38766SOL    HW122390   3.668   5.323   3.863 -1.2920 -1.9357 -0.6627
38766SOL    HW222391   3.732   5.293   3.997 -2.4885 -0.2420  0.3298
38767SOL     OW22392   8.713   0.559   9.247 -0.3951  0.4068 -0.0415
38767SOL    HW122393   8.651   0.546   9.175 -0.5830 -0.1664  0.2191
38767SOL    HW222394   8.740   0.650   9.239 -1.6947  0.8342  0.1619
38768SOL     OW22395   3.550   9.434   8.335  0.7212 -0.4435  0.2595
38768SOL    HW122396   3.559   9.491   8.411  0.6217  0.8172 -0.6465
38768SOL    HW222397   3.607   9.359   8.354  2.1349  0.7253  0.7682
38769SOL     OW22398   7.091   4.502   5.174  0.7584  0.1748 -0.4273
38769SOL    HW122399   6.997   4.485   5.186  0.7218  1.0149  0.6150
38769SOL    HW222400   7.097   4.545   5.088  0.4612 -1.7430 -1.4705
38770SOL     OW22401   5.449   6.911   9.972  0.2012 -0.0708  0.5515
38770SOL    HW122402   5.534   6.868   9.980  0.2423  0.1171  1.2076
38770SOL    HW222403   5.467   6.993   9.925 -0.0823 -1.3335 -1.9025
38771SOL     OW22404   4.162   1.731   7.816  0.5057 -0.0392 -0.1563
38771SOL    HW122405   4.103   1.803   7.840  0.4058 -0.5396  1.1858
38771SOL    HW222406   4.119   1.689   7.741 -0.2359  0.3197  0.0534
38772SOL     OW22407   3.746   9.652   0.954 -0.2278  0.2457 -0.2706
38772SOL    HW122408   3.761   9.581   1.016 -0.5570 -1.0159 -1.5872
38772SOL    HW222409   3.662   9.690   0.980  0.6927  1.2468  1.4174
38773SOL     OW22410   0.688   4.064   0.787  0.2016 -0.5927 -0.3002
38773SOL    HW122411   0.647   4.147   0.764  0.9100 -0.2583 -0.3551
38773SOL    HW222412   0.667   4.006   0.713 -2.8238 -1.4005  1.0087
38774SOL     OW22413   0.332   0.288   1.176 -0.0845 -0.0553  0.0308
38774SOL    HW122414   0.398   0.235   1.131  0.7970 -1.0622  2.3632
38774SOL    HW222415   0.261   0.227   1.196 -0.0750  0.1570  0.7364
38775SOL     OW22416   7.932   6.896   1.633  0.0262 -0.2278  0.0081
38775SOL    HW122417   7.883   6.816   1.653  0.3302 -0.6296 -0.8321
38775SOL    HW222418   8.021   6.878   1.664 -0.1420  0.1774  0.7483
38776SOL     OW22419   3.212   1.340   6.715 -0.7124 -0.1705  0.2959
38776SOL    HW122420   3.135   1.285   6.700 -0.7008  0.1637 -1.1587
38776SOL    HW222421   3.179   1.415   6.764 -1.3516  0.0055 -0.3827
38777SOL     OW22422   6.380   9.786   4.380 -0.4801 -0.1143  0.3304
38777SOL    HW122423   6.299   9.771   4.332 -1.3523  2.4201  0.8329
38777SOL    HW222424   6.374   9.878   4.408  2.3211 -0.0243  0.8667
38778SOL     OW22425   7.203   0.258   5.719 -0.0110  0.8188  0.1352
38778SOL    HW122426   7.157   0.297   5.793 -0.9178  0.9274 -0.4658
38778SOL    HW222427   7.205   0.164   5.739 -1.0723  0.7273 -0.1136
38779SOL     OW22428  10.754   9.513   4.208  0.7531  0.1706  0.2940
38779SOL    HW122429  10.831   9.568   4.200  0.7265  0.3258  1.0093
38779SOL    HW222430  10.788   9.426   4.231  0.8042 -0.1685 -0.9694
38780SOL     OW22431   0.260   7.470   5.792 -0.4741  0.3615 -0.2407
38780SOL    HW122432   0.219   7.389   5.762 -0.5255  0.4472 -0.4047
38780SOL    HW222433   0.328   7.487   5.727  0.1543 -0.0474  0.3000
38781SOL     OW22434   7.268   5.815   8.818 -0.4850  0.3149 -0.1220
38781SOL    HW122435   7.190   5.780   8.862 -0.1185 -0.2134  0.1191
38781SOL    HW222436   7.233   5.878   8.755 -1.0872  0.3216  0.2053
38782SOL     OW22437   6.941   0.112   2.697 -0.2985  0.5521 -0.3310
38782SOL    HW122438   6.982   0.197   2.710 -0.1239  0.1684  2.0595
38782SOL    HW222439   7.011   0.049   2.709 -0.6824  0.0351 -0.7738
38783SOL     OW22440   5.041   3.780   2.325 -0.0051 -0.0884  0.7754
38783SOL    HW122441   5.046   3.684   2.329  1.7046 -0.0442  0.4729
38783SOL    HW222442   5.052   3.809   2.415 -2.8657 -0.1885  1.2465
38784SOL     OW22443   3.566   9.789   8.106  0.0001  0.0825 -0.2078
38784SOL    HW122444   3.613   9.712   8.074 -0.9932  0.1622 -1.9633
38784SOL    HW222445   3.601   9.803   8.195 -0.5578 -3.0050  0.6076
38785SOL     OW22446   5.829   2.024   5.339 -0.4887  0.5054  0.2214
38785SOL    HW122447   5.898   2.071   5.292  0.5142 -0.9751  0.1279
38785SOL    HW222448   5.796   1.960   5.275 -1.1969  0.4707  0.6135
38786SOL     OW22449   9.790  10.432   2.295 -0.1128  0.3650  0.3085
38786SOL    HW122450   9.813  10.403   2.207 -0.6103  2.0465 -0.4165
38786SOL    HW222451   9.765  10.352   2.341 -0.4778 -0.4650 -1.2724
38787SOL     OW22452   2.702  10.013   9.010 -0.2951  0.7212 -0.5859
38787SOL    HW122453   2.621  10.035   8.964 -0.2349  2.4134  0.0687
38787SOL    HW222454   2.771  10.058   8.960  0.3312 -0.9942 -1.3517
38788SOL     OW22455   2.085   0.536   5.413  0.3041  0.8044 -0.1145
38788SOL    HW122456   2.082   0.631   5.412 -0.0677  0.8367 -2.8345
38788SOL    HW222457   1.993   0.509   5.418  0.4450  0.4762  2.2393
38789SOL     OW22458   1.172   4.497   8.858 -0.3426  0.1227  0.6202
38789SOL    HW122459   1.115   4.529   8.928  1.1649  0.1480  1.8990
38789SOL    HW222460   1.215   4.420   8.896 -0.7972 -0.9273 -0.9201
38790SOL     OW22461  10.810   1.764   3.604  0.4995  0.3184 -0.3964
38790SOL    HW122462  10.798   1.739   3.696 -0.6379 -1.1517 -0.9105
38790SOL    HW222463  10.857   1.690   3.565 -0.7052  0.0530 -1.4023
38791SOL     OW22464   3.302   2.861   8.953  0.5312 -0.7468 -0.0322
38791SOL    HW122465   3.384   2.814   8.935  1.8946  1.0006  1.1856
38791SOL    HW222466   3.299   2.930   8.886  0.0930 -0.7804 -0.0456
38792SOL     OW22467   8.069   7.851   0.649  0.1246  0.1685 -0.3415
38792SOL    HW122468   8.061   7.838   0.555  1.1840  2.4569 -0.8157
38792SOL    HW222469   8.145   7.798   0.674  1.0061  1.0021 -1.1646
38793SOL     OW22470   6.855   9.705   8.318 -0.6845  0.1748 -0.3980
38793SOL    HW122471   6.773   9.673   8.282 -0.2972 -0.0145 -1.1315
38793SOL    HW222472   6.829   9.770   8.384 -1.4839 -1.6978  1.2125
38794SOL     OW22473  10.172   0.054   6.630 -0.3476  0.8241 -0.4591
38794SOL    HW122474  10.203  -0.013   6.570  1.7457 -0.3982  1.8375
38794SOL    HW222475  10.245   0.116   6.638 -1.5709  2.4414 -1.1181
38795SOL     OW22476   4.701   6.845   8.747  0.6138 -0.4794 -0.1031
38795SOL    HW122477   4.765   6.917   8.740 -0.3256  0.4101  0.2497
38795SOL    HW222478   4.744   6.771   8.705  1.3016  0.4910 -1.1538
38796SOL     OW22479   3.809   1.045   4.654 -0.0119  0.4863 -0.0279
38796SOL    HW122480   3.816   0.958   4.615 -1.0488  0.5039 -0.2717
38796SOL    HW222481   3.727   1.081   4.620 -1.2911  0.2827  2.5524
38797SOL     OW22482   6.415   9.959   5.119 -0.4096 -0.2173  0.3390
38797SOL    HW122483   6.435  10.053   5.120 -1.0272 -0.0677  1.9678
38797SOL    HW222484   6.380   9.943   5.032  2.7589  0.3579 -1.1935
38798SOL     OW22485   2.903   8.355   6.191  0.0458 -0.9855  0.5462
38798SOL    HW122486   2.955   8.342   6.112 -0.4221 -2.6849  0.4601
38798SOL    HW222487   2.823   8.397   6.160 -0.4877 -2.3690 -0.0697
38799SOL     OW22488   4.969   0.721   0.541 -0.1182  0.0696  0.3110
38799SOL    HW122489   4.955   0.704   0.634  1.6154  1.3980  0.8630
38799SOL    HW222490   5.064   0.734   0.533 -0.4159  1.6486 -1.3219
38800SOL     OW22491   3.866   3.325   3.660 -0.3824 -0.1727 -0.1296
38800SOL    HW122492   3.830   3.276   3.734 -2.1300  0.4295 -0.5266
38800SOL    HW222493   3.813   3.297   3.585 -0.2323  1.0010 -0.6893
38801SOL     OW22494   5.359  10.579   6.880  0.1798 -0.1964  0.2218
38801SOL    HW122495   5.415  10.644   6.922 -0.2458  0.2392  0.1221
38801SOL    HW222496   5.315  10.536   6.953 -0.9209  0.8880  0.2217
38802SOL     OW22497   3.365   3.554   1.942  0.6232  0.0087 -0.0307
38802SOL    HW122498   3.392   3.632   1.892 -1.8545 -0.7698 -2.9028
38802SOL    HW222499   3.417   3.483   1.905 -0.7921 -0.4729 -1.1982
38803SOL     OW22500   9.628   0.312   7.545  0.4901 -0.3976  0.0398
38803SOL    HW122501   9.697   0.378   7.544 -0.4418  0.6139 -0.3819
38803SOL    HW222502   9.628   0.276   7.456 -0.1239  0.2836 -0.2509
38804SOL     OW22503   4.676   0.869   4.561  0.1052  0.7094  0.1165
38804SOL    HW122504   4.707   0.950   4.602  3.0406  0.1487 -0.8102
38804SOL    HW222505   4.744   0.846   4.498 -0.6358 -2.4719  0.3070
38805SOL     OW22506   4.403   5.390   9.792  0.2430  0.2752 -0.0634
38805SOL    HW122507   4.482   5.347   9.760  0.4334  1.0256 -0.6345
38805SOL    HW222508   4.354   5.412   9.712 -1.3801 -1.6634  0.2898
38806SOL     OW22509   0.129   3.169   9.179 -0.1808 -0.5561  0.5875
38806SOL    HW122510   0.120   3.085   9.133 -1.1353 -1.4082  2.2240
38806SOL    HW222511   0.191   3.151   9.250 -0.4970  0.0978  1.0386
38807SOL     OW22512   0.407  10.190   2.166 -0.4149  0.4941 -0.4723
38807SOL    HW122513   0.334  10.252   2.174 -1.2275 -0.4015 -0.7178
38807SOL    HW222514   0.371  10.118   2.114  0.5429 -0.1353 -0.2842
38808SOL     OW22515   9.228   1.131   6.444 -0.5792  0.3351 -0.3376
38808SOL    HW122516   9.201   1.112   6.534 -0.9575 -0.4904 -0.6151
38808SOL    HW222517   9.304   1.188   6.453 -1.9999  2.2274  0.4945
38809SOL     OW22518   8.536   5.805   9.578  0.2942  0.3079 -0.1986
38809SOL    HW122519   8.607   5.867   9.568 -0.0359  0.7661  0.2313
38809SOL    HW222520   8.506   5.817   9.668 -0.2117  0.0021 -0.3204
38810SOL     OW22521  10.789  10.502   3.754  0.2009  0.6509 -0.3891
38810SOL    HW122522  10.787  10.598   3.757  2.9215  0.8543 -1.9190
38810SOL    HW222523  10.812  10.481   3.664  1.7019 -1.3603  0.3912
38811SOL     OW22524   8.949   4.175   8.093 -0.3264 -0.2323 -0.3200
38811SOL    HW122525   8.968   4.165   8.187  0.1785 -0.5320 -0.4492
38811SOL    HW222526   9.034   4.187   8.052 -0.3980 -1.5208 -0.9053
38812SOL     OW22527   3.711   6.134   3.053  0.3949  0.0625 -0.0082
38812SOL    HW122528   3.722   6.040   3.042  0.8161  0.0246  0.6595
38812SOL    HW222529   3.739   6.171   2.969  2.1372 -0.2985  0.3640
38813SOL     OW22530   5.464   6.220   3.211 -0.3892  0.3016 -0.4466
38813SOL    HW122531   5.385   6.252   3.255  0.6973  1.4155  0.7894
38813SOL    HW222532   5.431   6.169   3.137 -2.2788 -0.5353  0.8893
38814SOL     OW22533   5.616   3.899   8.794  0.4657 -0.3419  0.2362
38814SOL    HW122534   5.539   3.912   8.738 -0.8583 -0.0407  2.0306
38814SOL    HW222535   5.681   3.960   8.760  0.1900 -1.0814 -1.7515
38815SOL     OW22536   2.860   9.443   2.135  0.9217  0.1673 -0.0452
38815SOL    HW122537   2.889   9.535   2.139  0.5424  0.2441  1.3560
38815SOL    HW222538   2.941   9.393   2.128  1.5199  0.4034  3.4154
38816SOL     OW22539   2.087   6.252   3.027  0.7107 -0.0550 -0.8921
38816SOL    HW122540   2.078   6.345   3.046  0.1081 -0.4994  1.3286
38816SOL    HW222541   2.155   6.222   3.087 -0.2504 -1.3237 -0.3913
38817SOL     OW22542   5.011   0.091   5.220 -0.4173  0.1140 -0.5358
38817SOL    HW122543   4.927   0.100   5.177  0.0439  1.0798 -1.2730
38817SOL    HW222544   5.052   0.015   5.178 -1.8425 -1.8807  1.4699
38818SOL     OW22545   3.889  10.653   2.814 -0.4447  0.2221 -0.0115
38818SOL    HW122546   3.815  10.593   2.799 -1.0380  0.6084  1.2410
38818SOL    HW222547   3.953  10.629   2.747 -1.6539 -0.2087 -1.0458
38819SOL     OW22548  10.251   7.610   4.472  0.6271  0.3203  0.4369
38819SOL    HW122549  10.273   7.517   4.466  2.5122  0.7605 -0.4503
38819SOL    HW222550  10.156   7.613   4.464  0.6337 -1.4328 -1.1652
38820SOL     OW22551   0.576   4.361   0.086 -0.1677  0.1063  0.0363
38820SOL    HW122552   0.599   4.434   0.145 -0.0375 -0.2060  0.3753
38820SOL    HW222553   0.517   4.307   0.138 -1.2840  0.6241 -0.6431
38821SOL     OW22554   4.308   0.394   6.140 -0.3299  0.0490  0.2822
38821SOL    HW122555   4.271   0.440   6.064 -1.9585 -1.6319 -0.0168
38821SOL    HW222556   4.255   0.425   6.214 -0.3057 -0.0918  0.3577
38822SOL     OW22557   7.243   4.157   2.387 -0.1462 -0.4635  0.4779
38822SOL    HW122558   7.304   4.225   2.415 -3.2232  2.1619  1.3721
38822SOL    HW222559   7.226   4.105   2.466 -1.9126  1.2726  1.3257
38823SOL     OW22560   0.278   8.214   6.566 -0.5416  0.3675  0.5191
38823SOL    HW122561   0.345   8.147   6.579  0.8518  1.7873  1.1081
38823SOL    HW222562   0.197   8.166   6.553  0.0831 -1.4223  2.5964
38824SOL     OW22563   7.255   7.535   1.108  0.0270  0.1860  0.1330
38824SOL    HW122564   7.182   7.477   1.090 -0.0749  0.2891  0.2100
38824SOL    HW222565   7.258   7.542   1.204  0.3192 -0.0475  0.1428
38825SOL     OW22566   4.661   5.812  10.857  0.7426 -0.1545  0.9935
38825SOL    HW122567   4.634   5.729  10.896 -0.1709 -0.2656  0.1536
38825SOL    HW222568   4.710   5.787  10.779 -2.9823 -0.0295 -1.6656
38826SOL     OW22569  10.221   1.213  10.417 -0.2272  0.0473 -0.1805
38826SOL    HW122570  10.216   1.139  10.478 -0.8240 -3.0855 -3.7005
38826SOL    HW222571  10.315   1.229  10.407 -0.1124  0.4440  1.2202
38827SOL     OW22572   1.330   8.856   4.923  0.4139  0.0231 -0.2157
38827SOL    HW122573   1.313   8.771   4.964  1.3406 -0.2722 -0.4241
38827SOL    HW222574   1.407   8.890   4.969  0.0238  0.7684 -0.1070
38828SOL     OW22575   0.765   1.292   1.082  0.1165  0.0758  0.3206
38828SOL    HW122576   0.769   1.200   1.111 -0.4476 -1.3221 -3.4585
38828SOL    HW222577   0.838   1.301   1.021  0.2888  2.2816  0.7660
38829SOL     OW22578   9.511  10.145  10.460  0.0878 -0.0361  0.2242
38829SOL    HW122579   9.485  10.091  10.385 -0.2097  0.3958  0.0137
38829SOL    HW222580   9.599  10.115  10.481 -0.3805 -1.1758  0.6316
38830SOL     OW22581   9.499  10.674   0.489 -0.9520  0.1243 -0.7591
38830SOL    HW122582   9.567  10.615   0.457 -0.3421  0.4920 -0.1611
38830SOL    HW222583   9.417  10.628   0.469 -0.5055 -0.7243 -0.7108
38831SOL     OW22584   4.050   7.110   7.379  0.1774 -0.0175 -0.8651
38831SOL    HW122585   4.013   7.187   7.336  0.4749  0.6909  0.1155
38831SOL    HW222586   4.145   7.118   7.365  0.2909  0.3054  0.0324
38832SOL     OW22587   7.195   4.380   1.194  0.8189 -0.6843  0.0079
38832SOL    HW122588   7.243   4.438   1.252  0.0127  1.5292 -1.4314
38832SOL    HW222589   7.170   4.306   1.249 -0.3246  1.4973  2.6288
38833SOL     OW22590  10.855   9.636   8.073 -0.4459  0.2998 -0.0624
38833SOL    HW122591  10.859   9.613   8.166 -1.1795  0.3251 -0.0162
38833SOL    HW222592  10.785   9.581   8.039  0.2774 -0.2117 -0.7585
38834SOL     OW22593   2.225   9.660   2.911  0.2808  0.4969  0.3943
38834SOL    HW122594   2.171   9.718   2.858  0.3594 -0.5774 -0.9266
38834SOL    HW222595   2.315   9.691   2.898  0.3711 -0.1768 -0.6865
38835SOL     OW22596   0.578   2.178   1.631  0.4472 -0.8662 -0.2260
38835SOL    HW122597   0.654   2.170   1.573  0.0214  0.7290 -1.0877
38835SOL    HW222598   0.504   2.189   1.571 -0.0568  0.4447  0.5970
38836SOL     OW22599   9.393   4.824   4.954  0.1979 -0.0947 -0.6971
38836SOL    HW122600   9.469   4.857   4.907  0.8733 -1.2835 -0.4730
38836SOL    HW222601   9.330   4.897   4.953  2.1593  1.7591  1.0811
38837SOL     OW22602   6.966   9.776   6.081  0.1556 -0.1495  0.1284
38837SOL    HW122603   6.880   9.792   6.120  0.1651  0.8070 -0.2197
38837SOL    HW222604   6.957   9.806   5.991  0.6245 -0.8065 -0.1456
38838SOL     OW22605   7.399   0.162   0.340  0.6028  0.1704  0.4759
38838SOL    HW122606   7.449   0.102   0.396  0.0854 -0.8939 -0.1731
38838SOL    HW222607   7.310   0.158   0.374  0.2990 -0.4287 -0.3608
38839SOL     OW22608   8.365   2.564   2.270 -0.0922 -0.6034 -0.7528
38839SOL    HW122609   8.425   2.604   2.206  0.0101  0.8648  0.2190
38839SOL    HW222610   8.283   2.613   2.260 -0.3426 -0.9415 -0.3677
38840SOL     OW22611   6.915   3.515   2.612  0.3765  0.1336 -0.4397
38840SOL    HW122612   6.902   3.432   2.567  1.8947  0.8565 -2.3257
38840SOL    HW222613   6.978   3.495   2.682  1.1855 -0.2099 -1.2500
38841SOL     OW22614   0.846   9.401   3.629 -0.7973  0.4306 -0.0895
38841SOL    HW122615   0.874   9.336   3.693 -1.2153  0.0388 -0.2990
38841SOL    HW222616   0.760   9.370   3.599 -0.8342  0.8801 -0.4611
38842SOL     OW22617   2.394   2.790   6.586 -0.2937  0.5497  0.2545
38842SOL    HW122618   2.475   2.772   6.539  0.0859  2.0401  0.2833
38842SOL    HW222619   2.329   2.803   6.518 -0.0462  1.3572  0.1622
38843SOL     OW22620   7.442   4.176   8.890 -0.5678 -0.0545  0.0462
38843SOL    HW122621   7.450   4.235   8.815  0.0653  0.1829  0.2846
38843SOL    HW222622   7.433   4.235   8.966  3.4647 -0.0243  0.7315
38844SOL     OW22623   8.022   0.470   7.715  0.1594  0.2626  0.3661
38844SOL    HW122624   7.949   0.466   7.653  1.0905  0.5008 -0.7830
38844SOL    HW222625   7.985   0.509   7.794 -1.1753 -0.4895  0.1502
38845SOL     OW22626   0.832   4.678   9.274  0.6559  0.0984  0.3015
38845SOL    HW122627   0.877   4.746   9.223  0.2523  1.2107  1.3706
38845SOL    HW222628   0.776   4.633   9.210  0.3995  1.2485 -0.3082
38846SOL     OW22629   5.188   7.892   1.035 -0.1418  0.0991 -0.0696
38846SOL    HW122630   5.165   7.823   1.097 -0.2745  0.6508  0.5068
38846SOL    HW222631   5.247   7.949   1.084 -0.1925  0.5077 -0.4753
38847SOL     OW22632   8.565   9.537   7.192 -0.2069  0.5456  0.2411
38847SOL    HW122633   8.509   9.565   7.119 -0.7892  0.8142  0.7809
38847SOL    HW222634   8.628   9.477   7.153 -0.3806  0.8503 -0.5219
38848SOL     OW22635   2.618   1.476   8.720  0.2742  0.2557  0.4870
38848SOL    HW122636   2.545   1.468   8.782 -0.7050 -1.2213 -0.7685
38848SOL    HW222637   2.673   1.546   8.756 -2.8137  2.9365  0.4418
38849SOL     OW22638   8.999   3.283   5.935  0.0596 -0.4734 -0.1629
38849SOL    HW122639   8.935   3.352   5.954 -0.3460 -1.6791  3.4609
38849SOL    HW222640   8.950   3.220   5.882 -0.7702  0.1061 -0.1152
38850SOL     OW22641   3.136   2.233   6.878 -0.8721 -0.6759  0.3015
38850SOL    HW122642   3.163   2.284   6.802  0.2722 -1.0817  0.4157
38850SOL    HW222643   3.119   2.145   6.842 -0.5903 -0.8000  0.4743
38851SOL     OW22644   1.175   4.203   6.310  0.2665 -0.2855  0.2028
38851SOL    HW122645   1.135   4.276   6.263 -2.1900 -1.4263  0.3803
38851SOL    HW222646   1.269   4.222   6.308 -0.1879  2.2813 -0.7087
38852SOL     OW22647  10.436   7.370   9.055  0.3293 -0.5030 -0.0726
38852SOL    HW122648  10.405   7.307   8.990  0.1076 -0.8385  0.3537
38852SOL    HW222649  10.366   7.434   9.061  0.9679  0.3614 -1.2347
38853SOL     OW22650   4.266   5.630   1.855  0.1773 -0.1234  0.0949
38853SOL    HW122651   4.207   5.643   1.930  0.5464  0.3951  0.3036
38853SOL    HW222652   4.291   5.538   1.859 -2.0969 -0.8734 -1.0992
38854SOL     OW22653   3.549   8.785   5.608  0.3586  0.7062 -0.0169
38854SOL    HW122654   3.592   8.759   5.690  1.9235 -0.8164 -1.2509
38854SOL    HW222655   3.601   8.744   5.539 -1.2423  1.4730 -1.7770
38855SOL     OW22656   6.966   0.609   8.572 -0.1121  0.2130  0.3028
38855SOL    HW122657   6.893   0.604   8.634 -0.8147  1.2037 -0.4137
38855SOL    HW222658   6.926   0.590   8.487  0.5537  0.3400 -0.0449
38856SOL     OW22659   6.228   7.896   2.034  0.4045 -0.7304  0.2014
38856SOL    HW122660   6.211   7.900   2.128  1.0328  1.6855  0.2832
38856SOL    HW222661   6.148   7.928   1.994  0.6357 -0.3964  0.0016
38857SOL     OW22662  10.222   8.897   5.769  0.2171 -0.2257 -0.2166
38857SOL    HW122663  10.292   8.865   5.711  0.2830  1.4136 -1.1085
38857SOL    HW222664  10.152   8.923   5.709 -1.1528 -1.7689  0.6685
38858SOL     OW22665   8.914   6.301   4.955  0.4787  0.1351 -0.2288
38858SOL    HW122666   9.006   6.277   4.967  0.7237  1.9502  2.2342
38858SOL    HW222667   8.915   6.395   4.939 -0.9841  0.4961  1.4744
38859SOL     OW22668   2.586   2.059   7.990 -0.1879 -0.0951  0.0036
38859SOL    HW122669   2.510   2.106   7.957  1.6754  2.0948 -1.5363
38859SOL    HW222670   2.598   2.092   8.079  0.0469  1.1067 -0.4414
38860SOL     OW22671   7.698   6.047   4.677  0.1096 -0.0619  0.0582
38860SOL    HW122672   7.745   5.982   4.624  1.1136 -0.0140  0.8417
38860SOL    HW222673   7.637   6.088   4.617  2.8626  1.7038 -1.7372
38861SOL     OW22674   8.272   9.296   9.164 -0.5502  0.1956  0.2908
38861SOL    HW122675   8.328   9.262   9.234 -0.4261 -0.0376  0.0813
38861SOL    HW222676   8.302   9.386   9.150 -0.2643  0.0884  0.2175
38862SOL     OW22677   1.243   8.910   9.504  0.0615 -0.3749  0.3170
38862SOL    HW122678   1.155   8.928   9.472 -0.2577 -1.1181  0.7536
38862SOL    HW222679   1.298   8.912   9.426 -0.2696  0.4690  0.0938
38863SOL     OW22680   5.056   0.759  10.731 -0.0890 -0.1597  0.1067
38863SOL    HW122681   5.011   0.679  10.704  0.2975 -0.5965  0.7175
38863SOL    HW222682   5.148   0.743  10.707 -0.1551  0.4946 -0.6287
38864SOL     OW22683   9.807   9.761   7.404 -0.1147 -0.3927  0.3479
38864SOL    HW122684   9.777   9.802   7.323 -1.4197  0.5021  1.2436
38864SOL    HW222685   9.829   9.835   7.461  0.7147 -1.0087  0.8470
38865SOL     OW22686   5.553   6.489   8.307 -0.0711 -0.2062 -0.1041
38865SOL    HW122687   5.581   6.566   8.259 -1.3133  0.4538  0.2011
38865SOL    HW222688   5.607   6.488   8.386  0.9453 -0.4707 -0.7897
38866SOL     OW22689   7.036   8.113   9.488  0.0532  0.0954  0.4187
38866SOL    HW122690   7.104   8.090   9.552  0.7946  0.5839 -0.1750
38866SOL    HW222691   7.081   8.170   9.426 -1.1149  1.1406  0.4970
38867SOL     OW22692   7.560   8.657   4.003  0.3755 -0.0873  0.7350
38867SOL    HW122693   7.595   8.727   4.059  0.9370 -0.0562  0.3523
38867SOL    HW222694   7.633   8.597   3.991  0.0328 -0.4966  0.6617
38868SOL     OW22695  10.160   3.872   2.281  0.2139  0.0212 -0.0150
38868SOL    HW122696  10.236   3.820   2.306 -0.4926 -1.8656 -1.5537
38868SOL    HW222697  10.196   3.939   2.223  0.7875 -0.5642 -0.3621
38869SOL     OW22698  10.826   2.865   8.104  0.4701  0.5096  0.1792
38869SOL    HW122699  10.836   2.960   8.096  2.2686  0.2357 -1.9836
38869SOL    HW222700  10.799   2.837   8.016 -0.1292 -0.9814  0.8173
38870SOL     OW22701   2.069   4.778   6.237 -0.1142 -0.5894 -0.9107
38870SOL    HW122702   2.077   4.711   6.306  1.0690  0.6343  0.2089
38870SOL    HW222703   2.014   4.737   6.170 -1.0885 -1.9268  0.6354
38871SOL     OW22704   4.938   5.034  10.907 -0.6622 -0.0504 -0.2206
38871SOL    HW122705   5.005   5.060  10.971 -2.5520  0.9102  1.5034
38871SOL    HW222706   4.982   4.971  10.850  1.5480  0.1649  1.1299
38872SOL     OW22707   2.250   3.849   4.488 -0.0425  0.1156  1.0092
38872SOL    HW122708   2.196   3.876   4.414  1.5286  0.8779  0.0858
38872SOL    HW222709   2.314   3.788   4.451  1.2014  1.0282  1.5436
38873SOL     OW22710   9.169   3.599   2.760  0.0582 -0.2888 -0.0722
38873SOL    HW122711   9.193   3.676   2.812  0.7952 -0.7904  0.3576
38873SOL    HW222712   9.085   3.571   2.796  0.4210 -0.4620  0.6706
38874SOL     OW22713   3.636  10.488   3.922 -0.5373  0.6518  0.1459
38874SOL    HW122714   3.647  10.583   3.911  0.0015  0.7597  1.3967
38874SOL    HW222715   3.580  10.480   3.999  1.9151 -0.0183  2.0003
38875SOL     OW22716   5.606   5.889   2.509  0.3031 -0.4485 -0.3372
38875SOL    HW122717   5.557   5.808   2.492  0.4681 -0.5060 -0.5472
38875SOL    HW222718   5.597   5.939   2.428  0.6774 -0.5038 -0.4155
38876SOL     OW22719   3.412   8.062  10.897  0.1167  0.3931 -0.2242
38876SOL    HW122720   3.499   8.098  10.916  0.3453 -0.3337  0.1378
38876SOL    HW222721   3.363   8.073  10.979  0.6686 -1.4844  0.3956
38877SOL     OW22722   0.782   6.252   8.943 -0.1157 -0.3666  0.6705
38877SOL    HW122723   0.797   6.224   8.853 -0.8999  0.1293  0.3731
38877SOL    HW222724   0.860   6.224   8.990  1.2470  1.1604 -0.5701
38878SOL     OW22725   5.204   9.399   8.882 -0.0831 -0.4004 -0.4907
38878SOL    HW122726   5.258   9.335   8.928 -0.0604 -1.4630 -1.9497
38878SOL    HW222727   5.258   9.478   8.877  0.5072 -0.7755 -0.1089
38879SOL     OW22728   8.982   2.073  10.221  0.1616  0.4467 -0.0413
38879SOL    HW122729   8.899   2.036  10.189  0.3620  0.2797 -0.3757
38879SOL    HW222730   8.959   2.116  10.303 -0.3223  0.6768 -0.2910
38880SOL     OW22731   4.483   8.080   7.021  0.7198  0.2673 -0.2245
38880SOL    HW122732   4.579   8.082   7.014  0.9352  0.1949  1.9265
38880SOL    HW222733   4.465   8.000   7.071 -0.5174  0.0404 -0.9940
38881SOL     OW22734   7.576   6.429  10.553  0.0986  0.1720 -0.0576
38881SOL    HW122735   7.613   6.514  10.577 -0.9209  0.0458  2.2523
38881SOL    HW222736   7.648   6.367  10.566 -0.0760  0.2809  1.6512
38882SOL     OW22737   2.633   4.728   7.423 -0.6753  0.2422  0.1196
38882SOL    HW122738   2.608   4.636   7.426 -2.0722  0.3651 -3.1534
38882SOL    HW222739   2.619   4.754   7.331  0.9831  3.3647  0.5923
38883SOL     OW22740   6.998   6.467   6.697 -0.2049  0.2646 -0.2657
38883SOL    HW122741   6.908   6.435   6.704 -0.0984 -0.7909 -2.5714
38883SOL    HW222742   6.991   6.562   6.709 -1.4281  0.0735  0.7541
38884SOL     OW22743  10.661   8.732   7.021 -0.1541  0.2468 -0.3066
38884SOL    HW122744  10.674   8.691   7.107  2.5736  2.9168  0.7478
38884SOL    HW222745  10.577   8.778   7.029  0.4567  1.1862  1.3611
38885SOL     OW22746   8.997  10.191   6.767  0.2359  0.1546  0.1516
38885SOL    HW122747   9.028  10.202   6.858  1.8868  0.0244 -0.3519
38885SOL    HW222748   9.062  10.133   6.727 -1.6049 -1.4693 -0.5812
38886SOL     OW22749   9.543   2.005   6.844 -0.1685  0.5772  0.2247
38886SOL    HW122750   9.604   2.075   6.820  0.8227 -1.1004 -2.5220
38886SOL    HW222751   9.460   2.031   6.804  0.4352 -0.1767 -1.6248
38887SOL     OW22752   5.018   1.862   0.367  0.2892  0.2622 -0.3785
38887SOL    HW122753   4.961   1.786   0.359  0.3255  0.3661 -2.0323
38887SOL    HW222754   5.013   1.887   0.459 -0.7724 -0.9228 -0.0936
38888SOL     OW22755   5.858   0.432   6.907  0.5974 -0.8630 -0.3103
38888SOL    HW122756   5.940   0.477   6.886  0.4459 -0.2894  0.3310
38888SOL    HW222757   5.813   0.490   6.968  0.6064 -2.0636  0.8906
38889SOL     OW22758   1.468   9.798   4.280 -0.3254  0.0497  0.3532
38889SOL    HW122759   1.396   9.735   4.274 -0.1697 -0.0627 -0.4610
38889SOL    HW222760   1.443   9.868   4.219  0.2365  0.0204  0.0800
38890SOL     OW22761   9.165   7.328   7.639 -0.0252  0.0326 -0.3896
38890SOL    HW122762   9.143   7.311   7.548 -0.6357  0.5327 -0.3437
38890SOL    HW222763   9.157   7.423   7.648 -2.4278 -0.2052  0.7906
38891SOL     OW22764   0.917   0.296   8.027  0.6080  0.1294 -0.1184
38891SOL    HW122765   0.827   0.265   8.027  0.4537  0.5662  0.2173
38891SOL    HW222766   0.913   0.383   8.067  1.2804 -0.1747  0.6605
38892SOL     OW22767   9.584   8.129   5.315  0.0022 -0.4412 -0.6244
38892SOL    HW122768   9.582   8.050   5.370  0.5337 -0.7002 -0.9711
38892SOL    HW222769   9.557   8.098   5.229 -0.7352 -0.0528 -0.5353
38893SOL     OW22770   9.906   0.585  10.014 -0.0336  0.4807  0.4493
38893SOL    HW122771   9.869   0.496  10.020  1.0694 -0.2831 -2.5169
38893SOL    HW222772   9.888   0.623  10.100 -0.8052 -2.4938  1.7643
38894SOL     OW22773   0.744   7.800  10.518 -0.1328 -0.1598 -0.5940
38894SOL    HW122774   0.796   7.762  10.447 -0.7234 -1.7137 -0.2208
38894SOL    HW222775   0.653   7.786  10.492 -0.3785  1.0304 -0.4395
38895SOL     OW22776   1.382   7.748   8.539  0.1180  0.5141  0.2356
38895SOL    HW122777   1.288   7.753   8.558  0.3565 -1.8000  2.6703
38895SOL    HW222778   1.402   7.654   8.547  2.2790  0.6455 -2.3651
38896SOL     OW22779   3.915   8.247   0.248 -0.4226 -0.0918  0.0059
38896SOL    HW122780   3.893   8.180   0.313 -0.9654  0.3909  0.3293
38896SOL    HW222781   3.986   8.208   0.197  0.1928 -0.3768  1.0490
38897SOL     OW22782   9.368   5.522  10.368  0.2862  0.3984 -0.1073
38897SOL    HW122783   9.396   5.501  10.279  0.3406 -0.1148  0.0255
38897SOL    HW222784   9.383   5.616  10.377  1.2172  0.2744 -0.3092
38898SOL     OW22785  10.727   9.531   6.456  0.0731  0.4514  0.3544
38898SOL    HW122786  10.720   9.618   6.416 -0.7597  0.0172 -0.4924
38898SOL    HW222787  10.666   9.477   6.406 -0.0305 -0.4327  1.3960
38899SOL     OW22788   6.946   6.369  10.138 -0.2178  0.2254 -0.0641
38899SOL    HW122789   6.969   6.458  10.165  2.1188 -0.7987  1.7248
38899SOL    HW222790   7.001   6.353  10.062  0.3950 -0.1388  0.4507
38900SOL     OW22791   5.201  10.491  10.640  0.4749 -0.6598  0.5210
38900SOL    HW122792   5.268  10.549  10.604 -1.0061  0.8500  0.0201
38900SOL    HW222793   5.172  10.438  10.565 -0.3648  0.2264  0.1895
38901SOL     OW22794   4.217   5.931   3.043  0.4880  0.2123 -0.2993
38901SOL    HW122795   4.222   5.883   3.125 -2.6813 -0.2018 -0.2242
38901SOL    HW222796   4.305   5.964   3.029  1.2112  0.0675  3.1125
38902SOL     OW22797   5.632   8.834   4.158 -0.0613  1.1899  0.7834
38902SOL    HW122798   5.706   8.891   4.139 -0.8505  1.6863 -0.9818
38902SOL    HW222799   5.671   8.748   4.173  0.9485  1.6769  1.0222
38903SOL     OW22800   2.498  10.439  10.372  0.8305  0.4676 -0.2504
38903SOL    HW122801   2.452  10.359  10.395  0.3810  0.9776  0.6580
38903SOL    HW222802   2.485  10.448  10.277 -0.1244  0.0997 -0.1648
38904SOL     OW22803   5.114   2.677   8.797  0.2286 -0.0386  0.0008
38904SOL    HW122804   5.123   2.758   8.747 -0.1629  0.4673  0.7137
38904SOL    HW222805   5.203   2.649   8.815  0.4213 -1.2222 -2.4840
38905SOL     OW22806   5.397   2.924   6.709 -0.5939  0.3914 -0.3337
38905SOL    HW122807   5.354   2.896   6.790 -0.1310  0.9508  0.1253
38905SOL    HW222808   5.378   2.855   6.646 -0.2438 -0.4900  0.4978
38906SOL     OW22809   7.257   2.472   5.228  0.3161 -0.2742 -0.2485
38906SOL    HW122810   7.309   2.433   5.157  0.0531  0.5912 -0.9287
38906SOL    HW222811   7.192   2.405   5.250  0.3199 -0.5033 -0.9127
38907SOL     OW22812  10.267   6.391   8.926 -0.2985 -0.1738 -0.3535
38907SOL    HW122813  10.268   6.476   8.970  1.1325 -0.3983  0.0693
38907SOL    HW222814  10.214   6.335   8.983 -0.8784  0.3053 -0.4134
38908SOL     OW22815   4.288   6.203   2.145  0.2482 -0.6553 -0.2739
38908SOL    HW122816   4.292   6.179   2.237  0.4777 -0.2245 -0.1686
38908SOL    HW222817   4.198   6.233   2.132  0.4081 -0.0448 -0.0155
38909SOL     OW22818   1.195   9.159   9.889 -0.3322  0.1166 -0.0376
38909SOL    HW122819   1.146   9.111   9.956  0.0448  3.1604  2.6549
38909SOL    HW222820   1.283   9.121   9.892  0.0532  1.0248  2.2899
38910SOL     OW22821   1.100   2.151   9.238  0.1141 -0.5974 -0.4403
38910SOL    HW122822   1.111   2.122   9.148 -0.1370 -0.9017 -0.3727
38910SOL    HW222823   1.031   2.095   9.274  0.2957 -0.5571 -0.0222
38911SOL     OW22824   0.078   4.957   9.673 -0.0935 -0.5160  0.4508
38911SOL    HW122825   0.062   4.915   9.588  2.2824 -1.3070  0.3046
38911SOL    HW222826   0.039   5.044   9.665  0.1271 -0.5482 -1.5045
38912SOL     OW22827  10.388   3.050   2.292 -0.1903 -0.2643  0.5457
38912SOL    HW122828  10.430   3.037   2.377 -0.4261  0.0281  0.7051
38912SOL    HW222829  10.423   2.979   2.237  0.5115 -0.0217  0.6754
38913SOL     OW22830  10.832   1.398   4.824 -0.6165  0.0557 -0.0350
38913SOL    HW122831  10.777   1.413   4.902 -1.0903  1.2534 -0.5682
38913SOL    HW222832  10.829   1.482   4.777 -0.8279 -0.8206 -1.6527
38914SOL     OW22833   6.197   8.320   6.437 -0.1469 -0.1550  0.1947
38914SOL    HW122834   6.150   8.246   6.474 -0.7663 -0.0470 -0.3513
38914SOL    HW222835   6.220   8.292   6.348  1.1882 -0.3611  0.5783
38915SOL     OW22836   1.451   2.065   5.417 -0.2333  0.2082 -0.2114
38915SOL    HW122837   1.447   2.016   5.499 -1.1967  0.2609 -0.2164
38915SOL    HW222838   1.544   2.065   5.393 -0.0179 -0.2597  0.6018
38916SOL     OW22839   2.095   9.693   4.416  0.4257  0.7122 -0.4654
38916SOL    HW122840   2.174   9.710   4.365  0.3051  0.7877 -0.6278
38916SOL    HW222841   2.080   9.775   4.464  2.1628 -0.2732  1.9123
38917SOL     OW22842   5.730   1.081   7.392  0.9184 -0.4132  0.5205
38917SOL    HW122843   5.703   1.069   7.483 -0.4853  0.7847  0.2896
38917SOL    HW222844   5.651   1.107   7.346  1.4049 -1.7589 -1.2389
38918SOL     OW22845   1.043   2.118   9.971  0.2564  0.7209 -0.5022
38918SOL    HW122846   1.001   2.126   9.885  3.0270  0.7836 -1.9757
38918SOL    HW222847   1.130   2.083   9.951  1.0629  0.9643  2.2782
38919SOL     OW22848  10.509   8.733   0.789  0.6121 -0.0958 -0.9752
38919SOL    HW122849  10.430   8.683   0.769  0.0538 -0.8421  2.5391
38919SOL    HW222850  10.479   8.823   0.796  0.3535 -0.1779 -1.0173
38920SOL     OW22851   3.099   8.352   5.953  0.6203  0.1809  0.3537
38920SOL    HW122852   3.155   8.417   5.995  1.2741  0.4507 -0.8652
38920SOL    HW222853   3.064   8.397   5.876 -0.6544 -0.2464  0.6612
38921SOL     OW22854   7.013   5.074   6.059  0.2337 -0.0060  0.4984
38921SOL    HW122855   6.993   5.126   5.981 -0.5806  0.8810  1.2687
38921SOL    HW222856   7.010   4.983   6.029  3.6354  0.3294 -1.3544
38922SOL     OW22857   2.975   9.851   7.199  0.4191 -0.1227  0.0499
38922SOL    HW122858   3.063   9.880   7.222  0.3737 -1.7147  2.6352
38922SOL    HW222859   2.985   9.810   7.113  1.4715  2.6047 -1.2302
38923SOL     OW22860   1.635   7.844   5.413 -0.5228  0.0795  0.4312
38923SOL    HW122861   1.722   7.805   5.404 -0.2846  0.5020  0.8664
38923SOL    HW222862   1.644   7.907   5.485 -1.2277  0.0044  0.5959
38924SOL     OW22863   8.289   0.920   5.889  0.1471 -0.3725 -0.0406
38924SOL    HW122864   8.263   1.004   5.852  0.4377  0.4070  1.4508
38924SOL    HW222865   8.370   0.898   5.844  0.4347  0.4954  0.0347
38925SOL     OW22866   9.088   9.469   0.064 -0.1162  0.1309  0.6421
38925SOL    HW122867   9.091   9.451   0.158 -0.1246  1.7157  0.9669
38925SOL    HW222868   9.149   9.406   0.026  0.5918  0.0805  1.8146
38926SOL     OW22869   0.673   1.705   8.393  0.0708 -0.5957 -0.2322
38926SOL    HW122870   0.767   1.710   8.412  0.3088 -0.3169 -1.3994
38926SOL    HW222871   0.631   1.737   8.472  0.8251 -3.5274  1.4964
38927SOL     OW22872   5.657   1.140   7.724  0.1811 -0.0997 -0.2693
38927SOL    HW122873   5.632   1.208   7.787  0.0134 -1.5102  1.2403
38927SOL    HW222874   5.604   1.159   7.647  2.1488  3.1387 -1.0303
38928SOL     OW22875   7.485   7.104   1.186 -0.2978 -0.0158  0.4351
38928SOL    HW122876   7.521   7.174   1.240 -2.5911  0.9728  0.7975
38928SOL    HW222877   7.533   7.109   1.103  0.2344  1.3402  0.8170
38929SOL     OW22878   7.763   3.200   8.528  0.2497 -0.4302 -0.0682
38929SOL    HW122879   7.802   3.244   8.453 -0.9700 -0.4717 -0.7439
38929SOL    HW222880   7.790   3.108   8.519  0.6125 -0.3244 -0.1006
38930SOL     OW22881   2.757   0.198   5.289 -0.2943 -0.0175  0.7664
38930SOL    HW122882   2.798   0.113   5.277  0.6964  0.6806 -1.3913
38930SOL    HW222883   2.680   0.181   5.343 -0.3739 -2.3489  0.0050
38931SOL     OW22884   2.533   6.111   5.952 -0.2802 -0.3785  0.1945
38931SOL    HW122885   2.567   6.104   6.041  0.1332  0.6430  0.1282
38931SOL    HW222886   2.512   6.204   5.941 -0.6059 -0.5437 -0.6684
38932SOL     OW22887   1.487   8.381   3.709  0.2617  0.2862 -0.2539
38932SOL    HW122888   1.405   8.337   3.687  0.4076 -0.4607  0.6532
38932SOL    HW222889   1.521   8.333   3.785  0.8486  1.4390  0.2391
38933SOL     OW22890   3.289   0.601   0.544  0.2948 -0.7209 -0.4633
38933SOL    HW122891   3.305   0.507   0.550  0.7176 -0.7865 -2.1464
38933SOL    HW222892   3.301   0.621   0.451 -0.2805  0.9092 -0.2079
38934SOL     OW22893   8.538  10.455  10.852 -0.4802 -0.0781 -0.5397
38934SOL    HW122894   8.450  10.461  10.814 -0.1771  1.5596 -1.0699
38934SOL    HW222895   8.525  10.474  10.945 -0.6200  0.8181 -0.7350
38935SOL     OW22896   5.000   0.053  10.394 -0.0502 -0.7090 -0.2601
38935SOL    HW122897   4.954   0.109  10.331  0.4161 -1.0687 -0.9353
38935SOL    HW222898   5.024  -0.025  10.344  0.6289 -0.8520  0.2672
38936SOL     OW22899   1.924   6.049   0.079 -0.5590 -0.5069  0.1565
38936SOL    HW122900   1.902   6.090   0.163  0.8240 -2.0993  1.3739
38936SOL    HW222901   1.847   5.996   0.057 -0.9263 -0.0880  0.4265
38937SOL     OW22902   0.010   8.195   0.069  0.0953 -0.0471 -0.4359
38937SOL    HW122903   0.032   8.286   0.084 -1.5700  0.2338  0.4996
38937SOL    HW222904  -0.079   8.197   0.033  0.0280 -1.2959 -0.3890
38938SOL     OW22905   8.005   7.110   1.207 -0.6964  0.2243 -0.0958
38938SOL    HW122906   8.083   7.055   1.203  0.4319  1.6743  0.6756
38938SOL    HW222907   8.009   7.164   1.129 -0.8712  0.3644 -0.0093
38939SOL     OW22908   1.590   5.318   9.527 -0.2507  0.4712  0.4423
38939SOL    HW122909   1.555   5.395   9.572 -0.7028  1.0175 -0.8052
38939SOL    HW222910   1.653   5.281   9.589  1.0881  2.7018  0.5253
38940SOL     OW22911  10.171   7.514  10.514 -0.0363  0.3515 -0.1513
38940SOL    HW122912  10.225   7.444  10.551 -0.0720  0.3759 -0.0543
38940SOL    HW222913  10.081   7.486  10.530 -0.0933 -0.3674 -1.5376
38941SOL     OW22914   0.975  10.414   6.816 -0.0814  0.5222 -0.1928
38941SOL    HW122915   1.060  10.382   6.846  0.5960  1.4727 -1.0296
38941SOL    HW222916   0.964  10.374   6.729 -1.7435 -1.7297  0.9703
38942SOL     OW22917   9.376   0.855   9.193 -0.5544 -0.0194 -0.4282
38942SOL    HW122918   9.339   0.788   9.251 -0.7022  0.9576  0.6525
38942SOL    HW222919   9.469   0.836   9.190 -0.4681  0.1833  0.5323
38943SOL     OW22920   7.271   7.696   3.025 -0.8689 -0.0898 -0.6436
38943SOL    HW122921   7.232   7.609   3.011 -2.7688  0.4467  0.8066
38943SOL    HW222922   7.287   7.700   3.119  0.4131  0.6764 -0.8779
38944SOL     OW22923   8.580  10.011   0.645 -0.1368  0.2718 -0.3970
38944SOL    HW122924   8.487  10.021   0.626 -0.3393  1.1222  0.9154
38944SOL    HW222925   8.586   9.930   0.696 -0.1501  0.2206 -0.4765
38945SOL     OW22926  10.495   9.596   1.630  0.1746 -0.1275 -0.4367
38945SOL    HW122927  10.440   9.651   1.574 -0.4042 -0.6102 -0.3633
38945SOL    HW222928  10.566   9.653   1.659 -0.3442  0.5422 -0.4607
38946SOL     OW22929   4.788   2.102   4.796  0.2681  0.0946 -0.7330
38946SOL    HW122930   4.730   2.165   4.840 -0.2247 -1.1524  0.4514
38946SOL    HW222931   4.834   2.058   4.867  0.7700 -0.7461 -1.5619
38947SOL     OW22932   3.298   4.516   1.646 -0.0084 -0.6491 -0.1836
38947SOL    HW122933   3.269   4.428   1.623 -0.5907 -0.2370 -1.1161
38947SOL    HW222934   3.314   4.559   1.562  1.8667 -0.3631  0.2706
38948SOL     OW22935   6.516   0.825   2.706 -0.0642  0.2573  0.5182
38948SOL    HW122936   6.565   0.787   2.778  1.8881  3.5256  1.1402
38948SOL    HW222937   6.557   0.910   2.691 -1.1709  0.2856 -3.6844
38949SOL     OW22938  10.023   1.673   7.511 -0.4009 -0.5929 -0.2256
38949SOL    HW122939  10.031   1.594   7.457  0.0580  1.3480 -3.2665
38949SOL    HW222940  10.109   1.682   7.552 -0.0960 -1.1124 -0.7251
38950SOL     OW22941   0.191   1.327   6.915  0.1598 -0.2427 -0.0719
38950SOL    HW122942   0.270   1.378   6.928  0.2609 -0.6754  1.1711
38950SOL    HW222943   0.159   1.310   7.003 -2.3632  1.4936 -0.5544
38951SOL     OW22944   2.953   3.703   5.169  0.5711  0.6384  0.1584
38951SOL    HW122945   2.981   3.614   5.189  1.4034  0.9392  0.3577
38951SOL    HW222946   2.898   3.728   5.243 -0.0256  0.1324 -0.1109
38952SOL     OW22947   7.676   1.178  10.316 -0.0660 -0.4213  0.1174
38952SOL    HW122948   7.627   1.111  10.363 -1.3217 -0.5549 -1.2674
38952SOL    HW222949   7.626   1.258  10.329  0.9344  0.0692  1.0268
38953SOL     OW22950   4.123   8.871   0.696  0.1618  0.5899  0.4900
38953SOL    HW122951   4.073   8.931   0.641 -0.7843 -0.2053  0.4669
38953SOL    HW222952   4.097   8.892   0.785 -0.3294  0.0915  0.4711
38954SOL     OW22953   7.805   1.021   3.645  0.3594  0.1560  0.2076
38954SOL    HW122954   7.882   0.994   3.695 -0.5122 -2.3120  0.3647
38954SOL    HW222955   7.836   1.027   3.555  0.7925 -0.6759  0.2881
38955SOL     OW22956   8.297   1.359   6.629  0.1046  0.6407 -0.2474
38955SOL    HW122957   8.225   1.315   6.673 -0.8150  2.4082  0.1193
38955SOL    HW222958   8.284   1.452   6.648  2.2538  1.0607 -0.5099
38956SOL     OW22959   4.024   9.350   0.121  0.1467  0.2171 -0.3658
38956SOL    HW122960   4.067   9.400   0.190  0.4340  1.5888 -1.4921
38956SOL    HW222961   4.096   9.313   0.070  0.0444  1.8409 -1.7733
38957SOL     OW22962   8.196   0.618   9.310 -0.1875  0.6834  0.0608
38957SOL    HW122963   8.165   0.706   9.330 -0.7336  0.5449 -0.1510
38957SOL    HW222964   8.167   0.602   9.220 -1.7482 -0.4092  0.7125
38958SOL     OW22965   9.783   9.921   3.065  0.6439 -0.4977 -0.0057
38958SOL    HW122966   9.823  10.008   3.072 -1.9552  0.8238 -0.4251
38958SOL    HW222967   9.717   9.920   3.134  0.4237 -2.0378 -0.2166
38959SOL     OW22968   0.405   1.635   7.525 -0.1557 -0.2794  0.1913
38959SOL    HW122969   0.335   1.676   7.576  0.7197  0.9178  0.4621
38959SOL    HW222970   0.457   1.587   7.590 -1.4104 -2.2783 -0.1713
38960SOL     OW22971   3.442   5.922   4.428 -0.1630  0.0063  0.1038
38960SOL    HW122972   3.458   5.938   4.522  0.8680 -0.7434  0.0662
38960SOL    HW222973   3.517   5.870   4.399 -0.2812  0.5446 -1.2332
38961SOL     OW22974   9.363  10.516   2.962 -0.8364 -0.2278 -0.6191
38961SOL    HW122975   9.322  10.602   2.958 -0.7065 -0.2012 -2.0927
38961SOL    HW222976   9.351  10.480   2.874 -0.7672 -1.6625 -0.0714
38962SOL     OW22977   5.442   9.554   4.310  0.1089 -0.4261 -0.3048
38962SOL    HW122978   5.480   9.466   4.321  0.7995  0.1512  2.9308
38962SOL    HW222979   5.348   9.538   4.299  0.4909 -1.6106 -2.5202
38963SOL     OW22980   6.236   2.655   5.704  0.2613 -0.3283 -0.1969
38963SOL    HW122981   6.229   2.586   5.638 -0.2743 -1.6481  1.1877
38963SOL    HW222982   6.147   2.667   5.736  0.6382 -0.3587  0.9067
38964SOL     OW22983   4.411   7.562   6.921 -0.9467 -0.2593  0.3931
38964SOL    HW122984   4.435   7.540   7.011  1.4976 -2.6565 -0.6836
38964SOL    HW222985   4.328   7.516   6.906 -0.1903 -1.8335  0.7900
38965SOL     OW22986  10.486   8.252   2.134  0.1099  0.4036  0.3334
38965SOL    HW122987  10.471   8.332   2.186 -0.1036  0.2806  0.4623
38965SOL    HW222988  10.418   8.255   2.067 -0.4505 -0.1156  0.8720
38966SOL     OW22989   5.279   4.622   9.401 -0.8513 -0.2221 -0.0093
38966SOL    HW122990   5.249   4.660   9.484  0.1377  1.2083 -0.2560
38966SOL    HW222991   5.288   4.698   9.343  1.3006 -0.8014 -0.5130
38967SOL     OW22992   2.328   4.084  10.476  0.3732 -0.4795  0.4430
38967SOL    HW122993   2.318   3.993  10.449  0.6826 -0.4672  0.2792
38967SOL    HW222994   2.396   4.118  10.419 -0.8835  0.3188 -0.6435
38968SOL     OW22995   4.763   5.755   4.755 -0.3439 -0.2463  0.6656
38968SOL    HW122996   4.701   5.747   4.683 -0.2835 -1.5471  0.7213
38968SOL    HW222997   4.745   5.679   4.810 -0.8554  1.0978  2.4146
38969SOL     OW22998  10.418   3.890   7.770 -0.2060  0.5602  0.1911
38969SOL    HW122999  10.447   3.870   7.681 -0.5907  0.1995  0.1421
38969SOL    HW223000  10.420   3.985   7.776  3.0236  0.5641  0.8689
38970SOL     OW23001   2.585  10.193   3.464  0.2088  0.0353 -0.3910
38970SOL    HW123002   2.530  10.153   3.397 -1.4886  2.4749 -0.6249
38970SOL    HW223003   2.540  10.275   3.485  3.9350  2.4472 -0.8248
38971SOL     OW23004   8.070   1.508   3.857  0.0014  0.5349  0.4587
38971SOL    HW123005   8.114   1.521   3.773  0.7832 -2.6542  0.2694
38971SOL    HW223006   7.989   1.463   3.835 -0.9783  1.8037  1.2790
38972SOL     OW23007   2.142   0.516   3.959 -0.2524  0.1941  0.3007
38972SOL    HW123008   2.167   0.423   3.960 -0.2080  0.1955 -0.2272
38972SOL    HW223009   2.077   0.523   3.888  0.0132  0.6274  0.0921
38973SOL     OW23010   7.041   2.069   6.465  0.2262  0.1709 -0.5276
38973SOL    HW123011   7.107   2.127   6.502 -0.0531 -0.3525  0.8587
38973SOL    HW223012   6.976   2.128   6.427  0.7862  0.7172 -0.6475
38974SOL     OW23013   6.843   4.975  10.366 -0.4492  0.1071 -0.1766
38974SOL    HW123014   6.775   5.011  10.424 -0.5822  1.9143 -1.3804
38974SOL    HW223015   6.895   4.918  10.423 -2.6621 -0.9682  0.8962
38975SOL     OW23016   0.223  10.328  10.700  0.0216  0.3927  0.2740
38975SOL    HW123017   0.172  10.408  10.691 -1.7510 -0.7819 -0.5925
38975SOL    HW223018   0.262  10.314  10.613 -1.1274 -0.5829 -0.1171
38976SOL     OW23019   6.021   5.250   1.726  0.0498 -0.0831  0.0671
38976SOL    HW123020   6.078   5.228   1.800 -1.1282  2.8672  2.0649
38976SOL    HW223021   5.949   5.299   1.766 -1.7172 -0.0740 -2.8618
38977SOL     OW23022   9.126   4.299   7.093 -0.1044 -0.0912  0.3350
38977SOL    HW123023   9.160   4.269   7.009 -0.2648  0.7799 -0.0427
38977SOL    HW223024   9.137   4.223   7.151  0.4051 -0.5545 -0.3499
38978SOL     OW23025   1.871   9.490   3.695  0.2584 -0.3713  0.7765
38978SOL    HW123026   1.902   9.408   3.733  0.2802  0.0336  1.6575
38978SOL    HW223027   1.801   9.465   3.635 -0.0981 -0.9801  1.4521
38979SOL     OW23028   4.300  10.513   6.584 -0.0713 -0.3821  0.2581
38979SOL    HW123029   4.248  10.543   6.659  1.6365 -0.5588  1.5581
38979SOL    HW223030   4.335  10.593   6.545 -0.2817 -0.3447  0.1422
38980SOL     OW23031   0.351   6.606   6.183  0.0915 -0.2606  0.1521
38980SOL    HW123032   0.394   6.685   6.150 -0.3766 -0.0754 -0.0185
38980SOL    HW223033   0.385   6.597   6.272  0.0847  0.1869  0.2067
38981SOL     OW23034   1.337   8.030   7.538 -0.1229 -0.2649  0.1402
38981SOL    HW123035   1.289   8.081   7.472 -1.1264 -0.7072  0.5101
38981SOL    HW223036   1.425   8.068   7.538 -0.7283  1.2198  0.1258
38982SOL     OW23037   1.554   2.877   3.741  0.3772  0.2651  0.1284
38982SOL    HW123038   1.516   2.803   3.788 -0.6964  0.1511 -0.8508
38982SOL    HW223039   1.640   2.847   3.713 -0.6010 -1.2123 -1.5122
38983SOL     OW23040   1.756   2.479   0.090 -0.5267 -0.1420  0.2375
38983SOL    HW123041   1.711   2.417   0.148 -0.5639  0.5350  0.9545
38983SOL    HW223042   1.788   2.547   0.149 -1.6198  1.2065 -0.6570
38984SOL     OW23043  10.116   2.249   6.573  0.0014 -0.3949  0.0703
38984SOL    HW123044  10.096   2.192   6.646 -1.9050  0.0468 -0.0594
38984SOL    HW223045  10.071   2.331   6.593  2.4116  1.0429  0.1202
38985SOL     OW23046   1.364   8.655   4.743 -0.1731 -0.5814 -0.7437
38985SOL    HW123047   1.347   8.721   4.810  2.2529  0.7758 -1.3647
38985SOL    HW223048   1.315   8.686   4.666  0.0076 -0.1384 -0.6814
38986SOL     OW23049   3.319   0.125   3.256 -1.0220 -0.8636 -0.1802
38986SOL    HW123050   3.320   0.053   3.192 -0.1335  0.0680 -1.2533
38986SOL    HW223051   3.378   0.190   3.219 -2.7114  0.9431  0.1579
38987SOL     OW23052   3.953   2.525   2.047 -0.5762  0.1740  0.5475
38987SOL    HW123053   4.022   2.586   2.076  0.0218 -0.1126 -0.2522
38987SOL    HW223054   3.875   2.580   2.039  0.1182  0.9964 -0.8264
38988SOL     OW23055   5.585  10.132   5.199 -0.2678 -0.4346  0.1987
38988SOL    HW123056   5.561  10.057   5.254 -1.7463  0.2901  0.5737
38988SOL    HW223057   5.558  10.106   5.110  0.5663 -0.9169  0.0734
38989SOL     OW23058   4.057   2.070   5.571  0.1482 -0.5753  0.0570
38989SOL    HW123059   4.130   2.037   5.625  1.0790 -0.2644 -0.9652
38989SOL    HW223060   4.076   2.163   5.560 -0.4728 -0.4687 -0.1345
38990SOL     OW23061  10.735   3.833   6.413  0.1078  0.4399 -0.0136
38990SOL    HW123062  10.649   3.814   6.375 -0.4738  1.6143  0.6677
38990SOL    HW223063  10.754   3.923   6.386  2.2007 -0.5160 -2.0880
38991SOL     OW23064   7.928   0.111   8.297  0.0402  0.0905  0.2636
38991SOL    HW123065   7.987   0.127   8.224 -0.6938  0.5525 -0.2450
38991SOL    HW223066   7.955   0.026   8.332 -0.6184 -0.9220 -1.5590
38992SOL     OW23067   2.611   2.818   6.450 -0.3723  0.9375 -0.7762
38992SOL    HW123068   2.657   2.902   6.444  0.2526  0.7021  0.3448
38992SOL    HW223069   2.679   2.752   6.437 -0.8631  0.5900 -1.6757
38993SOL     OW23070   2.977   0.123   4.376 -0.1733 -0.1859  0.0060
38993SOL    HW123071   2.902   0.124   4.436  0.5826  1.7493  1.0450
38993SOL    HW223072   2.948   0.174   4.300 -0.4646 -0.8969 -0.3615
38994SOL     OW23073   9.553   5.544   4.036 -0.2432  0.0982 -0.1542
38994SOL    HW123074   9.629   5.579   4.083  0.0953 -0.2722 -0.4219
38994SOL    HW223075   9.480   5.555   4.097  0.1476 -0.1580  0.3612
38995SOL     OW23076   2.180   3.865   7.456  0.0735 -0.0898  0.0664
38995SOL    HW123077   2.204   3.773   7.445  0.3262 -0.0932  0.6169
38995SOL    HW223078   2.217   3.890   7.541 -2.2208 -0.2181  1.1746
38996SOL     OW23079   3.447   2.899   7.870 -0.4586 -0.7832 -0.5690
38996SOL    HW123080   3.505   2.823   7.876 -1.9015 -1.8112  1.1130
38996SOL    HW223081   3.368   2.873   7.917 -1.1720  1.6182 -0.3172
38997SOL     OW23082   5.158   9.964   7.552  0.0013 -0.0306  0.1080
38997SOL    HW123083   5.192   9.970   7.641 -0.0926 -0.8126  0.2041
38997SOL    HW223084   5.236   9.972   7.496  0.0431  0.5975  0.2548
38998SOL     OW23085   5.432   7.249   5.344  0.1559 -0.1942 -0.6260
38998SOL    HW123086   5.355   7.205   5.310 -1.2007  0.2850  1.5991
38998SOL    HW223087   5.503   7.222   5.286 -1.5577 -1.0917 -2.4241
38999SOL     OW23088   8.812   1.839   3.821 -0.8508 -0.4541  0.0517
38999SOL    HW123089   8.729   1.878   3.793 -0.9775  0.0405  1.0800
38999SOL    HW223090   8.855   1.907   3.873 -0.1254 -0.9584  0.1365
39000SOL     OW23091   2.672   6.118   0.035  0.3363  0.1424 -0.1010
39000SOL    HW123092   2.602   6.175   0.065  1.0912  1.0278  0.0224
39000SOL    HW223093   2.638   6.079  -0.046  0.2034  1.5919 -0.7767
39001SOL     OW23094   1.207  10.343   6.513  0.0561 -0.8446  0.6478
39001SOL    HW123095   1.217  10.294   6.431  0.1046 -1.0409  0.7720
39001SOL    HW223096   1.293  10.339   6.554  0.8878  1.6203 -0.6190
39002SOL     OW23097   8.591   3.967   0.332  0.3150  0.1485 -0.3600
39002SOL    HW123098   8.636   4.010   0.404  2.2795  1.0669 -2.0304
39002SOL    HW223099   8.581   3.876   0.361  0.4670  0.6268  1.2899
39003SOL     OW23100   1.320   2.687  10.414 -0.3513  0.1912 -0.3765
39003SOL    HW123101   1.359   2.712  10.331  1.8517  0.4567  0.6843
39003SOL    HW223102   1.299   2.594  10.404 -0.3716  0.2931 -1.3085
39004SOL     OW23103   9.708   7.118   9.928 -0.6600  0.1683 -0.1577
39004SOL    HW123104   9.647   7.062   9.880 -0.4227  0.3284 -0.6549
39004SOL    HW223105   9.652   7.176   9.980 -0.9509  0.5463 -0.8745
39005SOL     OW23106   3.409   4.579   6.361 -0.6092  0.5439 -0.2958
39005SOL    HW123107   3.381   4.490   6.341  0.2685  0.6198 -1.9664
39005SOL    HW223108   3.465   4.569   6.438  0.8626 -0.6088 -1.4545
39006SOL     OW23109   4.501   5.035  10.762  0.1856 -0.2644 -0.0180
39006SOL    HW123110   4.410   5.023  10.738 -0.6770 -1.1091  3.2143
39006SOL    HW223111   4.534   4.946  10.778  1.5673  0.0378 -0.9426
39007SOL     OW23112  10.195   3.338   3.475  0.0425 -0.4653  0.0427
39007SOL    HW123113  10.239   3.423   3.484 -0.2436 -0.0512 -2.0323
39007SOL    HW223114  10.235   3.299   3.397 -1.6029 -1.1080 -0.5129
39008SOL     OW23115   8.389   5.483   5.488 -0.2013  0.7302 -0.1161
39008SOL    HW123116   8.467   5.508   5.539  1.1198 -0.6549 -1.3644
39008SOL    HW223117   8.319   5.476   5.553  1.1089  0.3309  1.3098
39009SOL     OW23118  10.728   3.400   1.402  0.6350 -0.7117  0.1420
39009SOL    HW123119  10.692   3.480   1.441  3.6931  0.3058  1.1313
39009SOL    HW223120  10.774   3.430   1.324 -2.0697 -2.2423 -2.2587
39010SOL     OW23121   7.809   5.741   0.648  0.0920 -0.5586 -0.1993
39010SOL    HW123122   7.783   5.831   0.627  0.4831 -0.6541 -1.1402
39010SOL    HW223123   7.904   5.742   0.640  0.0471 -1.2207 -0.8946
39011SOL     OW23124   8.585   0.641   5.328  0.6213  0.2492  0.6374
39011SOL    HW123125   8.527   0.698   5.279  2.3799  0.0777 -1.8545
39011SOL    HW223126   8.557   0.552   5.305  0.4489  0.1306  1.2721
39012SOL     OW23127   1.215   8.651   9.596 -0.0913 -0.5609  0.2318
39012SOL    HW123128   1.222   8.745   9.611  2.8520 -1.1241  3.6271
39012SOL    HW223129   1.155   8.620   9.664 -1.3459 -1.1726 -1.0993
39013SOL     OW23130   4.978   4.862   5.055 -0.0184 -0.5480 -0.0690
39013SOL    HW123131   5.027   4.874   5.136 -0.1057  0.5435 -0.1595
39013SOL    HW223132   4.890   4.895   5.075 -0.0885 -0.4257 -0.5586
39014SOL     OW23133   3.135   1.583   4.304 -0.7172 -0.3743  0.2987
39014SOL    HW123134   3.209   1.621   4.351  0.2032 -0.3879 -1.0890
39014SOL    HW223135   3.158   1.593   4.212 -1.9374 -1.4062 -0.1360
39015SOL     OW23136   5.701   9.764   9.945 -0.2816  0.2317  0.8488
39015SOL    HW123137   5.613   9.727   9.935 -0.4181  0.7617  0.0658
39015SOL    HW223138   5.758   9.705   9.896 -0.6564  1.6371 -1.4118
39016SOL     OW23139   2.687   6.838   7.437  0.5209 -0.1348  0.3566
39016SOL    HW123140   2.693   6.834   7.533  0.3830 -0.3846  0.3566
39016SOL    HW223141   2.700   6.930   7.416 -1.8427  0.3710  0.8067
39017SOL     OW23142   9.970   1.010   2.698  0.1496 -0.3865 -1.0669
39017SOL    HW123143   9.966   0.917   2.675 -0.0730 -0.0963 -2.2755
39017SOL    HW223144  10.058   1.037   2.672  0.7286 -0.5589  0.5924
39018SOL     OW23145   5.916   0.318   8.917 -0.1702  0.1966  0.7414
39018SOL    HW123146   5.991   0.374   8.896  0.1847  0.6760  2.9921
39018SOL    HW223147   5.848   0.347   8.857  1.0336  0.6514 -0.4732
39019SOL     OW23148  10.072   4.984   8.133 -0.3250  0.5485  0.4702
39019SOL    HW123149  10.121   4.927   8.073 -0.3905  1.0091 -0.0275
39019SOL    HW223150  10.015   4.924   8.181 -0.4807  0.2046 -0.1331
39020SOL     OW23151   6.024   6.562   7.894 -0.1689  0.0363 -0.0282
39020SOL    HW123152   6.117   6.550   7.875  0.4351  3.3549  0.2291
39020SOL    HW223153   5.981   6.548   7.810  0.6092 -0.8032 -0.3147
39021SOL     OW23154   7.122  10.809  10.212 -0.4934  0.0047 -0.3420
39021SOL    HW123155   7.037  10.852  10.215 -0.4893 -0.0135  0.5805
39021SOL    HW223156   7.129  10.775  10.124 -2.1497 -1.3998  0.0153
39022SOL     OW23157   1.705   1.729   9.917 -0.5579  0.3379  0.2404
39022SOL    HW123158   1.745   1.691   9.839 -1.4301 -1.0167  0.4145
39022SOL    HW223159   1.682   1.819   9.891 -3.2548 -0.8543 -2.0213
39023SOL     OW23160   6.847   6.677   3.586  0.0159  0.3645  0.1318
39023SOL    HW123161   6.875   6.617   3.517  3.9571 -0.3043  2.0163
39023SOL    HW223162   6.811   6.621   3.654  0.7454  0.4504  0.5993
39024SOL     OW23163   1.960  10.536   3.716 -0.1125 -0.3957 -0.4457
39024SOL    HW123164   1.954  10.584   3.633 -2.1891 -3.1285 -2.0106
39024SOL    HW223165   2.011  10.458   3.695 -0.0595 -0.8049  1.0813
39025SOL     OW23166   2.634   9.630   6.789  0.4048  0.6404  0.7211
39025SOL    HW123167   2.541   9.608   6.787  0.2793  0.9594  2.2259
39025SOL    HW223168   2.643   9.702   6.726  0.1175 -0.9658 -1.2711
39026SOL     OW23169   4.384   2.660   7.921 -0.2202 -0.8498 -0.3764
39026SOL    HW123170   4.478   2.644   7.914 -0.2333 -0.8015 -0.6588
39026SOL    HW223171   4.343   2.579   7.891 -0.2697 -0.8716 -0.2516
39027SOL     OW23172   6.258  10.754   6.218 -0.3906 -0.8898  0.0788
39027SOL    HW123173   6.231  10.695   6.288 -1.3045 -1.6708 -0.8907
39027SOL    HW223174   6.326  10.707   6.171 -0.3201 -0.6990 -0.0131
39028SOL     OW23175   2.359   2.720   7.447  0.0455  0.0187 -0.5490
39028SOL    HW123176   2.336   2.806   7.482 -1.1297 -0.2244 -0.7018
39028SOL    HW223177   2.407   2.739   7.367  1.3343  0.5448  0.3002
39029SOL     OW23178   1.839   7.596   1.736 -0.2545  0.2919  0.0867
39029SOL    HW123179   1.821   7.674   1.789  0.0257 -0.1527  0.8546
39029SOL    HW223180   1.752   7.561   1.715 -0.3851  0.8782 -0.3699
39030SOL     OW23181   6.842   8.384   0.583 -0.2079 -0.0824 -0.7987
39030SOL    HW123182   6.822   8.371   0.675 -1.0790  0.2234 -0.9346
39030SOL    HW223183   6.803   8.308   0.539  0.1364 -0.1868 -0.9306
39031SOL     OW23184   4.806   3.422   0.589 -0.5032 -0.3402 -0.3707
39031SOL    HW123185   4.764   3.371   0.520 -2.1385  0.4738 -0.0248
39031SOL    HW223186   4.890   3.449   0.551 -0.2692 -1.9674 -1.1081
39032SOL     OW23187   7.491  10.339   4.481  0.1640  0.8520 -0.3509
39032SOL    HW123188   7.574  10.385   4.469  1.2502 -0.5350  1.2699
39032SOL    HW223189   7.486  10.323   4.575  0.3887 -3.0409 -0.8178
39033SOL     OW23190   8.150   0.753   9.896  0.2643 -0.0591 -0.2047
39033SOL    HW123191   8.113   0.781   9.813 -0.7684  0.1813  0.3138
39033SOL    HW223192   8.178   0.663   9.882  0.6050  0.1639 -0.9662
39034SOL     OW23193   7.423   3.528  10.093 -0.0303  0.7606 -0.2108
39034SOL    HW123194   7.509   3.501  10.062 -0.4511  1.1890 -1.8112
39034SOL    HW223195   7.375   3.446  10.104  0.4530  0.5444  0.3568
39035SOL     OW23196   2.478   2.264   2.512  0.1111 -0.1246 -0.4752
39035SOL    HW123197   2.515   2.249   2.425  2.0376 -2.2564  0.6074
39035SOL    HW223198   2.408   2.200   2.520  0.0301 -0.0273 -0.3994
39036SOL     OW23199   2.187   1.069   9.056 -0.1865  0.0564 -0.6612
39036SOL    HW123200   2.222   0.988   9.093  1.0904  0.6135 -0.6206
39036SOL    HW223201   2.261   1.110   9.013 -1.0260  0.7892 -1.4475
39037SOL     OW23202   9.796   8.827   6.267  0.3401  1.0037 -0.3527
39037SOL    HW123203   9.806   8.856   6.176  1.2350 -1.0913 -0.9827
39037SOL    HW223204   9.874   8.859   6.311  1.4971 -0.6005 -1.1258
39038SOL     OW23205   7.236   8.555   1.642  0.6080 -0.5020 -0.3588
39038SOL    HW123206   7.317   8.533   1.690  0.1651 -0.1578  0.5714
39038SOL    HW223207   7.204   8.471   1.610  1.1138 -0.6957 -0.3708
39039SOL     OW23208   0.199   7.548   6.747  0.4741  0.6655  0.3304
39039SOL    HW123209   0.133   7.501   6.797  2.3737 -0.7738  1.6631
39039SOL    HW223210   0.235   7.482   6.687 -1.0007  2.0772 -2.2946
39040SOL     OW23211   0.083   7.700   5.364 -0.7957  0.4490  0.0622
39040SOL    HW123212   0.131   7.771   5.320 -1.9456  1.5171  0.4500
39040SOL    HW223213   0.045   7.742   5.442  1.4048 -1.4421  2.2884
39041SOL     OW23214   2.777   1.366   5.494  0.2589  0.0380 -0.0250
39041SOL    HW123215   2.819   1.451   5.506 -0.2511  0.0750  1.6632
39041SOL    HW223216   2.695   1.373   5.542 -0.5866 -0.8508 -1.2862
39042SOL     OW23217   5.577   1.520   1.897 -0.0963  1.0939 -0.1259
39042SOL    HW123218   5.534   1.600   1.928 -1.5825 -0.5157  2.2882
39042SOL    HW223219   5.644   1.502   1.962 -1.0729 -0.5945  0.4865
39043SOL     OW23220   6.563   5.241   0.344  0.5046 -0.9535 -0.0095
39043SOL    HW123221   6.505   5.300   0.296 -1.0463 -1.8506  0.7090
39043SOL    HW223222   6.627   5.213   0.279  0.9995  1.1090 -0.4933
39044SOL     OW23223   4.409   9.745   3.086  0.5137  0.1645 -0.2112
39044SOL    HW123224   4.341   9.678   3.078  1.5540 -1.0896  1.0241
39044SOL    HW223225   4.477   9.718   3.024  1.7275 -0.9777  1.5402
39045SOL     OW23226   8.296   7.862   2.211 -0.1181  0.5666  0.4409
39045SOL    HW123227   8.227   7.863   2.145  0.3865  1.0436 -0.0927
39045SOL    HW223228   8.322   7.770   2.216 -1.2072  0.2766  1.1080
39046SOL     OW23229   8.860   2.130   7.262 -0.4666 -0.3305 -0.1396
39046SOL    HW123230   8.887   2.199   7.201 -0.6556 -0.7247 -0.6759
39046SOL    HW223231   8.769   2.151   7.284  0.1019  0.7456  1.3172
39047SOL     OW23232   7.988  10.186   0.877  0.5651  0.4569 -0.4772
39047SOL    HW123233   8.075  10.147   0.869  0.3990  0.2882 -1.6591
39047SOL    HW223234   7.998  10.251   0.947  0.4847 -2.6139  2.6555
39048SOL     OW23235   7.403   7.763   8.551 -0.4802 -0.3433 -0.2675
39048SOL    HW123236   7.416   7.770   8.645  0.3153 -1.2424 -0.2973
39048SOL    HW223237   7.441   7.679   8.527 -3.5872 -1.7059 -0.9147
39049SOL     OW23238   8.568  10.746   5.239 -0.0854 -0.2045  0.5728
39049SOL    HW123239   8.509  10.751   5.164 -2.3526  0.3622  2.2695
39049SOL    HW223240   8.588  10.837   5.260 -0.5603 -0.2918  1.4322
39050SOL     OW23241   2.552   1.267   7.912 -0.9559  0.0144  0.0417
39050SOL    HW123242   2.598   1.348   7.936  0.1192 -0.3709 -0.6212
39050SOL    HW223243   2.611   1.197   7.940 -1.4925 -0.5154 -0.1444
39051SOL     OW23244   0.853   4.734   6.378  0.2289 -0.3707  0.0404
39051SOL    HW123245   0.924   4.681   6.342 -0.1428 -2.3447  2.0341
39051SOL    HW223246   0.877   4.748   6.470 -1.1406  0.3575  0.3171
39052SOL     OW23247   9.043   8.543   5.032 -0.5216  0.6009 -0.0433
39052SOL    HW123248   9.092   8.625   5.022  0.9265 -0.0718  1.1821
39052SOL    HW223249   8.985   8.541   4.956  0.3154  2.1406 -0.7817
39053SOL     OW23250  10.435   6.723   7.208  0.1423 -0.0117  0.1845
39053SOL    HW123251  10.356   6.685   7.169  2.3864 -3.8184 -1.1908
39053SOL    HW223252  10.444   6.808   7.165 -1.7800 -0.6228 -1.6187
39054SOL     OW23253   1.277   5.253   6.776 -0.0465 -0.9118  0.2984
39054SOL    HW123254   1.278   5.267   6.871 -0.2560  0.9872  0.0553
39054SOL    HW223255   1.297   5.339   6.739  0.5560 -1.7379 -1.3882
39055SOL     OW23256   0.866   2.759   1.358  0.2880  0.0636 -0.8128
39055SOL    HW123257   0.863   2.702   1.281  2.1299 -0.5900 -0.4382
39055SOL    HW223258   0.956   2.753   1.389 -0.1612  1.1177  0.8051
39056SOL     OW23259   8.739   7.705   8.478 -1.0961  0.0160 -0.0222
39056SOL    HW123260   8.824   7.728   8.515  0.1544 -2.3640 -1.1587
39056SOL    HW223261   8.677   7.718   8.550  0.2829  1.3064  0.9982
39057SOL     OW23262   2.201   1.974   3.111  0.4181 -0.5099 -0.4990
39057SOL    HW123263   2.224   1.881   3.118  1.5117 -0.2188  0.0853
39057SOL    HW223264   2.192   2.003   3.202 -0.2719 -0.1117 -0.6824
39058SOL     OW23265   2.631   7.967   3.711 -0.4478  0.4767 -1.0783
39058SOL    HW123266   2.716   7.982   3.751 -1.4441  4.0312  0.1367
39058SOL    HW223267   2.650   7.930   3.625  2.3439  1.4060 -0.9433
39059SOL     OW23268  10.202   1.833   9.505  0.4549  0.4849  0.5273
39059SOL    HW123269  10.288   1.810   9.468  0.2818 -0.2415  0.5630
39059SOL    HW223270  10.211   1.815   9.598  0.3830  0.7767  0.5899
39060SOL     OW23271   6.152   4.185   5.620  0.2158  0.1988  0.0870
39060SOL    HW123272   6.122   4.135   5.696  0.4225  0.1432  0.1309
39060SOL    HW223273   6.230   4.230   5.650  1.2690 -1.1241 -0.5591
39061SOL     OW23274   9.743   1.493   5.850  0.2080 -0.1107 -0.1151
39061SOL    HW123275   9.759   1.550   5.926  0.7706  0.0757 -0.3745
39061SOL    HW223276   9.700   1.416   5.888  1.2151 -0.3821  0.5147
39062SOL     OW23277   8.381   9.446   9.439 -0.5807  0.0947 -0.0704
39062SOL    HW123278   8.365   9.541   9.438 -2.2968 -0.1461  0.7619
39062SOL    HW223279   8.294   9.407   9.429  0.1911 -1.4191 -1.2374
39063SOL     OW23280   3.243   7.643   3.573  0.1992  0.1712 -0.1372
39063SOL    HW123281   3.258   7.629   3.480  0.3659 -0.2665 -0.0459
39063SOL    HW223282   3.241   7.555   3.611 -0.8771  0.2927  0.1206
39064SOL     OW23283   9.383   2.499   8.480  0.4175 -0.1123  0.4360
39064SOL    HW123284   9.323   2.462   8.545 -1.2066 -0.0300 -0.9482
39064SOL    HW223285   9.376   2.440   8.405  1.9127  0.0429  0.1518
39065SOL     OW23286   5.008   8.232   8.621  0.2340 -0.3689  0.1266
39065SOL    HW123287   5.071   8.304   8.618  1.1940 -1.1665 -3.6748
39065SOL    HW223288   5.054   8.164   8.671  0.7388  0.4103  0.7611
39066SOL     OW23289   0.478   9.493   9.674 -0.3612 -0.2671 -0.5739
39066SOL    HW123290   0.486   9.399   9.690  3.6858  0.0315  0.1502
39066SOL    HW223291   0.452   9.530   9.758 -0.9422 -0.6065 -0.5970
39067SOL     OW23292   1.639  10.901   3.444  0.0916 -0.2973 -0.0221
39067SOL    HW123293   1.544  10.890   3.440 -0.0898  0.9296  0.3780
39067SOL    HW223294   1.666  10.913   3.353 -0.1121 -0.8624 -0.1562
39068SOL     OW23295   0.459   3.672   0.711  0.4777  0.3353  0.6227
39068SOL    HW123296   0.365   3.668   0.690  0.3039 -0.5781  1.4773
39068SOL    HW223297   0.503   3.657   0.627 -0.1314  1.2587  0.1263
39069SOL     OW23298   5.582   3.958  10.045  0.4330 -0.1662  0.6027
39069SOL    HW123299   5.570   3.933   9.953  2.1832  0.3769  0.1936
39069SOL    HW223300   5.508   3.917  10.090 -0.9100  0.1866 -1.1371
39070SOL     OW23301   7.940   7.912   8.025  0.1712  0.3267 -0.0804
39070SOL    HW123302   8.004   7.853   8.065  1.0452  0.3834 -1.3403
39070SOL    HW223303   7.875   7.927   8.094  1.4476  0.1913  1.2043
39071SOL     OW23304  10.924   1.373   0.533 -0.1466  0.1602  0.2094
39071SOL    HW123305  10.934   1.336   0.445  2.0329 -0.3987  0.6298
39071SOL    HW223306  10.971   1.456   0.530 -2.5744  1.6250  0.0892
39072SOL     OW23307   2.750   1.324   9.115  0.1051 -0.6753  0.4930
39072SOL    HW123308   2.725   1.242   9.073 -1.0659  0.2898 -0.7927
39072SOL    HW223309   2.667   1.362   9.145  0.4003  0.8440 -0.5094
39073SOL     OW23310   7.560   9.308   4.491 -0.0996  0.3554 -0.5402
39073SOL    HW123311   7.497   9.309   4.563 -0.0223 -0.2620 -0.4582
39073SOL    HW223312   7.507   9.325   4.413  0.0094  2.4277 -0.2209
39074SOL     OW23313   0.309   2.398   1.512 -0.4578 -0.3991 -0.1273
39074SOL    HW123314   0.275   2.318   1.551 -1.0458  0.4334  1.0974
39074SOL    HW223315   0.296   2.466   1.578  2.0940  0.2913 -0.2206
39075SOL     OW23316   2.167   0.498   6.426  0.3455  0.2013  0.2758
39075SOL    HW123317   2.218   0.560   6.374  1.4599 -0.7787  0.1523
39075SOL    HW223318   2.224   0.477   6.500  0.2135 -1.0821  0.0259
39076SOL     OW23319   7.429   3.370   7.541  0.2466 -0.1047  0.2168
39076SOL    HW123320   7.403   3.432   7.610 -0.0469 -0.1815  0.1796
39076SOL    HW223321   7.488   3.420   7.485 -1.6395  0.8618 -1.0418
39077SOL     OW23322   0.869   7.359   3.711 -0.5373 -0.0947 -0.5776
39077SOL    HW123323   0.888   7.391   3.623  0.0908  0.5617 -0.2163
39077SOL    HW223324   0.783   7.395   3.732  0.1559  1.3970 -0.1807
39078SOL     OW23325   8.703   6.782   5.129  0.3127  0.3675  0.6718
39078SOL    HW123326   8.735   6.719   5.193  0.7266 -0.1401 -0.0197
39078SOL    HW223327   8.776   6.795   5.069 -1.4887 -3.2132 -2.8387
39079SOL     OW23328   5.020   1.868  10.321 -1.2669  0.0294 -0.2401
39079SOL    HW123329   5.101   1.877  10.271 -2.1246 -0.9466 -1.9240
39079SOL    HW223330   5.031   1.787  10.371 -0.2247  1.2425  1.6226
39080SOL     OW23331   0.103   0.196   6.059 -0.0688 -0.3641  0.5155
39080SOL    HW123332   0.127   0.276   6.105 -1.2369  0.1396  0.2915
39080SOL    HW223333   0.042   0.152   6.119 -0.8113 -0.2019 -0.1125
39081SOL     OW23334   6.272   6.993  10.234 -0.0431 -0.2006  0.3852
39081SOL    HW123335   6.325   7.065  10.268 -0.0335  0.0067 -0.0734
39081SOL    HW223336   6.214   6.970  10.307 -0.6939  0.8877  0.2297
39082SOL     OW23337   3.573   1.537   6.676  0.1396  0.5144  0.4162
39082SOL    HW123338   3.580   1.611   6.736 -1.4562  1.3926 -0.4465
39082SOL    HW223339   3.629   1.561   6.602 -0.5813  1.0122  0.0165
39083SOL     OW23340   3.750   4.906  10.534 -0.6443 -0.2013  0.1078
39083SOL    HW123341   3.719   4.978  10.588  0.3154 -0.2419  0.7501
39083SOL    HW223342   3.671   4.866  10.498 -1.1952  1.0964 -0.1692
39084SOL     OW23343   6.092   1.058   8.775  0.1350 -0.4784 -0.0204
39084SOL    HW123344   6.014   1.029   8.728  1.5552 -1.7085 -1.7653
39084SOL    HW223345   6.137   1.116   8.713 -0.7310  2.6301  2.0098
39085SOL     OW23346   4.780   2.458   1.355 -0.4145  0.0043 -0.1912
39085SOL    HW123347   4.867   2.447   1.318 -0.7617 -1.3462 -0.6858
39085SOL    HW223348   4.778   2.401   1.432 -1.0925 -0.6087 -0.6411
39086SOL     OW23349   6.285   1.921   2.857  0.1357 -0.2199 -0.1159
39086SOL    HW123350   6.246   1.869   2.927 -0.3844 -0.2857 -0.4406
39086SOL    HW223351   6.325   1.856   2.799 -0.0470 -0.2208 -0.2425
39087SOL     OW23352   1.710   4.241   4.656 -0.5126 -0.0237 -0.1472
39087SOL    HW123353   1.749   4.168   4.608  0.6390  0.4759 -0.0024
39087SOL    HW223354   1.684   4.303   4.588  1.6886  0.9694 -0.1911
39088SOL     OW23355   7.155   8.316   4.492 -0.0184  0.3281  0.3630
39088SOL    HW123356   7.108   8.281   4.568 -2.7484  0.6415 -1.0443
39088SOL    HW223357   7.208   8.243   4.461 -3.1982 -1.7494 -0.6697
39089SOL     OW23358   4.896   8.705   2.835  0.6245  0.1998  0.1642
39089SOL    HW123359   4.977   8.743   2.870  0.2822 -1.0059  2.4712
39089SOL    HW223360   4.829   8.729   2.898 -0.2680 -1.1257 -0.2386
39090SOL     OW23361   6.816   0.612   9.166 -0.3221 -0.0332 -0.4506
39090SOL    HW123362   6.822   0.707   9.159 -4.3784  0.4733  0.4523
39090SOL    HW223363   6.862   0.591   9.247  2.2428  0.7863 -1.5818
39091SOL     OW23364   1.969   7.090   6.638  0.1246  0.0569 -0.2219
39091SOL    HW123365   2.062   7.073   6.653  0.3034  0.6290 -0.6992
39091SOL    HW223366   1.932   7.003   6.622  0.1541 -0.4760  2.1865
39092SOL     OW23367   2.585   4.063   9.607 -0.2766  0.8442 -0.1633
39092SOL    HW123368   2.650   4.110   9.556  0.5606  1.6073  1.5664
39092SOL    HW223369   2.600   4.089   9.697 -3.0723  1.1781  0.3180
39093SOL     OW23370   5.181   6.663   7.187  0.0326 -0.1473  0.3018
39093SOL    HW123371   5.132   6.730   7.139  0.7594  1.1454  1.3088
39093SOL    HW223372   5.271   6.671   7.156  0.4113  0.3498  1.4657
39094SOL     OW23373   0.767  10.338   6.224 -0.1519 -0.2540  0.4319
39094SOL    HW123374   0.738  10.263   6.276  0.2602 -0.5127  0.2861
39094SOL    HW223375   0.806  10.398   6.288 -0.2431 -0.2763  0.5089
39095SOL     OW23376   7.369   8.490   6.356  0.2258 -0.1490 -0.1798
39095SOL    HW123377   7.283   8.502   6.395  0.1339 -2.8614  0.6694
39095SOL    HW223378   7.420   8.565   6.388 -1.6819  1.3611 -0.4724
39096SOL     OW23379   2.130   9.259   4.111 -0.0947  0.3274  0.1208
39096SOL    HW123380   2.132   9.340   4.163 -0.8567 -0.6432  1.7468
39096SOL    HW223381   2.157   9.191   4.173 -0.4701 -0.8010 -0.9322
39097SOL     OW23382   9.677  10.251   4.589  0.1375  0.4398 -0.2903
39097SOL    HW123383   9.659  10.246   4.496  0.4240 -1.6684 -0.2725
39097SOL    HW223384   9.772  10.263   4.594  0.1706  0.1519 -0.2557
39098SOL     OW23385   1.791   3.715  10.556 -0.0831  0.5823 -0.2820
39098SOL    HW123386   1.870   3.712  10.611 -0.3058  3.1258  0.2698
39098SOL    HW223387   1.825   3.728  10.467  0.1517 -0.1504 -0.3102
39099SOL     OW23388   5.347   5.642   8.759 -0.0846  0.7872  0.0701
39099SOL    HW123389   5.262   5.601   8.741  0.7991 -2.2853  2.1803
39099SOL    HW223390   5.327   5.711   8.823 -0.9980  0.0687  0.5896
39100SOL     OW23391   5.328   6.075  10.640  0.0680  0.5097 -0.0001
39100SOL    HW123392   5.250   6.128  10.625 -1.1769 -0.7134  1.8546
39100SOL    HW223393   5.356   6.097  10.729  1.0889 -0.0171 -0.1702
39101SOL     OW23394   4.359   7.963   6.443  0.1763  0.6455 -0.6348
39101SOL    HW123395   4.303   8.023   6.493 -0.1158  0.3050 -0.5550
39101SOL    HW223396   4.315   7.954   6.358  0.7684  1.3721 -1.0347
39102SOL     OW23397   4.951  10.140   4.233 -0.3782 -0.8719  0.5368
39102SOL    HW123398   5.018  10.073   4.222  0.0161 -0.5094  0.6629
39102SOL    HW223399   4.869  10.092   4.242  0.1107 -1.4312  2.3925
39103SOL     OW23400   2.303   9.613   8.525 -0.3609  0.5946 -0.3620
39103SOL    HW123401   2.307   9.704   8.496  0.5736  0.8746  0.5696
39103SOL    HW223402   2.352   9.564   8.459 -0.2944  0.8726 -0.5188
39104SOL     OW23403   3.544   3.120   0.769  0.1951 -0.0682 -0.5784
39104SOL    HW123404   3.546   3.074   0.852 -2.2447 -1.3740 -1.1325
39104SOL    HW223405   3.559   3.212   0.791  0.9193 -0.5570  1.0922
39105SOL     OW23406   2.351   9.058   8.079 -0.1869 -0.0982  0.0829
39105SOL    HW123407   2.433   9.089   8.041  1.1967 -2.6462  0.7563
39105SOL    HW223408   2.321   8.989   8.020 -1.0221 -0.2404  0.6485
39106SOL     OW23409   2.351   4.821   2.169  0.4820  0.1089 -0.2667
39106SOL    HW123410   2.442   4.796   2.155  1.5040  2.9676  0.4935
39106SOL    HW223411   2.315   4.831   2.081 -0.1477 -3.9147 -0.6570
39107SOL     OW23412   1.211   6.670   5.837  0.2674  0.4526 -0.8106
39107SOL    HW123413   1.150   6.595   5.836 -0.9541  1.3487  0.6872
39107SOL    HW223414   1.297   6.630   5.841 -0.3873 -0.9712  1.0548
39108SOL     OW23415  10.456   2.617   2.057  0.3389 -0.3668  0.0588
39108SOL    HW123416  10.531   2.560   2.039  0.2046 -0.9517  1.2423
39108SOL    HW223417  10.384   2.557   2.078 -1.1125  0.0825 -3.1061
39109SOL     OW23418   4.471   4.397   7.702 -0.5133 -0.3712  0.2055
39109SOL    HW123419   4.441   4.483   7.732  0.1914 -0.2772  0.6676
39109SOL    HW223420   4.395   4.340   7.711 -0.9153  0.1501  0.1355
39110SOL     OW23421   9.886   5.971   0.302 -0.2333 -0.2079  0.4168
39110SOL    HW123422   9.873   6.009   0.215 -0.7680 -1.1069  0.0903
39110SOL    HW223423   9.802   5.984   0.347 -0.6091 -1.4636  0.1087
39111SOL     OW23424   8.245   4.897   8.495 -0.1066 -0.3786  0.4379
39111SOL    HW123425   8.268   4.815   8.453  1.4184 -0.6278  1.6792
39111SOL    HW223426   8.194   4.872   8.572  1.2271 -0.2658  1.3878
39112SOL     OW23427   3.202   7.402   8.334 -0.0692 -0.1009  0.4168
39112SOL    HW123428   3.165   7.403   8.245 -0.4280  3.3634  0.4665
39112SOL    HW223429   3.297   7.407   8.320 -0.0861 -0.3021  0.2227
39113SOL     OW23430  10.549   3.415   9.627 -0.3184  0.1264 -0.2617
39113SOL    HW123431  10.590   3.341   9.672 -1.3037 -1.0232 -1.1699
39113SOL    HW223432  10.591   3.417   9.541 -0.6427  0.2992 -0.4164
39114SOL     OW23433   0.330   0.160   3.521  0.0013 -0.3064  0.1472
39114SOL    HW123434   0.258   0.207   3.479 -2.1975 -1.0257  2.8458
39114SOL    HW223435   0.369   0.223   3.580 -0.6021 -0.8164  1.1107
39115SOL     OW23436   8.888   2.416   6.475 -0.3416 -0.4191 -0.0933
39115SOL    HW123437   8.793   2.399   6.477 -0.5371  0.5841 -0.2534
39115SOL    HW223438   8.911   2.413   6.383  0.0501 -1.9684  0.0322
39116SOL     OW23439   3.792   0.120   0.823 -0.0113  0.3584 -0.0893
39116SOL    HW123440   3.828   0.079   0.902  2.0468  1.5447 -0.3226
39116SOL    HW223441   3.853   0.095   0.754  0.1619  2.0613 -0.6149
39117SOL     OW23442   1.632   1.643   0.178 -0.0976  0.0176  0.2431
39117SOL    HW123443   1.687   1.701   0.126  0.6151 -0.0649  0.8919
39117SOL    HW223444   1.546   1.686   0.179  0.5241  1.3073  1.0811
39118SOL     OW23445   0.262   3.620   8.043 -0.0490  0.2013 -0.2133
39118SOL    HW123446   0.198   3.634   7.973 -2.8192 -1.0376  1.9121
39118SOL    HW223447   0.211   3.625   8.124  2.6227 -0.6069  1.6489
39119SOL     OW23448   6.127   3.429   3.801 -0.1902 -0.1026  0.1691
39119SOL    HW123449   6.039   3.425   3.838 -0.0408  1.5170  0.7736
39119SOL    HW223450   6.182   3.461   3.872  0.7880 -0.5244 -0.3795
39120SOL     OW23451   3.361   6.608   1.774 -1.2093  0.2938  0.2252
39120SOL    HW123452   3.269   6.613   1.799 -1.9138 -1.4396 -1.7002
39120SOL    HW223453   3.364   6.646   1.686  0.8080  4.4308  1.7943
39121SOL     OW23454   9.019   7.596   9.855  0.4251 -0.6770 -0.1232
39121SOL    HW123455   9.086   7.597   9.924 -0.4625 -0.8543  0.7507
39121SOL    HW223456   8.975   7.680   9.864  0.2307 -0.7484 -0.4066
39122SOL     OW23457   0.364   8.034   8.224 -0.0101  0.5637  0.3368
39122SOL    HW123458   0.290   7.979   8.252  0.9640 -0.8901  0.1721
39122SOL    HW223459   0.440   7.995   8.267  1.2725 -0.5665 -2.6854
39123SOL     OW23460   1.802  10.835   0.078 -0.2902 -0.3834  0.3661
39123SOL    HW123461   1.884  10.880   0.096  0.1776 -0.4728 -1.3196
39123SOL    HW223462   1.752  10.896   0.023 -2.2471  0.4952  2.9202
39124SOL     OW23463  10.926   2.817   6.354  0.2659  0.0175  0.6499
39124SOL    HW123464  10.986   2.768   6.297 -0.2668 -1.1152  1.0270
39124SOL    HW223465  10.968   2.815   6.440  0.1902  0.1361  0.6891
39125SOL     OW23466  10.474   7.915   8.182  0.1293  0.0057  1.0956
39125SOL    HW123467  10.473   7.913   8.278  0.5121  0.3032  1.1104
39125SOL    HW223468  10.386   7.889   8.156  0.2563 -0.9007  1.5116
39126SOL     OW23469   7.051   1.827   3.938  0.1041 -0.0361 -0.0317
39126SOL    HW123470   7.084   1.896   3.881 -1.1709 -0.4436 -1.3313
39126SOL    HW223471   7.011   1.873   4.012  0.9259  0.5297  0.0769
39127SOL     OW23472   5.734   0.661   5.817  0.2659  0.0684  0.6806
39127SOL    HW123473   5.639   0.650   5.818  0.1073  1.2684  0.8101
39127SOL    HW223474   5.768   0.575   5.796 -0.8659 -0.3234  0.3755
39128SOL     OW23475   9.879   3.089   6.444 -0.0392 -0.5579 -0.3521
39128SOL    HW123476   9.927   3.144   6.507 -1.8991  1.7745 -0.8108
39128SOL    HW223477   9.897   3.130   6.359 -0.2572 -1.6378 -0.9293
39129SOL     OW23478   9.444   2.682   2.342  0.5867 -0.2867  0.4541
39129SOL    HW123479   9.502   2.634   2.284  0.0406  0.0807 -0.4104
39129SOL    HW223480   9.494   2.757   2.371  0.4105  0.2750 -0.6464
39130SOL     OW23481   8.944   3.339   6.500 -0.5496 -0.6464 -0.0387
39130SOL    HW123482   9.003   3.316   6.572  0.5868 -0.5826 -0.9161
39130SOL    HW223483   9.000   3.385   6.438 -1.3751 -1.1981 -1.2197
39131SOL     OW23484   5.127   5.106   0.149 -0.1673  0.5761  0.4521
39131SOL    HW123485   5.123   5.167   0.223  0.7558  0.2499  0.7889
39131SOL    HW223486   5.137   5.020   0.189  0.7932  0.4402 -0.0436
39132SOL     OW23487  10.432   0.657   2.253  0.1992  0.4244  0.1699
39132SOL    HW123488  10.435   0.573   2.209  2.0264  0.8278 -0.5852
39132SOL    HW223489  10.369   0.709   2.204 -0.2298 -0.1846  0.0706
39133SOL     OW23490   6.458   5.744   8.542 -0.4074 -0.0956  0.2401
39133SOL    HW123491   6.371   5.714   8.572  0.4053 -0.6765  2.1950
39133SOL    HW223492   6.493   5.793   8.617  1.7992 -1.6729  0.3378
39134SOL     OW23493   5.630   3.749   4.857  0.1014 -0.0550  0.2851
39134SOL    HW123494   5.724   3.736   4.869  0.3508  0.9348 -0.5137
39134SOL    HW223495   5.594   3.660   4.853  1.1006 -0.4499 -0.1784
39135SOL     OW23496   0.016   6.901   7.724  0.0718 -0.4428  0.6088
39135SOL    HW123497   0.001   6.850   7.645  2.0815  0.1109 -0.1967
39135SOL    HW223498  -0.035   6.981   7.711 -0.4910 -0.8283  0.3992
39136SOL     OW23499   2.177   6.074   1.859  0.6121 -0.6887  0.3707
39136SOL    HW123500   2.139   6.143   1.913 -0.6820  0.5483 -1.9905
39136SOL    HW223501   2.179   5.997   1.917 -1.3932  0.3588  1.9662
39137SOL     OW23502   7.121   2.729   4.036  0.1324  0.0163  0.3725
39137SOL    HW123503   7.132   2.816   3.998  0.2208 -0.6030 -1.0967
39137SOL    HW223504   7.207   2.707   4.073  0.5727 -0.0669 -0.6616
39138SOL     OW23505   2.054   3.338   3.893 -0.2827 -0.5105  0.3838
39138SOL    HW123506   1.980   3.333   3.832  0.3470 -1.6013 -0.3309
39138SOL    HW223507   2.120   3.280   3.854  0.8734  0.2975  1.1054
39139SOL     OW23508   7.276   7.536   8.253 -0.0586  0.3840  0.1654
39139SOL    HW123509   7.287   7.483   8.332 -0.3460  0.7621  0.4694
39139SOL    HW223510   7.358   7.526   8.206  0.5545  1.0201  1.0573
39140SOL     OW23511   2.253   1.702   3.181 -0.3785  0.3198  0.4253
39140SOL    HW123512   2.340   1.670   3.204 -0.8098 -2.2426 -1.1106
39140SOL    HW223513   2.202   1.695   3.263  0.2556 -0.4399  0.7646
39141SOL     OW23514   7.640   8.932   5.447 -0.0342 -0.1017  0.2692
39141SOL    HW123515   7.604   8.918   5.359 -1.9891 -1.2411  1.1795
39141SOL    HW223516   7.718   8.876   5.450  0.6379  0.7146 -1.0293
39142SOL     OW23517   0.633   8.632   9.072  0.2341 -0.3604 -0.0390
39142SOL    HW123518   0.613   8.569   9.142 -0.6038 -0.7249 -0.5962
39142SOL    HW223519   0.727   8.648   9.081 -0.0005  0.2414  1.6969
39143SOL     OW23520   7.926   9.637   8.861 -0.1535 -0.4510  0.0984
39143SOL    HW123521   7.905   9.716   8.812 -3.1461 -0.5291  1.1102
39143SOL    HW223522   7.851   9.580   8.849  1.1687 -2.4638  0.8481
39144SOL     OW23523   9.150   7.465   3.754  0.1027  0.4066 -0.7600
39144SOL    HW123524   9.216   7.463   3.823  1.0531  2.6485 -1.4997
39144SOL    HW223525   9.070   7.493   3.797 -0.0127 -0.8056 -0.1377
39145SOL     OW23526   9.622   3.628   2.247 -0.5884  0.2584  0.3656
39145SOL    HW123527   9.582   3.657   2.165 -2.5055 -0.4490  1.0015
39145SOL    HW223528   9.619   3.705   2.304  0.3960  0.6426 -0.0941
39146SOL     OW23529   1.347   2.230   2.846 -0.3978  0.1781 -0.9112
39146SOL    HW123530   1.382   2.181   2.772 -2.8615 -3.0438 -0.1441
39146SOL    HW223531   1.388   2.191   2.923 -0.4977  1.1030 -0.3659
39147SOL     OW23532   2.698   6.807   0.448 -0.2131  0.6820  0.3818
39147SOL    HW123533   2.666   6.721   0.423 -1.5880  1.5349 -0.9354
39147SOL    HW223534   2.639   6.836   0.518  0.7279  0.2644  1.3805
39148SOL     OW23535   1.705   2.205   5.226  0.3258  0.3424 -0.0908
39148SOL    HW123536   1.730   2.147   5.154  2.9013  2.9283 -1.4880
39148SOL    HW223537   1.785   2.214   5.278 -0.2502  1.9324  0.5846
39149SOL     OW23538  10.546   7.388   1.608 -0.5532  0.2352  0.3531
39149SOL    HW123539  10.514   7.473   1.638  0.3683  0.2563  1.3373
39149SOL    HW223540  10.621   7.409   1.553 -0.8830  0.0831 -0.1691
39150SOL     OW23541   9.836   2.521   9.318 -0.7258 -1.2937 -0.0213
39150SOL    HW123542   9.896   2.593   9.339 -1.6124 -0.5210 -0.0338
39150SOL    HW223543   9.854   2.454   9.384 -0.2472 -0.8383  0.3180
39151SOL     OW23544  10.795   2.025   2.985 -0.7714  0.3442 -0.0112
39151SOL    HW123545  10.747   2.034   3.067 -2.3850 -1.6250 -0.6437
39151SOL    HW223546  10.734   2.053   2.918 -1.1730 -2.1868 -0.8319
39152SOL     OW23547   0.859   1.105   2.646 -0.1508 -0.1216  0.5015
39152SOL    HW123548   0.818   1.172   2.592  2.3271  2.0177  1.0898
39152SOL    HW223549   0.843   1.023   2.599  0.2306  1.3868 -2.4736
39153SOL     OW23550   3.697  10.805   8.875  0.4374 -0.1444  0.6308
39153SOL    HW123551   3.745  10.734   8.832  1.2261  0.5098  0.3971
39153SOL    HW223552   3.679  10.867   8.805  0.1180  0.0845  0.9152
39154SOL     OW23553   0.367   3.057   4.640  0.4793  0.4090  0.7327
39154SOL    HW123554   0.273   3.053   4.625  0.6977  1.4094 -1.2003
39154SOL    HW223555   0.387   2.978   4.690 -1.1894 -0.4706  0.0854
39155SOL     OW23556   0.734   8.733   8.172 -0.3910  0.0321 -0.0841
39155SOL    HW123557   0.708   8.689   8.253 -2.2666 -0.4890 -0.9124
39155SOL    HW223558   0.682   8.814   8.171 -3.1060 -1.5827 -2.3503
39156SOL     OW23559  10.419   5.549   7.676  0.2059 -0.6238  0.4012
39156SOL    HW123560  10.404   5.473   7.619  0.3419 -0.7155  0.4858
39156SOL    HW223561  10.512   5.570   7.662  0.0926 -0.2846  0.1478
39157SOL     OW23562   8.088   9.271   7.246 -0.4844 -0.0873 -0.0216
39157SOL    HW123563   8.162   9.323   7.215 -0.5560 -0.5011 -0.9156
39157SOL    HW223564   8.013   9.305   7.197 -0.2760 -2.0684 -1.8563
39158SOL     OW23565   4.769   7.202   4.592 -0.1744  0.1712 -0.1407
39158SOL    HW123566   4.858   7.169   4.582 -0.3826 -0.4711  0.0798
39158SOL    HW223567   4.780   7.297   4.601  0.5814  0.0050  0.9899
39159SOL     OW23568   3.231   1.223   3.981  0.3646  0.2465 -0.4362
39159SOL    HW123569   3.140   1.250   3.970  0.1690 -0.4709 -0.6756
39159SOL    HW223570   3.227   1.150   4.043  0.8644  0.7101  0.1499
39160SOL     OW23571   6.560  10.416   9.913  0.5465 -0.0828 -0.3153
39160SOL    HW123572   6.619  10.430   9.839 -1.6427 -1.0396 -2.3571
39160SOL    HW223573   6.498  10.489   9.909  1.4897  0.9254  1.8177
39161SOL     OW23574   5.659  10.385   9.652  0.4181 -0.0618  0.3220
39161SOL    HW123575   5.691  10.301   9.686 -0.6365 -0.5877  0.0434
39161SOL    HW223576   5.624  10.365   9.566  1.0406  0.8622 -0.1691
39162SOL     OW23577   0.762   4.031  10.722 -0.1851  0.0232 -0.3881
39162SOL    HW123578   0.834   3.977  10.688 -0.7834 -0.2282 -1.2961
39162SOL    HW223579   0.804   4.090  10.784  0.8672  0.1403 -1.1800
39163SOL     OW23580   5.935  10.927   4.019  0.1608  0.4068  0.0772
39163SOL    HW123581   5.842  10.910   4.037  0.6260 -1.3554  1.0818
39163SOL    HW223582   5.959  10.995   4.082 -0.0831 -0.3028  0.9723
39164SOL     OW23583   9.251   5.393   5.584 -0.1413 -0.1863  0.0768
39164SOL    HW123584   9.181   5.330   5.568  0.5435 -1.0455  0.3110
39164SOL    HW223585   9.228   5.434   5.667  0.1639 -1.2625  0.7219
39165SOL     OW23586   9.779   4.368   1.120 -0.4104 -0.1813  0.0230
39165SOL    HW123587   9.684   4.366   1.133 -0.4971  1.3191 -0.1794
39165SOL    HW223588   9.813   4.304   1.182 -1.4846 -0.0134  0.8154
39166SOL     OW23589   9.221   2.212   1.038  0.6364  0.7485  0.1337
39166SOL    HW123590   9.261   2.184   1.120  3.2144 -1.4426 -1.6996
39166SOL    HW223591   9.288   2.267   0.996 -0.8117  2.2081 -0.3670
39167SOL     OW23592   9.687   3.495   6.927 -0.2683 -0.3624 -0.0940
39167SOL    HW123593   9.665   3.403   6.936  1.4630 -0.9030 -1.0112
39167SOL    HW223594   9.607   3.536   6.894 -0.8033 -1.6770 -0.4776
39168SOL     OW23595   8.956   4.729   8.695 -0.2755 -0.1211 -0.1321
39168SOL    HW123596   8.994   4.756   8.778  2.0579 -1.1091 -0.7816
39168SOL    HW223597   8.940   4.635   8.705  2.9722 -0.9840 -1.6811
39169SOL     OW23598   4.337   9.696   1.712  0.3344 -0.1642 -0.1466
39169SOL    HW123599   4.268   9.633   1.690 -1.2018  1.2784  0.4084
39169SOL    HW223600   4.349   9.747   1.632 -0.5685  0.7871  0.3150
39170SOL     OW23601  10.008   5.239   7.347 -0.6000  1.0785 -0.2814
39170SOL    HW123602  10.061   5.160   7.361 -4.5490 -1.7910  0.1182
39170SOL    HW223603  10.022   5.261   7.255  1.1605  0.4027 -0.2202
39171SOL     OW23604   6.800   4.689   8.451 -0.3072  0.3870  0.1990
39171SOL    HW123605   6.748   4.755   8.496  1.6355  2.5501 -0.5680
39171SOL    HW223606   6.841   4.638   8.521  0.5752  1.9834  0.8828
39172SOL     OW23607   7.010   8.220   4.186 -0.8154  0.9639  0.0635
39172SOL    HW123608   7.021   8.312   4.164  1.5755  1.0548  1.2916
39172SOL    HW223609   7.091   8.196   4.230 -0.5370 -2.2446 -1.8706
39173SOL     OW23610   9.280   0.068  10.015  0.6287  0.7097 -0.5081
39173SOL    HW123611   9.362   0.052   9.970 -0.2351 -2.6491 -1.1519
39173SOL    HW223612   9.212   0.058   9.948 -0.4591 -0.0935  0.6512
39174SOL     OW23613   8.287  10.887   5.150  0.2615 -0.5373  0.5299
39174SOL    HW123614   8.351  10.957   5.152  0.6285 -0.8382 -0.2752
39174SOL    HW223615   8.248  10.892   5.063  1.3642 -2.2503 -0.1169
39175SOL     OW23616   1.133   0.161   9.754 -0.0859 -0.6255  0.0722
39175SOL    HW123617   1.181   0.115   9.685 -1.3587 -0.8355 -0.6883
39175SOL    HW223618   1.131   0.252   9.726 -0.5733 -0.7045 -0.1565
39176SOL     OW23619   7.058   5.549   1.755 -0.2761  0.1059 -0.0364
39176SOL    HW123620   7.094   5.619   1.808 -0.7197 -0.2063  0.6878
39176SOL    HW223621   6.963   5.559   1.763 -0.3531  0.1544 -0.9024
39177SOL     OW23622  10.508   2.319   5.430 -0.3554 -0.4270 -0.5296
39177SOL    HW123623  10.433   2.264   5.452 -0.5486  0.0345 -0.0225
39177SOL    HW223624  10.530   2.363   5.512 -1.3054  1.5887 -1.3021
39178SOL     OW23625  10.368   2.036   7.635  0.0407  0.3864 -0.2454
39178SOL    HW123626  10.384   2.118   7.681  1.9037  0.2137 -0.4960
39178SOL    HW223627  10.369   2.061   7.542 -0.0451  0.1932 -0.2978
39179SOL     OW23628   1.158   1.915   7.585  0.2164  0.3435  0.3368
39179SOL    HW123629   1.071   1.900   7.548  0.2877  0.3964  0.1452
39179SOL    HW223630   1.144   1.918   7.680  0.1891 -0.9324  0.3901
39180SOL     OW23631   4.091   3.380   9.932  0.1785 -0.1609  0.1541
39180SOL    HW123632   4.183   3.355   9.922  0.2204 -1.4632  2.8514
39180SOL    HW223633   4.093   3.475   9.942  1.4289 -0.2687  1.3418
39181SOL     OW23634   2.648  10.094   9.287  0.1390 -0.1971 -0.1911
39181SOL    HW123635   2.603  10.025   9.336 -1.8198  1.4354  0.4340
39181SOL    HW223636   2.670  10.054   9.204  0.3251 -1.9822  0.6698
39182SOL     OW23637   4.252   0.377   4.536 -0.3238  0.2815 -0.7555
39182SOL    HW123638   4.278   0.286   4.523  1.6438  0.4027  1.7891
39182SOL    HW223639   4.156   0.375   4.534 -0.3423 -1.3057 -3.4848
39183SOL     OW23640   2.277   8.361   7.096 -0.2161 -0.2331 -0.1040
39183SOL    HW123641   2.328   8.297   7.147 -0.3924 -0.1185  0.2196
39183SOL    HW223642   2.340   8.429   7.073  0.1320 -0.8480 -1.0254
39184SOL     OW23643   2.862   8.658   3.126  0.3313 -0.3105  0.1546
39184SOL    HW123644   2.918   8.581   3.118  2.4288  1.2187 -0.7563
39184SOL    HW223645   2.890   8.716   3.054 -2.5995  0.4649 -0.4989
39185SOL     OW23646  10.794   6.572   0.240  0.2743  0.0215  0.3392
39185SOL    HW123647  10.777   6.512   0.168 -0.9440  0.1086  0.5288
39185SOL    HW223648  10.755   6.530   0.316  2.7478 -0.7168  1.2658
39186SOL     OW23649   1.498   7.687   9.502 -0.7979 -0.4531  0.4892
39186SOL    HW123650   1.495   7.622   9.572  0.2420 -0.3858  0.6158
39186SOL    HW223651   1.576   7.739   9.521 -0.5032 -0.4244 -0.7102
39187SOL     OW23652   8.377   1.421   1.040  0.0479  0.3184  0.3006
39187SOL    HW123653   8.332   1.492   0.994 -0.1327  1.6289  2.3803
39187SOL    HW223654   8.407   1.460   1.122  1.5627 -1.5546  0.7190
39188SOL     OW23655   3.486   2.352   9.876 -0.3448  0.2249  0.1900
39188SOL    HW123656   3.427   2.287   9.837 -2.5531  1.1836  1.7326
39188SOL    HW223657   3.532   2.304   9.946 -1.8857  0.2205  1.2524
39189SOL     OW23658   7.733   3.360   3.280 -0.0884 -0.8385 -0.3445
39189SOL    HW123659   7.723   3.439   3.227  1.0323 -0.8327 -0.5721
39189SOL    HW223660   7.684   3.379   3.361  0.6062  0.3093 -0.1742
39190SOL     OW23661   6.482  10.185   3.912  0.2949 -0.2720  0.5122
39190SOL    HW123662   6.435  10.169   3.829 -0.2048  1.1769  0.4910
39190SOL    HW223663   6.554  10.122   3.911  0.7277  0.1866 -1.3769
39191SOL     OW23664   7.952   5.256   5.635  0.0444 -0.2447  0.2762
39191SOL    HW123665   7.887   5.319   5.605 -1.2426 -1.4041  0.5184
39191SOL    HW223666   7.904   5.173   5.642  1.2336 -0.8652  1.7160
39192SOL     OW23667   6.073  10.922   6.024  0.5906 -0.0470  0.3256
39192SOL    HW123668   6.054  10.874   5.943  0.4102  1.1746 -0.3734
39192SOL    HW223669   6.093  10.853   6.088 -0.4621 -1.0918 -0.4239
39193SOL     OW23670  10.492   1.556   0.566 -0.2773 -0.2691  0.4998
39193SOL    HW123671  10.439   1.486   0.529  1.5487 -1.2265 -0.4232
39193SOL    HW223672  10.468   1.557   0.659 -1.8751 -0.6381  0.1361
39194SOL     OW23673   3.415   8.416   1.753 -0.0564 -0.9922  0.0562
39194SOL    HW123674   3.479   8.481   1.725 -1.5617  1.5095  1.9349
39194SOL    HW223675   3.465   8.336   1.766  1.8233 -0.4028 -2.7758
39195SOL     OW23676   7.253   7.138   1.716  0.0162 -1.1310 -0.4512
39195SOL    HW123677   7.247   7.073   1.785  1.3531 -0.9891 -0.1905
39195SOL    HW223678   7.199   7.102   1.645 -2.2340 -0.8067  0.9758
39196SOL     OW23679   6.043   2.514   5.946  0.4149  0.4453 -0.5666
39196SOL    HW123680   6.066   2.450   5.879 -1.1918 -1.3495  0.5160
39196SOL    HW223681   6.127   2.540   5.984  1.0485 -2.8370  0.5448
39197SOL     OW23682   2.501   4.398   2.574  0.1540  0.0586 -0.1852
39197SOL    HW123683   2.533   4.356   2.654 -0.7070 -1.9244 -0.8142
39197SOL    HW223684   2.512   4.331   2.506 -0.9115  1.0067 -1.3353
39198SOL     OW23685   7.898   9.011   4.921  0.2912  0.1225 -0.1518
39198SOL    HW123686   7.962   8.952   4.961 -0.6947 -0.2460  0.9558
39198SOL    HW223687   7.948   9.059   4.855  1.0328 -2.2745 -1.4570
39199SOL     OW23688   5.705   7.173   5.118  0.3359 -0.2866 -0.1195
39199SOL    HW123689   5.685   7.083   5.143  0.7692 -0.3659 -0.0500
39199SOL    HW223690   5.794   7.169   5.083 -0.1513 -0.1292 -1.4250
39200SOL     OW23691   9.139   7.835   9.269 -0.2293  0.1831 -0.1463
39200SOL    HW123692   9.121   7.908   9.210 -1.3388  1.3133  1.5000
39200SOL    HW223693   9.057   7.787   9.274 -0.1382  0.0757  0.4293
39201SOL     OW23694   2.990   2.573   4.429  0.2248  0.2908  0.1262
39201SOL    HW123695   2.992   2.589   4.524  2.4812  0.0999  0.1485
39201SOL    HW223696   3.005   2.479   4.420 -1.5108  0.0246 -0.4197
39202SOL     OW23697   4.508   3.604   0.918  0.1131  0.3005  0.5039
39202SOL    HW123698   4.432   3.563   0.876 -0.6863  2.6331 -0.4816
39202SOL    HW223699   4.581   3.546   0.896 -1.2438 -1.7386  1.0352
39203SOL     OW23700   4.576   1.596   3.562  0.1979 -0.4313 -0.0514
39203SOL    HW123701   4.618   1.513   3.587  0.4077  0.3397  2.3601
39203SOL    HW223702   4.504   1.607   3.623 -0.7618  0.4880 -1.2851
39204SOL     OW23703  10.499   0.151   0.301  0.3633  0.2437  0.1697
39204SOL    HW123704  10.436   0.086   0.332 -1.3125  0.8823 -1.6838
39204SOL    HW223705  10.481   0.228   0.355 -0.1332  0.2685 -0.0222
39205SOL     OW23706  10.758   6.697   6.318  0.7647  0.4652 -0.4316
39205SOL    HW123707  10.710   6.638   6.260 -0.2568  1.1861 -0.3420
39205SOL    HW223708  10.787   6.768   6.262  1.5690  0.1466 -0.4406
39206SOL     OW23709   3.393   0.355   3.660  0.0092 -0.0892  0.5349
39206SOL    HW123710   3.356   0.272   3.632  0.5701  0.0324 -0.6527
39206SOL    HW223711   3.483   0.354   3.626 -0.0283  1.0694  0.3411
39207SOL     OW23712   6.601  10.284   1.085 -0.2013  0.7238 -0.0847
39207SOL    HW123713   6.521  10.319   1.125 -0.8745  2.2358 -2.5332
39207SOL    HW223714   6.671  10.338   1.122 -0.2458 -0.5291  1.9821
39208SOL     OW23715   7.863   3.372   7.869  0.0147  0.5852 -0.3057
39208SOL    HW123716   7.931   3.334   7.813  0.3763  0.6386  0.0998
39208SOL    HW223717   7.906   3.387   7.953 -0.2213  1.5568 -0.3490
39209SOL     OW23718   6.307   8.862  10.097  0.0525 -0.2166  0.4828
39209SOL    HW123719   6.243   8.801  10.061  1.8875 -1.7362 -0.3872
39209SOL    HW223720   6.311   8.840  10.190  0.1967 -0.9726  0.3069
39210SOL     OW23721   5.945   4.055  10.254 -1.0555 -0.3247 -0.1279
39210SOL    HW123722   6.018   4.049  10.316 -0.8421  0.6706 -0.2633
39210SOL    HW223723   5.940   4.149  10.232  0.3789 -0.8777 -3.3832
39211SOL     OW23724   2.026   5.037   3.314 -0.0502 -0.2141 -0.1482
39211SOL    HW123725   2.026   5.071   3.224 -1.3314 -2.8194 -1.2349
39211SOL    HW223726   2.116   5.051   3.344 -0.0456  2.3459 -1.1119
39212SOL     OW23727   9.200  10.696   7.336 -0.1024  0.3055 -0.2217
39212SOL    HW123728   9.204  10.617   7.391  1.3248 -0.2570 -1.0804
39212SOL    HW223729   9.289  10.707   7.303 -0.0716  2.7534  0.4790
39213SOL     OW23730   8.245   2.366   0.077  0.5220 -0.0751 -0.0472
39213SOL    HW123731   8.269   2.403   0.162  1.8015  0.8548 -0.7842
39213SOL    HW223732   8.165   2.412   0.053  1.3906  1.3375 -0.3581
39214SOL     OW23733   7.342   4.228   7.047  0.1236 -0.0551 -0.3328
39214SOL    HW123734   7.365   4.153   7.102 -0.7463 -0.5701 -0.6570
39214SOL    HW223735   7.336   4.301   7.108 -1.3246 -0.7140  0.3640
39215SOL     OW23736   9.001   0.685   0.121  0.0493 -0.1419  0.3894
39215SOL    HW123737   9.041   0.738   0.191  0.8240  0.3233 -0.3841
39215SOL    HW223738   9.076   0.648   0.074 -0.4240  0.4600 -0.8780
39216SOL     OW23739   0.347   2.645   6.133  0.3994  0.2439 -0.7422
39216SOL    HW123740   0.350   2.717   6.197  0.2472  0.0014 -0.4602
39216SOL    HW223741   0.400   2.676   6.059  0.7889  0.4252 -0.3923
39217SOL     OW23742   4.556   1.342   1.899  0.2599  0.0138 -0.2709
39217SOL    HW123743   4.572   1.386   1.983  0.7999  1.5181 -1.1227
39217SOL    HW223744   4.464   1.319   1.902 -0.0544  1.2329  0.2287
39218SOL     OW23745   0.247   1.360   9.525  0.4237  0.1364  0.7446
39218SOL    HW123746   0.257   1.332   9.616 -0.5969  0.5299  0.9947
39218SOL    HW223747   0.161   1.328   9.499  0.5782  0.2954  0.0104
39219SOL     OW23748   9.688  10.878   0.623 -0.0610  0.2266  1.0118
39219SOL    HW123749   9.705  10.793   0.664  0.2529 -0.0537  0.3136
39219SOL    HW223750   9.768  10.898   0.574 -1.6152 -1.1534 -2.4133
39220SOL     OW23751   3.305   7.455   6.546  0.1168 -0.6425 -0.0614
39220SOL    HW123752   3.397   7.452   6.572  0.1706  0.1778 -0.1101
39220SOL    HW223753   3.308   7.461   6.450  0.0755  0.6730 -0.0068
39221SOL     OW23754   3.561   4.973   3.378 -0.6098  0.1201 -0.0265
39221SOL    HW123755   3.550   4.914   3.452 -1.1097 -1.3395 -1.2316
39221SOL    HW223756   3.472   4.998   3.354 -0.5131 -0.2530 -0.7863
39222SOL     OW23757   7.411   3.298   7.121  0.6220 -0.1409  0.1568
39222SOL    HW123758   7.338   3.267   7.067  1.0200 -0.5287 -0.1619
39222SOL    HW223759   7.369   3.350   7.190  0.1798  2.0777 -1.6365
39223SOL     OW23760  10.445   9.189   3.605  0.0551 -0.2347  0.3687
39223SOL    HW123761  10.423   9.239   3.527  2.3539 -1.5112 -1.1977
39223SOL    HW223762  10.423   9.098   3.583 -0.5501 -0.4611  1.7568
39224SOL     OW23763   4.935   0.985   9.284  0.0529  0.0539  0.3875
39224SOL    HW123764   4.844   0.997   9.310 -0.1383  2.8347 -1.1442
39224SOL    HW223765   4.986   1.018   9.358 -0.1534 -1.5828  1.2808
39225SOL     OW23766   4.545   5.997   9.908 -0.1047  0.1740 -0.4758
39225SOL    HW123767   4.559   5.902   9.905 -0.3566  0.1297 -2.9749
39225SOL    HW223768   4.450   6.006   9.912 -0.1278  0.2792 -1.0829
39226SOL     OW23769   9.360  10.879   1.821 -0.6094  0.2698  0.4359
39226SOL    HW123770   9.398  10.885   1.734 -1.8005 -1.1372 -0.2393
39226SOL    HW223771   9.302  10.955   1.828 -1.5761 -0.3465 -0.5883
39227SOL     OW23772   1.888   8.339   6.414 -0.1365  0.0234  0.2817
39227SOL    HW123773   1.933   8.256   6.396 -2.6034 -1.3504 -0.0710
39227SOL    HW223774   1.870   8.376   6.328  1.3458  1.2458  0.4402
39228SOL     OW23775   8.835   7.550   0.351 -0.5397  0.0143 -0.2752
39228SOL    HW123776   8.833   7.487   0.279 -0.9031 -1.8627  1.2653
39228SOL    HW223777   8.922   7.539   0.389  0.3422  2.3003 -1.4316
39229SOL     OW23778   3.672   3.294   8.359  0.4211  0.0650 -0.1301
39229SOL    HW123779   3.765   3.313   8.372  0.8817 -0.9892 -1.6392
39229SOL    HW223780   3.649   3.339   8.277 -0.0146 -0.8473 -0.5206
39230SOL     OW23781  10.002   3.030  10.892  0.0343  0.2329 -0.4349
39230SOL    HW123782  10.000   2.937  10.873 -0.4953  0.0136  0.6049
39230SOL    HW223783  10.094   3.054  10.886  0.0321 -0.0575 -1.9953
39231SOL     OW23784  10.314   4.766   0.631 -0.3320  0.6077  0.0335
39231SOL    HW123785  10.249   4.696   0.638  0.5869 -0.3399 -0.5785
39231SOL    HW223786  10.395   4.721   0.609  0.4474  1.8114  0.3455
39232SOL     OW23787   7.006   0.458   6.391 -0.1177 -0.5014  0.0801
39232SOL    HW123788   7.004   0.382   6.334  2.3863 -0.0219 -0.7770
39232SOL    HW223789   6.952   0.523   6.346  1.7929 -0.1397 -1.8552
39233SOL     OW23790   0.292   0.765   3.219 -0.1176 -0.1038 -0.8297
39233SOL    HW123791   0.241   0.846   3.220  0.8977  0.5488 -0.4506
39233SOL    HW223792   0.286   0.734   3.129 -0.0074  0.7229 -1.1275
39234SOL     OW23793   5.626   0.620   0.448 -0.2069 -0.5221 -0.0751
39234SOL    HW123794   5.602   0.689   0.385  0.3209 -0.6846 -0.4600
39234SOL    HW223795   5.717   0.639   0.471  0.6397 -2.2468 -1.7601
39235SOL     OW23796   6.420   7.616   7.227 -0.5276  0.3421  0.1708
39235SOL    HW123797   6.467   7.560   7.165  0.0722 -2.2030  2.6733
39235SOL    HW223798   6.391   7.690   7.175 -0.2212 -1.6433 -3.1594
39236SOL     OW23799   8.793   5.170   9.781  0.0924 -0.5095  0.1978
39236SOL    HW123800   8.798   5.179   9.876 -2.0528  1.5290  0.2036
39236SOL    HW223801   8.749   5.086   9.766 -1.9381  0.3381  1.1409
39237SOL     OW23802  10.777   9.847   0.406  0.4366  0.4715 -0.2165
39237SOL    HW123803  10.870   9.831   0.421  0.9130  0.7667 -2.4573
39237SOL    HW223804  10.774   9.888   0.319 -1.8469 -0.3643 -0.5922
39238SOL     OW23805   8.539   0.295   8.124  0.1181 -0.0707  0.6190
39238SOL    HW123806   8.631   0.266   8.117  0.9661  2.7284 -2.7593
39238SOL    HW223807   8.495   0.252   8.051 -0.8635 -0.0315  1.1731
39239SOL     OW23808   3.808  10.487   3.344  0.1830 -0.1299  0.2761
39239SOL    HW123809   3.841  10.462   3.430  2.3366 -1.9324 -0.9705
39239SOL    HW223810   3.886  10.509   3.293 -1.0640  1.3031 -1.1407
39240SOL     OW23811   9.230   0.262  10.441 -0.2763 -0.2222  0.3676
39240SOL    HW123812   9.267   0.343  10.478  0.1310  0.4654 -1.4311
39240SOL    HW223813   9.294   0.194  10.464 -0.4873 -0.0166  1.6686
39241SOL     OW23814   4.352   0.978   5.168  0.5632 -0.2452 -0.3918
39241SOL    HW123815   4.408   1.056   5.164  1.4559 -0.6618  2.3180
39241SOL    HW223816   4.397   0.919   5.228 -1.5073 -1.6837 -0.1590
39242SOL     OW23817   0.265   1.410   4.008 -0.3666  0.1397 -0.3999
39242SOL    HW123818   0.237   1.494   3.971 -2.1857  0.5928  1.7894
39242SOL    HW223819   0.197   1.388   4.071  0.9210 -2.1883  0.2889
39243SOL     OW23820   0.223   5.943   8.316 -0.0967 -0.1216  1.0842
39243SOL    HW123821   0.226   6.009   8.385 -2.9176  0.3514  0.8658
39243SOL    HW223822   0.137   5.953   8.277  0.2009 -2.5411 -0.3932
39244SOL     OW23823   3.258   8.357   8.952 -1.1245  0.5813 -0.2138
39244SOL    HW123824   3.298   8.444   8.950 -0.2397  0.2485  1.1988
39244SOL    HW223825   3.271   8.323   8.863  1.6610  0.5745  0.0977
39245SOL     OW23826   3.100   4.976  10.733 -0.5826 -0.1622  0.1944
39245SOL    HW123827   3.134   5.022  10.656  2.4542 -1.4149  0.6497
39245SOL    HW223828   3.032   5.034  10.768  0.1284  1.9102 -1.6297
39246SOL     OW23829   0.746   8.184   3.617 -0.2253 -0.3774  0.0681
39246SOL    HW123830   0.825   8.191   3.564 -1.4212  0.7785 -1.6860
39246SOL    HW223831   0.715   8.274   3.625 -2.6948 -0.9766 -1.5412
39247SOL     OW23832   2.007   5.116   3.043 -0.6204 -0.4786 -0.6562
39247SOL    HW123833   2.029   5.203   3.008  1.0767 -0.7172 -0.2826
39247SOL    HW223834   2.004   5.059   2.967 -1.4869 -0.1641 -0.8753
39248SOL     OW23835   7.169   3.642   6.974 -0.1441  0.2117 -0.0847
39248SOL    HW123836   7.158   3.646   6.879 -1.4589 -0.2675  0.0143
39248SOL    HW223837   7.260   3.665   6.989  0.0417  0.4669 -1.4499
39249SOL     OW23838   7.243   2.767   4.922 -0.1992  0.5204  0.7205
39249SOL    HW123839   7.247   2.788   4.829 -3.5088  0.9399  0.5520
39249SOL    HW223840   7.265   2.674   4.927 -2.2291 -0.1166 -0.8744
39250SOL     OW23841   4.218   6.210   8.949 -0.1651 -0.4498 -0.1146
39250SOL    HW123842   4.245   6.145   8.884  0.1426  0.4995 -0.9546
39250SOL    HW223843   4.126   6.226   8.931 -0.4052 -1.0957  0.4938
39251SOL     OW23844   9.753   7.566   6.553 -0.0969  0.2679  0.0844
39251SOL    HW123845   9.686   7.628   6.583  0.0363  0.8616 -0.8181
39251SOL    HW223846   9.785   7.525   6.633 -0.9974  0.5351  0.5968
39252SOL     OW23847   5.742   1.402   4.954  0.3587 -0.2012  0.5288
39252SOL    HW123848   5.647   1.402   4.966  0.2586  0.2505 -0.2176
39252SOL    HW223849   5.756   1.356   4.872  0.9510 -2.1632  1.6793
39253SOL     OW23850   4.160   4.143   1.553  0.2750 -0.6279 -0.5731
39253SOL    HW123851   4.232   4.171   1.609 -0.0515 -0.0135 -0.4502
39253SOL    HW223852   4.086   4.134   1.613  0.1340 -0.8003 -0.7727
39254SOL     OW23853  10.094   1.658   4.698  0.3311 -0.4500 -0.3439
39254SOL    HW123854  10.095   1.633   4.791 -1.1081  1.1869  0.1630
39254SOL    HW223855  10.183   1.687   4.680  0.0762  1.5266  1.2515
39255SOL     OW23856   9.353   8.830   0.432  0.3437 -0.5320  0.3420
39255SOL    HW123857   9.316   8.869   0.511  2.1385  2.0000  0.0377
39255SOL    HW223858   9.328   8.890   0.362  1.5719 -0.9386 -0.4756
39256SOL     OW23859   1.027   7.623   2.315  0.0558 -0.0125  0.0575
39256SOL    HW123860   0.968   7.571   2.370  0.6400  1.2254  1.9632
39256SOL    HW223861   0.968   7.669   2.255 -0.9119  0.6101  1.4070
39257SOL     OW23862   8.472   2.849   1.802 -0.1184  0.4451  0.3709
39257SOL    HW123863   8.456   2.910   1.731  0.2230  0.2461  0.1242
39257SOL    HW223864   8.413   2.775   1.784  2.7976 -1.5203 -2.0034
39258SOL     OW23865   1.608   5.093   4.479  0.0205 -0.0541 -0.8359
39258SOL    HW123866   1.555   5.013   4.484 -1.3639  0.8178 -0.8401
39258SOL    HW223867   1.691   5.065   4.442 -0.8392 -1.3023 -1.9245
39259SOL     OW23868   0.045   6.762   7.461 -0.1272  0.0826 -0.0515
39259SOL    HW123869   0.104   6.797   7.394 -0.7763 -1.2314 -1.3902
39259SOL    HW223870  -0.034   6.737   7.412 -0.9230 -0.2390  1.3421
39260SOL     OW23871   4.331   9.405   3.607 -0.2269 -0.6544 -0.3079
39260SOL    HW123872   4.284   9.452   3.538 -0.3302  0.9703  0.8032
39260SOL    HW223873   4.288   9.321   3.613  1.0852 -1.7392 -3.6177
39261SOL     OW23874   9.580   1.770   2.313  0.5434 -0.2376  0.0654
39261SOL    HW123875   9.494   1.811   2.321  0.0287 -1.4698  1.1040
39261SOL    HW223876   9.626   1.825   2.249 -0.8664  0.6581 -0.2382
39262SOL     OW23877   0.863   3.872   5.861  0.2596  0.7042 -0.4122
39262SOL    HW123878   0.952   3.842   5.846 -0.0281 -1.5651  1.8456
39262SOL    HW223879   0.817   3.854   5.779  1.4488  0.2441 -0.9903
39263SOL     OW23880   6.091   8.643   8.487 -0.0594  0.1079  0.2028
39263SOL    HW123881   6.170   8.688   8.458  0.2931 -1.5293 -1.5242
39263SOL    HW223882   6.057   8.600   8.409 -0.4869 -2.4633  1.6760
39264SOL     OW23883   2.397   3.599   2.779 -0.2363  0.1038 -0.1397
39264SOL    HW123884   2.383   3.686   2.743  0.6075 -0.0983 -0.9991
39264SOL    HW223885   2.381   3.540   2.705 -2.8227 -0.6493  0.9076
39265SOL     OW23886   4.084   8.216   5.757 -0.4082  0.0960  0.8393
39265SOL    HW123887   4.127   8.133   5.738 -0.3361  0.3166  0.0075
39265SOL    HW223888   3.991   8.194   5.765 -0.5394  0.1002 -0.5257
39266SOL     OW23889   6.590   7.477   1.011  0.1562 -0.4002  0.6487
39266SOL    HW123890   6.642   7.430   1.076  1.2802 -1.0624 -0.6924
39266SOL    HW223891   6.641   7.555   0.991 -0.1474 -0.2407  0.4916
39267SOL     OW23892   4.748   1.003   8.779  0.0512 -0.6765  0.5458
39267SOL    HW123893   4.666   0.987   8.733  0.1841  1.1391 -0.4067
39267SOL    HW223894   4.810   0.943   8.739 -0.0255  0.3111 -1.1383
39268SOL     OW23895   4.189   2.214   3.754  0.3473 -0.1484 -0.1551
39268SOL    HW123896   4.170   2.261   3.835 -0.2106 -1.3932  0.4763
39268SOL    HW223897   4.104   2.200   3.713  0.4412 -1.0218 -0.0734
39269SOL     OW23898   7.257   7.830   0.892  0.4709  0.3402 -0.4357
39269SOL    HW123899   7.318   7.865   0.826  0.9751  0.7644  0.2395
39269SOL    HW223900   7.300   7.751   0.925 -0.7398 -1.0816 -2.0717
39270SOL     OW23901   8.242   1.828   7.944  0.4925 -0.1607 -0.0822
39270SOL    HW123902   8.257   1.764   8.013  2.1768  1.6974  1.3904
39270SOL    HW223903   8.159   1.869   7.966 -0.7853 -1.9872 -1.2384
39271SOL     OW23904   9.323   2.212   7.230  0.2658  0.2151  0.3020
39271SOL    HW123905   9.413   2.236   7.208  0.1742 -0.5497 -0.9934
39271SOL    HW223906   9.271   2.283   7.193  0.2337 -0.2073 -0.4904
39272SOL     OW23907   9.314   7.225   3.673  0.2261  0.7693 -0.0750
39272SOL    HW123908   9.354   7.274   3.601  0.9705  0.5788  0.2013
39272SOL    HW223909   9.222   7.252   3.673 -0.3716 -0.9389 -2.5564
39273SOL     OW23910   1.946  10.686  10.552  0.2665  0.3937 -0.1453
39273SOL    HW123911   1.958  10.733  10.634  1.2128  0.4732 -0.3110
39273SOL    HW223912   1.894  10.609  10.575  0.9122  0.1710  0.6177
39274SOL     OW23913   6.099   0.826   5.931  0.0866 -0.0703  0.9948
39274SOL    HW123914   6.122   0.790   5.846  2.8507  2.0859  0.6812
39274SOL    HW223915   6.057   0.754   5.977 -0.0198 -1.7871 -1.5964
39275SOL     OW23916   4.815   9.354   6.100  0.2708 -0.3881  0.1961
39275SOL    HW123917   4.751   9.349   6.029  2.4365 -0.6784 -1.8766
39275SOL    HW223918   4.782   9.294   6.167 -1.3055 -0.9815 -1.0512
39276SOL     OW23919   3.522   5.521   7.690  0.6444 -0.1048 -0.3416
39276SOL    HW123920   3.481   5.534   7.605  0.9672  2.9479 -0.1519
39276SOL    HW223921   3.476   5.446   7.728 -0.1137 -0.9861 -2.7985
39277SOL     OW23922   0.026   5.276   7.492 -0.1427  0.1817 -0.1907
39277SOL    HW123923  -0.068   5.289   7.505 -0.0435 -0.2946  1.1118
39277SOL    HW223924   0.033   5.248   7.401 -1.4017 -0.9236  0.0187
39278SOL     OW23925   8.094   7.036   0.213 -0.1251 -0.0347  0.1062
39278SOL    HW123926   8.035   7.024   0.287  0.2160  0.0578  0.4000
39278SOL    HW223927   8.137   7.120   0.230  0.5951 -0.4210  0.2664
39279SOL     OW23928   4.179  10.830   0.150 -0.3057  0.3402 -0.2575
39279SOL    HW123929   4.102  10.877   0.182 -0.1358 -0.1082  0.8736
39279SOL    HW223930   4.146  10.778   0.076 -0.6847  1.5037 -0.9357
39280SOL     OW23931   9.596   7.912   1.489  0.2431 -0.5656  0.0970
39280SOL    HW123932   9.508   7.876   1.497  0.2969 -0.4739  1.3065
39280SOL    HW223933   9.603   7.939   1.398 -1.2216  0.0421  0.1368
39281SOL     OW23934   4.855   9.551   7.515 -0.0655 -0.3070 -0.3765
39281SOL    HW123935   4.870   9.527   7.424  3.4948 -0.4711  0.0927
39281SOL    HW223936   4.891   9.477   7.565 -0.0322  0.6828  1.1189
39282SOL     OW23937   2.432   5.710   1.041 -0.3219  0.2111  0.4957
39282SOL    HW123938   2.463   5.620   1.052  0.5735  0.4423 -0.0366
39282SOL    HW223939   2.339   5.702   1.023 -0.1410 -0.6494 -0.1060
39283SOL     OW23940   3.273   4.901   3.352  0.3501 -0.3400  0.2309
39283SOL    HW123941   3.198   4.934   3.401 -0.1114 -0.6091 -0.2849
39283SOL    HW223942   3.264   4.940   3.265  0.9323 -0.2016  0.2259
39284SOL     OW23943  10.817   7.885   5.801  0.5995  0.1886 -0.3645
39284SOL    HW123944  10.843   7.793   5.797  0.1926  0.1107 -1.6412
39284SOL    HW223945  10.899   7.932   5.816  0.6832 -0.4281  1.3709
39285SOL     OW23946   2.953   7.129   1.970  0.3306  0.1243 -0.1020
39285SOL    HW123947   2.904   7.068   2.025 -1.7031  0.5432 -1.3217
39285SOL    HW223948   2.928   7.105   1.881  0.8679  1.6217 -0.6746
39286SOL     OW23949   8.971   6.130   9.535  0.0847  0.2721 -0.8277
39286SOL    HW123950   8.920   6.098   9.609 -0.3990 -0.0234 -1.2847
39286SOL    HW223951   9.033   6.060   9.515  2.5121  1.5974  1.3593
39287SOL     OW23952   5.548   6.228   3.512 -0.6410 -0.3089 -0.0414
39287SOL    HW123953   5.483   6.205   3.446 -0.3331  0.5575 -0.6612
39287SOL    HW223954   5.499   6.277   3.578 -0.4466  1.3913 -1.0928
39288SOL     OW23955   9.696   9.583   9.183  0.8500 -0.7007 -0.6481
39288SOL    HW123956   9.788   9.573   9.210  1.5752 -0.1982 -2.7225
39288SOL    HW223957   9.646   9.550   9.258  2.7554 -5.1570 -0.9789
39289SOL     OW23958   6.223   6.808   4.026 -0.5571 -0.2049  0.3584
39289SOL    HW123959   6.171   6.730   4.007 -1.1211  0.0084  0.9670
39289SOL    HW223960   6.188   6.840   4.109  0.8689 -0.3035  1.0131
39290SOL     OW23961   1.373   8.883   1.950 -0.0830 -0.3230  0.2392
39290SOL    HW123962   1.308   8.938   1.993  1.8603  1.7973  0.7020
39290SOL    HW223963   1.403   8.935   1.876  0.6609 -1.5114 -0.3314
39291SOL     OW23964   8.355   2.083   8.211 -0.4972 -0.7019 -0.3161
39291SOL    HW123965   8.356   2.156   8.273  0.5682 -2.1276  1.4594
39291SOL    HW223966   8.284   2.027   8.242 -0.6933 -0.8880 -1.0894
39292SOL     OW23967   6.635   1.411   1.975 -0.3503  0.1344 -0.5616
39292SOL    HW123968   6.591   1.461   2.044 -0.0502  0.3399 -0.5132
39292SOL    HW223969   6.727   1.408   2.004 -0.5137 -1.2421 -0.0841
39293SOL     OW23970   7.660   7.745   9.728 -0.2400  0.3093 -0.2337
39293SOL    HW123971   7.712   7.679   9.774  0.4708  2.2984  2.0433
39293SOL    HW223972   7.653   7.713   9.639  0.0224 -2.8271  0.7714
39294SOL     OW23973   9.515   3.377   0.749 -0.0533 -0.3421  0.0223
39294SOL    HW123974   9.430   3.357   0.788 -0.2501 -1.2810 -0.8395
39294SOL    HW223975   9.525   3.313   0.678  1.3965 -0.2750  0.1304
39295SOL     OW23976   2.732   3.417   4.592 -0.3313  0.3324  0.7564
39295SOL    HW123977   2.708   3.411   4.685  0.3515 -1.3456  0.8704
39295SOL    HW223978   2.824   3.442   4.592 -0.2594  0.0722  0.5431
39296SOL     OW23979   8.485   4.348   9.270 -0.6853 -0.0051 -0.1159
39296SOL    HW123980   8.516   4.259   9.287 -0.3462 -0.0631 -0.9625
39296SOL    HW223981   8.541   4.404   9.325 -3.4667 -0.4915  3.5929
39297SOL     OW23982   4.584   2.062   3.558  0.0390 -0.3256 -0.2356
39297SOL    HW123983   4.546   2.149   3.570 -0.2362 -0.3165 -1.1447
39297SOL    HW223984   4.624   2.064   3.472 -0.4097 -1.2574 -0.4784
39298SOL     OW23985   3.629   0.439   5.833 -0.0691 -0.1366 -0.6374
39298SOL    HW123986   3.610   0.468   5.743 -0.9907  1.5780  0.0637
39298SOL    HW223987   3.549   0.394   5.861 -0.9470  1.9203  0.3008
39299SOL     OW23988   0.846   4.609   2.688  0.3125  0.2621  0.0551
39299SOL    HW123989   0.827   4.518   2.666 -1.5768  0.2676  1.4284
39299SOL    HW223990   0.764   4.656   2.668  0.5866  1.2878  1.2463
39300SOL     OW23991   8.519   5.625   7.315 -0.3781  0.5825 -0.4426
39300SOL    HW123992   8.607   5.586   7.314 -0.5345  0.2267 -0.5259
39300SOL    HW223993   8.472   5.580   7.245 -1.2573 -0.7316  0.9342
39301SOL     OW23994   1.989  10.423   6.856  0.6833  0.1663 -0.6158
39301SOL    HW123995   1.944  10.449   6.776  0.7132 -0.1702 -0.7415
39301SOL    HW223996   2.046  10.351   6.830 -1.3637 -1.8837  0.2160
39302SOL     OW23997   8.816   6.867   9.001  0.3217 -0.2931 -0.4438
39302SOL    HW123998   8.788   6.780   9.029 -0.8668 -0.3402 -1.7002
39302SOL    HW223999   8.847   6.909   9.082 -0.8729 -1.2096  0.5345
39303SOL     OW24000   0.118   8.060   9.034 -0.2990 -0.1981  0.3860
39303SOL    HW124001   0.146   7.970   9.019  0.3834  0.0280  0.2994
39303SOL    HW224002   0.073   8.085   8.952  1.3338  0.2324 -0.4135
39304SOL     OW24003   1.980   9.726   8.649 -0.0159 -0.2826 -0.3332
39304SOL    HW124004   1.975   9.633   8.672  1.3243 -0.3060 -0.0464
39304SOL    HW224005   2.004   9.726   8.557  0.3129 -0.2270 -0.2483
39305SOL     OW24006   4.134   6.513   5.930 -0.0625 -0.1767  0.0383
39305SOL    HW124007   4.224   6.535   5.904 -0.5054  0.7390 -0.7846
39305SOL    HW224008   4.092   6.597   5.945 -1.1098 -0.5309 -0.7498
39306SOL     OW24009   1.160   1.656   4.869 -0.3719  0.0598  0.1246
39306SOL    HW124010   1.086   1.608   4.833 -0.1461  0.9799 -1.6701
39306SOL    HW224011   1.235   1.600   4.852 -0.5315 -0.4964  1.1910
39307SOL     OW24012   3.524   7.811   0.250  0.2942 -0.6565 -0.6779
39307SOL    HW124013   3.609   7.814   0.207 -0.2372 -0.5421 -1.7582
39307SOL    HW224014   3.492   7.722   0.235  0.2088 -0.6932 -0.2953
39308SOL     OW24015   3.207   3.435   8.792 -0.2383  0.1458  0.3425
39308SOL    HW124016   3.188   3.416   8.883 -0.0609  0.1083  0.3717
39308SOL    HW224017   3.302   3.445   8.789  0.0098 -1.9054 -0.2168
39309SOL     OW24018   3.303   9.205   6.788 -0.8433  0.2524 -0.2927
39309SOL    HW124019   3.274   9.212   6.879 -1.6801 -1.3123 -0.3956
39309SOL    HW224020   3.305   9.295   6.757  0.1628  0.8945  1.4659
39310SOL     OW24021   5.302   8.297   0.438  0.4541 -0.5415  0.2279
39310SOL    HW124022   5.320   8.386   0.468  1.6500 -0.8236  0.3974
39310SOL    HW224023   5.376   8.245   0.469  0.4197 -1.3552 -0.9520
39311SOL     OW24024   6.608  10.621   7.429 -0.2087  0.1185 -0.2216
39311SOL    HW124025   6.693  10.595   7.466 -0.3138 -2.8232 -1.7107
39311SOL    HW224026   6.544  10.597   7.496 -0.0699 -0.6556 -0.3614
39312SOL     OW24027   7.600   2.348   9.832 -0.4818  0.6883 -0.3892
39312SOL    HW124028   7.662   2.404   9.880  0.8055 -0.6858 -0.3549
39312SOL    HW224029   7.554   2.407   9.773  1.8161  1.6168 -1.3521
39313SOL     OW24030   8.737   7.970  10.727  0.2150  0.2539 -0.3025
39313SOL    HW124031   8.727   7.909  10.654  0.3589 -0.3630  0.1854
39313SOL    HW224032   8.655   7.962  10.777  0.7222 -0.4678  0.4440
39314SOL     OW24033   3.957   6.464   2.069 -0.3582  0.7566 -0.2877
39314SOL    HW124034   3.931   6.438   1.981  2.0336 -1.3713 -0.4905
39314SOL    HW224035   4.018   6.537   2.055 -0.7939  1.1235 -0.2979
39315SOL     OW24036   6.591   6.382   5.325 -0.0588  0.3701 -0.2559
39315SOL    HW124037   6.572   6.361   5.233 -0.3688  2.4096 -0.7019
39315SOL    HW224038   6.505   6.384   5.367  0.0918 -0.6576  0.1212
39316SOL     OW24039   3.293   3.322   4.212  0.3261 -0.0256 -0.1402
39316SOL    HW124040   3.208   3.321   4.168  0.9986  0.0070 -1.5143
39316SOL    HW224041   3.310   3.414   4.232 -0.4339 -0.1466  1.1441
39317SOL     OW24042   3.501   7.647   7.345 -0.0852 -0.1729  0.1312
39317SOL    HW124043   3.520   7.572   7.288 -2.2585 -0.2351 -0.5762
39317SOL    HW224044   3.505   7.722   7.287 -0.9508 -0.0878  0.1699
39318SOL     OW24045   5.130   8.495  10.807  0.6804 -0.1829  0.1653
39318SOL    HW124046   5.108   8.402  10.810 -2.6096  0.3771 -1.4388
39318SOL    HW224047   5.220   8.499  10.776  0.7747 -2.8082 -0.0520
39319SOL     OW24048  10.431   8.207   8.724  0.0061 -0.0831 -0.0906
39319SOL    HW124049  10.372   8.233   8.653 -1.2261 -1.3537  0.4294
39319SOL    HW224050  10.374   8.166   8.789  1.5431 -2.1726  0.0479
39320SOL     OW24051   2.864   7.794   6.843 -0.2896  0.1203 -0.2818
39320SOL    HW124052   2.827   7.774   6.929  0.1068 -0.7424 -0.2922
39320SOL    HW224053   2.796   7.766   6.781  1.0561 -3.3922 -0.3791
39321SOL     OW24054   3.978   8.367   1.374 -0.1504 -0.1118 -0.0403
39321SOL    HW124055   4.005   8.401   1.289 -0.0882  1.8487  0.7166
39321SOL    HW224056   4.038   8.295   1.392  1.5058  1.0959 -0.5406
39322SOL     OW24057  10.544   0.104   1.314 -0.2528  0.1642  0.6069
39322SOL    HW124058  10.456   0.103   1.350 -1.2765 -0.4124 -1.7294
39322SOL    HW224059  10.554   0.193   1.279 -0.5108 -0.1951 -0.4218
39323SOL     OW24060   6.971   6.108   9.419  0.6094  0.1201  0.5146
39323SOL    HW124061   6.932   6.057   9.490  0.0772  1.0307  0.9024
39323SOL    HW224062   6.903   6.110   9.352  1.1355 -0.7927 -0.0663
39324SOL     OW24063   5.844   2.233  10.601  0.2016 -0.4857  0.0570
39324SOL    HW124064   5.818   2.196  10.517 -2.7945  1.4820 -0.0249
39324SOL    HW224065   5.904   2.304  10.579  0.0823 -0.5143 -0.3738
39325SOL     OW24066   6.192   3.260   6.936 -0.3179  0.0011 -0.5513
39325SOL    HW124067   6.165   3.346   6.903  0.2951  0.4413  0.0749
39325SOL    HW224068   6.284   3.270   6.957 -1.3266  0.9538  4.8940
39326SOL     OW24069   8.595   8.606   2.470 -0.0159  0.1845 -0.0613
39326SOL    HW124070   8.509   8.636   2.439 -0.4186 -1.4511 -0.6516
39326SOL    HW224071   8.646   8.686   2.480 -0.7848  1.0380 -2.2505
39327SOL     OW24072   2.170   1.166   9.987 -0.1202  0.5779  0.2635
39327SOL    HW124073   2.089   1.115   9.988  0.9399 -1.2268  1.8892
39327SOL    HW224074   2.238   1.104  10.014  1.9806  1.8127 -1.8047
39328SOL     OW24075   9.945   8.138   7.099  0.0561  0.2579  0.2333
39328SOL    HW124076  10.008   8.089   7.151  1.8615  0.4470 -1.6379
39328SOL    HW224077   9.890   8.070   7.058 -0.2709  0.0420  1.0065
39329SOL     OW24078   4.808   9.692   1.537 -0.5610  0.2192 -0.1858
39329SOL    HW124079   4.839   9.602   1.525 -1.0539  0.0038  0.1197
39329SOL    HW224080   4.847   9.741   1.465 -0.0895 -0.1906 -0.2136
39330SOL     OW24081   5.572   2.924   5.355 -0.3137 -0.5239 -0.2304
39330SOL    HW124082   5.602   2.998   5.303 -0.6547 -1.1570 -1.3644
39330SOL    HW224083   5.630   2.852   5.331  0.7477 -0.3720  1.7092
39331SOL     OW24084   5.165  10.764   9.429  0.1187 -0.5678  0.7381
39331SOL    HW124085   5.223  10.820   9.479  2.8070 -4.2424  2.1595
39331SOL    HW224086   5.182  10.787   9.337  0.4212  1.4501  1.2691
39332SOL     OW24087   9.557   7.720   9.274  0.1060  0.0125 -0.1070
39332SOL    HW124088   9.500   7.796   9.286 -0.4848 -0.7664  2.5658
39332SOL    HW224089   9.598   7.707   9.359  2.7430 -0.7312 -1.3822
39333SOL     OW24090   4.001   4.356   3.602  0.3893 -0.1247  0.4752
39333SOL    HW124091   3.913   4.321   3.610  0.7912 -0.8239  2.3444
39333SOL    HW224092   4.048   4.293   3.548 -0.1673  0.1538 -0.3653
39334SOL     OW24093   4.802   9.409   9.739  0.3731 -0.0768 -0.2041
39334SOL    HW124094   4.709   9.420   9.759  0.1774 -1.4139 -0.2854
39334SOL    HW224095   4.829   9.494   9.703 -0.3254  0.9710  1.6137
39335SOL     OW24096   2.456   0.613   6.394  0.3566 -0.0724  0.3187
39335SOL    HW124097   2.545   0.638   6.368  0.4647  1.3665  1.8921
39335SOL    HW224098   2.416   0.581   6.313  1.4397  1.7997 -1.0523
39336SOL     OW24099   3.580   4.505   6.581 -0.2181  0.3738  0.6398
39336SOL    HW124100   3.561   4.424   6.628 -0.2389 -0.1435 -0.2345
39336SOL    HW224101   3.647   4.480   6.517 -0.8803  0.8235 -0.2550
39337SOL     OW24102   5.822   7.143   7.618 -0.1978 -0.0607  0.2629
39337SOL    HW124103   5.749   7.081   7.631 -1.6700  1.8341  1.5274
39337SOL    HW224104   5.780   7.222   7.583  1.6120  0.3496 -1.1253
39338SOL     OW24105   9.226   3.776   7.707 -0.2551 -0.6097  0.4469
39338SOL    HW124106   9.207   3.865   7.678 -0.5313 -0.6155  0.6101
39338SOL    HW224107   9.169   3.762   7.783 -0.3254 -0.9771  0.3300
39339SOL     OW24108   6.281   9.643   2.256 -0.0160  0.0327  0.0632
39339SOL    HW124109   6.244   9.626   2.169  1.2560  1.5097 -0.8234
39339SOL    HW224110   6.361   9.692   2.239  0.4859  0.0161  2.0758
39340SOL     OW24111   8.394   6.771   7.456  0.7631  0.0406 -0.4662
39340SOL    HW124112   8.337   6.809   7.389  2.7517  0.2862 -2.1394
39340SOL    HW224113   8.475   6.751   7.409  1.4178 -2.0262  1.3868
39341SOL     OW24114   5.023   1.742   8.494  0.2969 -0.4881 -0.0077
39341SOL    HW124115   5.088   1.730   8.562 -0.4895  0.4641  0.9625
39341SOL    HW224116   4.980   1.657   8.486 -0.1483 -0.4045  1.2912
39342SOL     OW24117   7.500   0.138  10.102  0.1090  0.6266 -0.0673
39342SOL    HW124118   7.416   0.121  10.059 -0.0148  2.3701 -0.5926
39342SOL    HW224119   7.484   0.118  10.194  0.0804 -2.1572 -0.5966
39343SOL     OW24120   3.276  10.150   5.475  0.2767  0.1165  0.1258
39343SOL    HW124121   3.269  10.231   5.425  1.1704 -0.4278 -0.9146
39343SOL    HW224122   3.230  10.168   5.557 -2.0842  0.7133 -1.2602
39344SOL     OW24123   0.268   6.108   4.402  0.6276 -0.4715  0.6489
39344SOL    HW124124   0.295   6.120   4.493  1.1003 -1.6458  0.6696
39344SOL    HW224125   0.290   6.017   4.381 -1.2233 -0.8104 -0.0424
39345SOL     OW24126   9.785   0.079   9.264  0.5031  0.0622 -0.4128
39345SOL    HW124127   9.825   0.163   9.283  0.5283 -0.0477  0.0252
39345SOL    HW224128   9.816   0.057   9.176  2.7912 -0.8190  0.5308
39346SOL     OW24129  10.192   1.134   3.662 -0.4044  0.0239 -0.2144
39346SOL    HW124130  10.199   1.039   3.656 -1.0890 -0.1153  0.8532
39346SOL    HW224131  10.098   1.151   3.652 -0.4522  0.4628  0.8681
39347SOL     OW24132   1.722   6.095   5.795 -0.4502 -0.1294 -0.0602
39347SOL    HW124133   1.637   6.052   5.802 -0.3973 -0.1540  0.4791
39347SOL    HW224134   1.702   6.189   5.792 -0.5676 -0.1714 -1.2700
39348SOL     OW24135   1.382   2.456   9.644  0.6392  0.3099 -0.1075
39348SOL    HW124136   1.318   2.451   9.574  0.0617  0.8110  0.3815
39348SOL    HW224137   1.331   2.452   9.724  1.3270 -0.8448  0.3151
39349SOL     OW24138   8.296   2.033   0.785 -0.3931 -0.1188  0.8554
39349SOL    HW124139   8.359   1.963   0.774 -0.9556 -0.6217  0.7767
39349SOL    HW224140   8.237   2.002   0.853 -1.2008 -0.1433  0.1668
39350SOL     OW24141   8.333   6.961   2.763 -0.3523  0.0873 -0.2448
39350SOL    HW124142   8.247   6.922   2.747 -0.6981  0.8945 -0.3719
39350SOL    HW224143   8.334   6.981   2.857  0.0058 -0.6366 -0.0836
39351SOL     OW24144   8.433   3.897   8.036 -0.1395 -0.1435 -0.3641
39351SOL    HW124145   8.428   3.814   7.988  0.9027  0.7342 -2.0927
39351SOL    HW224146   8.398   3.962   7.975  0.6706  0.9396  0.2809
39352SOL     OW24147   9.501   4.381   6.045 -0.1857 -0.3500 -0.3065
39352SOL    HW124148   9.419   4.351   6.006  0.6042 -1.2328 -1.3434
39352SOL    HW224149   9.498   4.348   6.135 -0.9457 -0.3972 -0.3458
39353SOL     OW24150   9.667   8.460   9.243  0.3467 -0.2709 -0.3639
39353SOL    HW124151   9.704   8.396   9.305 -0.9524 -1.3944 -0.6976
39353SOL    HW224152   9.743   8.493   9.195  0.9675 -2.8021 -1.3151
39354SOL     OW24153   6.474   3.740   8.325 -0.0754 -0.3877  0.0037
39354SOL    HW124154   6.398   3.745   8.383 -1.0160 -0.1668 -1.2003
39354SOL    HW224155   6.440   3.702   8.244  1.1931 -0.6478 -0.4266
39355SOL     OW24156   4.376   5.390   5.265  0.0455 -0.0190  0.2539
39355SOL    HW124157   4.347   5.450   5.196 -0.6091 -0.0233  0.5166
39355SOL    HW224158   4.375   5.442   5.345 -1.6361 -0.6497  0.6792
39356SOL     OW24159   1.320   5.929   6.178  0.3474 -0.8621 -0.0107
39356SOL    HW124160   1.300   5.988   6.105  0.0853 -0.3866  0.4430
39356SOL    HW224161   1.290   5.976   6.256  1.2602 -1.0744  0.4751
39357SOL     OW24162   9.874   9.002   8.229 -0.5657 -0.2129  0.1051
39357SOL    HW124163   9.816   8.970   8.160  0.2168  0.5469 -0.9338
39357SOL    HW224164   9.870   9.097   8.222  0.0073 -0.1398  0.6837
39358SOL     OW24165   2.838   8.755   1.240 -0.6426 -0.1753  0.2115
39358SOL    HW124166   2.928   8.722   1.245 -0.9930 -1.7059 -2.2984
39358SOL    HW224167   2.790   8.705   1.307 -0.0063 -0.6907  0.2935
39359SOL     OW24168  10.794   1.137  10.917  0.2619 -0.3212 -0.6650
39359SOL    HW124169  10.779   1.160  11.009 -0.3919 -1.6529 -0.4180
39359SOL    HW224170  10.734   1.193  10.868 -0.4062 -0.5847 -0.1658
39360SOL     OW24171   0.402   2.362   6.202  0.5253  0.1260 -0.1331
39360SOL    HW124172   0.320   2.353   6.250 -0.2887 -2.5282 -1.8353
39360SOL    HW224173   0.391   2.443   6.151 -0.2009  0.8198  1.0815
39361SOL     OW24174   4.203  10.798   2.784 -0.3259  0.2792 -0.5914
39361SOL    HW124175   4.264  10.782   2.856  0.4809  0.5554 -1.1971
39361SOL    HW224176   4.236  10.743   2.712 -1.1508 -0.0362 -0.7426
39362SOL     OW24177   9.029   4.101   8.859  0.0723 -0.5127  0.1007
39362SOL    HW124178   8.956   4.104   8.798 -0.7946 -1.3697  1.0521
39362SOL    HW224179   9.092   4.164   8.825 -1.0589  0.1603 -0.8006
39363SOL     OW24180   9.313   5.864   6.650 -0.2963 -0.9658  0.0108
39363SOL    HW124181   9.380   5.816   6.602  0.7157 -0.9135  1.3125
39363SOL    HW224182   9.321   5.833   6.741 -0.8384  0.3122  0.5225
39364SOL     OW24183   6.350   7.888  10.805 -0.7610  0.6463  0.1235
39364SOL    HW124184   6.426   7.942  10.828 -0.6072  0.7340 -0.5507
39364SOL    HW224185   6.384   7.825  10.741 -0.7178 -0.9083  1.6271
39365SOL     OW24186   6.798   9.739   1.095 -0.5355  0.0961  0.5072
39365SOL    HW124187   6.793   9.834   1.107  2.4245  0.6205 -1.2290
39365SOL    HW224188   6.856   9.728   1.019 -0.2950 -3.1240  1.0208
39366SOL     OW24189   7.753   3.544   6.079  0.4043 -0.0062 -0.4124
39366SOL    HW124190   7.825   3.481   6.089  0.2572 -0.0720  0.3213
39366SOL    HW224191   7.712   3.521   5.996  0.3526 -0.8835 -0.1547
39367SOL     OW24192  10.569   6.066   3.143  0.3079 -0.5480 -0.4969
39367SOL    HW124193  10.515   6.028   3.212  0.5534 -0.0158 -0.0067
39367SOL    HW224194  10.649   6.013   3.144  0.3911 -0.4161 -0.2425
39368SOL     OW24195   9.958   1.229   2.516 -0.1558  0.8752 -0.1339
39368SOL    HW124196   9.961   1.173   2.594  1.9299  1.1436  0.0255
39368SOL    HW224197   9.918   1.310   2.547  0.6882  0.9961  0.6828
39369SOL     OW24198  10.195   8.893   6.540 -0.0999 -0.0210 -0.1701
39369SOL    HW124199  10.251   8.843   6.481 -0.5262 -1.2662  0.4481
39369SOL    HW224200  10.249   8.966   6.569  0.5488 -0.1332 -1.0799
39370SOL     OW24201   0.814   5.685   0.661 -0.0003  0.7791  0.2227
39370SOL    HW124202   0.857   5.708   0.579  0.0470  1.3320  0.4026
39370SOL    HW224203   0.720   5.683   0.640  0.1267 -1.5851 -0.4663
39371SOL     OW24204   2.602   5.404  10.796  0.4705  0.2980 -0.0622
39371SOL    HW124205   2.554   5.485  10.814  0.6084  0.6338 -1.1617
39371SOL    HW224206   2.595   5.392  10.702  0.5952 -0.8921  0.0619
39372SOL     OW24207  10.464   2.279   8.623 -0.0152  0.0857 -0.3604
39372SOL    HW124208  10.471   2.233   8.707  0.7178  1.9772  0.6722
39372SOL    HW224209  10.529   2.349   8.628 -0.8578  1.0540 -1.9802
39373SOL     OW24210   1.203   1.645   8.697  0.3776 -0.0643 -0.5605
39373SOL    HW124211   1.174   1.570   8.645  0.3467 -0.3721 -0.1066
39373SOL    HW224212   1.265   1.608   8.759 -1.7000 -0.2197  1.5352
39374SOL     OW24213   6.884   4.186   1.115 -0.0285  0.6463 -0.2911
39374SOL    HW124214   6.977   4.205   1.111  0.3913 -0.2851  2.6634
39374SOL    HW224215   6.879   4.101   1.159 -2.2775  1.1723  0.6042
39375SOL     OW24216   4.681  10.145   1.640 -0.2413  0.2467  0.0741
39375SOL    HW124217   4.769  10.137   1.676 -0.1504  0.7391 -0.0318
39375SOL    HW224218   4.677  10.080   1.570 -0.3822 -0.6367  0.8781
39376SOL     OW24219   9.988   9.745   5.166 -0.0585 -0.3737 -0.3202
39376SOL    HW124220   9.913   9.752   5.225 -0.9422  1.3588 -1.5593
39376SOL    HW224221   9.955   9.695   5.092  0.2479 -0.2672 -0.5280
39377SOL     OW24222   4.912   3.809   3.258 -0.2112 -0.5677 -0.3699
39377SOL    HW124223   4.984   3.871   3.244  0.6725 -1.5405 -0.2393
39377SOL    HW224224   4.912   3.755   3.180  0.2841 -1.6222  0.3388
39378SOL     OW24225   7.837   8.846   9.274  0.1607 -0.0745  0.1136
39378SOL    HW124226   7.796   8.883   9.353  0.6574  0.5448  0.0939
39378SOL    HW224227   7.906   8.909   9.252 -1.3079  0.9144 -2.0366
39379SOL     OW24228   8.428   7.371   4.486  0.0124 -0.5219 -0.0033
39379SOL    HW124229   8.369   7.372   4.561 -1.6068  0.5255 -1.2078
39379SOL    HW224230   8.383   7.316   4.421 -0.0638  0.9330 -1.2433
39380SOL     OW24231   2.174   0.482   3.185  0.0113 -0.0823  0.5147
39380SOL    HW124232   2.228   0.438   3.250 -0.4550 -0.3992  0.6941
39380SOL    HW224233   2.191   0.575   3.198 -0.6321 -0.1004  1.5892
39381SOL     OW24234  10.662  10.254   3.758  0.5357  0.2652  0.3618
39381SOL    HW124235  10.694  10.344   3.763  0.8827  0.2124 -0.7250
39381SOL    HW224236  10.567  10.263   3.759  0.5691  0.6135  0.7033
39382SOL     OW24237   7.077  10.488   5.604 -0.1408 -0.5711  0.4633
39382SOL    HW124238   7.131  10.427   5.654  0.7780 -0.7444 -0.6913
39382SOL    HW224239   7.123  10.498   5.520 -0.4371  1.4745  0.4940
39383SOL     OW24240   5.358   7.827   8.385  0.1423  0.1872  0.5257
39383SOL    HW124241   5.283   7.886   8.378  0.0324  0.2239  1.7396
39383SOL    HW224242   5.327   7.745   8.346 -0.0857  0.5821 -0.1429
39384SOL     OW24243   5.755   7.676   1.729  0.7760  0.1343  0.2443
39384SOL    HW124244   5.705   7.737   1.675  0.8621 -1.0626 -1.2747
39384SOL    HW224245   5.846   7.689   1.701  1.1165  1.0096  1.6742
39385SOL     OW24246   6.004   5.723   9.369  0.0912  0.0844 -0.2453
39385SOL    HW124247   5.960   5.798   9.407 -1.6261 -0.1685 -1.6279
39385SOL    HW224248   6.097   5.742   9.381 -0.3233  1.5077  1.1101
39386SOL     OW24249  10.887   0.477   3.227 -0.2441  0.1071 -0.8032
39386SOL    HW124250  10.955   0.429   3.179 -0.4456 -0.9292 -0.0656
39386SOL    HW224251  10.807   0.428   3.212 -0.5667  0.5327 -0.5009
39387SOL     OW24252   1.188   3.131  10.074 -0.1216 -0.0772  0.1125
39387SOL    HW124253   1.265   3.174  10.037 -0.1018 -0.1896  0.0223
39387SOL    HW224254   1.117   3.194  10.062  0.0967  0.3293  0.8476
39388SOL     OW24255   4.392   8.702   0.075 -0.0361  0.7082 -0.2696
39388SOL    HW124256   4.360   8.633   0.132  2.6474  0.4264  1.0575
39388SOL    HW224257   4.449   8.657   0.012 -0.6642  1.3783 -1.3566
39389SOL     OW24258   2.491   8.122  10.885 -0.1979  0.2759 -0.5484
39389SOL    HW124259   2.477   8.203  10.836 -0.5720  0.5996  0.0871
39389SOL    HW224260   2.475   8.146  10.976 -0.7869 -0.6259 -0.4055
39390SOL     OW24261   9.259   5.094   8.731 -0.3975  0.5317 -0.1973
39390SOL    HW124262   9.183   5.150   8.716  0.4860  2.3226  1.5937
39390SOL    HW224263   9.334   5.153   8.722  0.5873 -0.3989  1.5133
39391SOL     OW24264   3.118   6.975   9.659  0.2580  0.3056 -0.1766
39391SOL    HW124265   3.024   6.985   9.675 -0.2938 -0.5826 -2.4193
39391SOL    HW224266   3.142   7.051   9.607  0.7976  0.5315  0.3903
39392SOL     OW24267   3.364   5.855  10.301  0.3345  0.6947  0.1863
39392SOL    HW124268   3.386   5.824  10.214 -0.1033  0.3228  0.2040
39392SOL    HW224269   3.273   5.883  10.295 -0.4024 -1.3578  1.0356
39393SOL     OW24270   3.993   3.137   0.675  0.5668 -0.7030 -0.4586
39393SOL    HW124271   4.005   3.230   0.692 -0.7492 -0.6612  0.3827
39393SOL    HW224272   3.943   3.105   0.750  1.6671 -2.2719 -0.3347
39394SOL     OW24273   3.287   1.039   9.796  0.8516 -0.0545 -0.1463
39394SOL    HW124274   3.213   0.989   9.763  0.4235  1.2430 -1.2434
39394SOL    HW224275   3.364   0.988   9.773  0.3407 -1.1511  0.5200
39395SOL     OW24276   8.576   3.738   0.494 -0.5724 -0.0055  0.6688
39395SOL    HW124277   8.582   3.643   0.502  1.2241 -0.0907 -0.8983
39395SOL    HW224278   8.562   3.770   0.583 -2.3556 -1.7621  1.0873
39396SOL     OW24279   1.788   5.643   1.115 -0.1455  0.1410  0.3719
39396SOL    HW124280   1.697   5.669   1.131 -0.1952 -0.2043  0.6436
39396SOL    HW224281   1.839   5.693   1.178 -0.2133 -0.2014  0.6970
39397SOL     OW24282   0.374   1.362   7.660 -0.1026 -0.4052  0.0915
39397SOL    HW124283   0.348   1.328   7.746 -1.5926  0.3555 -0.0207
39397SOL    HW224284   0.292   1.372   7.613  0.6809 -0.5706 -1.3471
39398SOL     OW24285   5.012   3.658   9.559  0.2752  0.0351  0.1651
39398SOL    HW124286   4.988   3.725   9.623  0.7065 -0.2222  0.5982
39398SOL    HW224287   5.100   3.682   9.530  0.7832 -0.8131  0.9545
39399SOL     OW24288   2.481   4.926   3.676 -0.1602 -0.8313 -0.3181
39399SOL    HW124289   2.453   5.007   3.718  0.4926 -0.7133 -0.1046
39399SOL    HW224290   2.562   4.903   3.720 -0.4108 -1.6779 -0.2861
39400SOL     OW24291   9.321   7.773   5.531 -0.0804 -0.4774  0.5145
39400SOL    HW124292   9.271   7.840   5.578  0.4034 -0.0386  0.4157
39400SOL    HW224293   9.269   7.694   5.540  0.3194 -0.5735  2.3686
39401SOL     OW24294   2.253   8.279   8.067  0.2029 -0.2577  0.2179
39401SOL    HW124295   2.237   8.187   8.089 -0.6601 -0.4979 -1.2528
39401SOL    HW224296   2.322   8.276   8.002  1.5046  0.3061  1.5283
39402SOL     OW24297   9.721   5.490   5.834  0.4640  0.1214 -0.1781
39402SOL    HW124298   9.805   5.469   5.874 -0.3530 -0.3814  1.3695
39402SOL    HW224299   9.674   5.407   5.832 -0.8316  0.7770  1.1045
39403SOL     OW24300   1.325   4.203   5.302  0.5121  0.7004  0.0548
39403SOL    HW124301   1.301   4.162   5.385  2.3093  0.9921  0.7549
39403SOL    HW224302   1.296   4.293   5.310  0.2643  0.6112  0.1768
39404SOL     OW24303   2.713   3.679   4.943 -0.2237  0.5936 -0.5333
39404SOL    HW124304   2.641   3.741   4.948 -1.2929 -0.5659 -0.9891
39404SOL    HW224305   2.791   3.731   4.960 -1.3119  1.5509  2.0006
39405SOL     OW24306   1.812   7.657   8.053  0.3483  0.0717  0.7692
39405SOL    HW124307   1.723   7.692   8.054  0.2790  0.0010 -0.7376
39405SOL    HW224308   1.801   7.563   8.045  0.5573  0.0574  0.6404
39406SOL     OW24309   4.784   5.738   2.765  0.2563  0.4846 -0.2847
39406SOL    HW124310   4.725   5.800   2.724 -0.5578  0.5215  0.8911
39406SOL    HW224311   4.835   5.792   2.827 -0.7668 -0.0502  1.0716
39407SOL     OW24312   4.380   5.124   3.532  0.4599  0.8835  0.0107
39407SOL    HW124313   4.396   5.136   3.625 -0.3124 -2.2410  0.6366
39407SOL    HW224314   4.412   5.036   3.513 -2.5680  0.0260 -1.8530
39408SOL     OW24315   2.732   0.143   4.572 -0.0096 -0.1657 -0.4895
39408SOL    HW124316   2.714   0.211   4.637 -2.1140  0.3923 -1.5626
39408SOL    HW224317   2.646   0.105   4.553  0.6733 -0.9042 -2.2982
39409SOL     OW24318   8.143   4.887   5.002 -0.5556 -0.1482 -0.3075
39409SOL    HW124319   8.205   4.865   4.932 -0.0632  0.7031 -0.1546
39409SOL    HW224320   8.192   4.944   5.060 -0.7075 -1.4772  1.1909
39410SOL     OW24321   5.171   8.969   5.142 -0.2427 -0.0483 -0.4713
39410SOL    HW124322   5.236   9.039   5.156  0.3641 -0.4367 -1.2724
39410SOL    HW224323   5.223   8.891   5.125 -0.9234 -0.3997 -0.9812
39411SOL     OW24324   0.576   4.073  10.227  0.0516  0.0524 -0.4336
39411SOL    HW124325   0.641   4.143  10.220 -0.9792  1.2811  1.5753
39411SOL    HW224326   0.538   4.067  10.139  0.6521  1.5251 -0.8250
39412SOL     OW24327   0.914   4.925   7.416  0.2047 -0.1056 -0.5573
39412SOL    HW124328   0.954   4.890   7.336 -0.8029 -0.6827 -0.8126
39412SOL    HW224329   0.972   4.997   7.441  0.7926 -0.2177 -1.5370
39413SOL     OW24330   9.433   6.174  10.230  0.3391  0.3789  0.6865
39413SOL    HW124331   9.441   6.213  10.317  1.1583  1.2881  0.2276
39413SOL    HW224332   9.343   6.193  10.203 -0.1982 -0.6612  1.6604
39414SOL     OW24333   6.357   0.227   3.509 -0.4541 -0.6318 -0.2226
39414SOL    HW124334   6.273   0.200   3.473 -0.2938  0.6424 -1.6265
39414SOL    HW224335   6.341   0.314   3.544  0.2182 -0.4952 -0.2481
39415SOL     OW24336   6.866  10.008   9.276 -0.5841  0.8446  0.3350
39415SOL    HW124337   6.865   9.929   9.330 -0.7967 -0.1011 -0.9812
39415SOL    HW224338   6.775  10.018   9.247 -0.2479  0.5529 -0.8840
39416SOL     OW24339   8.657   8.819  10.022  0.5648  0.2474 -0.0438
39416SOL    HW124340   8.683   8.752  10.086  1.2559  1.0560  0.5440
39416SOL    HW224341   8.581   8.862  10.062  0.2112 -0.0837 -0.3544
39417SOL     OW24342   9.437   8.761   4.963 -0.0940  0.2562 -0.1167
39417SOL    HW124343   9.354   8.776   4.918 -0.6793 -0.7520  0.5967
39417SOL    HW224344   9.455   8.844   5.008 -1.3819  0.0844  0.7706
39418SOL     OW24345   2.897   0.282   9.837 -0.1318  0.3834  0.2195
39418SOL    HW124346   2.987   0.311   9.827  0.0892 -0.5690 -0.8184
39418SOL    HW224347   2.849   0.359   9.868  1.1867  0.6502  1.7055
39419SOL     OW24348   1.176   7.243   8.149 -0.1463  0.2819 -0.2113
39419SOL    HW124349   1.210   7.326   8.181  0.7980  0.3780 -1.3903
39419SOL    HW224350   1.199   7.180   8.217 -2.5505  1.2076  1.6434
39420SOL     OW24351  10.200   0.181   0.013  0.2179 -0.4408  0.3502
39420SOL    HW124352  10.286   0.152   0.043  0.3508  0.2329  0.6289
39420SOL    HW224353  10.205   0.277   0.015 -0.6710 -0.3965  0.7513
39421SOL     OW24354   9.822   4.314   2.021 -0.3709 -0.2134 -0.8025
39421SOL    HW124355   9.809   4.395   2.071 -0.0013  0.4488 -1.7686
39421SOL    HW224356   9.843   4.248   2.088 -1.5345  0.2715  0.0892
39422SOL     OW24357   0.349   2.125   6.576 -0.1719  0.1987  0.1903
39422SOL    HW124358   0.342   2.092   6.486 -0.6668 -0.0009  0.3014
39422SOL    HW224359   0.380   2.051   6.627 -0.5148  0.1281  0.2979
39423SOL     OW24360   0.793   4.862   9.475 -0.5143 -0.1130 -0.0478
39423SOL    HW124361   0.803   4.790   9.413 -0.5452 -1.1435  1.1168
39423SOL    HW224362   0.712   4.905   9.449  0.5051  0.7952 -2.0015
39424SOL     OW24363   4.045   5.026   4.900 -0.0261 -0.3413  0.0543
39424SOL    HW124364   3.954   5.053   4.887 -0.4701 -0.9774  1.6196
39424SOL    HW224365   4.059   4.958   4.833 -1.2593 -1.4392  0.8578
39425SOL     OW24366  10.157   9.259   7.740  0.3811  0.5588  0.0641
39425SOL    HW124367  10.157   9.174   7.784  0.3366 -0.0921 -1.1588
39425SOL    HW224368  10.077   9.260   7.688 -0.4564  2.0355  1.3037
39426SOL     OW24369   5.793   0.168   8.573  0.3946 -0.0515 -0.0048
39426SOL    HW124370   5.824   0.254   8.543 -0.7660  0.4830  0.2427
39426SOL    HW224371   5.766   0.123   8.493  0.2099  0.1478 -0.0551
39427SOL     OW24372   7.532   9.463   1.309 -0.0721  0.0284  0.1557
39427SOL    HW124373   7.457   9.426   1.263  0.0505  0.5043 -0.4348
39427SOL    HW224374   7.606   9.450   1.251 -0.0022  1.0624 -0.0083
39428SOL     OW24375  10.244   3.989   0.062 -0.0490 -0.0892  0.0477
39428SOL    HW124376  10.193   4.021  -0.013  2.8677  0.9613 -1.6713
39428SOL    HW224377  10.208   3.902   0.080 -0.9001 -0.3799 -2.6007
39429SOL     OW24378   8.889   7.381   8.625 -0.0899  0.0099 -0.0623
39429SOL    HW124379   8.822   7.430   8.673 -0.0837  0.2363 -0.2774
39429SOL    HW224380   8.919   7.315   8.686 -0.1772  0.2091  0.1983
39430SOL     OW24381   4.201   2.017   9.712 -0.9295 -0.0888  0.4724
39430SOL    HW124382   4.211   2.039   9.619  1.8137 -0.7216  0.5526
39430SOL    HW224383   4.106   2.004   9.722 -1.4396  1.0147 -1.9727
39431SOL     OW24384   4.141   8.058   4.035 -0.2983 -0.2036  0.1886
39431SOL    HW124385   4.158   8.082   4.126 -1.0514  1.5369 -0.0915
39431SOL    HW224386   4.210   8.103   3.985  0.1815 -1.2358 -0.1274
39432SOL     OW24387   0.055   2.433   0.553  0.0529  0.2247  0.0393
39432SOL    HW124388  -0.035   2.416   0.524  0.0727  0.0535  0.0773
39432SOL    HW224389   0.110   2.405   0.480  0.0513  0.8455 -0.2033
39433SOL     OW24390   4.779   3.278   9.718  0.0002 -0.1336 -0.1316
39433SOL    HW124391   4.799   3.298   9.810  3.3598 -1.8160 -0.3467
39433SOL    HW224392   4.683   3.281   9.713 -0.3036  0.1379  3.3815
39434SOL     OW24393   3.457   9.150   6.322  0.1630  0.7120  0.3757
39434SOL    HW124394   3.531   9.107   6.278  0.7463  1.1708  0.8869
39434SOL    HW224395   3.468   9.127   6.414  0.0818  1.3620  0.5551
39435SOL     OW24396   7.964   8.301   8.707  0.2916 -0.0738  0.3804
39435SOL    HW124397   8.030   8.238   8.678 -0.5724  0.1850 -2.4234
39435SOL    HW224398   7.887   8.248   8.729  0.4070 -0.1628  0.5745
39436SOL     OW24399  10.610   3.578   2.827 -0.4421 -0.1902 -0.2943
39436SOL    HW124400  10.607   3.482   2.835  0.8320 -0.3733 -1.4935
39436SOL    HW224401  10.519   3.604   2.818 -0.7359 -1.4979 -1.6807
39437SOL     OW24402   6.272   2.596   2.582  0.1740 -0.3137  0.3736
39437SOL    HW124403   6.213   2.548   2.524 -0.5659 -0.9054  1.5712
39437SOL    HW224404   6.218   2.665   2.620  0.3955 -0.4817  1.0161
39438SOL     OW24405   6.075   9.953   2.643  0.2722 -0.0089  0.5293
39438SOL    HW124406   6.124   9.967   2.725  0.6087  1.2096  0.1397
39438SOL    HW224407   6.062  10.041   2.608  1.0456 -0.5656 -1.2570
39439SOL     OW24408   4.963   5.044   5.881 -0.2523  0.4367  0.3415
39439SOL    HW124409   4.997   5.099   5.952  1.2363  1.5475 -1.1345
39439SOL    HW224410   4.895   5.098   5.840  1.1201  1.2237 -1.0272
39440SOL     OW24411   1.700   0.196   7.084  0.1520 -0.0393  0.5318
39440SOL    HW124412   1.716   0.242   7.166 -0.6281  1.2486 -0.0059
39440SOL    HW224413   1.610   0.164   7.091  0.1169 -0.0152  0.2301
39441SOL     OW24414   4.155   9.797   5.391 -0.0811  0.0062 -0.1370
39441SOL    HW124415   4.248   9.818   5.387 -0.0182 -0.4919 -1.6725
39441SOL    HW224416   4.124   9.803   5.301 -1.8007  1.2324  0.4643
39442SOL     OW24417   1.724   6.687   2.834  0.3739  0.2227  0.2250
39442SOL    HW124418   1.648   6.744   2.848 -0.6864 -1.0237 -0.2150
39442SOL    HW224419   1.722   6.669   2.740  1.9590  1.1489 -0.0113
39443SOL     OW24420   6.036   7.032   8.108 -0.1540  0.5881 -0.0494
39443SOL    HW124421   6.025   6.989   8.192  1.0831  0.3904  0.0310
39443SOL    HW224422   6.043   6.961   8.045 -2.4792  0.7307 -0.5618
39444SOL     OW24423   5.182   8.694   7.412 -0.2047  1.0710  0.2050
39444SOL    HW124424   5.169   8.760   7.481 -3.0175  0.7737  0.0824
39444SOL    HW224425   5.097   8.689   7.367  0.7549 -0.6643 -1.5715
39445SOL     OW24426   6.600   7.356   8.640  0.2507 -0.3014  0.6141
39445SOL    HW124427   6.685   7.316   8.619 -0.1131 -0.6614 -0.2329
39445SOL    HW224428   6.616   7.403   8.722  2.1977  2.4021 -1.1383
39446SOL     OW24429   6.317   8.391   5.746  0.1439  0.5529  0.1486
39446SOL    HW124430   6.253   8.460   5.767 -0.2686  0.2129  0.0158
39446SOL    HW224431   6.267   8.326   5.698  0.9709  1.0764 -1.4658
39447SOL     OW24432   3.850   0.831   3.375  0.2741  0.2566 -0.2587
39447SOL    HW124433   3.927   0.776   3.357  0.9398  1.4992 -1.3834
39447SOL    HW224434   3.780   0.768   3.395  0.1583 -1.2729 -4.4687
39448SOL     OW24435   2.955   3.261   3.415 -0.2272 -0.8657  0.1972
39448SOL    HW124436   2.951   3.332   3.479  0.3938  0.5416 -1.2652
39448SOL    HW224437   2.901   3.291   3.341  0.2654 -1.7953 -0.5729
39449SOL     OW24438   4.419   8.420   9.084 -0.1393  1.0696  0.0749
39449SOL    HW124439   4.511   8.446   9.077 -0.2158  1.1574 -0.6819
39449SOL    HW224440   4.416   8.363   9.161  0.5674  0.9764  0.0403
39450SOL     OW24441   1.795   2.283  10.471  0.1770 -0.1621  0.0932
39450SOL    HW124442   1.812   2.194  10.500  1.6359  0.0136 -0.1607
39450SOL    HW224443   1.865   2.303  10.409 -0.1281  1.1514  0.1277
39451SOL     OW24444   3.756   0.356   0.461  0.1427  0.1168 -0.0124
39451SOL    HW124445   3.834   0.316   0.422 -0.9114 -0.5568 -1.5571
39451SOL    HW224446   3.787   0.397   0.541  2.2964  0.8762 -1.1700
39452SOL     OW24447   9.052   1.812   7.329  0.1910 -0.5326  0.0281
39452SOL    HW124448   9.115   1.857   7.273  0.1338  2.5575  2.1603
39452SOL    HW224449   8.973   1.804   7.274  0.6604  0.8240 -0.9115
39453SOL     OW24450   6.465   8.272   8.961 -0.1791  0.3154  0.4733
39453SOL    HW124451   6.561   8.269   8.967 -0.1400  1.0737  0.2872
39453SOL    HW224452   6.437   8.310   9.045 -0.3859 -0.8841  0.9631
39454SOL     OW24453   7.096   2.233   4.182 -0.4139 -0.0405  0.5914
39454SOL    HW124454   7.067   2.317   4.147  0.8458  0.0777 -0.2385
39454SOL    HW224455   7.141   2.255   4.264 -0.5001  0.0471  0.6143
39455SOL     OW24456   5.766   8.662   4.516  0.0634  0.0077  0.7912
39455SOL    HW124457   5.767   8.753   4.485 -2.1457 -1.0621 -3.0963
39455SOL    HW224458   5.849   8.625   4.486 -0.9241 -0.3053 -1.7479
39456SOL     OW24459   9.566   1.709   4.673 -0.5793  0.2500  0.4716
39456SOL    HW124460   9.572   1.704   4.577 -0.2226 -2.1914  0.5642
39456SOL    HW224461   9.580   1.801   4.693 -0.1790  0.7351 -1.7965
39457SOL     OW24462   6.266   6.756   1.430 -0.1259  0.0755 -0.0411
39457SOL    HW124463   6.211   6.757   1.508  1.0123 -1.3290  0.8270
39457SOL    HW224464   6.341   6.702   1.454  1.0222  0.8904 -1.6077
39458SOL     OW24465   9.178   5.270   7.484  0.1083  0.0036 -0.8684
39458SOL    HW124466   9.260   5.302   7.522  0.1592 -0.8654 -0.2090
39458SOL    HW224467   9.126   5.349   7.471  0.0164  0.3444  1.2413
39459SOL     OW24468   5.169   5.253   8.898 -0.0561 -0.7669 -0.1626
39459SOL    HW124469   5.104   5.316   8.929  1.3872  0.2996  0.8702
39459SOL    HW224470   5.192   5.283   8.810 -1.9823 -2.0272 -1.1538
39460SOL     OW24471   6.781   3.499  10.492  0.2960 -0.8045 -0.8186
39460SOL    HW124472   6.874   3.519  10.507 -0.1070  0.7630 -0.1664
39460SOL    HW224473   6.755   3.560  10.422 -0.9792  1.1273  1.2095
39461SOL     OW24474   8.747   9.940   7.162 -0.4679 -0.6386  0.3189
39461SOL    HW124475   8.825   9.966   7.210 -0.2502 -2.0805  0.7813
39461SOL    HW224476   8.779   9.922   7.073 -0.2614 -1.2457  0.5118
39462SOL     OW24477   9.338   1.461   1.649 -0.5169 -0.3879 -0.2414
39462SOL    HW124478   9.369   1.490   1.563 -1.6639  1.1298 -0.1861
39462SOL    HW224479   9.382   1.519   1.711 -2.9606  1.5501 -0.1354
39463SOL     OW24480   2.403   4.410   0.992  0.6119 -0.4362  0.1283
39463SOL    HW124481   2.477   4.470   0.982  0.0799  0.0476 -1.2137
39463SOL    HW224482   2.394   4.398   1.086 -0.1488  2.7406  0.5656
39464SOL     OW24483   5.960   0.467   1.485  0.1548  0.1217 -0.7307
39464SOL    HW124484   6.048   0.499   1.465 -0.4275  0.8979 -2.2246
39464SOL    HW224485   5.921   0.449   1.399 -0.1869 -2.9501 -0.0506
39465SOL     OW24486   7.138   5.779   1.567 -0.1986 -0.4325 -0.2449
39465SOL    HW124487   7.121   5.717   1.638  1.7720 -0.4504  0.2715
39465SOL    HW224488   7.225   5.754   1.534  0.5095  1.8342 -0.2381
39466SOL     OW24489   5.000   9.905   6.748 -0.4448 -0.4467 -0.3408
39466SOL    HW124490   4.996   9.870   6.837  1.9172 -1.6748 -0.6486
39466SOL    HW224491   4.941   9.849   6.698 -1.8423  0.2899  0.4154
39467SOL     OW24492   8.747   9.163   0.685 -0.0282  0.1730 -0.0201
39467SOL    HW124493   8.774   9.078   0.650  1.6005  0.5785  0.2119
39467SOL    HW224494   8.653   9.168   0.664 -0.4314 -2.1315  0.9217
39468SOL     OW24495   7.128   6.382   8.115  0.5638  0.7856  0.4360
39468SOL    HW124496   7.221   6.368   8.096  0.5254 -0.8481  1.2328
39468SOL    HW224497   7.084   6.311   8.069 -0.0653  0.2837  1.7467
39469SOL     OW24498   7.339   0.762   1.179 -0.2381  0.0685  0.3597
39469SOL    HW124499   7.337   0.667   1.177  0.5689  0.0295  1.1202
39469SOL    HW224500   7.418   0.786   1.131 -0.8028  0.3904 -0.4347
39470SOL     OW24501  10.920   9.410   0.234  0.6246  0.2254 -0.6779
39470SOL    HW124502  10.944   9.328   0.277 -0.1482  0.3768  0.0653
39470SOL    HW224503  10.848   9.445   0.287  0.1562  0.7977 -1.6647
39471SOL     OW24504   0.918   3.885   6.367 -0.6351  0.6292 -0.1376
39471SOL    HW124505   0.951   3.888   6.277  0.2340 -0.1269  0.1359
39471SOL    HW224506   0.928   3.975   6.399  3.0703  0.1512  0.5463
39472SOL     OW24507   0.168   4.150   6.241  0.1362  0.2261  0.4668
39472SOL    HW124508   0.222   4.071   6.250 -0.0753  0.2046  1.7640
39472SOL    HW224509   0.142   4.171   6.331 -0.5229  1.2802  0.0425
39473SOL     OW24510   2.813   0.469   0.514  0.7233 -0.0365  0.0880
39473SOL    HW124511   2.880   0.514   0.566 -0.2129  0.6884  0.7066
39473SOL    HW224512   2.792   0.390   0.565 -0.3018  0.7509  0.9113
39474SOL     OW24513   4.644   9.142   7.703 -0.2194 -0.1653 -0.5931
39474SOL    HW124514   4.630   9.167   7.612  1.6009  0.1817 -0.8247
39474SOL    HW224515   4.620   9.049   7.706 -0.5253 -0.1174 -1.3593
39475SOL     OW24516   2.132   4.989   2.588  0.8210 -0.0974 -0.7522
39475SOL    HW124517   2.146   4.946   2.503 -3.0560 -1.3005 -0.9707
39475SOL    HW224518   2.102   4.919   2.645  0.1231  1.2951  0.6494
39476SOL     OW24519  10.389   8.415   5.154  0.4286 -1.0497 -0.3259
39476SOL    HW124520  10.328   8.351   5.118  0.6136 -2.1400  1.2020
39476SOL    HW224521  10.474   8.370   5.153  1.3491  0.5469 -2.7076
39477SOL     OW24522   1.601   3.672  10.794  0.1404  0.2215 -0.1628
39477SOL    HW124523   1.541   3.604  10.762 -2.3701  1.8181  0.8130
39477SOL    HW224524   1.650   3.699  10.716  1.1771 -2.5547 -0.5974
39478SOL     OW24525   1.043   5.008  10.246 -0.3173 -0.1148 -0.6850
39478SOL    HW124526   1.029   5.102  10.256 -0.9962 -0.1544 -1.2216
39478SOL    HW224527   0.963   4.969  10.279  0.0345 -0.5195 -0.2997
39479SOL     OW24528   1.401   0.495   6.633  0.0332  0.0149 -0.4407
39479SOL    HW124529   1.307   0.478   6.626  0.3688 -2.7212  0.5711
39479SOL    HW224530   1.409   0.590   6.623 -2.7930  0.3038 -0.7685
39480SOL     OW24531  10.890   6.882   6.123 -0.6239 -0.5310  0.5478
39480SOL    HW124532  10.949   6.916   6.190 -0.8438 -0.4907  0.7207
39480SOL    HW224533  10.947   6.864   6.048 -0.1596 -1.7855  1.1678
39481SOL     OW24534   8.501   6.954   5.653  0.3020 -0.2715 -0.4970
39481SOL    HW124535   8.441   6.923   5.721  0.5886  0.7729  0.2541
39481SOL    HW224536   8.460   7.034   5.620  0.4304 -0.4895 -1.1881
39482SOL     OW24537   2.661   1.686   3.863 -0.4791  0.0745  0.3907
39482SOL    HW124538   2.661   1.779   3.885 -0.3270  0.6250 -1.7446
39482SOL    HW224539   2.573   1.656   3.885 -0.4886  0.6635  1.2173
39483SOL     OW24540   5.001   0.142   3.479  1.0216  0.1671 -0.0393
39483SOL    HW124541   4.913   0.128   3.444  0.4035 -0.5404  1.6933
39483SOL    HW224542   5.041   0.056   3.478  1.1402  0.2094  0.5514
39484SOL     OW24543   4.750   9.850   0.345  0.2962 -0.0969  0.1136
39484SOL    HW124544   4.728   9.813   0.259 -3.4313  0.0599  0.8138
39484SOL    HW224545   4.774   9.774   0.398 -0.2969 -0.5905 -0.3103
39485SOL     OW24546  10.665   5.174   2.350  0.2641  0.5632 -0.2070
39485SOL    HW124547  10.636   5.084   2.368 -1.5349  0.7078 -1.9730
39485SOL    HW224548  10.683   5.211   2.436 -1.4420 -0.7248  0.7780
39486SOL     OW24549   4.044   0.372   6.701  0.1220  0.3807 -0.2458
39486SOL    HW124550   4.038   0.434   6.628 -0.5598  1.0607  0.3661
39486SOL    HW224551   4.028   0.425   6.779 -1.4297 -0.7295  0.2345
39487SOL     OW24552  10.378   5.931   1.258  0.1035 -0.3129 -0.1898
39487SOL    HW124553  10.282   5.939   1.254 -0.1244 -1.2801  1.9604
39487SOL    HW224554  10.396   5.850   1.210 -0.0322  0.2967 -1.3160
39488SOL     OW24555  10.049  10.574   7.969  0.1174  1.2345 -0.1119
39488SOL    HW124556  10.044  10.655   7.917  0.5205  0.9967 -0.5267
39488SOL    HW224557  10.035  10.504   7.905  0.9722  0.9199  0.0324
39489SOL     OW24558   0.086   8.411   8.260  0.0417 -0.1900 -1.0036
39489SOL    HW124559   0.175   8.396   8.291 -0.1094 -0.8158 -0.8547
39489SOL    HW224560   0.097   8.456   8.176  0.4968 -0.2789 -0.9928
39490SOL     OW24561   2.236   8.259   6.634 -0.1697  0.1314 -0.2854
39490SOL    HW124562   2.185   8.178   6.630 -0.7487  0.5249 -1.1653
39490SOL    HW224563   2.291   8.249   6.712  0.5319 -1.5698 -0.9414
39491SOL     OW24564   7.228   9.781   3.913  0.1751 -0.3808  0.1792
39491SOL    HW124565   7.281   9.748   3.985  1.4702  0.1241 -0.5210
39491SOL    HW224566   7.274   9.858   3.881 -0.0999 -0.8603 -1.5021
39492SOL     OW24567   5.729   6.482  10.802  0.3380  0.4268 -0.3787
39492SOL    HW124568   5.790   6.555  10.811  0.3085  0.6086 -1.4943
39492SOL    HW224569   5.643   6.521  10.815  0.2158  0.8968 -2.2414
39493SOL     OW24570   0.777   7.124   3.508  0.7794 -0.1185  0.0515
39493SOL    HW124571   0.804   7.060   3.574 -0.5901 -1.1559 -0.3632
39493SOL    HW224572   0.836   7.108   3.434  2.7764  1.4921  1.1693
39494SOL     OW24573   3.271   8.313   8.398  0.0268  0.5715 -0.2936
39494SOL    HW124574   3.328   8.345   8.328  0.4443 -0.7007 -0.5625
39494SOL    HW224575   3.228   8.236   8.361 -1.7826  1.4061 -0.0353
39495SOL     OW24576   5.570  10.212  10.076 -0.0118 -0.3221 -0.1139
39495SOL    HW124577   5.613  10.152  10.015  0.4535 -1.4064  1.2175
39495SOL    HW224578   5.532  10.155  10.143 -0.9377  0.7983  0.3534
39496SOL     OW24579   6.765   9.021  10.836  0.1377 -0.0236  0.3621
39496SOL    HW124580   6.805   8.934  10.837 -0.5092 -0.3281  0.5556
39496SOL    HW224581   6.677   9.006  10.802  0.5942  0.8243 -1.3160
39497SOL     OW24582  10.506   2.734   3.630 -0.2669 -0.3510 -0.0249
39497SOL    HW124583  10.602   2.734   3.639 -0.3451 -0.5253  0.8694
39497SOL    HW224584  10.480   2.824   3.649 -0.2240 -0.0864 -1.1144
39498SOL     OW24585   8.616   3.783   5.619  0.0892  0.1401 -0.1368
39498SOL    HW124586   8.595   3.796   5.526  0.5954  0.4907 -0.2039
39498SOL    HW224587   8.611   3.688   5.631 -1.3027  0.1851 -0.2005
39499SOL     OW24588   9.005  10.147   1.535 -0.3348  0.2245 -0.0745
39499SOL    HW124589   8.932  10.198   1.568 -0.7652 -0.1169 -0.4801
39499SOL    HW224590   9.083  10.195   1.563 -0.6664 -0.1157  1.5409
39500SOL     OW24591   6.529   2.970   1.959  0.0111  0.7504 -0.0201
39500SOL    HW124592   6.539   2.884   2.001  0.0027  0.7653  0.0131
39500SOL    HW224593   6.467   2.954   1.888  1.6793  0.2614 -1.4156
39501SOL     OW24594   8.197   8.560   7.090 -0.2134  0.2079  0.3596
39501SOL    HW124595   8.143   8.599   7.159 -1.0784 -0.7910  0.2771
39501SOL    HW224596   8.193   8.623   7.019 -0.6037  0.5284  0.6557
39502SOL     OW24597   5.231   2.147   6.322 -0.1091  0.4466 -0.3402
39502SOL    HW124598   5.190   2.061   6.320  0.1221  0.3437 -1.6598
39502SOL    HW224599   5.251   2.163   6.415 -0.0494 -0.9564 -0.0998
39503SOL     OW24600   4.943   1.505   3.503  0.3355 -0.4070  0.3603
39503SOL    HW124601   4.945   1.560   3.424  0.0829 -1.2592 -0.2470
39503SOL    HW224602   4.873   1.543   3.556 -1.5345 -1.5803 -1.1452
39504SOL     OW24603   5.523   2.467   8.570 -0.0350  0.1279 -0.6329
39504SOL    HW124604   5.547   2.541   8.515 -0.8244 -0.1409 -1.3676
39504SOL    HW224605   5.606   2.427   8.595  0.6195  2.6439  1.8282
39505SOL     OW24606   2.656   3.837  10.248 -0.1098 -0.0234 -0.6165
39505SOL    HW124607   2.615   3.856  10.164 -0.2380 -0.2840 -0.6122
39505SOL    HW224608   2.595   3.779  10.293  0.9202 -1.6352 -1.2150
39506SOL     OW24609   7.393   8.215   3.312 -0.2047 -0.2116 -0.7344
39506SOL    HW124610   7.484   8.221   3.339 -0.5881  1.4110  0.4088
39506SOL    HW224611   7.382   8.126   3.279  1.5056 -0.7701  0.1348
39507SOL     OW24612   7.993   8.399  10.719 -0.1579  0.4995 -0.0251
39507SOL    HW124613   7.971   8.436  10.804 -0.3227  1.7744 -0.6044
39507SOL    HW224614   7.959   8.462  10.655 -0.5891 -0.7353 -1.0544
39508SOL     OW24615   0.501   9.875   0.907  0.7155  0.1209  0.3209
39508SOL    HW124616   0.460   9.961   0.901  1.6003  0.6535  1.4806
39508SOL    HW224617   0.435   9.814   0.874 -0.7300  1.0372  1.3982
39509SOL     OW24618   7.557   3.344   2.232  0.2266 -0.0969 -0.1045
39509SOL    HW124619   7.646   3.356   2.198 -0.4784  0.7296 -1.8080
39509SOL    HW224620   7.539   3.425   2.281 -0.0319  0.3220 -0.8729
39510SOL     OW24621   1.176   6.265   9.053 -0.6987  0.4325  0.0462
39510SOL    HW124622   1.251   6.250   9.111 -1.8241  2.1318  2.0937
39510SOL    HW224623   1.132   6.181   9.048  1.7712 -0.8534 -1.9517
39511SOL     OW24624   5.389   6.298   1.097  0.2151  0.0875  0.0136
39511SOL    HW124625   5.377   6.393   1.100 -0.2866  0.0823 -1.2371
39511SOL    HW224626   5.480   6.286   1.070  0.7189  0.1859  1.5873
39512SOL     OW24627   9.754   0.961   1.504  0.3367  0.1746  0.0420
39512SOL    HW124628   9.666   0.967   1.542  0.0543  1.9464 -0.7796
39512SOL    HW224629   9.801   1.036   1.541  1.6876 -1.0019  0.8231
39513SOL     OW24630   3.793   1.697  10.490 -0.2162  0.1191  0.0844
39513SOL    HW124631   3.807   1.643  10.413  0.1272  1.4536 -0.8129
39513SOL    HW224632   3.881   1.710  10.527 -0.3603 -0.3854  0.6265
39514SOL     OW24633   8.765   6.666   5.803 -0.0447 -0.0168 -0.0104
39514SOL    HW124634   8.776   6.761   5.806 -2.5486  0.3264  0.0645
39514SOL    HW224635   8.686   6.652   5.751 -0.3830 -1.9991  0.9342
39515SOL     OW24636   6.196   0.310   4.744 -0.1630  0.3306 -0.1614
39515SOL    HW124637   6.226   0.259   4.820  0.4424  0.6308 -0.1898
39515SOL    HW224638   6.103   0.325   4.760 -0.3561 -0.7827 -0.1501
39516SOL     OW24639   5.897   3.262   0.408  0.0121 -0.4085 -0.3263
39516SOL    HW124640   5.840   3.252   0.333 -0.0237  1.9847 -0.6798
39516SOL    HW224641   5.844   3.234   0.483 -0.8526 -0.3393 -0.9077
39517SOL     OW24642   7.253   6.256   0.075 -0.1492 -0.2490 -0.3486
39517SOL    HW124643   7.180   6.195   0.088 -0.1579 -0.7917 -2.5379
39517SOL    HW224644   7.283   6.239  -0.014  1.5577  1.1687 -0.1020
39518SOL     OW24645   4.957   5.664   8.220  0.5114 -0.4556 -0.1443
39518SOL    HW124646   4.960   5.606   8.144 -1.5103 -0.5150 -0.2393
39518SOL    HW224647   5.024   5.630   8.279 -0.0017 -2.3468 -0.5883
39519SOL     OW24648   8.249   4.225   6.836  0.4819  0.2588 -0.2136
39519SOL    HW124649   8.195   4.223   6.757  1.2530  1.3226 -0.8045
39519SOL    HW224650   8.196   4.181   6.902 -0.0185 -1.0299 -1.4143
39520SOL     OW24651   3.700   8.565   3.105 -0.6593 -0.6334 -0.1012
39520SOL    HW124652   3.771   8.501   3.112 -1.7020 -1.6790  1.5052
39520SOL    HW224653   3.663   8.549   3.018  0.6255 -0.5293 -0.6915
39521SOL     OW24654   1.398   7.964   9.467 -0.7171 -0.5846 -0.5393
39521SOL    HW124655   1.383   7.870   9.468  0.1941 -0.7284  0.7942
39521SOL    HW224656   1.473   7.976   9.410  0.5183 -0.9094  0.9585
39522SOL     OW24657  10.737   3.236   0.752 -0.6696  0.1720  0.6502
39522SOL    HW124658  10.643   3.230   0.733 -0.6904 -0.0836  0.8429
39522SOL    HW224659  10.758   3.155   0.799  0.1412 -0.9484 -1.4824
39523SOL     OW24660   5.256   5.945   0.069  1.2690  0.3594 -0.2010
39523SOL    HW124661   5.202   6.004   0.017  0.4063 -0.6499 -0.5047
39523SOL    HW224662   5.231   5.962   0.160 -1.7987 -2.0423 -0.4339
39524SOL     OW24663   6.776   5.606   3.837  0.4479  0.1020 -0.4739
39524SOL    HW124664   6.823   5.650   3.909  2.0826  0.1743 -1.5309
39524SOL    HW224665   6.774   5.671   3.767 -1.0996  0.0190 -0.5505
39525SOL     OW24666   7.591   5.170   4.297 -0.1021 -0.1449  0.0211
39525SOL    HW124667   7.661   5.108   4.317 -0.3843 -0.5463 -0.2220
39525SOL    HW224668   7.628   5.226   4.228  0.2563  0.1466  0.4461
39526SOL     OW24669   4.494   7.225   0.891  0.1240 -0.2832 -0.2851
39526SOL    HW124670   4.497   7.262   0.803 -2.3885 -2.4264 -1.4072
39526SOL    HW224671   4.455   7.138   0.880  0.4233 -0.9540  2.8582
39527SOL     OW24672   7.724   6.530   0.539 -0.4822 -0.1436 -0.1471
39527SOL    HW124673   7.752   6.463   0.476 -2.9592 -1.2525 -0.1729
39527SOL    HW224674   7.652   6.575   0.495  0.9346  2.4378 -0.0126
39528SOL     OW24675   7.218   0.833   8.940  0.5282 -0.1186  0.0723
39528SOL    HW124676   7.142   0.830   8.881  0.2635  1.2212  0.3335
39528SOL    HW224677   7.192   0.779   9.015  0.1373 -0.3049 -0.1957
39529SOL     OW24678   8.616   5.686   9.109 -0.1662  0.3792  0.1594
39529SOL    HW124679   8.581   5.757   9.164 -0.4836 -0.2556  0.7923
39529SOL    HW224680   8.707   5.711   9.093 -0.0675  0.5757  0.9795
39530SOL     OW24681  10.014   5.208   8.470 -0.1591  0.0167  0.0014
39530SOL    HW124682  10.015   5.147   8.544 -0.9351 -0.3058 -0.2502
39530SOL    HW224683  10.091   5.184   8.418  0.2339  0.0636  0.5502
39531SOL     OW24684   6.169   8.137   8.595  0.4757  0.6808  0.5264
39531SOL    HW124685   6.199   8.197   8.663 -1.3236  1.1479  0.9533
39531SOL    HW224686   6.142   8.058   8.642  2.9691 -0.6110 -0.0397
39532SOL     OW24687   9.127   2.242   3.147  0.5057 -0.4318 -0.2578
39532SOL    HW124688   9.155   2.254   3.237  0.8703 -0.5205 -0.3562
39532SOL    HW224689   9.109   2.148   3.140 -2.4587 -0.0075  0.5450
39533SOL     OW24690   1.985   6.756   5.421 -0.2151 -0.2133 -0.5614
39533SOL    HW124691   1.938   6.734   5.340 -1.1055 -1.4117  0.2403
39533SOL    HW224692   1.925   6.731   5.491 -0.7404  3.5715  0.5529
39534SOL     OW24693   0.720   9.335   5.913  0.1758 -0.7594  0.0638
39534SOL    HW124694   0.805   9.371   5.938  0.4369 -1.8828  0.9156
39534SOL    HW224695   0.677   9.405   5.865  0.8083  0.5192  1.2812
39535SOL     OW24696   8.916  10.582   1.139  0.0165 -0.0424  0.1135
39535SOL    HW124697   8.903  10.668   1.177 -2.3459 -0.8672  1.3937
39535SOL    HW224698   9.004  10.555   1.167  0.1445  1.2756  1.0198
39536SOL     OW24699   3.210   7.916   6.995  0.2177 -0.5054 -0.1334
39536SOL    HW124700   3.248   7.849   6.939  2.1001  0.1489  0.2749
39536SOL    HW224701   3.204   7.875   7.081 -0.0697 -0.6184 -0.2048
39537SOL     OW24702   3.683   0.866   9.906  0.4392 -0.0805  0.3204
39537SOL    HW124703   3.736   0.817   9.969  0.7647  0.2812  0.3335
39537SOL    HW224704   3.592   0.847   9.931  0.5433  1.0934  1.7435
39538SOL     OW24705   2.022   8.914   0.624 -0.0717  0.5430  0.0173
39538SOL    HW124706   1.952   8.923   0.688 -0.6963  0.5009 -0.6409
39538SOL    HW224707   1.989   8.849   0.561 -0.4035  2.0809 -1.4983
39539SOL     OW24708   1.220  10.197   5.662  0.6895 -0.1892  0.6516
39539SOL    HW124709   1.252  10.287   5.658 -2.7948  1.2994  2.0322
39539SOL    HW224710   1.225  10.174   5.755 -0.6217 -0.4526  0.6871
39540SOL     OW24711   8.622   1.746   1.137 -0.1013  0.3484 -0.5696
39540SOL    HW124712   8.533   1.729   1.168 -0.1732 -0.0485 -0.9824
39540SOL    HW224713   8.619   1.836   1.105  0.5943  1.6945  2.7561
39541SOL     OW24714   6.474   2.958   2.361 -0.2230 -0.0626 -0.1851
39541SOL    HW124715   6.508   2.907   2.288  0.3841  0.2018 -0.0930
39541SOL    HW224716   6.477   2.898   2.436 -2.0080 -0.7365 -0.6089
39542SOL     OW24717   5.400   9.126   1.650  0.2553  0.2299  0.1659
39542SOL    HW124718   5.425   9.153   1.562 -0.0602 -0.4508 -0.1346
39542SOL    HW224719   5.483   9.118   1.697  0.4241  0.5648 -0.0728
39543SOL     OW24720   5.037   3.798   4.459 -0.4449 -0.2231  0.0914
39543SOL    HW124721   4.953   3.770   4.422 -1.4375 -0.9066  2.6312
39543SOL    HW224722   5.049   3.887   4.427 -1.7952 -0.3582 -0.8707
39544SOL     OW24723  10.721   9.297   9.769 -0.1961 -0.5065  0.1824
39544SOL    HW124724  10.816   9.310   9.765 -0.3243  0.2792 -0.4662
39544SOL    HW224725  10.703   9.288   9.863  0.2733  1.4372  0.5054
39545SOL     OW24726   1.701   2.423   1.783  0.5299  0.5008  0.9775
39545SOL    HW124727   1.706   2.496   1.721  1.1735  0.8102  1.3817
39545SOL    HW224728   1.628   2.369   1.751 -0.3403  1.6267  0.9965
39546SOL     OW24729   2.104  10.353   2.797  0.1615 -0.0862 -0.3675
39546SOL    HW124730   2.039  10.341   2.727  0.8352  1.6263 -1.3388
39546SOL    HW224731   2.171  10.286   2.779  0.2407  0.2234 -1.2724
39547SOL     OW24732   2.680   8.214   5.134  0.2568 -0.2762 -0.2925
39547SOL    HW124733   2.730   8.135   5.116  0.4824 -0.8318  2.3082
39547SOL    HW224734   2.655   8.206   5.227  0.5192  2.8100  0.1603
39548SOL     OW24735   5.283  10.669   8.314  0.2218  0.3053 -0.7519
39548SOL    HW124736   5.254  10.730   8.246  0.2527  2.3767  0.9811
39548SOL    HW224737   5.206  10.617   8.333 -0.2626  0.8222 -1.2319
39549SOL     OW24738   6.894   4.564   5.973  0.4949 -0.4743 -0.7137
39549SOL    HW124739   6.801   4.577   5.955  0.1790  1.1223  1.5835
39549SOL    HW224740   6.914   4.479   5.934 -2.1657 -1.3103 -0.4741
39550SOL     OW24741   6.078   3.347   0.741  0.1684 -0.5990 -0.5877
39550SOL    HW124742   6.143   3.355   0.671 -1.6062  4.5202 -2.1253
39550SOL    HW224743   6.007   3.296   0.701  1.1875 -2.0834 -0.5905
39551SOL     OW24744   9.885   9.996   8.112 -0.4986  0.1222  0.5730
39551SOL    HW124745   9.825  10.061   8.150  1.5372  1.9591  0.8705
39551SOL    HW224746   9.900  10.027   8.023  0.4925  0.0866  0.7124
39552SOL     OW24747   6.746   7.313   8.262  0.3158  0.1666 -0.3951
39552SOL    HW124748   6.790   7.258   8.197 -2.1764  0.5073 -2.5396
39552SOL    HW224749   6.762   7.269   8.345  0.0514 -2.7586 -1.7680
39553SOL     OW24750   4.996   2.161  10.361 -0.4522 -0.5182 -0.4237
39553SOL    HW124751   5.088   2.188  10.367 -0.2703 -1.0805 -0.6442
39553SOL    HW224752   5.000   2.065  10.354 -1.0323 -0.5043 -0.9843
39554SOL     OW24753   8.029   6.929   6.804 -0.4160 -0.0168 -0.0118
39554SOL    HW124754   8.062   6.904   6.890  1.3654 -1.0660 -0.9414
39554SOL    HW224755   8.096   6.987   6.768  1.9568 -4.0063 -2.8729
39555SOL     OW24756   6.495   6.664   0.930  0.3090  0.2094 -0.3564
39555SOL    HW124757   6.479   6.657   1.024 -0.5286 -1.1241 -0.5714
39555SOL    HW224758   6.410   6.686   0.893  0.4936  0.0958 -0.8593
39556SOL     OW24759   9.911   6.103   3.872  0.3876 -0.0654  0.2765
39556SOL    HW124760   9.875   6.027   3.916 -0.3267  0.9560  1.5365
39556SOL    HW224761   9.986   6.070   3.823 -0.4153 -1.7065  0.0973
39557SOL     OW24762  10.371   3.585   9.725 -0.3231  0.1112  0.0948
39557SOL    HW124763  10.386   3.651   9.658 -1.2286  0.1575 -0.0801
39557SOL    HW224764  10.425   3.510   9.697 -1.5892 -0.3131 -1.3640
39558SOL     OW24765   3.023   6.633   0.483 -0.2618  0.1430 -0.8410
39558SOL    HW124766   3.065   6.717   0.502  0.2178 -0.3131  0.1960
39558SOL    HW224767   2.952   6.627   0.548  0.5337 -0.8335 -0.0302
39559SOL     OW24768   6.406   7.221   6.804 -0.5802  0.2517 -0.0174
39559SOL    HW124769   6.424   7.129   6.782 -0.0756  0.1299  0.8512
39559SOL    HW224770   6.327   7.217   6.858 -0.3008  0.2813  0.3948
39560SOL     OW24771  10.509   2.257   6.444 -0.2872 -0.1682 -0.5266
39560SOL    HW124772  10.518   2.196   6.518  0.1846  0.2578 -0.2207
39560SOL    HW224773  10.428   2.231   6.401  0.2155 -1.4160 -0.7791
39561SOL     OW24774  10.122   2.003   6.411 -0.2036 -0.4415  0.0973
39561SOL    HW124775  10.075   2.038   6.335  2.2759  1.4481 -0.6771
39561SOL    HW224776  10.097   2.060   6.484  0.0424 -0.1474 -0.0522
39562SOL     OW24777   4.491   1.066   1.934  0.0177 -0.0138 -0.5113
39562SOL    HW124778   4.567   1.114   1.968  0.6357  0.7739 -2.8114
39562SOL    HW224779   4.438   1.046   2.011  2.1045  0.2201  1.0510
39563SOL     OW24780   3.711   2.255   9.391  0.4573  0.1336  0.1481
39563SOL    HW124781   3.760   2.178   9.420  0.0994 -0.0191  0.3474
39563SOL    HW224782   3.685   2.236   9.301  2.3678  0.9887 -0.6413
39564SOL     OW24783   9.687   7.045   8.652  0.3334  0.0958 -0.0389
39564SOL    HW124784   9.666   7.136   8.674  0.3584  0.1558 -0.2630
39564SOL    HW224785   9.779   7.035   8.678  0.3164  0.1189  0.0326
39565SOL     OW24786   1.467   9.007   5.524 -0.7027 -0.2998  0.3096
39565SOL    HW124787   1.514   9.054   5.456 -0.6294 -0.7713  0.0308
39565SOL    HW224788   1.527   8.937   5.550 -0.3490  0.4196  1.5067
39566SOL     OW24789   8.685   9.879   4.924  0.6622  0.1637 -0.7563
39566SOL    HW124790   8.590   9.878   4.936  0.8326  2.2408  1.6572
39566SOL    HW224791   8.717   9.806   4.976  0.4605  0.1561 -0.6425
39567SOL     OW24792   0.487  10.418   7.493 -0.0755  0.0830 -0.0263
39567SOL    HW124793   0.570  10.429   7.540 -0.8848 -0.4574  1.6021
39567SOL    HW224794   0.502  10.461   7.408  1.1942  1.7838  0.9899
39568SOL     OW24795   6.814   8.711   8.049  0.2072 -0.0240 -0.4751
39568SOL    HW124796   6.777   8.667   8.126 -2.3557  3.3588  0.4642
39568SOL    HW224797   6.755   8.687   7.977 -0.9571  1.4141 -0.0449
39569SOL     OW24798   3.461   6.835   3.637 -0.7672  0.2155 -0.2059
39569SOL    HW124799   3.475   6.760   3.695 -0.7328  1.4234  1.4591
39569SOL    HW224800   3.368   6.831   3.615 -0.4574 -1.1347 -1.4010
39570SOL     OW24801   0.695   8.438   3.515  0.1833 -0.6444 -0.2360
39570SOL    HW124802   0.771   8.476   3.559  0.4630 -1.2382 -0.1996
39570SOL    HW224803   0.724   8.424   3.425 -0.1339 -0.1601 -0.4133
39571SOL     OW24804   1.491   6.209   0.344  1.0982  0.0731 -0.2906
39571SOL    HW124805   1.404   6.172   0.330  0.5778  1.0458  0.2246
39571SOL    HW224806   1.520   6.235   0.256  0.8654 -0.2509 -0.4641
39572SOL     OW24807   3.542   0.795   2.160 -0.4239 -0.4477 -0.2523
39572SOL    HW124808   3.466   0.744   2.189 -0.3279 -1.4862 -1.7344
39572SOL    HW224809   3.599   0.798   2.237 -1.3406 -0.8433  0.4677
39573SOL     OW24810   0.406   3.085   1.104  0.2345  0.6050 -0.0413
39573SOL    HW124811   0.354   3.122   1.175 -0.5712  0.8427 -0.7323
39573SOL    HW224812   0.404   2.991   1.120  1.0731  0.7309  0.9090
39574SOL     OW24813   5.473   5.279   6.490  0.2234  0.0821  0.7138
39574SOL    HW124814   5.394   5.307   6.537  1.0549  0.7201  1.7779
39574SOL    HW224815   5.543   5.334   6.526  0.7963  1.1916 -1.8311
39575SOL     OW24816   4.176   9.825   0.686 -0.0857 -0.3748 -0.2469
39575SOL    HW124817   4.098   9.844   0.738  0.7487  1.2769  0.4764
39575SOL    HW224818   4.227   9.764   0.739 -0.0661 -0.0666  0.0935
39576SOL     OW24819   0.380   6.836   8.291  0.0564  0.3133 -0.4150
39576SOL    HW124820   0.306   6.811   8.235 -0.3996  0.9584 -0.1218
39576SOL    HW224821   0.342   6.844   8.378  0.6384 -0.1011 -0.1211
39577SOL     OW24822   4.724   0.376   4.736 -0.2038 -0.1183  0.0898
39577SOL    HW124823   4.727   0.471   4.725  1.9636 -0.1293  0.1539
39577SOL    HW224824   4.776   0.359   4.814  0.6643 -1.4384 -0.7291
39578SOL     OW24825   0.173   1.924   6.415 -0.0599  0.1285  0.1787
39578SOL    HW124826   0.107   1.935   6.347 -0.6563 -2.5015  0.2122
39578SOL    HW224827   0.256   1.922   6.367  0.1160  3.2546  0.1190
39579SOL     OW24828   1.745   2.707   0.615 -0.1693 -0.7488  0.4135
39579SOL    HW124829   1.677   2.714   0.548  0.1626 -0.9240  0.0561
39579SOL    HW224830   1.706   2.748   0.692 -0.7435 -0.9815  0.2601
39580SOL     OW24831   4.792  10.760   2.270 -0.0877 -0.5928  0.4876
39580SOL    HW124832   4.787  10.666   2.252 -1.1914 -0.7594  1.5737
39580SOL    HW224833   4.701  10.788   2.274  0.2011  0.2205  1.6889
39581SOL     OW24834   2.274   4.435  10.844  0.0934 -0.0206  0.0669
39581SOL    HW124835   2.183   4.407  10.840 -0.7906  2.6956 -1.5257
39581SOL    HW224836   2.313   4.401  10.763  1.1077 -2.7057  1.5548
39582SOL     OW24837   9.943   7.828   9.147 -0.1916 -0.7381  0.6190
39582SOL    HW124838   9.919   7.753   9.201 -1.2168 -0.4784  0.5423
39582SOL    HW224839   9.860   7.862   9.115  0.1850  0.9757  1.3677
39583SOL     OW24840   1.212  10.239   6.267  0.1974 -0.2493 -0.2806
39583SOL    HW124841   1.153  10.233   6.191  0.9112 -1.2158 -0.7848
39583SOL    HW224842   1.292  10.194   6.239  0.0720 -1.6401  1.4421
39584SOL     OW24843   6.711  10.174   7.532 -0.3646 -0.6718  0.3306
39584SOL    HW124844   6.729  10.259   7.573 -0.4414 -0.4693 -0.0459
39584SOL    HW224845   6.785  10.161   7.472 -0.2490 -0.9654  0.5408
39585SOL     OW24846   9.141   7.793   7.014 -0.3908  0.3671  0.2879
39585SOL    HW124847   9.121   7.748   6.932  1.6223  0.5828 -0.3688
39585SOL    HW224848   9.217   7.747   7.049  0.9836  2.4020  0.2053
39586SOL     OW24849   3.007   1.668   1.914 -0.0137  0.2250  0.8981
39586SOL    HW124850   2.964   1.740   1.868  0.5248  1.3517  2.1031
39586SOL    HW224851   3.097   1.670   1.882 -0.4813 -1.3552 -0.7044
39587SOL     OW24852   8.681   2.313  10.851 -0.1244  0.4659  0.2658
39587SOL    HW124853   8.598   2.280  10.885  0.0171  0.2740  0.4303
39587SOL    HW224854   8.747   2.273  10.908 -0.0439  2.6400  1.8164
39588SOL     OW24855   1.720   3.835   1.328  0.4581  0.0222 -0.0880
39588SOL    HW124856   1.660   3.863   1.258  1.8506 -1.2382 -1.8997
39588SOL    HW224857   1.709   3.740   1.331  0.6670  0.0320  1.2196
39589SOL     OW24858   6.210   9.389   5.175  0.5339 -1.1741 -0.3440
39589SOL    HW124859   6.255   9.473   5.173 -1.5160  0.2167  2.9170
39589SOL    HW224860   6.174   9.379   5.087  2.8499  0.0725 -1.5228
39590SOL     OW24861   9.856   0.867   5.581 -0.0276  0.0819  0.1138
39590SOL    HW124862   9.882   0.951   5.541 -1.2079 -0.1023 -1.1152
39590SOL    HW224863   9.867   0.803   5.511 -0.5051 -0.5558  0.6143
39591SOL     OW24864   0.983   2.845   5.190  0.4144 -0.2534 -0.0987
39591SOL    HW124865   0.941   2.762   5.165  1.7274 -1.2817  0.9596
39591SOL    HW224866   1.075   2.834   5.165  1.0594 -0.0061  2.0296
39592SOL     OW24867   5.520   2.414   5.587  0.2434  0.1141  0.4186
39592SOL    HW124868   5.463   2.447   5.517 -0.8858 -0.9416  0.7998
39592SOL    HW224869   5.529   2.321   5.569  0.5097 -0.0397  1.3014
39593SOL     OW24870   6.396  10.295   3.201  0.1238 -0.1615  0.1508
39593SOL    HW124871   6.444  10.356   3.257  1.8034 -1.8863  0.6793
39593SOL    HW224872   6.307  10.297   3.235  0.9646 -0.7443  2.5897
39594SOL     OW24873   4.937   4.428   0.226  0.4806  0.2882  0.1134
39594SOL    HW124874   4.975   4.465   0.305 -0.6947  1.3756  0.1982
39594SOL    HW224875   4.877   4.360   0.258  0.8389 -0.0411  0.0896
39595SOL     OW24876   2.704   0.606   3.222 -0.1977 -0.1717 -0.1746
39595SOL    HW124877   2.651   0.527   3.212  0.6821 -0.7495 -0.3513
39595SOL    HW224878   2.659   0.656   3.290 -0.3030 -1.2071  0.5291
39596SOL     OW24879   8.060   3.244   8.309  0.1211 -0.2524  0.0158
39596SOL    HW124880   8.011   3.175   8.264  1.6161 -1.1041 -0.3563
39596SOL    HW224881   8.056   3.219   8.402 -1.4037  0.5235  0.2041
39597SOL     OW24882   5.463   3.527   4.850 -0.3968 -0.0970 -0.1060
39597SOL    HW124883   5.408   3.545   4.774 -0.3861  2.4842  0.4329
39597SOL    HW224884   5.479   3.432   4.845 -0.3063 -0.0319 -3.3400
39598SOL     OW24885   7.459   9.029   3.937  0.3156 -0.0954  0.1700
39598SOL    HW124886   7.480   8.987   4.020 -0.4339 -1.4252 -0.2865
39598SOL    HW224887   7.364   9.019   3.928  0.5736 -1.4557 -1.6029
39599SOL     OW24888   6.629   9.553   8.295  0.4038  0.2840 -0.1293
39599SOL    HW124889   6.542   9.535   8.259 -0.8905  3.1813  1.2450
39599SOL    HW224890   6.614   9.564   8.389  1.9445  2.2365 -0.0452
39600SOL     OW24891   6.841   6.028   7.484  0.0892  0.3556 -0.2267
39600SOL    HW124892   6.863   5.941   7.450 -2.1085  0.5531 -2.4321
39600SOL    HW224893   6.805   6.074   7.409 -0.6236  2.5296  1.3602
39601SOL     OW24894   8.667   9.469   1.348 -0.1032  0.5399  0.1326
39601SOL    HW124895   8.701   9.381   1.337 -0.3309  0.2596  1.5290
39601SOL    HW224896   8.745   9.523   1.361 -0.0523  0.2205  1.2545
39602SOL     OW24897   3.283  10.632   1.805 -0.3494 -0.0951 -0.9032
39602SOL    HW124898   3.275  10.603   1.896  2.7153 -1.0873 -0.8328
39602SOL    HW224899   3.196  10.621   1.768 -1.4392 -0.6353  1.6194
39603SOL     OW24900   3.178   1.955   3.461  0.0928  0.5430 -0.2784
39603SOL    HW124901   3.191   1.870   3.419  0.3480  0.9869 -1.1282
39603SOL    HW224902   3.265   1.982   3.488 -0.0480  0.3407  0.3867
39604SOL     OW24903   7.473   2.311   5.561 -0.0322 -0.0663  0.3469
39604SOL    HW124904   7.568   2.310   5.574  0.1166  0.1317 -0.6605
39604SOL    HW224905   7.447   2.219   5.566  0.3787 -0.2333 -0.4986
39605SOL     OW24906   8.970  10.016   7.302 -0.5223 -0.1075 -0.2099
39605SOL    HW124907   8.966  10.106   7.333  1.2081 -0.1445  0.2043
39605SOL    HW224908   9.053   9.982   7.335 -1.2346 -1.9432 -0.1438
39606SOL     OW24909   2.702   5.015   0.989 -0.0181  0.1341 -0.4978
39606SOL    HW124910   2.701   4.998   1.084  1.4316  1.2576 -0.2308
39606SOL    HW224911   2.643   4.950   0.952 -1.0108 -0.0070  1.2300
39607SOL     OW24912   8.871   0.788   3.633 -0.1002 -0.3404  0.6755
39607SOL    HW124913   8.796   0.847   3.624 -0.1279 -0.0814  2.2346
39607SOL    HW224914   8.886   0.754   3.545 -1.6553  0.0760  0.2179
39608SOL     OW24915   2.519   4.208   3.881 -0.0984  0.1395 -0.4087
39608SOL    HW124916   2.573   4.278   3.845  0.2412 -0.9874 -2.1817
39608SOL    HW224917   2.436   4.251   3.903  0.5445  1.3348 -0.2601
39609SOL     OW24918   9.409   8.469   6.728  0.0938  0.0786 -0.1009
39609SOL    HW124919   9.396   8.562   6.710  0.0061  0.1960  0.5416
39609SOL    HW224920   9.497   8.464   6.766 -0.6104  0.1812  1.6710
39610SOL     OW24921   2.179   1.973   0.307  0.7426 -0.3521  0.5844
39610SOL    HW124922   2.205   1.892   0.263  1.1476  0.0629  0.0643
39610SOL    HW224923   2.088   1.957   0.334 -0.6349  0.4612 -3.0661
39611SOL     OW24924   3.487   9.017   3.117 -0.4731  0.4508 -0.1968
39611SOL    HW124925   3.416   8.953   3.116 -0.2503  0.1633  0.9467
39611SOL    HW224926   3.529   9.006   3.203  1.2130  0.3467 -1.0007
39612SOL     OW24927   8.241   4.028   6.419  0.3906 -0.4797 -0.5402
39612SOL    HW124928   8.189   3.977   6.356 -0.3199 -0.9831  0.4372
39612SOL    HW224929   8.266   3.965   6.486  1.4656 -0.0243 -0.4959
39613SOL     OW24930   9.989  10.577   6.223 -0.4386 -0.0385  0.0509
39613SOL    HW124931   9.932  10.517   6.272 -0.6955 -0.4552 -0.7337
39613SOL    HW224932   9.990  10.541   6.135 -1.0368  1.4282 -0.5774
39614SOL     OW24933   4.718   4.080   3.210  0.2796 -0.1364  0.1564
39614SOL    HW124934   4.742   4.043   3.125  0.7748  1.3693 -0.3903
39614SOL    HW224935   4.801   4.111   3.247 -0.1703  0.8633  0.3607
39615SOL     OW24936   0.602  10.276   8.553 -0.0373 -0.0219 -0.5614
39615SOL    HW124937   0.691  10.291   8.586 -0.3161  0.3004  0.0650
39615SOL    HW224938   0.546  10.327   8.611 -0.6082  0.0323 -1.1477
39616SOL     OW24939   3.981   6.426  10.778 -0.5619  0.4494  0.2272
39616SOL    HW124940   4.072   6.396  10.782 -0.7597 -0.0520  1.7802
39616SOL    HW224941   3.929   6.347  10.765 -0.7601  0.8322 -1.6169
39617SOL     OW24942  10.732   1.865   3.882  0.6859 -0.0743 -0.4905
39617SOL    HW124943  10.701   1.906   3.963  2.1704  1.0015 -0.4261
39617SOL    HW224944  10.666   1.799   3.862 -0.1658  0.2338  1.1203
39618SOL     OW24945   2.683   8.473   4.712 -0.1094 -0.4161 -0.0191
39618SOL    HW124946   2.764   8.521   4.693 -0.1145  0.4276  1.8780
39618SOL    HW224947   2.623   8.539   4.747 -0.7874 -1.4514  0.8312
39619SOL     OW24948   1.166   7.306   2.557  0.3989  0.0135 -0.6218
39619SOL    HW124949   1.188   7.390   2.598  0.4803 -0.1150 -0.4009
39619SOL    HW224950   1.251   7.264   2.541  0.3486 -0.1538 -0.4605
39620SOL     OW24951   2.834   9.444   1.368 -0.1474  0.5258  0.0222
39620SOL    HW124952   2.766   9.436   1.435  0.9743 -1.3245  1.0136
39620SOL    HW224953   2.906   9.490   1.412 -0.1337  1.0246 -0.5172
39621SOL     OW24954   4.621   5.675   7.502  0.0976  0.0530  0.4565
39621SOL    HW124955   4.606   5.649   7.412 -0.6030  1.4603  0.1372
39621SOL    HW224956   4.704   5.723   7.500  0.1036  0.0494  0.5687
39622SOL     OW24957   6.593   9.356   4.828  0.0777  0.3591 -0.1323
39622SOL    HW124958   6.656   9.303   4.877 -0.1630  0.8248  0.7048
39622SOL    HW224959   6.579   9.308   4.747 -1.0559 -1.5041  1.0843
39623SOL     OW24960   6.157  10.776   5.806 -0.4224 -0.5336  0.3054
39623SOL    HW124961   6.188  10.768   5.716  0.8539  1.4989  0.4993
39623SOL    HW224962   6.224  10.829   5.850 -2.7552  1.6856  1.4836
39624SOL     OW24963   1.821   8.776   2.561 -0.1143  0.0928 -0.1739
39624SOL    HW124964   1.760   8.781   2.488  0.5391 -0.3519 -0.7668
39624SOL    HW224965   1.896   8.728   2.526  1.1754  1.7941  0.0861
39625SOL     OW24966   6.918   7.525   0.293 -0.4161 -0.5310 -0.1937
39625SOL    HW124967   6.913   7.621   0.287 -1.9693 -0.5541  0.2468
39625SOL    HW224968   6.841   7.501   0.344 -0.2813 -2.0603 -0.6767
39626SOL     OW24969   9.419   5.990   4.733  0.2427  0.3517  0.4905
39626SOL    HW124970   9.414   6.078   4.770 -1.3517 -0.1890  1.7133
39626SOL    HW224971   9.489   5.995   4.668 -1.1068  3.0440 -0.9422
39627SOL     OW24972   1.501   1.343   3.704  0.3308  0.2651 -0.1286
39627SOL    HW124973   1.509   1.339   3.800 -0.4634  1.2928 -0.0030
39627SOL    HW224974   1.559   1.414   3.678 -0.5478  0.9510 -0.2502
39628SOL     OW24975   7.207  10.442   9.253  0.5102  0.2795 -0.4124
39628SOL    HW124976   7.129  10.400   9.289  1.3001 -0.3320  0.6565
39628SOL    HW224977   7.211  10.411   9.163  0.5232 -1.1963  0.0645
39629SOL     OW24978   4.939   1.511   7.469  0.1388  0.4512  0.0260
39629SOL    HW124979   4.893   1.509   7.553 -0.4513 -2.7525 -0.2452
39629SOL    HW224980   4.951   1.605   7.451  0.8571  1.3167  3.9109
39630SOL     OW24981   9.163   3.783   9.272  0.4327  0.2494  0.3313
39630SOL    HW124982   9.132   3.862   9.317 -0.2759  1.1418 -1.5879
39630SOL    HW224983   9.109   3.778   9.193  1.5479 -1.2659 -0.3892
39631SOL     OW24984   8.612   4.904  10.791  0.1738  0.2830  0.1925
39631SOL    HW124985   8.523   4.883  10.762  0.7514 -1.3379 -0.5183
39631SOL    HW224986   8.651   4.820  10.815  2.2178  0.6265 -1.5838
39632SOL     OW24987   4.398   4.745   9.408  0.2014  0.0053  0.1965
39632SOL    HW124988   4.467   4.792   9.454 -0.7055  0.9063  0.6811
39632SOL    HW224989   4.436   4.660   9.388  1.6434  0.6893 -0.0799
39633SOL     OW24990   3.856   6.396   4.893 -0.4882 -0.7757 -0.1929
39633SOL    HW124991   3.794   6.328   4.868 -0.9917 -0.9908  1.5146
39633SOL    HW224992   3.865   6.387   4.988  1.8278 -0.4608 -0.3107
39634SOL     OW24993   7.790   4.410   1.233 -0.2228 -0.4341  0.3647
39634SOL    HW124994   7.711   4.428   1.183 -0.1127  0.9291  0.6388
39634SOL    HW224995   7.763   4.350   1.302 -1.1209  0.3124  0.6865
39635SOL     OW24996   9.740   3.940   7.189 -0.3037 -0.0754 -0.1896
39635SOL    HW124997   9.754   3.996   7.267  0.7303 -1.5809  0.7547
39635SOL    HW224998   9.772   3.993   7.116  1.3153  0.3381  0.7683
39636SOL     OW24999   5.822   3.143  10.541  0.3828 -0.1931 -0.1220
39636SOL    HW125000   5.734   3.115  10.565  0.7887  0.5262  2.5892
39636SOL    HW225001   5.813   3.182  10.454 -2.0090  0.1254  0.2236
39637SOL     OW25002   1.295  10.118   4.803 -0.5204 -0.3292 -0.2719
39637SOL    HW125003   1.297  10.145   4.895  0.6780 -2.1545  0.2913
39637SOL    HW225004   1.350  10.181   4.758  0.6459 -0.6477  0.6629
39638SOL     OW25005   7.412   5.915   0.160 -0.5151  0.0327 -0.1154
39638SOL    HW125006   7.337   5.953   0.205  0.0765  1.2332 -0.0944
39638SOL    HW225007   7.488   5.959   0.199  0.2815 -1.7831  0.4906
39639SOL     OW25008   6.462   7.375   4.151  0.2671 -0.1064  0.4923
39639SOL    HW125009   6.533   7.437   4.170 -0.8595  2.0170 -1.6243
39639SOL    HW225010   6.437   7.339   4.236  2.1193  1.0717  1.5932
39640SOL     OW25011   8.438   1.134   6.232  0.0723 -0.5468  0.0979
39640SOL    HW125012   8.503   1.069   6.205 -0.4906 -0.7614 -0.7638
39640SOL    HW225013   8.354   1.098   6.204 -0.1579  1.0271 -1.3587
39641SOL     OW25014  10.611   9.791  10.417 -0.0365 -0.2205  0.3006
39641SOL    HW125015  10.534   9.735  10.422 -0.8160 -0.0040 -4.2571
39641SOL    HW225016  10.577   9.876  10.388  1.7284  0.2449 -0.5771
39642SOL     OW25017   9.346   9.024   9.280 -0.3821 -1.0891  0.5498
39642SOL    HW125018   9.340   9.075   9.199  1.9622 -1.0746  0.3049
39642SOL    HW225019   9.384   9.085   9.343  1.0586 -2.0647  0.6697
39643SOL     OW25020   6.704   7.011   8.119 -0.1985 -0.4162  0.0766
39643SOL    HW125021   6.767   6.939   8.114  1.7684  1.1871  0.4468
39643SOL    HW225022   6.725   7.055   8.201 -0.1741  1.5875 -0.9569
39644SOL     OW25023   9.414   6.517   9.640  0.1311  0.4222  0.8832
39644SOL    HW125024   9.441   6.608   9.649  1.0562  0.1187  1.2791
39644SOL    HW225025   9.487   6.474   9.595 -0.3494 -0.1006  0.5828
39645SOL     OW25026   6.668   9.511   1.540  0.4739 -0.4336 -0.9855
39645SOL    HW125027   6.610   9.562   1.484  2.0341 -0.0339 -2.3063
39645SOL    HW225028   6.609   9.452   1.587 -1.2831  1.7891 -0.1976
39646SOL     OW25029   8.700   7.164   4.838  0.1622 -0.0779 -0.6789
39646SOL    HW125030   8.686   7.070   4.837  0.1902 -0.0819 -0.7023
39646SOL    HW225031   8.662   7.194   4.921 -0.4227 -0.0194 -0.9601
39647SOL     OW25032  10.022  10.891   4.452 -0.5635 -0.2189  0.0983
39647SOL    HW125033   9.979  10.967   4.412 -2.1212 -1.0794  0.0715
39647SOL    HW225034   9.971  10.874   4.532 -1.4169 -2.3225 -0.8283
39648SOL     OW25035   2.553   3.781   1.991 -0.0009  0.1274  0.0336
39648SOL    HW125036   2.634   3.791   1.942  0.2616 -0.5573  0.3252
39648SOL    HW225037   2.484   3.793   1.926  0.3445 -0.5450 -0.4704
39649SOL     OW25038   1.465   7.085   4.945  0.0220  0.5019 -0.4509
39649SOL    HW125039   1.390   7.034   4.914  0.5013  0.0494 -0.8835
39649SOL    HW225040   1.526   7.085   4.872  1.0993 -0.4165  0.4226
39650SOL     OW25041   3.659   0.431   8.037  0.6450 -0.4872  0.3774
39650SOL    HW125042   3.686   0.461   8.124 -0.1931 -0.3422  0.6007
39650SOL    HW225043   3.579   0.481   8.019  1.4494  0.3651 -0.9953
39651SOL     OW25044   5.654   2.062   7.125  0.0937 -0.0945  0.6457
39651SOL    HW125045   5.709   2.125   7.172 -1.5035  0.5410  1.7487
39651SOL    HW225046   5.671   1.979   7.168  2.0321 -0.4346 -0.6604
39652SOL     OW25047   7.112   8.913   0.271 -0.6582 -0.3634 -0.7324
39652SOL    HW125048   7.103   8.838   0.330 -1.2154 -0.4766 -0.9521
39652SOL    HW225049   7.206   8.931   0.269 -0.7961  1.2823  2.2455
39653SOL     OW25050   7.571   3.205   0.648  0.4184  0.4082  0.3399
39653SOL    HW125051   7.508   3.192   0.577 -0.1545 -0.7515  1.0088
39653SOL    HW225052   7.600   3.296   0.639 -1.0605  0.8591 -0.2387
39654SOL     OW25053   7.870   4.951   2.917  0.3383  0.1908 -0.0035
39654SOL    HW125054   7.808   4.991   2.977  2.1994  1.7030  1.0102
39654SOL    HW225055   7.883   4.862   2.951 -1.2491 -0.1899 -0.2847
39655SOL     OW25056   6.834  10.664   3.999  0.2845 -0.1934  0.2787
39655SOL    HW125057   6.742  10.689   3.986  0.6962  1.3620  0.2209
39655SOL    HW225058   6.853  10.605   3.925 -0.8406 -1.0824  0.6674
39656SOL     OW25059   4.966   4.642   9.840 -0.0580  0.0601  0.8104
39656SOL    HW125060   4.928   4.707   9.782  2.9796 -0.6766 -2.3280
39656SOL    HW225061   5.024   4.693   9.898  0.4967  0.4139 -0.0350
39657SOL     OW25062   2.179   8.476  10.473  0.2456 -0.4928  0.5835
39657SOL    HW125063   2.272   8.478  10.451  0.4185 -2.3723  0.9859
39657SOL    HW225064   2.151   8.388  10.448 -1.4051  0.0070  0.5738
39658SOL     OW25065   7.900   3.786   0.339  0.4354 -0.1550  0.5401
39658SOL    HW125066   7.825   3.827   0.295  0.7799  0.7626  0.7797
39658SOL    HW225067   7.951   3.747   0.269  0.0685 -0.2162  0.3052
39659SOL     OW25068  10.572   5.966   6.590 -0.4960 -0.0297 -0.4256
39659SOL    HW125069  10.586   5.898   6.656  0.3178  2.0506  1.7273
39659SOL    HW225070  10.541   5.919   6.513 -0.2163 -2.7728  0.9932
39660SOL     OW25071   2.603   3.485   5.606  0.1204  0.1122 -0.1635
39660SOL    HW125072   2.552   3.411   5.638  1.0023 -0.6322 -0.4211
39660SOL    HW225073   2.675   3.494   5.668  0.3373  0.3879 -0.4471
39661SOL     OW25074   2.739   0.342   5.882 -0.2846 -0.1516 -0.5932
39661SOL    HW125075   2.647   0.343   5.856 -0.3199  0.9224 -0.4527
39661SOL    HW225076   2.782   0.402   5.821 -0.3913  2.6023  1.8224
39662SOL     OW25077   4.268   4.387   3.187 -0.5553 -0.0253  0.1583
39662SOL    HW125078   4.355   4.347   3.189 -0.6439 -0.1878  1.5768
39662SOL    HW225079   4.247   4.393   3.094  1.4133  0.9732 -0.2860
39663SOL     OW25080   7.593   2.166  10.382 -0.0641 -0.2110 -0.1510
39663SOL    HW125081   7.537   2.092  10.405 -0.9506  0.3355 -0.5168
39663SOL    HW225082   7.624   2.199  10.467 -1.7183  0.5656  0.1881
39664SOL     OW25083   1.338   7.105  10.237  0.3446  0.4753  0.5838
39664SOL    HW125084   1.263   7.088  10.180  2.1249  2.1219 -2.5394
39664SOL    HW225085   1.357   7.020  10.277 -0.8675 -0.9371 -1.6051
39665SOL     OW25086   4.260   9.495   4.186 -0.0961  0.3367 -0.6490
39665SOL    HW125087   4.318   9.496   4.110  1.8179 -0.7413  0.7073
39665SOL    HW225088   4.172   9.508   4.149  0.7845  0.2006 -2.9810
39666SOL     OW25089   8.873   8.359   4.869 -0.3376 -0.2432 -0.4402
39666SOL    HW125090   8.882   8.341   4.963  2.5072 -2.8517 -1.0061
39666SOL    HW225091   8.840   8.448   4.864  0.2528  0.3240  3.0493
39667SOL     OW25092   7.739   8.538  10.539  0.1514  0.1884  0.2610
39667SOL    HW125093   7.745   8.579  10.452 -2.5516  0.5419  0.1584
39667SOL    HW225094   7.758   8.609  10.600  0.5884  0.2972  0.0083
39668SOL     OW25095   8.462   4.540   7.306 -0.2591  0.1490 -0.1702
39668SOL    HW125096   8.494   4.620   7.347  1.5569 -0.3205 -0.5658
39668SOL    HW225097   8.475   4.554   7.212  0.0043 -0.5669 -0.2471
39669SOL     OW25098   4.784   0.383   2.703 -0.4094 -0.6122  0.2471
39669SOL    HW125099   4.825   0.325   2.639 -2.0354 -1.2236 -0.2732
39669SOL    HW225100   4.751   0.325   2.771 -2.4005 -0.3901 -0.4650
39670SOL     OW25101   0.442   2.266  10.830 -0.5343 -0.3325 -0.0752
39670SOL    HW125102   0.517   2.261  10.771 -0.1533  1.0108  0.2466
39670SOL    HW225103   0.370   2.300  10.776 -0.2468  0.6752  0.1458
39671SOL     OW25104   2.196   4.087   7.295 -0.2674 -0.1633 -0.6184
39671SOL    HW125105   2.115   4.129   7.266  0.1452  0.6362 -0.6392
39671SOL    HW225106   2.168   4.021   7.359 -0.7579  2.0421  1.5899
39672SOL     OW25107   5.054   8.917   2.432  0.1871  0.1304  0.0223
39672SOL    HW125108   4.978   8.887   2.483  0.6587 -0.0773  0.6190
39672SOL    HW225109   5.060   9.010   2.452 -0.1312  0.2294 -0.3243
39673SOL     OW25110   7.238   0.879   5.718  0.2509 -0.7202 -0.1592
39673SOL    HW125111   7.174   0.835   5.774 -2.4512  1.5389 -1.2483
39673SOL    HW225112   7.272   0.951   5.773 -0.3192 -0.1968 -0.4770
39674SOL     OW25113  10.049   0.193   3.715  0.3505  0.2932  0.2500
39674SOL    HW125114   9.976   0.180   3.775  0.9806 -1.6387  0.6712
39674SOL    HW225115  10.037   0.282   3.681 -0.2922  1.2740  2.8451
39675SOL     OW25116  10.832   8.754   8.873  0.1343 -0.2314  0.4649
39675SOL    HW125117  10.790   8.754   8.786  1.9894  1.5024 -0.5237
39675SOL    HW225118  10.873   8.668   8.880 -0.5788 -0.6293 -0.0762
39676SOL     OW25119   4.415   0.652  10.292 -0.2993  0.5089 -0.4710
39676SOL    HW125120   4.411   0.729  10.235 -1.7717  0.9931  0.2189
39676SOL    HW225121   4.508   0.643  10.313 -0.0745  2.1099 -0.5944
39677SOL     OW25122   9.113   3.942   9.667 -0.2122  0.5004 -0.1989
39677SOL    HW125123   9.091   3.942   9.574 -0.1529 -0.9220 -0.2318
39677SOL    HW225124   9.175   4.015   9.676  3.5647 -2.0602 -2.2725
39678SOL     OW25125   9.921   3.778   8.950 -0.3661 -0.5009  0.0190
39678SOL    HW125126   9.917   3.709   8.884  0.4159  0.5883 -1.2195
39678SOL    HW225127   9.831   3.809   8.958 -0.5099 -0.8173 -0.3533
39679SOL     OW25128   5.728  10.035   7.042  0.3636  0.1932  0.0495
39679SOL    HW125129   5.755   9.943   7.045  0.7826  0.3373  1.5976
39679SOL    HW225130   5.701  10.056   7.131 -0.6670  1.3201 -0.4886
39680SOL     OW25131  10.647   8.038   2.115 -0.4984 -0.3339  0.1119
39680SOL    HW125132  10.572   7.994   2.076 -0.9941 -0.6030  1.3101
39680SOL    HW225133  10.616   8.126   2.135 -1.3127 -1.1030  2.7079
39681SOL     OW25134   6.266   7.857   7.240 -0.2938 -0.1964 -0.2595
39681SOL    HW125135   6.184   7.904   7.256  0.1203  0.3792  0.1780
39681SOL    HW225136   6.253   7.772   7.282 -0.7651 -0.2103 -0.4214
39682SOL     OW25137   8.037   2.874   9.501 -0.0957  0.1723 -0.1349
39682SOL    HW125138   8.083   2.958   9.500  0.5287 -0.1544  0.6223
39682SOL    HW225139   8.093   2.815   9.452 -0.0981 -0.0301  0.1086
39683SOL     OW25140   2.032   6.568   5.086  0.3516  0.2607  0.1676
39683SOL    HW125141   2.085   6.498   5.123 -0.1483  0.2036  0.7784
39683SOL    HW225142   2.082   6.648   5.103  0.3531  0.1803  0.5334
39684SOL     OW25143   6.049   6.353   3.426  0.3262  0.8609  0.3109
39684SOL    HW125144   6.109   6.375   3.355  0.1672 -0.4950 -0.2726
39684SOL    HW225145   6.024   6.438   3.463 -0.1307  1.6790 -1.7072
39685SOL     OW25146   6.448   6.449   0.202 -0.2595 -0.2229 -0.0105
39685SOL    HW125147   6.423   6.538   0.177  1.5732  0.1972 -0.4530
39685SOL    HW225148   6.543   6.449   0.202 -0.2144 -1.9536  0.8861
39686SOL     OW25149   7.417   9.417   1.887  0.2831  0.3215 -0.3323
39686SOL    HW125150   7.437   9.507   1.861  1.7654  0.2357  0.3823
39686SOL    HW225151   7.482   9.397   1.955 -2.3359 -0.0072  2.2769
39687SOL     OW25152   7.207   5.580   0.163  0.2872 -0.1790  0.1882
39687SOL    HW125153   7.214   5.604   0.256  0.7477  1.0024 -0.1412
39687SOL    HW225154   7.158   5.652   0.123 -0.9324 -1.2356 -0.2971
39688SOL     OW25155   6.371   8.958   4.329 -0.6027 -0.1799  0.3110
39688SOL    HW125156   6.435   8.901   4.370  1.5179  0.2823 -2.1063
39688SOL    HW225157   6.383   9.043   4.371  1.2769  0.1951 -0.8527
39689SOL     OW25158   7.058   2.788   0.265  0.2355 -0.3429 -0.1308
39689SOL    HW125159   7.039   2.882   0.262 -0.2404 -0.4295  0.0584
39689SOL    HW225160   6.975   2.747   0.243  0.5399 -0.7140 -0.5792
39690SOL     OW25161   3.283   8.092   4.862  0.3243 -0.1470  0.0516
39690SOL    HW125162   3.364   8.099   4.811  0.5826 -0.5820  0.3922
39690SOL    HW225163   3.223   8.043   4.806  0.0897  0.6858 -0.4403
39691SOL     OW25164   4.510   3.304   9.669  0.0603  0.2353 -0.2140
39691SOL    HW125165   4.473   3.391   9.686 -0.5814 -0.1416  0.3875
39691SOL    HW225166   4.478   3.280   9.582  0.1016  0.5321 -0.3109
39692SOL     OW25167   5.510   4.030   7.654  0.0216  0.3155  0.2784
39692SOL    HW125168   5.604   4.015   7.641 -0.1152 -0.2540 -0.1101
39692SOL    HW225169   5.502   4.048   7.748  0.4110 -0.5773  0.5037
39693SOL     OW25170   2.930   2.672   8.254  0.0371  0.0599  0.2902
39693SOL    HW125171   2.954   2.764   8.245  0.1057  0.0370  0.2420
39693SOL    HW225172   3.000   2.624   8.210 -1.2271  0.1079 -1.9071
39694SOL     OW25173   2.642   9.334   6.688 -0.4832  0.2123 -0.0636
39694SOL    HW125174   2.554   9.311   6.719 -0.8437 -0.0469 -1.2418
39694SOL    HW225175   2.640   9.429   6.680 -0.5432  0.2366  0.2179
39695SOL     OW25176   2.028   3.614   6.808  0.0769 -0.0550 -0.6538
39695SOL    HW125177   1.985   3.590   6.890 -0.6948  1.3659 -0.6132
39695SOL    HW225178   2.031   3.533   6.758 -2.3026 -0.3131 -0.4819
39696SOL     OW25179   5.162   9.877   1.899  0.1591 -0.0163 -0.6577
39696SOL    HW125180   5.103   9.844   1.831  0.5019 -0.1900 -0.8779
39696SOL    HW225181   5.250   9.860   1.864  0.3787 -1.6979  0.5560
39697SOL     OW25182   1.072   6.893   1.352 -0.4753  0.1417 -0.3980
39697SOL    HW125183   1.080   6.951   1.276  2.0649  0.5061  0.0776
39697SOL    HW225184   1.126   6.934   1.420 -2.9609  0.0475  1.8215
39698SOL     OW25185   3.666   0.096   4.301  0.2965  0.3876  0.2201
39698SOL    HW125186   3.685   0.152   4.376 -0.6839  0.3791  0.4869
39698SOL    HW225187   3.662   0.156   4.226 -2.0416  0.9405  0.6849
39699SOL     OW25188   2.698   6.063   9.921  0.1417  0.1067 -0.1026
39699SOL    HW125189   2.704   6.114  10.002  0.7887  1.3023 -0.8844
39699SOL    HW225190   2.785   6.023   9.912  0.5840  1.2193 -0.9829
39700SOL     OW25191   5.806   4.825   5.420  0.2958  0.1237  0.1453
39700SOL    HW125192   5.888   4.800   5.462 -0.9359 -0.9515  2.0522
39700SOL    HW225193   5.739   4.812   5.487 -1.3504  1.8694 -1.0365
39701SOL     OW25194   4.694   6.717   5.489 -0.2118 -0.3615 -0.3659
39701SOL    HW125195   4.723   6.659   5.419  2.1623 -1.0713  1.1010
39701SOL    HW225196   4.684   6.660   5.565  0.1140  0.8003  0.5793
39702SOL     OW25197  10.485   1.771   9.520  0.3285  0.6165 -0.6123
39702SOL    HW125198  10.444   1.801   9.602  1.4877 -0.8117  0.5607
39702SOL    HW225199  10.579   1.772   9.539  0.7115  1.4701 -2.4002
39703SOL     OW25200  10.424   2.948   2.829 -0.2527  0.0292 -0.0464
39703SOL    HW125201  10.455   3.010   2.895  0.7010 -1.6908  1.2045
39703SOL    HW225202  10.360   2.893   2.876 -0.0414 -0.8116 -0.7229
39704SOL     OW25203   5.981   7.596   7.247  0.4120 -0.0064 -0.6904
39704SOL    HW125204   6.060   7.542   7.255 -0.2614 -0.8234  0.7818
39704SOL    HW225205   5.927   7.550   7.183 -0.4285 -1.5145  1.0077
39705SOL     OW25206   2.916   6.958   0.474 -0.2183 -0.0455 -0.4171
39705SOL    HW125207   2.834   6.909   0.465  0.7647 -1.6136 -1.5717
39705SOL    HW225208   2.900   7.039   0.426 -1.4672  0.2195  0.3954
39706SOL     OW25209   7.062   2.722   5.250 -0.2036  0.2079  0.8331
39706SOL    HW125210   7.122   2.707   5.323 -0.6761  0.8259  1.3612
39706SOL    HW225211   6.978   2.741   5.292 -0.7082 -0.3516  0.1096
39707SOL     OW25212   1.685   5.320  10.450  0.4691 -0.2762 -0.2157
39707SOL    HW125213   1.612   5.281  10.403  1.3445  0.3657 -2.2118
39707SOL    HW225214   1.645   5.369  10.521 -0.8878 -1.4455 -0.1291
39708SOL     OW25215   2.655  10.261  10.111 -0.3483  0.1995  0.2692
39708SOL    HW125216   2.592  10.332  10.098 -0.5733  0.1170  0.8733
39708SOL    HW225217   2.713  10.293  10.180  1.6023  1.1581 -1.7071
39709SOL     OW25218   4.293   8.282   0.492 -0.0370  0.1775 -0.7167
39709SOL    HW125219   4.344   8.339   0.549 -0.7983 -0.6365  0.8480
39709SOL    HW225220   4.229   8.340   0.450  0.8572  0.8660 -1.1449
39710SOL     OW25221   8.836   6.345   0.341  0.1321  0.1812  0.0403
39710SOL    HW125222   8.833   6.431   0.300 -1.7762  0.6722  1.0946
39710SOL    HW225223   8.799   6.286   0.274 -0.1112  0.4699 -0.0864
39711SOL     OW25224   7.804  10.626   7.639 -0.1206  0.5088 -0.3643
39711SOL    HW125225   7.886  10.632   7.688 -0.5812  2.1779  0.2471
39711SOL    HW225226   7.770  10.539   7.659 -0.3096  1.1391  2.3490
39712SOL     OW25227   8.770   1.371   1.915 -0.3430  0.1615 -0.3140
39712SOL    HW125228   8.789   1.297   1.858  1.2382 -0.5008  1.0050
39712SOL    HW225229   8.827   1.359   1.990  0.2505  2.9294 -0.2219
39713SOL     OW25230   4.067   4.917   3.294 -0.1747  0.0110 -0.1828
39713SOL    HW125231   4.119   4.864   3.234 -0.7934  1.6265 -2.2862
39713SOL    HW225232   3.977   4.886   3.282 -0.4511  1.0449 -0.9578
39714SOL     OW25233   7.559   6.659   4.275  0.7121 -0.3856 -0.0906
39714SOL    HW125234   7.556   6.754   4.262 -1.4290 -0.5718 -1.2756
39714SOL    HW225235   7.501   6.643   4.349  0.2769 -0.8580 -0.5286
39715SOL     OW25236   4.832   5.465   7.724  0.0872  0.1674 -0.4098
39715SOL    HW125237   4.866   5.387   7.768 -2.6640 -0.0361  1.6126
39715SOL    HW225238   4.798   5.432   7.641 -0.0928 -0.5935 -0.0470
39716SOL     OW25239   6.226   2.369   7.791 -0.3376 -0.0556 -0.1831
39716SOL    HW125240   6.274   2.397   7.713 -0.3015  0.2748 -0.0445
39716SOL    HW225241   6.171   2.297   7.761 -1.5176  1.0951 -0.8906
39717SOL     OW25242   4.153   4.964   1.940 -0.1809 -0.4314 -0.5233
39717SOL    HW125243   4.236   4.917   1.937 -1.0052 -1.9009 -1.2854
39717SOL    HW225244   4.105   4.924   2.012 -0.7337 -0.4707 -0.9082
39718SOL     OW25245   1.367   9.432   4.377  0.0548  0.3656 -0.8154
39718SOL    HW125246   1.323   9.351   4.351  0.7711 -0.0029 -0.9268
39718SOL    HW225247   1.318   9.502   4.334 -0.8153  0.0223 -0.3937
39719SOL     OW25248   2.015   3.640   1.142 -0.0966 -0.3121 -0.1211
39719SOL    HW125249   1.953   3.705   1.108  0.5137 -0.0894 -0.8389
39719SOL    HW225250   2.027   3.665   1.234 -0.8588 -0.1956 -0.0467
39720SOL     OW25251   1.919   0.758   0.426 -0.2368  0.2175 -0.3781
39720SOL    HW125252   1.924   0.785   0.335  0.5016  0.5591 -0.2413
39720SOL    HW225253   2.006   0.775   0.462 -0.3469 -0.4513  0.2421
39721SOL     OW25254   2.477   2.013   0.902  0.2919  0.3448  0.3216
39721SOL    HW125255   2.537   2.075   0.942  0.4205 -0.4536  1.4020
39721SOL    HW225256   2.497   2.018   0.808  1.9483  0.2137  0.6354
39722SOL     OW25257   0.716   3.100   2.160  0.1252 -0.3279  0.2865
39722SOL    HW125258   0.761   3.137   2.084  2.0028  2.0503  2.3947
39722SOL    HW225259   0.623   3.115   2.141  0.5115  0.0800 -1.5690
39723SOL     OW25260   4.226  10.549  10.174  0.1867 -0.4463  0.0034
39723SOL    HW125261   4.185  10.466  10.195 -0.6371 -0.3847 -1.2574
39723SOL    HW225262   4.254  10.584  10.258 -0.1395 -1.6375  0.6275
39724SOL     OW25263   5.967   2.852   8.223 -0.8818  0.1241 -0.2240
39724SOL    HW125264   5.877   2.876   8.245 -0.8867  0.6630 -0.8200
39724SOL    HW225265   5.964   2.827   8.131 -0.5344 -0.4588 -0.0850
39725SOL     OW25266   6.560   9.564   7.592 -0.1522 -0.1531  0.9994
39725SOL    HW125267   6.592   9.640   7.543  0.0219 -1.7687 -1.6218
39725SOL    HW225268   6.626   9.550   7.660  1.4085  0.3466 -0.3269
39726SOL     OW25269   6.669  10.498   0.757 -0.0753 -0.1351  0.0417
39726SOL    HW125270   6.690  10.404   0.758 -1.2565 -0.4385  1.4280
39726SOL    HW225271   6.624  10.512   0.674  0.1069 -0.8152 -0.1752
39727SOL     OW25272   8.320   1.025  10.446  0.2748  0.4082  1.1497
39727SOL    HW125273   8.318   0.946  10.392  1.3824  0.8057  0.4985
39727SOL    HW225274   8.251   1.011  10.511 -0.9090 -0.1999 -0.1910
39728SOL     OW25275   7.170   2.842   2.845 -0.0665 -0.2412  0.4464
39728SOL    HW125276   7.222   2.825   2.924  0.3152  1.1895  0.5177
39728SOL    HW225277   7.095   2.892   2.876  0.3595  0.7967 -0.1685
39729SOL     OW25278   4.867   6.407   4.318 -0.5407  0.3525 -0.0060
39729SOL    HW125279   4.801   6.435   4.255 -1.3529 -0.5650  0.4283
39729SOL    HW225280   4.820   6.354   4.382  0.9298 -2.0475 -0.7880
39730SOL     OW25281   2.150   6.215   6.269 -0.3847 -0.1264 -0.5769
39730SOL    HW125282   2.222   6.197   6.329 -0.0846 -1.9654 -1.4026
39730SOL    HW225283   2.092   6.274   6.317 -0.6758 -2.2726  1.9340
39731SOL     OW25284   0.260   1.049   2.091  0.2471 -0.5857  0.2740
39731SOL    HW125285   0.296   1.120   2.145 -0.6504 -0.6594  0.9963
39731SOL    HW225286   0.165   1.061   2.096  0.0886 -1.7713  0.2984
39732SOL     OW25287   1.959   5.230   4.309  0.2549  0.6459 -0.4069
39732SOL    HW125288   1.901   5.297   4.344  0.8047 -0.4298  2.9610
39732SOL    HW225289   1.924   5.148   4.343  1.1271 -0.5239 -2.1874
39733SOL     OW25290   5.663   2.979   7.743 -0.9563  0.1685  0.3257
39733SOL    HW125291   5.737   3.034   7.715 -0.2443 -1.1283 -0.4737
39733SOL    HW225292   5.698   2.889   7.740 -2.3316 -0.4051  0.7386
39734SOL     OW25293   3.009   3.758   7.756  0.2564 -0.3101 -0.1065
39734SOL    HW125294   2.969   3.731   7.839 -1.5858  1.2036 -0.4199
39734SOL    HW225295   3.044   3.845   7.773  1.0203 -0.5130 -0.5878
39735SOL     OW25296   4.071   9.798   2.845  0.1913 -0.2194 -0.2157
39735SOL    HW125297   3.983   9.822   2.817  0.5139  0.3933 -0.6984
39735SOL    HW225298   4.067   9.802   2.941 -0.2683 -0.0670 -0.2397
39736SOL     OW25299   7.813   1.389   7.901 -0.1606  0.5212 -0.2439
39736SOL    HW125300   7.870   1.344   7.963 -0.4121  1.1814  0.4858
39736SOL    HW225301   7.859   1.471   7.881 -1.0213  1.2535  0.6750
39737SOL     OW25302   8.313   2.785   2.465  0.2409  0.2583  0.3038
39737SOL    HW125303   8.381   2.718   2.461 -1.3044 -1.3473 -0.2452
39737SOL    HW225304   8.297   2.808   2.373 -0.3547  0.2141  0.3950
39738SOL     OW25305   8.474   7.731   2.956  0.2933  0.1131  0.1851
39738SOL    HW125306   8.489   7.794   2.885 -0.7689  0.6546  0.4187
39738SOL    HW225307   8.476   7.646   2.913 -2.1825  0.4897 -0.9069
39739SOL     OW25308   7.512   1.884   5.654 -0.2508 -0.1417  0.1052
39739SOL    HW125309   7.428   1.842   5.635 -1.3505  1.1720  1.7904
39739SOL    HW225310   7.525   1.945   5.582 -0.4905 -0.6733 -0.4028
39740SOL     OW25311   3.956   4.513  10.865 -0.0000 -0.0075  0.1606
39740SOL    HW125312   3.870   4.548  10.840  0.7482  0.7152 -1.5840
39740SOL    HW225313   3.956   4.423  10.832 -0.3727 -0.2619  0.8567
39741SOL     OW25314   2.410   1.937   4.464  0.8134 -0.2573 -0.4432
39741SOL    HW125315   2.446   1.860   4.420  1.0119 -0.3243 -0.1638
39741SOL    HW225316   2.413   1.916   4.557 -0.3086 -0.4058 -0.4362
39742SOL     OW25317   1.247  10.801  10.297 -0.3448  0.7487 -0.4011
39742SOL    HW125318   1.259  10.738  10.369  0.6891  0.0951 -1.1269
39742SOL    HW225319   1.327  10.794  10.245 -0.7594  1.7624 -1.2095
39743SOL     OW25320   7.976   2.745   1.148 -0.2213  0.1597 -0.1745
39743SOL    HW125321   8.000   2.654   1.162  0.7073  0.1803 -1.5443
39743SOL    HW225322   7.894   2.741   1.099  0.8843 -0.0033 -2.1119
39744SOL     OW25323   8.764   5.915   9.938  0.2538 -0.3218  0.4830
39744SOL    HW125324   8.787   5.831   9.976 -2.4349 -0.6176  1.7162
39744SOL    HW225325   8.699   5.894   9.870 -0.7045  0.7361  1.0377
39745SOL     OW25326   1.820  10.093   4.776 -0.0802 -0.5473 -1.0488
39745SOL    HW125327   1.841  10.085   4.869 -0.0874  0.4444 -0.9522
39745SOL    HW225328   1.727  10.070   4.771 -0.1982 -0.1576 -0.7357
39746SOL     OW25329   9.848   9.708   2.579 -0.5798  0.0815 -0.9688
39746SOL    HW125330   9.772   9.658   2.606  1.0551 -2.6998 -1.1367
39746SOL    HW225331   9.878   9.752   2.659 -0.2895 -1.7783  0.0082
39747SOL     OW25332   5.048   4.154   0.336  0.5346 -0.8300  0.2355
39747SOL    HW125333   5.128   4.205   0.351 -1.2457  2.6960 -1.1501
39747SOL    HW225334   5.070   4.095   0.265  2.4332 -1.4461  1.2631
39748SOL     OW25335   7.814  10.756   0.777 -1.0393 -0.4133  0.6432
39748SOL    HW125336   7.792  10.665   0.761  0.0726 -0.4605 -0.8363
39748SOL    HW225337   7.741  10.791   0.828 -0.9517 -2.4115  2.2496
39749SOL     OW25338   3.245   8.183   0.157 -0.0821  0.5741 -0.1808
39749SOL    HW125339   3.196   8.169   0.237  1.7334  2.6442  1.4111
39749SOL    HW225340   3.233   8.275   0.136 -2.3149 -0.3269 -3.6718
39750SOL     OW25341   2.760   7.994  10.275  0.6928  0.2205  0.0095
39750SOL    HW125342   2.736   8.061  10.211  1.5736  0.4018 -0.1518
39750SOL    HW225343   2.786   8.044  10.353  1.0909  0.0551 -0.0176
39751SOL     OW25344   8.421   6.509   4.656 -0.3510 -0.3422  0.6417
39751SOL    HW125345   8.407   6.426   4.701 -1.2075 -0.9645 -0.7055
39751SOL    HW225346   8.356   6.510   4.587  1.2049  0.3595 -0.8911
39752SOL     OW25347   8.527   8.413  10.141 -0.1361  0.4741  0.5664
39752SOL    HW125348   8.555   8.342  10.200 -1.4731  0.0253  0.6820
39752SOL    HW225349   8.529   8.491  10.196  1.8694  0.6727  0.3043
39753SOL     OW25350   9.028   2.614   7.791 -0.0013 -0.0909  0.6976
39753SOL    HW125351   9.031   2.682   7.724  0.9429 -0.2148  0.6013
39753SOL    HW225352   9.055   2.534   7.746 -2.0195 -0.7693  0.5727
39754SOL     OW25353   8.271   6.026   7.431  0.0807 -0.0597 -0.4018
39754SOL    HW125354   8.200   6.056   7.489  0.8368 -0.6495  0.8621
39754SOL    HW225355   8.266   6.085   7.356 -0.8951  0.7723  0.2807
39755SOL     OW25356   4.974   5.180   2.147  0.4695 -0.0224  0.7151
39755SOL    HW125357   4.947   5.272   2.150 -0.1418  0.0705 -3.1771
39755SOL    HW225358   5.069   5.183   2.157  0.4209  0.9770  1.0406
39756SOL     OW25359   1.289  10.843   9.064 -0.4474  0.3347 -0.3404
39756SOL    HW125360   1.265  10.783   9.133  0.2093  0.1771 -0.2386
39756SOL    HW225361   1.279  10.793   8.983  2.3106 -0.7461 -0.1465
39757SOL     OW25362   7.645  10.491   0.706  0.1186 -0.0201 -0.8142
39757SOL    HW125363   7.703  10.462   0.775  0.1813 -0.2603 -0.9655
39757SOL    HW225364   7.561  10.507   0.750  0.5077  1.1297 -0.4492
39758SOL     OW25365   3.202   4.298  10.929 -0.8490  0.1602  0.1491
39758SOL    HW125366   3.218   4.213  10.889  0.8282 -0.0763  1.2207
39758SOL    HW225367   3.260   4.301  11.005 -0.5079  2.4408 -0.1136
39759SOL     OW25368   0.627   0.660   4.331  0.2447  0.6703 -0.3593
39759SOL    HW125369   0.604   0.728   4.395  0.0983 -0.1920  0.5297
39759SOL    HW225370   0.715   0.632   4.356  0.2426  0.4256 -0.6232
39760SOL     OW25371   7.118   7.224   7.228  0.2615 -0.3299 -0.1427
39760SOL    HW125372   7.196   7.253   7.276 -0.9464  0.5068  1.4328
39760SOL    HW225373   7.082   7.304   7.190  0.2606 -0.7362 -1.0157
39761SOL     OW25374   8.759   2.324   3.600  0.6234 -0.4149  0.0513
39761SOL    HW125375   8.684   2.267   3.617  0.8047 -0.1830  1.8322
39761SOL    HW225376   8.787   2.301   3.512 -0.6878 -1.4732 -0.1280
39762SOL     OW25377   0.162   1.588   2.185 -0.1417  0.4291  0.0124
39762SOL    HW125378   0.241   1.637   2.161  0.3753 -1.0223 -1.4017
39762SOL    HW225379   0.187   1.540   2.264  0.1510  0.5410 -0.0089
39763SOL     OW25380   7.804   4.621   6.972 -0.0539  0.0722  0.0271
39763SOL    HW125381   7.779   4.650   7.059  0.4878  1.2430 -0.1925
39763SOL    HW225382   7.859   4.691   6.938  0.2870 -0.6715 -1.0034
39764SOL     OW25383   2.283   2.686   9.788 -0.8021  0.3446  0.7276
39764SOL    HW125384   2.235   2.733   9.720 -0.9360  0.0804  0.6407
39764SOL    HW225385   2.372   2.721   9.782 -0.1199 -1.5320 -1.3598
39765SOL     OW25386   4.405   8.650   2.386 -0.1641  0.2170  0.2744
39765SOL    HW125387   4.414   8.653   2.291 -0.7901  0.8595  0.2261
39765SOL    HW225388   4.341   8.719   2.406 -1.7245 -1.3454  0.9559
39766SOL     OW25389   3.448  10.455   4.109  0.2676 -0.0489  0.3846
39766SOL    HW125390   3.419  10.375   4.065  0.7507 -2.3962  3.9339
39766SOL    HW225391   3.373  10.514   4.104 -0.6889 -1.3027 -0.9928
39767SOL     OW25392  10.741   8.141   5.511  0.3033 -0.0623  0.1974
39767SOL    HW125393  10.691   8.082   5.567  1.3729 -1.5377 -0.3329
39767SOL    HW225394  10.816   8.089   5.483  0.4479  1.0331 -1.5991
39768SOL     OW25395   3.810   0.872   5.503  0.1967  0.3834  0.8005
39768SOL    HW125396   3.806   0.845   5.594 -0.3239  3.8528  1.9439
39768SOL    HW225397   3.899   0.905   5.491  0.5207 -0.7476 -0.2718
39769SOL     OW25398   0.651   8.382   5.457  0.0657  0.2255 -0.7364
39769SOL    HW125399   0.651   8.350   5.547 -0.5228 -0.9386 -1.1254
39769SOL    HW225400   0.597   8.461   5.460 -1.7217 -0.9301 -0.3995
39770SOL     OW25401   6.996   2.692   6.486  0.0364 -0.2710  0.5801
39770SOL    HW125402   7.032   2.771   6.527 -0.1957 -0.6216  1.4879
39770SOL    HW225403   6.909   2.683   6.525 -1.1405  0.6266 -1.6707
39771SOL     OW25404   8.311  10.838   7.496  0.4403 -0.0875 -0.3003
39771SOL    HW125405   8.259  10.863   7.573  0.3257 -0.3072 -0.3061
39771SOL    HW225406   8.269  10.758   7.464  1.8558 -1.3013  0.7611
39772SOL     OW25407   6.525   5.605   5.873 -0.2473 -0.4192 -0.3588
39772SOL    HW125408   6.453   5.566   5.922 -0.8076 -1.9032 -2.2731
39772SOL    HW225409   6.597   5.543   5.883  0.0148 -0.1346 -0.4590
39773SOL     OW25410   9.130   8.057   6.276 -0.3524 -0.0292 -0.0173
39773SOL    HW125411   9.140   8.125   6.342 -0.3718  0.9278 -0.9642
39773SOL    HW225412   9.183   8.088   6.202 -1.3207 -0.4397 -0.9087
39774SOL     OW25413   5.401   5.305   5.602 -0.3124  0.3240 -0.4571
39774SOL    HW125414   5.338   5.376   5.614 -0.4472  0.1259  0.0523
39774SOL    HW225415   5.396   5.255   5.683 -0.1998 -0.2534 -0.8002
39775SOL     OW25416   6.340   5.852   4.161 -0.4558 -0.0318  0.7176
39775SOL    HW125417   6.272   5.838   4.096 -0.3428  0.5740  0.4577
39775SOL    HW225418   6.418   5.812   4.122 -0.3191  0.5797  0.3328
39776SOL     OW25419  10.712   2.998   0.884  0.0238  0.3097  0.1652
39776SOL    HW125420  10.766   2.962   0.955 -0.6186  0.9794  1.0271
39776SOL    HW225421  10.683   2.922   0.834 -0.2675 -0.2663  1.1877
39777SOL     OW25422  10.779   1.213   7.313 -1.0061 -0.4600 -0.2764
39777SOL    HW125423  10.706   1.258   7.271 -1.0394  0.0747  0.3354
39777SOL    HW225424  10.809   1.275   7.380  1.0269  0.0391 -1.5497
39778SOL     OW25425   4.268   2.229   2.108 -0.5210  0.3958  0.5220
39778SOL    HW125426   4.269   2.164   2.178 -1.5575 -0.0381  0.1473
39778SOL    HW225427   4.249   2.179   2.029  0.3340  0.9269 -0.0387
39779SOL     OW25428   1.468   5.249   0.994 -0.2656  0.0385  0.1197
39779SOL    HW125429   1.562   5.246   1.010 -0.1048  1.6414 -0.3474
39779SOL    HW225430   1.435   5.313   1.057 -1.0556 -0.5748  0.3376
39780SOL     OW25431   9.174   1.539   4.604 -0.1343  0.6026  0.0345
39780SOL    HW125432   9.111   1.506   4.540 -0.0420 -3.1122  1.6243
39780SOL    HW225433   9.215   1.614   4.560 -1.1607 -0.7402 -3.5858
39781SOL     OW25434   9.601   5.716   4.890  0.4325 -0.6925 -0.0742
39781SOL    HW125435   9.516   5.673   4.888 -0.2096  0.5316 -1.6292
39781SOL    HW225436   9.642   5.686   4.971 -2.6145  0.8798  2.2200
39782SOL     OW25437   1.844   5.842   8.000 -0.7978  0.0875 -0.0657
39782SOL    HW125438   1.895   5.764   7.978 -1.8947 -0.3216 -1.2778
39782SOL    HW225439   1.908   5.901   8.040  0.9880  0.1737 -2.8100
39783SOL     OW25440   0.323   7.660   6.228 -0.0588 -0.4328 -0.1461
39783SOL    HW125441   0.244   7.614   6.255 -1.0784  2.3170  2.1250
39783SOL    HW225442   0.393   7.596   6.238 -1.4343 -1.7096  2.2009
39784SOL     OW25443  10.076   7.661   6.102  0.3133  0.1550  0.4296
39784SOL    HW125444  10.038   7.740   6.140  0.7832  1.3844 -1.5336
39784SOL    HW225445  10.154   7.691   6.056  0.4043 -1.4227 -0.5247
39785SOL     OW25446   4.336   1.294   8.252 -0.3675 -0.3264  0.7781
39785SOL    HW125447   4.326   1.389   8.252  2.0221 -0.0077 -0.5977
39785SOL    HW225448   4.390   1.275   8.329 -0.4006 -0.5344  0.7516
39786SOL     OW25449   5.066   7.108   4.575  0.8776 -0.1926  0.0601
39786SOL    HW125450   5.107   7.173   4.632 -0.9722  0.4123  0.7983
39786SOL    HW225451   5.087   7.136   4.487  0.2474  1.3533  0.3740
39787SOL     OW25452   5.156   5.683  10.112 -0.1526  0.1890 -0.0201
39787SOL    HW125453   5.140   5.589  10.115  0.9623 -0.0152 -0.0336
39787SOL    HW225454   5.142   5.707  10.021 -0.0419 -0.0402 -0.0973
39788SOL     OW25455   9.567   3.803   1.744  0.8350 -0.1098  0.0826
39788SOL    HW125456   9.516   3.792   1.824  1.5988  1.9045  0.9375
39788SOL    HW225457   9.516   3.864   1.691  1.9429  1.3295  0.6196
39789SOL     OW25458   4.214   3.665   7.979  0.6903  0.7821  0.3151
39789SOL    HW125459   4.279   3.640   7.912  0.0185 -0.9881  0.2470
39789SOL    HW225460   4.207   3.760   7.971  1.5739  0.7650 -1.2596
39790SOL     OW25461   7.410   5.703  10.230  0.4925  0.0361 -0.1426
39790SOL    HW125462   7.471   5.777  10.231  0.7638 -0.1628  1.6724
39790SOL    HW225463   7.355   5.717  10.307  2.0147 -2.8109  1.6240
39791SOL     OW25464   1.121   7.733   2.640  0.3318 -0.0525  0.0258
39791SOL    HW125465   1.147   7.722   2.548  1.4091 -1.0848  0.4339
39791SOL    HW225466   1.026   7.717   2.640  0.1945  0.6620 -0.9996
39792SOL     OW25467   8.768   2.745   7.214 -0.1312 -0.2465  0.1014
39792SOL    HW125468   8.861   2.726   7.201 -0.3657 -0.7232 -0.9230
39792SOL    HW225469   8.722   2.691   7.149 -1.1025  0.2397  0.3600
39793SOL     OW25470   6.621   4.975   1.255 -0.0980  0.1714  0.3469
39793SOL    HW125471   6.705   4.949   1.292  0.0443  0.8281  0.5090
39793SOL    HW225472   6.630   4.957   1.161 -0.6037 -1.8620  0.6488
39794SOL     OW25473   5.110   2.053   2.054  0.3966  0.1332 -0.5364
39794SOL    HW125474   5.062   2.055   1.972  1.0481  0.2368 -0.9233
39794SOL    HW225475   5.043   2.061   2.122 -0.0879  0.8148 -1.0813
39795SOL     OW25476   8.505   6.218   9.440  0.2533  0.2821  0.2882
39795SOL    HW125477   8.457   6.301   9.437  0.2847  0.3543  1.2558
39795SOL    HW225478   8.597   6.243   9.428  0.1038  0.1915 -1.1280
39796SOL     OW25479   6.442  10.148   0.722 -0.2104 -0.4302  0.0906
39796SOL    HW125480   6.356  10.173   0.756 -1.1045 -0.9631 -1.6637
39796SOL    HW225481   6.442  10.178   0.631  1.4093 -0.5943 -0.0001
39797SOL     OW25482   2.005   5.303   9.501  0.0406 -0.6160  0.4606
39797SOL    HW125483   2.074   5.241   9.476  0.0484 -0.7344  0.7741
39797SOL    HW225484   2.051   5.386   9.511 -0.1211 -0.3238 -0.9341
39798SOL     OW25485   1.800   8.669   8.491 -0.0327 -0.2387  0.1706
39798SOL    HW125486   1.811   8.712   8.406 -0.1903  0.4734  0.5021
39798SOL    HW225487   1.718   8.622   8.484  0.1303 -0.4707 -0.1914
39799SOL     OW25488  10.434   4.163   0.925 -0.3206  0.1118 -0.2893
39799SOL    HW125489  10.498   4.095   0.902 -1.0452 -0.2314 -1.3155
39799SOL    HW225490  10.410   4.203   0.842 -0.3471  1.2405  0.2497
39800SOL     OW25491   0.779   9.260   2.816 -0.1277  0.3384 -0.9333
39800SOL    HW125492   0.692   9.258   2.856  0.4765  0.7989  0.4610
39800SOL    HW225493   0.768   9.317   2.740 -0.6117  2.1893  0.4195
39801SOL     OW25494   2.387   3.790   3.294  0.0774  0.4064 -0.2580
39801SOL    HW125495   2.386   3.769   3.388 -0.7340  0.2125 -0.3044
39801SOL    HW225496   2.350   3.713   3.252  1.5593 -0.0037 -0.8628
39802SOL     OW25497   0.863   3.929  10.413  0.7051  0.2625 -0.1190
39802SOL    HW125498   0.916   3.862  10.458 -0.4058 -0.0687  0.7246
39802SOL    HW225499   0.832   3.886  10.334  2.2037  0.6694 -0.9782
39803SOL     OW25500   1.767   4.944  10.747 -0.2188 -0.8360  0.2570
39803SOL    HW125501   1.720   5.001  10.809  0.7010 -1.1077  1.2328
39803SOL    HW225502   1.859   4.966  10.760  0.0524 -1.6165 -0.3041
39804SOL     OW25503   7.448   5.759   4.606 -0.3928 -0.7536  0.0693
39804SOL    HW125504   7.512   5.827   4.584  1.1298 -2.4896 -1.1994
39804SOL    HW225505   7.407   5.737   4.523 -0.6231 -1.6029  0.3942
39805SOL     OW25506   2.395   5.767  10.031 -0.3595  0.7164  0.8147
39805SOL    HW125507   2.427   5.821   9.958  1.7629  0.6721  1.6505
39805SOL    HW225508   2.371   5.684   9.991  1.8668  0.2871  0.2679
39806SOL     OW25509   5.842   9.367   4.702  0.0988 -0.1395 -0.7030
39806SOL    HW125510   5.793   9.349   4.621  2.0039 -0.0510 -1.9466
39806SOL    HW225511   5.915   9.305   4.700 -0.2892 -0.7601  1.4599
39807SOL     OW25512   5.990   0.055   2.150  0.2846 -0.5205 -0.1433
39807SOL    HW125513   6.001   0.126   2.086 -1.4573  1.0487  1.1999
39807SOL    HW225514   6.066   0.062   2.207  1.4956 -1.4961 -1.5490
39808SOL     OW25515   8.464   9.544  10.121 -0.0528  0.1404  0.0080
39808SOL    HW125516   8.531   9.547  10.189 -1.3170  0.0027  1.3311
39808SOL    HW225517   8.435   9.634  10.111  0.2760  0.1904 -0.5040
39809SOL     OW25518   7.806   0.580  10.343 -0.6411 -0.7566  0.2269
39809SOL    HW125519   7.855   0.519  10.399 -1.2826 -3.1640 -1.6866
39809SOL    HW225520   7.722   0.536  10.327 -0.7068  0.0797 -2.1176
39810SOL     OW25521  10.228  10.444   5.295  0.1923 -0.0917  0.9395
39810SOL    HW125522  10.172  10.387   5.242  0.3739 -0.7092  1.4161
39810SOL    HW225523  10.289  10.483   5.231 -0.2369 -0.0496  0.5455
39811SOL     OW25524   3.571   7.898   7.628 -0.6982  0.7821  0.5506
39811SOL    HW125525   3.623   7.939   7.560 -2.3153 -0.8241 -1.7979
39811SOL    HW225526   3.635   7.864   7.691  0.9677  0.7563 -1.1092
39812SOL     OW25527   4.743   8.889  10.551  0.1419  0.4759  0.3523
39812SOL    HW125528   4.817   8.863  10.497 -0.5588  1.0523 -0.9377
39812SOL    HW225529   4.702   8.806  10.577 -0.6202  0.1612 -1.6482
39813SOL     OW25530   4.982   2.379   2.144  0.0965  0.3275 -0.4588
39813SOL    HW125531   4.990   2.300   2.198 -0.5379 -0.1781 -1.1024
39813SOL    HW225532   4.947   2.445   2.204 -1.8440 -0.5751 -0.5427
39814SOL     OW25533   4.723   5.339   1.869  0.4928 -0.0575 -0.3144
39814SOL    HW125534   4.634   5.356   1.837  0.8206  0.7869 -0.7992
39814SOL    HW225535   4.750   5.259   1.825  0.0279 -0.2386 -0.2735
39815SOL     OW25536   3.059   2.270   2.409  0.5534 -0.2353  0.1289
39815SOL    HW125537   3.087   2.250   2.499  1.9919 -0.7936 -0.4132
39815SOL    HW225538   3.046   2.365   2.409  1.5187 -0.0906  0.6857
39816SOL     OW25539  10.227   1.245   7.409 -0.9275 -0.5808 -0.2084
39816SOL    HW125540  10.291   1.194   7.458  1.2295  1.1081 -1.0912
39816SOL    HW225541  10.145   1.196   7.417 -0.3650 -1.1787  3.7160
39817SOL     OW25542   7.235   1.111   4.995 -0.4011  0.1593 -0.3253
39817SOL    HW125543   7.200   1.054   5.063  1.1520  0.8836  1.1595
39817SOL    HW225544   7.246   1.196   5.038 -0.8469  1.0757 -1.9443
39818SOL     OW25545   3.845   4.878   2.703  0.1978  0.4398  0.1024
39818SOL    HW125546   3.775   4.937   2.676  0.5913  0.5683 -0.6602
39818SOL    HW225547   3.805   4.791   2.703 -0.7515  0.7945  2.4826
39819SOL     OW25548   2.756   3.076   4.565  0.5308  0.3978  0.3182
39819SOL    HW125549   2.750   3.026   4.484  0.2756 -1.4889  1.4289
39819SOL    HW225550   2.730   3.165   4.541 -0.7514 -0.3835 -1.4106
39820SOL     OW25551   6.087   9.415   4.913 -0.2892 -0.4371  0.1051
39820SOL    HW125552   6.094   9.353   4.840  0.1689  0.9914 -1.1095
39820SOL    HW225553   6.029   9.484   4.880  1.1075  0.9710  0.5154
39821SOL     OW25554   7.404   1.726   9.395 -0.2551 -0.1122  0.1909
39821SOL    HW125555   7.482   1.727   9.340  0.0743 -0.6006  0.6395
39821SOL    HW225556   7.437   1.707   9.483 -0.7581  0.7626  0.5821
39822SOL     OW25557   8.983   1.070  10.346  0.4031  0.0975 -0.4501
39822SOL    HW125558   9.015   1.159  10.362  2.2393 -0.5516 -0.3081
39822SOL    HW225559   8.924   1.079  10.271  1.0935  1.3251 -0.8778
39823SOL     OW25560   7.977   1.712   9.218  0.4602 -0.1267 -0.6129
39823SOL    HW125561   8.053   1.770   9.207 -0.3169  1.2888  1.0096
39823SOL    HW225562   7.906   1.771   9.245 -1.3320 -1.3696 -2.3227
39824SOL     OW25563   1.058   1.469   8.093 -0.3836  0.0257  0.1926
39824SOL    HW125564   1.122   1.522   8.044 -1.1207  0.2289 -0.5716
39824SOL    HW225565   0.984   1.528   8.107 -0.5686 -0.3296  0.7232
39825SOL     OW25566   3.134   1.094   2.851 -0.2857 -0.2875 -0.1681
39825SOL    HW125567   3.045   1.118   2.876 -0.3446 -0.4327 -0.2330
39825SOL    HW225568   3.145   1.130   2.763 -0.6722 -1.2025 -0.6138
39826SOL     OW25569   0.967   4.930   5.877 -0.3572 -0.1963 -0.4869
39826SOL    HW125570   0.916   4.951   5.799  0.4771 -0.5401 -1.1314
39826SOL    HW225571   0.927   4.983   5.946  0.2720  1.8569 -1.5990
39827SOL     OW25572   3.578   9.429   3.296 -0.2049  0.0749 -0.5418
39827SOL    HW125573   3.659   9.479   3.280 -1.2478  2.2465  0.5126
39827SOL    HW225574   3.514   9.495   3.322 -2.1193 -1.6908 -0.5119
39828SOL     OW25575   1.679   1.644   9.034 -0.5350  0.9920 -0.2324
39828SOL    HW125576   1.755   1.586   9.035 -1.0458  0.1455 -2.9945
39828SOL    HW225577   1.614   1.601   9.089  0.1491  0.4959  0.1904
39829SOL     OW25578   9.779  10.205   2.442 -0.3397  0.1711  0.4084
39829SOL    HW125579   9.838  10.249   2.504  1.3492  0.4239 -1.3000
39829SOL    HW225580   9.806  10.113   2.446  1.1518  0.4819 -1.3275
39830SOL     OW25581   7.756   9.232   4.723 -0.2729 -0.4923 -0.0194
39830SOL    HW125582   7.788   9.250   4.811 -0.6483  2.1206 -0.3520
39830SOL    HW225583   7.674   9.280   4.717 -0.4231 -0.8997 -1.7070
39831SOL     OW25584   6.023   4.724   6.212  0.0584  0.5097  0.3839
39831SOL    HW125585   5.932   4.729   6.241  0.0040  0.6911  0.1841
39831SOL    HW225586   6.072   4.698   6.290 -0.0323  1.3507  0.7232
39832SOL     OW25587   9.610   8.615   6.251 -0.1123  0.1633  0.3485
39832SOL    HW125588   9.694   8.655   6.275  0.3661  0.3452 -1.4985
39832SOL    HW225589   9.545   8.662   6.303  1.0321 -1.4414  3.5504
39833SOL     OW25590   5.229   7.434   7.241  0.6395 -0.5402  0.5983
39833SOL    HW125591   5.157   7.466   7.294  1.4236 -0.4752  1.6496
39833SOL    HW225592   5.224   7.485   7.160 -0.7826 -0.9041  0.4357
39834SOL     OW25593   8.460   7.096   6.454 -0.4465  0.0478  0.1684
39834SOL    HW125594   8.527   7.040   6.415 -0.5120  0.4194 -0.4818
39834SOL    HW225595   8.484   7.184   6.426  0.1510  0.4673  1.8742
39835SOL     OW25596   1.749  10.271   0.521  0.3874 -0.0083 -0.3701
39835SOL    HW125597   1.831  10.259   0.569  0.4105 -2.5817 -0.9121
39835SOL    HW225598   1.720  10.183   0.500 -1.1273  0.9164 -2.5930
39836SOL     OW25599   1.778   0.279   3.859 -0.3696 -0.0410  0.1995
39836SOL    HW125600   1.831   0.199   3.853 -0.1537 -0.2274  3.1655
39836SOL    HW225601   1.756   0.300   3.768 -0.4320 -3.4530 -0.7012
39837SOL     OW25602   0.681   9.727   9.448 -0.7192  0.5687 -0.0570
39837SOL    HW125603   0.742   9.673   9.499 -1.1937  0.9780  0.9582
39837SOL    HW225604   0.608   9.668   9.428 -0.3291  0.2812 -0.6637
39838SOL     OW25605   9.659   9.744   6.824 -0.2071  0.3832  0.0140
39838SOL    HW125606   9.635   9.811   6.760 -2.5707  0.6052  1.0220
39838SOL    HW225607   9.631   9.780   6.908 -1.8733 -1.9314  0.5558
39839SOL     OW25608   6.993   0.109   7.704 -0.6833  0.1595  0.2709
39839SOL    HW125609   7.032   0.094   7.790  0.4380  0.4424 -0.1759
39839SOL    HW225610   6.942   0.189   7.714  0.4604  0.8966  0.3598
39840SOL     OW25611   1.843   3.895   6.129 -0.9599 -0.7117  0.2620
39840SOL    HW125612   1.873   3.933   6.211  1.4495  0.8504 -1.2175
39840SOL    HW225613   1.905   3.824   6.110 -1.4226 -0.9855 -0.2639
39841SOL     OW25614   5.610   5.350   2.053 -0.4596 -0.3704 -0.5702
39841SOL    HW125615   5.542   5.416   2.037  0.2977  1.5624  3.1303
39841SOL    HW225616   5.582   5.305   2.133  1.7492 -0.6938  0.0880
39842SOL     OW25617   6.281   4.076   3.845  0.0951 -0.4305  0.1586
39842SOL    HW125618   6.320   3.988   3.840 -0.4285 -0.6922  0.5850
39842SOL    HW225619   6.234   4.077   3.929  0.9903  0.6316  0.6778
39843SOL     OW25620   5.152   1.864   4.917  0.0541  0.3132 -0.3280
39843SOL    HW125621   5.223   1.802   4.935 -0.2160  0.1058  0.0280
39843SOL    HW225622   5.077   1.809   4.897 -0.8726  0.4186  2.4319
39844SOL     OW25623   8.550   4.035   3.731 -0.0240  0.3231 -0.6885
39844SOL    HW125624   8.624   3.995   3.777 -0.6071  0.5105  0.4582
39844SOL    HW225625   8.482   3.967   3.732 -0.5803  0.8704  0.1448
39845SOL     OW25626   0.303   8.541   7.564  0.2439  0.5014 -0.4315
39845SOL    HW125627   0.336   8.625   7.533 -0.8879  0.3767 -2.0968
39845SOL    HW225628   0.382   8.489   7.580  0.9998  2.2114  1.7743
39846SOL     OW25629   1.759   3.797   5.068 -0.6477 -0.5057  0.4993
39846SOL    HW125630   1.754   3.787   4.973 -0.8136  1.0006  0.3232
39846SOL    HW225631   1.672   3.771   5.099 -1.2369  0.8265  0.0253
39847SOL     OW25632   9.975   0.572   7.214  0.8929  0.0689  0.2961
39847SOL    HW125633  10.044   0.505   7.217 -0.4687 -1.4247 -0.1996
39847SOL    HW225634  10.022   0.655   7.205  2.5931 -1.1029 -3.2046
39848SOL     OW25635   9.943   5.423   7.833 -0.2916  0.0815  1.0855
39848SOL    HW125636   9.957   5.342   7.883 -2.8544 -0.1033  1.6620
39848SOL    HW225637   9.907   5.485   7.897 -2.0472  0.3776 -0.1208
39849SOL     OW25638   8.935   5.454   6.235 -0.5873 -0.2115  0.8587
39849SOL    HW125639   8.913   5.471   6.144 -0.0964 -0.7782  0.6246
39849SOL    HW225640   8.941   5.358   6.241 -0.8365 -0.1917  1.5394
39850SOL     OW25641   1.936   0.342   8.275 -0.3102  0.2574  0.6383
39850SOL    HW125642   1.998   0.292   8.329  0.8356 -1.1053 -1.7841
39850SOL    HW225643   1.863   0.282   8.259 -1.0745  0.9633  1.3382
39851SOL     OW25644   5.479   0.816   5.215 -0.0549 -0.3076  0.1690
39851SOL    HW125645   5.441   0.823   5.127 -0.1363 -0.3884  0.1970
39851SOL    HW225646   5.410   0.849   5.273  0.4056  0.7802  0.1185
39852SOL     OW25647   5.911   8.964   9.572  0.0347 -0.1585 -0.0285
39852SOL    HW125648   5.888   8.962   9.480  1.1675 -1.0279 -0.3199
39852SOL    HW225649   5.884   9.050   9.602  1.1300  0.7632 -1.5691
39853SOL     OW25650   1.260   7.485   7.100  0.3678  0.1088 -0.1055
39853SOL    HW125651   1.190   7.537   7.139 -0.7835 -1.0845 -0.5274
39853SOL    HW225652   1.254   7.502   7.006 -0.8669 -1.7064 -0.4092
39854SOL     OW25653   7.940   8.764   2.296 -0.2473 -0.2529  0.2989
39854SOL    HW125654   7.998   8.705   2.343 -0.3828 -0.4398  0.2341
39854SOL    HW225655   7.852   8.736   2.322 -0.3091 -0.0138  0.3484
39855SOL     OW25656   3.268   7.951   3.638 -0.2798  0.4710  0.3521
39855SOL    HW125657   3.321   7.984   3.566 -1.0339  0.7290 -0.0989
39855SOL    HW225658   3.282   7.856   3.637  1.4606  0.6897  1.3024
39856SOL     OW25659   7.028   6.119   0.115  0.6516  0.2025 -0.4274
39856SOL    HW125660   7.008   6.061   0.041 -0.7810 -0.3373  0.3352
39856SOL    HW225661   6.964   6.094   0.182  1.3650  1.2671  0.6801
39857SOL     OW25662   3.459   9.438   5.443  0.1415 -0.3174 -0.0925
39857SOL    HW125663   3.480   9.523   5.480  2.7058 -1.1801  0.6277
39857SOL    HW225664   3.510   9.434   5.362 -1.0089 -0.6781 -0.8301
39858SOL     OW25665   2.862   8.503   1.365 -0.2622  0.0540 -0.5596
39858SOL    HW125666   2.770   8.503   1.392 -0.2205 -0.0281 -0.4158
39858SOL    HW225667   2.885   8.410   1.358 -0.0293  0.0734 -0.0432
39859SOL     OW25668   6.245   3.223   1.005 -0.6107  0.1293 -0.0950
39859SOL    HW125669   6.190   3.301   0.999 -0.0766  0.5357  0.2377
39859SOL    HW225670   6.298   3.226   0.925 -1.8391 -0.8678 -0.9841
39860SOL     OW25671   7.418   1.711   2.870 -0.2592 -0.5033  0.5306
39860SOL    HW125672   7.474   1.781   2.903  0.6375 -0.0216 -1.8052
39860SOL    HW225673   7.475   1.634   2.866 -0.6154 -0.7962  0.9572
39861SOL     OW25674   9.457   6.764   4.346 -0.4288  0.1838 -0.2189
39861SOL    HW125675   9.515   6.805   4.282 -0.7093  0.8087 -0.0823
39861SOL    HW225676   9.474   6.671   4.337  0.5591  0.3539 -0.2061
39862SOL     OW25677   5.899   9.889   2.204  0.1848  0.3726 -0.2273
39862SOL    HW125678   5.947   9.849   2.132 -1.0290  0.0826 -0.9051
39862SOL    HW225679   5.967   9.927   2.260  1.1611  0.5881 -1.5038
39863SOL     OW25680   3.558   1.523  10.536  0.3299  0.4323  0.3234
39863SOL    HW125681   3.524   1.578  10.467  1.3053 -0.3588 -0.8283
39863SOL    HW225682   3.646   1.558  10.554 -0.3132  1.3064  1.9498
39864SOL     OW25683   3.607   5.311   6.341 -0.0635 -0.3892 -0.2208
39864SOL    HW125684   3.644   5.398   6.329  0.3888 -0.6867 -1.0805
39864SOL    HW225685   3.652   5.276   6.417 -0.8913  0.4490  0.6919
39865SOL     OW25686   0.105   0.129   3.715  0.1122 -0.1137  0.0526
39865SOL    HW125687   0.082   0.040   3.689  0.0786 -0.0466 -0.1433
39865SOL    HW225688   0.196   0.139   3.689  0.2283 -0.2155  0.4040
39866SOL     OW25689   5.331   2.120   7.120  0.2071  0.2386  0.3360
39866SOL    HW125690   5.308   2.126   7.027 -0.5738  2.1231  0.6076
39866SOL    HW225691   5.420   2.084   7.121 -0.0248 -0.4319 -1.0915
39867SOL     OW25692   2.566   8.899   1.592  1.0351  0.0963 -0.7803
39867SOL    HW125693   2.576   8.814   1.636 -0.4379  0.3375  0.1038
39867SOL    HW225694   2.530   8.878   1.506 -0.5490 -0.1371 -0.0910
39868SOL     OW25695   3.641   0.234   4.841 -0.6434  0.5915 -0.3751
39868SOL    HW125696   3.666   0.190   4.922 -1.5821  1.3707  0.3808
39868SOL    HW225697   3.723   0.262   4.802 -0.1142 -0.6931 -0.2312
39869SOL     OW25698   2.707  10.076   4.089  0.0618 -0.1002  0.0027
39869SOL    HW125699   2.622  10.107   4.121  0.6254  1.4329  0.1273
39869SOL    HW225700   2.762  10.069   4.167  0.2859 -0.2954 -0.1688
39870SOL     OW25701   7.395   7.052   9.487  0.3505 -0.1974  0.0993
39870SOL    HW125702   7.476   7.053   9.436  0.8835  0.4258  0.9255
39870SOL    HW225703   7.326   7.039   9.422  1.1290 -1.0099 -0.5867
39871SOL     OW25704   8.708   6.360  10.322 -0.0398 -0.0833  0.3159
39871SOL    HW125705   8.734   6.273  10.352  0.6762 -0.3896 -1.1470
39871SOL    HW225706   8.759   6.420  10.377  0.3145 -0.5975  0.5585
39872SOL     OW25707   3.980   2.107   2.990  0.4298 -0.3860  0.4885
39872SOL    HW125708   3.996   2.116   2.896  0.4022 -0.4443  0.4783
39872SOL    HW225709   3.953   2.016   3.002 -0.6333 -0.0941  0.4014
39873SOL     OW25710   2.695   7.352   9.183 -0.1291 -0.1077 -0.0446
39873SOL    HW125711   2.702   7.289   9.111  2.2960  0.3094 -0.2733
39873SOL    HW225712   2.639   7.309   9.247 -0.0648 -1.6988 -0.9954
39874SOL     OW25713   8.970   7.317   9.932  0.0769  0.1582 -0.2162
39874SOL    HW125714   8.880   7.317   9.900  0.1611  0.0816 -0.4561
39874SOL    HW225715   9.002   7.406   9.912 -1.0433  1.4078  3.0018
39875SOL     OW25716   2.142   5.732  10.110 -0.5432 -0.0743  0.3454
39875SOL    HW125717   2.230   5.767  10.091 -0.8530 -0.7645 -2.8522
39875SOL    HW225718   2.083   5.788  10.060 -1.4727 -2.2091 -1.0946
39876SOL     OW25719   6.288   9.862   4.885 -0.3333 -0.1481 -0.4002
39876SOL    HW125720   6.222   9.924   4.854 -1.6244 -0.9303  0.6604
39876SOL    HW225721   6.296   9.799   4.814 -1.7962 -0.8266 -0.0010
39877SOL     OW25722  10.038   5.821   8.050  0.3196  0.0480 -0.2941
39877SOL    HW125723  10.125   5.846   8.019  0.1915  0.1357 -0.5983
39877SOL    HW225724  10.029   5.864   8.135  1.8402 -2.5964  1.3204
39878SOL     OW25725   6.209   5.521   1.939  0.1043  0.0072 -0.2196
39878SOL    HW125726   6.275   5.579   1.901  2.4003 -0.5101  2.5820
39878SOL    HW225727   6.143   5.579   1.976 -0.2521  0.5935 -1.7237
39879SOL     OW25728   6.448   5.583   7.068  0.2215 -0.0765 -0.5726
39879SOL    HW125729   6.523   5.562   7.013  0.3505  3.1300 -1.8214
39879SOL    HW225730   6.382   5.616   7.007 -0.4322  1.5655  0.9190
39880SOL     OW25731   7.693   2.809   2.969 -0.0170  0.2941  0.2585
39880SOL    HW125732   7.704   2.826   3.062 -0.7164 -1.8255  0.7929
39880SOL    HW225733   7.762   2.746   2.947 -1.6905 -1.6224  0.1509
39881SOL     OW25734   2.576   8.472   7.585 -0.7078 -0.1509 -0.2399
39881SOL    HW125735   2.504   8.523   7.620 -0.0836  0.6019 -0.0257
39881SOL    HW225736   2.617   8.529   7.520 -0.6991 -0.8165 -0.8319
39882SOL     OW25737   2.884   1.234   2.894  0.1224 -0.0854  0.1294
39882SOL    HW125738   2.835   1.163   2.936  2.2369  0.1227  3.3106
39882SOL    HW225739   2.845   1.314   2.930  1.1507  0.1590  0.7226
39883SOL     OW25740   9.542   5.266   5.905 -0.1212  0.2846 -0.4794
39883SOL    HW125741   9.559   5.195   5.966 -0.7116 -0.5476 -1.2627
39883SOL    HW225742   9.519   5.341   5.960  1.9800  0.3230  0.4342
39884SOL     OW25743   1.080   4.419   7.730 -0.1378  0.3008 -0.0120
39884SOL    HW125744   1.158   4.473   7.747 -0.8784  0.9832  1.3600
39884SOL    HW225745   1.102   4.370   7.651  1.7000  0.4632  0.3532
39885SOL     OW25746   5.295   2.576   5.767 -0.0599 -0.5020 -0.0972
39885SOL    HW125747   5.243   2.605   5.692 -0.4848  0.5981  0.5964
39885SOL    HW225748   5.385   2.597   5.744 -0.4726  3.3844  1.1347
39886SOL     OW25749   5.359   8.101   4.925 -0.0913  0.2880  0.0570
39886SOL    HW125750   5.307   8.050   4.863  0.2435  0.8600 -0.7092
39886SOL    HW225751   5.300   8.172   4.953 -0.6279 -0.6056  1.2797
39887SOL     OW25752   8.018  10.262   0.472  0.0928 -0.5389  0.5692
39887SOL    HW125753   8.025  10.200   0.545  1.7699 -1.8189 -0.6027
39887SOL    HW225754   8.068  10.338   0.501 -0.8706 -0.2399  1.5006
39888SOL     OW25755   5.146   7.691   1.209  0.4038  0.0871  0.5973
39888SOL    HW125756   5.141   7.748   1.285 -0.4424 -0.4013  0.9282
39888SOL    HW225757   5.089   7.617   1.231  0.1733 -0.0785 -0.4823
39889SOL     OW25758   3.169   4.521   3.171 -0.0539 -0.0406 -0.2026
39889SOL    HW125759   3.244   4.563   3.215  0.2121 -0.9490  0.2428
39889SOL    HW225760   3.196   4.430   3.160 -1.3828 -0.5681  0.6545
39890SOL     OW25761   0.755  10.873   5.917 -0.4237  0.3523  0.0154
39890SOL    HW125762   0.694  10.848   5.847 -1.7025  2.0008  0.4545
39890SOL    HW225763   0.775  10.791   5.962 -1.1645 -0.4519 -1.0617
39891SOL     OW25764   3.185   6.147   9.920 -0.2415 -0.3331  0.1082
39891SOL    HW125765   3.254   6.119   9.980 -1.1702 -0.2114  1.2616
39891SOL    HW225766   3.116   6.181   9.976 -1.3845 -0.7355 -0.9940
39892SOL     OW25767   9.546   0.647  10.565 -0.5131  0.5106 -0.0857
39892SOL    HW125768   9.524   0.717  10.627 -0.1034  0.0791  0.5582
39892SOL    HW225769   9.633   0.617  10.592 -0.7387 -0.3354 -0.2667
39893SOL     OW25770   5.824   8.786   1.185 -0.6456 -0.1687  0.6213
39893SOL    HW125771   5.806   8.698   1.219  0.2264 -0.7408 -0.3399
39893SOL    HW225772   5.897   8.818   1.238 -0.4401 -0.3526  0.4522
39894SOL     OW25773   9.164   5.438   4.164 -0.1623 -0.1451  0.3316
39894SOL    HW125774   9.248   5.479   4.142 -0.3686 -0.2146 -0.6274
39894SOL    HW225775   9.152   5.456   4.257  0.8578 -0.0249  0.4509
39895SOL     OW25776   9.200   0.221   4.046  0.4436 -0.1026  0.0196
39895SOL    HW125777   9.170   0.311   4.058  0.7662  0.0656 -0.4170
39895SOL    HW225778   9.194   0.182   4.133 -1.5470 -0.2471 -0.1438
39896SOL     OW25779  10.211   8.857   1.754  0.2869  0.7957 -0.1774
39896SOL    HW125780  10.276   8.927   1.748  0.3958  0.6333 -1.2741
39896SOL    HW225781  10.177   8.849   1.665  0.6893 -0.9174 -0.2148
39897SOL     OW25782   2.861   7.717   6.497  0.4457 -0.3353  0.4429
39897SOL    HW125783   2.936   7.754   6.543  1.9571 -2.7050  0.0549
39897SOL    HW225784   2.858   7.625   6.525  0.0439 -1.2962 -2.4057
39898SOL     OW25785   5.055   3.587  10.277 -0.0828  0.0549 -0.0120
39898SOL    HW125786   4.996   3.660  10.291 -0.4495 -0.0565 -0.8846
39898SOL    HW225787   5.005   3.509  10.300  0.2826  0.0622  0.8451
39899SOL     OW25788   0.824   7.505   4.730  0.5720 -0.2938  0.4158
39899SOL    HW125789   0.823   7.433   4.668  0.3976 -0.7114  0.8927
39899SOL    HW225790   0.869   7.577   4.685  3.1228 -1.5086  0.8522
39900SOL     OW25791  10.839   5.880   9.024 -0.2069 -0.3034  0.3587
39900SOL    HW125792  10.749   5.863   8.994  0.0159  0.7203 -0.9749
39900SOL    HW225793  10.894   5.843   8.956  0.4174 -1.2454  1.3484
39901SOL     OW25794   3.687   4.351   1.821 -0.4217 -0.4873  0.0371
39901SOL    HW125795   3.599   4.386   1.836 -0.1548  0.0780  0.2892
39901SOL    HW225796   3.700   4.289   1.894 -0.8155 -0.9821 -0.3013
39902SOL     OW25797   6.343   4.804   8.600 -0.0104 -0.2906 -0.1427
39902SOL    HW125798   6.432   4.792   8.634  0.1174 -1.9036 -0.9205
39902SOL    HW225799   6.327   4.726   8.547 -1.7213  0.1972 -0.4215
39903SOL     OW25800   3.805   7.877   1.393  0.5800 -0.0014 -0.3174
39903SOL    HW125801   3.838   7.787   1.388 -0.4255 -0.3802 -0.5020
39903SOL    HW225802   3.721   7.868   1.439  0.7674  0.9317  0.2241
39904SOL     OW25803   3.139   7.301   3.991 -0.3842 -0.0658 -0.0077
39904SOL    HW125804   3.206   7.361   3.960 -0.4872 -0.1960 -0.4843
39904SOL    HW225805   3.187   7.223   4.020 -0.1104  0.7798  1.9865
39905SOL     OW25806  10.208   7.880   1.432 -0.1558 -0.3297  0.1829
39905SOL    HW125807  10.194   7.905   1.341  1.4215 -1.2011 -0.3515
39905SOL    HW225808  10.127   7.836   1.458 -0.1975 -1.1381 -1.2010
39906SOL     OW25809   2.134  10.721   0.568  0.0195  0.0517 -0.2260
39906SOL    HW125810   2.214  10.712   0.619  0.9222 -1.0589 -1.7748
39906SOL    HW225811   2.124  10.816   0.556  1.5442  0.1785 -0.6872
39907SOL     OW25812   5.367   3.295   8.601 -0.1246 -0.1147  0.0807
39907SOL    HW125813   5.408   3.317   8.518 -0.1698 -0.7007 -0.0993
39907SOL    HW225814   5.379   3.373   8.655  0.9279 -0.1558 -0.0765
39908SOL     OW25815   4.848   9.735   6.550  0.1840 -0.5002  0.8672
39908SOL    HW125816   4.915   9.736   6.482  0.0010 -0.7886  0.6803
39908SOL    HW225817   4.864   9.654   6.599 -0.3318 -0.8254  0.5102
39909SOL     OW25818  10.393   3.019   0.687  0.2920  0.5047  0.0508
39909SOL    HW125819  10.419   2.974   0.767  0.9203 -0.9266 -0.9190
39909SOL    HW225820  10.305   2.985   0.669 -0.4602  1.9136  0.8704
39910SOL     OW25821   0.875   7.234   8.083  0.6079  0.0864 -0.3172
39910SOL    HW125822   0.864   7.153   8.134 -0.9499  1.3731  1.5614
39910SOL    HW225823   0.968   7.256   8.093  0.5933 -0.3371  1.0249
39911SOL     OW25824   7.860   4.174   7.941 -0.6645  0.3236 -0.7745
39911SOL    HW125825   7.801   4.231   7.892 -1.6076  1.7350  1.8163
39911SOL    HW225826   7.809   4.096   7.960 -0.4654 -0.0058 -1.5561
39912SOL     OW25827   7.019   3.918   9.079 -0.2248 -0.2941 -0.6529
39912SOL    HW125828   6.942   3.861   9.071 -1.3471  0.6740  1.8313
39912SOL    HW225829   7.090   3.859   9.105 -0.9814 -0.8281  0.3122
39913SOL     OW25830   5.251   8.425   6.689 -0.0463 -0.4083  0.6288
39913SOL    HW125831   5.320   8.360   6.697  2.8435  2.5383  1.8578
39913SOL    HW225832   5.263   8.463   6.602 -0.7728 -0.4992  0.4760
39914SOL     OW25833   0.128   1.874   4.350 -0.0227 -0.4688 -0.5372
39914SOL    HW125834   0.191   1.802   4.349 -0.2978 -0.7185 -1.6233
39914SOL    HW225835   0.071   1.856   4.425 -0.1437 -1.4374 -0.8428
39915SOL     OW25836   9.602   7.540   3.898 -0.1205 -0.3823  0.1287
39915SOL    HW125837   9.614   7.446   3.884 -0.5283 -0.3668 -0.3768
39915SOL    HW225838   9.551   7.546   3.978 -0.3407 -0.6090  0.0082
39916SOL     OW25839   5.977   8.942  10.609 -0.0569 -0.3401  0.5297
39916SOL    HW125840   6.039   9.010  10.637  0.2544  0.1438 -1.1909
39916SOL    HW225841   6.028   8.888  10.548 -1.2566 -0.0006 -0.8332
39917SOL     OW25842   4.374  10.466   0.995  0.0164 -0.0229  0.2156
39917SOL    HW125843   4.445  10.433   1.050 -0.3778 -0.5973  0.3848
39917SOL    HW225844   4.402  10.555   0.972  0.0453  0.3450  1.5795
39918SOL     OW25845   9.523   6.269   0.602  0.1939  0.3986  0.0850
39918SOL    HW125846   9.584   6.236   0.667  0.2863 -0.7138 -0.5466
39918SOL    HW225847   9.505   6.194   0.545 -1.3432  0.8368 -0.0628
39919SOL     OW25848   7.545   8.061   7.469  0.5761 -0.6130 -0.4883
39919SOL    HW125849   7.550   8.076   7.374 -0.6248  0.4169 -0.4189
39919SOL    HW225850   7.451   8.061   7.488  0.8199  0.7760  0.9146
39920SOL     OW25851   2.733   7.757   3.956 -0.0479  0.1204  0.6237
39920SOL    HW125852   2.777   7.839   3.979  0.0026  0.4560 -0.5799
39920SOL    HW225853   2.652   7.758   4.006 -0.2481  1.1212  0.3048
39921SOL     OW25854   3.267   9.062  10.562  0.2668 -0.4479  0.0582
39921SOL    HW125855   3.292   9.066  10.470  0.0228 -1.1296 -0.0451
39921SOL    HW225856   3.301   9.143  10.600 -1.6103  0.9817 -1.1149
39922SOL     OW25857  10.820   6.535   5.915 -0.4413 -0.2145  0.4060
39922SOL    HW125858  10.807   6.628   5.900 -1.0439 -0.3272  0.2059
39922SOL    HW225859  10.853   6.529   6.005  1.0906  0.2981 -0.0912
39923SOL     OW25860   6.329   3.433   8.374 -0.0535 -0.3088  0.5945
39923SOL    HW125861   6.266   3.364   8.398 -0.0097 -0.8198 -0.7108
39923SOL    HW225862   6.275   3.505   8.342 -0.0122 -0.4869  0.1180
39924SOL     OW25863   7.851   5.491   7.577  0.0438 -0.1867  0.8654
39924SOL    HW125864   7.756   5.477   7.576 -0.2174  1.1854 -1.1346
39924SOL    HW225865   7.861   5.585   7.562  1.6796 -0.6728 -1.7476
39925SOL     OW25866   7.101  10.515   3.205  0.0400 -0.2674  0.4576
39925SOL    HW125867   7.119  10.607   3.224 -1.6554  0.8850 -2.8327
39925SOL    HW225868   7.169  10.490   3.143 -0.8680 -0.4564 -0.4856
39926SOL     OW25869   9.135   5.132   7.927  0.5038 -0.0010 -0.5515
39926SOL    HW125870   9.170   5.122   7.839 -0.0401  0.8263 -0.8763
39926SOL    HW225871   9.125   5.227   7.938 -0.4702 -0.1506 -0.0183
39927SOL     OW25872   6.126   0.537  10.040 -0.2521  0.1968 -0.0287
39927SOL    HW125873   6.147   0.560   9.950 -0.2676  1.1553  0.2032
39927SOL    HW225874   6.031   0.545  10.046 -0.1588  1.2164  0.3438
39928SOL     OW25875   5.265   1.068   3.204 -0.5662 -0.0524  0.4378
39928SOL    HW125876   5.328   0.995   3.204  0.5377  0.8657  1.3016
39928SOL    HW225877   5.181   1.027   3.224 -0.1049 -1.1887  0.1475
39929SOL     OW25878   3.060   1.949   7.428  0.6949 -0.3694 -0.2045
39929SOL    HW125879   3.026   2.039   7.421  3.2027  0.6297 -0.6645
39929SOL    HW225880   3.114   1.938   7.349  0.5410 -2.2544 -0.0775
39930SOL     OW25881   8.116   1.978   9.545 -0.1220  0.2482 -0.4372
39930SOL    HW125882   8.154   1.982   9.632 -2.0045  0.1561  0.4537
39930SOL    HW225883   8.021   1.976   9.561 -0.4882 -1.0118 -2.4250
39931SOL     OW25884   7.261   2.991  10.876  0.1992 -0.0452 -0.4361
39931SOL    HW125885   7.224   2.995  10.788  2.4542 -1.3098 -1.5297
39931SOL    HW225886   7.240   2.902  10.906 -0.2585  0.2638  0.1776
39932SOL     OW25887   6.907   6.934   5.656  0.0584 -0.5072 -0.2519
39932SOL    HW125888   6.813   6.947   5.639 -0.0396 -0.3584  0.3906
39932SOL    HW225889   6.920   6.839   5.645 -0.4545 -0.7404  1.0331
39933SOL     OW25890   6.432   4.766   5.716  0.2962  0.7698  0.5018
39933SOL    HW125891   6.430   4.829   5.644 -1.7048  0.5977  0.3739
39933SOL    HW225892   6.350   4.778   5.762 -0.7091 -2.4377 -0.1659
39934SOL     OW25893  10.713   6.589  10.794  0.4645 -0.1214  0.1628
39934SOL    HW125894  10.775   6.561  10.861  1.3076 -1.5433 -1.1368
39934SOL    HW225895  10.765   6.597  10.714 -0.4475  1.8544 -0.2948
39935SOL     OW25896   9.924   1.847  10.074 -0.9056 -0.3564 -0.0266
39935SOL    HW125897   9.982   1.882  10.142 -0.9208 -2.3760  1.0844
39935SOL    HW225898   9.841   1.892  10.088 -0.3359  0.7545 -0.0580
39936SOL     OW25899   7.311   8.760   8.052  0.0727  0.1274  0.4582
39936SOL    HW125900   7.340   8.834   8.105  1.1503  1.8926 -2.3400
39936SOL    HW225901   7.216   8.760   8.062  0.1463  1.1825  1.3933
39937SOL     OW25902   7.114   3.330  10.401 -0.1115 -0.6971 -0.4131
39937SOL    HW125903   7.079   3.382  10.473 -1.1893 -2.1738  0.1763
39937SOL    HW225904   7.209   3.331  10.413 -0.0767  1.2638 -0.5480
39938SOL     OW25905   1.053   2.068   3.141 -0.1457  0.3880  0.0687
39938SOL    HW125906   1.043   2.138   3.077 -1.8547  0.1366  0.0034
39938SOL    HW225907   1.141   2.034   3.126  0.3449  1.8426 -0.5738
39939SOL     OW25908   0.211   7.416   7.494  0.3674  0.0354 -0.4830
39939SOL    HW125909   0.254   7.333   7.474 -0.1268 -0.3077 -0.1345
39939SOL    HW225910   0.119   7.402   7.471  0.0952  0.1660  0.4934
39940SOL     OW25911  10.766   2.730   3.622 -0.2256 -0.2357  0.3833
39940SOL    HW125912  10.800   2.642   3.607  0.9521  0.3296 -0.4279
39940SOL    HW225913  10.795   2.780   3.545 -3.3043  0.1933 -0.6444
39941SOL     OW25914   1.006   7.042   4.616 -0.0719 -0.0435 -0.2866
39941SOL    HW125915   0.994   7.060   4.523  1.2453 -1.6635 -0.8207
39941SOL    HW225916   1.100   7.055   4.631 -0.6068  2.4623  1.3860
39942SOL     OW25917   0.954   6.374   9.187 -0.1961  0.1065  0.1909
39942SOL    HW125918   0.940   6.458   9.143  0.4837  0.1580  0.0501
39942SOL    HW225919   1.030   6.336   9.142 -0.1735 -0.3409  0.5979
39943SOL     OW25920   2.459   9.823   2.932  0.7066 -0.5363  0.5208
39943SOL    HW125921   2.447   9.900   2.876 -0.4742 -1.4851 -0.5884
39943SOL    HW225922   2.462   9.858   3.021  0.5142  0.8105  0.0126
39944SOL     OW25923   9.850   0.689   8.119  0.2411  0.3199 -0.2136
39944SOL    HW125924   9.817   0.715   8.205 -0.0670 -1.7574  0.3386
39944SOL    HW225925   9.932   0.738   8.110  0.8229 -0.1999  1.7399
39945SOL     OW25926   5.813   3.641  10.027 -0.4830  0.6670 -0.1024
39945SOL    HW125927   5.895   3.608  10.065 -0.0848  0.2113 -1.2870
39945SOL    HW225928   5.826   3.736  10.020  0.0104  0.5861 -0.3887
39946SOL     OW25929   6.871   8.513   5.914 -0.0086 -0.4128 -0.6285
39946SOL    HW125930   6.941   8.562   5.958 -0.4515 -0.3479  0.0264
39946SOL    HW225931   6.917   8.447   5.863  0.6382  0.9148 -1.8638
39947SOL     OW25932   2.284   2.886   1.606 -0.2961 -0.2129  0.4765
39947SOL    HW125933   2.348   2.853   1.543  1.8922 -0.2332  2.5857
39947SOL    HW225934   2.334   2.941   1.666 -2.5396  0.9619  1.4118
39948SOL     OW25935   7.187   4.016   5.862 -0.0669 -0.2405  0.0067
39948SOL    HW125936   7.154   4.103   5.884  1.4617  0.5994 -0.8405
39948SOL    HW225937   7.178   4.011   5.766  2.2569  0.0712 -0.2721
39949SOL     OW25938   2.139   7.029   6.964 -0.0324 -0.5218 -0.5504
39949SOL    HW125939   2.157   7.025   6.870  0.7730 -0.3292 -0.4116
39949SOL    HW225940   2.211   6.980   7.004  1.4993  2.0858  0.1624
39950SOL     OW25941  10.905   3.506   1.190  0.2774  0.0893 -0.1476
39950SOL    HW125942  10.997   3.525   1.169  0.3047  0.1776  0.0440
39950SOL    HW225943  10.866   3.479   1.107 -0.3614  3.2694 -0.9866
39951SOL     OW25944   7.186   1.352   8.092  0.0439 -0.5795  0.2798
39951SOL    HW125945   7.198   1.291   8.164  1.0121  0.4838  1.0537
39951SOL    HW225946   7.122   1.415   8.124 -1.3710 -1.4306 -0.7156
39952SOL     OW25947   7.827   9.857   5.569  0.0257  0.0368 -0.2932
39952SOL    HW125948   7.886   9.783   5.574 -0.4055 -0.2886  0.1076
39952SOL    HW225949   7.858   9.917   5.638  0.0729  0.0026 -0.2846
39953SOL     OW25950   7.916   2.426   6.655 -0.4781  1.2034 -0.2648
39953SOL    HW125951   7.904   2.477   6.735 -1.8425  1.4601 -0.6103
39953SOL    HW225952   7.874   2.342   6.673  0.3522  0.7751 -0.2693
39954SOL     OW25953   6.175   8.793   3.747 -0.2901 -0.4702  0.0046
39954SOL    HW125954   6.227   8.837   3.814  0.7716 -0.9758 -0.4736
39954SOL    HW225955   6.145   8.864   3.689  1.0770 -0.3075 -0.5342
39955SOL     OW25956   0.750   9.219   1.403 -0.2466 -0.2005  0.5968
39955SOL    HW125957   0.678   9.187   1.349  0.9255 -1.4821 -0.2816
39955SOL    HW225958   0.716   9.214   1.492 -1.9283  1.1718  0.0851
39956SOL     OW25959   2.842   3.365   5.274 -0.2548  0.0998  0.3904
39956SOL    HW125960   2.753   3.394   5.251 -0.1013  1.3106  1.2715
39956SOL    HW225961   2.835   3.335   5.364  0.3389  0.7206  0.6511
39957SOL     OW25962   5.818   8.347   6.513 -0.0421 -0.6074 -0.0102
39957SOL    HW125963   5.800   8.312   6.600 -2.7485  0.5361 -0.0274
39957SOL    HW225964   5.866   8.429   6.530 -0.7107 -0.3003  0.4133
39958SOL     OW25965   1.138  10.447   8.547 -0.6584  0.6416 -0.0702
39958SOL    HW125966   1.142  10.354   8.568 -0.0972  0.6037 -0.3164
39958SOL    HW225967   1.121  10.491   8.630 -2.9310  0.1979 -0.2267
39959SOL     OW25968   0.167   9.624   7.189  0.1721  0.2993 -0.3181
39959SOL    HW125969   0.144   9.551   7.131  2.0413  1.4548 -2.7274
39959SOL    HW225970   0.102   9.692   7.167 -1.6412 -0.5605  2.0053
39960SOL     OW25971   6.693   6.909   2.651  0.2828  0.1528 -0.0941
39960SOL    HW125972   6.624   6.950   2.703 -1.0097  0.1119 -1.6998
39960SOL    HW225973   6.739   6.852   2.712 -2.5469 -1.5865  0.5901
39961SOL     OW25974   0.629   6.243   1.265 -0.3923 -0.0347 -0.7731
39961SOL    HW125975   0.725   6.236   1.267 -0.0403  2.9610  2.0568
39961SOL    HW225976   0.611   6.309   1.199 -0.3989  0.1704 -0.5680
39962SOL     OW25977   0.145   8.417  10.237  0.1392  0.2736 -0.1079
39962SOL    HW125978   0.091   8.467  10.299 -0.1948 -0.9952  0.6477
39962SOL    HW225979   0.084   8.390  10.169 -0.4641 -1.9258  1.1978
39963SOL     OW25980   4.545  10.535   2.187 -0.5011 -0.5310 -0.2673
39963SOL    HW125981   4.578  10.456   2.145 -0.1166 -0.0051 -0.9761
39963SOL    HW225982   4.566  10.606   2.125 -0.5340  0.1690  0.5070
39964SOL     OW25983   6.706   8.072   6.450  0.0479  0.7664  0.1892
39964SOL    HW125984   6.663   8.036   6.372  2.4219  0.3890 -1.0372
39964SOL    HW225985   6.735   8.159   6.424  0.0515  1.0133  0.9843
39965SOL     OW25986   7.076   0.479   9.807  0.2173  0.0070  0.3020
39965SOL    HW125987   7.136   0.483   9.881  2.3334  3.0334 -1.3141
39965SOL    HW225988   7.023   0.558   9.814 -1.0952 -0.7943 -0.2451
39966SOL     OW25989   7.515   1.187   2.220 -0.0372  0.0416 -0.3016
39966SOL    HW125990   7.533   1.248   2.149  0.7127  0.0016 -0.1519
39966SOL    HW225991   7.592   1.130   2.223 -1.0495 -1.4085 -0.9508
39967SOL     OW25992   0.551   7.062   0.017 -0.2998 -0.0519 -0.0358
39967SOL    HW125993   0.474   7.012   0.045  0.5033 -1.6299 -0.4943
39967SOL    HW225994   0.615   7.050   0.087 -0.6349  1.7067  0.6018
39968SOL     OW25995   7.942   6.382  10.302  0.3092  0.4097  0.7217
39968SOL    HW125996   7.858   6.337  10.305 -0.3620  1.5582 -0.0198
39968SOL    HW225997   7.933   6.454  10.365  0.9682  0.1735  1.0977
39969SOL     OW25998  10.762   8.182   0.654 -0.6902  0.4722  0.6355
39969SOL    HW125999  10.716   8.111   0.610  0.7254  0.0150 -0.1849
39969SOL    HW226000  10.839   8.140   0.693  0.9917  1.7184 -1.1246
39970SOL     OW26001   5.476   1.917   0.206 -0.5549 -0.6306 -0.1152
39970SOL    HW126002   5.460   1.825   0.225  0.2519 -0.2346  3.0304
39970SOL    HW226003   5.571   1.925   0.203 -0.6243 -0.0109 -1.1886
39971SOL     OW26004   2.070   4.723   3.472 -0.4058 -0.1961  0.2875
39971SOL    HW126005   2.120   4.735   3.553 -0.2945  0.0966  0.1762
39971SOL    HW226006   2.014   4.801   3.466 -0.6873 -0.3953  0.2765
39972SOL     OW26007   4.619   2.954   5.941  0.2332 -0.0558  0.1622
39972SOL    HW126008   4.563   3.031   5.934  0.6822  0.2783  0.2014
39972SOL    HW226009   4.637   2.945   6.035  1.3563  0.6553  0.0341
39973SOL     OW26010   6.658   9.895   7.666  0.4765 -0.1714 -0.2574
39973SOL    HW126011   6.709   9.869   7.743  0.7816 -2.4577 -1.1662
39973SOL    HW226012   6.662   9.991   7.666  2.3414 -0.1908  1.3254
39974SOL     OW26013   2.690  10.296   4.446  0.2282 -0.1736  0.1541
39974SOL    HW126014   2.650  10.378   4.419 -0.2457 -0.1927  0.7825
39974SOL    HW226015   2.676  10.292   4.541  2.1802  0.0788  0.5156
39975SOL     OW26016   4.413   0.589   3.994 -0.1573  0.3707  0.3735
39975SOL    HW126017   4.465   0.537   3.932 -1.7420  0.4493 -1.0950
39975SOL    HW226018   4.456   0.575   4.078  2.0361  0.1723 -0.6893
39976SOL     OW26019   9.981   3.191  10.211  0.3438  0.2702  0.3585
39976SOL    HW126020   9.961   3.099  10.222  0.1559 -0.0193 -1.8388
39976SOL    HW226021  10.014   3.198  10.121 -2.0788  2.7015 -0.4789
39977SOL     OW26022   6.515   5.429   8.925 -0.1034 -0.5597 -0.3481
39977SOL    HW126023   6.502   5.354   8.866 -1.0848 -1.1697  0.6229
39977SOL    HW226024   6.454   5.495   8.893  0.8245 -0.1126 -1.2607
39978SOL     OW26025   6.928  10.389   4.922  0.0461 -0.2822 -0.8354
39978SOL    HW126026   7.014  10.372   4.959  0.1947 -0.4050 -1.2346
39978SOL    HW226027   6.884  10.444   4.987  0.1625 -0.8127 -0.3020
39979SOL     OW26028   2.300   7.445   6.253 -0.1097 -0.0403  0.4204
39979SOL    HW126029   2.315   7.522   6.199  2.2894 -0.3143  0.5961
39979SOL    HW226030   2.269   7.481   6.337  0.3195  0.6987  0.2731
39980SOL     OW26031   2.844   4.531   2.591  0.8420  0.1099 -0.3897
39980SOL    HW126032   2.888   4.606   2.549  1.9198  0.7177  1.6681
39980SOL    HW226033   2.900   4.456   2.569  0.5735  0.1536 -1.2473
39981SOL     OW26034   5.301   0.513   2.473 -0.3541  0.2998  0.6033
39981SOL    HW126035   5.269   0.578   2.536 -0.8847 -0.1390  0.7895
39981SOL    HW226036   5.293   0.556   2.388  1.9286  1.5483  0.9280
39982SOL     OW26037   2.552   1.939   0.656 -0.1219 -0.4508  0.2740
39982SOL    HW126038   2.616   1.872   0.635  0.3401 -0.6186  2.0263
39982SOL    HW226039   2.496   1.944   0.579 -0.6092 -3.3716  0.3142
39983SOL     OW26040   4.428   2.253   0.997 -0.6980  0.3093  0.3341
39983SOL    HW126041   4.430   2.331   0.942 -0.5783  1.2085  1.5638
39983SOL    HW226042   4.502   2.263   1.057 -0.7555 -0.6925  0.6016
39984SOL     OW26043   7.094   6.938  10.393 -0.1980 -0.1122 -0.3693
39984SOL    HW126044   7.087   7.028  10.427 -0.5737 -0.0078 -0.7122
39984SOL    HW226045   7.132   6.949  10.306  0.4693 -0.3540 -0.1148
39985SOL     OW26046   1.681   7.264   3.151  0.0061  0.3430 -0.0486
39985SOL    HW126047   1.643   7.307   3.228  1.8943  0.7896  0.6801
39985SOL    HW226048   1.672   7.328   3.081 -0.8952  0.2965  0.0149
39986SOL     OW26049  10.606   4.838   3.728  0.3408  0.3363 -0.6672
39986SOL    HW126050  10.545   4.867   3.796  1.1599 -0.7951  0.6082
39986SOL    HW226051  10.552   4.791   3.665 -0.1798 -0.2533  0.2072
39987SOL     OW26052   4.025   5.292   9.275  0.7013  0.3477 -0.1882
39987SOL    HW126053   4.003   5.379   9.308 -1.0692 -0.3812  0.6473
39987SOL    HW226054   4.082   5.255   9.343  1.5992  0.8900 -0.6265
39988SOL     OW26055   6.153   5.234   2.679  0.0950  0.1563  0.4364
39988SOL    HW126056   6.212   5.210   2.606 -0.6425  0.8136 -0.3895
39988SOL    HW226057   6.167   5.164   2.743  0.8691 -0.3690 -0.2670
39989SOL     OW26058   2.770   1.813   1.890 -0.4239 -0.0451  0.7121
39989SOL    HW126059   2.818   1.878   1.942 -0.7784  0.3557  0.5530
39989SOL    HW226060   2.697   1.787   1.946 -0.2622 -0.3320  0.7881
39990SOL     OW26061   1.150   8.912   3.396 -0.4176  0.4630  0.1807
39990SOL    HW126062   1.131   8.982   3.334  1.8933  2.9846  2.0898
39990SOL    HW226063   1.074   8.909   3.453 -0.7942  1.0160 -0.2817
39991SOL     OW26064   3.539   1.614   5.739 -0.2058 -0.0203  0.3140
39991SOL    HW126065   3.494   1.694   5.712 -2.9257 -0.9640  1.6972
39991SOL    HW226066   3.569   1.633   5.828  0.4503 -0.0882  0.1160
39992SOL     OW26067   5.983   3.971   5.127 -0.2820  0.2034  0.0179
39992SOL    HW126068   5.943   4.019   5.200 -2.3957 -0.9780 -0.3044
39992SOL    HW226069   5.982   3.880   5.155  1.5897  0.0348 -0.3335
39993SOL     OW26070   1.510   9.806   6.858 -0.2350 -0.5242  0.1206
39993SOL    HW126071   1.573   9.786   6.789 -1.4081  1.1323 -1.5138
39993SOL    HW226072   1.563   9.845   6.928  0.6545  0.2297 -0.9493
39994SOL     OW26073   9.141   3.983   0.326 -0.3738  0.1720  0.0166
39994SOL    HW126074   9.077   3.912   0.325  0.0081 -0.2045 -1.5093
39994SOL    HW226075   9.225   3.939   0.340 -0.1241  0.2683 -1.0461
39995SOL     OW26076   9.539   0.805   1.238 -0.5767 -0.6741 -0.0902
39995SOL    HW126077   9.550   0.728   1.295 -0.7590 -0.4835  0.2062
39995SOL    HW226078   9.485   0.865   1.290  0.2991  0.0190  0.0323
39996SOL     OW26079   2.988   1.354   3.961 -0.1999  0.0663  0.2469
39996SOL    HW126080   2.952   1.319   4.043 -2.6253  1.5496 -0.0588
39996SOL    HW226081   2.981   1.449   3.972  1.8068  0.3641 -0.7303
39997SOL     OW26082   9.934  10.901   4.740  0.3311 -0.1253  0.5665
39997SOL    HW126083   9.886  10.969   4.787 -0.1970  0.5282 -0.8864
39997SOL    HW226084   9.910  10.820   4.786 -0.7778  0.3949  0.9455
39998SOL     OW26085   4.808   6.503   9.162  0.5259  0.1509 -0.0548
39998SOL    HW126086   4.742   6.571   9.146 -1.1475 -1.4324 -0.1191
39998SOL    HW226087   4.778   6.459   9.242  0.4198 -1.8305 -1.1302
39999SOL     OW26088   3.006   0.708   9.484  0.0948  0.2658 -0.1419
39999SOL    HW126089   2.955   0.664   9.552  1.6048  0.9763  1.5371
39999SOL    HW226090   3.041   0.637   9.430 -1.6639 -0.2766 -0.6040
40000SOL     OW26091   9.402   8.384   1.438  0.1208  0.1925 -0.2530
40000SOL    HW126092   9.336   8.385   1.369  0.7414 -1.6903 -0.9484
40000SOL    HW226093   9.471   8.442   1.406  0.0215 -0.0034 -0.8473
40001SOL     OW26094   3.007   5.454   8.523  0.3695 -0.2967 -0.1461
40001SOL    HW126095   2.968   5.402   8.453 -0.0057 -1.2570  0.7475
40001SOL    HW226096   3.035   5.389   8.588  1.5815  0.5111  0.1598
40002SOL     OW26097   5.763   9.199   3.843  0.1793 -0.2919  0.0358
40002SOL    HW126098   5.854   9.171   3.853  0.4191  0.7393  0.9419
40002SOL    HW226099   5.738   9.232   3.930 -1.4933 -1.7496  0.1778
40003SOL     OW26100   1.889   0.570   3.197 -0.6273 -0.1430 -0.2712
40003SOL    HW126101   1.814   0.620   3.167  1.0343  3.2870  0.8374
40003SOL    HW226102   1.961   0.597   3.140  0.7296  0.1747  1.4870
40004SOL     OW26103   0.620   6.711   7.042 -0.2975 -0.1770 -0.1787
40004SOL    HW126104   0.704   6.674   7.013 -0.5494  0.4002 -1.7297
40004SOL    HW226105   0.593   6.654   7.114  0.7875 -1.1625 -0.5134
40005SOL     OW26106   5.843   5.134   0.301  0.6739  0.4960  0.5897
40005SOL    HW126107   5.888   5.102   0.223 -2.1668 -0.6923 -0.6957
40005SOL    HW226108   5.809   5.220   0.275 -0.6390 -0.0854  0.3259
40006SOL     OW26109   4.439   6.570   2.665 -0.0008 -0.7180  0.7531
40006SOL    HW126110   4.399   6.631   2.728 -0.1415 -0.0202 -0.0019
40006SOL    HW226111   4.389   6.582   2.585  0.0202 -1.7841  0.5612
40007SOL     OW26112   1.277   2.207   2.221 -0.2719  0.2485 -0.0803
40007SOL    HW126113   1.194   2.218   2.269  0.0242  2.9170 -0.0715
40007SOL    HW226114   1.252   2.208   2.129 -0.4265 -1.0203 -0.0720
40008SOL     OW26115   5.384   1.304   0.640  0.4396 -0.0115 -0.2532
40008SOL    HW126116   5.427   1.299   0.726 -0.0791  0.2097  0.0260
40008SOL    HW226117   5.363   1.397   0.629 -0.7755 -0.2315  0.0347
40009SOL     OW26118   7.357  10.524   2.712 -0.8426  0.0109  0.9609
40009SOL    HW126119   7.270  10.563   2.725 -0.7002  0.4321  0.6737
40009SOL    HW226120   7.358  10.500   2.620 -0.0581  1.5160  0.5482
40010SOL     OW26121  10.029  10.396   9.389  0.1752 -0.6668  0.0846
40010SOL    HW126122   9.942  10.433   9.373  0.2323 -0.0120  1.1471
40010SOL    HW226123  10.019  10.303   9.369 -0.3413 -0.3303 -1.3151
40011SOL     OW26124   5.057   6.770   2.007  0.4151  0.1024  0.0843
40011SOL    HW126125   5.144   6.731   2.000  0.8707  0.8640  1.1749
40011SOL    HW226126   5.008   6.707   2.060  0.7610  0.3684  0.7355
40012SOL     OW26127   3.003   9.143   8.650  0.4217 -0.3785 -0.1013
40012SOL    HW126128   2.961   9.057   8.655 -0.8709  0.2504  0.4091
40012SOL    HW226129   2.983   9.184   8.734  2.4991 -0.2066  0.3729
40013SOL     OW26130   8.414   3.265   6.964 -0.1662 -0.1940  0.1290
40013SOL    HW126131   8.426   3.338   7.024 -0.7701  0.0493 -0.0421
40013SOL    HW226132   8.420   3.304   6.877 -1.6233 -0.1398  0.0280
40014SOL     OW26133  10.098   5.854  10.418  0.1062  0.0776  0.2695
40014SOL    HW126134  10.074   5.939  10.456 -0.6343  0.1026 -0.2415
40014SOL    HW226135  10.029   5.835  10.355  0.2496 -0.9201  0.3871
40015SOL     OW26136   4.399   6.223   6.428  0.6694  0.1155 -0.0337
40015SOL    HW126137   4.357   6.194   6.509  0.9303  1.9395  0.7947
40015SOL    HW226138   4.486   6.251   6.455  1.4296 -0.9398 -1.2708
40016SOL     OW26139  10.869   4.097   0.103  0.2609  0.1302 -0.7278
40016SOL    HW126140  10.855   4.106   0.198 -0.9184 -1.6004 -0.6765
40016SOL    HW226141  10.942   4.036   0.096 -0.1800 -0.3919 -0.8978
40017SOL     OW26142   8.256   0.849  10.255 -0.5643 -0.3084 -0.2736
40017SOL    HW126143   8.236   0.761  10.223  0.5500 -0.0221 -1.8829
40017SOL    HW226144   8.281   0.898  10.176  1.4515  0.6928  0.9203
40018SOL     OW26145   8.436   7.800   0.519 -0.1828 -0.2762 -0.0669
40018SOL    HW126146   8.452   7.835   0.607  0.5620 -0.0248 -0.2975
40018SOL    HW226147   8.495   7.726   0.511  1.6172  1.1847 -1.2376
40019SOL     OW26148   5.754  10.476   6.897  0.5835 -0.6023  0.1433
40019SOL    HW126149   5.826  10.488   6.835 -1.2650 -0.8889 -2.2244
40019SOL    HW226150   5.700  10.554   6.885 -0.6251 -1.4026  0.2179
40020SOL     OW26151  10.497   3.103   7.902 -0.2736  0.0543  0.2150
40020SOL    HW126152  10.446   3.095   7.821  0.4560 -0.3375 -0.2237
40020SOL    HW226153  10.587   3.115   7.872 -0.2873  2.4933  0.9511
40021SOL     OW26154   9.596   8.967   6.431  0.5442  0.6955 -0.1834
40021SOL    HW126155   9.625   9.058   6.425  1.7675  0.3731  0.4403
40021SOL    HW226156   9.665   8.917   6.387 -0.1284  0.0710 -0.5428
40022SOL     OW26157  10.506   5.747  10.267 -0.1263  0.4130  0.5968
40022SOL    HW126158  10.429   5.749  10.323 -0.2822 -0.3038  0.4053
40022SOL    HW226159  10.569   5.693  10.315 -0.4935 -0.7616 -0.2051
40023SOL     OW26160   9.526   4.648  10.690  0.4726 -0.0649  0.3306
40023SOL    HW126161   9.493   4.737  10.676  0.3181 -0.1756 -0.0175
40023SOL    HW226162   9.464   4.609  10.752  0.6905  0.1529  0.6899
40024SOL     OW26163   3.644   8.757   0.204  0.2729 -0.0017 -0.1908
40024SOL    HW126164   3.634   8.670   0.243 -1.1974  0.7863  1.3591
40024SOL    HW226165   3.737   8.777   0.213  0.0204  0.2600  3.4173
40025SOL     OW26166   3.825   1.498   4.348  0.0829  0.4991 -0.4285
40025SOL    HW126167   3.871   1.415   4.351  1.4233  1.1959 -0.9358
40025SOL    HW226168   3.807   1.519   4.440 -0.2769 -0.3410 -0.2993
40026SOL     OW26169   3.700   7.173   4.267 -0.2269  0.0536 -0.1958
40026SOL    HW126170   3.653   7.255   4.275  0.5022  0.5493 -0.7681
40026SOL    HW226171   3.656   7.127   4.195 -1.0833 -0.3919  0.5897
40027SOL     OW26172   9.917   5.653  10.582 -0.5115  0.2939 -0.3135
40027SOL    HW126173   9.993   5.643  10.524 -2.1607  0.3113 -2.6295
40027SOL    HW226174   9.943   5.720  10.645  1.0644  0.9779 -1.6227
40028SOL     OW26175   6.409   5.808   8.068 -0.4413  0.3068  0.5136
40028SOL    HW126176   6.332   5.752   8.071  0.6614 -1.3665 -0.3793
40028SOL    HW226177   6.455   5.792   8.150  0.0009 -0.3187  0.1527
40029SOL     OW26178   3.647   1.616   2.140  0.0770 -0.6138 -0.2031
40029SOL    HW126179   3.660   1.589   2.231 -1.3694  0.5217  0.3739
40029SOL    HW226180   3.702   1.694   2.131  0.8597 -1.1926 -0.5716
40030SOL     OW26181   1.474   8.806  10.614  0.1705 -0.3861  0.2045
40030SOL    HW126182   1.538   8.735  10.626 -0.5659 -0.9811  0.6776
40030SOL    HW226183   1.466   8.846  10.700 -0.7584 -0.8948  0.3620
40031SOL     OW26184   5.392   8.772   2.600  0.5224 -0.0976  0.1582
40031SOL    HW126185   5.373   8.865   2.594 -0.2745 -0.1925  1.0183
40031SOL    HW226186   5.486   8.768   2.620  0.2472  0.5836  1.7011
40032SOL     OW26187   8.142   7.308   4.107  0.5802 -0.2637  0.3550
40032SOL    HW126188   8.097   7.227   4.083 -4.1573  1.9120  0.7307
40032SOL    HW226189   8.132   7.364   4.030  0.3816  1.1422  1.3569
40033SOL     OW26190   2.513   7.992   7.542  0.7979  0.6784  0.8585
40033SOL    HW126191   2.442   7.992   7.478  1.7201 -1.4139 -0.2681
40033SOL    HW226192   2.484   7.931   7.610  2.0405 -1.4564 -0.3883
40034SOL     OW26193   1.042   0.953   8.170 -0.7451 -0.1589  0.0394
40034SOL    HW126194   0.947   0.965   8.170 -0.5875  1.5458  1.3361
40034SOL    HW226195   1.076   1.031   8.128  0.1283  0.1770  1.3247
40035SOL     OW26196   4.335   5.675   7.306  0.3405  0.0977  0.1165
40035SOL    HW126197   4.295   5.648   7.389 -1.6713  1.3236 -0.4015
40035SOL    HW226198   4.264   5.714   7.256  2.1121  2.0925 -1.0124
40036SOL     OW26199   9.850   3.074   1.464 -0.1237 -0.2115  0.4850
40036SOL    HW126200   9.844   3.166   1.492 -0.3675 -0.3018  0.7355
40036SOL    HW226201   9.762   3.039   1.479 -0.2503 -0.2704 -0.3730
40037SOL     OW26202   5.627   2.736   2.302  0.0520 -0.3960  0.1179
40037SOL    HW126203   5.682   2.812   2.322 -1.6114  1.1189 -0.8717
40037SOL    HW226204   5.671   2.693   2.229  0.2750  0.4147 -0.2288
40038SOL     OW26205   0.626   1.626   4.642  0.1481 -0.6103 -1.0397
40038SOL    HW126206   0.598   1.578   4.564  0.5915  0.0453 -1.6066
40038SOL    HW226207   0.663   1.558   4.699  1.2611 -0.8892 -2.0592
40039SOL     OW26208   5.831   7.875   0.177  0.6777 -0.2398  0.1722
40039SOL    HW126209   5.784   7.812   0.232  0.8095 -1.5255 -1.1238
40039SOL    HW226210   5.923   7.850   0.186  0.7537 -0.0698 -0.1447
40040SOL     OW26211   3.634   3.090   3.922 -0.1111  0.1551  0.2073
40040SOL    HW126212   3.638   3.181   3.952 -0.2388 -0.6132  2.8215
40040SOL    HW226213   3.562   3.089   3.859  0.2409  1.9575 -0.2805
40041SOL     OW26214   6.171   1.537   1.508 -0.0667 -0.8179  0.1004
40041SOL    HW126215   6.145   1.546   1.599  0.4999  0.2610  0.1735
40041SOL    HW226216   6.251   1.589   1.500 -0.2083 -0.7429 -1.0454
40042SOL     OW26217   9.600   7.166   1.120  0.1195 -0.0281 -0.1566
40042SOL    HW126218   9.670   7.142   1.180  0.5000  0.4958 -0.3892
40042SOL    HW226219   9.566   7.082   1.088 -0.9822 -0.3961  1.7887
40043SOL     OW26220   8.970   0.782   9.036  0.5070 -0.2854  0.4300
40043SOL    HW126221   8.954   0.790   9.130  1.2869 -1.0107  0.6336
40043SOL    HW226222   9.051   0.731   9.030  0.4359 -0.2837 -0.6379
40044SOL     OW26223   8.865   9.611   2.980 -0.1135 -0.4699  0.1469
40044SOL    HW126224   8.865   9.695   3.027 -1.8361 -0.2210 -0.2011
40044SOL    HW226225   8.941   9.615   2.923  1.6073 -0.4520  2.2808
40045SOL     OW26226   3.336   6.720  10.176 -0.2506 -0.7340 -0.0732
40045SOL    HW126227   3.412   6.706  10.233  0.6238 -0.0167 -1.0390
40045SOL    HW226228   3.366   6.695  10.089 -0.8716  0.2983 -0.5974
40046SOL     OW26229  10.441   9.575  10.767 -0.1031 -0.6787  0.4248
40046SOL    HW126230  10.501   9.507  10.797 -1.7013 -1.8206  1.2063
40046SOL    HW226231  10.497   9.651  10.752  1.7730 -2.1741 -0.6321
40047SOL     OW26232   2.446   6.274   8.197  0.1663  0.2572 -0.7888
40047SOL    HW126233   2.457   6.209   8.127  1.2368  0.9718 -1.3160
40047SOL    HW226234   2.480   6.355   8.160 -0.8548  1.0586 -0.0229
40048SOL     OW26235   5.444   0.748   9.624  0.3982  0.6584  0.3056
40048SOL    HW126236   5.436   0.778   9.533  1.3967 -1.5274 -0.5861
40048SOL    HW226237   5.354   0.752   9.658 -0.1456  0.6901 -1.0591
40049SOL     OW26238   0.604   2.847   0.509 -0.0975 -0.1401 -0.1835
40049SOL    HW126239   0.582   2.795   0.432  0.7563  0.1575 -0.6484
40049SOL    HW226240   0.649   2.924   0.473  0.7183 -0.2206  0.6308
40050SOL     OW26241   6.520   2.641   1.384  0.0569  0.4209 -0.4421
40050SOL    HW126242   6.595   2.671   1.333  0.9624 -0.4026  0.3707
40050SOL    HW226243   6.476   2.577   1.328  0.9363 -0.3410 -0.2778
40051SOL     OW26244   0.134   1.096   8.457 -0.2480  0.4380 -0.6520
40051SOL    HW126245   0.054   1.116   8.506  0.1202  2.4822 -0.8039
40051SOL    HW226246   0.199   1.155   8.492  0.5998  0.4252 -2.1255
40052SOL     OW26247   0.241   4.297   9.554  0.5458 -0.2273 -0.4962
40052SOL    HW126248   0.205   4.235   9.617  1.2145 -0.4598 -0.3330
40052SOL    HW226249   0.254   4.377   9.605 -1.9125  0.6452 -1.0865
40053SOL     OW26250   0.796   0.998   5.351 -0.5085  0.1451  0.4731
40053SOL    HW126251   0.856   0.927   5.374 -1.4654 -1.1843 -0.9218
40053SOL    HW226252   0.848   1.055   5.293 -0.1080 -0.1007  0.5857
40054SOL     OW26253   7.839   1.128   0.289 -0.3342 -0.0544 -0.4313
40054SOL    HW126254   7.872   1.209   0.248  0.0678 -0.2811 -0.5630
40054SOL    HW226255   7.845   1.063   0.219 -0.3809 -0.2638 -0.2388
40055SOL     OW26256  10.460   7.670   1.786 -0.2453  0.2747 -0.1546
40055SOL    HW126257  10.455   7.609   1.859 -1.1011 -1.6568 -1.7322
40055SOL    HW226258  10.408   7.746   1.814 -0.6608 -0.4759  1.1799
40056SOL     OW26259   7.507   3.838   0.013 -0.5788 -0.0664  0.0773
40056SOL    HW126260   7.426   3.881  -0.011  0.8964  1.8961 -1.7600
40056SOL    HW226261   7.575   3.903  -0.005  1.3219 -1.0652  2.9744
40057SOL     OW26262   3.305   6.617   8.392  0.1884 -0.2047  0.2351
40057SOL    HW126263   3.270   6.627   8.304  1.5309 -0.0512 -0.3111
40057SOL    HW226264   3.274   6.694   8.440 -0.1634 -0.0528 -0.2390
40058SOL     OW26265   4.388   3.363   4.288 -0.3671 -0.0719 -0.0374
40058SOL    HW126266   4.327   3.315   4.234  0.1579 -0.2223 -0.5023
40058SOL    HW226267   4.394   3.449   4.247  1.5904 -0.8234 -1.4554
40059SOL     OW26268   8.345   7.274   8.102 -0.2623  0.0896  0.2607
40059SOL    HW126269   8.397   7.339   8.053  1.0977 -0.7969  0.4783
40059SOL    HW226270   8.292   7.326   8.162 -0.3134  1.0756 -0.6040
40060SOL     OW26271   0.475   8.150  10.655  0.0977 -0.1050 -0.5729
40060SOL    HW126272   0.437   8.181  10.737  1.1744 -0.1882 -0.0287
40060SOL    HW226273   0.419   8.077  10.629  0.2063 -0.5856  0.4968
40061SOL     OW26274   0.792   7.846  10.797 -0.8226  0.5402 -0.8152
40061SOL    HW126275   0.724   7.875  10.737 -1.3540  2.1635  0.5099
40061SOL    HW226276   0.753   7.773  10.845 -1.6513  1.4838 -0.0374
40062SOL     OW26277   0.905   2.796   3.164 -0.2013  0.3442  0.3025
40062SOL    HW126278   0.852   2.841   3.230  1.1396  0.6554  1.1913
40062SOL    HW226279   0.875   2.705   3.168  0.3386  0.2142  1.8390
40063SOL     OW26280   2.600   6.466   0.806  0.7454  0.1726 -0.0408
40063SOL    HW126281   2.582   6.373   0.798  0.1988  0.2854 -0.1255
40063SOL    HW226282   2.519   6.504   0.840  0.5495  0.7848 -1.1439
40064SOL     OW26283   8.643   4.045   7.731 -0.4875 -0.2115  0.4917
40064SOL    HW126284   8.555   4.066   7.763 -0.2295  1.6266  0.1190
40064SOL    HW226285   8.642   4.074   7.640 -0.3922 -2.9590 -0.5010
40065SOL     OW26286   6.423   3.359   7.680  0.0172  0.1145  0.2213
40065SOL    HW126287   6.405   3.406   7.761 -0.9457 -0.4190  0.3366
40065SOL    HW226288   6.424   3.428   7.613  2.7692  0.8401  0.8789
40066SOL     OW26289   3.428   1.459   4.731  0.5791  0.4136  0.2185
40066SOL    HW126290   3.501   1.434   4.788  0.4171  0.6673  0.5399
40066SOL    HW226291   3.458   1.538   4.687  0.5752  0.4031  0.1967
40067SOL     OW26292   5.498   8.121   8.857  0.3302  0.3362 -0.3157
40067SOL    HW126293   5.547   8.200   8.878  1.4261 -0.0635 -1.2549
40067SOL    HW226294   5.507   8.112   8.762  1.3079 -1.5963 -0.0860
40068SOL     OW26295   0.289   3.172   7.279 -0.1207 -0.4504  0.3250
40068SOL    HW126296   0.240   3.245   7.241 -0.0306 -0.9178 -0.7023
40068SOL    HW226297   0.316   3.119   7.204  0.1229 -1.3508  1.0385
40069SOL     OW26298   2.790   7.018   3.034  0.4095 -0.7184  0.4676
40069SOL    HW126299   2.862   7.041   3.093  0.8728  0.6536 -0.5729
40069SOL    HW226300   2.776   6.924   3.049  0.4916 -0.4164  2.7207
40070SOL     OW26301   6.733   0.722   4.111 -0.2618  0.2428  0.0570
40070SOL    HW126302   6.671   0.727   4.038 -1.9041 -2.9787  1.0686
40070SOL    HW226303   6.681   0.742   4.189  0.0710 -1.8460  0.8687
40071SOL     OW26304   1.401   5.281   4.585  0.0755 -0.1816  0.8605
40071SOL    HW126305   1.444   5.351   4.634 -0.4128 -0.4274  1.6560
40071SOL    HW226306   1.471   5.218   4.567  0.3228  0.0656  0.9433
40072SOL     OW26307   2.273   9.362   3.168 -0.1550 -0.2517  0.8328
40072SOL    HW126308   2.351   9.418   3.159  0.3758 -1.3583 -2.9348
40072SOL    HW226309   2.307   9.280   3.205  0.6378 -0.8303 -1.0409
40073SOL     OW26310   9.993   3.545   4.498  0.0995 -0.0145 -0.1682
40073SOL    HW126311   9.999   3.635   4.530 -0.1447 -0.8805  2.5604
40073SOL    HW226312  10.005   3.553   4.403  1.0174  2.7716  0.0733
40074SOL     OW26313   4.281   2.791   8.279 -0.0785  0.4866 -0.1618
40074SOL    HW126314   4.357   2.829   8.233  0.3005  0.6044  0.5480
40074SOL    HW226315   4.250   2.861   8.335 -1.7141  0.9692 -1.5897
40075SOL     OW26316   7.151   9.796   6.773  0.1900 -0.1573 -0.3426
40075SOL    HW126317   7.182   9.759   6.856 -0.3046  0.8755  0.3228
40075SOL    HW226318   7.200   9.878   6.764  1.6276 -1.1263 -2.0336
40076SOL     OW26319   6.901   6.231   2.371  0.2975  0.8040 -0.4052
40076SOL    HW126320   6.890   6.272   2.285 -0.5353  1.1835 -0.1334
40076SOL    HW226321   6.818   6.248   2.416  1.2568  1.9541  1.0485
40077SOL     OW26322   9.252   4.464   2.764 -0.0733  0.7007 -0.3868
40077SOL    HW126323   9.197   4.533   2.802 -0.0422  0.5803 -0.1187
40077SOL    HW226324   9.198   4.385   2.769  0.5810  0.3194  1.0337
40078SOL     OW26325   8.221   5.728   7.734  0.1912  0.0146 -0.1700
40078SOL    HW126326   8.211   5.764   7.646 -1.7755 -2.3708 -1.0662
40078SOL    HW226327   8.235   5.634   7.720 -1.7998 -0.7111  2.0459
40079SOL     OW26328   4.830   6.921   3.062 -0.6512  0.0293  0.1924
40079SOL    HW126329   4.751   6.915   3.115  0.2222  1.0279  1.7057
40079SOL    HW226330   4.896   6.955   3.122  0.9607 -0.8391 -0.9958
40080SOL     OW26331   7.096   7.838   9.039 -0.2483 -0.4006 -0.2713
40080SOL    HW126332   7.052   7.780   9.102  0.8277  0.9163  1.8407
40080SOL    HW226333   7.026   7.895   9.006 -0.4496  0.8524  2.0872
40081SOL     OW26334   5.175   5.358   8.634 -0.1931  0.1306 -0.0721
40081SOL    HW126335   5.143   5.448   8.632  1.7409  0.8668 -0.2384
40081SOL    HW226336   5.226   5.349   8.554  2.0507 -0.1320  1.3068
40082SOL     OW26337   1.942   0.464   4.892 -0.3982 -0.3687 -0.3947
40082SOL    HW126338   1.996   0.385   4.884  0.0223  0.0522 -2.2070
40082SOL    HW226339   2.004   0.532   4.920  0.0701  0.0946 -2.3897
40083SOL     OW26340   0.619   0.836   0.272 -0.1021 -0.1788 -0.5542
40083SOL    HW126341   0.542   0.846   0.328  0.8572 -1.6242  1.1564
40083SOL    HW226342   0.597   0.883   0.192 -2.6685 -0.3901 -0.0613
40084SOL     OW26343   1.911   3.375   8.490 -0.3160  0.2840  0.2080
40084SOL    HW126344   1.824   3.413   8.502  0.5158  1.8657  1.6606
40084SOL    HW226345   1.965   3.417   8.557  1.8812  0.3398 -1.4850
40085SOL     OW26346   8.394   2.062   9.499  0.2216  0.4039 -0.1487
40085SOL    HW126347   8.471   2.005   9.493  0.0617  0.0693  0.8139
40085SOL    HW226348   8.322   2.002   9.521  0.0626  0.9763  0.9502
40086SOL     OW26349   1.626   1.481   2.383  0.4353  0.5178 -0.0278
40086SOL    HW126350   1.706   1.469   2.332  0.1194 -1.9229 -0.0852
40086SOL    HW226351   1.628   1.572   2.410  2.6692  0.8108 -0.9549
40087SOL     OW26352   8.379   1.188   9.625  0.0297 -0.1722  0.1599
40087SOL    HW126353   8.345   1.257   9.567  1.8573 -1.1878 -2.3259
40087SOL    HW226354   8.317   1.116   9.616  0.6415 -0.5687 -1.1687
40088SOL     OW26355   8.256   7.122   8.394  0.1599  0.3784  0.6353
40088SOL    HW126356   8.189   7.186   8.371  0.3945  0.4352  0.1032
40088SOL    HW226357   8.258   7.124   8.490 -0.9051  0.0474  0.6757
40089SOL     OW26358   5.648  10.264   5.937 -0.0343  0.0700 -0.3708
40089SOL    HW126359   5.712  10.333   5.951  0.1522 -0.4752  1.7803
40089SOL    HW226360   5.681  10.190   5.989 -0.9463 -1.1953 -1.4998
40090SOL     OW26361   4.947   3.543   6.811  0.5379 -0.2138  0.3704
40090SOL    HW126362   4.985   3.457   6.829  0.7325 -0.1168  0.4208
40090SOL    HW226363   4.873   3.525   6.752  0.4987 -0.4284  0.4855
40091SOL     OW26364   0.628   8.397   6.225  0.0052 -0.0882  0.0394
40091SOL    HW126365   0.638   8.479   6.176 -1.1258  0.6439  1.0017
40091SOL    HW226366   0.663   8.417   6.312 -0.6219 -0.5113  0.3897
40092SOL     OW26367   5.215   2.784   1.305 -0.5217 -0.4140  0.2894
40092SOL    HW126368   5.218   2.877   1.325  0.0276 -0.5436  0.8395
40092SOL    HW226369   5.129   2.771   1.264  0.4142  0.8214 -2.2861
40093SOL     OW26370   3.955   9.227   1.905  0.2599  0.3956  0.6102
40093SOL    HW126371   3.892   9.228   1.977 -1.6646 -1.1084 -0.9618
40093SOL    HW226372   3.960   9.319   1.876 -0.2182  0.7314  1.5605
40094SOL     OW26373   5.692   3.464   7.548 -0.3110 -0.5327  0.1704
40094SOL    HW126374   5.662   3.547   7.585  0.5720 -1.0333  2.1571
40094SOL    HW226375   5.692   3.403   7.622  2.1492 -1.4479 -0.4666
40095SOL     OW26376   3.733   1.618   6.476  0.3092  0.4855  0.0118
40095SOL    HW126377   3.774   1.595   6.393  1.3150 -0.4218  0.7343
40095SOL    HW226378   3.766   1.706   6.495 -0.2137  0.8522 -0.7075
40096SOL     OW26379   3.483   6.696   7.137 -0.0529 -0.2286  0.0382
40096SOL    HW126380   3.430   6.669   7.062  0.2646  0.7358 -0.5500
40096SOL    HW226381   3.437   6.660   7.213 -1.5387  0.5300 -0.4524
40097SOL     OW26382   7.582   9.380   0.286 -0.6705  0.2529 -0.7878
40097SOL    HW126383   7.548   9.446   0.347  0.6890  0.7436 -0.5235
40097SOL    HW226384   7.643   9.328   0.339  1.3778  1.3702 -1.9322
40098SOL     OW26385   1.512   0.809   9.338  0.1545 -0.4058 -0.4341
40098SOL    HW126386   1.511   0.715   9.357  0.1682 -0.5690 -1.1951
40098SOL    HW226387   1.507   0.814   9.243  0.1409  0.3701 -0.3999
40099SOL     OW26388  10.136   3.284   8.407 -0.0445  0.4490  0.5053
40099SOL    HW126389  10.223   3.268   8.370  0.4482  1.3348  1.2317
40099SOL    HW226390  10.106   3.364   8.364 -0.4564  0.2097  0.3436
40100SOL     OW26391   7.230   9.796   6.123  0.6412  0.2430 -0.3789
40100SOL    HW126392   7.294   9.773   6.056  1.3343  1.1316 -0.0508
40100SOL    HW226393   7.145   9.780   6.083  1.0019  2.0967 -1.9950
40101SOL     OW26394   8.030  10.495   6.650  0.1737  0.0228 -0.3300
40101SOL    HW126395   8.081  10.415   6.660  0.7614  0.5797  1.6975
40101SOL    HW226396   7.981  10.503   6.733  1.7706  2.8100  0.4874
40102SOL     OW26397   0.302   3.109   0.289 -0.2706  0.4256  0.5742
40102SOL    HW126398   0.313   3.204   0.286 -2.7456  0.7601  0.0345
40102SOL    HW226399   0.236   3.094   0.356 -2.0442 -0.6273 -1.2980
40103SOL     OW26400   5.583   5.105   6.760  0.6078 -0.1331 -0.5360
40103SOL    HW126401   5.511   5.116   6.822  1.0626  0.3302 -0.0774
40103SOL    HW226402   5.631   5.188   6.765  0.7615 -0.1636 -1.3709
40104SOL     OW26403   8.539   8.754   4.805 -0.7271 -0.3017  0.0144
40104SOL    HW126404   8.485   8.692   4.855 -1.9414  0.7401  0.0401
40104SOL    HW226405   8.519   8.736   4.714 -1.3084  0.2357  0.0306
40105SOL     OW26406   9.717   2.829   6.217 -0.5227 -0.3538 -0.2201
40105SOL    HW126407   9.662   2.858   6.145 -0.5221  0.7895  0.2140
40105SOL    HW226408   9.807   2.833   6.182 -0.2775  2.5589  0.5116
40106SOL     OW26409   8.819   3.847   5.223  1.3659  0.1814 -0.4976
40106SOL    HW126410   8.818   3.934   5.262 -0.3905 -0.4671  1.0143
40106SOL    HW226411   8.848   3.789   5.293 -0.3012 -0.7971 -0.5686
40107SOL     OW26412   4.257   8.963   8.175  0.0930 -0.2853  0.5520
40107SOL    HW126413   4.219   8.924   8.096  1.3517 -0.3127 -0.0566
40107SOL    HW226414   4.342   8.921   8.185  0.3266  0.3606  1.4208
40108SOL     OW26415   1.937   4.069   0.803  0.4342  0.4818  0.4736
40108SOL    HW126416   1.861   4.101   0.753  1.7012  0.9148 -1.2709
40108SOL    HW226417   1.986   4.016   0.740  1.4913  0.0651  1.6162
40109SOL     OW26418  10.885   9.682   0.812  1.1756 -0.2069  0.5973
40109SOL    HW126419  10.851   9.691   0.901 -0.2223 -2.0990  0.3457
40109SOL    HW226420  10.950   9.612   0.819  0.0165 -1.3967 -0.0539
40110SOL     OW26421   1.453   6.544   6.200  0.1235 -0.6353  0.0709
40110SOL    HW126422   1.477   6.502   6.117 -0.8962 -0.0427 -0.5340
40110SOL    HW226423   1.388   6.610   6.176 -2.3940 -2.3584  1.6697
40111SOL     OW26424   9.238   5.150   6.141 -0.1961  0.7087  0.0002
40111SOL    HW126425   9.319   5.132   6.189  0.0314  0.6071 -0.4194
40111SOL    HW226426   9.261   5.139   6.049 -0.2874  2.2518 -0.2287
40112SOL     OW26427   5.816  10.035   8.241 -0.6317 -0.4207  0.5384
40112SOL    HW126428   5.882   9.971   8.213  0.6016  1.0274  0.0520
40112SOL    HW226429   5.755   9.983   8.295  0.3061 -2.0055  0.1545
40113SOL     OW26430   4.064   2.914   3.250  0.0488  0.7507 -0.5030
40113SOL    HW126431   4.130   2.983   3.257 -0.8652  1.8061 -1.7973
40113SOL    HW226432   4.035   2.899   3.340  0.7099  1.6169 -0.1333
40114SOL     OW26433   1.327   8.655   9.329  0.0613  0.4426 -0.1357
40114SOL    HW126434   1.290   8.659   9.417 -0.1950 -0.5767 -0.1831
40114SOL    HW226435   1.393   8.585   9.335 -0.4384 -0.1073 -0.9154
40115SOL     OW26436   7.818   2.778   5.562  0.5630 -0.4838  0.4765
40115SOL    HW126437   7.810   2.847   5.628  1.4952  0.7489 -0.6428
40115SOL    HW226438   7.850   2.823   5.484 -0.4190 -1.9186 -0.8064
40116SOL     OW26439   4.910  10.563   3.313 -0.4691 -0.1840 -0.2370
40116SOL    HW126440   4.977  10.515   3.362  0.0251  1.3084  0.6265
40116SOL    HW226441   4.901  10.515   3.231  0.6718 -1.2027  0.2076
40117SOL     OW26442   5.570   9.613   7.977  0.1050 -0.0704  0.3454
40117SOL    HW126443   5.475   9.609   7.963  0.0713  0.2168  0.4836
40117SOL    HW226444   5.605   9.546   7.919 -0.2151 -0.4602  0.5928
40118SOL     OW26445   1.878   1.585   0.489 -0.6666  0.5550  0.3077
40118SOL    HW126446   1.790   1.619   0.505 -0.7264  0.5847 -0.0758
40118SOL    HW226447   1.908   1.632   0.411 -1.1042 -0.8823 -0.7893
40119SOL     OW26448   5.341   7.116   9.732 -0.1336  0.0960  0.0330
40119SOL    HW126449   5.397   7.178   9.686  0.9115 -1.1329 -0.4092
40119SOL    HW226450   5.322   7.158   9.816  0.4936  1.0256 -0.2746
40120SOL     OW26451   6.896  10.844   9.751 -0.2883 -0.4975 -0.2661
40120SOL    HW126452   6.908  10.923   9.803  0.9960 -0.2216 -0.9440
40120SOL    HW226453   6.806  10.849   9.719 -0.4165  0.3689  0.2041
40121SOL     OW26454   7.131   6.029   4.638 -0.2558  0.4566  0.1976
40121SOL    HW126455   7.117   6.112   4.684 -1.0315  0.9345 -0.8666
40121SOL    HW226456   7.180   6.052   4.560 -1.9516  0.2106 -0.9933
40122SOL     OW26457  10.682   5.259   0.640  0.6150 -0.0718 -0.3272
40122SOL    HW126458  10.608   5.197   0.639  1.4404 -1.1403 -2.7608
40122SOL    HW226459  10.755   5.209   0.676  0.6464  0.3270  0.1632
40123SOL     OW26460  10.847   5.657  10.119  0.0497 -0.2841  0.0705
40123SOL    HW126461  10.904   5.580  10.128 -1.9752 -2.0914 -1.4371
40123SOL    HW226462  10.870   5.693  10.033 -0.6407 -0.6667 -0.2810
40124SOL     OW26463   4.967   8.548   5.997 -0.2190  0.3599 -0.0914
40124SOL    HW126464   4.960   8.538   6.092 -0.7642  2.1806  0.1033
40124SOL    HW226465   4.903   8.616   5.976  0.7503  0.8375 -1.6123
40125SOL     OW26466  10.146   0.640   0.360 -0.5425  0.2282 -0.2510
40125SOL    HW126467  10.126   0.558   0.406  2.2790 -1.5560 -1.8445
40125SOL    HW226468  10.210   0.684   0.417 -2.8024  1.9744  1.0986
40126SOL     OW26469   4.133   0.191   2.985 -0.1730 -0.5776  0.1922
40126SOL    HW126470   4.063   0.126   2.994  0.4003 -1.3305 -0.5710
40126SOL    HW226471   4.130   0.216   2.893 -0.0911  0.1570  0.3837
40127SOL     OW26472   7.646   4.048  10.919  0.5994 -0.3265 -0.3289
40127SOL    HW126473   7.619   4.060  10.829  2.2962  0.5816 -0.7753
40127SOL    HW226474   7.607   4.121  10.966  1.5921  0.5397 -0.8122
40128SOL     OW26475   5.228   9.256   3.111 -0.1643 -0.1268  0.1992
40128SOL    HW126476   5.137   9.268   3.087 -0.8892  0.3285  2.7966
40128SOL    HW226477   5.225   9.235   3.205  2.3117 -1.6611  0.0203
40129SOL     OW26478   7.007  10.183   5.863  0.3201  0.2361 -0.6260
40129SOL    HW126479   6.947  10.219   5.928  0.7298 -1.1584  0.5721
40129SOL    HW226480   6.962  10.106   5.829  1.4798 -0.9446  0.4307
40130SOL     OW26481   2.460   9.649   0.761  0.0586  0.1278  0.1350
40130SOL    HW126482   2.528   9.673   0.698  1.7366 -1.4641  1.2416
40130SOL    HW226483   2.475   9.708   0.835 -0.2419  0.2717  0.0792
40131SOL     OW26484   8.023   0.112   0.988 -0.0200  0.1538  0.3520
40131SOL    HW126485   7.977   0.194   1.005  1.1365  0.9777 -0.3392
40131SOL    HW226486   8.000   0.056   1.062 -0.5634  1.2209  1.0218
40132SOL     OW26487   7.912  10.340   3.336 -0.1482  0.0101 -0.7686
40132SOL    HW126488   7.944  10.313   3.250 -2.0729 -2.3192 -0.8629
40132SOL    HW226489   7.943  10.272   3.396 -1.4736 -0.1190 -0.1994
40133SOL     OW26490   6.240   5.806   1.690 -0.2407  0.1671 -0.1708
40133SOL    HW126491   6.177   5.864   1.732  0.5712  0.2836  0.9264
40133SOL    HW226492   6.238   5.830   1.598 -2.2561 -0.2719 -0.2803
40134SOL     OW26493   8.404  10.815   4.448  0.4154  0.2151 -0.1368
40134SOL    HW126494   8.350  10.741   4.476  0.0955  0.3340 -0.4356
40134SOL    HW226495   8.461  10.832   4.523 -0.4008  0.5009  0.4342
40135SOL     OW26496   0.848   6.073   6.798  0.0050  0.1808 -0.0514
40135SOL    HW126497   0.798   6.088   6.718 -0.8626  0.5400  0.5439
40135SOL    HW226498   0.912   6.144   6.800  1.0609 -0.6961 -1.1892
40136SOL     OW26499   9.718   6.884   5.272  0.3523  0.8122 -0.3400
40136SOL    HW126500   9.654   6.944   5.234 -1.5942 -2.1759 -2.1911
40136SOL    HW226501   9.679   6.859   5.356 -0.7789 -0.5794 -1.2215
40137SOL     OW26502   5.930  10.834   6.803 -0.4130 -0.6973 -0.3263
40137SOL    HW126503   5.932  10.831   6.898  2.7349 -0.4085 -0.2721
40137SOL    HW226504   5.998  10.898   6.779 -0.8308 -1.0529 -2.7682
40138SOL     OW26505   2.509   0.431   1.540  0.2862  0.2753  0.7273
40138SOL    HW126506   2.487   0.374   1.466 -1.4734 -1.6851  2.6189
40138SOL    HW226507   2.469   0.515   1.518  0.0800 -0.1671 -0.6830
40139SOL     OW26508   8.761   0.460   7.021  0.0520  0.5875 -0.7137
40139SOL    HW126509   8.818   0.436   6.948 -0.4011 -0.4368 -0.7600
40139SOL    HW226510   8.764   0.555   7.025  1.5663  0.5657 -0.8689
40140SOL     OW26511   1.232   1.465  10.018  0.1527  0.2356 -0.8462
40140SOL    HW126512   1.160   1.430   9.966 -0.7896  0.8321  0.0214
40140SOL    HW226513   1.195   1.477  10.106  0.8063  2.1505 -0.7785
40141SOL     OW26514   2.067   7.782   5.603  0.3213  0.2823 -0.2231
40141SOL    HW126515   2.158   7.754   5.601  0.7558  1.6348 -0.1739
40141SOL    HW226516   2.035   7.767   5.514  0.3080 -1.0427 -0.0112
40142SOL     OW26517   3.435   0.965   2.868  0.0633 -0.1697 -0.1148
40142SOL    HW126518   3.454   0.879   2.904 -0.6200 -0.4759 -0.4684
40142SOL    HW226519   3.415   1.020   2.944  0.7183 -0.2557  0.1275
40143SOL     OW26520  10.404   2.261   9.488  0.4821 -0.7867  0.5385
40143SOL    HW126521  10.320   2.236   9.526  0.9143 -1.4986  1.0436
40143SOL    HW226522  10.460   2.279   9.564  0.7644 -0.2181  0.2069
40144SOL     OW26523   3.471   5.805   8.154  0.1916  0.4257  0.6392
40144SOL    HW126524   3.488   5.806   8.060 -0.7562 -0.4209  0.4407
40144SOL    HW226525   3.474   5.897   8.180 -0.3446  0.7406 -0.3721
40145SOL     OW26526   4.646  10.775   6.143 -0.0431 -0.2550 -0.2341
40145SOL    HW126527   4.625  10.682   6.154 -2.1033  0.2203  0.3458
40145SOL    HW226528   4.634  10.813   6.231  1.1391  0.5010 -0.3811
40146SOL     OW26529   5.809   2.150  10.304 -0.1063 -0.0978 -0.1061
40146SOL    HW126530   5.810   2.055  10.289  0.2600 -0.0127 -0.6565
40146SOL    HW226531   5.719   2.176  10.289 -0.5036 -0.5410  1.3006
40147SOL     OW26532   1.229   4.208   4.939 -0.1635 -0.0675 -0.6243
40147SOL    HW126533   1.323   4.197   4.924 -0.1516  0.3680 -0.8694
40147SOL    HW226534   1.206   4.135   4.997  0.5053  0.3383  0.1747
40148SOL     OW26535   1.931  10.002   6.805  0.0316  0.2102 -0.1656
40148SOL    HW126536   1.914  10.083   6.758 -0.8431  1.0664  1.5029
40148SOL    HW226537   2.018  10.013   6.843 -0.0068  0.3049 -0.1031
40149SOL     OW26538   2.307   3.701   3.549 -0.1004  0.3241 -0.0628
40149SOL    HW126539   2.254   3.778   3.569 -1.0698 -0.1850 -0.5890
40149SOL    HW226540   2.243   3.631   3.538  0.7456 -0.4800  0.0492
40150SOL     OW26541   5.145   5.384   1.917 -0.5957 -0.0623 -0.1853
40150SOL    HW126542   5.215   5.376   1.982 -1.7301  0.1041  1.0968
40150SOL    HW226543   5.070   5.419   1.966 -1.1197  1.2685 -1.8428
40151SOL     OW26544   3.458   6.896   7.580  0.3561  0.0105 -0.1171
40151SOL    HW126545   3.504   6.873   7.500  0.5343 -0.2955  0.0724
40151SOL    HW226546   3.527   6.915   7.643  0.2176  0.0130  0.0354
40152SOL     OW26547   0.747   1.544   1.494 -0.2641 -1.0312  0.2286
40152SOL    HW126548   0.819   1.588   1.451 -0.9733  0.6960  0.7289
40152SOL    HW226549   0.696   1.505   1.423  0.5286 -1.2997 -0.1999
40153SOL     OW26550   1.232   7.395   4.431 -0.0885 -0.1947  0.0977
40153SOL    HW126551   1.279   7.323   4.388  1.3584  0.6307  0.2503
40153SOL    HW226552   1.220   7.365   4.521  1.0477 -0.0175  0.3217
40154SOL     OW26553   5.506   5.453   1.405  0.0856  0.3136  0.2296
40154SOL    HW126554   5.414   5.480   1.402 -0.1005  0.2197  2.8279
40154SOL    HW226555   5.504   5.358   1.415  0.4316  0.3782  0.9766
40155SOL     OW26556   4.741   5.686   2.304  0.2103  0.5324  0.3506
40155SOL    HW126557   4.667   5.682   2.366  0.1050  0.4121  0.2191
40155SOL    HW226558   4.740   5.600   2.261 -0.5212  1.0713 -0.7485
40156SOL     OW26559   0.527   2.857   7.677  0.5679  0.1053  0.0755
40156SOL    HW126560   0.549   2.853   7.583  0.8489 -0.8811  0.1686
40156SOL    HW226561   0.608   2.831   7.721  0.5473  0.9437  0.6101
40157SOL     OW26562   5.112  10.867  10.844 -0.1928 -0.6239  0.1974
40157SOL    HW126563   5.132  10.831  10.930  1.0068 -0.2246  0.1099
40157SOL    HW226564   5.186  10.839  10.789  0.3042  1.1155 -0.1028
40158SOL     OW26565   8.255   9.344   3.039  0.7581  0.1850  0.8225
40158SOL    HW126566   8.230   9.421   2.988 -0.2019 -0.7536 -0.1640
40158SOL    HW226567   8.192   9.277   3.014  2.7871 -1.5762  0.0515
40159SOL     OW26568   3.334   9.462   4.630  0.1120 -0.5003  0.0234
40159SOL    HW126569   3.345   9.445   4.723  1.5170  1.3191  0.2333
40159SOL    HW226570   3.375   9.386   4.587  1.2429 -0.3986  0.8863
40160SOL     OW26571   7.653   8.138   5.160  0.1229 -0.2063 -0.1277
40160SOL    HW126572   7.637   8.221   5.204 -0.1089 -0.8972  1.1465
40160SOL    HW226573   7.643   8.157   5.067 -1.1657  0.9115  0.2248
40161SOL     OW26574   6.353   0.451   8.681  0.0538 -0.3484  0.0554
40161SOL    HW126575   6.436   0.434   8.725  0.3779  0.5114 -0.2012
40161SOL    HW226576   6.362   0.408   8.596 -0.3839 -1.5929  0.6293
40162SOL     OW26577   1.990   8.022   3.526  0.0864 -0.2427  0.1288
40162SOL    HW126578   1.955   8.107   3.500 -0.5638 -0.2233  1.0122
40162SOL    HW226579   2.006   8.030   3.620 -0.7173 -1.3286  0.3920
40163SOL     OW26580   9.857   6.948   5.890 -0.5360 -0.3970  0.1457
40163SOL    HW126581   9.914   7.012   5.932 -1.7376  0.1527  1.0260
40163SOL    HW226582   9.904   6.921   5.812  0.7489  0.2965  0.6478
40164SOL     OW26583   7.743   0.987  10.107 -0.2449 -0.4466  0.3335
40164SOL    HW126584   7.784   0.903  10.128 -0.5755 -0.7538 -0.2417
40164SOL    HW226585   7.749   1.037  10.189  2.8738  0.1909 -0.1641
40165SOL     OW26586   3.491   5.506   4.093  0.0034  0.2317 -0.3132
40165SOL    HW126587   3.452   5.563   4.027  0.8804  0.8125 -0.3473
40165SOL    HW226588   3.418   5.454   4.126 -0.4320 -0.2505 -1.9086
40166SOL     OW26589   5.151  10.231   3.211  0.3650 -0.5196  0.0656
40166SOL    HW126590   5.111  10.309   3.249  1.4704  0.3898 -0.5636
40166SOL    HW226591   5.108  10.219   3.126 -0.1781 -0.9233  0.3921
40167SOL     OW26592   2.339   5.204   6.395 -0.4167  0.0099 -0.2895
40167SOL    HW126593   2.430   5.191   6.368 -0.3687 -1.3445  0.4521
40167SOL    HW226594   2.319   5.128   6.449 -1.9960  0.3035 -0.4204
40168SOL     OW26595   7.035   9.265   1.069  0.2012  0.0256  0.4142
40168SOL    HW126596   7.019   9.246   0.976 -0.6182 -1.2109  0.7735
40168SOL    HW226597   7.041   9.360   1.074 -2.5321  0.3262 -0.5092
40169SOL     OW26598   9.364   2.834   1.222  0.6965  0.4937  0.5226
40169SOL    HW126599   9.405   2.881   1.295  0.3326  3.4133 -1.0275
40169SOL    HW226600   9.437   2.799   1.172  1.2397  2.8528 -0.4299
40170SOL     OW26601   1.566   5.168   1.260 -0.0148 -0.3931  0.2380
40170SOL    HW126602   1.491   5.225   1.246  0.9431  0.8244 -0.1218
40170SOL    HW226603   1.599   5.192   1.347  1.6238  1.1484 -0.7357
40171SOL     OW26604   0.781   9.015   2.681  0.0010 -0.3586 -0.0780
40171SOL    HW126605   0.721   9.036   2.608 -0.3074 -0.5089  0.1302
40171SOL    HW226606   0.787   9.097   2.730 -2.2358 -1.0184  1.4823
40172SOL     OW26607   6.282   8.258   2.518 -0.1975  0.3783  0.2288
40172SOL    HW126608   6.218   8.208   2.568  0.7373  0.9986  2.1608
40172SOL    HW226609   6.367   8.229   2.551  0.4174  1.9008  0.1115
40173SOL     OW26610   4.969   6.150   1.012  0.1766 -0.6641  0.2175
40173SOL    HW126611   5.021   6.180   1.087  2.4573 -2.1107 -0.6706
40173SOL    HW226612   4.918   6.076   1.047 -2.1321  1.3142  1.3171
40174SOL     OW26613   3.141   5.213   8.649  0.3167  0.5554 -0.0322
40174SOL    HW126614   3.212   5.233   8.710  0.5227 -0.4693  0.0829
40174SOL    HW226615   3.081   5.159   8.699  0.4168 -0.1736 -0.6938
40175SOL     OW26616   1.144   8.486   3.422  0.2108 -0.4064 -0.1339
40175SOL    HW126617   1.137   8.465   3.329  1.5071 -1.7122  0.0282
40175SOL    HW226618   1.232   8.521   3.432  0.1557 -0.4862  0.6541
40176SOL     OW26619   7.377   8.717   1.488  0.4113 -0.0943 -0.1405
40176SOL    HW126620   7.412   8.670   1.412  1.8325  0.8352 -0.0840
40176SOL    HW226621   7.317   8.655   1.529  2.5155 -2.0435  0.1638
40177SOL     OW26622   2.936   8.651   7.584 -0.6044  0.4776 -0.3433
40177SOL    HW126623   2.910   8.610   7.502 -0.9820  2.3572 -1.2031
40177SOL    HW226624   2.855   8.690   7.619  0.1989  2.9731 -1.0576
40178SOL     OW26625   5.526   3.257   4.519  0.1807  0.1162  0.5458
40178SOL    HW126626   5.441   3.273   4.480 -0.2881  0.5772  1.7180
40178SOL    HW226627   5.558   3.179   4.475 -1.0619 -0.3520  0.4390
40179SOL     OW26628   5.058   9.148   4.980  0.2267  0.0084 -0.2780
40179SOL    HW126629   5.079   9.214   5.046  1.0088  0.2042 -0.7084
40179SOL    HW226630   5.077   9.065   5.022  0.4252  0.1181 -0.1521
40180SOL     OW26631   0.806   9.849   6.208  0.5187 -0.4967 -0.1503
40180SOL    HW126632   0.866   9.900   6.263  0.5665 -0.5025 -0.1973
40180SOL    HW226633   0.839   9.760   6.211  0.7335 -0.4298 -0.4819
40181SOL     OW26634   1.580   5.756  10.542  0.0574 -0.0807  0.2166
40181SOL    HW126635   1.659   5.784  10.590 -0.1713 -1.2396  1.2966
40181SOL    HW226636   1.577   5.815  10.467  1.0635  1.0474  1.0114
40182SOL     OW26637   7.656  10.314  10.677 -0.4200 -0.5895 -0.3331
40182SOL    HW126638   7.684  10.364  10.601 -0.3044 -0.9058 -0.5015
40182SOL    HW226639   7.570  10.279  10.653 -1.0772  0.5524  0.2623
40183SOL     OW26640   5.887   9.707   4.237 -0.4492 -0.2810  0.4031
40183SOL    HW126641   5.870   9.770   4.307 -0.7906  0.5385 -0.3938
40183SOL    HW226642   5.974   9.673   4.256  1.2718  2.9477 -0.9615
40184SOL     OW26643   8.080   2.379   0.621  0.0090  0.1018  0.2865
40184SOL    HW126644   8.092   2.465   0.581  0.0239  0.2436  0.5920
40184SOL    HW226645   8.133   2.320   0.567 -0.0898  0.2624  0.0089
40185SOL     OW26646   5.103   9.729   0.946 -0.3916 -0.0768 -0.5000
40185SOL    HW126647   5.156   9.653   0.968  1.0738  0.9294 -0.4310
40185SOL    HW226648   5.110   9.738   0.851 -1.0310 -0.3412 -0.5803
40186SOL     OW26649   9.183   1.293   4.740 -0.0704  0.2689 -0.7051
40186SOL    HW126650   9.095   1.319   4.714 -0.6127  0.1166  0.8625
40186SOL    HW226651   9.240   1.326   4.670 -0.8916  4.0984  0.2084
40187SOL     OW26652   1.410   6.087  10.743 -0.0472 -0.2596 -0.2912
40187SOL    HW126653   1.383   6.178  10.754  0.3648 -0.3833  2.3716
40187SOL    HW226654   1.452   6.085  10.657 -0.0710  2.0450 -0.4224
40188SOL     OW26655   4.548   2.093   2.452  0.1919 -0.3692  0.6205
40188SOL    HW126656   4.600   2.148   2.393 -0.7261  0.0133  0.1406
40188SOL    HW226657   4.584   2.004   2.439  1.3746  0.0263  1.0547
40189SOL     OW26658   9.697   1.442   7.905  0.1952  0.9282  0.0472
40189SOL    HW126659   9.698   1.347   7.903 -1.2013  0.8913 -1.9653
40189SOL    HW226660   9.693   1.469   7.813 -0.4518  2.8903  0.5866
40190SOL     OW26661  10.324   0.380   2.332  0.0300 -0.2797  0.2651
40190SOL    HW126662  10.373   0.336   2.262  0.2719  1.1934 -0.5450
40190SOL    HW226663  10.233   0.376   2.304  0.0664 -0.1630  0.1298
40191SOL     OW26664   6.831   4.921   7.611 -0.0820  0.2711 -0.5183
40191SOL    HW126665   6.847   4.909   7.518  1.1462 -0.3951 -0.2360
40191SOL    HW226666   6.847   5.014   7.627 -0.9960  0.5400 -1.0879
40192SOL     OW26667   6.402   7.460   7.465 -1.0336 -0.0468 -0.1330
40192SOL    HW126668   6.404   7.526   7.395 -0.5142 -1.5021 -1.5468
40192SOL    HW226669   6.494   7.441   7.483 -1.1794 -0.6860 -0.0392
40193SOL     OW26670   9.656   4.244   6.631  0.1981 -0.0992 -0.3011
40193SOL    HW126671   9.690   4.334   6.637 -0.1095 -0.0692  1.4793
40193SOL    HW226672   9.561   4.254   6.642 -0.0900 -0.4860 -2.1100
40194SOL     OW26673   2.152   5.650   1.065  0.5324  0.3269 -0.1504
40194SOL    HW126674   2.093   5.711   1.020  0.5990 -1.1528 -2.3801
40194SOL    HW226675   2.133   5.664   1.158 -2.9530  0.3319 -0.7244
40195SOL     OW26676   4.616  10.107   0.974 -0.7048 -0.2728 -0.3373
40195SOL    HW126677   4.674  10.172   0.934 -0.9068  0.4795  0.5523
40195SOL    HW226678   4.563  10.075   0.901 -1.2577  1.2554 -0.6532
40196SOL     OW26679   5.660   5.917   7.478 -0.3763 -0.2249  0.0189
40196SOL    HW126680   5.631   5.911   7.387  0.2823  0.8391 -0.2816
40196SOL    HW226681   5.622   5.841   7.520 -2.5235  0.4142 -0.6356
40197SOL     OW26682   9.478   1.105   2.732 -0.8257 -0.0086  0.1079
40197SOL    HW126683   9.554   1.051   2.755 -0.9185 -0.7598 -1.2441
40197SOL    HW226684   9.492   1.128   2.641 -1.5878  0.9606  0.2178
40198SOL     OW26685   7.413   9.452   9.507 -0.0790 -0.6590  0.0754
40198SOL    HW126686   7.449   9.404   9.432  2.3865  0.1473  0.6494
40198SOL    HW226687   7.415   9.543   9.480  0.6960 -0.3756  1.0263
40199SOL     OW26688   1.035   5.314   7.324  0.0766  0.6227  0.2435
40199SOL    HW126689   0.967   5.305   7.391 -1.4762 -1.2558 -1.4648
40199SOL    HW226690   1.047   5.409   7.314 -1.5875  0.9795  1.2706
40200SOL     OW26691   0.783   6.684  10.619 -0.8908 -0.2857 -0.1859
40200SOL    HW126692   0.771   6.774  10.588 -0.6476 -0.8025 -1.8844
40200SOL    HW226693   0.772   6.630  10.541 -0.6806 -1.7173  0.7340
40201SOL     OW26694   7.229   0.938   9.693  0.1981 -0.3847 -0.4571
40201SOL    HW126695   7.149   0.974   9.732 -1.0475 -4.3134  1.0577
40201SOL    HW226696   7.287   0.921   9.767  1.7074  0.6044 -1.3636
40202SOL     OW26697   4.564   4.590  10.280  0.3085 -0.7461 -0.1226
40202SOL    HW126698   4.493   4.639  10.323  1.0125 -0.9225  1.2963
40202SOL    HW226699   4.540   4.591  10.187  0.0546  1.9313 -0.1202
40203SOL     OW26700   3.587   6.285   9.094  0.0681 -0.5949 -0.1443
40203SOL    HW126701   3.679   6.261   9.108 -0.0721 -0.1944  1.6501
40203SOL    HW226702   3.541   6.201   9.095  0.1830 -0.6658  1.0874
40204SOL     OW26703   2.458   4.685   6.394  0.1836 -0.8103  0.1493
40204SOL    HW126704   2.418   4.625   6.331  0.2770 -0.9240  0.1961
40204SOL    HW226705   2.539   4.641   6.419 -0.4729 -1.4036  1.3392
40205SOL     OW26706   2.258   8.728   0.286 -0.8330 -0.7857 -0.2953
40205SOL    HW126707   2.311   8.721   0.366 -2.0916 -0.9104  0.5496
40205SOL    HW226708   2.197   8.654   0.292 -0.7181 -0.9977 -1.5528
40206SOL     OW26709   4.880   2.090   7.842 -0.0815  0.2353 -0.5453
40206SOL    HW126710   4.880   2.076   7.747 -0.8193 -0.6173 -0.4302
40206SOL    HW226711   4.860   2.004   7.879  2.3290  0.0405  0.4766
40207SOL     OW26712   2.934  10.379  10.777 -0.1039  0.2446 -0.1211
40207SOL    HW126713   3.025  10.365  10.752  0.3627  0.7591  1.1557
40207SOL    HW226714   2.940  10.422  10.863 -1.5528 -0.9849  0.6513
40208SOL     OW26715   7.672   9.989   0.382  0.4949 -0.3933 -0.4011
40208SOL    HW126716   7.721   9.978   0.463  1.5730 -2.6462 -1.2573
40208SOL    HW226717   7.600   9.927   0.389 -0.9840  1.2799 -0.1186
40209SOL     OW26718   5.014   0.109   1.210  0.0020  0.2571  0.4321
40209SOL    HW126719   5.071   0.079   1.281 -0.6722 -1.0297  0.4622
40209SOL    HW226720   4.929   0.069   1.229  0.1957 -1.5587 -1.9514
40210SOL     OW26721   2.437   6.805  10.120  0.1418  0.2336 -0.2411
40210SOL    HW126722   2.439   6.896  10.090 -1.0275  0.2235 -0.3886
40210SOL    HW226723   2.347   6.777  10.106  0.0583 -0.4185  1.3829
40211SOL     OW26724   5.409   4.065   6.933  0.3829  0.0413 -0.0943
40211SOL    HW126725   5.405   3.972   6.956 -0.8417 -0.3184 -1.6256
40211SOL    HW226726   5.318   4.094   6.931  0.7956  1.6703  1.7148
40212SOL     OW26727   2.609   3.450  10.337  0.3675  0.4346  0.3840
40212SOL    HW126728   2.563   3.512  10.281  1.0411  0.8345  0.2687
40212SOL    HW226729   2.697   3.485  10.344  1.2888 -1.4366 -1.1296
40213SOL     OW26730   3.269   3.326   7.514 -0.0064  0.0221 -0.1655
40213SOL    HW126731   3.282   3.390   7.584  3.0517 -1.3484  0.6854
40213SOL    HW226732   3.226   3.375   7.444 -0.3204  2.2477  1.4812
40214SOL     OW26733   6.401   3.884   7.395  0.0481 -0.5752  0.2993
40214SOL    HW126734   6.496   3.875   7.388  0.1538 -0.9155  1.8858
40214SOL    HW226735   6.369   3.867   7.307  1.4053 -1.1710 -0.1050
40215SOL     OW26736   5.035   0.677   5.085 -0.5203 -0.3573  0.6846
40215SOL    HW126737   4.989   0.686   5.002  1.1996 -0.1136 -0.2930
40215SOL    HW226738   5.084   0.758   5.094  0.6380 -1.0763  1.0662
40216SOL     OW26739   6.696   0.638   7.284  0.1356 -0.4457 -0.1327
40216SOL    HW126740   6.746   0.714   7.310  0.6553 -0.5203 -0.8662
40216SOL    HW226741   6.745   0.563   7.320 -0.2301 -0.4510  0.3632
40217SOL     OW26742   7.722   8.435   2.199 -0.2489  0.0660 -0.4159
40217SOL    HW126743   7.803   8.453   2.151  0.8871 -0.0193  1.4042
40217SOL    HW226744   7.695   8.520   2.232 -1.1213  0.1477 -1.2876
40218SOL     OW26745   3.037   9.751   2.067  0.0205  0.2200 -0.2252
40218SOL    HW126746   2.998   9.831   2.102 -0.3540  0.0849 -0.3283
40218SOL    HW226747   3.050   9.695   2.143  0.3049  0.3857 -0.1499
40219SOL     OW26748   8.294   7.860  10.752  0.4340 -0.4704  0.1522
40219SOL    HW126749   8.273   7.952  10.771  3.2971  0.7394 -1.8827
40219SOL    HW226750   8.251   7.842  10.669 -1.5812 -1.6494  1.3689
40220SOL     OW26751  10.533  10.159   8.026 -0.0818 -0.3048 -0.1242
40220SOL    HW126752  10.615  10.143   7.979 -0.1491  1.2019 -0.8197
40220SOL    HW226753  10.468  10.171   7.956 -0.4044  0.8519  0.3515
40221SOL     OW26754   9.313   7.558   0.557  0.3495 -0.4681 -0.2726
40221SOL    HW126755   9.405   7.585   0.561 -0.3123  1.8302  1.1849
40221SOL    HW226756   9.302   7.501   0.632  0.0812  1.2116  1.0249
40222SOL     OW26757   5.944   4.534   3.329 -0.2850  0.5953 -0.2974
40222SOL    HW126758   5.943   4.537   3.233 -0.3116  0.1237 -0.3167
40222SOL    HW226759   5.991   4.452   3.349  1.4171  1.6053  0.1023
40223SOL     OW26760   6.254   3.514   6.182  0.1759  0.0152 -0.1435
40223SOL    HW126761   6.285   3.430   6.148 -0.8887 -1.0652  1.3944
40223SOL    HW226762   6.159   3.507   6.180  0.0342  1.8100 -1.3819
40224SOL     OW26763  10.693   6.320   6.850 -0.2405 -0.6455 -0.0203
40224SOL    HW126764  10.641   6.318   6.770  0.5279  1.4862 -0.6409
40224SOL    HW226765  10.780   6.349   6.821  0.8008 -2.3045  1.2492
40225SOL     OW26766   8.619   7.861   3.151 -0.2159  0.3237  0.0158
40225SOL    HW126767   8.701   7.858   3.102 -0.4502  0.6604 -0.4095
40225SOL    HW226768   8.554   7.823   3.091 -0.8274  2.2376 -0.6162
40226SOL     OW26769   9.435   3.407   7.825  0.0191  0.4398  0.0325
40226SOL    HW126770   9.379   3.330   7.830 -0.1929  0.6408  1.0924
40226SOL    HW226771   9.400   3.458   7.752 -0.3765 -0.0518 -0.1293
40227SOL     OW26772   7.386   4.580  10.243 -0.2675 -0.1799  0.4733
40227SOL    HW126773   7.384   4.522  10.319  0.0314 -0.8466 -0.0167
40227SOL    HW226774   7.335   4.533  10.177 -0.9429  0.6211  0.4201
40228SOL     OW26775   5.210   8.013   4.726  0.2684 -0.6125 -0.2297
40228SOL    HW126776   5.249   7.971   4.649  2.8509  0.5002  0.3783
40228SOL    HW226777   5.207   8.106   4.704 -0.2836 -0.4538  0.4912
40229SOL     OW26778   2.530   8.370   4.149 -0.0869 -0.0310 -0.6856
40229SOL    HW126779   2.437   8.381   4.171  0.2020 -1.3381  1.4427
40229SOL    HW226780   2.573   8.446   4.187  0.1559 -1.3374  1.8360
40230SOL     OW26781   4.314   6.779   9.215 -0.2677 -0.7367  0.1326
40230SOL    HW126782   4.297   6.850   9.154  4.2347 -0.1700 -0.8177
40230SOL    HW226783   4.282   6.811   9.299  1.7038  2.6374 -0.2186
40231SOL     OW26784   8.791   0.853   7.898  0.5645  0.9504 -0.7881
40231SOL    HW126785   8.749   0.897   7.824  1.4252  0.4833 -1.5701
40231SOL    HW226786   8.787   0.760   7.875  0.3331  0.7514  0.0284
40232SOL     OW26787   3.908  10.559   9.256  0.2376  0.7022  0.0735
40232SOL    HW126788   3.889  10.521   9.170  3.0047 -0.0788 -0.2850
40232SOL    HW226789   3.854  10.639   9.259 -0.7904  0.1546 -1.8715
40233SOL     OW26790   6.584   5.113   5.392  0.2702  0.2682  0.0696
40233SOL    HW126791   6.533   5.189   5.365  0.7215  0.6276  0.2237
40233SOL    HW226792   6.667   5.149   5.425  0.4469 -0.2783  0.2413
40234SOL     OW26793   1.504   2.352   2.178 -0.0287 -0.5811  0.2607
40234SOL    HW126794   1.442   2.289   2.216 -1.2362  0.4556  0.0735
40234SOL    HW226795   1.464   2.437   2.193  1.7203  0.2000  0.7883
40235SOL     OW26796   6.484  10.727   2.723  0.1863  0.8373 -0.9413
40235SOL    HW126797   6.500  10.809   2.770 -0.1733 -0.2961  1.3172
40235SOL    HW226798   6.437  10.672   2.786  1.1621 -1.4334 -2.0569
40236SOL     OW26799   3.902   4.639   7.490  0.9564  0.6065  0.2438
40236SOL    HW126800   3.933   4.549   7.505  0.6115  0.3737 -0.3915
40236SOL    HW226801   3.970   4.679   7.437  0.5650  0.3554 -0.4512
40237SOL     OW26802   8.862   5.223   7.227 -0.2638  0.5906 -0.6053
40237SOL    HW126803   8.918   5.201   7.152  1.0554  0.9515  0.2627
40237SOL    HW226804   8.877   5.152   7.289  1.0656  1.8857  0.6079
40238SOL     OW26805   1.330   2.136   9.917 -0.4165  0.5285 -0.7470
40238SOL    HW126806   1.371   2.050   9.926 -1.0143  0.1172 -1.6850
40238SOL    HW226807   1.388   2.184   9.858  0.1327  0.9168  0.1079
40239SOL     OW26808   0.677  10.044   2.519  0.0193  0.0101  0.5227
40239SOL    HW126809   0.630  10.045   2.602  1.1828  1.6245  1.2261
40239SOL    HW226810   0.648  10.123   2.473 -0.0194 -0.4435 -0.2541
40240SOL     OW26811   5.300   2.840   7.328  0.3904 -0.2525  0.1672
40240SOL    HW126812   5.243   2.765   7.312 -0.6392  0.5812 -0.2176
40240SOL    HW226813   5.303   2.849   7.423 -0.2142 -0.2392  0.1871
40241SOL     OW26814   2.980  10.714   2.146  0.1923 -0.6285  0.5467
40241SOL    HW126815   2.910  10.770   2.111  0.4729 -1.8063 -2.1496
40241SOL    HW226816   3.059  10.768   2.138  0.2231 -0.8129 -0.5626
40242SOL     OW26817   9.606   8.129   7.321 -0.0189  0.3344 -0.4163
40242SOL    HW126818   9.631   8.089   7.404  0.5520 -0.1899 -0.8274
40242SOL    HW226819   9.547   8.200   7.345  1.1949  1.0718  0.5463
40243SOL     OW26820   4.430   6.714   8.113  0.1298 -0.0542  0.2982
40243SOL    HW126821   4.337   6.723   8.095  0.3179  0.5896 -0.3759
40243SOL    HW226822   4.448   6.620   8.105 -0.2108 -0.0322 -0.8201
40244SOL     OW26823   6.905   5.207   8.888  0.2099 -0.7089 -0.8367
40244SOL    HW126824   6.975   5.267   8.913  0.4902 -0.6288 -1.7798
40244SOL    HW226825   6.942   5.156   8.815 -0.8716 -0.3243 -1.6775
40245SOL     OW26826   9.195  10.316   9.408  0.2577  0.1646 -0.1007
40245SOL    HW126827   9.235  10.401   9.389 -0.0028  0.8001  1.9659
40245SOL    HW226828   9.233  10.257   9.343  0.3430  1.8655 -1.6740
40246SOL     OW26829   2.857   5.411   0.249  0.3888 -0.1962 -0.4844
40246SOL    HW126830   2.939   5.462   0.251  0.2558  0.0661 -1.2200
40246SOL    HW226831   2.856   5.365   0.332  2.2413 -1.7092 -1.2156
40247SOL     OW26832   4.437   2.053   1.301  0.0081  0.0177 -0.4686
40247SOL    HW126833   4.379   2.047   1.225 -0.3188  1.0629 -0.3253
40247SOL    HW226834   4.525   2.058   1.263  0.0048 -1.2965 -0.6962
40248SOL     OW26835   8.010   7.676   5.768 -0.8378  0.2494  0.5568
40248SOL    HW126836   8.073   7.615   5.805 -1.3928 -0.9091 -0.2957
40248SOL    HW226837   8.062   7.735   5.713 -0.5048 -1.0229 -0.5677
40249SOL     OW26838   7.037   5.134   6.795  0.1358 -0.2122  0.0301
40249SOL    HW126839   7.042   5.047   6.836  0.2974  0.0762  0.6381
40249SOL    HW226840   6.998   5.118   6.710  1.6280 -1.0995 -0.5264
40250SOL     OW26841   9.641  10.477   8.364  0.3734  0.2009  0.6314
40250SOL    HW126842   9.566  10.418   8.375  0.8731 -1.7176 -3.9509
40250SOL    HW226843   9.716  10.425   8.392  0.5066 -0.1935 -0.4192
40251SOL     OW26844   7.718   1.223   1.973  0.2899  0.7426 -0.0741
40251SOL    HW126845   7.677   1.137   1.966 -0.0322  0.8814  0.0468
40251SOL    HW226846   7.806   1.206   2.007  0.9253  0.3082 -1.8574
40252SOL     OW26847   7.339   9.084   5.296 -0.1317  0.7003  0.6263
40252SOL    HW126848   7.415   9.071   5.354  0.5492 -1.3544 -0.6250
40252SOL    HW226849   7.263   9.064   5.351  0.4529 -0.4287  1.0636
40253SOL     OW26850   4.259   9.876   2.633  0.5915 -0.2179  0.5690
40253SOL    HW126851   4.339   9.844   2.676 -0.2277 -0.6502  1.8325
40253SOL    HW226852   4.192   9.870   2.700 -0.9092 -1.5149 -0.9603
40254SOL     OW26853   9.806   9.965   7.555  0.0399  0.2295 -0.1281
40254SOL    HW126854   9.736  10.002   7.608 -0.6265 -1.5166  0.3077
40254SOL    HW226855   9.886   9.991   7.600 -0.4782 -0.4738  1.2816
40255SOL     OW26856   7.250   0.172   9.993  0.4352 -0.6332 -0.3110
40255SOL    HW126857   7.198   0.138   9.920 -1.2299 -0.8625  0.9146
40255SOL    HW226858   7.186   0.220  10.047  1.7002 -0.1071  0.7621
40256SOL     OW26859   4.385   1.118   0.528  0.7501  0.2041 -0.5298
40256SOL    HW126860   4.335   1.196   0.502 -1.2809 -0.5827  0.7443
40256SOL    HW226861   4.434   1.146   0.605  0.1838  0.2746 -0.1936
40257SOL     OW26862   4.282   5.286   7.423 -0.1701 -0.2525 -0.5117
40257SOL    HW126863   4.211   5.329   7.376 -0.3267 -1.6184 -1.6092
40257SOL    HW226864   4.329   5.237   7.355 -0.3525 -2.2322  0.6954
40258SOL     OW26865   8.123   5.776   7.233  0.0540  0.8991  0.4872
40258SOL    HW126866   8.173   5.749   7.311 -0.5126 -1.3943  0.1325
40258SOL    HW226867   8.172   5.739   7.160 -1.1886  0.1116  0.0196
40259SOL     OW26868   0.310  10.352   6.122 -0.2802 -0.2907 -0.2217
40259SOL    HW126869   0.373  10.420   6.149 -0.6311  0.4672 -1.2642
40259SOL    HW226870   0.364  10.274   6.109  0.5825  0.5288 -1.8103
40260SOL     OW26871   4.069  10.866   1.856 -0.2654  0.3422 -0.5145
40260SOL    HW126872   4.001  10.931   1.874 -0.4716  0.0835 -0.3411
40260SOL    HW226873   4.028  10.805   1.795  0.0756  0.6203 -1.0233
40261SOL     OW26874   6.463   4.310   9.370 -0.8955  0.2959 -0.1496
40261SOL    HW126875   6.423   4.395   9.391 -1.8855 -0.1577 -0.1138
40261SOL    HW226876   6.556   4.329   9.357 -1.2537  1.5461 -1.1048
40262SOL     OW26877   2.511   8.422   0.812 -0.2192 -0.1657 -0.1342
40262SOL    HW126878   2.419   8.403   0.795 -0.7289  1.9596  0.0735
40262SOL    HW226879   2.512   8.472   0.893  1.2838 -1.4227  0.6854
40263SOL     OW26880   3.357   6.275   2.290  0.1158  0.3651  0.1947
40263SOL    HW126881   3.350   6.369   2.276 -0.5685  0.1034 -1.4273
40263SOL    HW226882   3.338   6.236   2.205 -1.3972 -1.3103  1.2198
40264SOL     OW26883   1.312   1.123   3.708 -0.1349 -0.1865  0.0208
40264SOL    HW126884   1.350   1.208   3.685  0.8398 -0.5962  0.0500
40264SOL    HW226885   1.341   1.108   3.799  1.1486 -1.3041 -0.5390
40265SOL     OW26886   4.302  10.671   2.274 -0.1078  0.2129  0.7022
40265SOL    HW126887   4.238  10.654   2.205  1.6315 -0.6556 -0.7786
40265SOL    HW226888   4.357  10.593   2.276  1.7665  1.4690  0.9143
40266SOL     OW26889   4.124  10.402   0.865 -0.4237  0.5064 -0.1593
40266SOL    HW126890   4.056  10.422   0.929  0.5169 -0.0954  1.0754
40266SOL    HW226891   4.206  10.426   0.908  0.1913  0.9137 -1.4862
40267SOL     OW26892   8.246   9.995   8.535  0.1360  0.2030 -0.6892
40267SOL    HW126893   8.292   9.987   8.618 -0.6476 -0.7635 -0.3263
40267SOL    HW226894   8.153   9.998   8.558 -0.0794  0.1634 -1.5109
40268SOL     OW26895   9.353   8.480   5.886  0.0207  0.0575 -0.6489
40268SOL    HW126896   9.418   8.520   5.828  0.1909 -0.8321 -1.0895
40268SOL    HW226897   9.335   8.395   5.846 -1.7012  0.4270 -0.7416
40269SOL     OW26898   4.193   3.422   3.718  0.0656  0.3515  0.5258
40269SOL    HW126899   4.210   3.329   3.732  0.3944  0.4678  0.9095
40269SOL    HW226900   4.134   3.425   3.642 -0.5671 -0.2009  0.9899
40270SOL     OW26901   1.902   2.583   8.933  0.3792  0.1632 -0.1734
40270SOL    HW126902   1.882   2.637   9.009 -1.1201  2.2681 -1.9719
40270SOL    HW226903   1.825   2.528   8.921  1.5035 -1.8156  1.0562
40271SOL     OW26904   7.054   3.497  10.912 -0.0077  0.5237  0.2257
40271SOL    HW126905   7.074   3.445  10.835  0.3956 -0.9324  1.2728
40271SOL    HW226906   7.113   3.464  10.980 -2.7659 -0.8407  2.1767
40272SOL     OW26907   4.551  10.776   8.702  0.5083  0.1080  0.6178
40272SOL    HW126908   4.475  10.802   8.754 -0.1224 -0.1361 -0.1594
40272SOL    HW226909   4.602  10.720   8.761 -0.6227 -0.8569  0.7110
40273SOL     OW26910   9.406   5.235   5.019 -0.5534  0.2798 -0.1947
40273SOL    HW126911   9.496   5.242   5.050 -0.6166  1.4058 -0.2526
40273SOL    HW226912   9.382   5.144   5.038  0.2403  0.2490  0.7554
40274SOL     OW26913   4.982   8.562   0.823 -0.1955  0.2475  0.2862
40274SOL    HW126914   4.981   8.617   0.901  0.9019 -1.2463  1.4243
40274SOL    HW226915   4.907   8.504   0.834  1.4465 -1.7657  1.6912
40275SOL     OW26916   2.781   3.066   7.828 -0.1539  0.5375 -0.3696
40275SOL    HW126917   2.711   3.060   7.763 -0.6375  0.4628  0.1569
40275SOL    HW226918   2.855   3.104   7.779 -0.7365  1.1603 -0.7866
40276SOL     OW26919   1.398   0.028   5.613 -0.0419  0.0993 -0.1697
40276SOL    HW126920   1.333   0.087   5.575  0.0498  2.2529  2.7235
40276SOL    HW226921   1.483   0.066   5.589  0.1498 -1.0179 -1.3934
40277SOL     OW26922   4.904   4.513  10.163  0.2699  0.4649  0.4810
40277SOL    HW126923   4.868   4.453  10.098  2.3068 -1.4625  0.9853
40277SOL    HW226924   4.966   4.566  10.114 -0.3736  1.0732  0.3211
40278SOL     OW26925   0.364   1.142   8.906  0.0042 -0.1535  0.2246
40278SOL    HW126926   0.359   1.075   8.838  1.4614  1.4450 -1.5739
40278SOL    HW226927   0.274   1.174   8.914 -0.2759 -0.6765 -0.6679
40279SOL     OW26928   7.284   3.450   1.086  0.4635  0.1360 -0.2308
40279SOL    HW126929   7.209   3.488   1.039  0.8971  2.1672  0.6025
40279SOL    HW226930   7.354   3.515   1.076  1.9268 -1.3907 -0.3833
40280SOL     OW26931   7.088   9.974   2.678  0.3077  0.0499  0.1529
40280SOL    HW126932   7.128  10.061   2.678 -1.3940  0.8801  0.6083
40280SOL    HW226933   7.121   9.932   2.598  0.6825  1.3433 -0.3952
40281SOL     OW26934   8.126   6.986   6.446  0.1286 -0.1123 -0.2867
40281SOL    HW126935   8.094   6.992   6.356  0.3209 -0.2961 -0.3658
40281SOL    HW226936   8.062   7.036   6.497 -0.7930 -1.2413 -0.3116
40282SOL     OW26937   8.519   5.100   9.998  0.5325 -0.0556 -0.5028
40282SOL    HW126938   8.500   5.162   9.928  0.4223 -0.0798 -0.4950
40282SOL    HW226939   8.489   5.015   9.964 -0.3786  0.0791 -0.0672
40283SOL     OW26940   4.090   8.034   1.001  0.0670 -0.3848  0.6690
40283SOL    HW126941   4.062   8.125   1.005  1.6996  0.2503 -0.8231
40283SOL    HW226942   4.010   7.984   1.017 -0.8985  1.2857  1.3807
40284SOL     OW26943   3.735   6.469   9.344 -0.3434  1.2093  0.6180
40284SOL    HW126944   3.707   6.487   9.434 -1.0709  0.8369  0.4740
40284SOL    HW226945   3.829   6.489   9.344  0.0536 -0.4362  1.9249
40285SOL     OW26946   4.942   0.156  10.823  0.0162  0.0859 -0.2950
40285SOL    HW126947   4.906   0.154  10.911  0.6497 -1.0539 -0.0453
40285SOL    HW226948   5.018   0.099  10.826 -1.5588 -2.3297 -2.2687
40286SOL     OW26949   6.921  10.051   5.303  0.2989 -0.0104  0.6471
40286SOL    HW126950   6.938  10.146   5.302 -0.5538  0.1482 -0.3355
40286SOL    HW226951   6.944  10.024   5.392 -0.4001  1.2959  1.2574
40287SOL     OW26952   1.769   7.724   2.568  0.1515 -0.3563 -0.0953
40287SOL    HW126953   1.794   7.711   2.660 -0.8545  0.4344  0.3148
40287SOL    HW226954   1.680   7.691   2.563  0.6348 -1.5787 -1.1210
40288SOL     OW26955   1.552   9.478   3.761  1.0559  0.1383  0.1056
40288SOL    HW126956   1.534   9.563   3.722  1.3046  0.1163 -0.0621
40288SOL    HW226957   1.602   9.431   3.693 -0.5545 -0.7767 -0.5043
40289SOL     OW26958   0.321   2.475   7.163 -0.2551  0.2824 -0.7236
40289SOL    HW126959   0.329   2.382   7.141 -0.0080 -0.6385  2.7615
40289SOL    HW226960   0.411   2.506   7.169 -0.0712 -0.5957  2.7576
40290SOL     OW26961   3.624   6.798   5.218  0.2641 -0.6528 -0.2202
40290SOL    HW126962   3.581   6.826   5.300  1.7487 -0.1678  0.4270
40290SOL    HW226963   3.657   6.879   5.180  1.1093 -1.0813 -0.4088
40291SOL     OW26964   4.266   5.106   6.480  0.2357  0.1608  0.1216
40291SOL    HW126965   4.235   5.103   6.570  1.2244  0.2374  0.4761
40291SOL    HW226966   4.187   5.090   6.427 -0.8169  2.4094  0.8781
40292SOL     OW26967   9.124   6.074   1.607 -0.3332 -0.1029  0.5157
40292SOL    HW126968   9.147   6.134   1.536  0.4483 -1.7581 -0.6986
40292SOL    HW226969   9.207   6.049   1.646 -0.6438 -0.4262  0.9847
40293SOL     OW26970   7.555   1.306   8.406 -0.3066 -0.7934 -0.2048
40293SOL    HW126971   7.567   1.366   8.480  0.9786 -0.9679 -0.2526
40293SOL    HW226972   7.543   1.364   8.331 -0.7001 -0.6149 -0.0125
40294SOL     OW26973   7.708   8.014   9.299  0.3271  0.2513 -0.3167
40294SOL    HW126974   7.726   8.047   9.211  1.8745  0.1237 -0.0842
40294SOL    HW226975   7.620   8.044   9.318 -0.1280  0.1058 -1.9827
40295SOL     OW26976  10.345   0.486   4.703 -0.1545  0.1620 -0.2956
40295SOL    HW126977  10.380   0.406   4.743 -0.2034  0.1249 -0.3272
40295SOL    HW226978  10.352   0.552   4.772  1.1825  0.4802 -0.6981
40296SOL     OW26979   7.910   1.122   4.807  0.3129 -0.2408 -0.5526
40296SOL    HW126980   7.878   1.046   4.758  1.8073 -1.2078 -0.1084
40296SOL    HW226981   7.960   1.172   4.744  1.0967 -0.7664 -0.3637
40297SOL     OW26982   7.468   8.366   2.666  0.4815 -0.7381 -0.3038
40297SOL    HW126983   7.526   8.443   2.668 -1.2408  0.6009  0.5732
40297SOL    HW226984   7.384   8.400   2.635 -1.0253 -1.7143  2.3912
40298SOL     OW26985   1.993   1.711   0.268  0.4461 -0.1120  0.0238
40298SOL    HW126986   1.943   1.764   0.205 -0.2264 -1.0555 -0.2542
40298SOL    HW226987   2.083   1.713   0.234  0.2309 -0.0002 -0.5522
40299SOL     OW26988  10.283   1.747   5.732  0.1503 -0.1432 -0.0671
40299SOL    HW126989  10.318   1.658   5.728 -0.0797 -0.3118  1.1362
40299SOL    HW226990  10.262   1.759   5.825  1.4521  1.6528  0.0432
40300SOL     OW26991   2.163   2.013   7.409  0.5314 -0.2463 -0.0851
40300SOL    HW126992   2.175   2.045   7.319 -0.9321  0.3652 -0.0842
40300SOL    HW226993   2.215   2.074   7.462  1.3858 -0.5958 -0.4919
40301SOL     OW26994   8.583   0.898   2.311 -0.1257  0.0436 -0.2974
40301SOL    HW126995   8.645   0.858   2.370 -0.3323  0.5520  0.2749
40301SOL    HW226996   8.553   0.977   2.357  0.4733  1.0027 -1.4877
40302SOL     OW26997   8.955   4.875   2.899 -0.0826 -0.1724 -0.1425
40302SOL    HW126998   8.998   4.941   2.953  0.3450  0.5821 -1.3615
40302SOL    HW226999   8.861   4.890   2.914  0.0374 -0.4479  0.9216
40303SOL     OW27000   4.971   5.800   0.785  0.0092  0.4191  0.0713
40303SOL    HW127001   4.896   5.859   0.782  0.0345  0.4301 -0.3166
40303SOL    HW227002   5.034   5.845   0.842 -1.0236 -0.4782  2.0060
40304SOL     OW27003   4.617  10.793   5.404  0.5124  0.1406 -0.3780
40304SOL    HW127004   4.693  10.802   5.462 -0.1011  1.7367  0.2598
40304SOL    HW227005   4.653  10.758   5.323  1.6402 -0.7408  0.4582
40305SOL     OW27006   9.374   2.817   2.747 -0.4351  0.2634  0.3049
40305SOL    HW127007   9.465   2.832   2.723 -0.4385  0.2587  0.2895
40305SOL    HW227008   9.331   2.902   2.736 -0.1272  0.6254  1.7261
40306SOL     OW27009   4.608  10.136   9.289 -0.0687  0.6122 -0.1391
40306SOL    HW127010   4.606  10.040   9.286 -0.0055  0.6380 -1.1904
40306SOL    HW227011   4.609  10.156   9.383  1.0593 -0.4336  0.1104
40307SOL     OW27012   0.494   8.266   7.288 -0.2412  0.2875 -0.1407
40307SOL    HW127013   0.526   8.297   7.203 -1.5411 -0.6618 -1.0154
40307SOL    HW227014   0.562   8.207   7.319  0.1168  0.4134 -0.6649
40308SOL     OW27015   0.731   6.116   8.372  0.0287 -0.2460  0.6302
40308SOL    HW127016   0.729   6.137   8.279  3.7608 -0.0025  0.4464
40308SOL    HW227017   0.654   6.061   8.386 -0.1943 -1.0355 -2.7845
40309SOL     OW27018   4.741   6.709   2.865  0.0066  0.0425 -0.0596
40309SOL    HW127019   4.649   6.701   2.892  0.2839  1.0594  1.2620
40309SOL    HW227020   4.781   6.765   2.932  1.5246 -0.1340 -0.7882
40310SOL     OW27021   1.996   6.203   2.001  0.1232 -0.5017 -0.5352
40310SOL    HW127022   1.919   6.245   1.961 -0.8452  0.2118  1.8688
40310SOL    HW227023   1.959   6.133   2.056  1.0765  0.2188  1.1027
40311SOL     OW27024   9.874   3.484   0.976  0.0097 -0.6099 -0.0734
40311SOL    HW127025   9.873   3.563   1.030 -1.5060 -0.1857 -0.6984
40311SOL    HW227026   9.873   3.412   1.040 -0.6034 -0.1163  0.4831
40312SOL     OW27027   6.790   9.741   4.773  0.4816  0.3586 -0.0751
40312SOL    HW127028   6.716   9.707   4.824  0.9051 -0.1277  0.2318
40312SOL    HW227029   6.769   9.833   4.758 -1.2759 -0.2903 -1.9729
40313SOL     OW27030   6.854   1.710   1.297  0.4215  0.1958  0.3119
40313SOL    HW127031   6.837   1.632   1.350  0.5552  0.0491  0.1442
40313SOL    HW227032   6.859   1.676   1.207 -3.2002  0.8703 -0.2831
40314SOL     OW27033   9.517   4.339   6.334 -0.5023  0.1524  0.4870
40314SOL    HW127034   9.494   4.251   6.364  0.3632  0.1697  1.2355
40314SOL    HW227035   9.464   4.397   6.389  0.2402  0.1460  1.2295
40315SOL     OW27036  10.405   7.559   5.369 -0.1677  0.6506 -0.1815
40315SOL    HW127037  10.365   7.474   5.354 -0.7697  0.8768  0.1125
40315SOL    HW227038  10.459   7.574   5.291  1.3059 -0.7450  0.5121
40316SOL     OW27039   1.109   7.651   3.541 -0.9926  0.3026 -0.2630
40316SOL    HW127040   1.195   7.635   3.581 -1.7007 -1.3875  0.7145
40316SOL    HW227041   1.072   7.723   3.593 -1.7295 -1.5961  1.9939
40317SOL     OW27042   1.861   7.179   4.719  0.0643  0.2548  0.4747
40317SOL    HW127043   1.819   7.179   4.633  0.3386  1.6893  0.3218
40317SOL    HW227044   1.919   7.255   4.717  0.0841  0.2945  1.9366
40318SOL     OW27045   5.400   5.009   6.179  0.0710 -0.2965  0.6708
40318SOL    HW127046   5.346   4.981   6.252 -0.6478  1.3421  0.8097
40318SOL    HW227047   5.488   4.977   6.201 -0.4299 -1.1743  1.4642
40319SOL     OW27048   8.002   1.728   2.798 -0.5046  0.2409 -0.1080
40319SOL    HW127049   7.985   1.674   2.875 -3.1860  1.2901  0.1252
40319SOL    HW227050   8.025   1.666   2.730 -2.6505 -1.1728  0.3770
40320SOL     OW27051   6.254   9.953   5.554 -0.6862 -0.3937 -0.0075
40320SOL    HW127052   6.275   9.871   5.600 -0.6380 -0.0087  0.6687
40320SOL    HW227053   6.184   9.992   5.606 -0.4663  0.1657 -0.1273
40321SOL     OW27054   0.745   7.877   7.642 -0.7274  0.3177 -0.1543
40321SOL    HW127055   0.698   7.896   7.722 -1.5311 -0.2406 -0.4837
40321SOL    HW227056   0.687   7.820   7.592 -0.3702  0.8788 -1.2614
40322SOL     OW27057   3.108  10.189   0.190  0.3432 -0.2765  0.4973
40322SOL    HW127058   3.193  10.193   0.145 -0.6284  0.7305 -1.3382
40322SOL    HW227059   3.131  10.190   0.283  2.3327  0.6260  0.0595
40323SOL     OW27060   2.784   1.586   2.546 -0.3025  0.2263  0.0046
40323SOL    HW127061   2.787   1.656   2.480 -1.2988  0.6122  0.3502
40323SOL    HW227062   2.691   1.571   2.561 -0.1185 -1.3712 -0.2424
40324SOL     OW27063   4.786   0.549   0.926  0.0278 -0.2400  0.2241
40324SOL    HW127064   4.855   0.609   0.898  0.1226 -1.4764 -2.4071
40324SOL    HW227065   4.833   0.477   0.968  0.0835  0.2727  1.0770
40325SOL     OW27066   1.107   3.584   2.955  0.1781 -0.2392  0.3710
40325SOL    HW127067   1.090   3.545   2.869 -0.0329 -0.9345  0.7165
40325SOL    HW227068   1.193   3.552   2.980  1.5821  2.2808 -0.8215
40326SOL     OW27069   0.955  10.647  10.760  0.0544 -0.1793 -0.1153
40326SOL    HW127070   0.895  10.628  10.832  1.3923  1.0704  1.4015
40326SOL    HW227071   0.951  10.742  10.750  0.3218 -0.2769 -1.3298
40327SOL     OW27072  10.663   6.682   2.709 -0.0797 -0.5451 -0.2692
40327SOL    HW127073  10.636   6.707   2.798 -1.2697 -1.9623 -0.1886
40327SOL    HW227074  10.752   6.716   2.700 -0.9836  2.2394  0.3696
40328SOL     OW27075   5.542   2.752   8.957 -0.5005  0.7509  0.2980
40328SOL    HW127076   5.612   2.717   9.012  0.8784  0.2189 -1.6977
40328SOL    HW227077   5.490   2.807   9.016  0.6397 -0.1103  2.2008
40329SOL     OW27078   4.263   5.169   1.101  0.3358 -0.4717 -0.4541
40329SOL    HW127079   4.249   5.251   1.053  0.3197 -0.1153  0.1576
40329SOL    HW227080   4.265   5.194   1.193  0.8975 -1.0843 -0.2889
40330SOL     OW27081   8.716   6.632   4.567  0.8575 -0.2131  0.6512
40330SOL    HW127082   8.642   6.595   4.615  1.3051 -1.2780  0.5417
40330SOL    HW227083   8.704   6.600   4.477  0.1007  1.6397  0.0275
40331SOL     OW27084   6.094   2.084   6.511  0.0363  0.1166  0.0270
40331SOL    HW127085   6.030   2.154   6.520  0.1394  0.1334  0.6649
40331SOL    HW227086   6.045   2.012   6.471 -0.0461  0.5776 -0.7093
40332SOL     OW27087   9.922   3.198   8.543 -0.8944 -0.2899 -0.1921
40332SOL    HW127088   9.999   3.234   8.498 -0.1549  0.9143  1.9147
40332SOL    HW227089   9.907   3.114   8.500  1.6589 -0.6003 -0.6566
40333SOL     OW27090   7.158   7.718   0.548 -0.1353 -0.3350 -0.0074
40333SOL    HW127091   7.157   7.770   0.468 -1.2079  0.8898  0.7722
40333SOL    HW227092   7.249   7.720   0.576  0.0530  0.1178 -0.6247
40334SOL     OW27093   0.507  10.208   9.654  0.0120 -0.4748  0.0787
40334SOL    HW127094   0.513  10.249   9.741  0.2618  1.9598 -0.9932
40334SOL    HW227095   0.521  10.115   9.670  1.1366  0.0314  2.5244
40335SOL     OW27096   9.487   8.282   0.019  0.0562  0.4467  0.9887
40335SOL    HW127097   9.426   8.209   0.009  0.3964  0.3737 -1.1447
40335SOL    HW227098   9.570   8.241   0.045  0.5839 -0.1587 -1.4218
40336SOL     OW27099   6.684   0.028   1.663 -0.0388 -0.1376 -0.3818
40336SOL    HW127100   6.668  -0.065   1.647 -0.0789  0.2455 -2.8781
40336SOL    HW227101   6.620   0.074   1.609  0.1904  1.3723  0.5612
40337SOL     OW27102   3.885   6.971   8.568  0.1631  0.3661 -0.1838
40337SOL    HW127103   3.790   6.976   8.555  0.0983 -0.9499 -0.3337
40337SOL    HW227104   3.902   7.023   8.646 -0.4007  2.3499 -1.3078
40338SOL     OW27105   0.565   9.429   4.851 -0.2807 -0.4612  0.5455
40338SOL    HW127106   0.508   9.474   4.913 -0.6056 -1.8550  1.3005
40338SOL    HW227107   0.645   9.411   4.901 -0.3473 -1.1488  0.4143
40339SOL     OW27108   3.643   6.523   7.897  1.3021 -0.0987  0.5025
40339SOL    HW127109   3.735   6.496   7.896  1.3066 -0.4552 -3.1956
40339SOL    HW227110   3.625   6.549   7.807 -2.3276 -0.2891  1.0351
40340SOL     OW27111   1.875   7.714   4.373  0.0022  0.8600 -0.3132
40340SOL    HW127112   1.829   7.738   4.453  1.8704  0.9349  0.8138
40340SOL    HW227113   1.881   7.796   4.323  0.0126  1.1165  0.1083
40341SOL     OW27114   7.883   7.571   6.619 -0.0480  0.1593 -0.4775
40341SOL    HW127115   7.908   7.515   6.545 -0.9419 -0.1984 -0.5301
40341SOL    HW227116   7.954   7.561   6.682  1.1618  1.1460 -1.6245
40342SOL     OW27117   5.972   2.469   7.920 -0.1506 -0.2348  0.6930
40342SOL    HW127118   5.989   2.553   7.876 -0.5444  1.4099  3.4503
40342SOL    HW227119   6.044   2.413   7.893  1.5401  1.8162  0.6611
40343SOL     OW27120   1.313   2.144   7.505  0.1043 -0.4199  0.0891
40343SOL    HW127121   1.268   2.178   7.582  1.6925 -0.4064  1.0360
40343SOL    HW227122   1.280   2.054   7.496 -1.3407  0.1155 -0.2429
40344SOL     OW27123   9.072   1.257   8.926  0.2292  0.0435 -0.0519
40344SOL    HW127124   9.099   1.280   9.015 -0.0446  0.1450  0.0055
40344SOL    HW227125   8.994   1.202   8.938 -0.6044  1.1449 -0.2626
40345SOL     OW27126   0.182   9.143   9.086 -0.0489  0.0238 -0.2400
40345SOL    HW127127   0.129   9.064   9.076  0.4062 -0.3334  0.0958
40345SOL    HW227128   0.228   9.152   9.003 -0.6044  0.3224 -0.5240
40346SOL     OW27129  10.438   2.289   8.166  0.0515  0.3404 -0.1772
40346SOL    HW127130  10.363   2.259   8.115  0.4818 -0.2290 -0.4868
40346SOL    HW227131  10.400   2.334   8.241 -0.5961 -0.0207 -0.2845
40347SOL     OW27132   1.124   4.464   6.535  0.4593 -0.7084 -0.0631
40347SOL    HW127133   1.111   4.500   6.623  0.8556 -0.3177 -0.1608
40347SOL    HW227134   1.172   4.383   6.549  3.3872  0.8731 -0.0790
40348SOL     OW27135   4.161   6.902   6.949 -0.4296  0.0892  0.4931
40348SOL    HW127136   4.159   6.910   6.854  1.7721 -1.6878  0.1985
40348SOL    HW227137   4.104   6.972   6.981 -1.0867  0.8391 -2.1036
40349SOL     OW27138   4.315   9.928   7.276 -0.8574  0.3994 -0.5104
40349SOL    HW127139   4.269   9.946   7.358 -1.7655 -0.3017 -0.8377
40349SOL    HW227140   4.349  10.012   7.247  0.9176  0.4164  1.4032
40350SOL     OW27141   0.133   5.078   6.664  0.4706  0.4138 -0.1827
40350SOL    HW127142   0.191   5.109   6.733 -0.3756  0.1304  0.6674
40350SOL    HW227143   0.184   5.010   6.619  1.1748  0.8846 -0.1201
40351SOL     OW27144   2.665   3.318   6.591  0.0445 -0.0659 -0.0220
40351SOL    HW127145   2.682   3.405   6.557 -0.1542  0.2237  0.6095
40351SOL    HW227146   2.740   3.266   6.563  0.1733  0.3080 -0.3795
40352SOL     OW27147   6.562   5.742   0.002  0.0688 -0.2626 -0.2600
40352SOL    HW127148   6.505   5.789  -0.059  0.1200  0.2704  0.0930
40352SOL    HW227149   6.650   5.754  -0.032  0.0343 -0.5320 -0.4465
40353SOL     OW27150   6.044   7.834   6.189 -0.0019 -0.1103 -0.5539
40353SOL    HW127151   6.109   7.891   6.230 -0.0001  0.4081 -1.2689
40353SOL    HW227152   5.991   7.802   6.263 -0.0271  0.8362 -0.1482
40354SOL     OW27153   0.001   5.538   2.555 -0.2229 -0.3536  0.0024
40354SOL    HW127154  -0.055   5.572   2.625 -3.3887  1.0716 -2.9195
40354SOL    HW227155  -0.050   5.468   2.516  2.6236 -2.9831  0.5826
40355SOL     OW27156   1.052   2.732   6.389 -0.2289  0.0830 -0.1691
40355SOL    HW127157   0.992   2.802   6.415  1.3970  1.7218 -0.7027
40355SOL    HW227158   1.111   2.772   6.325  0.1260 -2.0582 -1.2725
40356SOL     OW27159   4.286   5.963   6.272 -0.2801 -0.4727  0.1093
40356SOL    HW127160   4.267   5.994   6.183 -0.1470  0.7349  0.4797
40356SOL    HW227161   4.358   6.020   6.301 -1.0397 -0.1339  1.3790
40357SOL     OW27162   4.777   8.713  10.241 -0.2927  0.0431 -0.6233
40357SOL    HW127163   4.825   8.785  10.199  0.0573  0.3836  0.3226
40357SOL    HW227164   4.695   8.753  10.271 -1.1895 -0.5349 -2.2245
40358SOL     OW27165  10.687   9.754   3.788  0.3037 -0.2798 -0.0591
40358SOL    HW127166  10.655   9.746   3.698  0.7236 -0.6696 -0.1735
40358SOL    HW227167  10.754   9.823   3.784 -1.3579  1.4546  0.4118
40359SOL     OW27168   3.534   2.836   2.550 -0.0852  0.2086  0.1658
40359SOL    HW127169   3.606   2.898   2.556  2.2352 -2.0705 -1.6281
40359SOL    HW227170   3.482   2.867   2.475  0.4770  0.5128 -0.1041
40360SOL     OW27171   5.421   2.646   0.514 -0.0503 -0.2199 -0.5516
40360SOL    HW127172   5.404   2.687   0.599 -0.2037 -0.9339 -0.2317
40360SOL    HW227173   5.446   2.719   0.457 -0.0311  0.2782  0.0811
40361SOL     OW27174   0.867   7.800   0.167 -0.1904  0.2692 -0.2626
40361SOL    HW127175   0.776   7.777   0.188 -0.3188 -0.8665 -1.8394
40361SOL    HW227176   0.860   7.876   0.110 -0.2017 -0.0753 -0.7320
40362SOL     OW27177  10.802  10.912   0.028 -0.1030 -0.4818 -0.4958
40362SOL    HW127178  10.881  10.956   0.060  1.0010 -1.7978 -1.3073
40362SOL    HW227179  10.791  10.947  -0.061  0.5013 -1.4232 -0.9630
40363SOL     OW27180   9.804   9.322   4.443 -0.1984  0.4008 -0.4081
40363SOL    HW127181   9.774   9.271   4.518  0.6860 -0.6570 -0.7518
40363SOL    HW227182   9.740   9.394   4.436 -2.2879 -1.3822 -0.7310
40364SOL     OW27183   8.973   8.004   3.055 -0.9291 -0.6247 -0.0644
40364SOL    HW127184   8.887   8.043   3.042 -1.3534 -2.0457 -1.9862
40364SOL    HW227185   8.954   7.916   3.089 -0.1996 -0.7377  0.0629
40365SOL     OW27186  10.281   7.650   0.702 -0.2338 -0.6393  0.6336
40365SOL    HW127187  10.246   7.577   0.650  0.7326 -0.6641 -0.0130
40365SOL    HW227188  10.310   7.610   0.783 -0.2923 -0.8676  0.5426
40366SOL     OW27189   1.612   7.330   2.564 -0.3687 -0.4778  0.1102
40366SOL    HW127190   1.580   7.334   2.473  0.0033  0.1813  0.0025
40366SOL    HW227191   1.707   7.328   2.555 -0.2629  1.3403  0.5176
40367SOL     OW27192   7.838   8.876   1.137 -0.2884  0.5038 -0.3262
40367SOL    HW127193   7.814   8.801   1.191  1.0028  0.2670 -0.0646
40367SOL    HW227194   7.794   8.860   1.053  2.1849 -2.0598 -1.3009
40368SOL     OW27195   3.982  10.527   0.377  0.2513  0.0117 -0.2950
40368SOL    HW127196   4.050  10.587   0.411 -0.0037  0.6315 -0.8521
40368SOL    HW227197   4.013  10.504   0.289 -0.8572  1.3137 -1.0675
40369SOL     OW27198   3.453   7.646   7.610 -0.4805 -0.8611 -0.2428
40369SOL    HW127199   3.462   7.649   7.515  0.5709 -0.2082 -0.1466
40369SOL    HW227200   3.498   7.725   7.641 -1.7188 -0.5042  0.7484
40370SOL     OW27201   1.009   8.187   3.506  0.1200 -0.3305  0.0138
40370SOL    HW127202   1.062   8.163   3.429 -0.8904  0.0092 -0.8111
40370SOL    HW227203   1.073   8.196   3.576  1.2358  0.5666 -1.0644
40371SOL     OW27204   9.279   1.897   3.381 -0.1870 -0.1128 -0.0240
40371SOL    HW127205   9.266   1.831   3.313 -1.6629 -1.0561  1.1220
40371SOL    HW227206   9.335   1.854   3.446 -0.1618  0.1956  0.1631
40372SOL     OW27207   7.548   9.197   9.577 -0.3397  0.6659 -0.0288
40372SOL    HW127208   7.521   9.230   9.491  0.4130  1.7524  0.1288
40372SOL    HW227209   7.593   9.271   9.618  1.1355 -0.4564  0.4821
40373SOL     OW27210   0.406   7.205   1.173 -0.1629  0.2448  0.0272
40373SOL    HW127211   0.339   7.203   1.105 -0.8026  1.9874  0.5653
40373SOL    HW227212   0.371   7.262   1.241  0.4088 -1.4970  1.9174
40374SOL     OW27213   5.059   7.375   4.877 -0.4785  0.2160 -0.4070
40374SOL    HW127214   5.061   7.444   4.942  0.7476 -1.3922  1.3629
40374SOL    HW227215   5.127   7.400   4.813  0.8486  0.0728  0.8932
40375SOL     OW27216   5.918   7.727   9.916 -0.1547 -0.1359  0.1192
40375SOL    HW127217   5.978   7.665   9.958 -2.5332 -1.7244  1.3813
40375SOL    HW227218   5.873   7.675   9.850 -1.3134  0.5714  0.3337
40376SOL     OW27219   4.416   4.366   1.316 -1.0780  0.0115  0.2161
40376SOL    HW127220   4.404   4.435   1.251 -0.5791  0.3017  0.4234
40376SOL    HW227221   4.406   4.411   1.400  0.6397  0.1370  0.3930
40377SOL     OW27222   7.356   6.919   1.493 -0.3477  0.2448 -0.1375
40377SOL    HW127223   7.387   6.876   1.413 -1.1170 -1.5920  0.4925
40377SOL    HW227224   7.292   6.983   1.463 -0.3202 -0.1304 -1.0244
40378SOL     OW27225   3.500   9.025   3.712  0.3146  0.2320  0.1307
40378SOL    HW127226   3.523   9.051   3.623  0.3088 -0.6433 -0.1390
40378SOL    HW227227   3.566   8.960   3.735  0.9058  1.1590  1.1443
40379SOL     OW27228   6.412   9.602  10.199 -0.3099  0.3033 -0.7044
40379SOL    HW127229   6.349   9.533  10.179  0.3405  0.1067 -2.1385
40379SOL    HW227230   6.497   9.560  10.191  0.1006  1.3285 -1.8856
40380SOL     OW27231   6.263   7.693   8.637 -0.0170 -0.1925 -0.1469
40380SOL    HW127232   6.266   7.598   8.650 -0.7204 -0.0882  0.8904
40380SOL    HW227233   6.354   7.718   8.620 -0.1547 -1.4384 -3.6617
40381SOL     OW27234   7.077   3.523   0.868  0.5793  0.6997  0.1548
40381SOL    HW127235   7.050   3.475   0.790  1.5207 -1.5550  1.1293
40381SOL    HW227236   7.133   3.593   0.836  0.2298  0.3628 -1.2365
40382SOL     OW27237   9.016   8.587   1.917  0.3557  0.1612  0.2122
40382SOL    HW127238   9.021   8.682   1.908 -0.7830  0.3246  1.0379
40382SOL    HW227239   8.923   8.567   1.911  0.6870 -1.1416 -1.8271
40383SOL     OW27240   1.351   3.346   9.120 -0.0390 -0.2000 -0.1094
40383SOL    HW127241   1.417   3.332   9.052 -2.2526 -2.2411 -1.9955
40383SOL    HW227242   1.329   3.258   9.151  1.6421  0.6774  4.1809
40384SOL     OW27243   3.227   3.459   7.044 -0.0420 -0.0618  0.9420
40384SOL    HW127244   3.155   3.493   7.098 -0.0635 -0.3379  1.0895
40384SOL    HW227245   3.306   3.477   7.095  0.0912  1.1313  0.3369
40385SOL     OW27246   5.157   8.331  10.425  0.5089 -0.5408 -0.2001
40385SOL    HW127247   5.159   8.248  10.472 -0.3378 -0.5323 -0.1190
40385SOL    HW227248   5.141   8.306  10.334 -2.3942 -0.4204  0.1723
40386SOL     OW27249  10.507   8.837   9.656 -0.0224 -0.1090  0.4787
40386SOL    HW127250  10.419   8.849   9.621  0.5367  0.6088 -0.7689
40386SOL    HW227251  10.514   8.901   9.727 -0.5248 -0.2198  0.6276
40387SOL     OW27252  10.294   0.388   5.450  0.6042 -0.1019  0.1914
40387SOL    HW127253  10.278   0.437   5.370  0.1167 -0.0405  0.3254
40387SOL    HW227254  10.386   0.363   5.444  0.3363 -0.8815 -0.8092
40388SOL     OW27255   3.470   4.746   4.514 -1.0055 -0.0552  0.4686
40388SOL    HW127256   3.445   4.750   4.421 -1.0621  0.5110  0.5079
40388SOL    HW227257   3.528   4.670   4.519 -1.9331 -0.8146  0.1890
40389SOL     OW27258   7.835   0.265   2.436 -0.2699  0.4567  0.0522
40389SOL    HW127259   7.782   0.233   2.363 -0.2301 -2.0949  1.0198
40389SOL    HW227260   7.808   0.355   2.448 -1.7440  0.3286 -1.7979
40390SOL     OW27261   4.877   4.568   7.868 -0.2854 -0.1482 -0.1345
40390SOL    HW127262   4.931   4.505   7.820 -0.6835  1.7078 -3.2994
40390SOL    HW227263   4.790   4.527   7.871  0.1818 -1.1356  0.8570
40391SOL     OW27264   4.468   5.697   9.891  0.0428  0.6519  0.0138
40391SOL    HW127265   4.448   5.607   9.862  0.4103  0.0103  1.6491
40391SOL    HW227266   4.399   5.718   9.953 -1.0624  2.2311 -1.6253
40392SOL     OW27267   2.936   6.222   0.821  0.4780 -0.0029  0.2985
40392SOL    HW127268   2.960   6.165   0.894 -0.6652 -0.8431  0.0431
40392SOL    HW227269   2.953   6.310   0.853  1.6373 -0.4281  0.9454
40393SOL     OW27270   2.742   4.546   8.189 -0.5911 -0.2230  0.3352
40393SOL    HW127271   2.725   4.452   8.179 -1.2647 -0.0752  0.0070
40393SOL    HW227272   2.655   4.586   8.187 -0.2448  0.7528 -3.3244
40394SOL     OW27273   5.802   5.621   1.911 -0.1972 -0.5050  0.1282
40394SOL    HW127274   5.835   5.544   1.864 -0.1642 -1.9121  2.3401
40394SOL    HW227275   5.727   5.650   1.859  0.0109 -1.7895 -0.9472
40395SOL     OW27276   0.294   4.334   8.899 -0.1991 -0.5424  0.1697
40395SOL    HW127277   0.209   4.290   8.905 -0.2402 -0.5217 -0.2298
40395SOL    HW227278   0.317   4.329   8.806  0.5515 -1.1404  0.3744
40396SOL     OW27279   0.026   1.919   4.111  0.3108 -0.0787 -0.8112
40396SOL    HW127280   0.075   1.884   4.036 -0.3262 -0.7283 -0.9387
40396SOL    HW227281   0.079   1.897   4.187  0.3452 -0.5561 -0.9687
40397SOL     OW27282   4.941   7.544   6.329  0.1006  0.0372 -0.7665
40397SOL    HW127283   4.986   7.587   6.256 -0.1813  1.2603 -0.2310
40397SOL    HW227284   4.848   7.552   6.309  0.0436 -0.4798 -0.7385
40398SOL     OW27285   5.756   2.298   3.476 -0.4567  0.4587  0.3329
40398SOL    HW127286   5.709   2.342   3.405 -3.4988 -0.9467  1.3390
40398SOL    HW227287   5.729   2.207   3.470  0.4363  0.0123  2.3632
40399SOL     OW27288   5.215   1.311   3.281  0.7102 -1.1898 -0.1703
40399SOL    HW127289   5.283   1.349   3.225  0.1283 -1.0360 -0.7859
40399SOL    HW227290   5.209   1.219   3.253 -0.5029 -0.7941 -1.3091
40400SOL     OW27291   8.007   3.153   6.118  0.0484  0.0772 -0.1343
40400SOL    HW127292   8.021   3.120   6.207 -2.0245  0.8585  0.5449
40400SOL    HW227293   7.973   3.078   6.069  1.2277 -0.3635 -0.3151
40401SOL     OW27294   0.153   9.833   7.404  0.2991  0.3780  0.1197
40401SOL    HW127295   0.154   9.748   7.360 -1.1928 -0.0959  0.9288
40401SOL    HW227296   0.179   9.896   7.337  1.2011 -0.6822 -0.5531
40402SOL     OW27297   6.709   0.478   0.148  0.4677  0.8671  0.0312
40402SOL    HW127298   6.690   0.561   0.192  3.2272  0.5234  2.1564
40402SOL    HW227299   6.652   0.415   0.192  0.8021  1.1056  0.8310
40403SOL     OW27300   5.694   7.266   7.413 -0.2439  0.7017 -0.0263
40403SOL    HW127301   5.611   7.221   7.423  0.3583 -0.3273  0.5805
40403SOL    HW227302   5.735   7.224   7.337 -0.2434  1.1622 -0.2872
40404SOL     OW27303   1.682   4.986   5.476 -0.1588  0.1264  0.1540
40404SOL    HW127304   1.722   4.973   5.390 -1.0697  1.2564 -0.4908
40404SOL    HW227305   1.737   5.052   5.519  0.1487 -0.2447  0.3271
40405SOL     OW27306   2.986   4.107   9.097 -0.0348 -0.5641  0.3814
40405SOL    HW127307   2.893   4.087   9.108 -0.3240  0.5256  0.0584
40405SOL    HW227308   3.011   4.151   9.178 -0.2275  0.5803 -0.1520
40406SOL     OW27309   3.753   6.491  10.484  0.2480 -0.0780  0.5960
40406SOL    HW127310   3.829   6.476  10.541  1.2557 -1.1558 -0.9402
40406SOL    HW227311   3.716   6.574  10.515  0.9712 -0.4189  2.5293
40407SOL     OW27312   1.065   3.289   2.166  0.6007  0.0754 -0.6938
40407SOL    HW127313   1.018   3.327   2.091  0.3476  3.4152  0.9696
40407SOL    HW227314   0.995   3.261   2.226  0.7475  0.4769 -0.3279
40408SOL     OW27315   0.404  10.418   6.447 -0.9492  0.5034 -0.4559
40408SOL    HW127316   0.429  10.450   6.360 -0.8402  2.0441  0.1062
40408SOL    HW227317   0.346  10.344   6.430  2.8605 -2.5090 -1.8718
40409SOL     OW27318   7.584   3.006   1.827 -0.3762  0.6433  0.1172
40409SOL    HW127319   7.638   3.029   1.902 -0.5778  2.5097 -0.2694
40409SOL    HW227320   7.498   2.985   1.864 -0.1635  0.4548  0.4989
40410SOL     OW27321   9.421   7.158   8.319  0.6316  0.5866  0.1600
40410SOL    HW127322   9.434   7.129   8.229  0.3373 -1.9732  0.8668
40410SOL    HW227323   9.332   7.195   8.320  0.5358  0.3757 -0.5339
40411SOL     OW27324   7.170   4.588   2.943  0.4846  0.4490  0.1230
40411SOL    HW127325   7.097   4.539   2.983  1.5063 -1.2457  0.0073
40411SOL    HW227326   7.249   4.544   2.974  1.5177  2.3508  0.3662
40412SOL     OW27327   6.020   6.352   4.998  0.0786  0.0290  0.1045
40412SOL    HW127328   6.105   6.378   4.961 -0.9218  0.9564 -1.6758
40412SOL    HW227329   5.991   6.280   4.942  0.2098 -1.1015  1.4538
40413SOL     OW27330   9.501   6.909   8.855 -0.3289  0.4343  0.3687
40413SOL    HW127331   9.436   6.843   8.828 -0.9829  0.7969  1.0067
40413SOL    HW227332   9.520   6.957   8.775 -0.3102 -0.1331  0.0227
40414SOL     OW27333   6.935   4.726  10.527 -1.0753  0.5184  0.3761
40414SOL    HW127334   6.989   4.765  10.458 -0.9969 -0.8999 -0.3948
40414SOL    HW227335   6.996   4.707  10.598 -0.6029 -0.7168 -0.3376
40415SOL     OW27336   6.443   0.835   9.375 -0.2172 -0.0287 -0.0200
40415SOL    HW127337   6.511   0.879   9.425  0.5608 -0.8328 -0.3359
40415SOL    HW227338   6.364   0.887   9.390  0.5357  1.1364  0.0653
40416SOL     OW27339   0.731   8.391   9.515 -0.8523  0.1316 -0.6728
40416SOL    HW127340   0.668   8.435   9.572 -0.0920 -0.0139  0.3105
40416SOL    HW227341   0.759   8.314   9.565 -0.4352 -0.1995 -1.4038
40417SOL     OW27342   5.321   2.016   8.841  0.3633  0.3361  0.0576
40417SOL    HW127343   5.384   2.079   8.877  0.2302  0.2523  0.4339
40417SOL    HW227344   5.368   1.933   8.841  0.7753  0.5439 -1.0565
40418SOL     OW27345   5.543   1.572   9.812 -0.5164 -0.0201 -0.3450
40418SOL    HW127346   5.450   1.550   9.810 -0.4311 -0.6481  1.3034
40418SOL    HW227347   5.569   1.559   9.903  1.2905 -0.2907 -0.8556
40419SOL     OW27348   4.003   0.519   6.919 -0.6285 -0.1200  0.2210
40419SOL    HW127349   3.949   0.589   6.955  0.9258  0.6472  1.2050
40419SOL    HW227350   4.049   0.483   6.995  1.4278  0.3594 -0.7103
40420SOL     OW27351   6.044   3.354   7.703 -0.2075  0.0376 -0.3043
40420SOL    HW127352   6.031   3.383   7.612 -1.4091  0.0202 -0.1483
40420SOL    HW227353   6.059   3.435   7.752  0.7253  0.0247 -0.5530
40421SOL     OW27354   0.197   9.310   2.122  0.5502 -0.6948  0.0524
40421SOL    HW127355   0.125   9.247   2.115 -0.0501 -0.0788  0.5919
40421SOL    HW227356   0.172   9.367   2.195  1.1800  0.0489 -0.3028
40422SOL     OW27357   1.764   4.191   1.278  0.6584 -0.0201 -0.6488
40422SOL    HW127358   1.698   4.165   1.215 -0.5964  0.7708  0.2923
40422SOL    HW227359   1.761   4.123   1.346  2.3067 -1.1052 -1.5977
40423SOL     OW27360   3.915   3.186   9.121  1.2090  0.0333  0.3145
40423SOL    HW127361   3.833   3.141   9.141  2.1184 -2.3911 -1.0006
40423SOL    HW227362   3.898   3.229   9.037  0.5525  1.6824  1.2482
40424SOL     OW27363   6.980   9.493  10.463  0.1783 -0.0254 -0.3890
40424SOL    HW127364   6.919   9.545  10.514 -0.8619  1.0501 -2.5842
40424SOL    HW227365   7.063   9.539  10.471 -0.1399  0.5369 -0.2696
40425SOL     OW27366  10.347   2.803   9.731 -0.3672 -0.1324 -0.3435
40425SOL    HW127367  10.292   2.725   9.732 -1.6063  0.7075  0.5723
40425SOL    HW227368  10.375   2.814   9.822  0.5293  0.0078 -0.6222
40426SOL     OW27369   8.331   6.615   9.891 -0.6142  1.1124 -0.2849
40426SOL    HW127370   8.368   6.627   9.979  0.0227  0.8902 -0.5175
40426SOL    HW227371   8.247   6.660   9.894 -0.8854  0.5774  0.6373
40427SOL     OW27372   5.553   4.699   2.303 -0.0590  0.0558  0.3611
40427SOL    HW127373   5.581   4.625   2.357  0.5633 -0.2310 -0.3424
40427SOL    HW227374   5.526   4.766   2.366 -2.3979 -1.3843  1.0320
40428SOL     OW27375   4.260  10.204   6.227  0.1357  0.1780 -0.4892
40428SOL    HW127376   4.291  10.259   6.299  2.2782 -0.0972 -1.1540
40428SOL    HW227377   4.251  10.117   6.266 -0.5415  0.3973 -0.1270
40429SOL     OW27378   4.740  10.345   2.425 -0.3539  0.2618  0.0398
40429SOL    HW127379   4.732  10.308   2.513 -1.0090  1.2073  0.3959
40429SOL    HW227380   4.665  10.404   2.417  0.1010  0.7368 -0.8800
40430SOL     OW27381   3.647   4.152   3.037 -0.6109 -0.2223 -0.2995
40430SOL    HW127382   3.660   4.219   2.970  0.0078  0.7744  0.7680
40430SOL    HW227383   3.611   4.077   2.990  0.6345  0.1278 -1.8894
40431SOL     OW27384   5.300   5.750   2.014 -0.1682  0.2699 -0.3895
40431SOL    HW127385   5.248   5.812   1.963 -0.4814 -0.3079 -0.7966
40431SOL    HW227386   5.257   5.747   2.099 -0.0178  0.7769 -0.2959
40432SOL     OW27387   5.082   0.359   9.421  0.4908  0.1424 -0.2017
40432SOL    HW127388   4.988   0.343   9.417  0.5839 -0.7301  0.7324
40432SOL    HW227389   5.120   0.298   9.358  0.3703  1.1763 -1.2973
40433SOL     OW27390   2.649   6.403   5.003 -0.3259 -0.3275 -0.1509
40433SOL    HW127391   2.607   6.416   5.088  0.0399 -0.5714  0.0678
40433SOL    HW227392   2.742   6.413   5.020 -0.2327 -0.6119 -0.4821
40434SOL     OW27393  10.081  10.393   0.015 -0.6123  0.3518  0.0313
40434SOL    HW127394  10.135  10.457   0.060  0.5774 -2.3027  2.6654
40434SOL    HW227395  10.004  10.383   0.071 -0.9121 -0.3124 -0.4879
40435SOL     OW27396   7.350   6.213   0.322 -0.3526 -0.9393 -0.1497
40435SOL    HW127397   7.301   6.135   0.347  0.5401 -1.0681  1.3007
40435SOL    HW227398   7.321   6.232   0.233 -3.5995 -0.5910  0.8364
40436SOL     OW27399   8.091   1.633   5.754 -0.7058  0.4863  0.1495
40436SOL    HW127400   8.001   1.629   5.723 -0.9026  0.7007  0.6881
40436SOL    HW227401   8.086   1.675   5.839  0.0257  1.4624 -0.2724
40437SOL     OW27402   9.898   2.804   1.559 -0.0217 -0.8935 -0.2959
40437SOL    HW127403   9.841   2.807   1.482  3.2280 -0.2258 -2.9125
40437SOL    HW227404   9.870   2.726   1.607 -4.4780  0.5736 -0.0411
40438SOL     OW27405   1.268   7.707   8.130  0.3382  0.0996  0.0173
40438SOL    HW127406   1.304   7.750   8.052 -0.0104 -0.7178 -0.6086
40438SOL    HW227407   1.212   7.773   8.170  0.4096  0.4839 -0.5052
40439SOL     OW27408   4.759   3.153   0.187 -0.2974  0.4071 -0.2326
40439SOL    HW127409   4.849   3.164   0.217 -0.0252 -1.2347 -0.3628
40439SOL    HW227410   4.705   3.197   0.253  0.5124  0.0855  0.6495
40440SOL     OW27411   0.677   2.720   5.366  0.1142 -0.6261  0.3281
40440SOL    HW127412   0.731   2.695   5.441  0.1809 -1.6563 -0.0418
40440SOL    HW227413   0.593   2.745   5.404 -0.3361 -2.5152  0.6813
40441SOL     OW27414   6.509   1.613   4.516  0.1279  0.0399 -0.0499
40441SOL    HW127415   6.534   1.530   4.556 -2.4950  0.0569  1.9084
40441SOL    HW227416   6.555   1.614   4.431  0.2351 -3.3777 -0.1656
40442SOL     OW27417   2.885   1.567   7.263  0.0716 -0.7944 -0.0957
40442SOL    HW127418   2.853   1.651   7.296  0.5584 -0.3608 -0.7014
40442SOL    HW227419   2.946   1.537   7.330  0.7598 -0.1068 -0.3949
40443SOL     OW27420  10.691   2.231   7.449  0.8022 -0.1736  0.6959
40443SOL    HW127421  10.677   2.294   7.520  0.3427 -1.2403  1.5735
40443SOL    HW227422  10.609   2.182   7.444  0.4362  0.5653 -1.2926
40444SOL     OW27423   6.412   2.955   0.369 -0.0563 -1.0213  0.1420
40444SOL    HW127424   6.483   3.012   0.338 -1.5731  0.5299 -0.6773
40444SOL    HW227425   6.435   2.934   0.459  0.4773  1.1145  0.5562
40445SOL     OW27426   9.676   5.171   9.088  0.2390 -0.3941 -0.3533
40445SOL    HW127427   9.706   5.173   9.179 -0.5455 -0.1162 -0.0936
40445SOL    HW227428   9.592   5.126   9.092 -0.2661  0.5096 -0.8020
40446SOL     OW27429   1.907   3.752   3.990  0.1022 -0.0978 -0.0867
40446SOL    HW127430   1.830   3.718   3.943  0.6221 -0.5512 -0.6222
40446SOL    HW227431   1.970   3.773   3.922 -0.0394  1.5769  0.2651
40447SOL     OW27432   3.998   6.847   5.150  0.1219 -0.4241 -0.0793
40447SOL    HW127433   4.061   6.904   5.195 -0.1909 -1.2675  1.4523
40447SOL    HW227434   3.921   6.902   5.137  0.1959 -0.1932  0.4569
40448SOL     OW27435   3.628   2.636   5.801 -0.2188  0.1725 -0.3210
40448SOL    HW127436   3.549   2.683   5.775 -0.5567 -0.8522 -1.2760
40448SOL    HW227437   3.599   2.547   5.817  0.6559 -0.1020 -0.1785
40449SOL     OW27438   2.558   8.913   9.291  0.7543  0.4521  0.4117
40449SOL    HW127439   2.581   8.999   9.258 -0.6666  0.3675 -0.9425
40449SOL    HW227440   2.609   8.903   9.371  1.4214  2.2743  0.2574
40450SOL     OW27441   2.926   6.504   9.492 -0.3424  0.1721 -0.1267
40450SOL    HW127442   2.864   6.490   9.564 -2.0511  0.8912 -1.3878
40450SOL    HW227443   2.874   6.490   9.413  1.8388 -2.1206 -1.2798
40451SOL     OW27444   3.968   5.988   9.753  0.1798  0.7690 -0.0199
40451SOL    HW127445   3.935   6.062   9.703 -0.3766  0.4908 -0.0745
40451SOL    HW227446   3.976   6.021   9.842  2.1730  1.5797 -0.4490
40452SOL     OW27447   1.005   7.959   5.218 -0.5161  0.1794  0.3145
40452SOL    HW127448   0.930   7.962   5.159 -0.5030 -0.3264  0.2683
40452SOL    HW227449   1.022   8.051   5.240 -0.0047  0.4396 -1.1056
40453SOL     OW27450   7.888  10.855   8.082  0.4053 -0.2685  0.1159
40453SOL    HW127451   7.854  10.836   7.995 -0.4317 -0.8708  0.5493
40453SOL    HW227452   7.841  10.933   8.110 -1.2106 -1.4726  0.9768
40454SOL     OW27453   9.592  10.781   9.106  0.4543  0.4590 -0.1745
40454SOL    HW127454   9.684  10.755   9.096  1.1291  1.5284  2.4233
40454SOL    HW227455   9.575  10.838   9.031  1.9983  0.4381 -0.5733
40455SOL     OW27456   4.754   8.579   4.249  0.3477 -0.1723  0.5204
40455SOL    HW127457   4.765   8.667   4.286 -0.0038 -0.2858  0.8970
40455SOL    HW227458   4.835   8.564   4.201  0.3200  0.4486  0.2675
40456SOL     OW27459   0.011   4.919  10.401 -0.2401 -0.4230  0.4741
40456SOL    HW127460  -0.015   4.987  10.463  2.0745  2.8083 -1.7527
40456SOL    HW227461   0.105   4.930  10.391  0.4832 -4.7369  0.6322
40457SOL     OW27462   6.763   0.427   0.490 -1.3226 -0.4540  0.3139
40457SOL    HW127463   6.809   0.430   0.406  0.2102 -2.8078  0.9727
40457SOL    HW227464   6.690   0.367   0.475 -0.4645 -1.6830  0.8546
40458SOL     OW27465   5.160   8.592   0.442  0.2097 -0.4186 -0.4769
40458SOL    HW127466   5.114   8.675   0.458  0.4992 -0.0999 -1.3053
40458SOL    HW227467   5.094   8.525   0.461  0.7711 -0.1743  3.1698
40459SOL     OW27468   3.970   9.069   8.457 -0.4735  0.4735 -0.3011
40459SOL    HW127469   3.904   9.039   8.395  0.5805  0.8926 -1.6991
40459SOL    HW227470   3.971   9.164   8.447  0.6975  0.4367 -0.7236
40460SOL     OW27471   8.819   1.565   2.755 -0.0607  0.6698  0.0564
40460SOL    HW127472   8.760   1.619   2.808  0.2817  0.4651  0.6597
40460SOL    HW227473   8.902   1.613   2.754 -0.7436  1.9512 -2.4462
40461SOL     OW27474   1.176   7.259   7.240 -0.2035 -0.4019 -1.2483
40461SOL    HW127475   1.223   7.340   7.219 -0.6415  0.4905  0.8949
40461SOL    HW227476   1.084   7.285   7.243 -0.1687 -0.2033  2.1532
40462SOL     OW27477   8.351   2.972   9.686  0.4621  0.2903  0.6226
40462SOL    HW127478   8.305   3.009   9.611  1.8827  0.1729 -0.3491
40462SOL    HW227479   8.282   2.934   9.740 -0.7903  2.2034  0.4383
40463SOL     OW27480  10.464   3.030   3.524 -0.9785  0.4309  0.6113
40463SOL    HW127481  10.479   3.116   3.563 -0.5482  1.0088 -0.7689
40463SOL    HW227482  10.519   3.029   3.446 -2.1835 -0.5004 -0.2592
40464SOL     OW27483   7.747   8.279   1.458  0.3288 -0.0465 -0.0352
40464SOL    HW127484   7.711   8.365   1.480 -0.0474  0.1175 -1.1913
40464SOL    HW227485   7.842   8.293   1.452  0.4051 -0.0225  1.0536
40465SOL     OW27486  10.393   5.712   6.099 -0.1662  0.0788  0.2383
40465SOL    HW127487  10.359   5.653   6.032  0.3539 -1.5102  1.3253
40465SOL    HW227488  10.473   5.669   6.131 -1.3216 -0.1557  3.0930
40466SOL     OW27489   8.718   5.551   9.417 -0.0085  0.0523 -0.2513
40466SOL    HW127490   8.778   5.622   9.438 -0.6088  1.2582 -2.2804
40466SOL    HW227491   8.774   5.474   9.408  0.8061  0.4988  0.8546
40467SOL     OW27492   3.677   5.744   0.737 -0.3278 -0.0480  0.1247
40467SOL    HW127493   3.702   5.814   0.676  0.3704  0.1969  0.6744
40467SOL    HW227494   3.589   5.718   0.709 -0.7748  1.3445  0.1829
40468SOL     OW27495   7.373   2.166   5.942  0.0958 -0.2480  0.4505
40468SOL    HW127496   7.393   2.184   6.034  0.7534 -1.6383  0.6052
40468SOL    HW227497   7.330   2.081   5.943  1.6652 -1.1167 -0.6577
40469SOL     OW27498   9.835   9.469   0.315  0.5597 -0.3637  0.3040
40469SOL    HW127499   9.821   9.559   0.287  0.2195 -0.6076 -0.3374
40469SOL    HW227500   9.913   9.473   0.372 -0.5459  0.6194  1.8343
40470SOL     OW27501   3.230   3.405   1.373  0.3348 -0.0559 -0.5371
40470SOL    HW127502   3.276   3.489   1.373  1.7527 -0.7868 -0.7807
40470SOL    HW227503   3.151   3.420   1.425  0.5999  1.3949 -0.5172
40471SOL     OW27504   3.080   1.377   8.975  0.1366 -0.1790 -0.2455
40471SOL    HW127505   3.117   1.414   8.896 -2.4951  0.4059 -1.2966
40471SOL    HW227506   3.048   1.291   8.948 -2.0838  0.5954 -0.2945
40472SOL     OW27507   5.720   9.009   5.010 -0.4203 -0.5826 -0.0668
40472SOL    HW127508   5.689   8.923   4.983 -0.2151 -0.4546 -0.7309
40472SOL    HW227509   5.786   9.032   4.944 -2.0559  1.0712 -1.2333
40473SOL     OW27510   6.493   5.112  10.434  0.4452 -0.3902  0.0682
40473SOL    HW127511   6.410   5.064  10.434  0.9944 -1.5215  2.8501
40473SOL    HW227512   6.473   5.195  10.478  0.1877  0.7285 -2.0166
40474SOL     OW27513   8.442   9.573   0.546  0.0254 -0.0648  0.1275
40474SOL    HW127514   8.364   9.550   0.596  0.3602 -0.7028  0.3825
40474SOL    HW227515   8.513   9.572   0.611  0.1281  1.2833  0.0482
40475SOL     OW27516  10.878   3.548   9.176  0.2586  0.1415 -0.0431
40475SOL    HW127517  10.954   3.497   9.146 -0.3606  0.4681 -2.3555
40475SOL    HW227518  10.805   3.515   9.124 -1.3696 -0.5382  2.5203
40476SOL     OW27519   6.614  10.862   9.759 -0.3691  0.5149 -0.3746
40476SOL    HW127520   6.623  10.849   9.853 -0.8133  0.0631 -0.3953
40476SOL    HW227521   6.521  10.880   9.745 -0.5697 -0.8582 -0.8947
40477SOL     OW27522   9.423   6.281   9.186 -0.6085  0.4177 -1.0723
40477SOL    HW127523   9.423   6.226   9.265  0.3138  2.5301  0.5043
40477SOL    HW227524   9.513   6.276   9.154 -0.5835  0.7995 -1.0610
40478SOL     OW27525   7.505   3.205   0.909  0.6279 -0.2405 -0.2170
40478SOL    HW127526   7.552   3.198   0.826  3.1449  0.4036  1.0641
40478SOL    HW227527   7.545   3.140   0.966 -0.9764 -0.5984  0.5687
40479SOL     OW27528   3.534   8.636   4.460  0.1091 -0.1498  0.1868
40479SOL    HW127529   3.535   8.723   4.500  0.7054  0.0419 -0.2410
40479SOL    HW227530   3.441   8.613   4.455 -0.1130  0.8438 -0.5209
40480SOL     OW27531   8.016   6.067   8.730 -0.1357 -0.9684 -0.2347
40480SOL    HW127532   8.073   6.143   8.720 -1.1462 -0.0381  0.8154
40480SOL    HW227533   7.933   6.102   8.764  0.1601 -2.7512  2.7799
40481SOL     OW27534   6.906   9.334   5.185 -0.1498 -0.2927 -0.0331
40481SOL    HW127535   6.829   9.350   5.239  0.3702 -0.1446  0.6875
40481SOL    HW227536   6.922   9.417   5.140 -0.7811 -0.5150 -0.6889
40482SOL     OW27537   3.069   3.664   8.710  0.2119 -0.3625 -0.9474
40482SOL    HW127538   3.057   3.668   8.805  0.1683  1.5082 -0.9928
40482SOL    HW227539   3.124   3.587   8.696 -0.7538 -1.3646  0.4671
40483SOL     OW27540   8.880  10.403   8.931 -0.6090  0.0588  0.3711
40483SOL    HW127541   8.937  10.392   9.007  0.2658 -0.8504 -0.4010
40483SOL    HW227542   8.808  10.341   8.946 -0.2524 -0.3773  0.2828
40484SOL     OW27543   9.358   8.976  10.903 -0.1208 -0.6837  0.0242
40484SOL    HW127544   9.305   8.938  10.973  2.2956 -2.0782  1.2086
40484SOL    HW227545   9.337   8.925  10.825 -0.4505 -1.2479  0.4814
40485SOL     OW27546   6.606   3.461   0.954  0.0688 -0.2968  0.2508
40485SOL    HW127547   6.623   3.409   0.876 -1.0206 -1.4653  0.7505
40485SOL    HW227548   6.568   3.399   1.016  0.6819  0.6570  1.6319
40486SOL     OW27549   3.334   2.615   3.263 -0.0379 -0.5661 -0.2378
40486SOL    HW127550   3.249   2.622   3.219 -0.1014  0.5990  0.0540
40486SOL    HW227551   3.328   2.675   3.336  1.9824  1.6401 -1.7453
40487SOL     OW27552   5.214   6.560   9.889 -0.3655 -0.1741 -0.3166
40487SOL    HW127553   5.290   6.595   9.842 -1.2486  1.0029 -0.8886
40487SOL    HW227554   5.140   6.575   9.831 -1.4095  0.8746  1.2103
40488SOL     OW27555   3.042   3.943   5.823  0.0119  0.2465 -0.5540
40488SOL    HW127556   3.118   3.907   5.777 -0.3238  0.9692 -1.7090
40488SOL    HW227557   2.966   3.910   5.774 -0.4915 -1.0718  1.0167
40489SOL     OW27558  10.718   2.075   0.949  0.2282 -0.2387  0.0170
40489SOL    HW127559  10.639   2.056   1.000  0.0848 -0.8055 -0.4087
40489SOL    HW227560  10.692   2.062   0.858  1.5104 -3.2363 -0.0261
40490SOL     OW27561   8.752   9.535   4.505 -0.1699  0.2154  0.5159
40490SOL    HW127562   8.718   9.467   4.446  0.4275  1.9035 -1.9387
40490SOL    HW227563   8.726   9.506   4.593 -2.7209 -1.5481 -0.6858
40491SOL     OW27564   2.720   5.576   2.385 -0.5880  0.0057  0.1493
40491SOL    HW127565   2.678   5.508   2.438 -1.1907  0.2502 -0.0014
40491SOL    HW227566   2.672   5.656   2.406 -0.2202  0.2841 -0.0623
40492SOL     OW27567   3.457  10.778   9.028  0.6665  0.4480  0.2860
40492SOL    HW127568   3.537  10.799   8.979  1.3485  1.3942  1.7400
40492SOL    HW227569   3.479  10.698   9.076  0.7888  0.7802  0.7862
40493SOL     OW27570   5.778   2.573   2.080  0.3128  0.6933  0.1880
40493SOL    HW127571   5.863   2.553   2.119  1.3793  1.9365 -1.3980
40493SOL    HW227572   5.783   2.539   1.991 -1.2844 -0.1577  0.3749
40494SOL     OW27573   9.776   1.876   8.236  0.0013  0.2230  0.0398
40494SOL    HW127574   9.798   1.816   8.165 -1.7174 -0.8816  0.3735
40494SOL    HW227575   9.860   1.905   8.270  0.8764 -1.0488 -0.9319
40495SOL     OW27576   3.244   8.147   7.141 -0.1270  0.3379  0.3657
40495SOL    HW127577   3.215   8.083   7.076 -0.1797  1.4168 -0.7037
40495SOL    HW227578   3.173   8.211   7.145  0.0334  0.4758  1.2311
40496SOL     OW27579  10.755   5.770   6.335  0.1942 -0.1350 -0.0306
40496SOL    HW127580  10.659   5.774   6.339  0.0566  0.1973 -2.4423
40496SOL    HW227581  10.780   5.725   6.416 -2.0590 -1.2755  0.1087
40497SOL     OW27582   0.155   3.209   4.760  0.2472 -0.0664 -0.5659
40497SOL    HW127583   0.153   3.135   4.699  1.0327 -0.4877 -0.0939
40497SOL    HW227584   0.097   3.274   4.720 -0.2706 -0.8378 -1.1062
40498SOL     OW27585   9.073   9.229   4.737  0.2900 -0.0401  0.3918
40498SOL    HW127586   9.037   9.235   4.649  2.0758 -0.3410 -0.3931
40498SOL    HW227587   9.028   9.299   4.785  0.3309  1.0984 -1.1391
40499SOL     OW27588   3.561   7.717   5.179  0.1725 -0.1212 -0.2210
40499SOL    HW127589   3.482   7.728   5.125  0.2371 -0.8425 -0.4841
40499SOL    HW227590   3.548   7.775   5.253 -0.5676 -0.1545 -0.3152
40500SOL     OW27591   0.348   2.952   1.536 -0.1191  0.4868 -0.3777
40500SOL    HW127592   0.353   2.983   1.446 -0.5301  0.1770 -0.5076
40500SOL    HW227593   0.255   2.938   1.552  0.0350 -0.5663 -0.2909
40501SOL     OW27594   2.345   7.854   7.953  0.1987 -0.3850  0.0403
40501SOL    HW127595   2.282   7.909   8.000  0.8047  0.8375 -0.5344
40501SOL    HW227596   2.428   7.869   7.998  0.2407 -1.4117  0.3293
40502SOL     OW27597   5.811   1.813   9.254  0.0481  0.3054 -0.4014
40502SOL    HW127598   5.722   1.816   9.219  0.5265  1.3135 -1.6030
40502SOL    HW227599   5.831   1.719   9.259 -0.7271  0.0900 -1.0696
40503SOL     OW27600   4.372   1.632   1.078  0.3204  0.0562 -0.0510
40503SOL    HW127601   4.284   1.667   1.088  1.1790  2.3221  0.0178
40503SOL    HW227602   4.404   1.620   1.167 -0.1571 -1.5790 -0.0538
40504SOL     OW27603  10.844   1.294   6.618  0.0716  0.4127  0.5908
40504SOL    HW127604  10.879   1.384   6.619 -1.6151  1.1897 -1.4111
40504SOL    HW227605  10.836   1.273   6.525 -0.9863 -1.2420  1.0185
40505SOL     OW27606   1.296   7.075   0.810 -0.0444 -0.2707  0.0230
40505SOL    HW127607   1.363   7.013   0.839  0.4925  0.2051 -0.1688
40505SOL    HW227608   1.294   7.064   0.714 -1.9873 -2.0211  0.1971
40506SOL     OW27609  10.732   8.847   1.233  0.2456  0.0152  0.1647
40506SOL    HW127610  10.695   8.842   1.144  0.6936  1.2364 -0.1169
40506SOL    HW227611  10.721   8.759   1.269 -0.1060 -0.4545 -1.0398
40507SOL     OW27612   5.411   5.120   9.025  0.1882  0.4688 -0.5257
40507SOL    HW127613   5.335   5.158   8.982  0.5554  1.8847  0.0188
40507SOL    HW227614   5.396   5.025   9.021 -0.8015  0.6553 -1.8440
40508SOL     OW27615  10.153   0.380   7.205  0.3333 -0.0881  0.3216
40508SOL    HW127616  10.229   0.401   7.260  1.0741  0.5849 -0.8953
40508SOL    HW227617  10.179   0.301   7.157  0.4901  0.4124 -0.4510
40509SOL     OW27618   1.419   9.879   5.352  0.1582 -0.1640 -0.7232
40509SOL    HW127619   1.491   9.874   5.289  0.1189  1.8466 -0.9772
40509SOL    HW227620   1.412   9.790   5.386  1.8442 -0.7291 -1.6991
40510SOL     OW27621   2.440   8.548   7.026  0.4740 -0.1088  0.4415
40510SOL    HW127622   2.534   8.556   7.014  0.6017 -1.3338  0.5187
40510SOL    HW227623   2.404   8.543   6.937  0.4821  0.3390  0.4129
40511SOL     OW27624   4.246  10.600   0.458 -0.3520  0.1524 -0.5566
40511SOL    HW127625   4.218  10.526   0.512  3.3827 -0.1889  1.1931
40511SOL    HW227626   4.280  10.559   0.378  0.9177 -0.0288  0.0482
40512SOL     OW27627   0.919   6.464   9.691  0.1584  0.4974 -0.4534
40512SOL    HW127628   0.967   6.461   9.609  0.5902 -0.7828 -0.1741
40512SOL    HW227629   0.833   6.427   9.669  0.0699  0.7136 -0.4664
40513SOL     OW27630   2.725  10.242   1.310 -0.1515  0.0016 -0.0313
40513SOL    HW127631   2.638  10.283   1.308 -0.7651 -1.2474  0.3380
40513SOL    HW227632   2.709  10.152   1.337  1.4037  0.1416  1.5660
40514SOL     OW27633   4.808   8.869   7.337  0.3932  0.0852 -0.6597
40514SOL    HW127634   4.862   8.937   7.378 -1.6259 -0.0724  2.7316
40514SOL    HW227635   4.718   8.900   7.349 -0.4630 -1.7439 -1.8889
40515SOL     OW27636   2.602   3.606   6.974  0.6155  0.2719  0.3275
40515SOL    HW127637   2.558   3.554   6.907  1.7635 -2.9359  1.8834
40515SOL    HW227638   2.686   3.628   6.935  0.3324  0.5406 -0.1473
40516SOL     OW27639   9.777  10.434   9.735 -0.0398  0.2204 -0.7121
40516SOL    HW127640   9.753  10.386   9.656 -1.7744  2.3161 -1.5636
40516SOL    HW227641   9.836  10.503   9.704  2.2503 -1.1179  0.4500
40517SOL     OW27642   4.870   0.976   0.425  0.2236  0.3410 -1.1235
40517SOL    HW127643   4.827   0.907   0.475 -0.4906  1.7191  0.2543
40517SOL    HW227644   4.964   0.954   0.431  0.2720  0.9583  1.7366
40518SOL     OW27645   5.742   4.955   0.623  0.3465 -1.2870 -0.1707
40518SOL    HW127646   5.666   4.987   0.671 -0.8780 -0.9304 -2.2623
40518SOL    HW227647   5.800   5.031   0.616 -0.1703 -0.9311 -0.5985
40519SOL     OW27648   0.221   3.554   8.582 -0.0580  0.4783  0.3486
40519SOL    HW127649   0.217   3.473   8.532  0.9752  1.1557 -0.9277
40519SOL    HW227650   0.219   3.527   8.673  0.6304 -1.0096 -0.0524
40520SOL     OW27651   6.803   7.650   0.944 -0.1561  0.3679 -0.7080
40520SOL    HW127652   6.887   7.666   0.901 -0.9550  1.8410 -1.8176
40520SOL    HW227653   6.809   7.700   1.026 -0.4144  1.5576 -1.3959
40521SOL     OW27654   5.404   4.047   2.643  0.0521 -0.0814 -0.2852
40521SOL    HW127655   5.380   4.061   2.552  2.1020  0.9414 -0.7516
40521SOL    HW227656   5.492   4.010   2.639  0.3916  0.4771  1.2734
40522SOL     OW27657   6.567   1.946   4.942 -0.3148 -0.1922 -0.0893
40522SOL    HW127658   6.609   2.030   4.922 -1.7100  0.2832 -1.2768
40522SOL    HW227659   6.639   1.883   4.942  1.0060  1.1678  2.3483
40523SOL     OW27660   4.923   7.825   9.297 -0.2724  0.2170  0.2046
40523SOL    HW127661   4.873   7.788   9.370 -0.5695  2.1396  1.0386
40523SOL    HW227662   5.002   7.860   9.338  1.6950 -2.4170 -1.0386
40524SOL     OW27663   6.953  10.798   0.868 -0.3958 -0.2213 -0.0618
40524SOL    HW127664   6.951  10.874   0.810 -1.0727 -1.0885 -1.2319
40524SOL    HW227665   6.880  10.812   0.928 -1.3175 -0.5126 -1.0742
40525SOL     OW27666   9.299   9.500  10.681 -0.2089  0.2085  0.1189
40525SOL    HW127667   9.304   9.586  10.722 -0.3060  0.4113 -0.2896
40525SOL    HW227668   9.371   9.499  10.618  1.5426 -1.0454  2.0152
40526SOL     OW27669  10.293   6.945   8.425 -0.0733 -0.1419 -0.3877
40526SOL    HW127670  10.270   6.873   8.485 -0.7174  1.0799  0.8889
40526SOL    HW227671  10.389   6.945   8.424 -0.0337 -1.8698 -1.5163
40527SOL     OW27672   2.611   4.746   3.098  0.0629  0.2045 -0.7391
40527SOL    HW127673   2.613   4.827   3.047  1.6422 -0.6151 -2.0789
40527SOL    HW227674   2.645   4.679   3.039  1.3693 -0.9376  1.1728
40528SOL     OW27675   9.625  10.200   1.877  0.0161 -0.3461 -0.4722
40528SOL    HW127676   9.718  10.201   1.856 -0.1068 -2.8226 -1.4703
40528SOL    HW227677   9.620  10.151   1.959 -0.5155 -2.5343 -1.7184
40529SOL     OW27678   7.731   9.409   1.142 -0.1416 -0.1774 -0.3311
40529SOL    HW127679   7.816   9.451   1.136 -1.0351  1.6206 -1.1520
40529SOL    HW227680   7.750   9.319   1.168  1.9895  0.1712 -0.5453
40530SOL     OW27681   9.857   9.568   4.975 -0.3403 -0.2112  0.0777
40530SOL    HW127682   9.763   9.563   4.960 -0.1749  0.5849 -1.3638
40530SOL    HW227683   9.886   9.477   4.978 -1.1589 -0.4589  0.5999
40531SOL     OW27684   7.095   6.904   0.038  0.4765  0.8650  0.1284
40531SOL    HW127685   7.020   6.919   0.095 -0.5961 -0.5567 -0.8122
40531SOL    HW227686   7.088   6.972  -0.029  0.0370  0.7588  0.0646
40532SOL     OW27687   3.363   6.103   6.760  0.0971 -0.4113 -0.1121
40532SOL    HW127688   3.428   6.119   6.691  0.8994 -1.0644  0.4681
40532SOL    HW227689   3.400   6.144   6.838  0.2631 -1.5486  0.4333
40533SOL     OW27690   6.014   7.446   8.309  0.0501  0.0704  0.1402
40533SOL    HW127691   6.035   7.521   8.364 -1.0341  0.3306  0.2122
40533SOL    HW227692   6.023   7.479   8.220 -0.4187  0.2848  0.1715
40534SOL     OW27693   6.664   6.074   6.114  0.2354 -0.0199  0.1849
40534SOL    HW127694   6.755   6.101   6.113 -0.0804  1.1917  1.3798
40534SOL    HW227695   6.660   6.007   6.183  0.6531 -1.9092 -1.5205
40535SOL     OW27696   8.141  10.417   4.170 -0.4058  0.1636 -0.1191
40535SOL    HW127697   8.051  10.424   4.139  0.2656 -1.8699 -3.0476
40535SOL    HW227698   8.187  10.487   4.124 -0.2561  0.3873  0.3658
40536SOL     OW27699   1.463   2.976   7.496 -0.8024  0.0424  0.5875
40536SOL    HW127700   1.539   3.008   7.448 -1.0223 -1.3380 -0.7706
40536SOL    HW227701   1.405   3.052   7.502 -0.7287  0.3215 -1.3281
40537SOL     OW27702   0.065   0.921  10.113 -0.1978  0.5831 -0.2099
40537SOL    HW127703  -0.030   0.912  10.107 -0.4506  0.2612  2.7522
40537SOL    HW227704   0.094   0.841  10.157  1.7902 -0.3085 -2.8703
40538SOL     OW27705   5.705   8.303   6.790  1.0221  0.7644  0.4221
40538SOL    HW127706   5.798   8.281   6.797  1.0894  1.2845  1.4670
40538SOL    HW227707   5.681   8.333   6.878 -0.3630 -0.2138  0.4068
40539SOL     OW27708   9.746   2.319  10.375  0.0438 -0.0098 -0.3414
40539SOL    HW127709   9.815   2.383  10.387  1.1202 -1.3104  0.7257
40539SOL    HW227710   9.736   2.312  10.280  0.9777  0.6275 -0.4948
40540SOL     OW27711   6.444  10.677   9.949 -0.4254 -0.3823 -0.2668
40540SOL    HW127712   6.382  10.745   9.977 -1.3489 -1.2434 -0.1592
40540SOL    HW227713   6.530  10.716   9.962 -0.8415 -0.1123  2.1397
40541SOL     OW27714   5.482   0.603   0.872  0.4323 -0.2194 -0.1972
40541SOL    HW127715   5.444   0.517   0.890 -0.2219  0.1891  0.4415
40541SOL    HW227716   5.573   0.595   0.900  0.4961 -0.8358 -0.5666
40542SOL     OW27717   9.489   2.972   1.424  0.1831  0.2128 -0.2078
40542SOL    HW127718   9.544   2.988   1.501 -0.5857 -0.3990  0.4836
40542SOL    HW227719   9.403   3.004   1.449  0.0755  0.6464 -1.0851
40543SOL     OW27720   5.478   2.756   4.765  0.3200 -0.3003  0.0621
40543SOL    HW127721   5.454   2.669   4.732  0.3055 -0.5936  0.8331
40543SOL    HW227722   5.565   2.772   4.729  1.0034 -1.3306  1.2145
40544SOL     OW27723   3.295   5.625   8.261 -0.1510  0.2498 -0.3013
40544SOL    HW127724   3.361   5.691   8.242  0.5907 -0.1062  0.9105
40544SOL    HW227725   3.218   5.675   8.288 -0.6977  0.6979 -2.4535
40545SOL     OW27726   6.170  10.429   6.921 -0.8748  0.5145  0.0273
40545SOL    HW127727   6.130  10.469   6.843 -0.1094  0.3727 -0.4574
40545SOL    HW227728   6.126  10.344   6.930  0.9752 -0.7807 -2.0162
40546SOL     OW27729   2.726   8.319  10.227 -0.1442 -0.7449  0.2666
40546SOL    HW127730   2.711   8.379  10.300  1.3351  0.9319 -0.7409
40546SOL    HW227731   2.654   8.338  10.167 -2.0887 -2.9879  1.6992
40547SOL     OW27732   3.608   2.978   1.003  0.1214 -0.2246 -0.2816
40547SOL    HW127733   3.573   2.906   1.056  0.8807 -1.2778 -1.1463
40547SOL    HW227734   3.629   3.046   1.066  2.1199 -1.8768  0.9841
40548SOL     OW27735   7.058   3.176   8.669  0.5871  0.5509 -0.4246
40548SOL    HW127736   7.113   3.216   8.601  1.0932  1.0429  0.2613
40548SOL    HW227737   7.014   3.250   8.711 -1.7094  0.0964 -1.8495
40549SOL     OW27738   9.130   1.574   7.701  0.1808  0.1239 -0.1099
40549SOL    HW127739   9.161   1.485   7.720 -0.6282  0.0019  0.6663
40549SOL    HW227740   9.133   1.580   7.605 -0.0069 -0.8312 -0.1884
40550SOL     OW27741   0.667   0.146   6.606  0.2137  0.1045 -0.3337
40550SOL    HW127742   0.573   0.152   6.592  0.4201  0.6164 -1.6417
40550SOL    HW227743   0.686   0.213   6.672 -0.1251  1.1355 -1.2514
40551SOL     OW27744   9.742   5.473   4.993  0.3607  0.0365 -0.3076
40551SOL    HW127745   9.737   5.392   5.043  0.2875 -0.4336 -1.0502
40551SOL    HW227746   9.686   5.457   4.917  0.3050  0.8055 -0.4364
40552SOL     OW27747   2.469   1.982   8.534  0.3199  0.1348 -0.0659
40552SOL    HW127748   2.430   1.931   8.605 -1.6617  1.7139  0.0795
40552SOL    HW227749   2.536   2.036   8.577  0.1563  0.0155  0.3399
40553SOL     OW27750   6.606   2.964  10.916 -0.4090 -0.1005  0.7087
40553SOL    HW127751   6.668   3.035  10.935 -1.2883  0.9713 -0.2620
40553SOL    HW227752   6.618   2.945  10.823 -1.9854  0.6379  0.3110
40554SOL     OW27753   6.238   0.710   8.655 -0.4298 -0.2377 -0.4050
40554SOL    HW127754   6.230   0.735   8.747 -0.2379  0.1399 -0.4871
40554SOL    HW227755   6.297   0.635   8.656 -0.7079 -0.4537 -0.1884
40555SOL     OW27756   8.135   9.775   3.814 -0.1788  0.3218  0.2660
40555SOL    HW127757   8.091   9.721   3.880 -0.9350  0.6369  0.0254
40555SOL    HW227758   8.224   9.785   3.847 -0.4318  0.1161  1.0241
40556SOL     OW27759   3.459   7.530   2.036  0.7427 -0.4333 -0.0157
40556SOL    HW127760   3.516   7.458   2.063 -0.3697 -2.3558 -2.4135
40556SOL    HW227761   3.372   7.491   2.028 -0.1931  1.5269 -0.0704
40557SOL     OW27762   5.337   9.603   2.645 -0.0953  0.1813  0.2608
40557SOL    HW127763   5.347   9.516   2.683 -0.7973 -0.7469 -1.5660
40557SOL    HW227764   5.393   9.603   2.568 -1.0221  0.9055 -0.4427
40558SOL     OW27765   1.140  10.882  10.606  0.5332 -0.9353  0.0998
40558SOL    HW127766   1.209  10.881  10.673  1.2336 -0.6875 -0.6035
40558SOL    HW227767   1.170  10.946  10.542  0.5428 -2.1214 -1.1303
40559SOL     OW27768   2.668   1.826   1.426  0.4715 -0.1027  0.0127
40559SOL    HW127769   2.575   1.807   1.411  0.4920 -0.7502  0.6496
40559SOL    HW227770   2.681   1.809   1.520  1.2435 -0.0768 -0.0831
40560SOL     OW27771   1.611   0.391   1.909  0.1815 -0.3957  0.1355
40560SOL    HW127772   1.627   0.482   1.886 -0.6579 -0.1864  0.3369
40560SOL    HW227773   1.546   0.361   1.845 -1.5618 -0.0432  1.6420
40561SOL     OW27774   7.646   3.462   6.624  0.3466  0.1229  0.2337
40561SOL    HW127775   7.701   3.511   6.563  0.3911 -0.7269 -0.4148
40561SOL    HW227776   7.644   3.373   6.590 -2.2357  0.3238 -0.3223
40562SOL     OW27777   3.516   8.063   9.192 -0.3339 -0.4043  0.0054
40562SOL    HW127778   3.512   8.105   9.106  1.7552  0.1586  0.1111
40562SOL    HW227779   3.530   7.970   9.173  1.0571 -0.1554 -0.3184
40563SOL     OW27780  10.003   2.263   4.326 -0.0435 -0.2525  0.2928
40563SOL    HW127781  10.035   2.280   4.238 -0.8721 -1.5200 -0.2863
40563SOL    HW227782   9.907   2.265   4.317 -0.1622 -2.0015  0.7896
40564SOL     OW27783   5.241   1.931   8.094  0.3415  0.2376  0.6827
40564SOL    HW127784   5.257   1.908   8.186  0.1830  1.2010  0.9619
40564SOL    HW227785   5.307   1.997   8.074  2.1465 -1.8551 -0.7253
40565SOL     OW27786  10.058  10.399   3.516  0.2722  0.6259  0.1385
40565SOL    HW127787  10.117  10.414   3.442 -0.9725 -1.2099 -1.3350
40565SOL    HW227788  10.000  10.475   3.516 -0.0812  0.3866 -1.1891
40566SOL     OW27789  10.277   5.690   9.355 -0.0390  0.1884 -0.2122
40566SOL    HW127790  10.358   5.675   9.307 -1.0227 -0.5523 -1.6870
40566SOL    HW227791  10.221   5.738   9.294 -1.5018 -1.2092 -0.0396
40567SOL     OW27792   2.509   8.729   8.297 -0.5767 -0.1725 -0.5348
40567SOL    HW127793   2.478   8.640   8.279 -0.7819 -0.2346  0.0867
40567SOL    HW227794   2.429   8.778   8.318 -0.3471 -0.1340  0.2884
40568SOL     OW27795   8.387   3.631   6.852  0.0775 -0.3282  0.4178
40568SOL    HW127796   8.373   3.559   6.790  0.2661 -1.4832  1.6562
40568SOL    HW227797   8.449   3.688   6.808  0.2647 -1.1519 -0.4338
40569SOL     OW27798   1.113   5.131   7.662 -0.0005 -0.5136 -0.0752
40569SOL    HW127799   1.031   5.173   7.636  0.8262  1.3233  0.0714
40569SOL    HW227800   1.099   5.108   7.754  0.1303  1.2546  0.4405
40570SOL     OW27801   5.459   3.677   4.541 -0.4613  0.2397 -0.3238
40570SOL    HW127802   5.366   3.688   4.563  0.0907  0.8970  2.0546
40570SOL    HW227803   5.502   3.754   4.581  1.0521  0.2497 -1.8551
40571SOL     OW27804   7.632   7.105   2.780 -0.0609  0.0200  0.0361
40571SOL    HW127805   7.555   7.129   2.728 -0.7034 -1.6964  0.1272
40571SOL    HW227806   7.705   7.114   2.720 -0.5598 -0.0623 -0.5949
40572SOL     OW27807   8.157   2.226   7.618  0.7740 -0.2848  0.2990
40572SOL    HW127808   8.141   2.227   7.712 -0.8784  1.3443  0.0496
40572SOL    HW227809   8.127   2.139   7.590 -0.6703 -0.0406  1.0033
40573SOL     OW27810   1.120   0.272   8.356  0.2322 -0.0681 -0.4399
40573SOL    HW127811   1.028   0.266   8.331 -0.0609 -1.0962  0.7438
40573SOL    HW227812   1.123   0.348   8.415  0.1813  0.1099 -0.6673
40574SOL     OW27813   8.391   8.200   8.938  0.2645  0.1008 -0.0244
40574SOL    HW127814   8.366   8.292   8.929 -1.0338 -0.1630  0.5525
40574SOL    HW227815   8.436   8.194   9.022 -2.6508 -0.3109  1.6466
40575SOL     OW27816   7.766   2.545   4.111 -0.2796 -0.0223  0.8216
40575SOL    HW127817   7.843   2.562   4.165  0.2264  0.2975  0.0290
40575SOL    HW227818   7.705   2.500   4.169  0.2692  0.2469  1.6309
40576SOL     OW27819   7.022   3.579  10.517  0.6657 -0.0953 -0.1635
40576SOL    HW127820   7.056   3.617  10.436  1.0159 -1.4231 -0.6657
40576SOL    HW227821   7.100   3.563  10.571  0.4344  0.8026  0.4670
40577SOL     OW27822   6.750   3.854   8.430 -0.2742  0.3181  0.5110
40577SOL    HW127823   6.760   3.846   8.524  0.9316 -0.3296  0.3531
40577SOL    HW227824   6.657   3.842   8.414 -0.7447  2.0739  1.7546
40578SOL     OW27825   1.195   5.704   0.775  0.5703  0.1885 -0.2429
40578SOL    HW127826   1.139   5.731   0.848  0.5328  0.5081 -0.3896
40578SOL    HW227827   1.193   5.608   0.779  0.7058  0.2011  0.2804
40579SOL     OW27828   7.072   9.677   2.031 -0.0001 -0.0896  0.4848
40579SOL    HW127829   7.076   9.771   2.019 -1.1043  0.0117  0.8601
40579SOL    HW227830   7.144   9.643   1.977 -1.0396  0.7883 -1.5624
40580SOL     OW27831  10.702   8.701   3.661 -0.0213  0.5058 -0.4852
40580SOL    HW127832  10.751   8.631   3.617  0.1897  0.8655 -0.8333
40580SOL    HW227833  10.703   8.774   3.598 -2.7851 -0.1302 -1.4136
40581SOL     OW27834   7.532   3.014   7.239  0.5370  0.2107  0.2565
40581SOL    HW127835   7.474   2.974   7.174 -0.1502  2.1098 -0.3796
40581SOL    HW227836   7.475   3.035   7.313  1.1134 -0.9851  1.0688
40582SOL     OW27837   2.472  10.363   0.868 -0.4719  0.1770 -0.0588
40582SOL    HW127838   2.459  10.445   0.914 -1.1041 -0.2751  0.5876
40582SOL    HW227839   2.515  10.306   0.932  0.9901  0.3397 -0.8488
40583SOL     OW27840   3.672   2.790   7.562 -0.0289 -0.0864  0.3146
40583SOL    HW127841   3.767   2.793   7.563 -0.0353  1.5720 -0.6200
40583SOL    HW227842   3.647   2.793   7.655  0.8164  3.1719  0.5477
40584SOL     OW27843   5.514   4.480   9.842 -0.1977  0.4309 -0.3595
40584SOL    HW127844   5.429   4.442   9.863 -0.0160  0.8368  1.2791
40584SOL    HW227845   5.494   4.566   9.804 -0.5355  0.5493  0.0737
40585SOL     OW27846   4.865   2.849   9.118 -0.4069  0.4615 -0.4995
40585SOL    HW127847   4.873   2.784   9.048 -1.8208 -0.3982  0.0867
40585SOL    HW227848   4.921   2.817   9.188 -1.6336 -0.5542  0.0605
40586SOL     OW27849   2.389   2.277   6.015 -0.0560 -0.0157  0.3136
40586SOL    HW127850   2.374   2.182   6.010 -2.6217  0.2031  1.9586
40586SOL    HW227851   2.301   2.314   6.023  0.8054  2.6246 -1.2600
40587SOL     OW27852   9.263   4.860   1.192 -0.2140  0.1002  0.3040
40587SOL    HW127853   9.348   4.838   1.229 -0.0063  0.0229 -0.2141
40587SOL    HW227854   9.214   4.778   1.195 -0.4452  0.2521  1.0439
40588SOL     OW27855   0.603   2.951   4.778  0.2597 -0.5367  0.0855
40588SOL    HW127856   0.575   2.860   4.788  0.1444 -0.4147  0.9260
40588SOL    HW227857   0.694   2.951   4.806 -0.1845 -0.1138  1.6015
40589SOL     OW27858   8.768   7.789   9.615 -0.8406 -0.0787  0.1234
40589SOL    HW127859   8.818   7.802   9.695  0.5093 -0.8746 -0.5622
40589SOL    HW227860   8.700   7.727   9.639 -0.2185 -0.5985  0.5725
40590SOL     OW27861   2.174   3.072   4.633  0.2523 -0.0940 -0.0570
40590SOL    HW127862   2.252   3.016   4.630 -0.8630 -1.6710 -1.8618
40590SOL    HW227863   2.208   3.160   4.623  1.7654 -0.8743 -3.0828
40591SOL     OW27864   8.115   1.315   4.388 -0.3749 -0.0607 -0.4502
40591SOL    HW127865   8.195   1.362   4.409  0.2655 -0.9904 -0.7535
40591SOL    HW227866   8.108   1.320   4.293  0.0995 -1.1832 -0.5601
40592SOL     OW27867   3.090   1.497   7.436  0.5029 -0.4000  0.1049
40592SOL    HW127868   3.088   1.569   7.498  1.9707 -1.5527  1.5918
40592SOL    HW227869   3.117   1.421   7.489  0.8641 -1.6322 -1.7587
40593SOL     OW27870   0.776  10.150   2.194 -0.0572  0.5161  0.5699
40593SOL    HW127871   0.741  10.194   2.271  0.1884 -0.6037  1.3346
40593SOL    HW227872   0.700  10.109   2.152 -0.1653  0.9876  0.2956
40594SOL     OW27873  10.369   0.434   0.167  0.3183 -0.7939  0.4947
40594SOL    HW127874  10.276   0.435   0.144  0.3735  1.3380  0.1538
40594SOL    HW227875  10.414   0.418   0.084  0.2814 -0.3769  0.3903
40595SOL     OW27876   6.226   6.492  10.126 -0.8158  0.0510  0.1467
40595SOL    HW127877   6.137   6.519  10.149 -0.6269  2.1443 -1.3458
40595SOL    HW227878   6.282   6.564  10.155  0.1293 -0.2145 -0.9315
40596SOL     OW27879   2.428   5.205   5.682 -0.0133 -0.0834 -0.4518
40596SOL    HW127880   2.363   5.142   5.712 -0.7143  0.8607  0.0646
40596SOL    HW227881   2.387   5.290   5.695  1.2330  0.5319 -0.3294
40597SOL     OW27882   2.412   6.341   3.737 -0.1791 -0.4000 -0.2468
40597SOL    HW127883   2.454   6.340   3.823 -0.4374 -0.7578 -0.1219
40597SOL    HW227884   2.324   6.306   3.753 -0.2718 -0.3459 -0.6350
40598SOL     OW27885  10.103   5.471  10.312  0.3597  0.3699 -0.0076
40598SOL    HW127886  10.074   5.536  10.249  0.3815 -2.5614 -3.3597
40598SOL    HW227887  10.198   5.470  10.304  0.5749  1.3588  1.7338
40599SOL     OW27888   6.900   2.272   1.538  0.1650  0.0908 -0.6813
40599SOL    HW127889   6.860   2.218   1.470 -0.2633 -1.2524  0.5862
40599SOL    HW227890   6.959   2.330   1.490  0.4697 -1.3300 -2.1296
40600SOL     OW27891   6.569  10.766   3.635 -0.4379 -0.6138  0.3126
40600SOL    HW127892   6.556  10.801   3.723 -1.5812 -0.0961 -0.0514
40600SOL    HW227893   6.481  10.759   3.598 -0.1032 -2.2352 -0.2675
40601SOL     OW27894   0.617   5.330   0.707  0.0629 -0.3002 -0.1488
40601SOL    HW127895   0.641   5.271   0.779 -1.2631  0.0914  0.6455
40601SOL    HW227896   0.531   5.364   0.731  0.9418  2.2921 -0.3657
40602SOL     OW27897   8.149  10.018   7.075 -0.2539  0.4921 -0.2506
40602SOL    HW127898   8.088  10.043   7.144  1.1342  2.8059  0.2409
40602SOL    HW227899   8.218   9.971   7.120 -0.2634  0.3773 -0.3560
40603SOL     OW27900   6.046   4.624   4.064  0.0173 -0.8157 -0.0216
40603SOL    HW127901   6.026   4.711   4.027  0.8056 -0.0731  1.2257
40603SOL    HW227902   6.127   4.598   4.021 -0.6653 -1.3595 -1.0372
40604SOL     OW27903   5.264   5.774   6.584 -0.4534 -1.1270  0.2974
40604SOL    HW127904   5.250   5.853   6.532 -1.9581 -1.0358  0.7835
40604SOL    HW227905   5.313   5.803   6.661  1.3778 -1.1825 -0.8048
40605SOL     OW27906   1.076   8.931   4.805  0.2398  0.1289  0.2847
40605SOL    HW127907   1.118   8.863   4.752  0.6141 -0.0742  0.8257
40605SOL    HW227908   1.149   8.984   4.838  0.0071  0.3169  0.5037
40606SOL     OW27909   4.284   6.021   5.606 -0.0438 -0.9992 -0.1887
40606SOL    HW127910   4.284   6.098   5.550 -0.0890 -0.6762  0.2532
40606SOL    HW227911   4.191   5.998   5.616 -0.0776 -0.6741  0.2722
40607SOL     OW27912   4.167   0.117   2.683  0.0287  0.2294 -0.4558
40607SOL    HW127913   4.233   0.125   2.614  0.2386 -1.9769 -0.5956
40607SOL    HW227914   4.175   0.026   2.713 -0.4035  0.9514  2.1381
40608SOL     OW27915  10.637   8.743   9.095  0.0206 -0.0733 -0.0681
40608SOL    HW127916  10.554   8.733   9.050  0.5974 -1.5943 -0.8878
40608SOL    HW227917  10.703   8.731   9.026  0.9207  0.4402  0.6791
40609SOL     OW27918   7.123  10.588   0.032 -0.1008  0.4684  0.4170
40609SOL    HW127919   7.028  10.589   0.039 -0.0966 -1.8737  1.6625
40609SOL    HW227920   7.152  10.655   0.095 -0.8832  0.9838  0.2446
40610SOL     OW27921   7.340   5.740   1.417 -0.2393  0.2854 -0.3546
40610SOL    HW127922   7.347   5.720   1.323  1.8711 -1.2990  0.0799
40610SOL    HW227923   7.426   5.719   1.453 -1.0687  0.6277  2.0048
40611SOL     OW27924   4.394   8.963   0.241 -0.2724 -0.1888 -0.1658
40611SOL    HW127925   4.364   8.915   0.164  1.3594 -0.9396 -0.3735
40611SOL    HW227926   4.370   8.908   0.315 -2.2464  0.7414 -0.0426
40612SOL     OW27927   9.588   5.317   6.619  0.6184 -0.1382  0.2448
40612SOL    HW127928   9.541   5.266   6.685 -0.3909  0.5778  0.1155
40612SOL    HW227929   9.520   5.343   6.556  1.2081  0.7939 -0.0364
40613SOL     OW27930   8.579   5.042   9.124 -0.7487 -0.4692  0.0844
40613SOL    HW127931   8.564   5.089   9.206  0.2140  0.8320 -0.4402
40613SOL    HW227932   8.501   5.060   9.071  0.1466  1.6962 -0.5981
40614SOL     OW27933   4.145   9.110   4.912 -0.2750  0.6590  0.9640
40614SOL    HW127934   4.155   9.167   4.836 -0.7906  0.3616  0.6698
40614SOL    HW227935   4.066   9.142   4.955 -2.0003 -1.3104 -0.5308
40615SOL     OW27936   6.878   4.211   1.823 -0.1451  0.4833 -0.3954
40615SOL    HW127937   6.949   4.240   1.766  1.4102  0.6040  1.4982
40615SOL    HW227938   6.921   4.158   1.890 -1.6955  1.2623  1.3035
40616SOL     OW27939   3.500  10.281   7.070 -0.2270  0.0959  0.4709
40616SOL    HW127940   3.591  10.254   7.062  0.3856  1.8194  1.2553
40616SOL    HW227941   3.475  10.256   7.159  0.0707  1.2674  0.8950
40617SOL     OW27942   3.060   0.451   0.314 -0.4471  0.1878  0.1170
40617SOL    HW127943   3.081   0.443   0.407  0.9506  0.8352 -0.1170
40617SOL    HW227944   3.004   0.376   0.295 -1.1493  0.3182  1.5849
40618SOL     OW27945   8.367   7.074   7.878 -0.2031  0.1750 -0.5140
40618SOL    HW127946   8.341   7.128   7.804 -0.2832  1.0391  0.1248
40618SOL    HW227947   8.340   7.124   7.955 -0.6291 -0.9544  0.1054
40619SOL     OW27948   7.693   8.354   1.747  0.5073  0.0799  0.2573
40619SOL    HW127949   7.691   8.259   1.734  0.0962 -0.0418  1.1222
40619SOL    HW227950   7.783   8.373   1.776  0.6787 -0.0031 -0.2231
40620SOL     OW27951   7.186   7.957   3.453 -0.0166 -0.0496 -0.6835
40620SOL    HW127952   7.130   7.968   3.376 -1.6880 -1.2652  0.2905
40620SOL    HW227953   7.181   7.863   3.473  0.6563  0.1890  0.7253
40621SOL     OW27954   2.967   0.600   2.266  0.2385 -0.9712  0.0918
40621SOL    HW127955   3.008   0.617   2.351 -0.5654  0.1418  0.2845
40621SOL    HW227956   2.941   0.686   2.235 -1.4002 -1.5725 -0.2934
40622SOL     OW27957   1.785   4.445   2.475  0.3359  0.4766 -0.1380
40622SOL    HW127958   1.701   4.491   2.469  1.1908  2.1833  0.2355
40622SOL    HW227959   1.805   4.443   2.568 -0.4772 -2.2745  0.0462
40623SOL     OW27960   9.653   8.670   3.474 -0.4523  0.1031  0.2069
40623SOL    HW127961   9.574   8.616   3.470 -1.0421  1.0241 -1.2123
40623SOL    HW227962   9.721   8.611   3.507 -2.0049 -0.3297  2.9097
40624SOL     OW27963   1.163  10.133  10.269 -0.6083 -0.2283 -0.1662
40624SOL    HW127964   1.091  10.144  10.331 -1.1609 -1.6259 -0.5245
40624SOL    HW227965   1.121  10.138  10.183 -0.2279 -0.7682 -0.3829
40625SOL     OW27966  10.664   2.027   2.158 -0.3471  0.5704 -0.2526
40625SOL    HW127967  10.759   2.012   2.158 -0.4441 -0.0886 -0.3587
40625SOL    HW227968  10.626   1.940   2.170 -0.9298  0.9850  1.1312
40626SOL     OW27969   3.348   8.609   6.352  0.0623 -0.0478 -0.1407
40626SOL    HW127970   3.323   8.622   6.443  1.4707  0.2103  0.2324
40626SOL    HW227971   3.424   8.666   6.339  0.2082 -0.4762 -1.3217
40627SOL     OW27972   7.027   8.415   7.975  0.0162 -0.4089  0.0515
40627SOL    HW127973   6.947   8.430   7.925  1.0748 -0.2917 -1.7134
40627SOL    HW227974   7.054   8.326   7.950  0.8266 -0.1653  0.0218
40628SOL     OW27975   2.126   2.485   0.915 -0.5037 -0.5036  0.5863
40628SOL    HW127976   2.059   2.454   0.975  1.7517 -1.5824  2.7160
40628SOL    HW227977   2.138   2.577   0.937 -0.2554 -0.6884  1.2428
40629SOL     OW27978   8.940   8.618  10.753  0.0084 -0.4164  0.0487
40629SOL    HW127979   8.862   8.566  10.772  0.0285 -1.1309 -1.6723
40629SOL    HW227980   9.013   8.564  10.782 -0.0980  0.3408  1.8550
40630SOL     OW27981   4.198   0.871   9.819 -0.1936  0.2694  0.1840
40630SOL    HW127982   4.190   0.942   9.756  2.7013 -0.7713 -1.5281
40630SOL    HW227983   4.190   0.791   9.767  0.1002 -0.6482  1.4955
40631SOL     OW27984   1.386  10.407  10.331  0.1771 -0.7054 -0.5463
40631SOL    HW127985   1.378  10.313  10.315  0.1518 -0.7600 -0.2282
40631SOL    HW227986   1.296  10.438  10.338  0.1805 -0.9338  0.8597
40632SOL     OW27987   2.056   5.958   7.578 -0.1172 -0.0959  0.1034
40632SOL    HW127988   1.992   5.901   7.535 -1.8012  0.6634  1.5041
40632SOL    HW227989   2.025   6.046   7.559 -0.8156  0.2641  2.6442
40633SOL     OW27990   5.328   8.486   6.427 -0.2551  0.1242 -0.4685
40633SOL    HW127991   5.278   8.478   6.346  0.3587  1.7995 -1.0811
40633SOL    HW227992   5.419   8.470   6.400 -0.1233  0.0614  0.0110
40634SOL     OW27993   9.569  10.191   3.872 -0.0779  0.8926  0.1452
40634SOL    HW127994   9.556  10.100   3.845 -0.2251  0.5853  1.2307
40634SOL    HW227995   9.567  10.241   3.790 -1.8296  0.1418 -0.2994
40635SOL     OW27996   5.222   3.410   2.313 -0.3733 -0.1737  0.0617
40635SOL    HW127997   5.176   3.329   2.291 -0.3275 -0.0942 -0.3343
40635SOL    HW227998   5.270   3.433   2.233  0.0640 -0.0585  0.3514
40636SOL     OW27999   6.925   5.233  10.843  0.7338 -0.1316 -0.0710
40636SOL    HW128000   6.977   5.282  10.907 -0.8165  3.1378 -1.1218
40636SOL    HW228001   6.989   5.202  10.779  1.7114  1.9899 -0.2112
40637SOL     OW28002   5.027  10.708   0.938 -0.2925 -0.2951 -0.3530
40637SOL    HW128003   5.087  10.634   0.928  1.4311  0.9890  0.0132
40637SOL    HW228004   4.993  10.725   0.850 -1.7781 -2.3137 -0.2370
40638SOL     OW28005   2.756   9.789   0.230  0.1270 -0.1023 -0.2862
40638SOL    HW128006   2.718   9.877   0.236  0.4423  0.2150 -2.2922
40638SOL    HW228007   2.766   9.761   0.321 -2.6582  0.7458  0.3717
40639SOL     OW28008   2.887   4.785   6.791  0.5865  0.4799  0.0889
40639SOL    HW128009   2.948   4.796   6.718 -0.1338 -1.9510 -0.9963
40639SOL    HW228010   2.935   4.815   6.868  1.8310  1.9026 -1.1901
40640SOL     OW28011   7.214   8.034   8.806  0.7181 -0.1268  0.0449
40640SOL    HW128012   7.281   8.103   8.814  0.9607 -0.4024  0.4469
40640SOL    HW228013   7.256   7.956   8.841 -0.0104 -0.1732  0.8486
40641SOL     OW28014   0.870   7.074   9.773  0.2586 -0.8566  0.0143
40641SOL    HW128015   0.789   7.023   9.784 -0.5241  0.2364 -0.4298
40641SOL    HW228016   0.883   7.116   9.858 -0.3938 -0.0083 -0.2857
40642SOL     OW28017   6.962   0.638   0.923 -0.4284  0.1985 -0.1436
40642SOL    HW128018   6.951   0.622   0.829  0.0034 -0.7494 -0.0455
40642SOL    HW228019   7.020   0.714   0.927  0.0614 -0.1418 -0.6415
40643SOL     OW28020   2.051   2.334   6.664  0.0996 -0.5643 -0.2008
40643SOL    HW128021   2.015   2.253   6.627  3.0434 -1.6029 -1.1000
40643SOL    HW228022   2.083   2.382   6.588  1.3905 -0.1567  0.5786
40644SOL     OW28023   8.820   0.675   7.542 -0.0966  0.5686  0.4347
40644SOL    HW128024   8.748   0.737   7.548 -0.0527  0.5971  0.6633
40644SOL    HW228025   8.840   0.652   7.633  0.3574  0.7642  0.3835
40645SOL     OW28026   4.805   4.487   6.559 -0.5540  0.0335 -0.0573
40645SOL    HW128027   4.717   4.450   6.549 -1.1273  0.6246  2.1047
40645SOL    HW228028   4.795   4.579   6.533 -0.3587 -0.1097 -0.6417
40646SOL     OW28029   8.705   5.441   6.593  0.0399 -0.2664 -0.4040
40646SOL    HW128030   8.674   5.510   6.651  0.9008 -1.7924  2.0258
40646SOL    HW228031   8.792   5.471   6.565 -0.5344  0.6494 -1.2890
40647SOL     OW28032   8.217   2.633   6.462 -0.5438  0.0261  0.4276
40647SOL    HW128033   8.161   2.693   6.412 -1.3655 -0.5634  0.6124
40647SOL    HW228034   8.194   2.650   6.553  0.1502  0.3143  0.5591
40648SOL     OW28035  10.918   9.101   3.836 -0.1832 -0.1247  0.2642
40648SOL    HW128036  10.953   9.023   3.878 -0.4899 -0.0162  0.7258
40648SOL    HW228037  10.965   9.107   3.752  1.1700  0.2081  1.0157
40649SOL     OW28038   2.422   2.340   1.680  0.5285  0.1684  0.5607
40649SOL    HW128039   2.367   2.348   1.759 -0.1060 -2.0541  0.3994
40649SOL    HW228040   2.360   2.317   1.611  1.1893  1.3740 -0.4785
40650SOL     OW28041   0.731   1.858   0.790  0.2680 -0.3483  0.2460
40650SOL    HW128042   0.770   1.784   0.742  0.3022 -0.4076  0.3642
40650SOL    HW228043   0.638   1.855   0.767 -0.1501 -1.7304  1.8976
40651SOL     OW28044   5.261   9.946   5.004 -0.0837 -0.2903  0.2564
40651SOL    HW128045   5.356   9.948   4.994  0.0004  1.2073  1.0484
40651SOL    HW228046   5.235   9.861   4.970  1.5854 -0.9062  0.4257
40652SOL     OW28047  10.285   5.082   9.427  0.1082 -0.1353  0.7149
40652SOL    HW128048  10.223   5.025   9.382 -0.4699  1.4809 -0.6754
40652SOL    HW228049  10.370   5.059   9.390 -0.0483 -0.4722  0.5615
40653SOL     OW28050   6.973   7.914   0.015 -0.2131 -0.1330 -0.4109
40653SOL    HW128051   7.055   7.942   0.056 -0.2752  0.5877 -0.7508
40653SOL    HW228052   6.918   7.992   0.019 -0.6186 -0.3973 -0.8444
40654SOL     OW28053   9.818   3.384   1.525 -0.5246  0.1907 -0.0367
40654SOL    HW128054   9.753   3.454   1.523 -0.0712  0.5961 -1.3058
40654SOL    HW228055   9.877   3.408   1.597 -0.8589  0.6589  0.0881
40655SOL     OW28056   5.410  10.147   8.713  0.1787  0.6425  0.1582
40655SOL    HW128057   5.344  10.190   8.659 -0.4710 -1.2486 -0.6642
40655SOL    HW228058   5.473  10.110   8.650 -0.3474 -1.2118  0.6468
40656SOL     OW28059  10.716   3.251   5.133  0.7413  0.3730 -0.0365
40656SOL    HW128060  10.707   3.158   5.110  0.8078  0.6187 -1.1202
40656SOL    HW228061  10.705   3.297   5.050 -0.8731  1.4506  0.7306
40657SOL     OW28062   3.962   3.120   6.209  0.1391 -0.5578  0.1632
40657SOL    HW128063   3.913   3.087   6.134 -1.2790 -1.1750  1.3198
40657SOL    HW228064   3.979   3.043   6.263  0.5334 -0.0265  0.8200
40658SOL     OW28065   3.808   9.052   6.942 -0.1571 -0.0548 -0.7591
40658SOL    HW128066   3.774   9.050   7.032  1.4619 -1.0699 -0.1325
40658SOL    HW228067   3.837   9.143   6.929 -1.8125  0.5009 -0.8538
40659SOL     OW28068   7.859   6.543   5.323 -0.4993  0.3767 -0.2518
40659SOL    HW128069   7.929   6.598   5.359 -0.4149 -0.1421  0.3975
40659SOL    HW228070   7.904   6.470   5.281 -0.6445 -0.1607  0.5002
40660SOL     OW28071   1.902   5.324   8.332  0.2493  0.5831  0.1932
40660SOL    HW128072   1.881   5.330   8.239 -2.2425  1.2155  0.7154
40660SOL    HW228073   1.911   5.415   8.361 -1.6910  0.5635  1.0432
40661SOL     OW28074   0.141   9.417   8.709 -0.0367  0.1394 -0.8182
40661SOL    HW128075   0.096   9.386   8.630 -0.4428  0.2229 -0.6229
40661SOL    HW228076   0.149   9.512   8.696  1.1660 -0.0270 -1.3984
40662SOL     OW28077   0.143   9.950   8.566  0.0208 -0.1452 -0.6725
40662SOL    HW128078   0.159  10.026   8.510  1.3758 -0.2902 -0.5062
40662SOL    HW228079   0.048   9.944   8.571 -0.1184  0.5348 -2.0572
40663SOL     OW28080   5.376   3.546   6.615  0.8785  0.3754 -0.2647
40663SOL    HW128081   5.345   3.526   6.704 -0.4251  0.0652 -0.7694
40663SOL    HW228082   5.305   3.595   6.575  1.3412  0.2706 -1.2389
40664SOL     OW28083   1.151  10.076   3.561  0.0395 -0.0380  0.3313
40664SOL    HW128084   1.148  10.055   3.655  0.9617 -0.0668  0.3584
40664SOL    HW228085   1.197  10.160   3.556  0.7720 -0.4628 -0.1615
40665SOL     OW28086   3.190   1.655   6.443 -0.2413  0.1868  0.3512
40665SOL    HW128087   3.248   1.579   6.444  0.5908  0.7604  2.6213
40665SOL    HW228088   3.249   1.730   6.444 -1.0376  0.9703 -2.2279
40666SOL     OW28089   3.720   0.841   3.103  0.2794  0.5323  0.3662
40666SOL    HW128090   3.757   0.845   3.191 -0.1904  1.5313  0.5375
40666SOL    HW228091   3.703   0.932   3.080 -2.3222  0.1598  0.4291
40667SOL     OW28092   8.699   8.125   3.967 -0.4392 -0.7914 -0.0164
40667SOL    HW128093   8.640   8.083   4.030  0.1966 -1.1531  0.3582
40667SOL    HW228094   8.643   8.155   3.896 -1.0099 -1.5399  0.1127
40668SOL     OW28095   0.999   0.489   0.638 -0.2339  0.1688 -0.4118
40668SOL    HW128096   1.011   0.537   0.556  0.3870  1.5899  0.4792
40668SOL    HW228097   0.930   0.536   0.683  0.3709  0.2188  0.4750
40669SOL     OW28098   3.522   2.549   6.996 -0.3755 -0.3133 -0.2745
40669SOL    HW128099   3.537   2.531   6.903 -0.5643  1.4841 -0.6815
40669SOL    HW228100   3.570   2.629   7.013 -1.8802  0.4266  0.7066
40670SOL     OW28101   5.610   4.745   5.616  0.5935 -0.6804 -0.1720
40670SOL    HW128102   5.542   4.706   5.670  0.8486 -0.1857  0.5222
40670SOL    HW228103   5.688   4.693   5.633  0.2941 -1.5609 -1.3478
40671SOL     OW28104   5.270   6.690   6.517  0.1108  0.7748  0.4785
40671SOL    HW128105   5.184   6.654   6.496  0.6139 -0.6504  0.7067
40671SOL    HW228106   5.284   6.759   6.453  0.4827 -1.6459 -2.2801
40672SOL     OW28107   5.862   3.650   7.016 -0.0332 -0.1250 -0.0726
40672SOL    HW128108   5.784   3.673   7.065 -0.0730 -0.9884  0.2857
40672SOL    HW228109   5.831   3.639   6.926 -0.4525 -1.0603  0.1735
40673SOL     OW28110   8.362   9.273   8.547  0.3458 -0.5913  0.0684
40673SOL    HW128111   8.288   9.333   8.546  0.8222  0.0211  0.3418
40673SOL    HW228112   8.323   9.185   8.553 -0.4309 -0.4798 -2.4071
40674SOL     OW28113   0.067   0.150  10.329  0.0672  0.3616 -0.4803
40674SOL    HW128114   0.067   0.217  10.261  0.4383 -1.5332 -2.4854
40674SOL    HW228115   0.159   0.130  10.343  0.0274  1.1403  1.0714
40675SOL     OW28116   3.641   9.364  10.436  0.0178 -0.3721  0.2093
40675SOL    HW128117   3.563   9.414  10.412 -0.2569 -1.5366 -1.4530
40675SOL    HW228118   3.628   9.342  10.528  0.9042  3.8903  1.5928
40676SOL     OW28119   0.163   2.241   4.719  0.4586  0.0580 -0.2215
40676SOL    HW128120   0.098   2.266   4.654 -0.2795 -0.2831  0.3677
40676SOL    HW228121   0.198   2.324   4.752  1.1939  0.2287 -1.3774
40677SOL     OW28122   0.691   6.722  10.216  0.1563  0.3026  0.1203
40677SOL    HW128123   0.728   6.669  10.286 -0.9127 -0.1814  0.3372
40677SOL    HW228124   0.742   6.698  10.138  1.2486  0.7336  0.6787
40678SOL     OW28125   7.130  10.775   3.715 -0.5969 -0.3084  0.1276
40678SOL    HW128126   7.122  10.680   3.713 -0.0047 -0.3461 -0.5768
40678SOL    HW228127   7.113  10.799   3.806 -0.5934 -1.0969  0.3358
40679SOL     OW28128   8.977   0.060   8.218  0.6416 -0.2511 -0.0350
40679SOL    HW128129   8.899   0.052   8.273  0.1805 -1.6231 -0.8337
40679SOL    HW228130   9.049   0.075   8.280  0.0404 -1.0818  0.8909
40680SOL     OW28131   6.306   9.454   5.730 -0.4760 -0.0316 -0.1127
40680SOL    HW128132   6.396   9.480   5.710 -0.9425 -0.2131 -2.8827
40680SOL    HW228133   6.306   9.359   5.722 -0.9231 -0.0244 -0.2141
40681SOL     OW28134   6.019   2.206   8.977 -0.0091  0.0679 -0.1224
40681SOL    HW128135   6.105   2.249   8.973 -0.3520  0.7808  0.0373
40681SOL    HW228136   5.991   2.217   9.068 -0.9845  1.2860 -0.5355
40682SOL     OW28137   2.207   4.460   2.967  0.4267  0.2858 -0.3128
40682SOL    HW128138   2.253   4.538   2.999  1.1579 -0.2407 -0.0447
40682SOL    HW228139   2.127   4.494   2.926  0.1853  1.0891  0.7836
40683SOL     OW28140   5.754   5.455   1.531  0.0541 -0.7045  0.0783
40683SOL    HW128141   5.684   5.473   1.468 -0.4871  1.5547  1.2522
40683SOL    HW228142   5.724   5.378   1.579 -1.9437  0.5793  0.9709
40684SOL     OW28143   9.281   3.347   8.191  0.0774  0.2802 -0.7735
40684SOL    HW128144   9.197   3.391   8.209  0.2414  1.0963 -1.8857
40684SOL    HW228145   9.262   3.290   8.116  0.0610 -1.0154  0.1759
40685SOL     OW28146   5.849   5.521   8.060  0.1227 -0.1319  0.0153
40685SOL    HW128147   5.755   5.533   8.073 -0.2019 -0.2872 -1.8999
40685SOL    HW228148   5.886   5.523   8.148 -1.5958  0.5633  0.7640
40686SOL     OW28149   4.343   2.153   4.287  0.7730 -0.3713 -0.1254
40686SOL    HW128150   4.283   2.103   4.231 -0.2932 -0.9459  1.4714
40686SOL    HW228151   4.328   2.244   4.262 -1.8324 -0.3573  1.1452
40687SOL     OW28152   6.532   6.333   2.472 -0.5342  0.1690  0.1658
40687SOL    HW128153   6.552   6.263   2.410 -1.6781  1.8990 -2.3498
40687SOL    HW228154   6.437   6.345   2.465 -0.3105  2.3175  0.0242
40688SOL     OW28155   6.038   1.860   6.327 -0.4087  0.0096 -0.1472
40688SOL    HW128156   6.005   1.781   6.370 -0.2962 -0.2520 -0.5374
40688SOL    HW228157   6.126   1.836   6.297  0.4832  0.9485  1.5708
40689SOL     OW28158   8.601   7.553   1.631  0.5844 -0.0465  0.7824
40689SOL    HW128159   8.662   7.614   1.672 -0.8287  2.0259 -0.0024
40689SOL    HW228160   8.515   7.579   1.665 -0.0889 -1.4606  0.2351
40690SOL     OW28161   8.619   1.274   8.274  0.2022  0.3418 -0.3650
40690SOL    HW128162   8.547   1.296   8.333  0.2276  1.1737 -0.6340
40690SOL    HW228163   8.688   1.242   8.333  0.5749  2.0532  0.1983
40691SOL     OW28164   7.081   6.738   6.463 -0.8030 -0.2459 -0.3276
40691SOL    HW128165   7.073   6.811   6.401 -0.5140 -1.0366 -1.3336
40691SOL    HW228166   6.991   6.706   6.474 -1.0243  0.6838  0.6622
40692SOL     OW28167   2.789   6.185  10.681  0.3920  0.3630  0.0570
40692SOL    HW128168   2.816   6.254  10.741 -0.4251 -1.1082  2.2663
40692SOL    HW228169   2.740   6.230  10.612 -2.9283  1.8184  3.0781
40693SOL     OW28170   5.195   0.690   4.176  0.0490  0.5250 -0.3791
40693SOL    HW128171   5.286   0.661   4.190 -0.1753 -1.1428 -1.9741
40693SOL    HW228172   5.142   0.617   4.208 -0.6879  0.8273 -0.8897
40694SOL     OW28173   7.373   6.787   0.917  0.1999 -0.1545 -0.3368
40694SOL    HW128174   7.365   6.717   0.852  0.8442 -1.2670  0.7245
40694SOL    HW228175   7.448   6.761   0.971  0.3774  1.3043  0.1630
40695SOL     OW28176   4.841   5.514   8.579  0.6298  0.2696  0.1432
40695SOL    HW128177   4.926   5.555   8.591  0.6521  0.3293 -0.2109
40695SOL    HW228178   4.821   5.527   8.487  0.8464 -0.9093 -0.0889
40696SOL     OW28179   5.616   8.960   7.561 -0.4415  0.1775  0.0620
40696SOL    HW128180   5.585   8.882   7.516  1.2250 -0.3261 -0.2764
40696SOL    HW228181   5.673   8.926   7.631 -0.1845  1.0713  0.2999
40697SOL     OW28182   4.746   0.100   3.384  0.3087 -0.1130  0.4583
40697SOL    HW128183   4.771   0.028   3.326  1.8899  0.5065  0.3218
40697SOL    HW228184   4.662   0.130   3.350 -1.0487 -2.6807  1.2942
40698SOL     OW28185   2.942   8.148   2.314  0.3905  0.4504  0.4153
40698SOL    HW128186   2.903   8.113   2.234  0.9267  0.8698 -0.0394
40698SOL    HW228187   2.876   8.133   2.381 -0.2565  0.5042 -0.1960
40699SOL     OW28188  10.821   0.632   5.233 -0.0835 -0.0555 -0.3292
40699SOL    HW128189  10.779   0.561   5.282  0.1602  0.4216  0.6022
40699SOL    HW228190  10.748   0.691   5.211 -0.3925 -0.8983 -1.6947
40700SOL     OW28191   6.119   7.434   4.603 -0.3315  0.2347 -0.3619
40700SOL    HW128192   6.067   7.513   4.588  0.6101  1.0865  0.6546
40700SOL    HW228193   6.088   7.372   4.537 -1.7234  1.1400 -0.5989
40701SOL     OW28194   3.536   9.918   0.315 -0.3402  0.3730 -0.1201
40701SOL    HW128195   3.459   9.927   0.371 -1.2021  0.7358 -1.3314
40701SOL    HW228196   3.557   9.825   0.318 -0.8706  0.2581  0.1584
40702SOL     OW28197   5.907   0.982   2.850 -0.0983 -0.3182 -0.2986
40702SOL    HW128198   5.858   1.058   2.819 -1.3045 -1.4687 -1.3247
40702SOL    HW228199   5.991   1.018   2.878 -1.8354  1.9488  2.7075
40703SOL     OW28200   1.120   9.956   3.350 -0.0192  0.4155  0.4040
40703SOL    HW128201   1.124  10.016   3.425  2.8967  1.4300 -0.4200
40703SOL    HW228202   1.165   9.877   3.381  4.7219  2.1707 -1.1416
40704SOL     OW28203   9.771   7.159   7.991  0.5035  0.0310  0.5010
40704SOL    HW128204   9.766   7.224   8.061 -1.6280  1.4641 -0.8766
40704SOL    HW228205   9.770   7.210   7.910 -0.9740 -1.6810 -0.6356
40705SOL     OW28206   1.424   1.903  10.402 -0.0561 -0.6420 -0.1978
40705SOL    HW128207   1.360   1.844  10.443 -0.7097 -0.1786 -0.5354
40705SOL    HW228208   1.375   1.983  10.384 -0.1271 -1.2081 -2.9179
40706SOL     OW28209   8.503   7.201   5.026  0.4705 -0.4009 -0.2197
40706SOL    HW128210   8.488   7.188   5.119 -4.1368 -1.0873 -0.7989
40706SOL    HW228211   8.476   7.292   5.011  0.6136 -0.4760 -0.9458
40707SOL     OW28212   0.472   3.287   7.457  0.9112 -0.7085  0.0892
40707SOL    HW128213   0.479   3.212   7.515  0.5421 -0.3893  0.5508
40707SOL    HW228214   0.408   3.261   7.391 -0.4518 -0.2217  1.1730
40708SOL     OW28215   8.451   0.957   9.136 -0.2150 -0.8818  0.2901
40708SOL    HW128216   8.482   0.937   9.224 -1.6974 -1.0213  0.8081
40708SOL    HW228217   8.521   0.926   9.078 -0.0686 -2.6082  1.3264
40709SOL     OW28218   3.263   1.479   0.088  0.1895  0.7020  0.2494
40709SOL    HW128219   3.317   1.478   0.166  0.6950 -1.3555 -0.0513
40709SOL    HW228220   3.325   1.475   0.015 -0.2248 -2.6924 -0.0837
40710SOL     OW28221   3.305   1.414   1.939  0.2845 -0.4429  0.1300
40710SOL    HW128222   3.235   1.350   1.947 -0.0083 -0.0734  0.5570
40710SOL    HW228223   3.319   1.422   1.845  0.2062 -1.0018  0.0678
40711SOL     OW28224   0.558   7.875   1.780  0.0366  0.1091  0.1437
40711SOL    HW128225   0.577   7.862   1.687 -0.4859  0.2743  0.0119
40711SOL    HW228226   0.517   7.961   1.784 -2.1792 -0.8937  0.1961
40712SOL     OW28227   5.442  10.138   0.246  0.4144  0.3638 -0.2198
40712SOL    HW128228   5.441  10.125   0.151 -0.2799  3.3027 -0.7030
40712SOL    HW228229   5.509  10.205   0.261  1.0962 -0.6207  1.5063
40713SOL     OW28230   0.561   6.412   1.046  0.4650  0.2180  0.0994
40713SOL    HW128231   0.500   6.478   1.076 -0.4177 -0.5441  0.0321
40713SOL    HW228232   0.636   6.461   1.013 -0.2794  1.1856 -0.1826
40714SOL     OW28233   7.989   1.095   4.211  0.0598 -0.3905  0.8788
40714SOL    HW128234   7.915   1.037   4.191  0.9751 -1.3419  0.1558
40714SOL    HW228235   7.953   1.183   4.205 -1.1807 -0.8516  1.2387
40715SOL     OW28236   2.131   5.519   4.163 -0.6164  0.1229 -0.2393
40715SOL    HW128237   2.168   5.607   4.164  1.0142 -0.5344  0.4220
40715SOL    HW228238   2.164   5.478   4.244  0.1011 -1.6582 -1.3792
40716SOL     OW28239   3.885   7.426   1.980  0.2709 -0.1268 -0.1499
40716SOL    HW128240   3.833   7.370   1.923 -1.0363  1.1903 -0.3152
40716SOL    HW228241   3.931   7.366   2.038  1.1890 -1.5037 -2.1806
40717SOL     OW28242   5.417   4.649  10.302 -0.0270 -0.0383  0.0801
40717SOL    HW128243   5.470   4.693  10.235 -0.2468 -0.9811 -0.7444
40717SOL    HW228244   5.480   4.599  10.353 -0.1121 -1.5236 -1.1851
40718SOL     OW28245   0.454   3.328   1.866 -0.4276  0.2903 -0.4832
40718SOL    HW128246   0.463   3.255   1.804  2.8546  1.5381 -1.6876
40718SOL    HW228247   0.535   3.377   1.858 -0.9252  2.0357  3.0159
40719SOL     OW28248   0.099   0.410   5.753 -0.6072  0.6236 -0.1861
40719SOL    HW128249   0.055   0.460   5.821 -0.5333 -0.0749  0.3844
40719SOL    HW228250   0.191   0.409   5.779 -0.7290 -0.4968  0.2562
40720SOL     OW28251   3.045   6.519   6.735 -0.4127  0.6216 -0.2142
40720SOL    HW128252   2.957   6.529   6.697 -1.2623  0.4941  1.5891
40720SOL    HW228253   3.030   6.467   6.814  1.0502  1.9532  0.9839
40721SOL     OW28254   2.856   4.027   5.026  0.2740  0.3321 -0.0907
40721SOL    HW128255   2.892   4.038   5.115 -2.1014 -0.0520  1.0014
40721SOL    HW228256   2.915   3.964   4.984  1.0456 -0.0543  1.4901
40722SOL     OW28257   1.967   6.133   1.678  0.4250  0.3754 -0.0658
40722SOL    HW128258   2.027   6.130   1.753 -0.1733  1.5089  0.4996
40722SOL    HW228259   1.939   6.043   1.666  2.0052 -0.1295 -0.1640
40723SOL     OW28260   4.123   3.094   1.185 -0.6875 -0.3415 -0.9466
40723SOL    HW128261   4.145   3.187   1.190  1.8997 -0.7049 -3.3521
40723SOL    HW228262   4.087   3.073   1.271 -2.7838  3.1647 -0.7776
40724SOL     OW28263   3.033  10.744   1.690 -0.1644 -0.5071  0.4566
40724SOL    HW128264   2.979  10.737   1.611 -1.2272  0.1241  1.1162
40724SOL    HW228265   3.092  10.817   1.672 -0.0632 -0.6826  0.0556
40725SOL     OW28266   7.438   7.346   1.885 -0.3250 -0.2185  0.4971
40725SOL    HW128267   7.479   7.267   1.920  2.5379  0.2226 -1.4473
40725SOL    HW228268   7.351   7.348   1.924  0.5331 -2.7615  2.8422
40726SOL     OW28269   4.270   8.896   5.037  0.1448  0.5091  0.1813
40726SOL    HW128270   4.338   8.936   5.091 -0.2128  0.7806  0.4383
40726SOL    HW228271   4.221   8.970   5.002  0.3307  0.3292 -0.4580
40727SOL     OW28272   9.823   2.364   6.307 -0.0271 -0.6299  0.3436
40727SOL    HW128273   9.796   2.442   6.354  0.0433 -1.0083  1.0293
40727SOL    HW228274   9.786   2.374   6.219  1.2842  0.9184 -0.0925
40728SOL     OW28275  10.263   4.687   5.691 -0.9173  0.1555 -0.3848
40728SOL    HW128276  10.260   4.782   5.702 -0.4868  0.0038  1.1176
40728SOL    HW228277  10.183   4.656   5.733 -1.2324 -0.1369 -1.1781
40729SOL     OW28278   1.365   3.260   7.448 -0.4166  0.2671 -0.6906
40729SOL    HW128279   1.432   3.299   7.393  1.1992 -1.0298  0.2690
40729SOL    HW228280   1.292   3.243   7.389  0.8220 -0.0499 -2.1868
40730SOL     OW28281  10.039   0.622   4.828 -0.0592 -0.3244  0.0939
40730SOL    HW128282  10.022   0.534   4.861  0.2685 -1.4236 -2.4436
40730SOL    HW228283  10.133   0.635   4.841 -0.1210 -0.3193  0.5360
40731SOL     OW28284   1.600   7.651   1.178  0.1660 -0.9033  0.2426
40731SOL    HW128285   1.593   7.617   1.089 -1.2741  1.9891 -0.9003
40731SOL    HW228286   1.668   7.718   1.173 -2.3691  1.8964  0.2269
40732SOL     OW28287   3.279   8.255   8.667  0.0736 -0.5224 -0.3257
40732SOL    HW128288   3.314   8.167   8.658  1.5313 -0.0352  0.2085
40732SOL    HW228289   3.259   8.282   8.577 -2.2732 -2.0722 -0.3406
40733SOL     OW28290   9.151  10.847   3.845 -0.0775 -0.0022 -0.2747
40733SOL    HW128291   9.137  10.829   3.938 -1.4277  1.0969 -0.2368
40733SOL    HW228292   9.243  10.870   3.838 -0.3651  1.7215  1.1298
40734SOL     OW28293   7.694   8.783  10.040 -0.5610 -0.3048 -0.0182
40734SOL    HW128294   7.673   8.836  10.117 -1.4031 -2.1300  1.0893
40734SOL    HW228295   7.789   8.787  10.033 -0.6308  2.1658 -0.6619
40735SOL     OW28296   5.551   5.958   8.567  0.2114  0.1959 -0.1705
40735SOL    HW128297   5.486   5.945   8.636  1.7067 -1.4039  1.0097
40735SOL    HW228298   5.612   6.022   8.604 -0.1577  0.9970 -0.9118
40736SOL     OW28299   7.818   6.253  10.670 -0.6067 -0.1955  0.1834
40736SOL    HW128300   7.908   6.284  10.667  0.2672 -2.5464 -2.1787
40736SOL    HW228301   7.803   6.230  10.762  1.7430 -1.1015  0.4140
40737SOL     OW28302   7.262   5.773   0.652  0.7367  0.0156 -0.1497
40737SOL    HW128303   7.349   5.758   0.688  0.4432  0.0519  0.6074
40737SOL    HW228304   7.220   5.832   0.715 -1.0624 -2.7685  1.5034
40738SOL     OW28305  10.539   0.130   3.882  0.2793  0.2760  0.1287
40738SOL    HW128306  10.453   0.155   3.917  1.4551  1.2286  2.5887
40738SOL    HW228307  10.590   0.211   3.883  1.2893 -0.3036 -1.1436
40739SOL     OW28308   5.108   5.149   0.677 -0.2691  0.1818  0.5239
40739SOL    HW128309   5.097   5.234   0.719 -1.8548 -0.1966  0.9161
40739SOL    HW228310   5.164   5.100   0.736  1.6294  1.2734 -0.2389
40740SOL     OW28311   5.377   9.559   8.452 -0.2151  0.2680 -0.1215
40740SOL    HW128312   5.437   9.488   8.429  0.1977  1.1598 -2.0687
40740SOL    HW228313   5.430   9.620   8.502 -0.6911 -0.9268  1.9876
40741SOL     OW28314   4.152   6.644   0.273  0.2016 -0.4287 -0.6136
40741SOL    HW128315   4.222   6.579   0.281 -0.1902 -0.7829  0.0529
40741SOL    HW228316   4.071   6.593   0.283 -0.1904 -0.1397 -2.0996
40742SOL     OW28317   2.308   1.486  10.903 -0.4334 -0.0523 -0.1409
40742SOL    HW128318   2.403   1.488  10.892 -0.4483  0.4756 -0.1921
40742SOL    HW228319   2.277   1.565  10.859 -0.7971  0.3674  0.8363
40743SOL     OW28320   5.639   0.198   6.258 -0.1316 -0.7988 -0.5726
40743SOL    HW128321   5.623   0.243   6.175 -0.6257  0.9867  0.4334
40743SOL    HW228322   5.590   0.116   6.251 -1.0936 -0.1636 -1.6289
40744SOL     OW28323   4.090   2.923   8.759  0.5269  0.6472  0.3499
40744SOL    HW128324   4.155   2.930   8.690 -0.6656  0.7488 -0.7958
40744SOL    HW228325   4.073   2.829   8.767  0.3419  0.6663  0.1900
40745SOL     OW28326   1.828   9.999   8.112 -0.1133 -0.1798  0.0159
40745SOL    HW128327   1.817   9.985   8.018  2.2444 -0.1620 -0.3148
40745SOL    HW228328   1.774  10.076   8.131  0.8969  1.0491 -1.7642
40746SOL     OW28329   6.872   8.676   2.780  0.0019 -0.4793  0.2948
40746SOL    HW128330   6.875   8.687   2.685  1.2914 -1.0241  0.2473
40746SOL    HW228331   6.847   8.585   2.794 -0.9302 -0.2031  0.5083
40747SOL     OW28332  10.163   4.437   9.488  0.2023 -0.3384 -0.4208
40747SOL    HW128333  10.232   4.436   9.554  0.6628  0.6180 -0.8518
40747SOL    HW228334  10.206   4.475   9.411 -0.2674 -1.6003 -1.3336
40748SOL     OW28335   0.396   1.568   1.685  0.4853  0.2857 -0.0612
40748SOL    HW128336   0.370   1.505   1.618  0.7581  0.1200 -0.0112
40748SOL    HW228337   0.359   1.534   1.766 -0.2768  0.7485 -0.2010
40749SOL     OW28338   2.591   7.315   3.137  0.4221  0.0739  0.2334
40749SOL    HW128339   2.513   7.271   3.170  0.9705 -0.6144  0.6466
40749SOL    HW228340   2.602   7.281   3.049  0.0455  0.4632  0.0309
40750SOL     OW28341   6.588   2.923   1.103 -0.2060  0.0486  0.1355
40750SOL    HW128342   6.681   2.946   1.098 -0.5640  1.5851 -0.0357
40750SOL    HW228343   6.558   2.962   1.185 -0.8098 -0.0062 -0.0530
40751SOL     OW28344   2.109   9.508  10.500 -0.0611 -0.4180 -0.4420
40751SOL    HW128345   2.148   9.576  10.446  0.9202  1.7718  2.7298
40751SOL    HW228346   2.015   9.527  10.498  0.0224 -0.0421 -0.9616
40752SOL     OW28347   9.503   0.254   5.460 -0.3415  0.8449 -0.8669
40752SOL    HW128348   9.473   0.164   5.476  0.8511  0.6909  0.6645
40752SOL    HW228349   9.443   0.309   5.509 -0.1946  0.7787 -0.6123
40753SOL     OW28350   6.952   1.310   0.252  0.5312  0.4081 -0.7923
40753SOL    HW128351   6.884   1.258   0.295 -0.1388  1.1518 -0.9186
40753SOL    HW228352   7.007   1.246   0.207 -0.2085 -0.1939 -0.8640
40754SOL     OW28353   5.725   5.020  10.870 -0.1786 -0.2386  0.1508
40754SOL    HW128354   5.677   5.049  10.948  0.6829 -0.4618  0.7708
40754SOL    HW228355   5.736   5.100  10.818  1.6804  0.5106  1.5807
40755SOL     OW28356   5.140   3.082  10.561 -0.4900  0.5619 -0.2220
40755SOL    HW128357   5.184   3.005  10.526  0.5639  0.9498  0.2066
40755SOL    HW228358   5.196   3.155  10.535 -1.2576  1.1405 -0.2712
40756SOL     OW28359   9.862   9.125   1.704 -0.4326  0.5494  0.0507
40756SOL    HW128360   9.878   9.054   1.766  1.4568  0.5350 -0.3910
40756SOL    HW228361   9.786   9.096   1.653 -0.2731 -0.7093  0.4963
40757SOL     OW28362   9.303   1.026   9.897  0.0385  0.4734  0.4981
40757SOL    HW128363   9.316   1.113   9.860 -0.5294 -0.0901 -1.1361
40757SOL    HW228364   9.208   1.015   9.898  0.0601 -1.3176 -2.5152
40758SOL     OW28365   9.279   3.640   8.438 -0.1412  0.0450  0.3506
40758SOL    HW128366   9.320   3.629   8.353  0.1959  1.0847  0.3631
40758SOL    HW228367   9.347   3.677   8.493 -0.3163 -0.7325  1.1207
40759SOL     OW28368   9.843   9.562   4.306 -0.6116 -0.3241  0.4618
40759SOL    HW128369   9.876   9.611   4.381 -0.8855  0.2187  0.2323
40759SOL    HW228370   9.861   9.470   4.327 -2.0963 -0.3360  1.9215
40760SOL     OW28371   8.883  10.574   0.482 -0.4695  0.4504 -0.4291
40760SOL    HW128372   8.792  10.592   0.507 -0.0202  0.9715  0.9476
40760SOL    HW228373   8.900  10.487   0.518  0.2065  1.2377  1.2779
40761SOL     OW28374   5.685   6.430   3.707 -0.2007  0.3445 -0.1683
40761SOL    HW128375   5.643   6.388   3.632  1.1567  1.4745 -1.6534
40761SOL    HW228376   5.763   6.376   3.723 -1.9572 -1.6534  2.4664
40762SOL     OW28377   7.366   0.049   4.449 -0.3980  0.1830  0.7255
40762SOL    HW128378   7.278   0.080   4.427  0.4666  2.2706 -0.0780
40762SOL    HW228379   7.420   0.074   4.374  1.1517  0.2661  1.8042
40763SOL     OW28380  10.083   7.684   8.941 -0.0488 -0.0649 -0.2884
40763SOL    HW128381  10.107   7.775   8.923 -1.4200  0.2505 -0.6160
40763SOL    HW228382   9.987   7.685   8.948 -0.1232 -1.5530 -0.7514
40764SOL     OW28383   2.397   3.943   4.670  0.6356 -0.2411  0.3031
40764SOL    HW128384   2.465   3.977   4.612 -1.5880  3.1142 -0.5874
40764SOL    HW228385   2.324   3.921   4.613  0.1503 -1.7455  1.4286
40765SOL     OW28386   0.827   7.219  10.894 -0.5806  0.3670 -0.0693
40765SOL    HW128387   0.748   7.208  10.841 -0.2087 -0.4426 -0.4658
40765SOL    HW228388   0.829   7.312  10.914  0.1580  1.0361 -2.8664
40766SOL     OW28389  10.448   8.652   6.778 -0.5808 -0.4326  0.5054
40766SOL    HW128390  10.362   8.691   6.791  0.4093  2.4428 -0.6945
40766SOL    HW228391  10.485   8.645   6.866 -1.7684 -1.1139  0.9712
40767SOL     OW28392   6.004   1.047   1.384 -0.0773 -0.1555  0.0198
40767SOL    HW128393   6.053   1.025   1.462 -0.9290  1.3430  1.0366
40767SOL    HW228394   6.042   1.129   1.353 -2.1834  1.3732  1.1779
40768SOL     OW28395   6.983   3.777   2.638 -0.1430 -0.4768  0.5225
40768SOL    HW128396   6.956   3.694   2.598  0.0527 -1.0409  1.5271
40768SOL    HW228397   6.901   3.820   2.663 -0.2139 -1.0887  1.3968
40769SOL     OW28398   3.932   1.694  10.232  0.2413  0.1527 -0.3186
40769SOL    HW128399   3.864   1.697  10.164 -0.1269 -0.8732 -0.0255
40769SOL    HW228400   3.949   1.600  10.243  1.3785  0.3765 -0.0538
40770SOL     OW28401   7.594   0.861   3.302  0.1214 -0.5016 -0.4038
40770SOL    HW128402   7.673   0.822   3.264 -0.1378  0.7815 -2.4178
40770SOL    HW228403   7.526   0.796   3.287  0.6128 -1.3015  0.6867
40771SOL     OW28404   7.873   9.163   3.712 -0.8042 -0.0297 -0.3073
40771SOL    HW128405   7.821   9.179   3.791  0.7429 -0.6367  0.8766
40771SOL    HW228406   7.935   9.236   3.709 -0.2846 -0.4719 -0.4519
40772SOL     OW28407   4.811   3.489   5.566  0.2479 -0.1005  0.3551
40772SOL    HW128408   4.731   3.526   5.529  0.9045  1.3283  0.2669
40772SOL    HW228409   4.881   3.527   5.512  1.0611 -0.1152  1.3679
40773SOL     OW28410  10.035   0.717   5.141 -0.0625 -0.2788  0.2558
40773SOL    HW128411   9.958   0.662   5.129 -1.3623  1.5197 -0.0095
40773SOL    HW228412  10.035   0.776   5.065  1.5302 -0.1735  0.2969
40774SOL     OW28413   6.077   9.129   2.742 -0.7440  0.7016  0.2206
40774SOL    HW128414   6.113   9.053   2.788 -0.8836 -0.6458 -1.7668
40774SOL    HW228415   5.984   9.126   2.761 -1.0849 -0.8710 -1.4140
40775SOL     OW28416   2.556   0.957   2.669  0.4303 -0.6958  0.3731
40775SOL    HW128417   2.487   0.915   2.618  1.0332  0.3057 -1.3555
40775SOL    HW228418   2.523   0.959   2.758 -0.8143 -2.2132 -0.0272
40776SOL     OW28419   1.826   1.071   5.180 -0.2766 -0.0021  0.6729
40776SOL    HW128420   1.852   1.101   5.267  1.6068 -2.4235  1.0197
40776SOL    HW228421   1.789   0.984   5.194 -0.6724 -0.1100 -0.8687
40777SOL     OW28422   7.045  10.291   5.333  0.4929 -0.2372  1.1022
40777SOL    HW128423   7.121  10.241   5.303 -1.4716 -2.1056 -1.2042
40777SOL    HW228424   7.079  10.380   5.345  3.3945 -1.3322  2.0118
40778SOL     OW28425   5.712   1.062   1.076  0.2184  0.0037  0.0682
40778SOL    HW128426   5.783   1.125   1.094 -0.0608  0.2640  0.2568
40778SOL    HW228427   5.694   1.074   0.983  0.8115 -0.4655 -0.1118
40779SOL     OW28428   8.219  10.029  10.069 -0.5093 -0.2814 -0.2706
40779SOL    HW128429   8.167  10.036  10.150 -0.3778  1.8302 -0.3010
40779SOL    HW228430   8.308  10.048  10.097 -0.3426 -0.2844 -0.7960
40780SOL     OW28431   4.211   3.908   7.332 -0.1496  0.1101 -0.0099
40780SOL    HW128432   4.218   3.843   7.402  0.9487  0.1072 -0.0993
40780SOL    HW228433   4.252   3.987   7.368  0.5385  0.0711 -0.6868
40781SOL     OW28434   3.628   9.214   4.275  0.2495 -0.0782  0.1950
40781SOL    HW128435   3.641   9.235   4.183  0.1996 -0.3458  0.1255
40781SOL    HW228436   3.571   9.283   4.308  1.5909  0.9450  0.4351
40782SOL     OW28437  10.754  10.721   9.625 -0.2179  0.0514 -0.6502
40782SOL    HW128438  10.670  10.675   9.631 -0.3321  0.3785  0.5616
40782SOL    HW228439  10.734  10.802   9.577 -1.2931  1.5520  2.0972
40783SOL     OW28440   7.214   4.794   0.126  0.8237  0.0956  0.0163
40783SOL    HW128441   7.200   4.797   0.032  0.6003 -0.0714  0.0431
40783SOL    HW228442   7.246   4.882   0.149  1.8697 -0.1796 -0.3643
40784SOL     OW28443   6.792   7.008  10.202 -0.9003 -0.1922  0.2932
40784SOL    HW128444   6.856   7.061  10.250 -1.1638 -0.7800  1.3193
40784SOL    HW228445   6.711   7.058  10.208 -0.8742 -0.1456  0.2565
40785SOL     OW28446   4.572   7.799   5.750 -0.4213 -0.2402  0.0769
40785SOL    HW128447   4.550   7.871   5.691  1.7795  1.0274  0.7006
40785SOL    HW228448   4.582   7.724   5.692  0.9931  0.8221 -1.1356
40786SOL     OW28449   8.423   9.193   1.880 -0.0640  1.0034  0.5658
40786SOL    HW128450   8.428   9.283   1.913 -0.5214  1.3755 -0.3108
40786SOL    HW228451   8.362   9.199   1.806  0.4631  0.1096  0.0372
40787SOL     OW28452   6.453   6.006   9.849  0.2556  0.8771  0.1095
40787SOL    HW128453   6.464   5.917   9.881  1.4555  0.7907 -0.4903
40787SOL    HW228454   6.535   6.026   9.804 -0.7712  1.5232 -1.5950
40788SOL     OW28455  10.791   2.128   4.010 -0.5985 -0.2929  0.1286
40788SOL    HW128456  10.802   2.155   4.101  0.8886  2.1882 -0.6709
40788SOL    HW228457  10.848   2.052   4.000  0.3900  0.3072  0.9381
40789SOL     OW28458   5.953   2.855   5.404  0.1642 -0.2660 -0.5434
40789SOL    HW128459   5.963   2.939   5.360 -1.2141  0.1598 -0.1093
40789SOL    HW228460   5.924   2.877   5.493  2.0905 -1.1376  0.3557
40790SOL     OW28461   9.430   5.788   5.678 -0.1992 -0.1080 -0.2497
40790SOL    HW128462   9.448   5.880   5.696 -0.6148  0.1816 -1.2594
40790SOL    HW228463   9.393   5.787   5.590 -2.1620 -1.0224  0.5392
40791SOL     OW28464   0.826   3.083   5.113 -0.2025 -0.1697 -0.0609
40791SOL    HW128465   0.875   3.006   5.143 -1.7411 -0.7717  1.0321
40791SOL    HW228466   0.755   3.047   5.059  0.3030  0.6523 -1.3178
40792SOL     OW28467   6.577   1.314   2.728  0.4883 -0.2371 -0.5949
40792SOL    HW128468   6.657   1.266   2.751  1.6944  1.6312 -0.6633
40792SOL    HW228469   6.595   1.405   2.755 -1.5884  0.2577 -0.7008
40793SOL     OW28470   2.836   0.743   3.899  0.1187 -0.2918  0.0278
40793SOL    HW128471   2.749   0.774   3.921  1.0880  1.2410  1.9854
40793SOL    HW228472   2.875   0.813   3.847  0.6217 -0.4057  0.2426
40794SOL     OW28473   4.940   0.898   3.613 -0.2765 -0.0586  0.3498
40794SOL    HW128474   4.957   0.939   3.698  1.1191 -0.7003  0.4090
40794SOL    HW228475   4.968   0.807   3.625  0.5651  0.0030 -0.9799
40795SOL     OW28476   9.419   7.260   9.353 -0.1120  0.5639 -0.8533
40795SOL    HW128477   9.362   7.336   9.365  0.9661  1.3727 -0.7707
40795SOL    HW228478   9.380   7.192   9.408 -0.0734  1.6013  0.5165
40796SOL     OW28479   3.545   0.092   1.756 -0.0035  0.1372 -0.2848
40796SOL    HW128480   3.605   0.056   1.690 -0.2607 -1.6692  0.4346
40796SOL    HW228481   3.510   0.016   1.801 -1.8692  1.2262  0.1916
40797SOL     OW28482   7.386   8.350  10.275  0.2937  0.0032 -0.0353
40797SOL    HW128483   7.452   8.341  10.344  1.0704 -0.3421 -0.8001
40797SOL    HW228484   7.432   8.396  10.204 -0.3782  0.0252 -0.4670
40798SOL     OW28485   2.437   3.173   7.151  0.0078  0.0412  0.3790
40798SOL    HW128486   2.386   3.112   7.204  0.2655 -0.4778  0.0421
40798SOL    HW228487   2.509   3.200   7.208  1.9603 -2.7377 -0.5627
40799SOL     OW28488   1.372   8.549   7.539  0.3385  0.5032  0.1440
40799SOL    HW128489   1.460   8.587   7.528 -0.0925  1.2749 -0.7161
40799SOL    HW228490   1.319   8.592   7.473 -1.0577  1.1589  1.6280
40800SOL     OW28491   2.839  10.777   6.075  0.5514 -0.4743  0.5011
40800SOL    HW128492   2.782  10.701   6.083 -0.2666  0.2291  1.7371
40800SOL    HW228493   2.779  10.849   6.053  0.7852  0.4701  2.7417
40801SOL     OW28494   9.177   4.041   7.740 -0.4151 -0.1939  0.5130
40801SOL    HW128495   9.220   4.087   7.812 -1.1455  0.8122  0.3218
40801SOL    HW228496   9.084   4.053   7.756 -0.6160 -1.3078  0.2492
40802SOL     OW28497   0.091   9.849   6.878 -0.7295  0.1727  0.2262
40802SOL    HW128498   0.128   9.764   6.900  0.4113  0.7369  0.5778
40802SOL    HW228499   0.024   9.830   6.813 -1.4511 -1.1291  1.3104
40803SOL     OW28500   0.006  10.193   7.561 -0.5448  0.0977 -0.2074
40803SOL    HW128501  -0.006  10.111   7.512  0.2995  0.4453 -1.0197
40803SOL    HW228502   0.090  10.227   7.531 -0.6208  0.9879  0.5392
40804SOL     OW28503   2.351   4.909   4.590 -0.4407 -0.5059  0.4874
40804SOL    HW128504   2.338   5.003   4.593 -2.2960 -0.7453  1.0005
40804SOL    HW228505   2.345   4.886   4.497 -1.4082 -0.2782  0.4845
40805SOL     OW28506   1.345   1.503   0.699  0.4878 -0.5497  0.0299
40805SOL    HW128507   1.262   1.525   0.656  0.9759 -0.4153 -0.8622
40805SOL    HW228508   1.322   1.494   0.792  0.0040  2.3495  0.2694
40806SOL     OW28509   5.574   7.854   9.775 -0.3494 -0.4171  0.5230
40806SOL    HW128510   5.667   7.870   9.758 -0.6966 -0.2168 -1.4731
40806SOL    HW228511   5.547   7.926   9.833  0.1624  1.1187 -1.0448
40807SOL     OW28512   5.903  10.367   0.780  0.4705 -0.8327  0.4658
40807SOL    HW128513   5.895  10.416   0.862  0.9190 -1.5761  0.9572
40807SOL    HW228514   5.830  10.399   0.727 -0.4570 -1.0934  1.5431
40808SOL     OW28515   7.997   1.597   3.056 -0.4942  0.2199 -0.6225
40808SOL    HW128516   8.048   1.516   3.060 -0.6428  0.1648  0.5703
40808SOL    HW228517   7.908   1.572   3.080 -0.0877  1.0547  2.0554
40809SOL     OW28518   5.440   5.951   5.731 -0.3196  0.0542 -0.3460
40809SOL    HW128519   5.394   5.898   5.795 -0.3652  1.1728  0.5726
40809SOL    HW228520   5.517   5.984   5.777  0.9287 -1.0116 -1.5789
40810SOL     OW28521   7.634   4.183   0.425  0.6934  0.0852 -0.6205
40810SOL    HW128522   7.549   4.223   0.404 -0.8232 -1.6696  1.7548
40810SOL    HW228523   7.674   4.243   0.488  0.3334 -0.0520 -0.2607
40811SOL     OW28524   9.828   5.989   4.293 -0.0872  0.1752 -0.0783
40811SOL    HW128525   9.853   5.995   4.201 -2.4055  0.2956 -0.7748
40811SOL    HW228526   9.758   5.924   4.294 -0.2011  0.2907  1.5851
40812SOL     OW28527   7.992   7.448   1.739  0.1348 -0.6251 -0.2717
40812SOL    HW128528   7.985   7.447   1.835  2.2413 -0.9838 -0.0718
40812SOL    HW228529   7.971   7.358   1.713 -0.9020 -0.4136 -0.2168
40813SOL     OW28530   5.677   5.967   2.835  0.1998  1.1945  0.0471
40813SOL    HW128531   5.635   5.888   2.802 -0.3282  1.9503 -1.1345
40813SOL    HW228532   5.643   5.976   2.924 -2.1982  1.7534 -0.8420
40814SOL     OW28533   0.961  10.726   2.966 -0.0594 -0.4998  0.4153
40814SOL    HW128534   0.999  10.640   2.946  0.6564 -0.1793  0.3796
40814SOL    HW228535   0.936  10.721   3.058 -1.4731 -1.2804  0.0121
40815SOL     OW28536   6.212   8.612   1.459  0.0349  0.4063  0.0772
40815SOL    HW128537   6.223   8.575   1.546 -0.1358 -1.3941 -0.6206
40815SOL    HW228538   6.295   8.656   1.441 -0.1426  1.3085  1.3574
40816SOL     OW28539  10.409   2.158   7.399  0.3808 -0.2083 -0.2676
40816SOL    HW128540  10.315   2.148   7.388  0.4155 -1.5507  0.4352
40816SOL    HW228541  10.432   2.231   7.343 -1.0480  0.0167 -0.6008
40817SOL     OW28542   7.246  10.124   2.959 -0.8145 -0.3651 -0.7098
40817SOL    HW128543   7.315  10.057   2.951  0.2173  0.6145 -0.2685
40817SOL    HW228544   7.232  10.155   2.869  0.3202  0.3914 -0.6432
40818SOL     OW28545   3.244   7.350   5.614  0.5189  0.2194  0.0413
40818SOL    HW128546   3.316   7.336   5.552  0.8695 -0.9435  0.6817
40818SOL    HW228547   3.271   7.427   5.664 -0.3627  2.0003 -2.0333
40819SOL     OW28548   7.290   5.773   7.470 -0.2923  0.5853  0.1391
40819SOL    HW128549   7.364   5.725   7.431 -0.1852  2.1503 -1.7241
40819SOL    HW228550   7.331   5.837   7.528 -0.4065 -0.9775  2.0413
40820SOL     OW28551   5.256   2.250   9.544  0.4943  0.1741  0.6492
40820SOL    HW128552   5.346   2.281   9.532  1.3929 -2.4030  0.1198
40820SOL    HW228553   5.206   2.329   9.569  2.5114  2.0229 -0.8094
40821SOL     OW28554   1.559   2.750  10.627  0.5533  0.2929  0.3269
40821SOL    HW128555   1.590   2.715  10.711 -0.4690 -2.0250 -0.2057
40821SOL    HW228556   1.629   2.730  10.565 -0.1533 -1.1834 -0.0363
40822SOL     OW28557   5.829   9.453   9.653 -0.1818  0.8401  0.0462
40822SOL    HW128558   5.814   9.547   9.644 -1.1425  0.7506  0.5351
40822SOL    HW228559   5.923   9.445   9.669 -0.4321  1.9591  2.6035
40823SOL     OW28560   8.299   1.671   5.568  0.3784  0.2846  0.2110
40823SOL    HW128561   8.245   1.745   5.541  0.8649  0.0889 -1.4319
40823SOL    HW228562   8.243   1.620   5.626 -1.1703  0.1858 -1.2779
40824SOL     OW28563   4.675   5.007   5.492  0.6149  0.1820  0.0613
40824SOL    HW128564   4.655   5.092   5.452  0.5866  0.9840  1.6670
40824SOL    HW228565   4.633   5.011   5.578 -0.5580 -2.0396 -0.3393
40825SOL     OW28566   3.661   1.592   3.283  0.0267 -0.1226 -0.3318
40825SOL    HW128567   3.660   1.496   3.280  0.2790 -0.1293 -0.1660
40825SOL    HW228568   3.580   1.615   3.329  1.1402 -0.3399  1.8518
40826SOL     OW28569   2.214   9.573   3.879 -0.2878 -0.0861 -0.5436
40826SOL    HW128570   2.204   9.533   3.793 -0.5372  0.5506 -0.8169
40826SOL    HW228571   2.196   9.666   3.865  1.9506  0.4706 -0.2741
40827SOL     OW28572   7.745   6.154   8.767  0.2504 -0.0396  0.2897
40827SOL    HW128573   7.704   6.074   8.801  0.0027 -0.0390 -0.0044
40827SOL    HW228574   7.675   6.197   8.717 -0.0624  1.0966  1.6455
40828SOL     OW28575   2.145   0.240   4.873 -0.3166 -0.4059  0.0502
40828SOL    HW128576   2.110   0.192   4.797 -0.1222 -0.4557 -0.0077
40828SOL    HW228577   2.214   0.295   4.836 -1.3442  0.8435 -0.0968
40829SOL     OW28578   2.689   9.733   6.241  0.2618  0.1778  0.3511
40829SOL    HW128579   2.734   9.704   6.320 -2.0872 -1.9284  1.0349
40829SOL    HW228580   2.624   9.665   6.224 -0.0064  1.0920 -2.8303
40830SOL     OW28581   9.026  10.087   4.035  0.6172 -0.2198 -0.0054
40830SOL    HW128582   8.997  10.171   4.071  0.2691 -0.6536  0.7413
40830SOL    HW228583   9.099  10.061   4.090 -0.1861 -1.0925  0.6840
40831SOL     OW28584  10.091   3.959   0.932 -0.4528  0.2944 -0.3222
40831SOL    HW128585  10.047   3.893   0.879  0.4046 -0.1134 -0.5417
40831SOL    HW228586  10.184   3.937   0.926 -0.3580 -0.0456  1.7039
40832SOL     OW28587  10.235   8.161   7.761 -0.6258 -0.3085  0.0630
40832SOL    HW128588  10.203   8.132   7.847  0.1116  1.3359  0.9325
40832SOL    HW228589  10.249   8.255   7.771  1.4291 -0.4193 -1.2395
40833SOL     OW28590   4.614   3.442   1.405  0.4721 -0.3277  0.1281
40833SOL    HW128591   4.535   3.477   1.447  0.7884 -0.2665  0.6871
40833SOL    HW228592   4.585   3.362   1.363  0.1222 -0.3429  0.3887
40834SOL     OW28593   3.884   5.731   1.864 -0.2315  0.6116 -0.4187
40834SOL    HW128594   3.818   5.784   1.820  0.0136  0.4468 -0.9948
40834SOL    HW228595   3.960   5.788   1.872 -0.5232  0.8953  0.4999
40835SOL     OW28596   3.548   1.978   0.684  0.6728 -0.5356  0.5537
40835SOL    HW128597   3.541   2.062   0.728 -1.1708  1.0188 -2.3923
40835SOL    HW228598   3.457   1.954   0.664  1.3704 -1.0874 -2.3127
40836SOL     OW28599   9.788   9.534   4.023  0.0603  0.1631 -0.0589
40836SOL    HW128600   9.806   9.552   4.116  0.4635 -1.2446  0.1730
40836SOL    HW228601   9.693   9.535   4.016  0.0222  0.1207  0.4133
40837SOL     OW28602   5.420   5.650   2.406 -0.2507  0.2323  0.0954
40837SOL    HW128603   5.484   5.671   2.339  0.1208 -2.0398 -0.3640
40837SOL    HW228604   5.353   5.717   2.398  0.2417  0.5381 -1.9275
40838SOL     OW28605   7.634   2.512   5.905 -0.0726 -0.0996 -0.1852
40838SOL    HW128606   7.643   2.497   6.000 -0.9522 -0.3560 -0.1373
40838SOL    HW228607   7.545   2.546   5.895  0.6173  1.5930 -0.7270
40839SOL     OW28608   8.926   0.582   1.619  0.0996 -0.8040  0.0670
40839SOL    HW128609   8.999   0.560   1.676  1.1134 -0.9540 -1.2369
40839SOL    HW228610   8.964   0.586   1.531 -1.3628 -0.3881 -0.5880
40840SOL     OW28611   6.388   3.032   5.261  0.8349  0.0611  0.4117
40840SOL    HW128612   6.358   3.094   5.194 -1.0542 -0.2506  0.9336
40840SOL    HW228613   6.358   2.947   5.230  0.9530 -0.2376  1.1071
40841SOL     OW28614   1.875   6.735   8.032 -0.2379  0.0395  0.2781
40841SOL    HW128615   1.803   6.678   8.060  0.9971 -0.9163  1.6508
40841SOL    HW228616   1.843   6.824   8.047 -1.7540 -0.2835 -0.7782
40842SOL     OW28617   3.681   2.636   3.771 -0.7693  0.2980 -0.0789
40842SOL    HW128618   3.762   2.657   3.817 -0.0741 -0.2043 -1.0540
40842SOL    HW228619   3.652   2.553   3.810 -0.7927  0.4577  0.2426
40843SOL     OW28620   8.406   2.275   9.207  0.1517  0.3329  0.0218
40843SOL    HW128621   8.462   2.201   9.187  0.8096  0.5466  0.9928
40843SOL    HW228622   8.320   2.237   9.227  0.5545 -0.2018  0.7788
40844SOL     OW28623   8.640   3.997   6.468  0.4718  0.0861 -0.3954
40844SOL    HW128624   8.715   3.956   6.426  1.3548  1.5160 -0.2746
40844SOL    HW228625   8.677   4.065   6.524 -0.9088  0.8896 -0.4039
40845SOL     OW28626   9.334   5.919   3.317 -0.2246 -0.5404 -0.2728
40845SOL    HW128627   9.402   5.976   3.281  1.0693 -2.4156 -0.9526
40845SOL    HW228628   9.252   5.962   3.294  0.6557  0.1103 -2.3806
40846SOL     OW28629   9.377   2.031   2.045 -0.2067 -0.2577 -0.6139
40846SOL    HW128630   9.389   1.982   2.126  0.2592 -0.5690 -0.8698
40846SOL    HW228631   9.356   2.120   2.074  0.1872 -0.3105 -0.1493
40847SOL     OW28632   0.040   9.029   0.128  0.2590  0.6897 -0.2672
40847SOL    HW128633  -0.016   8.966   0.081 -0.4801  0.1888  1.2223
40847SOL    HW228634   0.005   9.115   0.105 -0.5742  0.4152 -0.0673
40848SOL     OW28635   5.281   4.182   5.280 -0.4521 -0.4313 -0.2664
40848SOL    HW128636   5.370   4.219   5.281 -0.9869  0.8902 -0.2507
40848SOL    HW228637   5.291   4.098   5.235  0.6737  0.0549 -0.9753
40849SOL     OW28638   6.100   4.458   6.960  0.2172  0.2693 -0.4132
40849SOL    HW128639   6.166   4.487   7.023 -1.6997  1.5305  1.1456
40849SOL    HW228640   6.088   4.365   6.979 -1.2581  0.8845  2.1172
40850SOL     OW28641   5.304   8.725   0.929  0.5497 -0.3337  0.4422
40850SOL    HW128642   5.326   8.632   0.928  1.7366 -0.0631 -1.0981
40850SOL    HW228643   5.374   8.766   0.980 -0.8413 -0.4271  2.5637
40851SOL     OW28644   6.887   9.774   6.712  0.1893  0.2061 -0.1720
40851SOL    HW128645   6.902   9.819   6.629  0.8736  0.0558 -0.1362
40851SOL    HW228646   6.975   9.765   6.750  0.2649 -2.4511 -0.8352
40852SOL     OW28647   9.175   8.549   6.990  0.1557 -0.0056  0.1456
40852SOL    HW128648   9.107   8.532   6.925 -0.5212 -1.4481  1.1693
40852SOL    HW228649   9.195   8.642   6.981 -1.0346  0.1536 -1.0470
40853SOL     OW28650   3.878   0.842   8.950  0.0760 -0.2406 -0.4817
40853SOL    HW128651   3.942   0.807   8.888  1.0763 -0.2100  0.5055
40853SOL    HW228652   3.803   0.867   8.895  1.0953  0.1925 -1.7395
40854SOL     OW28653   0.403   1.808   0.964 -0.0026 -0.0728  0.2782
40854SOL    HW128654   0.405   1.819   0.869 -3.2711  0.5763  0.1580
40854SOL    HW228655   0.493   1.784   0.988  0.8936 -0.3681 -2.9496
40855SOL     OW28656   0.999   8.663   2.421 -0.9695  0.0869  0.9046
40855SOL    HW128657   0.905   8.659   2.440 -1.3825  0.5546 -0.8390
40855SOL    HW228658   1.013   8.751   2.388  0.0026 -0.1343  0.6958
40856SOL     OW28659   0.763   0.434   0.423 -0.0850 -0.4883 -0.6116
40856SOL    HW128660   0.725   0.486   0.353  1.4568  0.0782 -1.0738
40856SOL    HW228661   0.844   0.399   0.385  0.0669 -1.3135  0.4405
40857SOL     OW28662   8.856   0.293   7.690  0.0481 -0.0185  0.3286
40857SOL    HW128663   8.796   0.345   7.636  0.4305  0.6238  0.5140
40857SOL    HW228664   8.811   0.209   7.701 -1.3777  0.8389  1.4675
40858SOL     OW28665   7.844   4.740   0.372 -0.8328 -0.1480 -0.0304
40858SOL    HW128666   7.918   4.682   0.352 -1.3103  0.1300 -3.1968
40858SOL    HW228667   7.773   4.681   0.396 -0.5718 -0.6918 -0.5619
40859SOL     OW28668   2.474   2.834   7.805 -0.7745  0.0506 -0.1940
40859SOL    HW128669   2.515   2.895   7.744 -1.2743 -2.0101 -2.7339
40859SOL    HW228670   2.390   2.874   7.826 -0.4936  0.9052 -0.6556
40860SOL     OW28671  10.666   5.611   0.246  0.1365 -0.1237 -0.4241
40860SOL    HW128672  10.615   5.530   0.244 -0.1189  0.0285 -0.0969
40860SOL    HW228673  10.722   5.602   0.323  0.2995 -0.1041 -0.5394
40861SOL     OW28674   0.053   3.004   1.325  0.2280 -0.5537  0.4560
40861SOL    HW128675  -0.011   3.070   1.351 -0.4642 -1.2206  0.4852
40861SOL    HW228676   0.136   3.052   1.317 -0.3708  0.4177 -0.0712
40862SOL     OW28677   5.616   9.824   9.269 -0.5660 -0.8250 -0.0595
40862SOL    HW128678   5.616   9.918   9.253 -2.7996 -0.5197  1.2387
40862SOL    HW228679   5.612   9.785   9.182  0.9405  0.2218 -0.6386
40863SOL     OW28680   3.073   5.924   2.380 -0.2807  0.1055 -0.0926
40863SOL    HW128681   3.131   5.852   2.355 -0.4670  0.1904 -0.7795
40863SOL    HW228682   3.091   5.937   2.473 -0.8480 -1.3891  0.2596
40864SOL     OW28683   4.976   1.670   7.877 -0.1555 -0.1826 -0.6447
40864SOL    HW128684   5.044   1.710   7.824 -1.2114  1.0151 -1.1492
40864SOL    HW228685   5.019   1.650   7.961  1.0205 -0.3100 -1.2560
40865SOL     OW28686   4.268   9.084   3.260 -0.5240  0.0662  0.3991
40865SOL    HW128687   4.312   9.015   3.310 -1.5855 -0.8706  0.1073
40865SOL    HW228688   4.185   9.043   3.233 -0.3614  0.8493 -1.3654
40866SOL     OW28689   9.463   6.251   9.801  0.1418 -0.0586 -0.5949
40866SOL    HW128690   9.506   6.336   9.790  0.7514 -0.2827 -0.0272
40866SOL    HW228691   9.451   6.243   9.896  0.8223 -0.9551 -0.5740
40867SOL     OW28692   7.636   5.089  10.782  0.7330 -0.0449  0.1881
40867SOL    HW128693   7.714   5.091  10.837  1.4124  1.5646 -0.7462
40867SOL    HW228694   7.588   5.169  10.805  0.4752  0.0817 -0.7418
40868SOL     OW28695   4.289   0.683  10.882  0.2290 -0.2549 -0.4730
40868SOL    HW128696   4.374   0.714  10.853  0.4798 -1.8048 -1.4936
40868SOL    HW228697   4.300   0.589  10.893 -0.7340 -0.1868  1.6744
40869SOL     OW28698   3.775   7.462   4.901 -0.0999 -0.3746  0.2312
40869SOL    HW128699   3.805   7.381   4.859  0.2704 -1.0350  1.7133
40869SOL    HW228700   3.739   7.434   4.985  0.7084  1.0708  1.0952
40870SOL     OW28701   3.744   8.834  10.113 -0.1557 -0.0919  0.6262
40870SOL    HW128702   3.707   8.817  10.199  0.3068 -0.8639  0.6777
40870SOL    HW228703   3.834   8.801  10.118 -0.3957 -0.9759 -0.4213
40871SOL     OW28704   4.598   7.720   7.328 -0.5114 -0.0030 -0.0670
40871SOL    HW128705   4.584   7.699   7.235 -1.4789  1.8041 -0.3756
40871SOL    HW228706   4.622   7.637   7.368  0.3804 -0.7411 -2.0214
40872SOL     OW28707   0.948   9.478   2.124  0.4329 -0.0171  0.1494
40872SOL    HW128708   1.005   9.422   2.177  1.1264 -1.2770 -1.8349
40872SOL    HW228709   1.001   9.502   2.048 -1.0070  0.4694 -0.7390
40873SOL     OW28710   9.648  10.622   6.157  0.1650 -0.4259 -0.3151
40873SOL    HW128711   9.686  10.666   6.081 -2.7779  0.9452 -1.1766
40873SOL    HW228712   9.657  10.685   6.228 -0.4140 -0.1118 -0.5127
40874SOL     OW28713   8.248   7.734   1.363  0.2247  0.2722  0.5260
40874SOL    HW128714   8.171   7.779   1.398  0.8944  1.6137  0.3503
40874SOL    HW228715   8.249   7.649   1.407 -0.6819  0.7082  1.4183
40875SOL     OW28716   8.200   1.243   3.205 -0.4492  0.1248  0.0018
40875SOL    HW128717   8.290   1.260   3.175 -0.0771 -1.5789  0.0336
40875SOL    HW228718   8.211   1.194   3.286 -1.3914 -0.7073 -0.3544
40876SOL     OW28719   3.643   6.548  10.903  0.0420  0.1472  0.5382
40876SOL    HW128720   3.657   6.456  10.882  0.9065  0.2779  0.5298
40876SOL    HW228721   3.687   6.560  10.988  0.2336  0.6357  0.3724
40877SOL     OW28722   5.084   2.780   2.979 -0.3887 -0.2254  0.2164
40877SOL    HW128723   5.080   2.760   2.885  0.1120 -1.2505  0.3958
40877SOL    HW228724   4.993   2.780   3.008 -0.5639  0.3436 -0.3142
40878SOL     OW28725   6.181   1.135   1.817 -0.3074 -0.0866 -0.0371
40878SOL    HW128726   6.215   1.208   1.869  1.3502 -0.9736  0.2009
40878SOL    HW228727   6.178   1.169   1.727  0.3525  0.3126  0.0830
40879SOL     OW28728   4.521   9.684   4.035  0.0634 -0.1151 -0.3620
40879SOL    HW128729   4.519   9.589   4.028  2.4019 -0.3774  1.3976
40879SOL    HW228730   4.543   9.714   3.946 -0.3991 -1.2098 -0.8619
40880SOL     OW28731   3.088   7.810   4.439 -0.4511 -0.4517  0.8976
40880SOL    HW128732   3.074   7.905   4.434 -2.7905 -0.7812  0.3000
40880SOL    HW228733   3.025   7.773   4.377 -0.6465 -2.4918  2.2464
40881SOL     OW28734   8.353   3.569   6.497 -0.1225  0.8787  0.0701
40881SOL    HW128735   8.303   3.636   6.543  0.1021  0.9050  0.2745
40881SOL    HW228736   8.401   3.617   6.429  0.4185  0.9975  0.5285
40882SOL     OW28737   3.862   1.320   5.741  0.3608 -0.1873 -0.5472
40882SOL    HW128738   3.914   1.268   5.679  1.2582 -0.7598  0.6435
40882SOL    HW228739   3.796   1.259   5.774  0.2300 -0.0397 -0.5375
40883SOL     OW28740   7.778   9.066   0.702  0.2539  0.2359  0.1152
40883SOL    HW128741   7.867   9.034   0.690  0.5005  1.7847 -3.3300
40883SOL    HW228742   7.723   8.989   0.689  1.0025  0.1144 -3.6983
40884SOL     OW28743   1.006   4.817   7.157 -0.3597  0.0864 -0.0203
40884SOL    HW128744   0.982   4.734   7.115  0.1047  0.6182 -1.3750
40884SOL    HW228745   1.094   4.801   7.192  0.6205  0.6196 -2.1200
40885SOL     OW28746   7.800   0.781   9.673 -0.2718 -0.1768 -0.1041
40885SOL    HW128747   7.841   0.833   9.742  1.6492 -1.4450 -0.2122
40885SOL    HW228748   7.739   0.841   9.631  0.6363  1.4843  0.8406
40886SOL     OW28749   0.809   6.084   5.798  0.0495 -0.3370  0.5231
40886SOL    HW128750   0.838   6.163   5.752  2.7739 -1.4450  0.0831
40886SOL    HW228751   0.837   6.098   5.888  0.6890 -0.8357  0.4090
40887SOL     OW28752   4.715   1.207   1.497 -0.6035 -0.0048 -0.4891
40887SOL    HW128753   4.670   1.291   1.510 -2.4187 -0.8969 -0.6942
40887SOL    HW228754   4.786   1.227   1.436 -0.2759  1.5937  0.3615
40888SOL     OW28755   8.686   5.932   5.743 -0.0208  0.0408 -0.1142
40888SOL    HW128756   8.592   5.945   5.753 -0.1423 -0.9528  0.0574
40888SOL    HW228757   8.722   6.021   5.745 -0.9194  0.4133  0.1077
40889SOL     OW28758   2.986   2.731   9.564  0.7872  0.0210  0.1959
40889SOL    HW128759   2.931   2.669   9.516  1.1943 -1.0038  1.0110
40889SOL    HW228760   3.033   2.778   9.496  0.7021 -0.7966 -0.4501
40890SOL     OW28761   0.579   4.569  10.023  0.0434  0.0363  0.3468
40890SOL    HW128762   0.557   4.525  10.105  0.6840  0.2495  0.6355
40890SOL    HW228763   0.672   4.549  10.009  0.1752  0.7688  0.1550
40891SOL     OW28764   1.455   4.121   6.378 -0.3151  0.1171  0.2383
40891SOL    HW128765   1.403   4.085   6.306 -0.3814  1.2251 -0.2860
40891SOL    HW228766   1.530   4.162   6.336  0.4970 -0.6332  0.9311
40892SOL     OW28767   7.385   9.389   7.251  0.3436  0.1750  0.1493
40892SOL    HW128768   7.339   9.396   7.335 -0.0280  1.5648 -0.1519
40892SOL    HW228769   7.457   9.328   7.269  0.5433  0.7945  1.6073
40893SOL     OW28770   3.029   2.447   2.908  0.1057 -0.2949 -0.2696
40893SOL    HW128771   3.014   2.512   2.977 -0.5454 -0.9316  0.2104
40893SOL    HW228772   3.090   2.384   2.947  0.0638 -0.4301 -0.4204
40894SOL     OW28773   3.948  10.677   0.827  0.1732  0.5291 -0.5216
40894SOL    HW128774   3.998  10.754   0.855  0.8886 -0.1366  0.0971
40894SOL    HW228775   4.013  10.607   0.824 -0.8529 -0.5617  1.1329
40895SOL     OW28776   0.281   0.363   2.617  0.2984 -0.0396  0.2610
40895SOL    HW128777   0.365   0.356   2.662  0.9829 -0.7554 -1.0556
40895SOL    HW228778   0.224   0.299   2.661  0.9168 -0.6402  0.2032
40896SOL     OW28779   4.257  10.121  10.077 -0.2376 -0.0468  0.6163
40896SOL    HW128780   4.308  10.108   9.997 -1.8789  0.0093 -0.4916
40896SOL    HW228781   4.285  10.050  10.135 -0.7246 -1.5687 -0.9313
40897SOL     OW28782   8.217  10.478   3.250  0.0260  0.1688 -0.4904
40897SOL    HW128783   8.187  10.550   3.194 -1.2884 -0.7102 -0.9368
40897SOL    HW228784   8.141  10.457   3.304  1.0571  0.5270  1.1716
40898SOL     OW28785   4.617   7.756   9.391 -0.2189  0.3628 -0.1485
40898SOL    HW128786   4.674   7.680   9.407  1.0837  1.3833  0.2640
40898SOL    HW228787   4.583   7.779   9.477 -0.5908  0.2654 -0.2691
40899SOL     OW28788   6.664   6.839   7.892 -0.1536  0.4063 -0.5888
40899SOL    HW128789   6.636   6.911   7.948 -2.3022 -0.8843  0.1116
40899SOL    HW228790   6.757   6.856   7.875 -0.2326  2.5001  0.7762
40900SOL     OW28791   3.823   1.991   3.520  0.7011  0.2689 -0.4380
40900SOL    HW128792   3.756   2.026   3.461 -0.2979  0.0353  0.5185
40900SOL    HW228793   3.871   2.068   3.550 -0.8029  0.7748  0.8272
40901SOL     OW28794   2.184   3.189   0.795  0.5666  0.0632  0.4457
40901SOL    HW128795   2.173   3.118   0.732  0.8865  0.9553 -0.6277
40901SOL    HW228796   2.242   3.251   0.752 -3.3708  3.3570 -0.6672
40902SOL     OW28797   4.681   4.846   5.011 -0.0701  0.0869 -0.5153
40902SOL    HW128798   4.638   4.768   5.044 -0.7564  0.4682 -0.5038
40902SOL    HW228799   4.702   4.897   5.089 -0.2886  0.2573 -0.5658
40903SOL     OW28800   5.260   2.540   0.293 -0.0183 -0.4088  0.6465
40903SOL    HW128801   5.341   2.574   0.330  0.4472 -0.1296 -0.5948
40903SOL    HW228802   5.286   2.463   0.243 -0.0813  1.1008 -1.8562
40904SOL     OW28803   9.781   1.495   3.468  0.0150  0.1553  0.5088
40904SOL    HW128804   9.733   1.574   3.443 -0.7077 -0.7817 -1.2647
40904SOL    HW228805   9.872   1.513   3.443 -0.1830  0.3596 -0.0909
40905SOL     OW28806   7.656   6.253   0.817  0.0101  1.1725 -0.0890
40905SOL    HW128807   7.585   6.220   0.872  0.3825  0.8034  0.1749
40905SOL    HW228808   7.725   6.188   0.825  1.8587  3.1925  2.6338
40906SOL     OW28809   8.725   5.008   9.494  0.0500 -0.8605 -0.3376
40906SOL    HW128810   8.819   5.022   9.489 -0.3023  2.3551 -0.3182
40906SOL    HW228811   8.711   4.967   9.579  1.3063  0.3162  0.4720
40907SOL     OW28812  10.173   9.650   6.585  0.1811  0.1110 -0.7245
40907SOL    HW128813  10.118   9.613   6.516 -2.0385 -1.3500  1.6392
40907SOL    HW228814  10.176   9.743   6.565 -1.4707 -0.0673 -2.0919
40908SOL     OW28815   6.255   0.953   2.664  0.2821 -0.6620  0.4151
40908SOL    HW128816   6.321   0.911   2.720  1.1735 -0.9878 -0.8191
40908SOL    HW228817   6.290   0.942   2.575  0.0244  1.7976 -0.0430
40909SOL     OW28818   2.663   3.428   4.843  0.0328  0.0612  0.1174
40909SOL    HW128819   2.744   3.415   4.891  2.0806  0.1946 -3.0440
40909SOL    HW228820   2.644   3.522   4.853 -0.9900 -0.3262  2.5441
40910SOL     OW28821   2.817   8.439   2.402  0.8075  0.6708 -0.1877
40910SOL    HW128822   2.882   8.405   2.465  1.2522  0.0535 -0.9555
40910SOL    HW228823   2.788   8.521   2.440  1.1261  0.3468  0.7930
40911SOL     OW28824   8.500   7.485   3.776  0.2423 -0.1760  0.2731
40911SOL    HW128825   8.450   7.505   3.696  0.9934  1.2921  0.1355
40911SOL    HW228826   8.582   7.447   3.745 -0.1783 -1.2601  0.4423
40912SOL     OW28827   2.402   0.536   1.785 -0.0150  0.4831  0.4026
40912SOL    HW128828   2.443   0.524   1.699 -0.0714  3.2029 -0.1025
40912SOL    HW228829   2.382   0.447   1.815  0.6740 -0.5857 -2.0562
40913SOL     OW28830   6.847   8.345   6.689  0.2425  0.0148  0.0399
40913SOL    HW128831   6.754   8.360   6.669  0.5337  0.4099 -1.0965
40913SOL    HW228832   6.866   8.260   6.649  0.4096  0.0056  0.1406
40914SOL     OW28833   2.117   2.645   3.950  0.2749  0.2779 -0.3846
40914SOL    HW128834   2.165   2.666   3.870  0.2602 -0.6489 -0.6379
40914SOL    HW228835   2.126   2.724   4.004 -0.3783  1.2185 -1.6035
40915SOL     OW28836  10.341   2.281   6.236  0.3445  0.1416 -0.0657
40915SOL    HW128837  10.247   2.281   6.218  0.3131  0.2309  0.1022
40915SOL    HW228838  10.364   2.374   6.242  0.4457  0.1205 -0.1170
40916SOL     OW28839   6.539   8.815   0.405 -0.6521 -0.7522 -0.2808
40916SOL    HW128840   6.467   8.874   0.384 -1.3400 -1.2548  0.5804
40916SOL    HW228841   6.613   8.847   0.353 -0.9631  0.9369  0.2653
40917SOL     OW28842   5.953   6.973   4.010  0.0418 -0.2433  0.5610
40917SOL    HW128843   5.922   7.006   4.095 -1.0396 -2.4734  1.1008
40917SOL    HW228844   5.907   6.890   3.999  0.8780 -0.4452 -1.8066
40918SOL     OW28845   0.458   2.546  10.077 -0.0528  0.1721  0.3347
40918SOL    HW128846   0.423   2.587   9.998 -1.7857  1.0072  1.4717
40918SOL    HW228847   0.399   2.473  10.095  0.1377  0.1788  1.0158
40919SOL     OW28848   6.647   1.010   2.113 -0.1766  0.3332 -0.1563
40919SOL    HW128849   6.665   1.086   2.169 -1.8776  0.9188 -0.3619
40919SOL    HW228850   6.730   0.962   2.111  0.5792  1.5232  0.9838
40920SOL     OW28851   0.824   0.417   3.520 -0.5607 -0.5169 -0.1646
40920SOL    HW128852   0.912   0.394   3.552 -0.3838 -0.8409 -0.8708
40920SOL    HW228853   0.837   0.494   3.466 -1.0689  0.9442  1.6881
40921SOL     OW28854   5.069   7.185   2.743 -0.4721  0.4632  0.1738
40921SOL    HW128855   5.045   7.277   2.740  0.7262  0.7640 -1.3527
40921SOL    HW228856   5.011   7.142   2.681  0.4967  0.6033 -0.8589
40922SOL     OW28857   1.578   4.068   0.238 -0.1747  0.3931  0.0068
40922SOL    HW128858   1.610   3.981   0.216  0.3937  0.3208  1.0501
40922SOL    HW228859   1.654   4.125   0.227 -0.5381  0.7597 -0.6494
40923SOL     OW28860   1.155   1.571   1.777 -0.1482 -0.2571 -0.0968
40923SOL    HW128861   1.061   1.560   1.762 -0.2175 -0.5960  0.5731
40923SOL    HW228862   1.171   1.534   1.863  0.0407  2.8303  1.3252
40924SOL     OW28863   2.440   2.100  10.302  0.3915  0.2596  0.1204
40924SOL    HW128864   2.442   2.052  10.385 -1.4636  0.2781  0.2325
40924SOL    HW228865   2.499   2.051  10.245 -0.2356 -1.2775  0.7154
40925SOL     OW28866   3.441   2.315  10.346 -0.1684  0.0149  0.5606
40925SOL    HW128867   3.352   2.320  10.310  0.5783  2.4551 -1.1563
40925SOL    HW228868   3.434   2.359  10.431 -0.5729  0.3263  0.3700
40926SOL     OW28869  10.180   5.762   5.869  0.3682  0.9152  0.1616
40926SOL    HW128870  10.113   5.820   5.834 -0.0516  0.1799 -0.2823
40926SOL    HW228871  10.135   5.709   5.935  0.8784  1.4684  0.9764
40927SOL     OW28872   8.096   6.090   7.901  0.1369  0.1601 -0.0065
40927SOL    HW128873   8.123   6.172   7.940  0.6963  0.8839 -1.8120
40927SOL    HW228874   8.064   6.114   7.814  1.6149 -1.6398 -1.1299
40928SOL     OW28875   8.421   9.146   9.364 -0.1194 -0.2830  0.0432
40928SOL    HW128876   8.472   9.106   9.293 -0.1830  0.1384 -0.2418
40928SOL    HW228877   8.343   9.090   9.372 -1.1301  0.7987 -1.6106
40929SOL     OW28878   9.132   1.744   9.477  0.1896  0.2124  0.1164
40929SOL    HW128879   9.127   1.806   9.404  0.6282  1.0504  0.7840
40929SOL    HW228880   9.049   1.698   9.475 -1.8102  3.3503  1.7804
40930SOL     OW28881   8.315   5.276   8.788 -0.6546 -0.5779  0.2975
40930SOL    HW128882   8.239   5.222   8.767  0.5341 -2.7812  1.3769
40930SOL    HW228883   8.332   5.260   8.881  0.5956  0.5738  0.3084
40931SOL     OW28884   5.560   9.434   3.478 -0.1663 -0.5142  0.0833
40931SOL    HW128885   5.480   9.474   3.512  0.4440  0.3204  0.5824
40931SOL    HW228886   5.551   9.438   3.383 -0.1491  0.7982  0.1168
40932SOL     OW28887   5.543   1.817   2.825  0.0950  0.0021  0.3451
40932SOL    HW128888   5.533   1.723   2.836  0.0083 -0.0374 -0.0667
40932SOL    HW228889   5.613   1.826   2.760  1.8865  0.2496  2.1979
40933SOL     OW28890   3.091   1.429  10.496 -0.3169 -0.1494  0.4886
40933SOL    HW128891   3.056   1.345  10.464 -0.2735 -0.1784  0.5173
40933SOL    HW228892   3.170   1.444  10.443 -0.3974 -0.0609  0.3932
40934SOL     OW28893   8.338   8.160   0.969 -0.3562 -0.2215  0.3602
40934SOL    HW128894   8.289   8.175   0.888  1.0441 -0.4356 -0.5747
40934SOL    HW228895   8.360   8.248   1.001 -0.8409 -0.1379  0.4628
40935SOL     OW28896   6.430   2.194   5.341 -0.2778  0.2317  0.5837
40935SOL    HW128897   6.502   2.242   5.383 -1.3284  1.8844  0.5873
40935SOL    HW228898   6.474   2.133   5.282  1.1631  2.0098 -0.3023
40936SOL     OW28899   4.178   5.317  10.112  0.4854  0.2688  0.3712
40936SOL    HW128900   4.141   5.302  10.199 -0.4972  1.9288  0.2908
40936SOL    HW228901   4.137   5.250  10.057  1.0390 -0.7280  1.1521
40937SOL     OW28902   4.272   1.377   9.284 -0.2428  0.5883 -0.0051
40937SOL    HW128903   4.357   1.400   9.246  0.8455 -1.0739  1.2801
40937SOL    HW228904   4.221   1.341   9.211  1.9003 -2.8413 -0.0325
40938SOL     OW28905   6.407   0.146  10.610 -0.3376 -0.8690  0.6076
40938SOL    HW128906   6.398   0.169  10.702 -0.9795 -0.2290  0.3950
40938SOL    HW228907   6.477   0.203  10.578  1.8191 -2.9611  1.2947
40939SOL     OW28908   9.964   2.478  10.369  0.1916  0.4381  0.1809
40939SOL    HW128909  10.056   2.453  10.358  0.7635  1.5496  2.0283
40939SOL    HW228910   9.965   2.546  10.435 -1.7805  1.9933 -1.2640
40940SOL     OW28911   9.478   5.533   2.599 -0.0735 -0.1430 -0.5270
40940SOL    HW128912   9.546   5.575   2.651  1.3410 -1.8458 -0.8910
40940SOL    HW228913   9.464   5.448   2.641 -0.7272 -0.5172 -1.4550
40941SOL     OW28914   2.396   6.897   9.694 -0.0988  0.2077  0.3228
40941SOL    HW128915   2.463   6.945   9.645 -1.2853  0.5271 -1.0487
40941SOL    HW228916   2.437   6.878   9.778  1.7550  0.2930 -0.5089
40942SOL     OW28917   2.885   5.100  10.851 -0.0267 -0.2197 -0.1873
40942SOL    HW128918   2.797   5.069  10.830 -0.6827  0.4738  1.2961
40942SOL    HW228919   2.875   5.195  10.859  0.3934 -0.2874  1.7870
40943SOL     OW28920  10.164   1.879   1.463  0.3775  0.3434  0.4289
40943SOL    HW128921  10.100   1.909   1.528  0.0286  1.2741 -0.3203
40943SOL    HW228922  10.213   1.958   1.440 -0.6629  0.4509 -1.7106
40944SOL     OW28923   0.817  10.605  10.370  0.4249  0.0085 -0.6401
40944SOL    HW128924   0.883  10.632  10.434 -0.3747 -0.4267  0.4069
40944SOL    HW228925   0.867  10.579  10.293  1.4014  0.8808 -0.3361
40945SOL     OW28926   2.815   1.605   9.026  0.2498  0.2658 -0.4468
40945SOL    HW128927   2.855   1.518   9.016 -0.2848  0.0620 -0.9142
40945SOL    HW228928   2.803   1.615   9.120 -1.3105 -0.9379 -0.4799
40946SOL     OW28929  10.880   3.864   8.368  0.6673  0.3867  0.1507
40946SOL    HW128930  10.825   3.819   8.433 -1.3532 -0.5055 -2.0195
40946SOL    HW228931  10.962   3.814   8.367  0.5530  0.1296  1.6298
40947SOL     OW28932   9.067   7.051  10.917 -0.2612  0.3286  0.0528
40947SOL    HW128933   9.098   7.078  11.004  0.7388 -1.7668  0.4054
40947SOL    HW228934   9.106   7.115  10.857 -1.7745  2.4140  1.1533
40948SOL     OW28935   7.171   3.087   6.781  0.7268 -0.0403 -0.1327
40948SOL    HW128936   7.158   3.178   6.754  0.0133  0.1693  0.8402
40948SOL    HW228937   7.126   3.081   6.866  1.0736 -1.2062 -0.0158
40949SOL     OW28938   1.246   9.328   5.711  0.0391  0.0773 -0.1896
40949SOL    HW128939   1.281   9.239   5.717  1.6217  0.6960  0.1168
40949SOL    HW228940   1.259   9.365   5.798  1.4683  1.3279 -0.8956
40950SOL     OW28941   3.952   1.531   0.541  0.0841  0.2674 -0.9135
40950SOL    HW128942   4.012   1.603   0.559  0.3016 -0.1011 -0.1376
40950SOL    HW228943   3.995   1.454   0.578 -0.9416  0.0264 -0.1948
40951SOL     OW28944   2.017   7.205   8.417 -0.2846  0.0451  0.5720
40951SOL    HW128945   1.989   7.114   8.403  1.3263 -0.4157  0.1064
40951SOL    HW228946   2.075   7.199   8.494  1.5637  0.2753 -0.7531
40952SOL     OW28947   0.125   7.993   9.991  0.5013 -0.3108 -0.2922
40952SOL    HW128948   0.073   7.996  10.071 -2.3047 -5.1652 -1.5407
40952SOL    HW228949   0.203   7.943  10.015  1.2159  0.8979 -0.0049
40953SOL     OW28950   4.649   6.832   0.441  0.7264  0.6648 -0.0678
40953SOL    HW128951   4.729   6.857   0.487  0.9914  0.9658 -0.6770
40953SOL    HW228952   4.673   6.831   0.349 -0.1030  1.3105 -0.3129
40954SOL     OW28953   4.569  10.160   9.556  0.9453  0.6554 -0.6305
40954SOL    HW128954   4.504  10.229   9.568  0.1982 -0.3099  1.2563
40954SOL    HW228955   4.634  10.176   9.625  0.5821 -0.6835  0.0588
40955SOL     OW28956   3.632   0.102   7.448  0.2147 -0.5643  0.6081
40955SOL    HW128957   3.714   0.060   7.474 -0.3258 -2.2270 -0.2559
40955SOL    HW228958   3.587   0.037   7.395 -0.4579  1.2998 -1.2654
40956SOL     OW28959   2.092   4.539   7.615  0.5404 -0.0652 -0.2308
40956SOL    HW128960   2.060   4.457   7.577 -0.9546  0.6141 -0.5158
40956SOL    HW228961   2.105   4.519   7.708 -1.8631 -0.1025  0.1435
40957SOL     OW28962   0.761   0.641   3.360  0.3180  0.2627  0.4190
40957SOL    HW128963   0.697   0.670   3.425 -0.1598  1.9386 -0.7329
40957SOL    HW228964   0.804   0.721   3.331  1.7626 -0.6514 -0.0639
40958SOL     OW28965   3.257   5.900   4.247  0.3174 -0.3811 -0.4403
40958SOL    HW128966   3.285   5.813   4.218 -1.0006 -1.0684  0.2236
40958SOL    HW228967   3.321   5.926   4.313  0.7228 -0.8544 -0.6428
40959SOL     OW28968   0.392   8.453   1.343  0.2929  0.0672  0.7539
40959SOL    HW128969   0.320   8.468   1.282 -1.1021 -0.4651  2.1764
40959SOL    HW228970   0.433   8.373   1.312 -1.2439 -0.9511  1.2003
40960SOL     OW28971   6.295   8.682   9.451 -0.3897  0.2669  0.4598
40960SOL    HW128972   6.227   8.743   9.481 -0.5974  0.9971 -1.3859
40960SOL    HW228973   6.339   8.728   9.380  1.0676 -0.8027  0.6309
40961SOL     OW28974   6.448   5.083   0.529  0.5669  0.1193  0.3693
40961SOL    HW128975   6.381   5.053   0.467  2.0554 -1.3570 -0.6121
40961SOL    HW228976   6.488   5.159   0.487  0.9197 -0.2943 -0.0585
40962SOL     OW28977   7.064   2.590   9.680  0.1957  0.4386  0.1513
40962SOL    HW128978   6.985   2.554   9.719 -0.1508  0.8113 -0.1874
40962SOL    HW228979   7.078   2.539   9.600  1.6886 -1.2477  1.4235
40963SOL     OW28980   6.592   2.791   4.909 -0.2530 -0.1925 -0.3383
40963SOL    HW128981   6.587   2.789   5.004 -0.9734  0.0913 -0.3690
40963SOL    HW228982   6.508   2.757   4.880 -0.6860  1.2863 -0.8738
40964SOL     OW28983   0.865   2.910   4.809 -0.4807  0.1058  0.7878
40964SOL    HW128984   0.899   2.845   4.871 -0.5434 -1.9414 -1.1694
40964SOL    HW228985   0.931   2.913   4.740 -0.3294  2.4479  0.9487
40965SOL     OW28986  10.698   8.434   1.646  0.1827  0.0562  0.5881
40965SOL    HW128987  10.751   8.444   1.725  0.2306  1.0020  0.4467
40965SOL    HW228988  10.640   8.511   1.645  0.2255  0.0925 -0.3262
40966SOL     OW28989   6.153   2.661   6.858 -0.4315 -0.0946  0.7453
40966SOL    HW128990   6.142   2.632   6.948 -0.4509 -1.2402  0.3910
40966SOL    HW228991   6.064   2.673   6.825 -0.4432 -0.3201  0.6891
40967SOL     OW28992   0.798  10.020   5.346 -0.2740  0.0698 -0.2876
40967SOL    HW128993   0.731  10.047   5.409 -0.5020  0.4031 -0.6671
40967SOL    HW228994   0.846   9.950   5.390 -1.2991 -0.6494 -0.2623
40968SOL     OW28995   3.713   1.154   0.545  0.1954 -0.0858  0.1172
40968SOL    HW128996   3.663   1.072   0.538 -0.8250  0.5106  0.1969
40968SOL    HW228997   3.659   1.209   0.602  0.5348  0.8855 -0.4890
40969SOL     OW28998   0.809  10.494   0.836 -0.1980 -0.5115 -0.0371
40969SOL    HW128999   0.873  10.468   0.902 -0.8688 -1.2877  0.3364
40969SOL    HW229000   0.724  10.486   0.881 -0.5811  0.2194 -0.6025
40970SOL     OW29001   4.150   3.174   6.466 -0.0255  0.2864  0.3323
40970SOL    HW129002   4.083   3.208   6.525  0.9135 -0.5761  1.9771
40970SOL    HW229003   4.214   3.246   6.459 -0.6141  0.7523 -0.4661
40971SOL     OW29004   5.285   6.918   6.349 -0.2917  0.3076 -0.0124
40971SOL    HW129005   5.345   6.986   6.379 -0.2226  1.4509 -2.4782
40971SOL    HW229006   5.205   6.965   6.326 -1.3230 -0.8777  0.9852
40972SOL     OW29007   6.695   8.615   2.250  0.2002 -0.1336  0.6063
40972SOL    HW129008   6.680   8.709   2.243  2.6391  0.1816 -2.7131
40972SOL    HW229009   6.784   8.607   2.284 -0.1727 -1.2902  1.3850
40973SOL     OW29010   4.622   6.384   2.224 -0.8823 -0.8341  0.1839
40973SOL    HW129011   4.571   6.310   2.192 -1.6174 -0.2295 -0.0599
40973SOL    HW229012   4.712   6.351   2.228 -1.1029 -1.5516 -0.5064
40974SOL     OW29013   8.571   0.144   9.209  0.3942  0.2986 -0.3214
40974SOL    HW129014   8.639   0.177   9.151  0.3482  0.0520 -0.5186
40974SOL    HW229015   8.490   0.152   9.159  0.0322  2.0139  0.4540
40975SOL     OW29016   4.428   9.350   7.574 -0.2788 -0.2521 -0.1749
40975SOL    HW129017   4.415   9.304   7.657 -0.9893 -1.4624 -0.9329
40975SOL    HW229018   4.477   9.429   7.598  1.3123 -1.5580  1.1227
40976SOL     OW29019   3.520   6.682   3.404  0.5816  0.3590  0.5477
40976SOL    HW129020   3.518   6.720   3.492 -0.1489  0.3482  0.5457
40976SOL    HW229021   3.594   6.621   3.405 -0.0281 -0.3791  1.4693
40977SOL     OW29022   6.678   0.713   9.599  0.0269  0.6108 -0.4299
40977SOL    HW129023   6.619   0.676   9.533  1.6655 -0.8166 -1.1826
40977SOL    HW229024   6.683   0.807   9.578  1.7242 -0.0173 -3.4699
40978SOL     OW29025   5.906   5.677  10.384  0.0679 -1.4775 -0.2483
40978SOL    HW129026   5.848   5.729  10.328  1.0752  0.6760  0.5588
40978SOL    HW229027   5.952   5.618  10.324  2.0052  1.5651 -2.0649
40979SOL     OW29028   1.274   3.179   7.833  0.6140  1.1194  0.2825
40979SOL    HW129029   1.240   3.144   7.915 -0.7940 -1.0425 -1.1290
40979SOL    HW229030   1.211   3.247   7.807  0.4604  1.0389  0.4474
40980SOL     OW29031   8.434   1.540   8.168  0.1258 -0.0307  0.0299
40980SOL    HW129032   8.471   1.538   8.080  1.6854  1.5412  0.5925
40980SOL    HW229033   8.506   1.512   8.225 -1.1215 -1.9255  0.7858
40981SOL     OW29034   0.443   2.918   9.811 -0.1018  0.7790  0.3081
40981SOL    HW129035   0.501   2.940   9.884 -0.1882 -0.3914  0.7553
40981SOL    HW229036   0.434   2.823   9.815  1.0757  0.4956 -2.1302
40982SOL     OW29037   4.456   7.630   1.256 -0.2849 -0.2707  0.4992
40982SOL    HW129038   4.528   7.579   1.293 -0.7885 -0.8130  0.7500
40982SOL    HW229039   4.422   7.575   1.185  0.5909  0.6992 -0.7153
40983SOL     OW29040   7.841   0.528   3.715  0.1591  0.4350  0.3684
40983SOL    HW129041   7.918   0.579   3.692  1.8067 -1.7074  0.8148
40983SOL    HW229042   7.784   0.589   3.762  1.1390  2.3009 -0.7725
40984SOL     OW29043   9.396   3.482  10.164  0.1510  0.4370  0.4530
40984SOL    HW129044   9.367   3.398  10.127  0.9036  0.4819 -0.2535
40984SOL    HW229045   9.376   3.475  10.257 -1.5440  0.2188  0.1062
40985SOL     OW29046  10.349  10.729   0.046 -0.7591 -0.4081  0.4931
40985SOL    HW129047  10.444  10.738   0.048 -0.8497  0.9909  0.0034
40985SOL    HW229048  10.327  10.734  -0.047 -1.3121 -0.6931  0.6053
40986SOL     OW29049   9.221  10.920   4.859 -0.0846 -0.5090 -0.6821
40986SOL    HW129050   9.207  11.006   4.899 -2.5726 -0.8380 -0.7258
40986SOL    HW229051   9.220  10.936   4.765 -1.8341 -0.7134 -0.7225
40987SOL     OW29052   0.426   6.742  10.138  0.4214  0.4823  0.6709
40987SOL    HW129053   0.492   6.683  10.173  0.1605 -0.0242  0.3250
40987SOL    HW229054   0.406   6.802  10.209  0.0600 -0.3869  1.3208
40988SOL     OW29055   5.770   9.362   1.102 -0.5495  0.5251  0.2015
40988SOL    HW129056   5.801   9.272   1.089  0.7363  1.0583 -0.5700
40988SOL    HW229057   5.711   9.356   1.177 -0.7651 -1.0223 -0.0574
40989SOL     OW29058   7.801   5.070   8.486  0.1114 -0.1393 -0.4358
40989SOL    HW129059   7.840   5.041   8.568 -0.9288  1.6603  0.7807
40989SOL    HW229060   7.780   4.989   8.439  1.6211 -1.1900  0.6081
40990SOL     OW29061   2.593   5.572   6.494 -0.0505  0.4172  0.4641
40990SOL    HW129062   2.569   5.653   6.449 -1.9668  0.0817  0.7829
40990SOL    HW229063   2.672   5.594   6.544 -0.4938  2.0727  0.4748
40991SOL     OW29064   0.353   0.705   5.703  0.0885  0.5406  0.0945
40991SOL    HW129065   0.353   0.800   5.700  0.7263  0.5915  0.9931
40991SOL    HW229066   0.351   0.684   5.797 -1.6953 -0.3612 -0.0985
40992SOL     OW29067  10.304   8.223   9.910 -0.2432 -0.4720 -0.2275
40992SOL    HW129068  10.297   8.240   9.816  1.5314 -1.4821 -0.5892
40992SOL    HW229069  10.398   8.223   9.928 -0.3825 -2.8600  1.0079
40993SOL     OW29070   5.452   8.840   1.320  0.0246 -0.2515  0.2249
40993SOL    HW129071   5.423   8.751   1.336 -0.1833 -0.0310  1.1336
40993SOL    HW229072   5.515   8.858   1.389 -1.1451  0.8414  1.0599
40994SOL     OW29073   2.031   8.419  10.073 -0.4622 -0.4286  0.0216
40994SOL    HW129074   2.028   8.421   9.977  0.0898 -0.7091 -0.0046
40994SOL    HW229075   1.997   8.504  10.100 -0.0792 -0.1299 -0.4369
40995SOL     OW29076   6.039  10.743   0.968  0.0963  0.0139 -0.4796
40995SOL    HW129077   6.001  10.719   0.883 -0.1032  0.0447 -0.3985
40995SOL    HW229078   6.131  10.763   0.948  0.0817 -0.1035 -0.6674
40996SOL     OW29079   7.592   7.386   3.099  0.6509 -0.1491  0.0296
40996SOL    HW129080   7.598   7.402   3.005 -0.3516 -1.5374 -0.3158
40996SOL    HW229081   7.675   7.343   3.121  0.5610 -0.5763 -0.4162
40997SOL     OW29082   5.235   6.965  10.689  0.3591  0.4198  0.4668
40997SOL    HW129083   5.161   6.904  10.682 -0.4271  1.2900  0.9731
40997SOL    HW229084   5.201   7.048  10.656  0.8081  1.0811  1.6088
40998SOL     OW29085   0.316   1.126   6.744 -0.2399  0.4281  0.1916
40998SOL    HW129086   0.298   1.186   6.816 -0.2431  0.4904  0.1394
40998SOL    HW229087   0.239   1.133   6.687  0.2046  1.1698 -0.3551
40999SOL     OW29088   9.592   5.902   4.032  0.4099  0.1769 -0.1671
40999SOL    HW129089   9.575   5.984   3.986 -0.9643  0.4629  0.7881
40999SOL    HW229090   9.509   5.881   4.076  0.5578 -2.0028 -0.8149
41000SOL     OW29091   4.995   4.570   9.358 -0.4863 -0.0609  0.6726
41000SOL    HW129092   5.084   4.604   9.353  0.1339 -1.6612  0.0199
41000SOL    HW229093   4.939   4.646   9.347  0.8119  0.8740  0.3392
41001SOL     OW29094   6.775   2.648   1.206 -0.4172 -0.0961 -0.0112
41001SOL    HW129095   6.852   2.592   1.191 -1.2383 -1.4391  0.6337
41001SOL    HW229096   6.805   2.736   1.182  1.5801 -0.4422  0.9762
41002SOL     OW29097  10.706   8.269  10.889 -0.3088  0.4456  0.1825
41002SOL    HW129098  10.614   8.292  10.894 -0.4771 -0.4689  1.5895
41002SOL    HW229099  10.719   8.240  10.799 -1.8003 -1.0682  0.4268
41003SOL     OW29100   1.301   6.005   1.287  0.3629 -0.0575  0.1492
41003SOL    HW129101   1.319   6.041   1.200  0.4274  1.6660  0.8290
41003SOL    HW229102   1.210   5.974   1.281  0.5468 -0.4547 -0.6859
41004SOL     OW29103   7.657   1.533   1.895  0.1113  0.4300 -0.2272
41004SOL    HW129104   7.694   1.603   1.948 -0.9581  0.0077  1.1362
41004SOL    HW229105   7.681   1.452   1.941 -1.9317  0.1166  0.4031
41005SOL     OW29106   8.567   3.433   8.476 -0.6845 -0.4130 -0.1501
41005SOL    HW129107   8.544   3.519   8.439 -0.8581 -0.5043 -0.2539
41005SOL    HW229108   8.653   3.413   8.437 -0.5086 -0.1536  0.1015
41006SOL     OW29109   2.376   2.412   8.031 -0.0994 -0.0706  0.3377
41006SOL    HW129110   2.420   2.360   7.963 -1.2414 -0.7238  0.0706
41006SOL    HW229111   2.357   2.349   8.101 -0.6431  0.1909  0.4292
41007SOL     OW29112  10.405   2.226  10.167 -0.3393  0.3677  0.2159
41007SOL    HW129113  10.421   2.205  10.075  1.3027  0.8550  0.3436
41007SOL    HW229114  10.476   2.182  10.214 -0.0558  1.6321  1.0339
41008SOL     OW29115   1.913   1.887   7.532 -0.1223  0.3678  0.0725
41008SOL    HW129116   1.985   1.902   7.471 -0.7167 -1.6883 -1.2431
41008SOL    HW229117   1.880   1.800   7.509 -1.5448  0.2816  2.1658
41009SOL     OW29118   4.951   9.135   6.677 -0.4190 -0.1358  0.2629
41009SOL    HW129119   4.942   9.225   6.711 -1.6590 -0.2306  0.2414
41009SOL    HW229120   4.867   9.118   6.634 -0.1163 -1.2381  0.0906
41010SOL     OW29121   7.312   1.591   0.743 -0.1095 -0.3052 -0.2783
41010SOL    HW129122   7.324   1.631   0.657  0.0103 -0.4281 -0.3197
41010SOL    HW229123   7.367   1.513   0.741  0.8189  0.3207  0.3331
41011SOL     OW29124   7.458   6.935   4.279 -0.0201  0.0902 -0.2000
41011SOL    HW129125   7.415   6.975   4.203 -0.3726  1.5714  0.7303
41011SOL    HW229126   7.482   7.010   4.334 -1.8562 -0.9797  2.2581
41012SOL     OW29127   9.326   8.743   1.022 -0.1302  0.2562  0.0164
41012SOL    HW129128   9.329   8.699   1.107 -0.6795  0.1735 -0.0025
41012SOL    HW229129   9.308   8.835   1.043  0.6471  0.4118  0.0353
41013SOL     OW29130  10.666   6.271  10.775  0.0500  0.1796  0.4537
41013SOL    HW129131  10.692   6.258  10.684 -0.7257 -0.0732  0.2682
41013SOL    HW229132  10.605   6.199  10.793 -0.6039  0.8278  0.8575
41014SOL     OW29133   1.054   3.256   9.292 -0.1134 -0.4259  0.0464
41014SOL    HW129134   1.127   3.316   9.307  0.0139 -0.8133  1.0123
41014SOL    HW229135   0.980   3.313   9.270  0.0693  0.0804  0.7047
41015SOL     OW29136   2.843   0.931   7.103  0.1836 -0.3399 -0.1017
41015SOL    HW129137   2.757   0.964   7.124 -0.4859 -2.2863  0.4505
41015SOL    HW229138   2.883   0.999   7.049 -2.4101 -0.1525 -1.9785
41016SOL     OW29139   1.520   1.887   5.017 -0.0626  0.0329 -0.6091
41016SOL    HW129140   1.445   1.849   4.972 -2.0298  2.3637  0.4410
41016SOL    HW229141   1.579   1.916   4.947 -0.1512 -1.7105 -1.4527
41017SOL     OW29142   7.528   7.757   5.562 -0.1485  0.0335 -0.4826
41017SOL    HW129143   7.507   7.711   5.644  0.0191  0.6676 -0.0744
41017SOL    HW229144   7.489   7.844   5.573 -0.7352 -0.1157 -1.3766
41018SOL     OW29145   0.003   1.939   4.705  0.1000 -0.5050  0.2865
41018SOL    HW129146   0.089   1.896   4.710  1.1208  1.3834 -0.1482
41018SOL    HW229147  -0.008   1.981   4.790 -0.9529 -1.6933  0.7596
41019SOL     OW29148   2.633  10.685   1.239 -0.1124 -0.4824 -0.4952
41019SOL    HW129149   2.601  10.744   1.307 -0.0124 -0.3594 -0.5545
41019SOL    HW229150   2.722  10.716   1.219  0.0624 -0.8472 -0.3014
41020SOL     OW29151   3.765   7.754   7.760  0.4827 -0.4502  0.1059
41020SOL    HW129152   3.828   7.745   7.688  0.9847  1.2675  0.2792
41020SOL    HW229153   3.789   7.837   7.802 -1.9400  0.3382  0.1133
41021SOL     OW29154   0.415   7.922   0.071  0.0756  0.4075  1.2051
41021SOL    HW129155   0.467   7.888   0.144  1.0946 -2.1397 -0.5338
41021SOL    HW229156   0.451   8.008   0.053  2.8453 -0.6955  1.0092
41022SOL     OW29157   5.481  10.203   7.666 -0.9249 -0.5492  0.2559
41022SOL    HW129158   5.431  10.173   7.742 -0.2283  0.8399  1.2904
41022SOL    HW229159   5.529  10.125   7.638 -3.4875 -1.9222 -0.7277
41023SOL     OW29160   3.502   5.510   7.095 -0.2285  0.2119 -0.1869
41023SOL    HW129161   3.460   5.537   7.013  1.1557  1.1626 -0.6137
41023SOL    HW229162   3.454   5.558   7.163 -0.9072 -0.0150 -0.4957
41024SOL     OW29163   8.225   7.037   1.064 -0.3795  0.2213 -0.0109
41024SOL    HW129164   8.206   6.975   0.994 -0.1489 -0.2088  0.3069
41024SOL    HW229165   8.231   7.122   1.019  0.3956 -0.1374 -0.6012
41025SOL     OW29166   5.839   1.694   8.557 -0.3488 -0.0488 -0.1120
41025SOL    HW129167   5.932   1.698   8.581 -0.4738 -1.1426  0.6159
41025SOL    HW229168   5.796   1.759   8.612 -0.0149  0.5193 -0.5088
41026SOL     OW29169   5.377   9.266   7.006  0.7122 -0.0749  0.1810
41026SOL    HW129170   5.355   9.230   6.920  1.0159 -1.4814  0.6663
41026SOL    HW229171   5.402   9.356   6.988 -1.4198  0.3573 -0.9062
41027SOL     OW29172   1.792   5.261   1.447 -0.5375 -0.3990  0.1854
41027SOL    HW129173   1.828   5.217   1.370 -0.2169  1.0914 -0.5598
41027SOL    HW229174   1.828   5.350   1.443 -1.6323  0.1340  1.2768
41028SOL     OW29175   5.481   3.237   4.819 -0.2456  0.2674  0.1084
41028SOL    HW129176   5.469   3.241   4.724 -2.8515  0.8706  0.3819
41028SOL    HW229177   5.449   3.150   4.843  1.8116 -0.4690  0.3215
41029SOL     OW29178  10.782   2.647   8.406  0.0435  0.3405 -0.3091
41029SOL    HW129179  10.735   2.584   8.351  0.4161 -1.8726  1.7524
41029SOL    HW229180  10.715   2.685   8.463  0.0159  0.9707 -0.7429
41030SOL     OW29181   4.546   0.257   8.216  0.3045  0.1530 -0.6593
41030SOL    HW129182   4.539   0.185   8.153  2.1539  0.4056 -1.2240
41030SOL    HW229183   4.624   0.236   8.267 -0.3570  0.6917  0.6160
41031SOL     OW29184   3.512   1.665   6.250 -0.5476 -0.0705 -0.2614
41031SOL    HW129185   3.457   1.710   6.315  0.3851  0.4078  0.2076
41031SOL    HW229186   3.599   1.661   6.290 -0.8972 -3.8619  0.5293
41032SOL     OW29187   2.725   4.995   0.666 -0.1533 -0.6537 -0.0415
41032SOL    HW129188   2.757   5.050   0.594  1.9355 -3.2044 -1.2614
41032SOL    HW229189   2.788   5.009   0.736 -0.4428 -0.4393  0.1777
41033SOL     OW29190   4.953   8.893  10.138  0.4554 -0.4517  0.3793
41033SOL    HW129191   5.029   8.913  10.083  0.8018  0.8920  1.2891
41033SOL    HW229192   4.913   8.979  10.156 -0.2068 -0.9536  1.4212
41034SOL     OW29193   5.422   4.624   1.935  0.2408  0.0366 -0.7525
41034SOL    HW129194   5.377   4.545   1.906  0.7710 -0.1827 -1.0003
41034SOL    HW229195   5.392   4.637   2.025  0.1753 -0.4683 -0.6970
41035SOL     OW29196   6.669   3.731  10.852 -0.1882 -0.7796 -0.0091
41035SOL    HW129197   6.722   3.809  10.835 -0.9470  0.1917  1.7360
41035SOL    HW229198   6.581   3.755  10.824 -0.7054 -0.4603  1.7752
41036SOL     OW29199   5.901   9.759   2.558  0.0845  0.0697 -0.4479
41036SOL    HW129200   5.971   9.802   2.607  0.3063 -2.4367  1.6598
41036SOL    HW229201   5.852   9.831   2.519  2.0815  2.0516  0.4458
41037SOL     OW29202   3.455   8.433  10.541 -0.2884  0.1928 -0.1293
41037SOL    HW129203   3.422   8.474  10.462  0.1861 -1.7292 -1.3759
41037SOL    HW229204   3.550   8.433  10.531 -0.1130  1.3548  1.2073
41038SOL     OW29205   9.511   5.006   7.870 -0.1412 -0.4673  0.5446
41038SOL    HW129206   9.463   5.008   7.953  0.6560 -0.1954  1.0163
41038SOL    HW229207   9.583   5.067   7.883 -0.5317  0.2984 -0.6885
41039SOL     OW29208   3.093   4.371   4.498  0.9745 -0.3159 -0.3359
41039SOL    HW129209   3.097   4.466   4.508 -2.1004  0.2115 -2.7262
41039SOL    HW229210   3.158   4.351   4.431  1.4618  0.0914  0.0018
41040SOL     OW29211   1.939   0.613   8.817 -0.9048  0.3093 -0.0621
41040SOL    HW129212   1.983   0.542   8.864 -1.4170 -0.1763 -0.3141
41040SOL    HW229213   1.969   0.692   8.861  0.0978 -0.0203 -0.1202
41041SOL     OW29214   5.223   4.835  10.365  0.1375  0.1063 -0.9300
41041SOL    HW129215   5.277   4.768  10.323 -0.8253 -0.5622 -1.1310
41041SOL    HW229216   5.230   4.817  10.458  2.1224  1.4710 -0.7695
41042SOL     OW29217   6.544   4.706   0.145 -0.1992  0.1129  0.4114
41042SOL    HW129218   6.552   4.678   0.237 -1.8754 -0.3347  0.4478
41042SOL    HW229219   6.568   4.798   0.146 -0.2586  0.1292  1.3103
41043SOL     OW29220   3.049   2.530   2.265  0.4279 -0.0991  0.2707
41043SOL    HW129221   2.982   2.597   2.280 -0.0367 -0.6152  0.5349
41043SOL    HW229222   3.112   2.572   2.206  0.3770  0.7261  0.7805
41044SOL     OW29223   2.238   8.590   3.167  0.3792 -0.3323 -0.1996
41044SOL    HW129224   2.262   8.601   3.075  0.5834  0.1284 -0.0928
41044SOL    HW229225   2.322   8.582   3.213  0.5897  3.9894  0.5509
41045SOL     OW29226   8.332   0.412   9.436 -0.0776 -0.2977  0.0083
41045SOL    HW129227   8.259   0.361   9.472 -0.0004  0.7600  1.8117
41045SOL    HW229228   8.293   0.461   9.363 -0.5161 -1.6789 -0.7191
41046SOL     OW29229   2.452   2.752   4.305 -0.1408 -0.2436 -0.1340
41046SOL    HW129230   2.446   2.798   4.389  0.0912  0.7576 -0.6555
41046SOL    HW229231   2.539   2.712   4.306 -0.9210 -2.0445  0.9900
41047SOL     OW29232   4.143  10.912   2.355 -0.1610 -0.3973 -0.3347
41047SOL    HW129233   4.172  10.824   2.332 -0.5555 -0.2717 -1.3528
41047SOL    HW229234   4.092  10.941   2.280  1.8956  1.6001 -1.0793
41048SOL     OW29235   1.737   6.282   0.927  0.1243  0.2000  0.0593
41048SOL    HW129236   1.712   6.232   1.005  0.1769  0.4399  0.2291
41048SOL    HW229237   1.833   6.276   0.924  0.0925 -0.2220 -0.2625
41049SOL     OW29238   4.118   8.844   8.421  0.6661  0.1100 -0.2514
41049SOL    HW129239   4.077   8.922   8.460  2.1255  0.0331  1.5632
41049SOL    HW229240   4.147   8.874   8.335  0.2832  1.2839 -0.0049
41050SOL     OW29241   0.630   7.182   6.859 -0.2113  0.0629  0.4891
41050SOL    HW129242   0.624   7.087   6.862 -2.0097  0.1684  1.6488
41050SOL    HW229243   0.602   7.205   6.770 -2.4172 -0.4026  0.9932
41051SOL     OW29244   8.633   7.567   7.260 -0.6784 -0.2467 -0.1145
41051SOL    HW129245   8.699   7.616   7.211 -2.1962  0.7799 -1.2311
41051SOL    HW229246   8.672   7.554   7.346  0.2240  2.0289 -0.1081
41052SOL     OW29247   8.040   6.661   8.226 -0.2826 -0.0385  0.1896
41052SOL    HW129248   8.074   6.705   8.304  1.3575 -0.7056 -0.1163
41052SOL    HW229249   8.060   6.721   8.154 -1.3270  0.3344  0.1831
41053SOL     OW29250   2.708   3.877   6.470 -0.0115  0.5081 -0.3853
41053SOL    HW129251   2.673   3.795   6.504 -1.4468  1.0596 -0.4330
41053SOL    HW229252   2.636   3.912   6.417  0.9194  1.3407 -1.1213
41054SOL     OW29253   6.283   0.923   4.865  0.1611  0.3777  0.6178
41054SOL    HW129254   6.340   0.868   4.812  0.0449  0.8918 -0.0486
41054SOL    HW229255   6.304   0.899   4.955  0.7734 -0.0860  0.3575
41055SOL     OW29256   9.772   4.036   6.783 -0.0808 -0.2571  0.4399
41055SOL    HW129257   9.732   4.089   6.715 -0.5331 -0.2894  0.6792
41055SOL    HW229258   9.719   3.956   6.786  1.6839 -1.5914 -1.2235
41056SOL     OW29259   3.796  10.269   9.294 -0.3337  0.5080 -0.1888
41056SOL    HW129260   3.775  10.253   9.386  0.7791 -0.7498 -0.1183
41056SOL    HW229261   3.724  10.229   9.245  0.2878 -1.0473  0.1096
41057SOL     OW29262   0.130   9.773   6.382  0.2877  0.0755  0.4175
41057SOL    HW129263   0.148   9.715   6.308  0.3207 -0.4672  0.8424
41057SOL    HW229264   0.216   9.807   6.407  0.3023  0.1009  0.3323
41058SOL     OW29265   5.290   2.173   1.493  0.0169  0.1851 -0.0023
41058SOL    HW129266   5.265   2.081   1.507 -1.8692  0.5695 -0.6279
41058SOL    HW229267   5.334   2.173   1.408  0.1524 -0.1454  0.0652
41059SOL     OW29268   8.673   3.425   6.606 -0.1091  0.2115 -0.4342
41059SOL    HW129269   8.696   3.501   6.553 -1.2754  0.1766 -1.0320
41059SOL    HW229270   8.748   3.366   6.598  0.7030  1.1828 -0.1626
41060SOL     OW29271   1.292   4.498   5.906  0.2229  0.0019  0.6593
41060SOL    HW129272   1.331   4.548   5.977  0.0885  0.1070  0.6601
41060SOL    HW229273   1.213   4.547   5.882 -0.6821 -0.9539  1.5975
41061SOL     OW29274   8.485   9.688   4.286 -0.6895 -0.1533 -0.3095
41061SOL    HW129275   8.390   9.680   4.292 -0.5364 -2.0025  0.0282
41061SOL    HW229276   8.519   9.624   4.348  0.8098  2.2402  1.5094
41062SOL     OW29277   3.804   7.941   4.292  0.1040 -0.3240  0.1081
41062SOL    HW129278   3.811   7.919   4.385  0.6309 -0.0788  0.1268
41062SOL    HW229279   3.763   7.864   4.252  1.5420 -1.1863  0.2372
41063SOL     OW29280   7.796   8.492   3.921  0.1026 -0.0789  0.4340
41063SOL    HW129281   7.794   8.484   4.016  1.8377  0.1334  0.5134
41063SOL    HW229282   7.889   8.495   3.898 -0.2658  1.3023 -1.1393
41064SOL     OW29283   6.817   2.432   0.447 -0.0130 -0.6377 -0.0308
41064SOL    HW129284   6.884   2.486   0.488 -0.2807  0.1363 -0.5868
41064SOL    HW229285   6.816   2.351   0.499 -1.6861  1.0040  2.7534
41065SOL     OW29286   9.252  10.850   0.414 -0.2239 -0.7837  0.0414
41065SOL    HW129287   9.158  10.867   0.412 -0.1773 -0.4046  0.6899
41065SOL    HW229288   9.275  10.827   0.324 -0.8118 -0.1918 -0.2679
41066SOL     OW29289   5.061   2.919   1.763  0.1544  0.2338 -0.1104
41066SOL    HW129290   5.025   3.003   1.790 -0.1102  0.0091  0.2489
41066SOL    HW229291   5.022   2.856   1.824 -0.0804 -0.2173 -0.7127
41067SOL     OW29292   4.396   9.058   9.356 -0.0275 -0.1902  0.1762
41067SOL    HW129293   4.431   9.002   9.286  1.6924  1.2129 -0.1694
41067SOL    HW229294   4.328   9.109   9.313 -1.4236 -1.7645  0.4282
41068SOL     OW29295  10.044   2.939   2.116 -0.5267  0.3090 -0.0955
41068SOL    HW129296   9.949   2.945   2.107 -0.5659  1.7752  0.9788
41068SOL    HW229297  10.065   3.001   2.186  1.3370  0.7584 -1.0203
41069SOL     OW29298   1.453   5.598   7.075  0.6588  0.0849 -0.6602
41069SOL    HW129299   1.529   5.539   7.075  1.2976  0.8461  0.8125
41069SOL    HW229300   1.446   5.627   7.166 -0.8186  0.7911 -0.9772
41070SOL     OW29301   2.441   0.649   9.121 -0.1972  0.7059  0.4847
41070SOL    HW129302   2.466   0.587   9.053  0.3316  1.2659  0.1553
41070SOL    HW229303   2.350   0.628   9.141  0.7281 -2.0348  2.3860
41071SOL     OW29304   8.183   2.156   9.279  0.4269  0.3119  0.0230
41071SOL    HW129305   8.100   2.196   9.253  0.5339 -0.8515 -2.3251
41071SOL    HW229306   8.169   2.130   9.370 -0.6051  3.0161  0.7510
41072SOL     OW29307   4.805   9.501   3.491 -0.3276 -0.8454 -0.1513
41072SOL    HW129308   4.847   9.424   3.454  0.5292  0.0268 -1.0539
41072SOL    HW229309   4.711   9.482   3.486 -0.2033 -1.1699 -1.8886
41073SOL     OW29310   6.504   2.843   2.622 -0.1068 -0.6288  0.5374
41073SOL    HW129311   6.462   2.869   2.704 -2.2434 -0.2147 -0.6247
41073SOL    HW229312   6.517   2.749   2.629 -0.2671 -0.5919  1.3457
41074SOL     OW29313   7.359   2.594   7.088  0.3286  0.0434 -0.0099
41074SOL    HW129314   7.329   2.669   7.140 -2.8349 -0.3930 -1.0483
41074SOL    HW229315   7.329   2.517   7.137 -0.2966 -0.4263 -1.1005
41075SOL     OW29316   0.961   1.255   0.900  0.1532  0.2614 -0.5543
41075SOL    HW129317   1.028   1.198   0.938 -0.6695 -0.5094 -0.2495
41075SOL    HW229318   0.965   1.237   0.806  0.9889  0.8994 -0.6625
41076SOL     OW29319   1.940   7.668   2.224 -0.4214 -0.0691 -0.8119
41076SOL    HW129320   1.952   7.745   2.280 -1.3225 -0.0366 -0.6480
41076SOL    HW229321   1.849   7.642   2.239  0.1050 -1.6617 -0.2514
41077SOL     OW29322   0.146   3.268   5.737 -0.2301 -0.2937 -0.4593
41077SOL    HW129323   0.114   3.250   5.649 -2.0060  1.6118 -0.2775
41077SOL    HW229324   0.067   3.277   5.790  0.7210  0.7456  0.8518
41078SOL     OW29325   1.872   2.732   5.201  0.1733 -0.2258  0.3934
41078SOL    HW129326   1.779   2.746   5.184  0.1080 -0.1440  0.8192
41078SOL    HW229327   1.915   2.807   5.159  0.1140 -0.6527 -0.4593
41079SOL     OW29328   0.671   7.139   5.732  0.0940 -0.0768 -1.3043
41079SOL    HW129329   0.699   7.051   5.709 -0.0731 -1.1523  2.0810
41079SOL    HW229330   0.718   7.159   5.813 -0.6993  2.5255 -1.3974
41080SOL     OW29331   1.387  10.266   8.537 -0.3160  0.3243 -0.1738
41080SOL    HW129332   1.397  10.195   8.474  1.8016 -0.5909  1.0806
41080SOL    HW229333   1.323  10.233   8.600 -0.1170 -0.0496 -0.1635
41081SOL     OW29334   1.456   3.358   6.258 -0.0334 -0.1538  0.8285
41081SOL    HW129335   1.493   3.370   6.171  0.4513 -0.2900  1.0108
41081SOL    HW229336   1.412   3.273   6.254 -0.5363  0.1194  0.5394
41082SOL     OW29337   4.409   0.217   4.798  0.3716  0.0792 -0.0533
41082SOL    HW129338   4.443   0.289   4.852  0.9159  0.8011 -1.2959
41082SOL    HW229339   4.480   0.153   4.797  0.7221  0.4656 -0.6160
41083SOL     OW29340   2.499   6.904   3.021 -0.3742 -0.2194 -0.2604
41083SOL    HW129341   2.581   6.948   2.998  0.3200 -1.3365  0.0251
41083SOL    HW229342   2.456   6.887   2.937 -0.2960  0.3114 -0.4129
41084SOL     OW29343   1.596   0.381   8.038  0.3279 -0.4141 -0.7033
41084SOL    HW129344   1.572   0.447   8.102  0.1135 -0.6245 -0.5682
41084SOL    HW229345   1.689   0.399   8.019  0.5418 -0.6869  0.0655
41085SOL     OW29346   9.047  10.314   9.654  0.1767  0.6557 -0.1512
41085SOL    HW129347   9.063  10.408   9.659  0.8699  0.4814  1.9311
41085SOL    HW229348   9.062  10.292   9.562  0.5930  2.4768 -0.5551
41086SOL     OW29349   7.242   0.968   0.404 -0.2938 -0.4899  0.1241
41086SOL    HW129350   7.206   0.904   0.465  1.1408 -1.6826 -0.2521
41086SOL    HW229351   7.273   0.917   0.329  0.7384  0.6438 -0.2632
41087SOL     OW29352   3.110   4.013   7.801  0.3711  0.1862  0.8599
41087SOL    HW129353   3.062   4.088   7.766  0.2740  0.0191  0.6371
41087SOL    HW229354   3.195   4.049   7.827  0.1471  0.4736  1.2129
41088SOL     OW29355   7.873   1.928   8.452  0.4837 -0.0031  0.2261
41088SOL    HW129356   7.906   1.839   8.438  1.3673  0.2675  0.5222
41088SOL    HW229357   7.798   1.935   8.393  1.5115 -0.3340 -1.1669
41089SOL     OW29358   5.452   5.334   9.962  0.1700  0.2471  0.1621
41089SOL    HW129359   5.428   5.265  10.025 -0.7344  1.9503  1.8062
41089SOL    HW229360   5.401   5.313   9.884  0.4556 -1.3268  0.3681
41090SOL     OW29361   3.717   4.408   6.339 -0.0092  0.1867 -0.0074
41090SOL    HW129362   3.782   4.475   6.317 -0.2878 -0.1755 -2.1624
41090SOL    HW229363   3.769   4.329   6.355  0.2758  0.7041  1.9598
41091SOL     OW29364   6.415   8.444   9.210  0.1836  0.0810  0.1531
41091SOL    HW129365   6.463   8.513   9.257 -0.3572  0.4212  0.2210
41091SOL    HW229366   6.323   8.461   9.231 -0.2827  1.4565 -2.5427
41092SOL     OW29367   9.748   0.188   3.600 -0.1877  0.4703  0.7789
41092SOL    HW129368   9.700   0.181   3.518  0.9986  0.9683  0.0237
41092SOL    HW229369   9.778   0.279   3.602  1.0971  0.0495  1.0240
41093SOL     OW29370   4.497   2.377   2.545 -0.6690  0.0344 -0.1182
41093SOL    HW129371   4.526   2.432   2.471 -3.4723  1.1461 -0.5071
41093SOL    HW229372   4.456   2.302   2.504 -1.0001 -0.0332  0.3345
41094SOL     OW29373   2.238   1.588   4.196 -0.6634 -0.1471 -0.2094
41094SOL    HW129374   2.158   1.632   4.168  0.0313  0.2405 -1.7475
41094SOL    HW229375   2.209   1.518   4.254 -2.0363  0.4962 -0.0938
41095SOL     OW29376   6.283   0.489   2.017  0.6225  0.6248 -0.1942
41095SOL    HW129377   6.304   0.542   1.941 -0.8671  0.0253 -1.0750
41095SOL    HW229378   6.334   0.408   2.005 -1.5294 -0.5820 -2.0114
41096SOL     OW29379   4.284   3.045   1.732 -0.1671 -0.0112  0.7437
41096SOL    HW129380   4.246   3.068   1.817  1.1239 -1.4024  1.7545
41096SOL    HW229381   4.214   2.997   1.686  0.2687 -2.7166  2.6466
41097SOL     OW29382   3.881   3.169   2.374 -0.2497 -0.3645 -0.2508
41097SOL    HW129383   3.870   3.109   2.447 -0.5549  1.9912  1.8015
41097SOL    HW229384   3.961   3.218   2.395 -0.0889  0.0863 -1.7449
41098SOL     OW29385   9.005   9.845  10.371 -0.0416 -0.7210  0.2189
41098SOL    HW129386   9.005   9.833  10.466 -0.3513 -1.4819  0.1268
41098SOL    HW229387   8.927   9.897  10.353 -0.2148 -0.9445  0.3331
41099SOL     OW29388   3.948   9.406   8.160 -0.3310 -0.0245 -0.4459
41099SOL    HW129389   4.030   9.380   8.118 -0.3526  0.6451 -0.9330
41099SOL    HW229390   3.900   9.324   8.172  0.3793 -0.4153 -0.2055
41100SOL     OW29391   0.400   5.543   6.886  0.0744 -0.1966  0.1090
41100SOL    HW129392   0.410   5.581   6.799  1.3925 -1.6043 -0.3993
41100SOL    HW229393   0.396   5.618   6.945 -0.1442  0.7612 -1.0896
41101SOL     OW29394   2.342   9.350  10.429  0.2606  0.0393 -0.0454
41101SOL    HW129395   2.264   9.393  10.395  0.4998  0.0073 -0.6456
41101SOL    HW229396   2.345   9.374  10.521  0.3502  1.2515 -0.3490
41102SOL     OW29397   1.238   1.278   4.591  0.0019 -0.1232 -0.1076
41102SOL    HW129398   1.316   1.235   4.626  0.2798 -0.0673 -0.6501
41102SOL    HW229399   1.168   1.255   4.653  0.2633 -0.8762 -0.0865
41103SOL     OW29400   1.571   0.662   7.593  0.4984 -0.2997  0.0317
41103SOL    HW129401   1.548   0.728   7.658  1.4930 -0.1802  0.2772
41103SOL    HW229402   1.599   0.586   7.644 -0.9298 -1.0534 -0.2428
41104SOL     OW29403   9.488  10.103   2.880 -0.3863  0.0711 -0.4304
41104SOL    HW129404   9.574  10.145   2.874  0.2514 -1.0356  0.5067
41104SOL    HW229405   9.478  10.057   2.796  0.0099  0.0826 -0.4852
41105SOL     OW29406   7.665   9.883   7.196  0.1198 -0.1348  0.5170
41105SOL    HW129407   7.695   9.947   7.260  0.9941 -0.1718  0.1591
41105SOL    HW229408   7.611   9.933   7.135 -2.5663 -0.4568  2.4163
41106SOL     OW29409   6.538   6.217   6.501  0.0684 -0.0529 -0.8888
41106SOL    HW129410   6.628   6.188   6.484  0.6607  1.6617 -0.8261
41106SOL    HW229411   6.509   6.255   6.418  0.3404  1.7037 -0.2222
41107SOL     OW29412   1.037   9.600   9.390  0.1309  0.0127 -0.7063
41107SOL    HW129413   0.978   9.602   9.315  0.2970  1.7913 -0.8204
41107SOL    HW229414   1.121   9.630   9.356  0.3768  0.2122  0.0450
41108SOL     OW29415   0.175   0.391   0.080  0.0061  0.2434 -0.2958
41108SOL    HW129416   0.132   0.420   0.161  1.9439  0.9923  0.5215
41108SOL    HW229417   0.123   0.316   0.051 -1.7979  1.0695  0.6373
41109SOL     OW29418   8.384   9.034   2.274 -0.0771 -0.1560 -0.4037
41109SOL    HW129419   8.331   9.088   2.333  0.0438  1.1590 -1.4401
41109SOL    HW229420   8.325   9.015   2.200  0.3903 -0.0901 -0.7949
41110SOL     OW29421   9.520   7.069   5.187  0.0957 -0.5992  0.6740
41110SOL    HW129422   9.443   7.055   5.132  1.3414  1.4536 -1.8422
41110SOL    HW229423   9.491   7.130   5.255 -0.3333  1.1502 -0.9793
41111SOL     OW29424   0.965  10.175   4.301  0.6151 -0.7113 -0.3741
41111SOL    HW129425   0.919  10.130   4.372  2.1159 -0.3103  0.9173
41111SOL    HW229426   0.897  10.222   4.253 -1.0214 -4.0537 -1.6446
41112SOL     OW29427   8.112   7.483   9.980 -0.6406  0.1619 -0.1116
41112SOL    HW129428   8.076   7.569   9.999  0.4034  0.4418  0.7316
41112SOL    HW229429   8.064   7.452   9.903 -0.9599  1.5237 -0.4752
41113SOL     OW29430   4.876   4.110   3.475  0.1622  0.1302 -0.5520
41113SOL    HW129431   4.852   4.032   3.424 -0.6973  0.0662 -0.0705
41113SOL    HW229432   4.969   4.098   3.495 -0.1526 -1.2243  0.2584
41114SOL     OW29433   9.126  10.263  10.820 -0.0620 -0.1995 -0.1142
41114SOL    HW129434   9.196  10.213  10.778  1.5079  1.0711  0.8543
41114SOL    HW229435   9.126  10.232  10.910 -1.1950 -0.6261 -0.2550
41115SOL     OW29436   2.098   3.512   8.681  0.0126 -0.1544  0.1681
41115SOL    HW129437   2.193   3.521   8.678 -0.0834  0.6315 -2.2963
41115SOL    HW229438   2.078   3.499   8.774  2.5534 -0.9810  0.6751
41116SOL     OW29439   1.236   7.485   8.251  0.2433 -0.0337  0.5861
41116SOL    HW129440   1.267   7.512   8.337 -1.8573  0.9702  1.0683
41116SOL    HW229441   1.257   7.558   8.193  0.9500 -0.3898  0.3707
41117SOL     OW29442   7.629   7.678  10.681  0.3534 -0.2816  0.1185
41117SOL    HW129443   7.637   7.610  10.614 -2.2181 -0.8397  0.2727
41117SOL    HW229444   7.576   7.746  10.640  1.4360  0.8703  0.5620
41118SOL     OW29445   3.660   1.655   0.538  0.0002 -0.0047 -0.0675
41118SOL    HW129446   3.681   1.709   0.461  1.4534  1.3572  1.1907
41118SOL    HW229447   3.720   1.581   0.532  0.4028  0.3126 -0.0697
41119SOL     OW29448   5.040   6.124  10.193  0.4079  0.2578 -0.0379
41119SOL    HW129449   5.112   6.104  10.134  0.0670 -0.5358 -0.2080
41119SOL    HW229450   5.047   6.058  10.262 -0.0079  0.3251  0.0702
41120SOL     OW29451   4.476  10.081   2.572  0.5037 -0.6123 -0.0044
41120SOL    HW129452   4.478  10.020   2.646  2.3973 -2.0573 -1.1290
41120SOL    HW229453   4.406  10.048   2.515  2.2438 -2.5820 -1.1592
41121SOL     OW29454   0.141   7.848   9.297 -0.3917 -0.3697  0.0241
41121SOL    HW129455   0.105   7.775   9.348  1.0894 -2.0135 -1.1445
41121SOL    HW229456   0.232   7.823   9.280  0.5216  2.2838  0.4669
41122SOL     OW29457   9.166   8.417   8.164  0.3946  0.2086  0.0181
41122SOL    HW129458   9.195   8.390   8.251 -0.1488  0.1182  0.1758
41122SOL    HW229459   9.174   8.513   8.165  0.2776  0.2176  0.2133
41123SOL     OW29460  10.691   3.700   1.170 -0.1464 -0.3307 -0.7775
41123SOL    HW129461  10.662   3.683   1.259 -1.4271  2.1930 -0.6241
41123SOL    HW229462  10.786   3.682   1.172  0.3833  2.0327  1.8327
41124SOL     OW29463   4.071   6.260   5.986 -0.0452  0.8990 -0.0627
41124SOL    HW129464   4.089   6.353   5.975  0.5277  1.1568  2.3950
41124SOL    HW229465   4.029   6.254   6.072  0.1836 -1.1432 -0.0482
41125SOL     OW29466   5.409  10.262   6.044 -0.3650  0.3506 -0.0284
41125SOL    HW129467   5.493  10.266   5.999  0.0737  0.6502  0.7897
41125SOL    HW229468   5.346  10.294   5.980  0.3493  1.5371 -0.1885
41126SOL     OW29469   4.724   8.998   6.551 -0.8968 -0.5522 -0.1776
41126SOL    HW129470   4.756   8.909   6.567 -0.7614 -0.5666 -0.5210
41126SOL    HW229471   4.629   8.990   6.558 -0.9601 -0.9624 -1.3383
41127SOL     OW29472   7.161   1.686   7.454  0.0323 -0.0725  0.3561
41127SOL    HW129473   7.150   1.736   7.535  1.4988 -1.3465  1.4111
41127SOL    HW229474   7.185   1.751   7.388  0.9053  0.7486  1.4435
41128SOL     OW29475   1.769   2.406   4.866 -0.0086 -0.0752 -0.6211
41128SOL    HW129476   1.825   2.429   4.940 -1.1183 -1.0456  0.5653
41128SOL    HW229477   1.681   2.432   4.894 -0.1091  2.3913 -2.8439
41129SOL     OW29478   5.176  10.874   4.546  0.7624  0.3886 -0.1330
41129SOL    HW129479   5.230  10.890   4.469 -0.6193 -0.1185 -1.2461
41129SOL    HW229480   5.091  10.913   4.526  0.0493 -0.6719  0.6839
41130SOL     OW29481   8.201   9.518   7.097 -0.4557  0.3013 -0.2865
41130SOL    HW129482   8.224   9.451   7.033  4.2381 -1.0583  2.3252
41130SOL    HW229483   8.251   9.595   7.071 -0.2306  0.4229  0.4548
41131SOL     OW29484   8.167   8.466   0.372 -0.1297  0.4234 -0.0774
41131SOL    HW129485   8.245   8.482   0.425 -1.2802  2.8446  1.0321
41131SOL    HW229486   8.126   8.390   0.413  1.6486 -0.9488 -0.7427
41132SOL     OW29487   9.316   0.897   1.362  0.2343 -0.0218 -0.0460
41132SOL    HW129488   9.264   0.947   1.300 -0.3616 -0.6489 -0.0682
41132SOL    HW229489   9.277   0.915   1.447 -2.0919 -2.8479 -0.3377
41133SOL     OW29490   0.303   8.685   2.816 -0.0511 -0.0233 -0.0734
41133SOL    HW129491   0.302   8.770   2.770  0.3767 -1.5601 -3.2025
41133SOL    HW229492   0.390   8.680   2.854 -0.5995  1.5410  1.5488
41134SOL     OW29493   9.443   5.768   2.470 -0.6175  0.0277 -0.9815
41134SOL    HW129494   9.456   5.678   2.500 -0.2968 -0.3862 -2.3254
41134SOL    HW229495   9.390   5.759   2.391  1.1102  0.8578 -2.2715
41135SOL     OW29496   5.720   4.636   1.901  0.2598  0.0450  0.0827
41135SOL    HW129497   5.722   4.683   1.818  2.0189 -0.6722 -0.3378
41135SOL    HW229498   5.630   4.645   1.932 -0.6110 -0.2241 -2.2008
41136SOL     OW29499   5.251   2.816   7.854  0.0925 -0.1212  0.2157
41136SOL    HW129500   5.157   2.812   7.869  0.2213 -0.9243  0.9034
41136SOL    HW229501   5.290   2.778   7.933  1.0357  1.1390  0.3865
41137SOL     OW29502   1.223   2.867   2.150 -0.3448 -1.0702  0.3007
41137SOL    HW129503   1.288   2.838   2.087 -0.0063 -0.9228  0.5830
41137SOL    HW229504   1.161   2.794   2.155  0.7966 -2.0192  1.4190
41138SOL     OW29505   8.620   3.778   8.600  0.2922  0.6115  0.3423
41138SOL    HW129506   8.692   3.775   8.662  0.7933 -0.7996 -0.2693
41138SOL    HW229507   8.620   3.868   8.568  1.4760  0.7560  0.7053
41139SOL     OW29508   1.003  10.538   8.317  0.7215  0.1991  0.5021
41139SOL    HW129509   1.060  10.514   8.390  0.3349  0.7418  0.9929
41139SOL    HW229510   1.022  10.631   8.302  0.8908  0.0659 -0.1806
41140SOL     OW29511   7.797   7.154   6.653 -0.2594 -0.0421 -0.0593
41140SOL    HW129512   7.725   7.185   6.708 -2.2880 -1.5894 -1.6797
41140SOL    HW229513   7.852   7.231   6.640 -2.0143  1.4191  0.6605
41141SOL     OW29514   8.625   0.538   8.971 -0.2441  0.3419  0.2612
41141SOL    HW129515   8.546   0.487   8.952  0.6858 -0.6706 -1.0788
41141SOL    HW229516   8.603   0.627   8.941 -1.4507  0.4967  1.4983
41142SOL     OW29517   4.086   7.699   8.520  0.3810  0.3467  0.2631
41142SOL    HW129518   4.163   7.649   8.494  0.3471 -0.3823  1.5108
41142SOL    HW229519   4.015   7.635   8.521 -0.8804  1.4476 -3.3165
41143SOL     OW29520   4.539   1.512   5.957 -0.1792 -0.1219 -0.1001
41143SOL    HW129521   4.511   1.478   6.042 -2.1598  0.9490 -0.2857
41143SOL    HW229522   4.518   1.441   5.895 -2.3036  0.5377 -0.1902
41144SOL     OW29523   6.998   8.444   3.229  0.5022 -0.7276  0.0829
41144SOL    HW129524   6.947   8.520   3.201  0.2023 -0.6256  0.8588
41144SOL    HW229525   6.944   8.368   3.205 -0.0401 -0.6204  0.9083
41145SOL     OW29526   2.759   1.828  10.525 -0.2255 -0.0027 -0.1819
41145SOL    HW129527   2.754   1.918  10.556 -1.7837  0.4261 -1.5167
41145SOL    HW229528   2.842   1.795  10.560  0.1714  1.7919  0.6954
41146SOL     OW29529   8.163   6.191  10.413 -0.3754 -0.5702 -0.1190
41146SOL    HW129530   8.114   6.255  10.363 -2.0460 -0.7791  1.1648
41146SOL    HW229531   8.252   6.227  10.417  0.0150 -0.8434 -3.6336
41147SOL     OW29532   4.990   1.790   9.993 -0.1912 -0.1180  0.0239
41147SOL    HW129533   4.916   1.829  10.040  0.8189  1.1257  0.6451
41147SOL    HW229534   5.063   1.850  10.009  0.5262 -0.3512 -2.0767
41148SOL     OW29535   8.506   3.805   5.358  0.0671  0.0425 -0.4724
41148SOL    HW129536   8.436   3.867   5.338 -0.1200  0.1099  0.3484
41148SOL    HW229537   8.572   3.820   5.290 -0.3068  0.6153 -0.7150
41149SOL     OW29538  10.902   4.876   5.873 -0.3874  0.5149  0.0183
41149SOL    HW129539  10.934   4.793   5.837 -1.2057  0.3905 -0.4550
41149SOL    HW229540  10.817   4.854   5.912 -0.8287  1.2108 -0.5286
41150SOL     OW29541   2.412   8.362   8.860 -0.5110  0.4327  0.6580
41150SOL    HW129542   2.353   8.310   8.806 -0.9799  1.4366  0.1973
41150SOL    HW229543   2.376   8.353   8.949  0.4914 -1.5469  0.9384
41151SOL     OW29544   5.891   9.274   0.057  0.2599 -0.1736 -0.2281
41151SOL    HW129545   5.919   9.190   0.093 -1.5357 -0.7272 -0.0345
41151SOL    HW229546   5.819   9.302   0.112 -1.1241  0.0469 -2.0406
41152SOL     OW29547  10.151   6.288   0.142  0.0279  0.5973  0.0496
41152SOL    HW129548  10.132   6.340   0.220 -1.3417 -0.7371  0.6532
41152SOL    HW229549  10.065   6.267   0.105  0.6293  2.0112 -2.4394
41153SOL     OW29550   4.076   7.313   3.927 -0.2777  0.1735 -0.4981
41153SOL    HW129551   4.018   7.360   3.987 -1.4962 -1.0209 -0.6922
41153SOL    HW229552   4.051   7.221   3.937  0.3724 -0.1812 -1.9049
41154SOL     OW29553   3.652   0.027   9.829  0.5855 -0.2070  0.5091
41154SOL    HW129554   3.674  -0.043   9.890  0.2803 -0.4057  0.3942
41154SOL    HW229555   3.651  -0.015   9.743  2.7764  0.4390  0.1219
41155SOL     OW29556   1.522   6.733  10.173 -0.3383 -0.0435 -0.3957
41155SOL    HW129557   1.604   6.781  10.183 -0.8374  0.9453 -0.9718
41155SOL    HW229558   1.548   6.649  10.135  0.6109 -0.4958  1.1612
41156SOL     OW29559   8.382   1.820   3.346  1.0965  0.1181  0.0968
41156SOL    HW129560   8.454   1.863   3.301  0.7202  0.9575  0.2820
41156SOL    HW229561   8.362   1.743   3.292 -0.7011  2.1678 -2.3599
41157SOL     OW29562   4.606   5.092   4.126  0.0019  0.5335  0.5796
41157SOL    HW129563   4.598   5.014   4.071 -1.2255 -0.6762  2.3792
41157SOL    HW229564   4.636   5.160   4.066  0.6844 -1.1883 -1.1545
41158SOL     OW29565  10.377   6.961   6.428 -0.2041 -0.2414 -0.6481
41158SOL    HW129566  10.449   7.013   6.462 -2.1539  1.6403  0.8633
41158SOL    HW229567  10.366   6.991   6.338 -0.7268  1.4049 -0.0700
41159SOL     OW29568   4.048   2.559   4.112  0.4690  0.4773  0.1768
41159SOL    HW129569   4.132   2.583   4.151  0.9676 -0.0830 -0.5229
41159SOL    HW229570   3.986   2.624   4.146  1.1673  0.8513  0.7585
41160SOL     OW29571   3.145   6.647  10.783 -0.4237  0.1588 -0.1426
41160SOL    HW129572   3.159   6.640  10.688 -2.2167 -2.5892 -0.3281
41160SOL    HW229573   3.215   6.594  10.821 -1.7865 -1.8297 -0.2397
41161SOL     OW29574   2.658   4.417   3.759  0.2996  0.5732 -0.1762
41161SOL    HW129575   2.646   4.412   3.664 -0.2016  0.9315 -0.1357
41161SOL    HW229576   2.697   4.504   3.773  1.6870 -0.0241 -0.1744
41162SOL     OW29577   8.328   2.903   0.663 -0.0933 -0.1996  0.4025
41162SOL    HW129578   8.348   2.899   0.756  0.0190 -0.4404  0.3679
41162SOL    HW229579   8.235   2.881   0.657  0.0383 -0.7715  0.4036
41163SOL     OW29580   4.806   5.149   9.077 -0.6903  0.4370  0.0152
41163SOL    HW129581   4.760   5.219   9.031  0.6008  0.9697 -0.5111
41163SOL    HW229582   4.864   5.195   9.138 -0.4848 -0.1934  0.3039
41164SOL     OW29583   1.963   2.403   5.679  0.1028  0.3050  0.4355
41164SOL    HW129584   1.900   2.455   5.728  1.5202 -0.0139  2.7884
41164SOL    HW229585   1.975   2.449   5.597 -1.7448  1.3880  0.7329
41165SOL     OW29586   6.641   3.067   4.272 -0.2888  0.1603 -0.0725
41165SOL    HW129587   6.657   3.015   4.351  0.2587 -0.0731 -0.3330
41165SOL    HW229588   6.621   3.002   4.204  0.3117  0.2917 -0.3795
41166SOL     OW29589   8.599   5.534   0.087  0.1487 -0.3447 -0.3525
41166SOL    HW129590   8.556   5.607   0.132  1.9379  0.4229  0.2156
41166SOL    HW229591   8.668   5.576   0.034  0.3976 -1.5257 -0.9946
41167SOL     OW29592   9.365   4.616   1.935 -0.7908 -0.3776  0.1260
41167SOL    HW129593   9.344   4.557   2.008  0.0857 -0.6477  0.1725
41167SOL    HW229594   9.337   4.702   1.965  0.6310 -0.2779  1.2850
41168SOL     OW29595   6.641   0.723   0.792  0.3646  0.0415 -0.3491
41168SOL    HW129596   6.651   0.732   0.886  1.3593 -1.0276 -0.3339
41168SOL    HW229597   6.703   0.786   0.755  2.0221 -1.4730 -0.2581
41169SOL     OW29598   3.458   5.209   5.269 -0.4954  0.4133  0.0872
41169SOL    HW129599   3.532   5.149   5.273  0.0667  1.0588 -0.3243
41169SOL    HW229600   3.396   5.176   5.334  1.1076  1.1043  2.0816
41170SOL     OW29601   1.549   6.581   8.709  0.5615  0.5828  0.0656
41170SOL    HW129602   1.620   6.585   8.773 -1.9284  4.5380  3.0089
41170SOL    HW229603   1.472   6.555   8.759 -1.0269  1.2126 -1.8913
41171SOL     OW29604   6.269   1.620   8.854 -0.0094  0.1780  0.0550
41171SOL    HW129605   6.269   1.697   8.910 -1.0337  0.1519  0.0961
41171SOL    HW229606   6.359   1.587   8.859  0.6209  1.7454 -0.5042
41172SOL     OW29607   5.696   3.929  10.331 -0.4510  0.4215 -0.3813
41172SOL    HW129608   5.637   3.929  10.256  1.9264  0.8415 -2.3887
41172SOL    HW229609   5.783   3.940  10.293  0.9361  0.0900  2.4255
41173SOL     OW29610   9.678   5.978   5.481  0.7850  0.2514 -0.5318
41173SOL    HW129611   9.643   5.942   5.400  0.9315 -1.3000  0.0634
41173SOL    HW229612   9.602   5.983   5.540  1.0388 -0.5081 -0.1321
41174SOL     OW29613   9.399   7.239   0.328  0.5023 -0.1733  0.2664
41174SOL    HW129614   9.482   7.286   0.338  0.3121  0.1845  0.1858
41174SOL    HW229615   9.424   7.154   0.293  1.3362 -1.8900  4.4828
41175SOL     OW29616   3.864   6.776   2.028  0.4308 -0.0346 -0.7470
41175SOL    HW129617   3.840   6.701   1.974 -2.1314 -0.0810  0.3413
41175SOL    HW229618   3.960   6.772   2.032  0.4216 -3.3002 -0.7041
41176SOL     OW29619  10.707   7.316   7.984 -0.2240 -0.6669  0.5334
41176SOL    HW129620  10.770   7.388   7.978  1.6023 -2.1486  1.2473
41176SOL    HW229621  10.743   7.248   7.928 -1.6463 -1.2584  0.3014
41177SOL     OW29622   4.798   1.977   0.802  0.2349 -0.5052  0.0502
41177SOL    HW129623   4.854   2.003   0.729  1.0319 -0.0856  0.7850
41177SOL    HW229624   4.710   2.003   0.776  0.8006  1.7209  0.1422
41178SOL     OW29625   0.277  10.872   8.555  0.5085  0.3304 -0.1918
41178SOL    HW129626   0.219  10.858   8.480  2.0466  1.1481 -1.5908
41178SOL    HW229627   0.218  10.903   8.625 -1.0200 -0.8371 -0.8963
41179SOL     OW29628  10.539   1.879   3.125 -0.7154 -0.7633  1.1157
41179SOL    HW129629  10.551   1.965   3.166  0.7705  0.0915 -0.9527
41179SOL    HW229630  10.609   1.825   3.162 -0.7657 -0.6674  1.3536
41180SOL     OW29631   6.210   3.831   7.932 -0.3789 -0.2647  0.2288
41180SOL    HW129632   6.141   3.888   7.967 -1.4406  0.3412 -2.6152
41180SOL    HW229633   6.290   3.881   7.945 -0.9736  0.7696  0.0508
41181SOL     OW29634   2.373   0.946   4.922 -0.3043  0.8044  0.8048
41181SOL    HW129635   2.379   1.037   4.952  0.6101  1.0759 -0.1404
41181SOL    HW229636   2.280   0.932   4.907 -0.2302  2.5393 -1.8158
41182SOL     OW29637   8.465   0.020  10.745 -0.1284  0.3326 -0.1337
41182SOL    HW129638   8.553   0.007  10.779 -1.0921  1.0623  2.9580
41182SOL    HW229639   8.420  -0.063  10.761  0.1639 -0.3633 -2.5583
41183SOL     OW29640   0.182   0.204   5.086 -0.0907  0.5775  0.4557
41183SOL    HW129641   0.232   0.241   5.013  3.8170 -3.6180  0.5593
41183SOL    HW229642   0.115   0.150   5.045  1.1325 -0.5908 -0.0497
41184SOL     OW29643   3.205  10.620  10.288  0.1231  0.5216  0.3372
41184SOL    HW129644   3.154  10.542  10.312 -0.4538  1.5282  2.7097
41184SOL    HW229645   3.150  10.693  10.317  0.9807  1.8112 -1.1741
41185SOL     OW29646   0.213   2.521   3.902 -0.5423  0.5995 -0.2069
41185SOL    HW129647   0.183   2.556   3.986  2.8094  0.9761  0.9792
41185SOL    HW229648   0.189   2.428   3.906  1.0821  0.1902  2.0327
41186SOL     OW29649   5.334   3.012   4.833  0.7358  0.4197  0.0456
41186SOL    HW129650   5.378   2.928   4.818 -0.2117 -0.4773  1.9778
41186SOL    HW229651   5.288   3.030   4.750  2.6788  0.1610 -1.1440
41187SOL     OW29652   6.341   7.417   8.597 -0.0814  0.1299  0.5330
41187SOL    HW129653   6.427   7.378   8.609 -0.3575 -0.2159  1.5687
41187SOL    HW229654   6.330   7.425   8.503  1.4263  0.9804  0.4054
41188SOL     OW29655   3.962   3.300   5.406  0.2340 -0.6242  0.5804
41188SOL    HW129656   3.883   3.299   5.353 -0.9473  0.5837  2.2083
41188SOL    HW229657   3.957   3.382   5.456  1.1416 -1.7589  2.7011
41189SOL     OW29658  10.043   2.135  10.050 -0.3254 -0.2866  0.4530
41189SOL    HW129659   9.976   2.151  10.116 -0.4410  1.7987 -0.0926
41189SOL    HW229660   9.994   2.118   9.969 -0.2825  2.0087 -0.1213
41190SOL     OW29661   4.305   6.116   2.424 -0.0185 -0.0515  0.1892
41190SOL    HW129662   4.308   6.021   2.416  0.8086 -0.0288  0.0990
41190SOL    HW229663   4.326   6.133   2.516  0.5127  0.0624  0.0509
41191SOL     OW29664   0.573   1.157   3.682  0.4119  0.5793 -0.2777
41191SOL    HW129665   0.608   1.078   3.724 -1.8410 -1.8256 -2.5461
41191SOL    HW229666   0.527   1.203   3.753  1.1687 -0.5213  0.9663
41192SOL     OW29667   3.412   0.319   1.216 -0.8098  0.0263 -0.5198
41192SOL    HW129668   3.385   0.340   1.127 -2.4385  1.2531  0.2027
41192SOL    HW229669   3.490   0.373   1.230 -0.9663  0.3825 -0.9734
41193SOL     OW29670   3.292   2.918  10.832  0.0309 -0.1622 -0.5689
41193SOL    HW129671   3.384   2.913  10.856  0.1337  0.2650 -0.8582
41193SOL    HW229672   3.250   2.966  10.904  0.4735  1.8097 -1.5466
41194SOL     OW29673   1.759  10.640   9.482 -0.3986  0.2766 -0.3789
41194SOL    HW129674   1.816  10.609   9.412 -0.7317  3.3665 -2.1864
41194SOL    HW229675   1.812  10.634   9.561  0.6411 -1.5309 -1.1404
41195SOL     OW29676   4.495   8.387   5.263 -0.3610 -0.5012  0.0853
41195SOL    HW129677   4.422   8.449   5.262 -0.8153 -0.9979  0.9509
41195SOL    HW229678   4.524   8.382   5.172 -1.0320  0.1344 -0.1726
41196SOL     OW29679   7.864   2.502   8.221  0.2591 -0.5416 -0.2102
41196SOL    HW129680   7.922   2.567   8.262  0.9980 -0.8556 -0.7419
41196SOL    HW229681   7.921   2.451   8.164 -0.6849 -0.3577 -1.3626
41197SOL     OW29682   1.833   4.690   0.434 -0.0613 -0.0395 -0.3755
41197SOL    HW129683   1.805   4.776   0.465 -0.2517  0.1559 -1.0766
41197SOL    HW229684   1.923   4.681   0.465 -0.2487  0.1415  0.2359
41198SOL     OW29685   9.299   9.598   3.132  0.6013  0.4710  0.4554
41198SOL    HW129686   9.351   9.566   3.059 -0.1242 -0.2549  0.2347
41198SOL    HW229687   9.285   9.521   3.187  0.3699  0.8080  0.8809
41199SOL     OW29688   6.479   0.697   7.074  0.1070 -0.1469  0.0121
41199SOL    HW129689   6.443   0.609   7.071 -0.7620  0.1691  0.6623
41199SOL    HW229690   6.566   0.687   7.112 -1.8950 -0.2466  5.3704
41200SOL     OW29691  10.355   7.787   2.523 -0.2887 -0.5795  0.0455
41200SOL    HW129692  10.269   7.752   2.502 -0.2836 -1.2634  1.0709
41200SOL    HW229693  10.337   7.860   2.582 -0.1398 -1.7479  1.6087
41201SOL     OW29694   3.684   7.712   4.174 -0.6710 -0.3605 -0.3753
41201SOL    HW129695   3.643   7.631   4.205  0.3355 -0.7546 -0.0308
41201SOL    HW229696   3.745   7.683   4.106  1.7836 -0.3119  1.6247
41202SOL     OW29697   2.844   3.687   2.347 -0.3101 -0.5245 -0.2354
41202SOL    HW129698   2.898   3.710   2.423 -2.7482  0.3826  1.3285
41202SOL    HW229699   2.816   3.770   2.311  0.3352 -0.9641 -1.8394
41203SOL     OW29700   3.466   1.320   5.737  0.4849 -0.2767  0.0481
41203SOL    HW129701   3.517   1.281   5.666  0.7384 -0.3995  0.2971
41203SOL    HW229702   3.488   1.413   5.735  0.1229 -0.2010 -0.3435
41204SOL     OW29703   6.600   3.528   0.270 -0.5372  0.0292 -0.0624
41204SOL    HW129704   6.680   3.578   0.250 -0.3167  0.4575  1.7260
41204SOL    HW229705   6.565   3.504   0.184  1.2467  0.2528 -0.9054
41205SOL     OW29706   7.009   6.073   5.571 -0.3247  0.4285 -0.3733
41205SOL    HW129707   7.024   6.000   5.511  0.5123 -0.2594  0.6445
41205SOL    HW229708   7.026   6.151   5.518 -2.1108 -0.0231 -1.7357
41206SOL     OW29709   5.672   1.678   3.787  0.2945  0.3989 -1.1357
41206SOL    HW129710   5.603   1.711   3.844  0.3796  1.1892 -1.4701
41206SOL    HW229711   5.645   1.590   3.763  1.4892 -1.0370  2.1948
41207SOL     OW29712   4.162   6.804   8.124  0.4274 -0.8644 -0.1698
41207SOL    HW129713   4.184   6.797   8.217 -0.8793 -1.4400  0.1088
41207SOL    HW229714   4.163   6.898   8.107 -2.0678 -0.5325  1.1443
41208SOL     OW29715   5.820   8.217   3.434 -0.0636 -0.6454  0.0423
41208SOL    HW129716   5.835   8.127   3.462  0.9779 -0.3068  0.6337
41208SOL    HW229717   5.725   8.225   3.427 -0.3838 -0.9897  2.7795
41209SOL     OW29718   2.521   2.989   2.070 -0.3928 -0.0739  0.3841
41209SOL    HW129719   2.462   2.926   2.113 -0.1106 -0.2514  0.5126
41209SOL    HW229720   2.481   3.074   2.087 -1.0488 -0.2547 -0.2160
41210SOL     OW29721   5.757   7.407   6.682 -0.3432 -0.0989 -0.6847
41210SOL    HW129722   5.745   7.491   6.638  0.6473  0.9294  0.8607
41210SOL    HW229723   5.691   7.407   6.751 -2.3724 -2.0136 -2.4903
41211SOL     OW29724   7.359   2.417   1.415 -0.4132 -0.2819 -0.2523
41211SOL    HW129725   7.299   2.424   1.490  0.0710 -1.3309  0.2554
41211SOL    HW229726   7.343   2.329   1.381  1.7487 -1.1119  0.7021
41212SOL     OW29727   8.092   1.961   3.447 -0.3790  0.4774  0.0432
41212SOL    HW129728   8.022   1.912   3.402  0.7089  0.1277 -1.3117
41212SOL    HW229729   8.171   1.943   3.396  1.4974 -1.9804  3.4057
41213SOL     OW29730   6.313   5.745   2.771  0.5508  0.4363 -0.4981
41213SOL    HW129731   6.283   5.662   2.807 -0.4954  1.0329  0.0658
41213SOL    HW229732   6.406   5.733   2.756  0.1940 -1.2493 -1.6141
41214SOL     OW29733   8.891   0.282   4.242  0.3878 -0.0722  0.6903
41214SOL    HW129734   8.967   0.227   4.263  0.2910 -0.7212 -0.5604
41214SOL    HW229735   8.880   0.273   4.147  0.9663  2.8851  0.2234
41215SOL     OW29736   6.410   7.542   2.529 -0.1125 -0.0526 -0.5921
41215SOL    HW129737   6.403   7.466   2.472  0.1155 -0.4459 -0.1003
41215SOL    HW229738   6.344   7.528   2.597  0.2022 -0.0045 -0.2767
41216SOL     OW29739   0.513   2.704   7.294  0.3252  0.0960 -0.8610
41216SOL    HW129740   0.545   2.705   7.204  0.7964  2.0757 -0.7239
41216SOL    HW229741   0.566   2.769   7.339 -0.7142  0.0137  0.5693
41217SOL     OW29742   6.097   5.745   5.751 -0.3133 -0.0365 -1.0340
41217SOL    HW129743   6.170   5.806   5.744 -0.4036  0.4940  1.7252
41217SOL    HW229744   6.135   5.660   5.732  0.9155  0.3136 -0.2497
41218SOL     OW29745   6.289   2.563   0.460 -0.0424  0.6928  0.0794
41218SOL    HW129746   6.196   2.540   0.462 -0.0886  0.8541 -0.1454
41218SOL    HW229747   6.294   2.637   0.400  0.2433  0.6355  0.0308
41219SOL     OW29748   4.709   1.390  10.598  0.1240 -0.1378  0.1988
41219SOL    HW129749   4.675   1.430  10.519 -1.3037 -0.2606  0.7320
41219SOL    HW229750   4.644   1.323  10.622 -0.0226  0.5955  2.0448
41220SOL     OW29751   3.910   0.570   3.951  0.1163  0.3494 -0.4518
41220SOL    HW129752   3.957   0.514   3.889 -0.4368 -0.0611 -0.5095
41220SOL    HW229753   3.817   0.557   3.930 -0.1465 -0.6326  1.1566
41221SOL     OW29754   4.688   4.044   0.982 -0.1837 -0.8753  0.2259
41221SOL    HW129755   4.734   4.000   1.053  0.7207 -2.1908 -1.1124
41221SOL    HW229756   4.616   3.985   0.960 -0.3174 -0.5932 -0.0992
41222SOL     OW29757   2.621   6.416   1.441 -0.0449 -0.4710 -0.7111
41222SOL    HW129758   2.599   6.442   1.531 -0.5879  0.1911 -1.0268
41222SOL    HW229759   2.716   6.415   1.439 -0.0298 -0.2888 -0.1803
41223SOL     OW29760   3.971   9.768   9.639 -0.4536  0.4586  0.7743
41223SOL    HW129761   4.026   9.833   9.683 -0.9829  0.7654  0.9917
41223SOL    HW229762   4.019   9.746   9.560 -0.8393  2.0640  0.0408
41224SOL     OW29763   0.956   3.867   0.993 -0.0218  0.0089 -0.3071
41224SOL    HW129764   0.999   3.845   1.075  0.6487 -1.7967 -1.0907
41224SOL    HW229765   0.923   3.956   1.006  2.1457  0.6860  1.0667
41225SOL     OW29766   2.492   7.239   7.351  0.6542 -0.7812  0.0315
41225SOL    HW129767   2.574   7.204   7.315 -1.1085 -3.1469 -2.0461
41225SOL    HW229768   2.487   7.328   7.317  1.0037 -1.6066 -2.3700
41226SOL     OW29769   8.819  10.203   9.753 -0.0355  0.3431 -0.5801
41226SOL    HW129770   8.827  10.215   9.847 -1.5692 -1.8465 -0.1234
41226SOL    HW229771   8.906  10.224   9.719  0.8412  0.1355  1.4251
41227SOL     OW29772  10.380   6.502   3.328  0.2327 -0.2417 -0.4464
41227SOL    HW129773  10.350   6.592   3.329 -2.2682 -0.8696 -3.3515
41227SOL    HW229774  10.343   6.465   3.247  2.9235 -3.2861 -0.5115
41228SOL     OW29775   0.527   0.746   6.136  0.2808 -0.6928 -0.0379
41228SOL    HW129776   0.569   0.798   6.068  0.2221 -2.4594 -1.5059
41228SOL    HW229777   0.438   0.781   6.142 -0.0247 -1.0935 -1.6079
41229SOL     OW29778   5.243   5.969   0.338 -0.2121  0.3845 -0.1629
41229SOL    HW129779   5.223   5.882   0.374  0.4631 -0.6285 -2.1045
41229SOL    HW229780   5.307   6.006   0.398  1.5740 -1.6257 -0.6865
41230SOL     OW29781   8.471   7.707   7.454  0.0920  0.2512 -0.0834
41230SOL    HW129782   8.467   7.798   7.484  2.6453  0.2813  0.3838
41230SOL    HW229783   8.554   7.674   7.488 -1.0023 -2.4423  0.1800
41231SOL     OW29784  10.028   8.560   5.817 -0.0401  0.4188 -0.0336
41231SOL    HW129785   9.965   8.573   5.888  0.0532  0.6582  0.0048
41231SOL    HW229786  10.092   8.499   5.854  0.3808  1.0695  0.3268
41232SOL     OW29787   9.836   4.349   9.718 -0.8878 -0.6796  0.2670
41232SOL    HW129788   9.754   4.301   9.728 -1.7585  0.9736  1.3320
41232SOL    HW229789   9.812   4.441   9.720  0.9333 -0.1453 -0.0257
41233SOL     OW29790   1.207   9.105   5.167 -0.3039  0.1114 -0.3976
41233SOL    HW129791   1.127   9.102   5.218 -1.1074  2.1436 -1.4351
41233SOL    HW229792   1.257   9.177   5.204  0.1298  0.1484 -1.0375
41234SOL     OW29793   3.849   0.152   6.576  0.4452 -0.0510  0.1801
41234SOL    HW129794   3.813   0.092   6.511 -0.4863 -2.6702  2.9206
41234SOL    HW229795   3.777   0.212   6.597  0.5148  0.3159 -0.5875
41235SOL     OW29796   0.805   3.396   2.829 -0.1003  0.2238 -0.0622
41235SOL    HW129797   0.819   3.334   2.757  0.2720  0.6825 -0.3896
41235SOL    HW229798   0.852   3.357   2.903  1.7505  1.0256 -0.7681
41236SOL     OW29799   1.064   3.903   8.852  0.3237 -0.0393  0.2512
41236SOL    HW129800   0.970   3.895   8.832  0.5354 -0.3891 -0.6742
41236SOL    HW229801   1.102   3.936   8.770  0.7170  2.3141  1.3012
41237SOL     OW29802   2.405   2.957   8.882 -0.3173  0.3318 -0.7590
41237SOL    HW129803   2.351   3.036   8.886 -1.9332 -0.7363 -0.9383
41237SOL    HW229804   2.492   2.987   8.911 -0.7708  2.2511 -1.2325
41238SOL     OW29805   4.651   9.973   6.210 -0.2479  0.0076  0.0399
41238SOL    HW129806   4.579   9.930   6.256  0.9638 -0.8983  1.1482
41238SOL    HW229807   4.650  10.062   6.243 -0.1892 -0.2928  0.8703
41239SOL     OW29808   4.362   9.049   6.087  0.2229  0.2159 -0.4749
41239SOL    HW129809   4.357   9.051   6.182 -0.0688 -0.8010 -0.4529
41239SOL    HW229810   4.451   9.020   6.068  0.7235  1.7347 -0.5512
41240SOL     OW29811   0.749   5.488   8.410 -0.1754  0.0148 -0.3257
41240SOL    HW129812   0.758   5.403   8.453  0.4166 -0.2005 -0.8595
41240SOL    HW229813   0.680   5.533   8.459 -0.6541 -0.8629 -0.1863
41241SOL     OW29814   8.189   5.940   9.661  0.1536 -0.0117  0.2343
41241SOL    HW129815   8.270   5.889   9.654 -0.7586 -1.8209  1.8027
41241SOL    HW229816   8.198   6.009   9.595  2.8843 -0.2272  0.2750
41242SOL     OW29817   2.398  10.762  10.208 -0.4576  0.3086  0.0159
41242SOL    HW129818   2.432  10.674  10.194 -2.4261 -0.6699  0.9417
41242SOL    HW229819   2.403  10.804  10.122 -0.0538 -0.9223 -0.5815
41243SOL     OW29820   6.406   0.680   9.846  0.2081 -0.8559  0.6113
41243SOL    HW129821   6.457   0.740   9.792 -1.8579  1.7775  1.3605
41243SOL    HW229822   6.345   0.639   9.786  0.6076 -1.0423  0.3302
41244SOL     OW29823   9.271   1.830   7.750  0.2097  0.5343  0.0332
41244SOL    HW129824   9.224   1.749   7.769  1.2417  0.1931  1.2469
41244SOL    HW229825   9.250   1.888   7.823  0.1185  1.0941 -0.4252
41245SOL     OW29826   9.427   3.053  10.194  0.0067 -0.2324 -0.4751
41245SOL    HW129827   9.436   3.004  10.112  1.9634 -0.9076  0.0926
41245SOL    HW229828   9.419   3.144  10.166 -1.5751 -0.6364 -1.4694
41246SOL     OW29829   0.542   3.997   7.042 -0.1222 -0.6959  0.1818
41246SOL    HW129830   0.464   3.942   7.038 -1.6508  1.3847 -2.7547
41246SOL    HW229831   0.511   4.082   7.072  0.9514  0.1880 -1.0466
41247SOL     OW29832   1.446   5.659  10.218 -0.1741 -0.1392 -0.1896
41247SOL    HW129833   1.512   5.724  10.240 -0.6558  0.7439 -1.2604
41247SOL    HW229834   1.402   5.640  10.301  0.4893  0.3038  0.2759
41248SOL     OW29835   7.863   1.560   9.029 -0.4750  0.4942 -0.5699
41248SOL    HW129836   7.906   1.626   9.083 -2.4370  0.5890  1.0204
41248SOL    HW229837   7.922   1.486   9.029 -0.5017  0.3831  2.0468
41249SOL     OW29838   7.894   0.928   0.116 -0.4261  0.3228  0.2209
41249SOL    HW129839   7.970   0.930   0.058 -1.0477 -0.9909 -0.7025
41249SOL    HW229840   7.880   0.834   0.133 -1.4036  0.5846  0.9416
41250SOL     OW29841   4.117   2.869   1.022 -0.1998 -0.3449 -0.6740
41250SOL    HW129842   4.109   2.954   1.066  0.9556  0.5232 -2.0333
41250SOL    HW229843   4.174   2.818   1.080  0.2665  0.3171 -0.5359
41251SOL     OW29844   1.366   3.777   7.842  0.0298 -0.4258 -0.1149
41251SOL    HW129845   1.284   3.826   7.847 -0.5599 -1.4819  2.3096
41251SOL    HW229846   1.353   3.714   7.771 -0.8656  0.0828 -0.4192
41252SOL     OW29847   7.563   5.207   9.932  0.4981  0.6417  0.3794
41252SOL    HW129848   7.540   5.288   9.978 -1.3503 -0.0737  0.8018
41252SOL    HW229849   7.613   5.157   9.997  0.8597  1.0508  0.4247
41253SOL     OW29850   4.646  10.756   5.145  0.5120  0.0849  0.0074
41253SOL    HW129851   4.675  10.701   5.073  0.4833  0.6156 -0.4130
41253SOL    HW229852   4.682  10.842   5.125  1.6659 -0.0506  1.3255
41254SOL     OW29853   3.774   8.143   2.418  0.2002  0.6860  0.4873
41254SOL    HW129854   3.869   8.141   2.413  0.1299  0.2161 -0.9573
41254SOL    HW229855   3.746   8.192   2.341 -0.7128  1.7753  1.4571
41255SOL     OW29856   2.458   6.284   0.098 -0.1083 -0.6094  0.2905
41255SOL    HW129857   2.475   6.335   0.018 -1.2346 -1.4481 -0.5132
41255SOL    HW229858   2.483   6.343   0.169 -0.5451  0.7405 -0.6281
41256SOL     OW29859   5.524   8.856   0.440 -0.5179 -0.1087 -0.4591
41256SOL    HW129860   5.496   8.814   0.521 -1.4546 -0.4272 -0.9310
41256SOL    HW229861   5.541   8.783   0.380 -0.0403  0.1296 -0.6215
41257SOL     OW29862   9.655  10.845   2.921  0.0412  0.0155  0.3823
41257SOL    HW129863   9.693  10.759   2.933  0.1828  0.0679  0.3123
41257SOL    HW229864   9.639  10.851   2.826 -1.3401 -0.5123  0.5634
41258SOL     OW29865  10.292   4.988   0.358  0.6481  0.2544  0.2524
41258SOL    HW129866  10.203   5.022   0.357  0.5201 -0.0976 -1.0868
41258SOL    HW229867  10.320   4.989   0.267  1.9238  0.1053  0.6204
41259SOL     OW29868   2.845   7.285   2.488  0.1549 -0.4848  0.2583
41259SOL    HW129869   2.813   7.375   2.482 -1.4692 -1.0554 -0.2472
41259SOL    HW229870   2.925   7.291   2.540 -1.3910  0.9052  2.6724
41260SOL     OW29871   8.302   8.708   9.640  0.3449 -0.0441  0.5829
41260SOL    HW129872   8.309   8.662   9.557 -2.6636  0.9512 -0.3742
41260SOL    HW229873   8.306   8.639   9.706 -0.6705 -1.3043 -0.6114
41261SOL     OW29874   6.838   6.581   5.038  0.1952  0.3509  0.3651
41261SOL    HW129875   6.815   6.490   5.023  0.8830  0.3682 -0.8909
41261SOL    HW229876   6.917   6.577   5.092  0.9197  0.1606 -0.6831
41262SOL     OW29877   5.616   1.611   0.118  0.5213 -0.3304  0.8381
41262SOL    HW129878   5.668   1.629   0.196  0.7475  1.3260  0.3396
41262SOL    HW229879   5.529   1.645   0.139  0.6779  0.4533  0.2531
41263SOL     OW29880   6.316   3.508   0.606  0.1713 -0.2973  0.2390
41263SOL    HW129881   6.267   3.468   0.533  0.9249  0.0529 -0.4795
41263SOL    HW229882   6.259   3.576   0.640 -0.4656 -0.9147  0.4185
41264SOL     OW29883   6.785   2.788   3.639 -0.6751  0.3990 -0.0586
41264SOL    HW129884   6.731   2.735   3.697  0.3683 -0.8077 -0.1343
41264SOL    HW229885   6.769   2.753   3.551 -2.1224  2.1068 -0.5258
41265SOL     OW29886   1.486   8.686   1.540  0.1903  0.7024  0.3098
41265SOL    HW129887   1.518   8.683   1.630 -0.3881 -1.6774  0.4859
41265SOL    HW229888   1.397   8.650   1.544  1.0863 -2.0738 -1.5122
41266SOL     OW29889   5.167   3.807   0.495 -0.2903  0.4716  0.1851
41266SOL    HW129890   5.248   3.821   0.543 -0.3051  1.9474 -0.1719
41266SOL    HW229891   5.106   3.870   0.533 -0.0328  2.3888 -2.3167
41267SOL     OW29892   3.238   2.542   7.721 -0.3646 -0.0667  0.2170
41267SOL    HW129893   3.212   2.633   7.730 -0.9333 -0.2491  0.5408
41267SOL    HW229894   3.295   2.525   7.796 -0.7906 -0.1431  0.5348
41268SOL     OW29895   1.949  10.476   6.549 -0.4151  0.1013 -0.1086
41268SOL    HW129896   1.952  10.385   6.579 -1.6704 -0.1050 -0.5280
41268SOL    HW229897   2.000  10.477   6.468 -1.1173 -0.4420 -0.5721
41269SOL     OW29898  10.497   6.439   0.040  0.3898 -0.1861 -0.3480
41269SOL    HW129899  10.504   6.353   0.082 -0.5203 -0.3870 -0.5865
41269SOL    HW229900  10.567   6.439  -0.026  0.3236 -0.7868 -0.4275
41270SOL     OW29901   9.445   8.630   0.800  0.1483  0.2007  0.5237
41270SOL    HW129902   9.518   8.571   0.817 -1.2633 -1.5244  0.8971
41270SOL    HW229903   9.414   8.655   0.887 -2.6621 -3.0110  0.6763
41271SOL     OW29904   7.393   8.680   9.095  0.5433 -0.4211  0.0680
41271SOL    HW129905   7.373   8.672   9.188  1.7834 -2.9194  0.2095
41271SOL    HW229906   7.473   8.733   9.093  1.4080 -1.6626  0.5927
41272SOL     OW29907   5.834   9.519   2.666 -0.0980 -0.1069 -0.0611
41272SOL    HW129908   5.846   9.607   2.631 -0.4262 -0.0678 -0.0714
41272SOL    HW229909   5.922   9.481   2.664 -0.2722 -0.5377 -2.0859
41273SOL     OW29910   3.228   8.891   1.010  0.3384 -0.5789 -0.0463
41273SOL    HW129911   3.174   8.955   1.057  1.3888 -0.2631  0.7613
41273SOL    HW229912   3.182   8.879   0.927  0.7907  2.2902 -0.8477
41274SOL     OW29913   8.040   9.590   3.975  0.1889  0.5896  0.1634
41274SOL    HW129914   8.095   9.550   4.043  0.6667  0.3213 -0.3716
41274SOL    HW229915   7.960   9.615   4.021  1.0492  1.7051  1.1451
41275SOL     OW29916   1.857   8.831   0.860 -0.1887  0.2267 -0.1721
41275SOL    HW129917   1.928   8.798   0.914 -0.5330  0.4618  0.4307
41275SOL    HW229918   1.840   8.919   0.893 -0.8244  0.1353 -0.2392
41276SOL     OW29919   1.025   5.704   6.358 -0.5438  0.3467 -0.2435
41276SOL    HW129920   0.975   5.673   6.433  1.7793  2.5608  2.4417
41276SOL    HW229921   1.115   5.713   6.390  0.9454 -0.0129 -3.7789
41277SOL     OW29922   6.754   2.407   6.110 -0.3735  0.5915  0.6546
41277SOL    HW129923   6.668   2.449   6.102 -0.3006  1.0122  1.8102
41277SOL    HW229924   6.737   2.328   6.162 -0.0989  0.5441  0.6737
41278SOL     OW29925   5.814   4.455   5.099 -0.5724  0.0150  0.0552
41278SOL    HW129926   5.775   4.372   5.074  0.5378 -1.5021  2.9361
41278SOL    HW229927   5.790   4.467   5.191  1.6494  1.3855  0.5441
41279SOL     OW29928   5.398  10.214   3.366  0.0384 -0.1846 -0.0760
41279SOL    HW129929   5.325  10.209   3.304  0.0533  0.4154 -0.1502
41279SOL    HW229930   5.405  10.126   3.402  0.6904 -0.8252 -1.6594
41280SOL     OW29931   3.702   6.108   7.461  0.3887 -0.1982  0.5220
41280SOL    HW129932   3.795   6.114   7.482  0.1620  0.9071  1.3256
41280SOL    HW229933   3.661   6.175   7.516 -0.9849 -1.1856  0.7447
41281SOL     OW29934   4.844   5.732   7.806 -0.3802 -0.4414 -0.1489
41281SOL    HW129935   4.788   5.742   7.883  2.6881 -0.2731  2.2058
41281SOL    HW229936   4.836   5.640   7.782 -2.5693 -0.1775 -0.7487
41282SOL     OW29937   5.006   4.051   7.063 -0.2306 -0.2608  0.4027
41282SOL    HW129938   5.060   4.097   6.998 -1.1325 -2.2406 -1.9311
41282SOL    HW229939   5.035   3.960   7.057 -1.5360 -0.7819  1.5522
41283SOL     OW29940   6.264   9.342   8.327  0.1118  0.0122  0.1394
41283SOL    HW129941   6.179   9.369   8.363 -0.1172 -1.3697  0.7052
41283SOL    HW229942   6.296   9.419   8.280 -1.0736  0.8237  0.6152
41284SOL     OW29943   9.936   7.338  10.315 -0.2821 -0.0511 -0.6520
41284SOL    HW129944   9.911   7.402  10.248  0.1060  0.0198 -0.7300
41284SOL    HW229945  10.026   7.314  10.292  0.5232  1.2952  0.8540
41285SOL     OW29946   7.526   8.590   5.748 -0.6848  0.0300  0.0774
41285SOL    HW129947   7.538   8.660   5.683 -1.2649  1.8477  1.8170
41285SOL    HW229948   7.613   8.553   5.760  0.1180  1.9698  0.6719
41286SOL     OW29949   0.441   9.964  10.922  0.2467 -0.4912  0.6309
41286SOL    HW129950   0.448   9.893  10.987  0.2474  0.5023  1.7533
41286SOL    HW229951   0.362  10.011  10.947 -0.8331 -1.2095 -1.2808
41287SOL     OW29952   2.454   1.881   3.725  0.3922  0.3480  0.4596
41287SOL    HW129953   2.448   1.910   3.816  1.0106  0.2130  0.5462
41287SOL    HW229954   2.519   1.939   3.686  0.6584 -0.0624  0.2904
41288SOL     OW29955   1.223   7.515   9.827  0.9871 -0.0873 -0.2224
41288SOL    HW129956   1.246   7.433   9.871  0.7615  0.2450  0.5226
41288SOL    HW229957   1.295   7.574   9.849  0.2554  0.4661  0.7766
41289SOL     OW29958  10.683   8.491   4.456  0.0619  0.0451  0.7717
41289SOL    HW129959  10.675   8.526   4.544 -2.1943  0.8965  0.2929
41289SOL    HW229960  10.777   8.494   4.437  0.5292  0.2710  2.9401
41290SOL     OW29961   7.983   6.565   5.857 -0.3339  0.4098 -0.3255
41290SOL    HW129962   7.978   6.639   5.918  0.7832  0.2509 -0.0243
41290SOL    HW229963   8.051   6.589   5.795 -1.2844  0.4523 -1.3945
41291SOL     OW29964   8.202   6.438   0.775 -0.3248 -0.1775  0.5635
41291SOL    HW129965   8.252   6.491   0.838  0.8360 -1.5250  0.8266
41291SOL    HW229966   8.115   6.432   0.813 -0.4105  1.2937  0.6603
41292SOL     OW29967   7.247   8.759   0.972 -0.0372  0.0501 -0.1910
41292SOL    HW129968   7.248   8.753   0.877  0.3116  1.3327 -0.2847
41292SOL    HW229969   7.236   8.852   0.991  1.7944  0.0905  1.0023
41293SOL     OW29970   6.874   9.484   9.607  0.0969 -0.5011  0.5910
41293SOL    HW129971   6.913   9.424   9.670  0.8872 -0.4532  0.1540
41293SOL    HW229972   6.787   9.447   9.590  0.7151 -1.7579  0.0277
41294SOL     OW29973   7.292   6.334   5.528  0.2627  0.0583 -0.1469
41294SOL    HW129974   7.321   6.243   5.516 -1.1029 -0.4028 -0.1674
41294SOL    HW229975   7.287   6.345   5.623 -0.2476 -0.1280 -0.1483
41295SOL     OW29976   3.564  10.102  10.445  0.1972  0.0938  0.5869
41295SOL    HW129977   3.575  10.195  10.463  1.0669 -0.1032  1.0993
41295SOL    HW229978   3.633  10.059  10.494  0.2941 -0.7709 -0.2683
41296SOL     OW29979   6.937   3.976   3.905 -0.3242  0.0300 -0.3343
41296SOL    HW129980   6.993   3.985   3.827 -0.1997  0.9421 -0.1508
41296SOL    HW229981   6.958   3.889   3.939  0.0050 -0.1710 -1.0262
41297SOL     OW29982   9.412  10.811   8.524 -0.2563  0.6051 -0.1308
41297SOL    HW129983   9.379  10.759   8.451 -2.1877 -0.5942  1.4905
41297SOL    HW229984   9.492  10.765   8.551 -0.6452 -0.1505 -0.2257
41298SOL     OW29985   3.971   1.545   2.082 -0.1214  0.5079 -0.0096
41298SOL    HW129986   3.977   1.456   2.116  2.0623  0.7617  0.4417
41298SOL    HW229987   3.951   1.599   2.159  0.5092  0.5927  0.1070
41299SOL     OW29988   1.945   7.516   3.316 -0.3057  0.7707  0.8943
41299SOL    HW129989   1.909   7.604   3.301  0.1235  0.8758  0.4458
41299SOL    HW229990   1.868   7.460   3.326 -0.5964  1.0544  0.2882
41300SOL     OW29991   6.155   2.372   8.689 -0.0338  0.0698  0.3203
41300SOL    HW129992   6.062   2.378   8.666 -0.1982 -2.5713 -0.0060
41300SOL    HW229993   6.198   2.349   8.606  0.9444  1.2655  0.4663
41301SOL     OW29994   5.895   4.040   8.312 -0.4660 -0.4240 -1.0124
41301SOL    HW129995   5.803   4.064   8.302 -0.1314  0.8411 -1.1777
41301SOL    HW229996   5.926   4.095   8.383 -0.3409 -2.3598  0.5214
41302SOL     OW29997   5.932   9.146   4.443  0.0282 -0.0981 -0.2909
41302SOL    HW129998   5.985   9.100   4.378  2.0347  0.9601  0.5026
41302SOL    HW229999   5.987   9.149   4.521 -1.4588  0.5630  0.7914
41303SOL     OW30000   9.106   2.476  10.003 -0.1461 -0.2919  0.5139
41303SOL    HW130001   9.110   2.564   9.966  0.2640 -0.5491 -0.0561
41303SOL    HW230002   9.193   2.462  10.042 -1.2648  0.9111  3.7880
41304SOL     OW30003   8.013   8.611   7.679  0.4081  0.1233 -0.2267
41304SOL    HW130004   8.008   8.698   7.638 -0.8291  0.6635  0.9532
41304SOL    HW230005   7.927   8.600   7.719  0.5876 -1.6298 -0.2696
41305SOL     OW30006   7.077   5.748   1.251  0.0126  1.4223 -0.3094
41305SOL    HW130007   6.988   5.741   1.287  0.0036  1.0709 -0.3968
41305SOL    HW230008   7.133   5.752   1.328 -0.0235  0.8781 -0.2503
41306SOL     OW30009   2.371   4.151   0.094 -0.4758 -0.2910  0.4076
41306SOL    HW130010   2.290   4.200   0.087  0.4978  1.2306 -0.9311
41306SOL    HW230011   2.397   4.160   0.186 -2.5144 -2.0542  1.2221
41307SOL     OW30012   9.492   7.372   5.976  0.2733  0.4893  0.5324
41307SOL    HW130013   9.507   7.287   5.935  1.7564  1.3900 -0.8855
41307SOL    HW230014   9.553   7.374   6.050  1.1785  0.8153 -0.2098
41308SOL     OW30015   4.180   2.403   9.141 -0.0157 -0.1358 -0.5488
41308SOL    HW130016   4.239   2.467   9.181 -1.7615  1.4814 -0.4022
41308SOL    HW230017   4.234   2.358   9.077  1.6845  0.3958  0.4431
41309SOL     OW30018   1.915  10.243   6.066  0.1422 -0.0911 -0.7281
41309SOL    HW130019   1.940  10.153   6.045 -1.1638 -0.7641  0.3872
41309SOL    HW230020   1.957  10.297   6.000  3.1915 -1.2393  0.1219
41310SOL     OW30021   6.070   3.913   7.652  0.0548 -0.1208  0.5322
41310SOL    HW130022   6.126   3.983   7.617  0.5240 -0.0978  1.2968
41310SOL    HW230023   6.065   3.931   7.745 -2.2445  0.5611  0.3147
41311SOL     OW30024   2.684   4.686   9.920  0.4874 -0.0705 -0.3341
41311SOL    HW130025   2.686   4.731  10.005 -0.2936 -0.0726 -0.3060
41311SOL    HW230026   2.692   4.593   9.943 -0.8679 -0.1631 -0.1632
41312SOL     OW30027   9.192   7.668  10.051 -0.2145 -0.0569  1.0058
41312SOL    HW130028   9.150   7.703  10.129  0.0782 -1.1882  1.6841
41312SOL    HW230029   9.253   7.602  10.083 -1.1052 -1.5748 -0.2562
41313SOL     OW30030   9.339   5.954   8.915 -0.1621  0.1559  0.2820
41313SOL    HW130031   9.365   5.956   9.007  0.0011  0.5046  0.2298
41313SOL    HW230032   9.260   6.008   8.912  0.4786  1.1065  0.0240
41314SOL     OW30033   8.907   8.173   0.799  0.4343  0.2210 -0.0450
41314SOL    HW130034   8.903   8.229   0.877  1.3559  1.5666 -0.9094
41314SOL    HW230035   8.986   8.121   0.811 -0.0067 -0.3548  0.4043
41315SOL     OW30036   2.179   6.019   5.480 -0.4550  0.2180 -0.3004
41315SOL    HW130037   2.172   5.981   5.567 -1.3851 -1.6905 -1.1291
41315SOL    HW230038   2.088   6.029   5.451 -0.2873 -2.5520 -2.3120
41316SOL     OW30039   9.820   2.444   5.153  0.5677 -0.2728 -0.0380
41316SOL    HW130040   9.895   2.384   5.159  0.7423  0.0053  0.7421
41316SOL    HW230041   9.744   2.389   5.169  0.7075 -0.3342  0.4217
41317SOL     OW30042   4.459   1.999   0.492  0.6116  0.0470 -0.1807
41317SOL    HW130043   4.458   1.934   0.562 -0.8607  0.0264 -0.1827
41317SOL    HW230044   4.514   1.960   0.424  1.2019 -0.3915  0.5377
41318SOL     OW30045   2.434   8.865   0.113 -0.5664 -0.0630  0.7997
41318SOL    HW130046   2.354   8.828   0.149 -1.0570  0.2299  0.0284
41318SOL    HW230047   2.462   8.930   0.178 -0.9174 -0.2097  1.0994
41319SOL     OW30048   3.580   5.225   2.026 -0.0569  0.1105 -0.1461
41319SOL    HW130049   3.500   5.200   1.979 -0.8930  0.9636  0.7596
41319SOL    HW230050   3.589   5.159   2.095  0.0602 -0.0286 -0.2952
41320SOL     OW30051  10.152   9.621   5.956 -0.1961  0.2651 -0.5507
41320SOL    HW130052  10.093   9.632   5.881  0.2572  2.0114 -0.7000
41320SOL    HW230053  10.100   9.649   6.032 -0.5892 -1.3071 -0.2159
41321SOL     OW30054   0.204   3.110   2.193  0.0740  0.3167  0.0775
41321SOL    HW130055   0.185   3.024   2.230 -0.5538 -1.4019 -3.8026
41321SOL    HW230056   0.130   3.164   2.218 -1.0631 -1.1748  0.0806
41322SOL     OW30057   4.407   3.290   7.940 -0.1723  0.5967 -0.3559
41322SOL    HW130058   4.311   3.280   7.938 -0.0082 -1.3240 -1.7265
41322SOL    HW230059   4.426   3.361   7.880 -0.7226  0.6802 -0.4331
41323SOL     OW30060   8.446   8.202   2.335  0.1883  0.3588  0.2881
41323SOL    HW130061   8.416   8.217   2.425  1.6794  0.8847  0.7230
41323SOL    HW230062   8.538   8.225   2.336  0.2704  0.2370 -1.3626
41324SOL     OW30063   7.809  10.404   1.842  0.2511 -0.1763  0.3996
41324SOL    HW130064   7.904  10.405   1.849  0.2577  1.0021  0.2614
41324SOL    HW230065   7.790  10.460   1.767 -0.5913  0.3796  1.0100
41325SOL     OW30066   1.312   8.503   2.635 -0.6482 -0.0864 -0.0518
41325SOL    HW130067   1.303   8.456   2.552 -0.2928 -1.0368  0.4309
41325SOL    HW230068   1.303   8.595   2.612 -1.1260 -0.3734 -1.0618
41326SOL     OW30069   2.716   2.571   6.765 -0.0596  0.4742 -0.0693
41326SOL    HW130070   2.651   2.500   6.767 -0.5749  0.8986 -0.8826
41326SOL    HW230071   2.743   2.582   6.856  0.3898 -1.0850  0.0218
41327SOL     OW30072   6.377   8.221   2.058 -0.3992 -0.1187  0.4126
41327SOL    HW130073   6.442   8.288   2.038 -0.1440 -0.0219  1.5039
41327SOL    HW230074   6.428   8.144   2.082 -0.6676  0.1003  1.7381
41328SOL     OW30075   1.850   0.203   0.738  0.7419  0.1090 -0.6043
41328SOL    HW130076   1.788   0.147   0.691  0.4049 -0.5663  0.6320
41328SOL    HW230077   1.804   0.287   0.746  0.3209 -0.1319 -0.4431
41329SOL     OW30078   3.449   2.408   4.868  0.1093  0.8948 -0.2996
41329SOL    HW130079   3.426   2.316   4.858  3.0399 -0.1551  1.3426
41329SOL    HW230080   3.365   2.454   4.872 -1.4387 -1.5926 -1.6985
41330SOL     OW30081   4.877   1.084   5.027 -0.4946 -0.6033  0.0538
41330SOL    HW130082   4.855   1.111   4.938  0.1043  1.8365  0.5848
41330SOL    HW230083   4.840   1.153   5.082  0.6741 -1.1529  1.5766
41331SOL     OW30084   2.821   0.562   0.002 -0.5099  0.0468 -0.1926
41331SOL    HW130085   2.749   0.592  -0.054 -0.3235  1.1521  0.1320
41331SOL    HW230086   2.782   0.496   0.058 -1.3193  0.7456  0.0823
41332SOL     OW30087   5.180   2.109   7.771 -0.1159  0.2655  0.4478
41332SOL    HW130088   5.099   2.107   7.720 -1.1209 -0.4434  2.0208
41332SOL    HW230089   5.191   2.201   7.795  0.0217  0.5015 -0.4664
41333SOL     OW30090   4.262   4.364   1.860  0.6543 -0.2390  0.0694
41333SOL    HW130091   4.229   4.452   1.877 -1.9699 -1.3604  1.3788
41333SOL    HW230092   4.304   4.370   1.774 -2.1921  1.6364 -1.3459
41334SOL     OW30093   6.460   6.820   4.313  0.0739  0.0513 -0.0343
41334SOL    HW130094   6.527   6.816   4.245  0.2976  1.2271  0.1069
41334SOL    HW230095   6.500   6.870   4.384  0.3474 -2.2781  1.5754
41335SOL     OW30096   2.312   0.004   3.648 -0.3745 -0.0899 -0.2743
41335SOL    HW130097   2.227   0.026   3.687 -0.2205 -0.5261  0.3249
41335SOL    HW230098   2.344  -0.069   3.700 -0.2744 -0.8693 -1.3977
41336SOL     OW30099   0.769   8.691  10.864  0.7736 -0.1796  0.6395
41336SOL    HW130100   0.747   8.764  10.807 -0.0391  0.6628  1.9514
41336SOL    HW230101   0.719   8.617  10.829 -1.5945  0.8817  1.5421
41337SOL     OW30102   8.932   9.288   3.497 -0.4071  0.8435 -0.3321
41337SOL    HW130103   8.970   9.319   3.579  0.0898  2.2058 -1.0449
41337SOL    HW230104   8.851   9.244   3.523 -0.9092  2.3556  0.8058
41338SOL     OW30105   2.854   2.471   5.744 -0.4507  0.2898 -0.0832
41338SOL    HW130106   2.859   2.391   5.798  2.4183  1.5073  1.7469
41338SOL    HW230107   2.763   2.500   5.751 -0.8739 -1.2576  1.6572
41339SOL     OW30108   0.886  10.217   7.357 -0.1847  0.3069  0.3179
41339SOL    HW130109   0.939  10.162   7.299 -0.7477  0.3272 -0.2292
41339SOL    HW230110   0.826  10.155   7.399  0.8665  0.1333  1.6657
41340SOL     OW30111   2.133   4.332   0.478  0.0050 -0.1231  0.0774
41340SOL    HW130112   2.160   4.401   0.539  1.9357 -0.8755  0.1439
41340SOL    HW230113   2.165   4.363   0.393  0.8065 -0.8759  0.0952
41341SOL     OW30114  10.837  10.346   4.010 -0.5951  0.1615  0.8245
41341SOL    HW130115  10.764  10.294   4.043 -0.6531  0.4565  1.1716
41341SOL    HW230116  10.796  10.416   3.960 -0.4772 -1.1043 -1.1780
41342SOL     OW30117   5.655  10.091   0.034 -0.1901 -0.3064 -0.1443
41342SOL    HW130118   5.623  10.018   0.088  2.5219 -0.6485  1.1378
41342SOL    HW230119   5.671  10.051  -0.052  0.0232 -0.9096  0.1695
41343SOL     OW30120   9.612   3.436   2.481  0.0971 -0.0678  0.3428
41343SOL    HW130121   9.627   3.507   2.544  0.7474  0.1109 -0.0088
41343SOL    HW230122   9.629   3.476   2.396 -2.7713  0.2965 -0.1800
41344SOL     OW30123   7.449   0.361   7.236 -0.5328  0.5123 -0.2586
41344SOL    HW130124   7.449   0.296   7.306 -1.4765  0.8815  0.1016
41344SOL    HW230125   7.491   0.438   7.274  0.4346  0.1847 -0.6327
41345SOL     OW30126  10.277   9.935   9.106  0.1947  0.7725  0.3768
41345SOL    HW130127  10.280   9.966   9.015 -1.5306  0.9441  0.3453
41345SOL    HW230128  10.227   9.854   9.101  1.5347 -0.1182  0.9711
41346SOL     OW30129   8.318   9.228   2.726 -0.7355 -0.0645 -0.0761
41346SOL    HW130130   8.393   9.227   2.667 -0.0309  0.1280  0.7873
41346SOL    HW230131   8.345   9.285   2.798 -1.8844  0.3656  0.0368
41347SOL     OW30132   6.036   9.230   1.976 -0.0116 -0.5616 -0.0940
41347SOL    HW130133   6.052   9.303   2.036  3.1133 -0.2683 -1.0791
41347SOL    HW230134   6.007   9.271   1.895  2.5375 -0.1910 -0.9166
41348SOL     OW30135   7.149   9.811   9.313  0.5415 -0.1507  0.5679
41348SOL    HW130136   7.059   9.830   9.342  0.6062  1.9991 -0.3802
41348SOL    HW230137   7.138   9.749   9.241 -0.0878 -0.8550  1.2583
41349SOL     OW30138   0.302   0.985   0.223 -0.3274 -0.3831 -0.2365
41349SOL    HW130139   0.237   0.931   0.269 -0.4025 -1.1550 -1.1973
41349SOL    HW230140   0.251   1.055   0.183 -0.7397 -1.4370 -1.6616
41350SOL     OW30141  10.788   0.678   1.826 -0.4122 -0.1256  0.0626
41350SOL    HW130142  10.718   0.635   1.776  1.1719 -1.9768 -0.6672
41350SOL    HW230143  10.817   0.750   1.770 -1.8838  0.8770  0.5127
41351SOL     OW30144   5.410   1.026   2.075 -0.1518 -0.1538 -0.0408
41351SOL    HW130145   5.421   0.938   2.039 -2.2089  0.2373 -1.8645
41351SOL    HW230146   5.471   1.080   2.025  0.9974 -0.4614  0.9722
41352SOL     OW30147   5.602   6.037   0.215 -0.6221  0.2182  0.0204
41352SOL    HW130148   5.604   6.131   0.195 -1.5218  0.0876 -0.7846
41352SOL    HW230149   5.615   6.032   0.310  2.0799  0.9730 -0.2399
41353SOL     OW30150   5.248   1.466   1.426 -0.7109 -0.5066  0.1959
41353SOL    HW130151   5.311   1.394   1.421  1.1011  0.9086  1.5071
41353SOL    HW230152   5.208   1.457   1.512  0.8802  1.0523  1.1576
41354SOL     OW30153   8.044   5.956  10.417  0.5498  0.2277  0.1437
41354SOL    HW130154   8.108   5.922  10.479 -0.4561  0.0128  1.0780
41354SOL    HW230155   8.044   6.051  10.430 -0.2670  0.1138  1.0985
41355SOL     OW30156   1.374   3.238   4.769  0.0898  0.6587  0.0483
41355SOL    HW130157   1.411   3.241   4.680 -0.7730  1.5018 -0.2912
41355SOL    HW230158   1.450   3.223   4.825  0.6591  0.1794 -0.8201
41356SOL     OW30159   3.355  10.594   5.754  0.3968 -0.4530  0.1453
41356SOL    HW130160   3.278  10.634   5.713  0.5373 -1.0003 -0.6789
41356SOL    HW230161   3.343  10.500   5.740  1.4346 -0.5146 -0.4001
41357NA      NA30162  10.129   6.958  10.102 -0.3409  0.0808  0.3586
41358NA      NA30163   5.159   9.101   4.788  0.2282 -0.1794 -0.0861
41359NA      NA30164   4.624   5.189  10.676 -0.0750  0.4651 -0.1829
41360NA      NA30165  10.531   1.893   8.385 -0.3680 -0.1542  0.2191
41361NA      NA30166   8.097   9.623   9.020 -0.3706  0.1556 -0.1912
41362NA      NA30167  10.928   8.028   0.210 -0.5987 -0.0342 -0.0976
41363NA      NA30168   4.582   6.761   7.119 -0.1792  0.7006  0.2324
41364NA      NA30169   5.104   3.746   0.300  0.3849  0.2246  0.0088
41365NA      NA30170   0.196   0.543   2.460 -0.3005  0.2635 -0.0066
41366NA      NA30171   1.618   0.248   6.050 -0.0132  0.0655 -0.4372
41367NA      NA30172   2.106   1.164   8.357  0.0367  0.0944  0.0210
41368NA      NA30173   4.451   8.971   9.552 -0.3514 -0.0366  0.0533
41369NA      NA30174   9.225   3.495   1.132  0.1678  0.1201 -0.6142
41370NA      NA30175   0.561   6.928   8.211 -0.5421 -0.1993  0.3121
41371NA      NA30176  10.115   2.290   4.526 -0.3419  0.1230  0.1900
41372NA      NA30177   2.467   0.005   8.044 -0.3743 -1.0293 -0.2130
41373NA      NA30178   0.210   8.680   6.405  0.0040  0.1029 -0.0772
41374NA      NA30179   9.226   5.765   7.877  0.2775 -0.3444 -0.3616
41375NA      NA30180   9.460   7.667   6.240 -0.0360  0.5199 -0.4683
41376NA      NA30181   5.273   7.154   6.815 -0.1795 -0.1703  0.5633
41377NA      NA30182   2.264   6.177   4.782  0.2627 -0.2389 -0.6843
41378NA      NA30183   7.644   5.677   8.197 -0.4827  0.2165 -0.1494
41379NA      NA30184   5.208   9.012   1.697  0.0447 -0.1557 -0.3579
41380NA      NA30185   7.842  10.255   5.639 -0.0981 -0.1138 -0.4013
41381NA      NA30186   4.043   3.906   3.137  0.2685 -0.2171 -0.4109
41382NA      NA30187   6.040   4.903   2.784  0.0284  0.2766  0.2520
41383NA      NA30188   9.461  10.873   0.534 -0.3565 -0.5680 -0.0688
41384NA      NA30189   9.014   2.389  10.582 -0.2472  0.3560 -0.5804
41385NA      NA30190   2.239   9.191  10.759 -0.3473 -0.3215 -0.1263
41386NA      NA30191   6.323   9.791   6.566 -0.3486 -0.4355 -0.1416
41387NA      NA30192   4.921   3.414   3.315 -0.3613 -0.3867  0.3354
41388NA      NA30193   7.413   6.892   7.878  0.3257  0.3708  0.4499
41389NA      NA30194  10.775   6.032   9.200 -0.2266  0.1283 -0.1355
41390NA      NA30195   8.486   9.628   3.232 -0.0794  0.1599  0.4584
41391NA      NA30196   6.256   6.291  10.056  0.6108 -0.1918  0.3847
41392NA      NA30197  10.408  10.145   8.385 -1.2325  0.1674 -0.1294
41393NA      NA30198   5.671   3.818   9.003  0.4284  0.0086  0.1678
41394NA      NA30199   6.153  10.747   8.373 -0.3421 -0.2222 -0.3521
41395NA      NA30200   9.797   3.865   8.380 -0.1242 -0.1393  0.2231
41396NA      NA30201   8.254  10.653   8.963  0.3043  0.4528  0.2112
41397NA      NA30202   6.748   1.320   6.150  0.1327 -0.0593 -0.1764
41398NA      NA30203   7.616   2.052   2.614  0.3467  0.0700  0.4535
41399NA      NA30204   1.240   1.233   0.234 -0.3153 -0.9037 -0.1606
41400NA      NA30205  10.809   1.994   3.645  0.0468  0.0521 -0.2606
41401NA      NA30206   5.784   0.511   5.298 -0.0684  0.0616 -0.1191
41402NA      NA30207   2.744   9.282   2.037  0.3240 -0.1140  0.4573
41403NA      NA30208   1.635  10.022  10.269 -0.0281 -0.3205  0.1301
41404NA      NA30209   5.897   7.082   3.577  0.2419  0.0836 -0.1831
41405NA      NA30210   1.661   0.225   1.185 -0.4641  0.0162 -0.4762
41406NA      NA30211   6.714   8.354  10.281  0.5620 -0.1521  0.0908
41407NA      NA30212   8.530   5.411   9.438  0.2058 -0.0651  0.1720
41408NA      NA30213   8.067   5.901   8.840 -0.4284 -0.4617  0.3340
41409NA      NA30214   8.033   1.721   1.563 -0.2565 -0.1456 -0.0357
41410NA      NA30215   8.618   8.414   9.918 -0.0853  0.2253  0.0821
41411NA      NA30216   3.356   2.527   9.418  0.0762  0.2227  0.0344
41412NA      NA30217   5.938   4.069   7.203  0.3623 -0.2454 -0.5440
41413NA      NA30218   0.245   4.347  10.719  0.4917  0.2045 -0.0415
41414NA      NA30219   3.057   8.333   9.008  0.0573 -0.2080 -0.0925
41415NA      NA30220   7.183   2.367   0.355  0.2710 -0.4620 -0.3777
41416NA      NA30221   6.761   5.469   5.207  0.2822  0.6615 -0.4098
41417NA      NA30222   8.483   2.979   7.281  0.1730  0.2275 -0.1259
41418NA      NA30223   8.877  10.850   7.020  0.3989 -0.6723 -0.2886
41419NA      NA30224   8.502   9.304   9.512  0.2114 -0.0718 -0.0905
41420NA      NA30225   9.322   8.479   0.710  0.1751  0.0796 -0.0842
41421NA      NA30226   9.580   4.785   0.206 -0.2276 -0.2612  0.2022
41422NA      NA30227   1.386   2.150   4.043  0.3849 -0.1884  0.0612
41423NA      NA30228   4.886   2.922   5.998  0.0090 -0.0824  0.5914
41424NA      NA30229   0.623   6.825   1.279  0.1239  0.0343 -0.6187
41425NA      NA30230   4.358   1.529   3.927  0.3737 -0.4253 -0.1844
41426NA      NA30231   8.514  10.484   7.777 -0.3588  0.3451  0.2388
41427NA      NA30232   2.985   2.638   5.741  0.4327  0.1185 -0.0784
41428NA      NA30233   7.894  10.066   1.619  0.1605  0.0522  0.4382
41429NA      NA30234   4.559  10.356   1.703  0.1066 -0.5744 -0.0846
41430NA      NA30235   4.292   7.971   1.058 -0.2608 -0.1057 -0.2582
41431NA      NA30236   8.091   3.826   0.672 -0.0529  0.0883  0.0380
41432NA      NA30237   1.358   2.801  10.609 -0.5465 -0.1200 -0.0272
41433NA      NA30238   8.027   7.952   6.642  0.2817  0.2765 -0.5344
41434NA      NA30239   2.125   2.143  10.698 -0.4076  0.0379 -0.2690
41435NA      NA30240   2.863   6.092   0.140 -0.1624 -0.6853 -0.0070
41436NA      NA30241   6.213  10.519   7.113 -0.0299  0.0557  0.1795
41437NA      NA30242   7.397   0.752   8.506  0.0931 -0.3710 -0.4253
41438NA      NA30243   5.457   5.162   0.935  0.2626  0.1771  0.1320
41439NA      NA30244   3.996   7.777   1.901  0.1738 -0.5844 -0.0744
41440NA      NA30245   5.891   9.675   5.397  0.2406 -0.5494 -0.3178
41441NA      NA30246  10.064   4.339   9.783  0.0411 -0.2182  0.5329
41442NA      NA30247   5.738   8.141   2.324 -0.0753  0.4018 -0.1442
41443NA      NA30248   3.826   9.765   8.383 -0.4568  0.2712 -0.1141
41444NA      NA30249   3.009   2.061   5.982  0.2480 -0.3485 -0.0979
41445NA      NA30250   4.970   4.536   5.296 -0.1636  0.2075  0.2464
41446NA      NA30251   1.711   4.595   8.614 -0.1450  0.4098  0.4112
41447NA      NA30252   2.133   6.184   0.341  0.5338  0.0754 -0.7274
41448NA      NA30253   5.670   9.996   1.857  0.2980  0.1128 -0.2628
41449NA      NA30254   5.010   8.663  10.852  0.0737 -0.1040  0.4614
41450NA      NA30255   4.864   9.673   8.722 -0.1175 -0.1593 -0.2849
41451NA      NA30256  10.708   8.932   6.660  0.0495 -0.5012  0.1964
41452NA      NA30257   6.147   9.663   1.142  0.3344 -0.5898 -0.4944
41453NA      NA30258   2.267   2.511   9.908  0.0083  0.1928 -0.2525
41454NA      NA30259  10.685   8.623   9.276  0.0343 -0.2125 -0.0400
41455NA      NA30260   5.145   1.126   2.503  0.0031 -0.1078 -0.0638
41456NA      NA30261   9.446   0.235   9.336 -0.0843  0.1496  0.0575
41457NA      NA30262   1.846   9.639   4.103  0.0803  0.1132  0.1015
41458NA      NA30263   1.104   5.044   5.524  0.1118  0.3079 -0.2818
41459NA      NA30264   2.042   6.467   7.748  0.5976  0.0662  0.7486
41460NA      NA30265   3.462   6.810   4.628 -0.5100 -0.0416 -0.4953
41461NA      NA30266   6.552   4.610  10.888  0.1497  0.2974  0.1729
41462NA      NA30267   5.889   7.968   5.969  0.0941  0.0797 -0.0459
41463NA      NA30268  10.024   2.992   1.586  0.5081  0.5577  0.1919
41464NA      NA30269   5.807   6.303  10.652  0.3619 -0.3013  0.0534
41465NA      NA30270  10.621   9.537   1.437 -0.3727  0.0028 -0.5225
41466NA      NA30271   1.393   6.515   9.852  0.1521  0.4802  0.2950
41467NA      NA30272   6.813   3.287   6.201 -0.8811 -0.1866 -0.1110
41468NA      NA30273  10.453   2.806   9.545  0.3146 -0.2888  0.3520
41469NA      NA30274   2.102  10.177   1.466 -0.2208 -0.3740 -0.0202
41470NA      NA30275   7.153   4.700   8.166 -0.1528  0.5056  0.1412
41471NA      NA30276   8.870   1.870   9.680  0.0193 -1.0222 -0.2982
41472NA      NA30277   4.578   8.104   8.844  0.1824 -0.0094 -0.1060
41473NA      NA30278   7.575  10.609   0.007 -0.0904 -0.0440 -0.1617
41474NA      NA30279   5.769   5.612  10.552 -0.4343  0.4151  0.2789
41475NA      NA30280   2.807   8.328   8.111 -0.1612  0.0788 -0.5619
41476NA      NA30281   1.919  10.600   8.129 -0.5598  0.3335  0.4678
41477NA      NA30282   0.166   7.147   5.287 -0.7615  0.0919 -0.2208
41478CL      CL30283   6.905   9.857   5.807  0.1719  0.2264 -0.1279
41479CL      CL30284   8.568  10.895   7.908  0.2455 -0.4434  0.7247
41480CL      CL30285   4.756   1.135   4.747 -0.0820 -0.0162  0.5354
41481CL      CL30286   6.191   8.652   2.096 -0.1362  0.0173  0.2511
41482CL      CL30287   9.384   3.615   0.990  0.2582 -0.2244 -0.4159
41483CL      CL30288   1.804   6.845  10.848 -0.1047 -0.1478 -0.2115
41484CL      CL30289   8.217   2.772   5.190 -0.2694 -0.1323 -0.0447
41485CL      CL30290   0.552   7.177   6.094 -0.0711 -0.2086  0.0545
41486CL      CL30291   0.293  10.428   0.608  0.1251 -0.2175  0.0879
41487CL      CL30292   2.391   8.817   2.370 -0.4958 -0.2674  0.0526
41488CL      CL30293   6.916   3.311   7.705 -0.3406 -0.1481 -0.0684
41489CL      CL30294   5.575   5.390  10.894  0.2025  0.3463  0.5328
41490CL      CL30295   6.966   9.702   0.847  0.0326 -0.0129 -0.2375
41491CL      CL30296   0.233   1.751   3.932 -0.2286 -0.1832 -0.4812
41492CL      CL30297   2.366  10.080   2.763 -0.4333 -0.0643 -0.1221
41493CL      CL30298   1.633   8.475   0.757  0.1068  0.1568 -0.2015
41494CL      CL30299   8.248   3.517  10.173 -0.0642  0.0516 -0.3166
41495CL      CL30300   6.094  10.652   9.061 -0.1912  0.0064  0.0021
41496CL      CL30301   1.229   8.147   3.718  0.0967 -0.0941  0.0395
41497CL      CL30302  10.536   0.278  10.206  0.2249 -0.1161  0.3390
41498CL      CL30303   0.893   8.468   7.504 -0.0585 -0.2874 -0.2523
41499CL      CL30304   9.288   8.019   4.984 -0.4288  0.1418  0.4746
41500CL      CL30305   0.041   1.244   8.904  0.4743 -0.1134 -0.3880
41501CL      CL30306   0.754   3.458   9.552  0.4494 -0.1694  0.4008
41502CL      CL30307   9.859   2.718   6.952 -0.0303  0.2248 -0.4946
41503CL      CL30308   2.063  10.656   8.325 -0.0968 -0.3376  0.2433
41504CL      CL30309   5.929   5.983   9.583  0.1263 -0.1057 -0.4259
41505CL      CL30310   4.319   5.114   5.605  0.4109  0.2846 -0.2901
41506CL      CL30311   2.238   6.426   7.639 -0.0506  0.0544 -0.0325
41507CL      CL30312   6.175   7.658   2.786 -0.1696 -0.1050 -0.0332
41508CL      CL30313  10.760   5.142   8.895  0.1766  0.0541  0.0852
41509CL      CL30314   5.987   9.403   8.455 -0.0122  0.3012 -0.1609
41510CL      CL30315   0.118   1.597  10.440  0.2001  0.6293  0.0650
41511CL      CL30316   7.737   9.667   4.041  0.2948  0.0799  0.2057
41512CL      CL30317   5.895   6.217   2.161  0.3328  0.0757  0.0905
41513CL      CL30318   2.839   2.213   5.920 -0.2920 -0.2337 -0.1920
41514CL      CL30319   2.070   2.897   7.523 -0.3166 -0.0386 -0.2334
41515CL      CL30320   0.889   5.682   6.637  0.0698  0.1176 -0.0410
41516CL      CL30321   0.739   3.508   1.787  0.2908  0.0039 -0.0036
41517CL      CL30322   8.553   4.205   9.998 -0.3363 -0.0881 -0.0136
41518CL      CL30323  10.155   2.585   9.630 -0.0096  0.0183  0.1819
41519CL      CL30324   4.967   7.729   7.068  0.0381  0.1012  0.4164
41520CL      CL30325   4.478   3.229   3.111 -0.3228 -0.4796 -0.0960
41521CL      CL30326   0.506   7.341  10.174  0.1179 -0.1909  0.0412
41522CL      CL30327   1.258   9.959   1.808 -0.0678  0.1725  0.2123
41523CL      CL30328  10.109  10.032   7.674  0.2044 -0.0520  0.1457
41524CL      CL30329   9.988  10.403   1.565  0.1463 -0.2663 -0.2411
41525CL      CL30330   1.132   9.170   1.747 -0.9053  0.2904 -0.0464
41526CL      CL30331   1.462   6.412  10.056 -0.1101  0.4390  0.5059
41527CL      CL30332   1.145   9.833   8.470  0.2523  0.0699 -0.1532
41528CL      CL30333  10.792  10.729   2.664  0.0242 -0.0478  0.1000
41529CL      CL30334   6.889   7.237   8.582  0.3352 -0.0993  0.1611
41530CL      CL30335   6.981   2.248   4.863  0.0630  0.3260 -0.1465
41531CL      CL30336   7.186   0.048   6.051 -0.0385 -0.0902 -0.8151
41532CL      CL30337   9.905   7.718   7.422 -0.1197 -0.1247  0.2678
41533CL      CL30338   3.771   7.071   5.131 -0.0713  0.6941  0.3500
41534CL      CL30339   4.563   9.505   0.679  0.3161 -0.4975 -0.0564
41535CL      CL30340   8.048   6.132   7.592 -0.1311  0.3135  0.3403
41536CL      CL30341  10.753   7.886   0.138 -0.4227 -0.0818 -0.5658
41537CL      CL30342   5.188   8.316   4.693  0.0221  0.0703 -0.5889
41538CL      CL30343   4.184   4.544   4.587 -0.0749  0.4787 -0.2093
41539CL      CL30344   8.908   9.697   0.360  0.1104  0.1051 -0.7985
41540CL      CL30345   4.073   1.928   6.957  0.0731  0.1889 -0.0896
41541CL      CL30346   1.297   0.582  10.676  0.1125  0.2293 -0.1008
41542CL      CL30347   9.484   3.757   2.020 -0.3442 -0.4083 -0.1734
41543CL      CL30348   6.317   5.404   6.327 -0.1746  0.4619 -0.6441
41544CL      CL30349  10.071  10.681   5.010 -0.4330  0.6115 -0.0266
41545CL      CL30350   8.286  10.388   7.741 -0.0952 -0.6498 -0.7727
41546CL      CL30351   2.391   6.139   6.420 -0.3032 -0.0162  0.0643
41547CL      CL30352   4.797   1.509   5.043 -0.0692  0.1430 -0.3953
41548CL      CL30353   8.085  10.430  10.488  0.3884 -0.1256  0.0784
41549CL      CL30354   3.357   5.054  10.228 -0.6980 -0.2987  0.1841
41550CL      CL30355  10.228   3.850   2.982  0.2578 -0.1823 -0.0992
41551CL      CL30356   4.380   9.678   9.038  0.6974  0.4865 -0.1537
41552CL      CL30357   5.140  10.928   2.357 -0.2942  0.1252  0.3390
41553CL      CL30358  10.282   8.240   9.584  0.3829  0.2885 -0.0517
41554CL      CL30359   7.166   7.389   2.984  0.0436  0.0715 -0.0595
41555CL      CL30360   2.546   0.517   8.873 -0.4175 -0.1065  0.3798
41556CL      CL30361   7.032   1.253  10.752  0.0449  0.0667  0.2333
41557CL      CL30362   4.908   2.497   7.407  0.2097  0.1230  0.5135
41558CL      CL30363   9.037  10.875   9.807 -0.2985  0.1101 -0.2466
41559CL      CL30364   5.358   1.279   9.529 -0.2374  0.0804 -0.1008
41560CL      CL30365   7.875   0.896   2.577 -0.4058  0.0130  0.1847
41561CL      CL30366   1.983   5.752   1.309  0.0932 -0.0576 -0.4880
41562CL      CL30367   6.131   9.214   4.687  0.5159  0.0931  0.4225
41563CL      CL30368   0.651   1.877   2.496 -0.0817 -0.3281  0.1568
41564CL      CL30369   6.857   6.448   9.257  0.0685 -0.1090 -0.0780
41565CL      CL30370   3.986   8.445   1.914 -0.2527 -0.1244 -0.5271
41566CL      CL30371  10.668   2.143   3.218 -0.2214 -0.0259 -0.0701
41567CL      CL30372   4.003   8.483  10.820  0.4511  0.1315  0.0194
41568CL      CL30373   9.913   8.991   9.221 -0.4677  0.2167 -0.2990
41569CL      CL30374   5.216  10.096   8.370 -0.1242 -0.1589  0.2051
41570CL      CL30375   4.654   6.072   1.609  0.0823  0.3265  0.0328
41571CL      CL30376   9.627   7.648   6.930 -0.9381 -0.1855 -0.0946
41572CL      CL30377   8.839  10.311   2.819  0.1840  0.0279 -0.3560
41573CL      CL30378   7.879   8.626  10.284  0.0691  0.4917  0.0567
41574CL      CL30379   9.309   1.791   2.915 -0.0247  0.1748 -0.0698
41575CL      CL30380   6.781   4.687   7.213 -0.0510  0.4514 -0.0861
41576CL      CL30381  10.015   5.764   9.204  0.0940  0.1699 -0.0705
41577CL      CL30382   3.056   4.286   0.443  0.1629 -0.1835  0.0924
41578CL      CL30383   6.232   4.212   7.550  0.3861  0.1043  0.1718
41579CL      CL30384   1.446   3.826   1.767  0.2995 -0.0785 -0.1382
41580CL      CL30385   7.032   8.317   0.246 -0.0064  0.0465 -0.3465
41581CL      CL30386   4.885   4.905   9.690  0.2548  0.0646 -0.1439
41582CL      CL30387   3.895   2.385   6.053 -0.0154  0.3910 -0.2168
41583CL      CL30388   7.005   5.726   8.974  0.3238  0.2993  0.1557
41584CL      CL30389   4.555  10.861   4.745 -0.2700 -0.3956 -0.0457
41585CL      CL30390   8.696   7.578  10.687 -0.1691  0.1519  0.1521
41586CL      CL30391   4.724   6.583   5.167 -0.1316  0.1292 -0.0768
41587CL      CL30392   4.424   8.449   0.721 -0.1081  0.0331 -0.1870
41588CL      CL30393   1.607   7.816   6.147 -0.2755 -0.1710 -0.4693
41589CL      CL30394   1.749   6.675   8.937  0.1739  0.1539  0.1731
41590CL      CL30395   7.530   2.010   7.554 -0.1999 -0.3126 -0.2334
41591CL      CL30396   5.853   9.849   5.880 -0.1604  0.0276  0.2185
41592CL      CL30397   6.315  10.300   1.227  0.2826  0.2096  0.0046
41593CL      CL30398   6.371   1.017   6.288 -0.1030 -0.0118  0.0667
41594CL      CL30399   5.839  10.868   7.100 -0.0746 -0.0969 -0.0857
41595CL      CL30400   8.654   8.619   8.892 -0.1119  0.1815 -0.1309
41596CL      CL30401   5.344   6.060   7.046 -0.1601 -0.2201  0.0046
41597CL      CL30402   9.300   3.816   2.939 -0.0794  0.0714  0.2223
41598CL      CL30403   4.937   2.820   5.788 -0.2467 -0.3032 -0.1560
  10.93090  10.93090  10.93090
