;
;   File g2.5_pamam.itp  was generated
;   By user: sairam (1000)
;   On host: sairam
;   At date: Sat. August  6 19:42:26 2023
;
;   This is a standalone topology file
;
;   Created by:
;   ParmEd:       amb2gro_top_gro.py, VERSION 3.4.1
;   Executable:   amb2gro_top_gro.py
;   Library dir:  /usr/local/gromacs/share/gromacs/top
;   Command line:
;     ./amb2gro_top_gro.py -p g2.5_pamam.prmtop -c g2.5_pamam.inpcrd -t g2.5_pamam.itp -g g2.5_pamam.gro -b g2.5_pamam.pdb
;

;[ defaults ]
;; nbfunc        comb-rule       gen-pairs       fudgeLJ fudgeQQ
;1               2               yes             0.5          0.83333333  
;
;[ atomtypes ]
;; name    at.num    mass    charge ptype  sigma      epsilon
;c3             6  12.010000  0.00000000  A     0.33996695      0.4577296
;h1             1   1.008000  0.00000000  A      0.2471353      0.0656888
;n3             7  14.010000  0.00000000  A     0.32499985        0.71128
;hc             1   1.008000  0.00000000  A     0.26495328      0.0656888
;c              6  12.010000  0.00000000  A     0.33996695       0.359824
;o              8  16.000000  0.00000000  A     0.29599219        0.87864
;n              7  14.010000  0.00000000  A     0.32499985        0.71128
;hn             1   1.008000  0.00000000  A     0.10690785      0.0656888


[ moleculetype ]
; Name            nrexcl
g2.5_pamam       3

[ atoms ]
;   nr       type  resnr residue  atom   cgnr    charge       mass  typeB    chargeB      massB
; residue    1 aaa rtp aaa q -0.0
    1         c3      1    aaa     C1      1 0.02890000  12.010000   ; qtot 0.028900
    2         h1      1    aaa     H1      2 0.08460000   1.008000   ; qtot 0.113500
    3         h1      1    aaa     H2      3 0.08460000   1.008000   ; qtot 0.198100
    4         c3      1    aaa     C2      4 0.02890000  12.010000   ; qtot 0.227000
    5         h1      1    aaa     H3      5 0.08460000   1.008000   ; qtot 0.311600
    6         h1      1    aaa     H4      6 0.08460000   1.008000   ; qtot 0.396200
    7         n3      1    aaa     N1      7 -0.65770000  14.010000   ; qtot -0.261500
    8         n3      1    aaa     N2      8 -0.65770000  14.010000   ; qtot -0.919200
    9         c3      1    aaa     C3      9 0.36940000  12.010000   ; qtot -0.549800
   10         h1      1    aaa     H5     10 0.00650000   1.008000   ; qtot -0.543300
   11         h1      1    aaa     H6     11 0.00650000   1.008000   ; qtot -0.536800
   12         c3      1    aaa     C4     12 0.36940000  12.010000   ; qtot -0.167400
   13         h1      1    aaa     H7     13 0.00650000   1.008000   ; qtot -0.160900
   14         h1      1    aaa     H8     14 0.00650000   1.008000   ; qtot -0.154400
   15         c3      1    aaa     C5     15 0.36940000  12.010000   ; qtot 0.215000
   16         h1      1    aaa     H9     16 0.00650000   1.008000   ; qtot 0.221500
   17         h1      1    aaa    H10     17 0.00650000   1.008000   ; qtot 0.228000
   18         c3      1    aaa     C6     18 0.36940000  12.010000   ; qtot 0.597400
   19         h1      1    aaa    H11     19 0.00650000   1.008000   ; qtot 0.603900
   20         h1      1    aaa    H12     20 0.00650000   1.008000   ; qtot 0.610400
   21         c3      1    aaa     C7     21 -0.54350000  12.010000   ; qtot 0.066900
   22         hc      1    aaa    H13     22 0.15890000   1.008000   ; qtot 0.225800
   23         hc      1    aaa    H14     23 0.15890000   1.008000   ; qtot 0.384700
   24         c3      1    aaa     C8     24 -0.54350000  12.010000   ; qtot -0.158800
   25         hc      1    aaa    H15     25 0.15890000   1.008000   ; qtot 0.000100
   26         hc      1    aaa    H16     26 0.15890000   1.008000   ; qtot 0.159000
   27         c3      1    aaa     C9     27 -0.54350000  12.010000   ; qtot -0.384500
   28         hc      1    aaa    H17     28 0.15890000   1.008000   ; qtot -0.225600
   29         hc      1    aaa    H18     29 0.15890000   1.008000   ; qtot -0.066700
   30         c3      1    aaa    C10     30 -0.54350000  12.010000   ; qtot -0.610200
   31         hc      1    aaa    H19     31 0.15890000   1.008000   ; qtot -0.451300
   32         hc      1    aaa    H20     32 0.15890000   1.008000   ; qtot -0.292400
   33          c      1    aaa    C11     33 0.67800000  12.010000   ; qtot 0.385600
   34          c      1    aaa    C12     34 0.67800000  12.010000   ; qtot 1.063600
   35          c      1    aaa    C13     35 0.67800000  12.010000   ; qtot 1.741600
   36          c      1    aaa    C14     36 0.67800000  12.010000   ; qtot 2.419600
   37          o      1    aaa     O1     37 -0.60490000  16.000000   ; qtot 1.814700
   38          o      1    aaa     O2     38 -0.60490000  16.000000   ; qtot 1.209800
   39          o      1    aaa     O3     39 -0.60490000  16.000000   ; qtot 0.604900
   40          o      1    aaa     O4     40 -0.60490000  16.000000   ; qtot -0.000000
; residue    2 bbb rtp bbb q -0.0
   41         c3      2    bbb     C1     41 0.44180000  12.010000   ; qtot 0.441800
   42         h1      2    bbb     H1     42 -0.03530000   1.008000   ; qtot 0.406500
   43         h1      2    bbb     H2     43 -0.03530000   1.008000   ; qtot 0.371200
   44         c3      2    bbb     C2     44 -0.28250000  12.010000   ; qtot 0.088700
   45         h1      2    bbb     H3     45 0.15710000   1.008000   ; qtot 0.245800
   46         h1      2    bbb     H4     46 0.15710000   1.008000   ; qtot 0.402900
   47         n3      2    bbb     N1     47 -0.74090000  14.010000   ; qtot -0.338000
   48         c3      2    bbb     C3     48 0.51680000  12.010000   ; qtot 0.178800
   49         h1      2    bbb     H5     49 -0.05230000   1.008000   ; qtot 0.126500
   50         h1      2    bbb     H6     50 -0.05230000   1.008000   ; qtot 0.074200
   51         c3      2    bbb     C4     51 0.51680000  12.010000   ; qtot 0.591000
   52         h1      2    bbb     H7     52 -0.05230000   1.008000   ; qtot 0.538700
   53         h1      2    bbb     H8     53 -0.05230000   1.008000   ; qtot 0.486400
   54         c3      2    bbb     C5     54 -0.60390000  12.010000   ; qtot -0.117500
   55         hc      2    bbb     H9     55 0.16730000   1.008000   ; qtot 0.049800
   56         hc      2    bbb    H10     56 0.16730000   1.008000   ; qtot 0.217100
   57         c3      2    bbb     C6     57 -0.60390000  12.010000   ; qtot -0.386800
   58         hc      2    bbb    H11     58 0.16730000   1.008000   ; qtot -0.219500
   59         hc      2    bbb    H12     59 0.16730000   1.008000   ; qtot -0.052200
   60          c      2    bbb     C7     60 0.72110000  12.010000   ; qtot 0.668900
   61          c      2    bbb     C8     61 0.72110000  12.010000   ; qtot 1.390000
   62          o      2    bbb     O1     62 -0.61950000  16.000000   ; qtot 0.770500
   63          o      2    bbb     O2     63 -0.61950000  16.000000   ; qtot 0.151000
   64          n      2    bbb     N4     64 -0.46580000  14.010000   ; qtot -0.314800
   65         hn      2    bbb    H21     65 0.31480000   1.008000   ; qtot -0.000000
; residue    3 bbb rtp bbb q -0.0
   66         c3      3    bbb     C1     66 0.44180000  12.010000   ; qtot 0.441800
   67         h1      3    bbb     H1     67 -0.03530000   1.008000   ; qtot 0.406500
   68         h1      3    bbb     H2     68 -0.03530000   1.008000   ; qtot 0.371200
   69         c3      3    bbb     C2     69 -0.28250000  12.010000   ; qtot 0.088700
   70         h1      3    bbb     H3     70 0.15710000   1.008000   ; qtot 0.245800
   71         h1      3    bbb     H4     71 0.15710000   1.008000   ; qtot 0.402900
   72         n3      3    bbb     N1     72 -0.74090000  14.010000   ; qtot -0.338000
   73         c3      3    bbb     C3     73 0.51680000  12.010000   ; qtot 0.178800
   74         h1      3    bbb     H5     74 -0.05230000   1.008000   ; qtot 0.126500
   75         h1      3    bbb     H6     75 -0.05230000   1.008000   ; qtot 0.074200
   76         c3      3    bbb     C4     76 0.51680000  12.010000   ; qtot 0.591000
   77         h1      3    bbb     H7     77 -0.05230000   1.008000   ; qtot 0.538700
   78         h1      3    bbb     H8     78 -0.05230000   1.008000   ; qtot 0.486400
   79         c3      3    bbb     C5     79 -0.60390000  12.010000   ; qtot -0.117500
   80         hc      3    bbb     H9     80 0.16730000   1.008000   ; qtot 0.049800
   81         hc      3    bbb    H10     81 0.16730000   1.008000   ; qtot 0.217100
   82         c3      3    bbb     C6     82 -0.60390000  12.010000   ; qtot -0.386800
   83         hc      3    bbb    H11     83 0.16730000   1.008000   ; qtot -0.219500
   84         hc      3    bbb    H12     84 0.16730000   1.008000   ; qtot -0.052200
   85          c      3    bbb     C7     85 0.72110000  12.010000   ; qtot 0.668900
   86          c      3    bbb     C8     86 0.72110000  12.010000   ; qtot 1.390000
   87          o      3    bbb     O1     87 -0.61950000  16.000000   ; qtot 0.770500
   88          o      3    bbb     O2     88 -0.61950000  16.000000   ; qtot 0.151000
   89          n      3    bbb     N4     89 -0.46580000  14.010000   ; qtot -0.314800
   90         hn      3    bbb    H21     90 0.31480000   1.008000   ; qtot -0.000000
; residue    4 bbb rtp bbb q -0.0
   91         c3      4    bbb     C1     91 0.44180000  12.010000   ; qtot 0.441800
   92         h1      4    bbb     H1     92 -0.03530000   1.008000   ; qtot 0.406500
   93         h1      4    bbb     H2     93 -0.03530000   1.008000   ; qtot 0.371200
   94         c3      4    bbb     C2     94 -0.28250000  12.010000   ; qtot 0.088700
   95         h1      4    bbb     H3     95 0.15710000   1.008000   ; qtot 0.245800
   96         h1      4    bbb     H4     96 0.15710000   1.008000   ; qtot 0.402900
   97         n3      4    bbb     N1     97 -0.74090000  14.010000   ; qtot -0.338000
   98         c3      4    bbb     C3     98 0.51680000  12.010000   ; qtot 0.178800
   99         h1      4    bbb     H5     99 -0.05230000   1.008000   ; qtot 0.126500
  100         h1      4    bbb     H6    100 -0.05230000   1.008000   ; qtot 0.074200
  101         c3      4    bbb     C4    101 0.51680000  12.010000   ; qtot 0.591000
  102         h1      4    bbb     H7    102 -0.05230000   1.008000   ; qtot 0.538700
  103         h1      4    bbb     H8    103 -0.05230000   1.008000   ; qtot 0.486400
  104         c3      4    bbb     C5    104 -0.60390000  12.010000   ; qtot -0.117500
  105         hc      4    bbb     H9    105 0.16730000   1.008000   ; qtot 0.049800
  106         hc      4    bbb    H10    106 0.16730000   1.008000   ; qtot 0.217100
  107         c3      4    bbb     C6    107 -0.60390000  12.010000   ; qtot -0.386800
  108         hc      4    bbb    H11    108 0.16730000   1.008000   ; qtot -0.219500
  109         hc      4    bbb    H12    109 0.16730000   1.008000   ; qtot -0.052200
  110          c      4    bbb     C7    110 0.72110000  12.010000   ; qtot 0.668900
  111          c      4    bbb     C8    111 0.72110000  12.010000   ; qtot 1.390000
  112          o      4    bbb     O1    112 -0.61950000  16.000000   ; qtot 0.770500
  113          o      4    bbb     O2    113 -0.61950000  16.000000   ; qtot 0.151000
  114          n      4    bbb     N4    114 -0.46580000  14.010000   ; qtot -0.314800
  115         hn      4    bbb    H21    115 0.31480000   1.008000   ; qtot -0.000000
; residue    5 bbb rtp bbb q -0.0
  116         c3      5    bbb     C1    116 0.44180000  12.010000   ; qtot 0.441800
  117         h1      5    bbb     H1    117 -0.03530000   1.008000   ; qtot 0.406500
  118         h1      5    bbb     H2    118 -0.03530000   1.008000   ; qtot 0.371200
  119         c3      5    bbb     C2    119 -0.28250000  12.010000   ; qtot 0.088700
  120         h1      5    bbb     H3    120 0.15710000   1.008000   ; qtot 0.245800
  121         h1      5    bbb     H4    121 0.15710000   1.008000   ; qtot 0.402900
  122         n3      5    bbb     N1    122 -0.74090000  14.010000   ; qtot -0.338000
  123         c3      5    bbb     C3    123 0.51680000  12.010000   ; qtot 0.178800
  124         h1      5    bbb     H5    124 -0.05230000   1.008000   ; qtot 0.126500
  125         h1      5    bbb     H6    125 -0.05230000   1.008000   ; qtot 0.074200
  126         c3      5    bbb     C4    126 0.51680000  12.010000   ; qtot 0.591000
  127         h1      5    bbb     H7    127 -0.05230000   1.008000   ; qtot 0.538700
  128         h1      5    bbb     H8    128 -0.05230000   1.008000   ; qtot 0.486400
  129         c3      5    bbb     C5    129 -0.60390000  12.010000   ; qtot -0.117500
  130         hc      5    bbb     H9    130 0.16730000   1.008000   ; qtot 0.049800
  131         hc      5    bbb    H10    131 0.16730000   1.008000   ; qtot 0.217100
  132         c3      5    bbb     C6    132 -0.60390000  12.010000   ; qtot -0.386800
  133         hc      5    bbb    H11    133 0.16730000   1.008000   ; qtot -0.219500
  134         hc      5    bbb    H12    134 0.16730000   1.008000   ; qtot -0.052200
  135          c      5    bbb     C7    135 0.72110000  12.010000   ; qtot 0.668900
  136          c      5    bbb     C8    136 0.72110000  12.010000   ; qtot 1.390000
  137          o      5    bbb     O1    137 -0.61950000  16.000000   ; qtot 0.770500
  138          o      5    bbb     O2    138 -0.61950000  16.000000   ; qtot 0.151000
  139          n      5    bbb     N4    139 -0.46580000  14.010000   ; qtot -0.314800
  140         hn      5    bbb    H21    140 0.31480000   1.008000   ; qtot -0.000000
; residue    6 bbb rtp bbb q -0.0
  141         c3      6    bbb     C1    141 0.44180000  12.010000   ; qtot 0.441800
  142         h1      6    bbb     H1    142 -0.03530000   1.008000   ; qtot 0.406500
  143         h1      6    bbb     H2    143 -0.03530000   1.008000   ; qtot 0.371200
  144         c3      6    bbb     C2    144 -0.28250000  12.010000   ; qtot 0.088700
  145         h1      6    bbb     H3    145 0.15710000   1.008000   ; qtot 0.245800
  146         h1      6    bbb     H4    146 0.15710000   1.008000   ; qtot 0.402900
  147         n3      6    bbb     N1    147 -0.74090000  14.010000   ; qtot -0.338000
  148         c3      6    bbb     C3    148 0.51680000  12.010000   ; qtot 0.178800
  149         h1      6    bbb     H5    149 -0.05230000   1.008000   ; qtot 0.126500
  150         h1      6    bbb     H6    150 -0.05230000   1.008000   ; qtot 0.074200
  151         c3      6    bbb     C4    151 0.51680000  12.010000   ; qtot 0.591000
  152         h1      6    bbb     H7    152 -0.05230000   1.008000   ; qtot 0.538700
  153         h1      6    bbb     H8    153 -0.05230000   1.008000   ; qtot 0.486400
  154         c3      6    bbb     C5    154 -0.60390000  12.010000   ; qtot -0.117500
  155         hc      6    bbb     H9    155 0.16730000   1.008000   ; qtot 0.049800
  156         hc      6    bbb    H10    156 0.16730000   1.008000   ; qtot 0.217100
  157         c3      6    bbb     C6    157 -0.60390000  12.010000   ; qtot -0.386800
  158         hc      6    bbb    H11    158 0.16730000   1.008000   ; qtot -0.219500
  159         hc      6    bbb    H12    159 0.16730000   1.008000   ; qtot -0.052200
  160          c      6    bbb     C7    160 0.72110000  12.010000   ; qtot 0.668900
  161          c      6    bbb     C8    161 0.72110000  12.010000   ; qtot 1.390000
  162          o      6    bbb     O1    162 -0.61950000  16.000000   ; qtot 0.770500
  163          o      6    bbb     O2    163 -0.61950000  16.000000   ; qtot 0.151000
  164          n      6    bbb     N4    164 -0.46580000  14.010000   ; qtot -0.314800
  165         hn      6    bbb    H21    165 0.31480000   1.008000   ; qtot -0.000000
; residue    7 bbb rtp bbb q -0.0
  166         c3      7    bbb     C1    166 0.44180000  12.010000   ; qtot 0.441800
  167         h1      7    bbb     H1    167 -0.03530000   1.008000   ; qtot 0.406500
  168         h1      7    bbb     H2    168 -0.03530000   1.008000   ; qtot 0.371200
  169         c3      7    bbb     C2    169 -0.28250000  12.010000   ; qtot 0.088700
  170         h1      7    bbb     H3    170 0.15710000   1.008000   ; qtot 0.245800
  171         h1      7    bbb     H4    171 0.15710000   1.008000   ; qtot 0.402900
  172         n3      7    bbb     N1    172 -0.74090000  14.010000   ; qtot -0.338000
  173         c3      7    bbb     C3    173 0.51680000  12.010000   ; qtot 0.178800
  174         h1      7    bbb     H5    174 -0.05230000   1.008000   ; qtot 0.126500
  175         h1      7    bbb     H6    175 -0.05230000   1.008000   ; qtot 0.074200
  176         c3      7    bbb     C4    176 0.51680000  12.010000   ; qtot 0.591000
  177         h1      7    bbb     H7    177 -0.05230000   1.008000   ; qtot 0.538700
  178         h1      7    bbb     H8    178 -0.05230000   1.008000   ; qtot 0.486400
  179         c3      7    bbb     C5    179 -0.60390000  12.010000   ; qtot -0.117500
  180         hc      7    bbb     H9    180 0.16730000   1.008000   ; qtot 0.049800
  181         hc      7    bbb    H10    181 0.16730000   1.008000   ; qtot 0.217100
  182         c3      7    bbb     C6    182 -0.60390000  12.010000   ; qtot -0.386800
  183         hc      7    bbb    H11    183 0.16730000   1.008000   ; qtot -0.219500
  184         hc      7    bbb    H12    184 0.16730000   1.008000   ; qtot -0.052200
  185          c      7    bbb     C7    185 0.72110000  12.010000   ; qtot 0.668900
  186          c      7    bbb     C8    186 0.72110000  12.010000   ; qtot 1.390000
  187          o      7    bbb     O1    187 -0.61950000  16.000000   ; qtot 0.770500
  188          o      7    bbb     O2    188 -0.61950000  16.000000   ; qtot 0.151000
  189          n      7    bbb     N4    189 -0.46580000  14.010000   ; qtot -0.314800
  190         hn      7    bbb    H21    190 0.31480000   1.008000   ; qtot -0.000000
; residue    8 bbb rtp bbb q -0.0
  191         c3      8    bbb     C1    191 0.44180000  12.010000   ; qtot 0.441800
  192         h1      8    bbb     H1    192 -0.03530000   1.008000   ; qtot 0.406500
  193         h1      8    bbb     H2    193 -0.03530000   1.008000   ; qtot 0.371200
  194         c3      8    bbb     C2    194 -0.28250000  12.010000   ; qtot 0.088700
  195         h1      8    bbb     H3    195 0.15710000   1.008000   ; qtot 0.245800
  196         h1      8    bbb     H4    196 0.15710000   1.008000   ; qtot 0.402900
  197         n3      8    bbb     N1    197 -0.74090000  14.010000   ; qtot -0.338000
  198         c3      8    bbb     C3    198 0.51680000  12.010000   ; qtot 0.178800
  199         h1      8    bbb     H5    199 -0.05230000   1.008000   ; qtot 0.126500
  200         h1      8    bbb     H6    200 -0.05230000   1.008000   ; qtot 0.074200
  201         c3      8    bbb     C4    201 0.51680000  12.010000   ; qtot 0.591000
  202         h1      8    bbb     H7    202 -0.05230000   1.008000   ; qtot 0.538700
  203         h1      8    bbb     H8    203 -0.05230000   1.008000   ; qtot 0.486400
  204         c3      8    bbb     C5    204 -0.60390000  12.010000   ; qtot -0.117500
  205         hc      8    bbb     H9    205 0.16730000   1.008000   ; qtot 0.049800
  206         hc      8    bbb    H10    206 0.16730000   1.008000   ; qtot 0.217100
  207         c3      8    bbb     C6    207 -0.60390000  12.010000   ; qtot -0.386800
  208         hc      8    bbb    H11    208 0.16730000   1.008000   ; qtot -0.219500
  209         hc      8    bbb    H12    209 0.16730000   1.008000   ; qtot -0.052200
  210          c      8    bbb     C7    210 0.72110000  12.010000   ; qtot 0.668900
  211          c      8    bbb     C8    211 0.72110000  12.010000   ; qtot 1.390000
  212          o      8    bbb     O1    212 -0.61950000  16.000000   ; qtot 0.770500
  213          o      8    bbb     O2    213 -0.61950000  16.000000   ; qtot 0.151000
  214          n      8    bbb     N4    214 -0.46580000  14.010000   ; qtot -0.314800
  215         hn      8    bbb    H21    215 0.31480000   1.008000   ; qtot -0.000000
; residue    9 bbb rtp bbb q -0.0
  216         c3      9    bbb     C1    216 0.44180000  12.010000   ; qtot 0.441800
  217         h1      9    bbb     H1    217 -0.03530000   1.008000   ; qtot 0.406500
  218         h1      9    bbb     H2    218 -0.03530000   1.008000   ; qtot 0.371200
  219         c3      9    bbb     C2    219 -0.28250000  12.010000   ; qtot 0.088700
  220         h1      9    bbb     H3    220 0.15710000   1.008000   ; qtot 0.245800
  221         h1      9    bbb     H4    221 0.15710000   1.008000   ; qtot 0.402900
  222         n3      9    bbb     N1    222 -0.74090000  14.010000   ; qtot -0.338000
  223         c3      9    bbb     C3    223 0.51680000  12.010000   ; qtot 0.178800
  224         h1      9    bbb     H5    224 -0.05230000   1.008000   ; qtot 0.126500
  225         h1      9    bbb     H6    225 -0.05230000   1.008000   ; qtot 0.074200
  226         c3      9    bbb     C4    226 0.51680000  12.010000   ; qtot 0.591000
  227         h1      9    bbb     H7    227 -0.05230000   1.008000   ; qtot 0.538700
  228         h1      9    bbb     H8    228 -0.05230000   1.008000   ; qtot 0.486400
  229         c3      9    bbb     C5    229 -0.60390000  12.010000   ; qtot -0.117500
  230         hc      9    bbb     H9    230 0.16730000   1.008000   ; qtot 0.049800
  231         hc      9    bbb    H10    231 0.16730000   1.008000   ; qtot 0.217100
  232         c3      9    bbb     C6    232 -0.60390000  12.010000   ; qtot -0.386800
  233         hc      9    bbb    H11    233 0.16730000   1.008000   ; qtot -0.219500
  234         hc      9    bbb    H12    234 0.16730000   1.008000   ; qtot -0.052200
  235          c      9    bbb     C7    235 0.72110000  12.010000   ; qtot 0.668900
  236          c      9    bbb     C8    236 0.72110000  12.010000   ; qtot 1.390000
  237          o      9    bbb     O1    237 -0.61950000  16.000000   ; qtot 0.770500
  238          o      9    bbb     O2    238 -0.61950000  16.000000   ; qtot 0.151000
  239          n      9    bbb     N4    239 -0.46580000  14.010000   ; qtot -0.314800
  240         hn      9    bbb    H21    240 0.31480000   1.008000   ; qtot -0.000000
; residue   10 bbb rtp bbb q -0.0
  241         c3     10    bbb     C1    241 0.44180000  12.010000   ; qtot 0.441800
  242         h1     10    bbb     H1    242 -0.03530000   1.008000   ; qtot 0.406500
  243         h1     10    bbb     H2    243 -0.03530000   1.008000   ; qtot 0.371200
  244         c3     10    bbb     C2    244 -0.28250000  12.010000   ; qtot 0.088700
  245         h1     10    bbb     H3    245 0.15710000   1.008000   ; qtot 0.245800
  246         h1     10    bbb     H4    246 0.15710000   1.008000   ; qtot 0.402900
  247         n3     10    bbb     N1    247 -0.74090000  14.010000   ; qtot -0.338000
  248         c3     10    bbb     C3    248 0.51680000  12.010000   ; qtot 0.178800
  249         h1     10    bbb     H5    249 -0.05230000   1.008000   ; qtot 0.126500
  250         h1     10    bbb     H6    250 -0.05230000   1.008000   ; qtot 0.074200
  251         c3     10    bbb     C4    251 0.51680000  12.010000   ; qtot 0.591000
  252         h1     10    bbb     H7    252 -0.05230000   1.008000   ; qtot 0.538700
  253         h1     10    bbb     H8    253 -0.05230000   1.008000   ; qtot 0.486400
  254         c3     10    bbb     C5    254 -0.60390000  12.010000   ; qtot -0.117500
  255         hc     10    bbb     H9    255 0.16730000   1.008000   ; qtot 0.049800
  256         hc     10    bbb    H10    256 0.16730000   1.008000   ; qtot 0.217100
  257         c3     10    bbb     C6    257 -0.60390000  12.010000   ; qtot -0.386800
  258         hc     10    bbb    H11    258 0.16730000   1.008000   ; qtot -0.219500
  259         hc     10    bbb    H12    259 0.16730000   1.008000   ; qtot -0.052200
  260          c     10    bbb     C7    260 0.72110000  12.010000   ; qtot 0.668900
  261          c     10    bbb     C8    261 0.72110000  12.010000   ; qtot 1.390000
  262          o     10    bbb     O1    262 -0.61950000  16.000000   ; qtot 0.770500
  263          o     10    bbb     O2    263 -0.61950000  16.000000   ; qtot 0.151000
  264          n     10    bbb     N4    264 -0.46580000  14.010000   ; qtot -0.314800
  265         hn     10    bbb    H21    265 0.31480000   1.008000   ; qtot -0.000000
; residue   11 bbb rtp bbb q -0.0
  266         c3     11    bbb     C1    266 0.44180000  12.010000   ; qtot 0.441800
  267         h1     11    bbb     H1    267 -0.03530000   1.008000   ; qtot 0.406500
  268         h1     11    bbb     H2    268 -0.03530000   1.008000   ; qtot 0.371200
  269         c3     11    bbb     C2    269 -0.28250000  12.010000   ; qtot 0.088700
  270         h1     11    bbb     H3    270 0.15710000   1.008000   ; qtot 0.245800
  271         h1     11    bbb     H4    271 0.15710000   1.008000   ; qtot 0.402900
  272         n3     11    bbb     N1    272 -0.74090000  14.010000   ; qtot -0.338000
  273         c3     11    bbb     C3    273 0.51680000  12.010000   ; qtot 0.178800
  274         h1     11    bbb     H5    274 -0.05230000   1.008000   ; qtot 0.126500
  275         h1     11    bbb     H6    275 -0.05230000   1.008000   ; qtot 0.074200
  276         c3     11    bbb     C4    276 0.51680000  12.010000   ; qtot 0.591000
  277         h1     11    bbb     H7    277 -0.05230000   1.008000   ; qtot 0.538700
  278         h1     11    bbb     H8    278 -0.05230000   1.008000   ; qtot 0.486400
  279         c3     11    bbb     C5    279 -0.60390000  12.010000   ; qtot -0.117500
  280         hc     11    bbb     H9    280 0.16730000   1.008000   ; qtot 0.049800
  281         hc     11    bbb    H10    281 0.16730000   1.008000   ; qtot 0.217100
  282         c3     11    bbb     C6    282 -0.60390000  12.010000   ; qtot -0.386800
  283         hc     11    bbb    H11    283 0.16730000   1.008000   ; qtot -0.219500
  284         hc     11    bbb    H12    284 0.16730000   1.008000   ; qtot -0.052200
  285          c     11    bbb     C7    285 0.72110000  12.010000   ; qtot 0.668900
  286          c     11    bbb     C8    286 0.72110000  12.010000   ; qtot 1.390000
  287          o     11    bbb     O1    287 -0.61950000  16.000000   ; qtot 0.770500
  288          o     11    bbb     O2    288 -0.61950000  16.000000   ; qtot 0.151000
  289          n     11    bbb     N4    289 -0.46580000  14.010000   ; qtot -0.314800
  290         hn     11    bbb    H21    290 0.31480000   1.008000   ; qtot -0.000000
; residue   12 bbb rtp bbb q -0.0
  291         c3     12    bbb     C1    291 0.44180000  12.010000   ; qtot 0.441800
  292         h1     12    bbb     H1    292 -0.03530000   1.008000   ; qtot 0.406500
  293         h1     12    bbb     H2    293 -0.03530000   1.008000   ; qtot 0.371200
  294         c3     12    bbb     C2    294 -0.28250000  12.010000   ; qtot 0.088700
  295         h1     12    bbb     H3    295 0.15710000   1.008000   ; qtot 0.245800
  296         h1     12    bbb     H4    296 0.15710000   1.008000   ; qtot 0.402900
  297         n3     12    bbb     N1    297 -0.74090000  14.010000   ; qtot -0.338000
  298         c3     12    bbb     C3    298 0.51680000  12.010000   ; qtot 0.178800
  299         h1     12    bbb     H5    299 -0.05230000   1.008000   ; qtot 0.126500
  300         h1     12    bbb     H6    300 -0.05230000   1.008000   ; qtot 0.074200
  301         c3     12    bbb     C4    301 0.51680000  12.010000   ; qtot 0.591000
  302         h1     12    bbb     H7    302 -0.05230000   1.008000   ; qtot 0.538700
  303         h1     12    bbb     H8    303 -0.05230000   1.008000   ; qtot 0.486400
  304         c3     12    bbb     C5    304 -0.60390000  12.010000   ; qtot -0.117500
  305         hc     12    bbb     H9    305 0.16730000   1.008000   ; qtot 0.049800
  306         hc     12    bbb    H10    306 0.16730000   1.008000   ; qtot 0.217100
  307         c3     12    bbb     C6    307 -0.60390000  12.010000   ; qtot -0.386800
  308         hc     12    bbb    H11    308 0.16730000   1.008000   ; qtot -0.219500
  309         hc     12    bbb    H12    309 0.16730000   1.008000   ; qtot -0.052200
  310          c     12    bbb     C7    310 0.72110000  12.010000   ; qtot 0.668900
  311          c     12    bbb     C8    311 0.72110000  12.010000   ; qtot 1.390000
  312          o     12    bbb     O1    312 -0.61950000  16.000000   ; qtot 0.770500
  313          o     12    bbb     O2    313 -0.61950000  16.000000   ; qtot 0.151000
  314          n     12    bbb     N4    314 -0.46580000  14.010000   ; qtot -0.314800
  315         hn     12    bbb    H21    315 0.31480000   1.008000   ; qtot -0.000000
; residue   13 bbb rtp bbb q -0.0
  316         c3     13    bbb     C1    316 0.44180000  12.010000   ; qtot 0.441800
  317         h1     13    bbb     H1    317 -0.03530000   1.008000   ; qtot 0.406500
  318         h1     13    bbb     H2    318 -0.03530000   1.008000   ; qtot 0.371200
  319         c3     13    bbb     C2    319 -0.28250000  12.010000   ; qtot 0.088700
  320         h1     13    bbb     H3    320 0.15710000   1.008000   ; qtot 0.245800
  321         h1     13    bbb     H4    321 0.15710000   1.008000   ; qtot 0.402900
  322         n3     13    bbb     N1    322 -0.74090000  14.010000   ; qtot -0.338000
  323         c3     13    bbb     C3    323 0.51680000  12.010000   ; qtot 0.178800
  324         h1     13    bbb     H5    324 -0.05230000   1.008000   ; qtot 0.126500
  325         h1     13    bbb     H6    325 -0.05230000   1.008000   ; qtot 0.074200
  326         c3     13    bbb     C4    326 0.51680000  12.010000   ; qtot 0.591000
  327         h1     13    bbb     H7    327 -0.05230000   1.008000   ; qtot 0.538700
  328         h1     13    bbb     H8    328 -0.05230000   1.008000   ; qtot 0.486400
  329         c3     13    bbb     C5    329 -0.60390000  12.010000   ; qtot -0.117500
  330         hc     13    bbb     H9    330 0.16730000   1.008000   ; qtot 0.049800
  331         hc     13    bbb    H10    331 0.16730000   1.008000   ; qtot 0.217100
  332         c3     13    bbb     C6    332 -0.60390000  12.010000   ; qtot -0.386800
  333         hc     13    bbb    H11    333 0.16730000   1.008000   ; qtot -0.219500
  334         hc     13    bbb    H12    334 0.16730000   1.008000   ; qtot -0.052200
  335          c     13    bbb     C7    335 0.72110000  12.010000   ; qtot 0.668900
  336          c     13    bbb     C8    336 0.72110000  12.010000   ; qtot 1.390000
  337          o     13    bbb     O1    337 -0.61950000  16.000000   ; qtot 0.770500
  338          o     13    bbb     O2    338 -0.61950000  16.000000   ; qtot 0.151000
  339          n     13    bbb     N4    339 -0.46580000  14.010000   ; qtot -0.314800
  340         hn     13    bbb    H21    340 0.31480000   1.008000   ; qtot -0.000000
; residue   14 ccc rtp ccc q -2.0
  341          n     14    ccc     N1    341 -0.63700000  14.010000   ; qtot -0.637000
  342         hn     14    ccc     H4    342 0.34234400   1.008000   ; qtot -0.294656
  343         c3     14    ccc     C3    343 0.01091100  12.010000   ; qtot -0.283745
  344         h1     14    ccc     H5    344 0.11190000   1.008000   ; qtot -0.171845
  345         c3     14    ccc     C4    345 -0.06161800  12.010000   ; qtot -0.233463
  346         h1     14    ccc     H6    346 0.11190000   1.008000   ; qtot -0.121563
  347         h1     14    ccc     H7    347 0.11248000   1.008000   ; qtot -0.009083
  348         h1     14    ccc     H8    348 0.11248000   1.008000   ; qtot 0.103397
  349         n3     14    ccc     N2    349 -0.49292700  14.010000   ; qtot -0.389530
  350         c3     14    ccc     C5    350 0.00117700  12.010000   ; qtot -0.388353
  351         c3     14    ccc     C6    351 0.00117700  12.010000   ; qtot -0.387176
  352         h1     14    ccc     H9    352 0.05345200   1.008000   ; qtot -0.333724
  353         c3     14    ccc     C7    353 0.03104100  12.010000   ; qtot -0.302683
  354         h1     14    ccc    H10    354 0.05345200   1.008000   ; qtot -0.249231
  355         hc     14    ccc    H11    355 -0.03377200   1.008000   ; qtot -0.283003
  356         hc     14    ccc    H12    356 -0.03377200   1.008000   ; qtot -0.316775
  357          c     14    ccc     C8    357 0.93072900  12.010000   ; qtot 0.613954
  358          o     14    ccc     O2    358 -0.90377100  16.000000   ; qtot -0.289817
  359          o     14    ccc     O3    359 -0.90377100  16.000000   ; qtot -1.193588
  360         h1     14    ccc    H13    360 0.05345200   1.008000   ; qtot -1.140136
  361         h1     14    ccc    H14    361 0.05345200   1.008000   ; qtot -1.086684
  362         c3     14    ccc     C9    362 0.03104100  12.010000   ; qtot -1.055643
  363         hc     14    ccc    H15    363 -0.03377200   1.008000   ; qtot -1.089415
  364         hc     14    ccc    H16    364 -0.03377200   1.008000   ; qtot -1.123187
  365          c     14    ccc    C10    365 0.93072900  12.010000   ; qtot -0.192458
  366          o     14    ccc     O4    366 -0.90377100  16.000000   ; qtot -1.096229
  367          o     14    ccc     O5    367 -0.90377100  16.000000   ; qtot -2.000000
; residue   15 ccc rtp ccc q -2.0
  368          n     15    ccc     N1    368 -0.63700000  14.010000   ; qtot -2.637000
  369         hn     15    ccc     H4    369 0.34234400   1.008000   ; qtot -2.294656
  370         c3     15    ccc     C3    370 0.01091100  12.010000   ; qtot -2.283745
  371         h1     15    ccc     H5    371 0.11190000   1.008000   ; qtot -2.171845
  372         c3     15    ccc     C4    372 -0.06161800  12.010000   ; qtot -2.233463
  373         h1     15    ccc     H6    373 0.11190000   1.008000   ; qtot -2.121563
  374         h1     15    ccc     H7    374 0.11248000   1.008000   ; qtot -2.009083
  375         h1     15    ccc     H8    375 0.11248000   1.008000   ; qtot -1.896603
  376         n3     15    ccc     N2    376 -0.49292700  14.010000   ; qtot -2.389530
  377         c3     15    ccc     C5    377 0.00117700  12.010000   ; qtot -2.388353
  378         c3     15    ccc     C6    378 0.00117700  12.010000   ; qtot -2.387176
  379         h1     15    ccc     H9    379 0.05345200   1.008000   ; qtot -2.333724
  380         c3     15    ccc     C7    380 0.03104100  12.010000   ; qtot -2.302683
  381         h1     15    ccc    H10    381 0.05345200   1.008000   ; qtot -2.249231
  382         hc     15    ccc    H11    382 -0.03377200   1.008000   ; qtot -2.283003
  383         hc     15    ccc    H12    383 -0.03377200   1.008000   ; qtot -2.316775
  384          c     15    ccc     C8    384 0.93072900  12.010000   ; qtot -1.386046
  385          o     15    ccc     O2    385 -0.90377100  16.000000   ; qtot -2.289817
  386          o     15    ccc     O3    386 -0.90377100  16.000000   ; qtot -3.193588
  387         h1     15    ccc    H13    387 0.05345200   1.008000   ; qtot -3.140136
  388         h1     15    ccc    H14    388 0.05345200   1.008000   ; qtot -3.086684
  389         c3     15    ccc     C9    389 0.03104100  12.010000   ; qtot -3.055643
  390         hc     15    ccc    H15    390 -0.03377200   1.008000   ; qtot -3.089415
  391         hc     15    ccc    H16    391 -0.03377200   1.008000   ; qtot -3.123187
  392          c     15    ccc    C10    392 0.93072900  12.010000   ; qtot -2.192458
  393          o     15    ccc     O4    393 -0.90377100  16.000000   ; qtot -3.096229
  394          o     15    ccc     O5    394 -0.90377100  16.000000   ; qtot -4.000000
; residue   16 ccc rtp ccc q -2.0
  395          n     16    ccc     N1    395 -0.63700000  14.010000   ; qtot -4.637000
  396         hn     16    ccc     H4    396 0.34234400   1.008000   ; qtot -4.294656
  397         c3     16    ccc     C3    397 0.01091100  12.010000   ; qtot -4.283745
  398         h1     16    ccc     H5    398 0.11190000   1.008000   ; qtot -4.171845
  399         c3     16    ccc     C4    399 -0.06161800  12.010000   ; qtot -4.233463
  400         h1     16    ccc     H6    400 0.11190000   1.008000   ; qtot -4.121563
  401         h1     16    ccc     H7    401 0.11248000   1.008000   ; qtot -4.009083
  402         h1     16    ccc     H8    402 0.11248000   1.008000   ; qtot -3.896603
  403         n3     16    ccc     N2    403 -0.49292700  14.010000   ; qtot -4.389530
  404         c3     16    ccc     C5    404 0.00117700  12.010000   ; qtot -4.388353
  405         c3     16    ccc     C6    405 0.00117700  12.010000   ; qtot -4.387176
  406         h1     16    ccc     H9    406 0.05345200   1.008000   ; qtot -4.333724
  407         c3     16    ccc     C7    407 0.03104100  12.010000   ; qtot -4.302683
  408         h1     16    ccc    H10    408 0.05345200   1.008000   ; qtot -4.249231
  409         hc     16    ccc    H11    409 -0.03377200   1.008000   ; qtot -4.283003
  410         hc     16    ccc    H12    410 -0.03377200   1.008000   ; qtot -4.316775
  411          c     16    ccc     C8    411 0.93072900  12.010000   ; qtot -3.386046
  412          o     16    ccc     O2    412 -0.90377100  16.000000   ; qtot -4.289817
  413          o     16    ccc     O3    413 -0.90377100  16.000000   ; qtot -5.193588
  414         h1     16    ccc    H13    414 0.05345200   1.008000   ; qtot -5.140136
  415         h1     16    ccc    H14    415 0.05345200   1.008000   ; qtot -5.086684
  416         c3     16    ccc     C9    416 0.03104100  12.010000   ; qtot -5.055643
  417         hc     16    ccc    H15    417 -0.03377200   1.008000   ; qtot -5.089415
  418         hc     16    ccc    H16    418 -0.03377200   1.008000   ; qtot -5.123187
  419          c     16    ccc    C10    419 0.93072900  12.010000   ; qtot -4.192458
  420          o     16    ccc     O4    420 -0.90377100  16.000000   ; qtot -5.096229
  421          o     16    ccc     O5    421 -0.90377100  16.000000   ; qtot -6.000000
; residue   17 ccc rtp ccc q -2.0
  422          n     17    ccc     N1    422 -0.63700000  14.010000   ; qtot -6.637000
  423         hn     17    ccc     H4    423 0.34234400   1.008000   ; qtot -6.294656
  424         c3     17    ccc     C3    424 0.01091100  12.010000   ; qtot -6.283745
  425         h1     17    ccc     H5    425 0.11190000   1.008000   ; qtot -6.171845
  426         c3     17    ccc     C4    426 -0.06161800  12.010000   ; qtot -6.233463
  427         h1     17    ccc     H6    427 0.11190000   1.008000   ; qtot -6.121563
  428         h1     17    ccc     H7    428 0.11248000   1.008000   ; qtot -6.009083
  429         h1     17    ccc     H8    429 0.11248000   1.008000   ; qtot -5.896603
  430         n3     17    ccc     N2    430 -0.49292700  14.010000   ; qtot -6.389530
  431         c3     17    ccc     C5    431 0.00117700  12.010000   ; qtot -6.388353
  432         c3     17    ccc     C6    432 0.00117700  12.010000   ; qtot -6.387176
  433         h1     17    ccc     H9    433 0.05345200   1.008000   ; qtot -6.333724
  434         c3     17    ccc     C7    434 0.03104100  12.010000   ; qtot -6.302683
  435         h1     17    ccc    H10    435 0.05345200   1.008000   ; qtot -6.249231
  436         hc     17    ccc    H11    436 -0.03377200   1.008000   ; qtot -6.283003
  437         hc     17    ccc    H12    437 -0.03377200   1.008000   ; qtot -6.316775
  438          c     17    ccc     C8    438 0.93072900  12.010000   ; qtot -5.386046
  439          o     17    ccc     O2    439 -0.90377100  16.000000   ; qtot -6.289817
  440          o     17    ccc     O3    440 -0.90377100  16.000000   ; qtot -7.193588
  441         h1     17    ccc    H13    441 0.05345200   1.008000   ; qtot -7.140136
  442         h1     17    ccc    H14    442 0.05345200   1.008000   ; qtot -7.086684
  443         c3     17    ccc     C9    443 0.03104100  12.010000   ; qtot -7.055643
  444         hc     17    ccc    H15    444 -0.03377200   1.008000   ; qtot -7.089415
  445         hc     17    ccc    H16    445 -0.03377200   1.008000   ; qtot -7.123187
  446          c     17    ccc    C10    446 0.93072900  12.010000   ; qtot -6.192458
  447          o     17    ccc     O4    447 -0.90377100  16.000000   ; qtot -7.096229
  448          o     17    ccc     O5    448 -0.90377100  16.000000   ; qtot -8.000000
; residue   18 ccc rtp ccc q -2.0
  449          n     18    ccc     N1    449 -0.63700000  14.010000   ; qtot -8.637000
  450         hn     18    ccc     H4    450 0.34234400   1.008000   ; qtot -8.294656
  451         c3     18    ccc     C3    451 0.01091100  12.010000   ; qtot -8.283745
  452         h1     18    ccc     H5    452 0.11190000   1.008000   ; qtot -8.171845
  453         c3     18    ccc     C4    453 -0.06161800  12.010000   ; qtot -8.233463
  454         h1     18    ccc     H6    454 0.11190000   1.008000   ; qtot -8.121563
  455         h1     18    ccc     H7    455 0.11248000   1.008000   ; qtot -8.009083
  456         h1     18    ccc     H8    456 0.11248000   1.008000   ; qtot -7.896603
  457         n3     18    ccc     N2    457 -0.49292700  14.010000   ; qtot -8.389530
  458         c3     18    ccc     C5    458 0.00117700  12.010000   ; qtot -8.388353
  459         c3     18    ccc     C6    459 0.00117700  12.010000   ; qtot -8.387176
  460         h1     18    ccc     H9    460 0.05345200   1.008000   ; qtot -8.333724
  461         c3     18    ccc     C7    461 0.03104100  12.010000   ; qtot -8.302683
  462         h1     18    ccc    H10    462 0.05345200   1.008000   ; qtot -8.249231
  463         hc     18    ccc    H11    463 -0.03377200   1.008000   ; qtot -8.283003
  464         hc     18    ccc    H12    464 -0.03377200   1.008000   ; qtot -8.316775
  465          c     18    ccc     C8    465 0.93072900  12.010000   ; qtot -7.386046
  466          o     18    ccc     O2    466 -0.90377100  16.000000   ; qtot -8.289817
  467          o     18    ccc     O3    467 -0.90377100  16.000000   ; qtot -9.193588
  468         h1     18    ccc    H13    468 0.05345200   1.008000   ; qtot -9.140136
  469         h1     18    ccc    H14    469 0.05345200   1.008000   ; qtot -9.086684
  470         c3     18    ccc     C9    470 0.03104100  12.010000   ; qtot -9.055643
  471         hc     18    ccc    H15    471 -0.03377200   1.008000   ; qtot -9.089415
  472         hc     18    ccc    H16    472 -0.03377200   1.008000   ; qtot -9.123187
  473          c     18    ccc    C10    473 0.93072900  12.010000   ; qtot -8.192458
  474          o     18    ccc     O4    474 -0.90377100  16.000000   ; qtot -9.096229
  475          o     18    ccc     O5    475 -0.90377100  16.000000   ; qtot -10.000000
; residue   19 ccc rtp ccc q -2.0
  476          n     19    ccc     N1    476 -0.63700000  14.010000   ; qtot -10.637000
  477         hn     19    ccc     H4    477 0.34234400   1.008000   ; qtot -10.294656
  478         c3     19    ccc     C3    478 0.01091100  12.010000   ; qtot -10.283745
  479         h1     19    ccc     H5    479 0.11190000   1.008000   ; qtot -10.171845
  480         c3     19    ccc     C4    480 -0.06161800  12.010000   ; qtot -10.233463
  481         h1     19    ccc     H6    481 0.11190000   1.008000   ; qtot -10.121563
  482         h1     19    ccc     H7    482 0.11248000   1.008000   ; qtot -10.009083
  483         h1     19    ccc     H8    483 0.11248000   1.008000   ; qtot -9.896603
  484         n3     19    ccc     N2    484 -0.49292700  14.010000   ; qtot -10.389530
  485         c3     19    ccc     C5    485 0.00117700  12.010000   ; qtot -10.388353
  486         c3     19    ccc     C6    486 0.00117700  12.010000   ; qtot -10.387176
  487         h1     19    ccc     H9    487 0.05345200   1.008000   ; qtot -10.333724
  488         c3     19    ccc     C7    488 0.03104100  12.010000   ; qtot -10.302683
  489         h1     19    ccc    H10    489 0.05345200   1.008000   ; qtot -10.249231
  490         hc     19    ccc    H11    490 -0.03377200   1.008000   ; qtot -10.283003
  491         hc     19    ccc    H12    491 -0.03377200   1.008000   ; qtot -10.316775
  492          c     19    ccc     C8    492 0.93072900  12.010000   ; qtot -9.386046
  493          o     19    ccc     O2    493 -0.90377100  16.000000   ; qtot -10.289817
  494          o     19    ccc     O3    494 -0.90377100  16.000000   ; qtot -11.193588
  495         h1     19    ccc    H13    495 0.05345200   1.008000   ; qtot -11.140136
  496         h1     19    ccc    H14    496 0.05345200   1.008000   ; qtot -11.086684
  497         c3     19    ccc     C9    497 0.03104100  12.010000   ; qtot -11.055643
  498         hc     19    ccc    H15    498 -0.03377200   1.008000   ; qtot -11.089415
  499         hc     19    ccc    H16    499 -0.03377200   1.008000   ; qtot -11.123187
  500          c     19    ccc    C10    500 0.93072900  12.010000   ; qtot -10.192458
  501          o     19    ccc     O4    501 -0.90377100  16.000000   ; qtot -11.096229
  502          o     19    ccc     O5    502 -0.90377100  16.000000   ; qtot -12.000000
; residue   20 ccc rtp ccc q -2.0
  503          n     20    ccc     N1    503 -0.63700000  14.010000   ; qtot -12.637000
  504         hn     20    ccc     H4    504 0.34234400   1.008000   ; qtot -12.294656
  505         c3     20    ccc     C3    505 0.01091100  12.010000   ; qtot -12.283745
  506         h1     20    ccc     H5    506 0.11190000   1.008000   ; qtot -12.171845
  507         c3     20    ccc     C4    507 -0.06161800  12.010000   ; qtot -12.233463
  508         h1     20    ccc     H6    508 0.11190000   1.008000   ; qtot -12.121563
  509         h1     20    ccc     H7    509 0.11248000   1.008000   ; qtot -12.009083
  510         h1     20    ccc     H8    510 0.11248000   1.008000   ; qtot -11.896603
  511         n3     20    ccc     N2    511 -0.49292700  14.010000   ; qtot -12.389530
  512         c3     20    ccc     C5    512 0.00117700  12.010000   ; qtot -12.388353
  513         c3     20    ccc     C6    513 0.00117700  12.010000   ; qtot -12.387176
  514         h1     20    ccc     H9    514 0.05345200   1.008000   ; qtot -12.333724
  515         c3     20    ccc     C7    515 0.03104100  12.010000   ; qtot -12.302683
  516         h1     20    ccc    H10    516 0.05345200   1.008000   ; qtot -12.249231
  517         hc     20    ccc    H11    517 -0.03377200   1.008000   ; qtot -12.283003
  518         hc     20    ccc    H12    518 -0.03377200   1.008000   ; qtot -12.316775
  519          c     20    ccc     C8    519 0.93072900  12.010000   ; qtot -11.386046
  520          o     20    ccc     O2    520 -0.90377100  16.000000   ; qtot -12.289817
  521          o     20    ccc     O3    521 -0.90377100  16.000000   ; qtot -13.193588
  522         h1     20    ccc    H13    522 0.05345200   1.008000   ; qtot -13.140136
  523         h1     20    ccc    H14    523 0.05345200   1.008000   ; qtot -13.086684
  524         c3     20    ccc     C9    524 0.03104100  12.010000   ; qtot -13.055643
  525         hc     20    ccc    H15    525 -0.03377200   1.008000   ; qtot -13.089415
  526         hc     20    ccc    H16    526 -0.03377200   1.008000   ; qtot -13.123187
  527          c     20    ccc    C10    527 0.93072900  12.010000   ; qtot -12.192458
  528          o     20    ccc     O4    528 -0.90377100  16.000000   ; qtot -13.096229
  529          o     20    ccc     O5    529 -0.90377100  16.000000   ; qtot -14.000000
; residue   21 ccc rtp ccc q -2.0
  530          n     21    ccc     N1    530 -0.63700000  14.010000   ; qtot -14.637000
  531         hn     21    ccc     H4    531 0.34234400   1.008000   ; qtot -14.294656
  532         c3     21    ccc     C3    532 0.01091100  12.010000   ; qtot -14.283745
  533         h1     21    ccc     H5    533 0.11190000   1.008000   ; qtot -14.171845
  534         c3     21    ccc     C4    534 -0.06161800  12.010000   ; qtot -14.233463
  535         h1     21    ccc     H6    535 0.11190000   1.008000   ; qtot -14.121563
  536         h1     21    ccc     H7    536 0.11248000   1.008000   ; qtot -14.009083
  537         h1     21    ccc     H8    537 0.11248000   1.008000   ; qtot -13.896603
  538         n3     21    ccc     N2    538 -0.49292700  14.010000   ; qtot -14.389530
  539         c3     21    ccc     C5    539 0.00117700  12.010000   ; qtot -14.388353
  540         c3     21    ccc     C6    540 0.00117700  12.010000   ; qtot -14.387176
  541         h1     21    ccc     H9    541 0.05345200   1.008000   ; qtot -14.333724
  542         c3     21    ccc     C7    542 0.03104100  12.010000   ; qtot -14.302683
  543         h1     21    ccc    H10    543 0.05345200   1.008000   ; qtot -14.249231
  544         hc     21    ccc    H11    544 -0.03377200   1.008000   ; qtot -14.283003
  545         hc     21    ccc    H12    545 -0.03377200   1.008000   ; qtot -14.316775
  546          c     21    ccc     C8    546 0.93072900  12.010000   ; qtot -13.386046
  547          o     21    ccc     O2    547 -0.90377100  16.000000   ; qtot -14.289817
  548          o     21    ccc     O3    548 -0.90377100  16.000000   ; qtot -15.193588
  549         h1     21    ccc    H13    549 0.05345200   1.008000   ; qtot -15.140136
  550         h1     21    ccc    H14    550 0.05345200   1.008000   ; qtot -15.086684
  551         c3     21    ccc     C9    551 0.03104100  12.010000   ; qtot -15.055643
  552         hc     21    ccc    H15    552 -0.03377200   1.008000   ; qtot -15.089415
  553         hc     21    ccc    H16    553 -0.03377200   1.008000   ; qtot -15.123187
  554          c     21    ccc    C10    554 0.93072900  12.010000   ; qtot -14.192458
  555          o     21    ccc     O4    555 -0.90377100  16.000000   ; qtot -15.096229
  556          o     21    ccc     O5    556 -0.90377100  16.000000   ; qtot -16.000000
; residue   22 ccc rtp ccc q -2.0
  557          n     22    ccc     N1    557 -0.63700000  14.010000   ; qtot -16.637000
  558         hn     22    ccc     H4    558 0.34234400   1.008000   ; qtot -16.294656
  559         c3     22    ccc     C3    559 0.01091100  12.010000   ; qtot -16.283745
  560         h1     22    ccc     H5    560 0.11190000   1.008000   ; qtot -16.171845
  561         c3     22    ccc     C4    561 -0.06161800  12.010000   ; qtot -16.233463
  562         h1     22    ccc     H6    562 0.11190000   1.008000   ; qtot -16.121563
  563         h1     22    ccc     H7    563 0.11248000   1.008000   ; qtot -16.009083
  564         h1     22    ccc     H8    564 0.11248000   1.008000   ; qtot -15.896603
  565         n3     22    ccc     N2    565 -0.49292700  14.010000   ; qtot -16.389530
  566         c3     22    ccc     C5    566 0.00117700  12.010000   ; qtot -16.388353
  567         c3     22    ccc     C6    567 0.00117700  12.010000   ; qtot -16.387176
  568         h1     22    ccc     H9    568 0.05345200   1.008000   ; qtot -16.333724
  569         c3     22    ccc     C7    569 0.03104100  12.010000   ; qtot -16.302683
  570         h1     22    ccc    H10    570 0.05345200   1.008000   ; qtot -16.249231
  571         hc     22    ccc    H11    571 -0.03377200   1.008000   ; qtot -16.283003
  572         hc     22    ccc    H12    572 -0.03377200   1.008000   ; qtot -16.316775
  573          c     22    ccc     C8    573 0.93072900  12.010000   ; qtot -15.386046
  574          o     22    ccc     O2    574 -0.90377100  16.000000   ; qtot -16.289817
  575          o     22    ccc     O3    575 -0.90377100  16.000000   ; qtot -17.193588
  576         h1     22    ccc    H13    576 0.05345200   1.008000   ; qtot -17.140136
  577         h1     22    ccc    H14    577 0.05345200   1.008000   ; qtot -17.086684
  578         c3     22    ccc     C9    578 0.03104100  12.010000   ; qtot -17.055643
  579         hc     22    ccc    H15    579 -0.03377200   1.008000   ; qtot -17.089415
  580         hc     22    ccc    H16    580 -0.03377200   1.008000   ; qtot -17.123187
  581          c     22    ccc    C10    581 0.93072900  12.010000   ; qtot -16.192458
  582          o     22    ccc     O4    582 -0.90377100  16.000000   ; qtot -17.096229
  583          o     22    ccc     O5    583 -0.90377100  16.000000   ; qtot -18.000000
; residue   23 ccc rtp ccc q -2.0
  584          n     23    ccc     N1    584 -0.63700000  14.010000   ; qtot -18.637000
  585         hn     23    ccc     H4    585 0.34234400   1.008000   ; qtot -18.294656
  586         c3     23    ccc     C3    586 0.01091100  12.010000   ; qtot -18.283745
  587         h1     23    ccc     H5    587 0.11190000   1.008000   ; qtot -18.171845
  588         c3     23    ccc     C4    588 -0.06161800  12.010000   ; qtot -18.233463
  589         h1     23    ccc     H6    589 0.11190000   1.008000   ; qtot -18.121563
  590         h1     23    ccc     H7    590 0.11248000   1.008000   ; qtot -18.009083
  591         h1     23    ccc     H8    591 0.11248000   1.008000   ; qtot -17.896603
  592         n3     23    ccc     N2    592 -0.49292700  14.010000   ; qtot -18.389530
  593         c3     23    ccc     C5    593 0.00117700  12.010000   ; qtot -18.388353
  594         c3     23    ccc     C6    594 0.00117700  12.010000   ; qtot -18.387176
  595         h1     23    ccc     H9    595 0.05345200   1.008000   ; qtot -18.333724
  596         c3     23    ccc     C7    596 0.03104100  12.010000   ; qtot -18.302683
  597         h1     23    ccc    H10    597 0.05345200   1.008000   ; qtot -18.249231
  598         hc     23    ccc    H11    598 -0.03377200   1.008000   ; qtot -18.283003
  599         hc     23    ccc    H12    599 -0.03377200   1.008000   ; qtot -18.316775
  600          c     23    ccc     C8    600 0.93072900  12.010000   ; qtot -17.386046
  601          o     23    ccc     O2    601 -0.90377100  16.000000   ; qtot -18.289817
  602          o     23    ccc     O3    602 -0.90377100  16.000000   ; qtot -19.193588
  603         h1     23    ccc    H13    603 0.05345200   1.008000   ; qtot -19.140136
  604         h1     23    ccc    H14    604 0.05345200   1.008000   ; qtot -19.086684
  605         c3     23    ccc     C9    605 0.03104100  12.010000   ; qtot -19.055643
  606         hc     23    ccc    H15    606 -0.03377200   1.008000   ; qtot -19.089415
  607         hc     23    ccc    H16    607 -0.03377200   1.008000   ; qtot -19.123187
  608          c     23    ccc    C10    608 0.93072900  12.010000   ; qtot -18.192458
  609          o     23    ccc     O4    609 -0.90377100  16.000000   ; qtot -19.096229
  610          o     23    ccc     O5    610 -0.90377100  16.000000   ; qtot -20.000000
; residue   24 ccc rtp ccc q -2.0
  611          n     24    ccc     N1    611 -0.63700000  14.010000   ; qtot -20.637000
  612         hn     24    ccc     H4    612 0.34234400   1.008000   ; qtot -20.294656
  613         c3     24    ccc     C3    613 0.01091100  12.010000   ; qtot -20.283745
  614         h1     24    ccc     H5    614 0.11190000   1.008000   ; qtot -20.171845
  615         c3     24    ccc     C4    615 -0.06161800  12.010000   ; qtot -20.233463
  616         h1     24    ccc     H6    616 0.11190000   1.008000   ; qtot -20.121563
  617         h1     24    ccc     H7    617 0.11248000   1.008000   ; qtot -20.009083
  618         h1     24    ccc     H8    618 0.11248000   1.008000   ; qtot -19.896603
  619         n3     24    ccc     N2    619 -0.49292700  14.010000   ; qtot -20.389530
  620         c3     24    ccc     C5    620 0.00117700  12.010000   ; qtot -20.388353
  621         c3     24    ccc     C6    621 0.00117700  12.010000   ; qtot -20.387176
  622         h1     24    ccc     H9    622 0.05345200   1.008000   ; qtot -20.333724
  623         c3     24    ccc     C7    623 0.03104100  12.010000   ; qtot -20.302683
  624         h1     24    ccc    H10    624 0.05345200   1.008000   ; qtot -20.249231
  625         hc     24    ccc    H11    625 -0.03377200   1.008000   ; qtot -20.283003
  626         hc     24    ccc    H12    626 -0.03377200   1.008000   ; qtot -20.316775
  627          c     24    ccc     C8    627 0.93072900  12.010000   ; qtot -19.386046
  628          o     24    ccc     O2    628 -0.90377100  16.000000   ; qtot -20.289817
  629          o     24    ccc     O3    629 -0.90377100  16.000000   ; qtot -21.193588
  630         h1     24    ccc    H13    630 0.05345200   1.008000   ; qtot -21.140136
  631         h1     24    ccc    H14    631 0.05345200   1.008000   ; qtot -21.086684
  632         c3     24    ccc     C9    632 0.03104100  12.010000   ; qtot -21.055643
  633         hc     24    ccc    H15    633 -0.03377200   1.008000   ; qtot -21.089415
  634         hc     24    ccc    H16    634 -0.03377200   1.008000   ; qtot -21.123187
  635          c     24    ccc    C10    635 0.93072900  12.010000   ; qtot -20.192458
  636          o     24    ccc     O4    636 -0.90377100  16.000000   ; qtot -21.096229
  637          o     24    ccc     O5    637 -0.90377100  16.000000   ; qtot -22.000000
; residue   25 ccc rtp ccc q -2.0
  638          n     25    ccc     N1    638 -0.63700000  14.010000   ; qtot -22.637000
  639         hn     25    ccc     H4    639 0.34234400   1.008000   ; qtot -22.294656
  640         c3     25    ccc     C3    640 0.01091100  12.010000   ; qtot -22.283745
  641         h1     25    ccc     H5    641 0.11190000   1.008000   ; qtot -22.171845
  642         c3     25    ccc     C4    642 -0.06161800  12.010000   ; qtot -22.233463
  643         h1     25    ccc     H6    643 0.11190000   1.008000   ; qtot -22.121563
  644         h1     25    ccc     H7    644 0.11248000   1.008000   ; qtot -22.009083
  645         h1     25    ccc     H8    645 0.11248000   1.008000   ; qtot -21.896603
  646         n3     25    ccc     N2    646 -0.49292700  14.010000   ; qtot -22.389530
  647         c3     25    ccc     C5    647 0.00117700  12.010000   ; qtot -22.388353
  648         c3     25    ccc     C6    648 0.00117700  12.010000   ; qtot -22.387176
  649         h1     25    ccc     H9    649 0.05345200   1.008000   ; qtot -22.333724
  650         c3     25    ccc     C7    650 0.03104100  12.010000   ; qtot -22.302683
  651         h1     25    ccc    H10    651 0.05345200   1.008000   ; qtot -22.249231
  652         hc     25    ccc    H11    652 -0.03377200   1.008000   ; qtot -22.283003
  653         hc     25    ccc    H12    653 -0.03377200   1.008000   ; qtot -22.316775
  654          c     25    ccc     C8    654 0.93072900  12.010000   ; qtot -21.386046
  655          o     25    ccc     O2    655 -0.90377100  16.000000   ; qtot -22.289817
  656          o     25    ccc     O3    656 -0.90377100  16.000000   ; qtot -23.193588
  657         h1     25    ccc    H13    657 0.05345200   1.008000   ; qtot -23.140136
  658         h1     25    ccc    H14    658 0.05345200   1.008000   ; qtot -23.086684
  659         c3     25    ccc     C9    659 0.03104100  12.010000   ; qtot -23.055643
  660         hc     25    ccc    H15    660 -0.03377200   1.008000   ; qtot -23.089415
  661         hc     25    ccc    H16    661 -0.03377200   1.008000   ; qtot -23.123187
  662          c     25    ccc    C10    662 0.93072900  12.010000   ; qtot -22.192458
  663          o     25    ccc     O4    663 -0.90377100  16.000000   ; qtot -23.096229
  664          o     25    ccc     O5    664 -0.90377100  16.000000   ; qtot -24.000000
; residue   26 ccc rtp ccc q -2.0
  665          n     26    ccc     N1    665 -0.63700000  14.010000   ; qtot -24.637000
  666         hn     26    ccc     H4    666 0.34234400   1.008000   ; qtot -24.294656
  667         c3     26    ccc     C3    667 0.01091100  12.010000   ; qtot -24.283745
  668         h1     26    ccc     H5    668 0.11190000   1.008000   ; qtot -24.171845
  669         c3     26    ccc     C4    669 -0.06161800  12.010000   ; qtot -24.233463
  670         h1     26    ccc     H6    670 0.11190000   1.008000   ; qtot -24.121563
  671         h1     26    ccc     H7    671 0.11248000   1.008000   ; qtot -24.009083
  672         h1     26    ccc     H8    672 0.11248000   1.008000   ; qtot -23.896603
  673         n3     26    ccc     N2    673 -0.49292700  14.010000   ; qtot -24.389530
  674         c3     26    ccc     C5    674 0.00117700  12.010000   ; qtot -24.388353
  675         c3     26    ccc     C6    675 0.00117700  12.010000   ; qtot -24.387176
  676         h1     26    ccc     H9    676 0.05345200   1.008000   ; qtot -24.333724
  677         c3     26    ccc     C7    677 0.03104100  12.010000   ; qtot -24.302683
  678         h1     26    ccc    H10    678 0.05345200   1.008000   ; qtot -24.249231
  679         hc     26    ccc    H11    679 -0.03377200   1.008000   ; qtot -24.283003
  680         hc     26    ccc    H12    680 -0.03377200   1.008000   ; qtot -24.316775
  681          c     26    ccc     C8    681 0.93072900  12.010000   ; qtot -23.386046
  682          o     26    ccc     O2    682 -0.90377100  16.000000   ; qtot -24.289817
  683          o     26    ccc     O3    683 -0.90377100  16.000000   ; qtot -25.193588
  684         h1     26    ccc    H13    684 0.05345200   1.008000   ; qtot -25.140136
  685         h1     26    ccc    H14    685 0.05345200   1.008000   ; qtot -25.086684
  686         c3     26    ccc     C9    686 0.03104100  12.010000   ; qtot -25.055643
  687         hc     26    ccc    H15    687 -0.03377200   1.008000   ; qtot -25.089415
  688         hc     26    ccc    H16    688 -0.03377200   1.008000   ; qtot -25.123187
  689          c     26    ccc    C10    689 0.93072900  12.010000   ; qtot -24.192458
  690          o     26    ccc     O4    690 -0.90377100  16.000000   ; qtot -25.096229
  691          o     26    ccc     O5    691 -0.90377100  16.000000   ; qtot -26.000000
; residue   27 ccc rtp ccc q -2.0
  692          n     27    ccc     N1    692 -0.63700000  14.010000   ; qtot -26.637000
  693         hn     27    ccc     H4    693 0.34234400   1.008000   ; qtot -26.294656
  694         c3     27    ccc     C3    694 0.01091100  12.010000   ; qtot -26.283745
  695         h1     27    ccc     H5    695 0.11190000   1.008000   ; qtot -26.171845
  696         c3     27    ccc     C4    696 -0.06161800  12.010000   ; qtot -26.233463
  697         h1     27    ccc     H6    697 0.11190000   1.008000   ; qtot -26.121563
  698         h1     27    ccc     H7    698 0.11248000   1.008000   ; qtot -26.009083
  699         h1     27    ccc     H8    699 0.11248000   1.008000   ; qtot -25.896603
  700         n3     27    ccc     N2    700 -0.49292700  14.010000   ; qtot -26.389530
  701         c3     27    ccc     C5    701 0.00117700  12.010000   ; qtot -26.388353
  702         c3     27    ccc     C6    702 0.00117700  12.010000   ; qtot -26.387176
  703         h1     27    ccc     H9    703 0.05345200   1.008000   ; qtot -26.333724
  704         c3     27    ccc     C7    704 0.03104100  12.010000   ; qtot -26.302683
  705         h1     27    ccc    H10    705 0.05345200   1.008000   ; qtot -26.249231
  706         hc     27    ccc    H11    706 -0.03377200   1.008000   ; qtot -26.283003
  707         hc     27    ccc    H12    707 -0.03377200   1.008000   ; qtot -26.316775
  708          c     27    ccc     C8    708 0.93072900  12.010000   ; qtot -25.386046
  709          o     27    ccc     O2    709 -0.90377100  16.000000   ; qtot -26.289817
  710          o     27    ccc     O3    710 -0.90377100  16.000000   ; qtot -27.193588
  711         h1     27    ccc    H13    711 0.05345200   1.008000   ; qtot -27.140136
  712         h1     27    ccc    H14    712 0.05345200   1.008000   ; qtot -27.086684
  713         c3     27    ccc     C9    713 0.03104100  12.010000   ; qtot -27.055643
  714         hc     27    ccc    H15    714 -0.03377200   1.008000   ; qtot -27.089415
  715         hc     27    ccc    H16    715 -0.03377200   1.008000   ; qtot -27.123187
  716          c     27    ccc    C10    716 0.93072900  12.010000   ; qtot -26.192458
  717          o     27    ccc     O4    717 -0.90377100  16.000000   ; qtot -27.096229
  718          o     27    ccc     O5    718 -0.90377100  16.000000   ; qtot -28.000000
; residue   28 ccc rtp ccc q -2.0
  719          n     28    ccc     N1    719 -0.63700000  14.010000   ; qtot -28.637000
  720         hn     28    ccc     H4    720 0.34234400   1.008000   ; qtot -28.294656
  721         c3     28    ccc     C3    721 0.01091100  12.010000   ; qtot -28.283745
  722         h1     28    ccc     H5    722 0.11190000   1.008000   ; qtot -28.171845
  723         c3     28    ccc     C4    723 -0.06161800  12.010000   ; qtot -28.233463
  724         h1     28    ccc     H6    724 0.11190000   1.008000   ; qtot -28.121563
  725         h1     28    ccc     H7    725 0.11248000   1.008000   ; qtot -28.009083
  726         h1     28    ccc     H8    726 0.11248000   1.008000   ; qtot -27.896603
  727         n3     28    ccc     N2    727 -0.49292700  14.010000   ; qtot -28.389530
  728         c3     28    ccc     C5    728 0.00117700  12.010000   ; qtot -28.388353
  729         c3     28    ccc     C6    729 0.00117700  12.010000   ; qtot -28.387176
  730         h1     28    ccc     H9    730 0.05345200   1.008000   ; qtot -28.333724
  731         c3     28    ccc     C7    731 0.03104100  12.010000   ; qtot -28.302683
  732         h1     28    ccc    H10    732 0.05345200   1.008000   ; qtot -28.249231
  733         hc     28    ccc    H11    733 -0.03377200   1.008000   ; qtot -28.283003
  734         hc     28    ccc    H12    734 -0.03377200   1.008000   ; qtot -28.316775
  735          c     28    ccc     C8    735 0.93072900  12.010000   ; qtot -27.386046
  736          o     28    ccc     O2    736 -0.90377100  16.000000   ; qtot -28.289817
  737          o     28    ccc     O3    737 -0.90377100  16.000000   ; qtot -29.193588
  738         h1     28    ccc    H13    738 0.05345200   1.008000   ; qtot -29.140136
  739         h1     28    ccc    H14    739 0.05345200   1.008000   ; qtot -29.086684
  740         c3     28    ccc     C9    740 0.03104100  12.010000   ; qtot -29.055643
  741         hc     28    ccc    H15    741 -0.03377200   1.008000   ; qtot -29.089415
  742         hc     28    ccc    H16    742 -0.03377200   1.008000   ; qtot -29.123187
  743          c     28    ccc    C10    743 0.93072900  12.010000   ; qtot -28.192458
  744          o     28    ccc     O4    744 -0.90377100  16.000000   ; qtot -29.096229
  745          o     28    ccc     O5    745 -0.90377100  16.000000   ; qtot -30.000000
; residue   29 ccc rtp ccc q -2.0
  746          n     29    ccc     N1    746 -0.63700000  14.010000   ; qtot -30.637000
  747         hn     29    ccc     H4    747 0.34234400   1.008000   ; qtot -30.294656
  748         c3     29    ccc     C3    748 0.01091100  12.010000   ; qtot -30.283745
  749         h1     29    ccc     H5    749 0.11190000   1.008000   ; qtot -30.171845
  750         c3     29    ccc     C4    750 -0.06161800  12.010000   ; qtot -30.233463
  751         h1     29    ccc     H6    751 0.11190000   1.008000   ; qtot -30.121563
  752         h1     29    ccc     H7    752 0.11248000   1.008000   ; qtot -30.009083
  753         h1     29    ccc     H8    753 0.11248000   1.008000   ; qtot -29.896603
  754         n3     29    ccc     N2    754 -0.49292700  14.010000   ; qtot -30.389530
  755         c3     29    ccc     C5    755 0.00117700  12.010000   ; qtot -30.388353
  756         c3     29    ccc     C6    756 0.00117700  12.010000   ; qtot -30.387176
  757         h1     29    ccc     H9    757 0.05345200   1.008000   ; qtot -30.333724
  758         c3     29    ccc     C7    758 0.03104100  12.010000   ; qtot -30.302683
  759         h1     29    ccc    H10    759 0.05345200   1.008000   ; qtot -30.249231
  760         hc     29    ccc    H11    760 -0.03377200   1.008000   ; qtot -30.283003
  761         hc     29    ccc    H12    761 -0.03377200   1.008000   ; qtot -30.316775
  762          c     29    ccc     C8    762 0.93072900  12.010000   ; qtot -29.386046
  763          o     29    ccc     O2    763 -0.90377100  16.000000   ; qtot -30.289817
  764          o     29    ccc     O3    764 -0.90377100  16.000000   ; qtot -31.193588
  765         h1     29    ccc    H13    765 0.05345200   1.008000   ; qtot -31.140136
  766         h1     29    ccc    H14    766 0.05345200   1.008000   ; qtot -31.086684
  767         c3     29    ccc     C9    767 0.03104100  12.010000   ; qtot -31.055643
  768         hc     29    ccc    H15    768 -0.03377200   1.008000   ; qtot -31.089415
  769         hc     29    ccc    H16    769 -0.03377200   1.008000   ; qtot -31.123187
  770          c     29    ccc    C10    770 0.93072900  12.010000   ; qtot -30.192458
  771          o     29    ccc     O4    771 -0.90377100  16.000000   ; qtot -31.096229
  772          o     29    ccc     O5    772 -0.90377100  16.000000   ; qtot -32.000000

[ bonds ]
;    ai     aj funct         c0         c1         c2         c3
      1      4     1   0.15375 251793.120000
      1      8     1   0.14647 272713.120000
      4      7     1   0.14647 272713.120000
      7     15     1   0.14647 272713.120000
      7     18     1   0.14647 272713.120000
      8      9     1   0.14647 272713.120000
      8     12     1   0.14647 272713.120000
      9     30     1   0.15375 251793.120000
     12     27     1   0.15375 251793.120000
     15     21     1   0.15375 251793.120000
     18     24     1   0.15375 251793.120000
     21     35     1   0.15241 261918.400000
     24     36     1   0.15241 261918.400000
     27     33     1   0.15241 261918.400000
     30     34     1   0.15241 261918.400000
     33     37     1   0.12183 533627.360000
     33     64     1   0.13789 357815.680000
     34     40     1   0.12183 533627.360000
     34     89     1   0.13789 357815.680000
     35     38     1   0.12183 533627.360000
     35    114     1   0.13789 357815.680000
     36     39     1   0.12183 533627.360000
     36    139     1   0.13789 357815.680000
     41     44     1   0.15375 251793.120000
     41     47     1   0.14647 272713.120000
     44     64     1   0.14619 275056.160000
     47     48     1   0.14647 272713.120000
     47     51     1   0.14647 272713.120000
     48     57     1   0.15375 251793.120000
     51     54     1   0.15375 251793.120000
     54     60     1   0.15241 261918.400000
     57     61     1   0.15241 261918.400000
     60     62     1   0.12183 533627.360000
     60    164     1   0.13789 357815.680000
     61     63     1   0.12183 533627.360000
     61    189     1   0.13789 357815.680000
     66     69     1   0.15375 251793.120000
     66     72     1   0.14647 272713.120000
     69     89     1   0.14619 275056.160000
     72     73     1   0.14647 272713.120000
     72     76     1   0.14647 272713.120000
     73     82     1   0.15375 251793.120000
     76     79     1   0.15375 251793.120000
     79     85     1   0.15241 261918.400000
     82     86     1   0.15241 261918.400000
     85     87     1   0.12183 533627.360000
     85    214     1   0.13789 357815.680000
     86     88     1   0.12183 533627.360000
     86    239     1   0.13789 357815.680000
     91     94     1   0.15375 251793.120000
     91     97     1   0.14647 272713.120000
     94    114     1   0.14619 275056.160000
     97     98     1   0.14647 272713.120000
     97    101     1   0.14647 272713.120000
     98    107     1   0.15375 251793.120000
    101    104     1   0.15375 251793.120000
    104    110     1   0.15241 261918.400000
    107    111     1   0.15241 261918.400000
    110    112     1   0.12183 533627.360000
    110    264     1   0.13789 357815.680000
    111    113     1   0.12183 533627.360000
    111    289     1   0.13789 357815.680000
    116    119     1   0.15375 251793.120000
    116    122     1   0.14647 272713.120000
    119    139     1   0.14619 275056.160000
    122    123     1   0.14647 272713.120000
    122    126     1   0.14647 272713.120000
    123    132     1   0.15375 251793.120000
    126    129     1   0.15375 251793.120000
    129    135     1   0.15241 261918.400000
    132    136     1   0.15241 261918.400000
    135    137     1   0.12183 533627.360000
    135    314     1   0.13789 357815.680000
    136    138     1   0.12183 533627.360000
    136    339     1   0.13789 357815.680000
    141    144     1   0.15375 251793.120000
    141    147     1   0.14647 272713.120000
    144    164     1   0.14619 275056.160000
    147    148     1   0.14647 272713.120000
    147    151     1   0.14647 272713.120000
    148    157     1   0.15375 251793.120000
    151    154     1   0.15375 251793.120000
    154    160     1   0.15241 261918.400000
    157    161     1   0.15241 261918.400000
    160    341     1   0.13789 357815.680000
    160    162     1   0.12183 533627.360000
    161    163     1   0.12183 533627.360000
    161    368     1   0.13789 357815.680000
    166    169     1   0.15375 251793.120000
    166    172     1   0.14647 272713.120000
    169    189     1   0.14619 275056.160000
    172    173     1   0.14647 272713.120000
    172    176     1   0.14647 272713.120000
    173    182     1   0.15375 251793.120000
    176    179     1   0.15375 251793.120000
    179    185     1   0.15241 261918.400000
    182    186     1   0.15241 261918.400000
    185    395     1   0.13789 357815.680000
    185    187     1   0.12183 533627.360000
    186    188     1   0.12183 533627.360000
    186    422     1   0.13789 357815.680000
    191    194     1   0.15375 251793.120000
    191    197     1   0.14647 272713.120000
    194    214     1   0.14619 275056.160000
    197    198     1   0.14647 272713.120000
    197    201     1   0.14647 272713.120000
    198    207     1   0.15375 251793.120000
    201    204     1   0.15375 251793.120000
    204    210     1   0.15241 261918.400000
    207    211     1   0.15241 261918.400000
    210    449     1   0.13789 357815.680000
    210    212     1   0.12183 533627.360000
    211    213     1   0.12183 533627.360000
    211    476     1   0.13789 357815.680000
    216    219     1   0.15375 251793.120000
    216    222     1   0.14647 272713.120000
    219    239     1   0.14619 275056.160000
    222    223     1   0.14647 272713.120000
    222    226     1   0.14647 272713.120000
    223    232     1   0.15375 251793.120000
    226    229     1   0.15375 251793.120000
    229    235     1   0.15241 261918.400000
    232    236     1   0.15241 261918.400000
    235    503     1   0.13789 357815.680000
    235    237     1   0.12183 533627.360000
    236    238     1   0.12183 533627.360000
    236    530     1   0.13789 357815.680000
    241    244     1   0.15375 251793.120000
    241    247     1   0.14647 272713.120000
    244    264     1   0.14619 275056.160000
    247    248     1   0.14647 272713.120000
    247    251     1   0.14647 272713.120000
    248    257     1   0.15375 251793.120000
    251    254     1   0.15375 251793.120000
    254    260     1   0.15241 261918.400000
    257    261     1   0.15241 261918.400000
    260    557     1   0.13789 357815.680000
    260    262     1   0.12183 533627.360000
    261    263     1   0.12183 533627.360000
    261    584     1   0.13789 357815.680000
    266    269     1   0.15375 251793.120000
    266    272     1   0.14647 272713.120000
    269    289     1   0.14619 275056.160000
    272    273     1   0.14647 272713.120000
    272    276     1   0.14647 272713.120000
    273    282     1   0.15375 251793.120000
    276    279     1   0.15375 251793.120000
    279    285     1   0.15241 261918.400000
    282    286     1   0.15241 261918.400000
    285    611     1   0.13789 357815.680000
    285    287     1   0.12183 533627.360000
    286    288     1   0.12183 533627.360000
    286    638     1   0.13789 357815.680000
    291    294     1   0.15375 251793.120000
    291    297     1   0.14647 272713.120000
    294    314     1   0.14619 275056.160000
    297    298     1   0.14647 272713.120000
    297    301     1   0.14647 272713.120000
    298    307     1   0.15375 251793.120000
    301    304     1   0.15375 251793.120000
    304    310     1   0.15241 261918.400000
    307    311     1   0.15241 261918.400000
    310    665     1   0.13789 357815.680000
    310    312     1   0.12183 533627.360000
    311    313     1   0.12183 533627.360000
    311    692     1   0.13789 357815.680000
    316    319     1   0.15375 251793.120000
    316    322     1   0.14647 272713.120000
    319    339     1   0.14619 275056.160000
    322    323     1   0.14647 272713.120000
    322    326     1   0.14647 272713.120000
    323    332     1   0.15375 251793.120000
    326    329     1   0.15375 251793.120000
    329    335     1   0.15241 261918.400000
    332    336     1   0.15241 261918.400000
    335    719     1   0.13789 357815.680000
    335    337     1   0.12183 533627.360000
    336    746     1   0.13789 357815.680000
    336    338     1   0.12183 533627.360000
    341    343     1   0.14619 275056.160000
    343    345     1   0.15375 251793.120000
    345    349     1   0.14647 272713.120000
    349    350     1   0.14647 272713.120000
    349    351     1   0.14647 272713.120000
    350    362     1   0.15375 251793.120000
    351    353     1   0.15375 251793.120000
    353    357     1   0.15241 261918.400000
    357    358     1   0.12183 533627.360000
    357    359     1   0.12183 533627.360000
    362    365     1   0.15241 261918.400000
    365    366     1   0.12183 533627.360000
    365    367     1   0.12183 533627.360000
    368    370     1   0.14619 275056.160000
    370    372     1   0.15375 251793.120000
    372    376     1   0.14647 272713.120000
    376    377     1   0.14647 272713.120000
    376    378     1   0.14647 272713.120000
    377    389     1   0.15375 251793.120000
    378    380     1   0.15375 251793.120000
    380    384     1   0.15241 261918.400000
    384    385     1   0.12183 533627.360000
    384    386     1   0.12183 533627.360000
    389    392     1   0.15241 261918.400000
    392    393     1   0.12183 533627.360000
    392    394     1   0.12183 533627.360000
    395    397     1   0.14619 275056.160000
    397    399     1   0.15375 251793.120000
    399    403     1   0.14647 272713.120000
    403    404     1   0.14647 272713.120000
    403    405     1   0.14647 272713.120000
    404    416     1   0.15375 251793.120000
    405    407     1   0.15375 251793.120000
    407    411     1   0.15241 261918.400000
    411    412     1   0.12183 533627.360000
    411    413     1   0.12183 533627.360000
    416    419     1   0.15241 261918.400000
    419    420     1   0.12183 533627.360000
    419    421     1   0.12183 533627.360000
    422    424     1   0.14619 275056.160000
    424    426     1   0.15375 251793.120000
    426    430     1   0.14647 272713.120000
    430    431     1   0.14647 272713.120000
    430    432     1   0.14647 272713.120000
    431    443     1   0.15375 251793.120000
    432    434     1   0.15375 251793.120000
    434    438     1   0.15241 261918.400000
    438    439     1   0.12183 533627.360000
    438    440     1   0.12183 533627.360000
    443    446     1   0.15241 261918.400000
    446    447     1   0.12183 533627.360000
    446    448     1   0.12183 533627.360000
    449    451     1   0.14619 275056.160000
    451    453     1   0.15375 251793.120000
    453    457     1   0.14647 272713.120000
    457    458     1   0.14647 272713.120000
    457    459     1   0.14647 272713.120000
    458    470     1   0.15375 251793.120000
    459    461     1   0.15375 251793.120000
    461    465     1   0.15241 261918.400000
    465    466     1   0.12183 533627.360000
    465    467     1   0.12183 533627.360000
    470    473     1   0.15241 261918.400000
    473    474     1   0.12183 533627.360000
    473    475     1   0.12183 533627.360000
    476    478     1   0.14619 275056.160000
    478    480     1   0.15375 251793.120000
    480    484     1   0.14647 272713.120000
    484    485     1   0.14647 272713.120000
    484    486     1   0.14647 272713.120000
    485    497     1   0.15375 251793.120000
    486    488     1   0.15375 251793.120000
    488    492     1   0.15241 261918.400000
    492    493     1   0.12183 533627.360000
    492    494     1   0.12183 533627.360000
    497    500     1   0.15241 261918.400000
    500    501     1   0.12183 533627.360000
    500    502     1   0.12183 533627.360000
    503    505     1   0.14619 275056.160000
    505    507     1   0.15375 251793.120000
    507    511     1   0.14647 272713.120000
    511    512     1   0.14647 272713.120000
    511    513     1   0.14647 272713.120000
    512    524     1   0.15375 251793.120000
    513    515     1   0.15375 251793.120000
    515    519     1   0.15241 261918.400000
    519    520     1   0.12183 533627.360000
    519    521     1   0.12183 533627.360000
    524    527     1   0.15241 261918.400000
    527    528     1   0.12183 533627.360000
    527    529     1   0.12183 533627.360000
    530    532     1   0.14619 275056.160000
    532    534     1   0.15375 251793.120000
    534    538     1   0.14647 272713.120000
    538    539     1   0.14647 272713.120000
    538    540     1   0.14647 272713.120000
    539    551     1   0.15375 251793.120000
    540    542     1   0.15375 251793.120000
    542    546     1   0.15241 261918.400000
    546    547     1   0.12183 533627.360000
    546    548     1   0.12183 533627.360000
    551    554     1   0.15241 261918.400000
    554    555     1   0.12183 533627.360000
    554    556     1   0.12183 533627.360000
    557    559     1   0.14619 275056.160000
    559    561     1   0.15375 251793.120000
    561    565     1   0.14647 272713.120000
    565    566     1   0.14647 272713.120000
    565    567     1   0.14647 272713.120000
    566    578     1   0.15375 251793.120000
    567    569     1   0.15375 251793.120000
    569    573     1   0.15241 261918.400000
    573    574     1   0.12183 533627.360000
    573    575     1   0.12183 533627.360000
    578    581     1   0.15241 261918.400000
    581    582     1   0.12183 533627.360000
    581    583     1   0.12183 533627.360000
    584    586     1   0.14619 275056.160000
    586    588     1   0.15375 251793.120000
    588    592     1   0.14647 272713.120000
    592    593     1   0.14647 272713.120000
    592    594     1   0.14647 272713.120000
    593    605     1   0.15375 251793.120000
    594    596     1   0.15375 251793.120000
    596    600     1   0.15241 261918.400000
    600    601     1   0.12183 533627.360000
    600    602     1   0.12183 533627.360000
    605    608     1   0.15241 261918.400000
    608    609     1   0.12183 533627.360000
    608    610     1   0.12183 533627.360000
    611    613     1   0.14619 275056.160000
    613    615     1   0.15375 251793.120000
    615    619     1   0.14647 272713.120000
    619    620     1   0.14647 272713.120000
    619    621     1   0.14647 272713.120000
    620    632     1   0.15375 251793.120000
    621    623     1   0.15375 251793.120000
    623    627     1   0.15241 261918.400000
    627    628     1   0.12183 533627.360000
    627    629     1   0.12183 533627.360000
    632    635     1   0.15241 261918.400000
    635    636     1   0.12183 533627.360000
    635    637     1   0.12183 533627.360000
    638    640     1   0.14619 275056.160000
    640    642     1   0.15375 251793.120000
    642    646     1   0.14647 272713.120000
    646    647     1   0.14647 272713.120000
    646    648     1   0.14647 272713.120000
    647    659     1   0.15375 251793.120000
    648    650     1   0.15375 251793.120000
    650    654     1   0.15241 261918.400000
    654    655     1   0.12183 533627.360000
    654    656     1   0.12183 533627.360000
    659    662     1   0.15241 261918.400000
    662    663     1   0.12183 533627.360000
    662    664     1   0.12183 533627.360000
    665    667     1   0.14619 275056.160000
    667    669     1   0.15375 251793.120000
    669    673     1   0.14647 272713.120000
    673    674     1   0.14647 272713.120000
    673    675     1   0.14647 272713.120000
    674    686     1   0.15375 251793.120000
    675    677     1   0.15375 251793.120000
    677    681     1   0.15241 261918.400000
    681    682     1   0.12183 533627.360000
    681    683     1   0.12183 533627.360000
    686    689     1   0.15241 261918.400000
    689    690     1   0.12183 533627.360000
    689    691     1   0.12183 533627.360000
    692    694     1   0.14619 275056.160000
    694    696     1   0.15375 251793.120000
    696    700     1   0.14647 272713.120000
    700    701     1   0.14647 272713.120000
    700    702     1   0.14647 272713.120000
    701    713     1   0.15375 251793.120000
    702    704     1   0.15375 251793.120000
    704    708     1   0.15241 261918.400000
    708    709     1   0.12183 533627.360000
    708    710     1   0.12183 533627.360000
    713    716     1   0.15241 261918.400000
    716    717     1   0.12183 533627.360000
    716    718     1   0.12183 533627.360000
    719    721     1   0.14619 275056.160000
    721    723     1   0.15375 251793.120000
    723    727     1   0.14647 272713.120000
    727    728     1   0.14647 272713.120000
    727    729     1   0.14647 272713.120000
    728    740     1   0.15375 251793.120000
    729    731     1   0.15375 251793.120000
    731    735     1   0.15241 261918.400000
    735    736     1   0.12183 533627.360000
    735    737     1   0.12183 533627.360000
    740    743     1   0.15241 261918.400000
    743    744     1   0.12183 533627.360000
    743    745     1   0.12183 533627.360000
    746    748     1   0.14619 275056.160000
    748    750     1   0.15375 251793.120000
    750    754     1   0.14647 272713.120000
    754    755     1   0.14647 272713.120000
    754    756     1   0.14647 272713.120000
    755    767     1   0.15375 251793.120000
    756    758     1   0.15375 251793.120000
    758    762     1   0.15241 261918.400000
    762    763     1   0.12183 533627.360000
    762    764     1   0.12183 533627.360000
    767    770     1   0.15241 261918.400000
    770    771     1   0.12183 533627.360000
    770    772     1   0.12183 533627.360000
      1      2     1   0.10969 276646.080000
      1      3     1   0.10969 276646.080000
      4      5     1   0.10969 276646.080000
      4      6     1   0.10969 276646.080000
      9     10     1   0.10969 276646.080000
      9     11     1   0.10969 276646.080000
     12     13     1   0.10969 276646.080000
     12     14     1   0.10969 276646.080000
     15     16     1   0.10969 276646.080000
     15     17     1   0.10969 276646.080000
     18     19     1   0.10969 276646.080000
     18     20     1   0.10969 276646.080000
     21     22     1   0.10969 276646.080000
     21     23     1   0.10969 276646.080000
     24     25     1   0.10969 276646.080000
     24     26     1   0.10969 276646.080000
     27     28     1   0.10969 276646.080000
     27     29     1   0.10969 276646.080000
     30     31     1   0.10969 276646.080000
     30     32     1   0.10969 276646.080000
     41     42     1   0.10969 276646.080000
     41     43     1   0.10969 276646.080000
     44     45     1   0.10969 276646.080000
     44     46     1   0.10969 276646.080000
     48     49     1   0.10969 276646.080000
     48     50     1   0.10969 276646.080000
     51     52     1   0.10969 276646.080000
     51     53     1   0.10969 276646.080000
     54     55     1   0.10969 276646.080000
     54     56     1   0.10969 276646.080000
     57     58     1   0.10969 276646.080000
     57     59     1   0.10969 276646.080000
     64     65     1   0.10129 337397.760000
     66     67     1   0.10969 276646.080000
     66     68     1   0.10969 276646.080000
     69     70     1   0.10969 276646.080000
     69     71     1   0.10969 276646.080000
     73     74     1   0.10969 276646.080000
     73     75     1   0.10969 276646.080000
     76     77     1   0.10969 276646.080000
     76     78     1   0.10969 276646.080000
     79     80     1   0.10969 276646.080000
     79     81     1   0.10969 276646.080000
     82     83     1   0.10969 276646.080000
     82     84     1   0.10969 276646.080000
     89     90     1   0.10129 337397.760000
     91     92     1   0.10969 276646.080000
     91     93     1   0.10969 276646.080000
     94     95     1   0.10969 276646.080000
     94     96     1   0.10969 276646.080000
     98     99     1   0.10969 276646.080000
     98    100     1   0.10969 276646.080000
    101    102     1   0.10969 276646.080000
    101    103     1   0.10969 276646.080000
    104    105     1   0.10969 276646.080000
    104    106     1   0.10969 276646.080000
    107    108     1   0.10969 276646.080000
    107    109     1   0.10969 276646.080000
    114    115     1   0.10129 337397.760000
    116    117     1   0.10969 276646.080000
    116    118     1   0.10969 276646.080000
    119    120     1   0.10969 276646.080000
    119    121     1   0.10969 276646.080000
    123    124     1   0.10969 276646.080000
    123    125     1   0.10969 276646.080000
    126    127     1   0.10969 276646.080000
    126    128     1   0.10969 276646.080000
    129    130     1   0.10969 276646.080000
    129    131     1   0.10969 276646.080000
    132    133     1   0.10969 276646.080000
    132    134     1   0.10969 276646.080000
    139    140     1   0.10129 337397.760000
    141    142     1   0.10969 276646.080000
    141    143     1   0.10969 276646.080000
    144    145     1   0.10969 276646.080000
    144    146     1   0.10969 276646.080000
    148    149     1   0.10969 276646.080000
    148    150     1   0.10969 276646.080000
    151    152     1   0.10969 276646.080000
    151    153     1   0.10969 276646.080000
    154    155     1   0.10969 276646.080000
    154    156     1   0.10969 276646.080000
    157    158     1   0.10969 276646.080000
    157    159     1   0.10969 276646.080000
    164    165     1   0.10129 337397.760000
    166    167     1   0.10969 276646.080000
    166    168     1   0.10969 276646.080000
    169    170     1   0.10969 276646.080000
    169    171     1   0.10969 276646.080000
    173    174     1   0.10969 276646.080000
    173    175     1   0.10969 276646.080000
    176    177     1   0.10969 276646.080000
    176    178     1   0.10969 276646.080000
    179    180     1   0.10969 276646.080000
    179    181     1   0.10969 276646.080000
    182    183     1   0.10969 276646.080000
    182    184     1   0.10969 276646.080000
    189    190     1   0.10129 337397.760000
    191    192     1   0.10969 276646.080000
    191    193     1   0.10969 276646.080000
    194    195     1   0.10969 276646.080000
    194    196     1   0.10969 276646.080000
    198    199     1   0.10969 276646.080000
    198    200     1   0.10969 276646.080000
    201    202     1   0.10969 276646.080000
    201    203     1   0.10969 276646.080000
    204    205     1   0.10969 276646.080000
    204    206     1   0.10969 276646.080000
    207    208     1   0.10969 276646.080000
    207    209     1   0.10969 276646.080000
    214    215     1   0.10129 337397.760000
    216    217     1   0.10969 276646.080000
    216    218     1   0.10969 276646.080000
    219    220     1   0.10969 276646.080000
    219    221     1   0.10969 276646.080000
    223    224     1   0.10969 276646.080000
    223    225     1   0.10969 276646.080000
    226    227     1   0.10969 276646.080000
    226    228     1   0.10969 276646.080000
    229    230     1   0.10969 276646.080000
    229    231     1   0.10969 276646.080000
    232    233     1   0.10969 276646.080000
    232    234     1   0.10969 276646.080000
    239    240     1   0.10129 337397.760000
    241    242     1   0.10969 276646.080000
    241    243     1   0.10969 276646.080000
    244    245     1   0.10969 276646.080000
    244    246     1   0.10969 276646.080000
    248    249     1   0.10969 276646.080000
    248    250     1   0.10969 276646.080000
    251    252     1   0.10969 276646.080000
    251    253     1   0.10969 276646.080000
    254    255     1   0.10969 276646.080000
    254    256     1   0.10969 276646.080000
    257    258     1   0.10969 276646.080000
    257    259     1   0.10969 276646.080000
    264    265     1   0.10129 337397.760000
    266    267     1   0.10969 276646.080000
    266    268     1   0.10969 276646.080000
    269    270     1   0.10969 276646.080000
    269    271     1   0.10969 276646.080000
    273    274     1   0.10969 276646.080000
    273    275     1   0.10969 276646.080000
    276    277     1   0.10969 276646.080000
    276    278     1   0.10969 276646.080000
    279    280     1   0.10969 276646.080000
    279    281     1   0.10969 276646.080000
    282    283     1   0.10969 276646.080000
    282    284     1   0.10969 276646.080000
    289    290     1   0.10129 337397.760000
    291    292     1   0.10969 276646.080000
    291    293     1   0.10969 276646.080000
    294    295     1   0.10969 276646.080000
    294    296     1   0.10969 276646.080000
    298    299     1   0.10969 276646.080000
    298    300     1   0.10969 276646.080000
    301    302     1   0.10969 276646.080000
    301    303     1   0.10969 276646.080000
    304    305     1   0.10969 276646.080000
    304    306     1   0.10969 276646.080000
    307    308     1   0.10969 276646.080000
    307    309     1   0.10969 276646.080000
    314    315     1   0.10129 337397.760000
    316    317     1   0.10969 276646.080000
    316    318     1   0.10969 276646.080000
    319    320     1   0.10969 276646.080000
    319    321     1   0.10969 276646.080000
    323    324     1   0.10969 276646.080000
    323    325     1   0.10969 276646.080000
    326    327     1   0.10969 276646.080000
    326    328     1   0.10969 276646.080000
    329    330     1   0.10969 276646.080000
    329    331     1   0.10969 276646.080000
    332    333     1   0.10969 276646.080000
    332    334     1   0.10969 276646.080000
    339    340     1   0.10129 337397.760000
    341    342     1   0.10129 337397.760000
    343    344     1   0.10969 276646.080000
    343    346     1   0.10969 276646.080000
    345    347     1   0.10969 276646.080000
    345    348     1   0.10969 276646.080000
    350    360     1   0.10969 276646.080000
    350    361     1   0.10969 276646.080000
    351    352     1   0.10969 276646.080000
    351    354     1   0.10969 276646.080000
    353    355     1   0.10969 276646.080000
    353    356     1   0.10969 276646.080000
    362    363     1   0.10969 276646.080000
    362    364     1   0.10969 276646.080000
    368    369     1   0.10129 337397.760000
    370    371     1   0.10969 276646.080000
    370    373     1   0.10969 276646.080000
    372    374     1   0.10969 276646.080000
    372    375     1   0.10969 276646.080000
    377    387     1   0.10969 276646.080000
    377    388     1   0.10969 276646.080000
    378    379     1   0.10969 276646.080000
    378    381     1   0.10969 276646.080000
    380    382     1   0.10969 276646.080000
    380    383     1   0.10969 276646.080000
    389    390     1   0.10969 276646.080000
    389    391     1   0.10969 276646.080000
    395    396     1   0.10129 337397.760000
    397    398     1   0.10969 276646.080000
    397    400     1   0.10969 276646.080000
    399    401     1   0.10969 276646.080000
    399    402     1   0.10969 276646.080000
    404    414     1   0.10969 276646.080000
    404    415     1   0.10969 276646.080000
    405    406     1   0.10969 276646.080000
    405    408     1   0.10969 276646.080000
    407    409     1   0.10969 276646.080000
    407    410     1   0.10969 276646.080000
    416    417     1   0.10969 276646.080000
    416    418     1   0.10969 276646.080000
    422    423     1   0.10129 337397.760000
    424    425     1   0.10969 276646.080000
    424    427     1   0.10969 276646.080000
    426    428     1   0.10969 276646.080000
    426    429     1   0.10969 276646.080000
    431    441     1   0.10969 276646.080000
    431    442     1   0.10969 276646.080000
    432    433     1   0.10969 276646.080000
    432    435     1   0.10969 276646.080000
    434    436     1   0.10969 276646.080000
    434    437     1   0.10969 276646.080000
    443    444     1   0.10969 276646.080000
    443    445     1   0.10969 276646.080000
    449    450     1   0.10129 337397.760000
    451    452     1   0.10969 276646.080000
    451    454     1   0.10969 276646.080000
    453    455     1   0.10969 276646.080000
    453    456     1   0.10969 276646.080000
    458    468     1   0.10969 276646.080000
    458    469     1   0.10969 276646.080000
    459    460     1   0.10969 276646.080000
    459    462     1   0.10969 276646.080000
    461    463     1   0.10969 276646.080000
    461    464     1   0.10969 276646.080000
    470    471     1   0.10969 276646.080000
    470    472     1   0.10969 276646.080000
    476    477     1   0.10129 337397.760000
    478    479     1   0.10969 276646.080000
    478    481     1   0.10969 276646.080000
    480    482     1   0.10969 276646.080000
    480    483     1   0.10969 276646.080000
    485    495     1   0.10969 276646.080000
    485    496     1   0.10969 276646.080000
    486    487     1   0.10969 276646.080000
    486    489     1   0.10969 276646.080000
    488    490     1   0.10969 276646.080000
    488    491     1   0.10969 276646.080000
    497    498     1   0.10969 276646.080000
    497    499     1   0.10969 276646.080000
    503    504     1   0.10129 337397.760000
    505    506     1   0.10969 276646.080000
    505    508     1   0.10969 276646.080000
    507    509     1   0.10969 276646.080000
    507    510     1   0.10969 276646.080000
    512    522     1   0.10969 276646.080000
    512    523     1   0.10969 276646.080000
    513    514     1   0.10969 276646.080000
    513    516     1   0.10969 276646.080000
    515    517     1   0.10969 276646.080000
    515    518     1   0.10969 276646.080000
    524    525     1   0.10969 276646.080000
    524    526     1   0.10969 276646.080000
    530    531     1   0.10129 337397.760000
    532    533     1   0.10969 276646.080000
    532    535     1   0.10969 276646.080000
    534    536     1   0.10969 276646.080000
    534    537     1   0.10969 276646.080000
    539    549     1   0.10969 276646.080000
    539    550     1   0.10969 276646.080000
    540    541     1   0.10969 276646.080000
    540    543     1   0.10969 276646.080000
    542    544     1   0.10969 276646.080000
    542    545     1   0.10969 276646.080000
    551    552     1   0.10969 276646.080000
    551    553     1   0.10969 276646.080000
    557    558     1   0.10129 337397.760000
    559    560     1   0.10969 276646.080000
    559    562     1   0.10969 276646.080000
    561    563     1   0.10969 276646.080000
    561    564     1   0.10969 276646.080000
    566    576     1   0.10969 276646.080000
    566    577     1   0.10969 276646.080000
    567    568     1   0.10969 276646.080000
    567    570     1   0.10969 276646.080000
    569    571     1   0.10969 276646.080000
    569    572     1   0.10969 276646.080000
    578    579     1   0.10969 276646.080000
    578    580     1   0.10969 276646.080000
    584    585     1   0.10129 337397.760000
    586    587     1   0.10969 276646.080000
    586    589     1   0.10969 276646.080000
    588    590     1   0.10969 276646.080000
    588    591     1   0.10969 276646.080000
    593    603     1   0.10969 276646.080000
    593    604     1   0.10969 276646.080000
    594    595     1   0.10969 276646.080000
    594    597     1   0.10969 276646.080000
    596    598     1   0.10969 276646.080000
    596    599     1   0.10969 276646.080000
    605    606     1   0.10969 276646.080000
    605    607     1   0.10969 276646.080000
    611    612     1   0.10129 337397.760000
    613    614     1   0.10969 276646.080000
    613    616     1   0.10969 276646.080000
    615    617     1   0.10969 276646.080000
    615    618     1   0.10969 276646.080000
    620    630     1   0.10969 276646.080000
    620    631     1   0.10969 276646.080000
    621    622     1   0.10969 276646.080000
    621    624     1   0.10969 276646.080000
    623    625     1   0.10969 276646.080000
    623    626     1   0.10969 276646.080000
    632    633     1   0.10969 276646.080000
    632    634     1   0.10969 276646.080000
    638    639     1   0.10129 337397.760000
    640    641     1   0.10969 276646.080000
    640    643     1   0.10969 276646.080000
    642    644     1   0.10969 276646.080000
    642    645     1   0.10969 276646.080000
    647    657     1   0.10969 276646.080000
    647    658     1   0.10969 276646.080000
    648    649     1   0.10969 276646.080000
    648    651     1   0.10969 276646.080000
    650    652     1   0.10969 276646.080000
    650    653     1   0.10969 276646.080000
    659    660     1   0.10969 276646.080000
    659    661     1   0.10969 276646.080000
    665    666     1   0.10129 337397.760000
    667    668     1   0.10969 276646.080000
    667    670     1   0.10969 276646.080000
    669    671     1   0.10969 276646.080000
    669    672     1   0.10969 276646.080000
    674    684     1   0.10969 276646.080000
    674    685     1   0.10969 276646.080000
    675    676     1   0.10969 276646.080000
    675    678     1   0.10969 276646.080000
    677    679     1   0.10969 276646.080000
    677    680     1   0.10969 276646.080000
    686    687     1   0.10969 276646.080000
    686    688     1   0.10969 276646.080000
    692    693     1   0.10129 337397.760000
    694    695     1   0.10969 276646.080000
    694    697     1   0.10969 276646.080000
    696    698     1   0.10969 276646.080000
    696    699     1   0.10969 276646.080000
    701    711     1   0.10969 276646.080000
    701    712     1   0.10969 276646.080000
    702    703     1   0.10969 276646.080000
    702    705     1   0.10969 276646.080000
    704    706     1   0.10969 276646.080000
    704    707     1   0.10969 276646.080000
    713    714     1   0.10969 276646.080000
    713    715     1   0.10969 276646.080000
    719    720     1   0.10129 337397.760000
    721    722     1   0.10969 276646.080000
    721    724     1   0.10969 276646.080000
    723    725     1   0.10969 276646.080000
    723    726     1   0.10969 276646.080000
    728    738     1   0.10969 276646.080000
    728    739     1   0.10969 276646.080000
    729    730     1   0.10969 276646.080000
    729    732     1   0.10969 276646.080000
    731    733     1   0.10969 276646.080000
    731    734     1   0.10969 276646.080000
    740    741     1   0.10969 276646.080000
    740    742     1   0.10969 276646.080000
    746    747     1   0.10129 337397.760000
    748    749     1   0.10969 276646.080000
    748    751     1   0.10969 276646.080000
    750    752     1   0.10969 276646.080000
    750    753     1   0.10969 276646.080000
    755    765     1   0.10969 276646.080000
    755    766     1   0.10969 276646.080000
    756    757     1   0.10969 276646.080000
    756    759     1   0.10969 276646.080000
    758    760     1   0.10969 276646.080000
    758    761     1   0.10969 276646.080000
    767    768     1   0.10969 276646.080000
    767    769     1   0.10969 276646.080000

[ pairs ]
;    ai     aj funct         c0         c1         c2         c3
      1     15     1
      1     18     1
      1     30     1
      1     27     1
      4      9     1
      4     12     1
      4     21     1
      4     24     1
      8      7     1
      7     35     1
      7     36     1
      8     34     1
      8     33     1
      9     27     1
      9     40     1
      9     89     1
     12     30     1
     12     37     1
     12     64     1
     15     24     1
     15     38     1
     15    114     1
     18     21     1
     18     39     1
     18    139     1
     21     94     1
     24    119     1
     27     44     1
     30     69     1
     33     41     1
     34     66     1
     35     91     1
     36    116     1
     37     44     1
     38     94     1
     39    119     1
     40     69     1
     41     57     1
     41     54     1
     44     48     1
     44     51     1
     47     64     1
     47     61     1
     47     60     1
     48     54     1
     48     63     1
     48    189     1
     51     57     1
     51     62     1
     51    164     1
     54    144     1
     57    169     1
     60    141     1
     61    166     1
     62    144     1
     63    169     1
     66     82     1
     66     79     1
     69     73     1
     69     76     1
     72     89     1
     72     86     1
     72     85     1
     73     79     1
     73     88     1
     73    239     1
     76     82     1
     76     87     1
     76    214     1
     79    194     1
     82    219     1
     85    191     1
     86    216     1
     87    194     1
     88    219     1
     91    107     1
     91    104     1
     94     98     1
     94    101     1
     97    114     1
     97    111     1
     97    110     1
     98    104     1
     98    113     1
     98    289     1
    101    107     1
    101    112     1
    101    264     1
    104    244     1
    107    269     1
    110    241     1
    111    266     1
    112    244     1
    113    269     1
    116    132     1
    116    129     1
    119    123     1
    119    126     1
    122    139     1
    122    136     1
    122    135     1
    123    129     1
    123    138     1
    123    339     1
    126    132     1
    126    137     1
    126    314     1
    129    294     1
    132    319     1
    135    291     1
    136    316     1
    137    294     1
    138    319     1
    141    157     1
    141    154     1
    144    148     1
    144    151     1
    147    164     1
    147    161     1
    147    160     1
    148    154     1
    148    163     1
    148    368     1
    151    157     1
    151    341     1
    151    162     1
    154    343     1
    157    370     1
    160    345     1
    161    372     1
    162    343     1
    163    370     1
    166    182     1
    166    179     1
    169    173     1
    169    176     1
    172    189     1
    172    186     1
    172    185     1
    173    179     1
    173    188     1
    173    422     1
    176    182     1
    176    395     1
    176    187     1
    179    397     1
    182    424     1
    185    399     1
    186    426     1
    187    397     1
    188    424     1
    191    207     1
    191    204     1
    194    198     1
    194    201     1
    197    214     1
    197    211     1
    197    210     1
    198    204     1
    198    213     1
    198    476     1
    201    207     1
    201    449     1
    201    212     1
    204    451     1
    207    478     1
    210    453     1
    211    480     1
    212    451     1
    213    478     1
    216    232     1
    216    229     1
    219    223     1
    219    226     1
    222    239     1
    222    236     1
    222    235     1
    223    229     1
    223    238     1
    223    530     1
    226    232     1
    226    503     1
    226    237     1
    229    505     1
    232    532     1
    235    507     1
    236    534     1
    237    505     1
    238    532     1
    241    257     1
    241    254     1
    244    248     1
    244    251     1
    247    264     1
    247    261     1
    247    260     1
    248    254     1
    248    263     1
    248    584     1
    251    257     1
    251    557     1
    251    262     1
    254    559     1
    257    586     1
    260    561     1
    261    588     1
    262    559     1
    263    586     1
    266    282     1
    266    279     1
    269    273     1
    269    276     1
    272    289     1
    272    286     1
    272    285     1
    273    279     1
    273    288     1
    273    638     1
    276    282     1
    276    611     1
    276    287     1
    279    613     1
    282    640     1
    285    615     1
    286    642     1
    287    613     1
    288    640     1
    291    307     1
    291    304     1
    294    298     1
    294    301     1
    297    314     1
    297    311     1
    297    310     1
    298    304     1
    298    313     1
    298    692     1
    301    307     1
    301    665     1
    301    312     1
    304    667     1
    307    694     1
    310    669     1
    311    696     1
    312    667     1
    313    694     1
    316    332     1
    316    329     1
    319    323     1
    319    326     1
    322    339     1
    322    336     1
    322    335     1
    323    329     1
    323    746     1
    323    338     1
    326    332     1
    326    719     1
    326    337     1
    329    721     1
    332    748     1
    335    723     1
    336    750     1
    337    721     1
    338    748     1
    341    349     1
    343    350     1
    343    351     1
    345    362     1
    345    353     1
    349    365     1
    349    357     1
    350    353     1
    350    366     1
    350    367     1
    351    362     1
    351    358     1
    351    359     1
    368    376     1
    370    377     1
    370    378     1
    372    389     1
    372    380     1
    376    392     1
    376    384     1
    377    393     1
    377    394     1
    377    380     1
    378    385     1
    378    386     1
    378    389     1
    395    403     1
    397    404     1
    397    405     1
    399    416     1
    399    407     1
    403    419     1
    403    411     1
    404    407     1
    404    420     1
    404    421     1
    405    416     1
    405    412     1
    405    413     1
    422    430     1
    424    431     1
    424    432     1
    426    443     1
    426    434     1
    430    446     1
    430    438     1
    431    447     1
    431    448     1
    431    434     1
    432    439     1
    432    440     1
    432    443     1
    449    457     1
    451    458     1
    451    459     1
    453    470     1
    453    461     1
    457    473     1
    457    465     1
    458    461     1
    458    474     1
    458    475     1
    459    470     1
    459    466     1
    459    467     1
    476    484     1
    478    485     1
    478    486     1
    480    497     1
    480    488     1
    484    500     1
    484    492     1
    485    501     1
    485    502     1
    485    488     1
    486    493     1
    486    494     1
    486    497     1
    503    511     1
    505    512     1
    505    513     1
    507    524     1
    507    515     1
    511    527     1
    511    519     1
    512    515     1
    512    528     1
    512    529     1
    513    524     1
    513    520     1
    513    521     1
    530    538     1
    532    539     1
    532    540     1
    534    551     1
    534    542     1
    538    554     1
    538    546     1
    539    555     1
    539    556     1
    539    542     1
    540    547     1
    540    548     1
    540    551     1
    557    565     1
    559    566     1
    559    567     1
    561    578     1
    561    569     1
    565    581     1
    565    573     1
    566    569     1
    566    582     1
    566    583     1
    567    578     1
    567    574     1
    567    575     1
    584    592     1
    586    593     1
    586    594     1
    588    605     1
    588    596     1
    592    608     1
    592    600     1
    593    609     1
    593    610     1
    593    596     1
    594    601     1
    594    602     1
    594    605     1
    611    619     1
    613    620     1
    613    621     1
    615    632     1
    615    623     1
    619    635     1
    619    627     1
    620    623     1
    620    636     1
    620    637     1
    621    632     1
    621    628     1
    621    629     1
    638    646     1
    640    647     1
    640    648     1
    642    659     1
    642    650     1
    646    662     1
    646    654     1
    647    663     1
    647    664     1
    647    650     1
    648    655     1
    648    656     1
    648    659     1
    665    673     1
    667    674     1
    667    675     1
    669    686     1
    669    677     1
    673    689     1
    673    681     1
    674    677     1
    674    690     1
    674    691     1
    675    686     1
    675    682     1
    675    683     1
    692    700     1
    694    701     1
    694    702     1
    696    713     1
    696    704     1
    700    716     1
    700    708     1
    701    717     1
    701    718     1
    701    704     1
    702    709     1
    702    710     1
    702    713     1
    719    727     1
    721    728     1
    721    729     1
    723    740     1
    723    731     1
    727    743     1
    727    735     1
    728    731     1
    728    744     1
    728    745     1
    729    740     1
    729    736     1
    729    737     1
    746    754     1
    748    755     1
    748    756     1
    750    767     1
    750    758     1
    754    770     1
    754    762     1
    755    771     1
    755    772     1
    755    758     1
    756    763     1
    756    764     1
    756    767     1
      1     10     1
      1     11     1
      1     13     1
      1     14     1
      2      7     1
      2      5     1
      2      6     1
      2      9     1
      2     12     1
      3      7     1
      3      5     1
      3      6     1
      3      9     1
      3     12     1
      4     16     1
      4     17     1
      4     19     1
      4     20     1
      8      5     1
      5     15     1
      5     18     1
      8      6     1
      6     15     1
      6     18     1
      7     22     1
      7     23     1
      7     25     1
      7     26     1
      8     31     1
      8     32     1
      8     28     1
      8     29     1
      9     13     1
      9     14     1
     10     12     1
     10     34     1
     10     31     1
     10     32     1
     11     12     1
     11     34     1
     11     31     1
     11     32     1
     13     33     1
     13     28     1
     13     29     1
     14     33     1
     14     28     1
     14     29     1
     15     19     1
     15     20     1
     16     18     1
     16     35     1
     16     22     1
     16     23     1
     17     18     1
     17     35     1
     17     22     1
     17     23     1
     19     36     1
     19     25     1
     19     26     1
     20     36     1
     20     25     1
     20     26     1
     21    115     1
     22     38     1
     22    114     1
     23     38     1
     23    114     1
     24    140     1
     25     39     1
     25    139     1
     26     39     1
     26    139     1
     27     65     1
     28     37     1
     28     64     1
     29     37     1
     29     64     1
     30     90     1
     31     40     1
     31     89     1
     32     40     1
     32     89     1
     33     45     1
     33     46     1
     34     70     1
     34     71     1
     35     95     1
     35     96     1
     36    120     1
     36    121     1
     37     65     1
     38    115     1
     39    140     1
     40     90     1
     41     65     1
     41     49     1
     41     50     1
     41     52     1
     41     53     1
     42     64     1
     42     45     1
     42     46     1
     42     48     1
     42     51     1
     43     64     1
     43     45     1
     43     46     1
     43     48     1
     43     51     1
     45     47     1
     45     65     1
     46     47     1
     46     65     1
     47     58     1
     47     59     1
     47     55     1
     47     56     1
     48     52     1
     48     53     1
     49     51     1
     49     61     1
     49     58     1
     49     59     1
     50     51     1
     50     61     1
     50     58     1
     50     59     1
     52     60     1
     52     55     1
     52     56     1
     53     60     1
     53     55     1
     53     56     1
     54    165     1
     55     62     1
     55    164     1
     56     62     1
     56    164     1
     57    190     1
     58     63     1
     58    189     1
     59     63     1
     59    189     1
     60    145     1
     60    146     1
     61    170     1
     61    171     1
     62    165     1
     63    190     1
     66     90     1
     66     74     1
     66     75     1
     66     77     1
     66     78     1
     67     89     1
     67     70     1
     67     71     1
     67     73     1
     67     76     1
     68     89     1
     68     70     1
     68     71     1
     68     73     1
     68     76     1
     70     72     1
     70     90     1
     71     72     1
     71     90     1
     72     83     1
     72     84     1
     72     80     1
     72     81     1
     73     77     1
     73     78     1
     74     76     1
     74     86     1
     74     83     1
     74     84     1
     75     76     1
     75     86     1
     75     83     1
     75     84     1
     77     85     1
     77     80     1
     77     81     1
     78     85     1
     78     80     1
     78     81     1
     79    215     1
     80     87     1
     80    214     1
     81     87     1
     81    214     1
     82    240     1
     83     88     1
     83    239     1
     84     88     1
     84    239     1
     85    195     1
     85    196     1
     86    220     1
     86    221     1
     87    215     1
     88    240     1
     91    115     1
     91     99     1
     91    100     1
     91    102     1
     91    103     1
     92    114     1
     92     95     1
     92     96     1
     92     98     1
     92    101     1
     93    114     1
     93     95     1
     93     96     1
     93     98     1
     93    101     1
     95     97     1
     95    115     1
     96     97     1
     96    115     1
     97    108     1
     97    109     1
     97    105     1
     97    106     1
     98    102     1
     98    103     1
     99    101     1
     99    111     1
     99    108     1
     99    109     1
    100    101     1
    100    111     1
    100    108     1
    100    109     1
    102    110     1
    102    105     1
    102    106     1
    103    110     1
    103    105     1
    103    106     1
    104    265     1
    105    112     1
    105    264     1
    106    112     1
    106    264     1
    107    290     1
    108    113     1
    108    289     1
    109    113     1
    109    289     1
    110    245     1
    110    246     1
    111    270     1
    111    271     1
    112    265     1
    113    290     1
    116    140     1
    116    124     1
    116    125     1
    116    127     1
    116    128     1
    117    139     1
    117    120     1
    117    121     1
    117    123     1
    117    126     1
    118    139     1
    118    120     1
    118    121     1
    118    123     1
    118    126     1
    120    122     1
    120    140     1
    121    122     1
    121    140     1
    122    133     1
    122    134     1
    122    130     1
    122    131     1
    123    127     1
    123    128     1
    124    126     1
    124    136     1
    124    133     1
    124    134     1
    125    126     1
    125    136     1
    125    133     1
    125    134     1
    127    135     1
    127    130     1
    127    131     1
    128    135     1
    128    130     1
    128    131     1
    129    315     1
    130    137     1
    130    314     1
    131    137     1
    131    314     1
    132    340     1
    133    138     1
    133    339     1
    134    138     1
    134    339     1
    135    295     1
    135    296     1
    136    320     1
    136    321     1
    137    315     1
    138    340     1
    141    165     1
    141    149     1
    141    150     1
    141    152     1
    141    153     1
    142    164     1
    142    145     1
    142    146     1
    142    148     1
    142    151     1
    143    164     1
    143    145     1
    143    146     1
    143    148     1
    143    151     1
    145    147     1
    145    165     1
    146    147     1
    146    165     1
    147    158     1
    147    159     1
    147    155     1
    147    156     1
    148    152     1
    148    153     1
    149    151     1
    149    161     1
    149    158     1
    149    159     1
    150    151     1
    150    161     1
    150    158     1
    150    159     1
    152    160     1
    152    155     1
    152    156     1
    153    160     1
    153    155     1
    153    156     1
    154    342     1
    155    341     1
    155    162     1
    156    341     1
    156    162     1
    157    369     1
    158    163     1
    158    368     1
    159    163     1
    159    368     1
    160    344     1
    160    346     1
    161    371     1
    161    373     1
    162    342     1
    163    369     1
    166    190     1
    166    174     1
    166    175     1
    166    177     1
    166    178     1
    167    189     1
    167    170     1
    167    171     1
    167    173     1
    167    176     1
    168    189     1
    168    170     1
    168    171     1
    168    173     1
    168    176     1
    170    172     1
    170    190     1
    171    172     1
    171    190     1
    172    183     1
    172    184     1
    172    180     1
    172    181     1
    173    177     1
    173    178     1
    174    176     1
    174    186     1
    174    183     1
    174    184     1
    175    176     1
    175    186     1
    175    183     1
    175    184     1
    177    185     1
    177    180     1
    177    181     1
    178    185     1
    178    180     1
    178    181     1
    179    396     1
    180    395     1
    180    187     1
    181    395     1
    181    187     1
    182    423     1
    183    188     1
    183    422     1
    184    188     1
    184    422     1
    185    398     1
    185    400     1
    186    425     1
    186    427     1
    187    396     1
    188    423     1
    191    215     1
    191    199     1
    191    200     1
    191    202     1
    191    203     1
    192    214     1
    192    195     1
    192    196     1
    192    198     1
    192    201     1
    193    214     1
    193    195     1
    193    196     1
    193    198     1
    193    201     1
    195    197     1
    195    215     1
    196    197     1
    196    215     1
    197    208     1
    197    209     1
    197    205     1
    197    206     1
    198    202     1
    198    203     1
    199    201     1
    199    211     1
    199    208     1
    199    209     1
    200    201     1
    200    211     1
    200    208     1
    200    209     1
    202    210     1
    202    205     1
    202    206     1
    203    210     1
    203    205     1
    203    206     1
    204    450     1
    205    449     1
    205    212     1
    206    449     1
    206    212     1
    207    477     1
    208    213     1
    208    476     1
    209    213     1
    209    476     1
    210    452     1
    210    454     1
    211    479     1
    211    481     1
    212    450     1
    213    477     1
    216    240     1
    216    224     1
    216    225     1
    216    227     1
    216    228     1
    217    239     1
    217    220     1
    217    221     1
    217    223     1
    217    226     1
    218    239     1
    218    220     1
    218    221     1
    218    223     1
    218    226     1
    220    222     1
    220    240     1
    221    222     1
    221    240     1
    222    233     1
    222    234     1
    222    230     1
    222    231     1
    223    227     1
    223    228     1
    224    226     1
    224    236     1
    224    233     1
    224    234     1
    225    226     1
    225    236     1
    225    233     1
    225    234     1
    227    235     1
    227    230     1
    227    231     1
    228    235     1
    228    230     1
    228    231     1
    229    504     1
    230    503     1
    230    237     1
    231    503     1
    231    237     1
    232    531     1
    233    238     1
    233    530     1
    234    238     1
    234    530     1
    235    506     1
    235    508     1
    236    533     1
    236    535     1
    237    504     1
    238    531     1
    241    265     1
    241    249     1
    241    250     1
    241    252     1
    241    253     1
    242    264     1
    242    245     1
    242    246     1
    242    248     1
    242    251     1
    243    264     1
    243    245     1
    243    246     1
    243    248     1
    243    251     1
    245    247     1
    245    265     1
    246    247     1
    246    265     1
    247    258     1
    247    259     1
    247    255     1
    247    256     1
    248    252     1
    248    253     1
    249    251     1
    249    261     1
    249    258     1
    249    259     1
    250    251     1
    250    261     1
    250    258     1
    250    259     1
    252    260     1
    252    255     1
    252    256     1
    253    260     1
    253    255     1
    253    256     1
    254    558     1
    255    557     1
    255    262     1
    256    557     1
    256    262     1
    257    585     1
    258    263     1
    258    584     1
    259    263     1
    259    584     1
    260    560     1
    260    562     1
    261    587     1
    261    589     1
    262    558     1
    263    585     1
    266    290     1
    266    274     1
    266    275     1
    266    277     1
    266    278     1
    267    289     1
    267    270     1
    267    271     1
    267    273     1
    267    276     1
    268    289     1
    268    270     1
    268    271     1
    268    273     1
    268    276     1
    270    272     1
    270    290     1
    271    272     1
    271    290     1
    272    283     1
    272    284     1
    272    280     1
    272    281     1
    273    277     1
    273    278     1
    274    276     1
    274    286     1
    274    283     1
    274    284     1
    275    276     1
    275    286     1
    275    283     1
    275    284     1
    277    285     1
    277    280     1
    277    281     1
    278    285     1
    278    280     1
    278    281     1
    279    612     1
    280    611     1
    280    287     1
    281    611     1
    281    287     1
    282    639     1
    283    288     1
    283    638     1
    284    288     1
    284    638     1
    285    614     1
    285    616     1
    286    641     1
    286    643     1
    287    612     1
    288    639     1
    291    315     1
    291    299     1
    291    300     1
    291    302     1
    291    303     1
    292    314     1
    292    295     1
    292    296     1
    292    298     1
    292    301     1
    293    314     1
    293    295     1
    293    296     1
    293    298     1
    293    301     1
    295    297     1
    295    315     1
    296    297     1
    296    315     1
    297    308     1
    297    309     1
    297    305     1
    297    306     1
    298    302     1
    298    303     1
    299    301     1
    299    311     1
    299    308     1
    299    309     1
    300    301     1
    300    311     1
    300    308     1
    300    309     1
    302    310     1
    302    305     1
    302    306     1
    303    310     1
    303    305     1
    303    306     1
    304    666     1
    305    665     1
    305    312     1
    306    665     1
    306    312     1
    307    693     1
    308    313     1
    308    692     1
    309    313     1
    309    692     1
    310    668     1
    310    670     1
    311    695     1
    311    697     1
    312    666     1
    313    693     1
    316    340     1
    316    324     1
    316    325     1
    316    327     1
    316    328     1
    317    339     1
    317    320     1
    317    321     1
    317    323     1
    317    326     1
    318    339     1
    318    320     1
    318    321     1
    318    323     1
    318    326     1
    320    322     1
    320    340     1
    321    322     1
    321    340     1
    322    333     1
    322    334     1
    322    330     1
    322    331     1
    323    327     1
    323    328     1
    324    326     1
    324    336     1
    324    333     1
    324    334     1
    325    326     1
    325    336     1
    325    333     1
    325    334     1
    327    335     1
    327    330     1
    327    331     1
    328    335     1
    328    330     1
    328    331     1
    329    720     1
    330    719     1
    330    337     1
    331    719     1
    331    337     1
    332    747     1
    333    746     1
    333    338     1
    334    746     1
    334    338     1
    335    722     1
    335    724     1
    336    749     1
    336    751     1
    337    720     1
    338    747     1
    341    347     1
    341    348     1
    342    345     1
    342    344     1
    342    346     1
    344    349     1
    344    347     1
    344    348     1
    345    360     1
    345    361     1
    345    352     1
    345    354     1
    346    349     1
    346    347     1
    346    348     1
    347    350     1
    347    351     1
    348    350     1
    348    351     1
    349    363     1
    349    364     1
    349    355     1
    349    356     1
    350    352     1
    350    354     1
    351    360     1
    351    361     1
    352    357     1
    352    355     1
    352    356     1
    354    357     1
    354    355     1
    354    356     1
    355    358     1
    355    359     1
    356    358     1
    356    359     1
    360    365     1
    360    363     1
    360    364     1
    361    365     1
    361    363     1
    361    364     1
    363    366     1
    363    367     1
    364    366     1
    364    367     1
    368    374     1
    368    375     1
    369    372     1
    369    371     1
    369    373     1
    371    376     1
    371    374     1
    371    375     1
    372    387     1
    372    388     1
    372    379     1
    372    381     1
    373    376     1
    373    374     1
    373    375     1
    374    377     1
    374    378     1
    375    377     1
    375    378     1
    376    390     1
    376    391     1
    376    382     1
    376    383     1
    377    379     1
    377    381     1
    378    387     1
    378    388     1
    379    384     1
    379    382     1
    379    383     1
    381    384     1
    381    382     1
    381    383     1
    382    385     1
    382    386     1
    383    385     1
    383    386     1
    387    392     1
    387    390     1
    387    391     1
    388    392     1
    388    390     1
    388    391     1
    390    393     1
    390    394     1
    391    393     1
    391    394     1
    395    401     1
    395    402     1
    396    399     1
    396    398     1
    396    400     1
    398    403     1
    398    401     1
    398    402     1
    399    414     1
    399    415     1
    399    406     1
    399    408     1
    400    403     1
    400    401     1
    400    402     1
    401    404     1
    401    405     1
    402    404     1
    402    405     1
    403    417     1
    403    418     1
    403    409     1
    403    410     1
    404    406     1
    404    408     1
    405    414     1
    405    415     1
    406    411     1
    406    409     1
    406    410     1
    408    411     1
    408    409     1
    408    410     1
    409    412     1
    409    413     1
    410    412     1
    410    413     1
    414    419     1
    414    417     1
    414    418     1
    415    419     1
    415    417     1
    415    418     1
    417    420     1
    417    421     1
    418    420     1
    418    421     1
    422    428     1
    422    429     1
    423    426     1
    423    425     1
    423    427     1
    425    430     1
    425    428     1
    425    429     1
    426    441     1
    426    442     1
    426    433     1
    426    435     1
    427    430     1
    427    428     1
    427    429     1
    428    431     1
    428    432     1
    429    431     1
    429    432     1
    430    444     1
    430    445     1
    430    436     1
    430    437     1
    431    433     1
    431    435     1
    432    441     1
    432    442     1
    433    438     1
    433    436     1
    433    437     1
    435    438     1
    435    436     1
    435    437     1
    436    439     1
    436    440     1
    437    439     1
    437    440     1
    441    446     1
    441    444     1
    441    445     1
    442    446     1
    442    444     1
    442    445     1
    444    447     1
    444    448     1
    445    447     1
    445    448     1
    449    455     1
    449    456     1
    450    453     1
    450    452     1
    450    454     1
    452    457     1
    452    455     1
    452    456     1
    453    468     1
    453    469     1
    453    460     1
    453    462     1
    454    457     1
    454    455     1
    454    456     1
    455    458     1
    455    459     1
    456    458     1
    456    459     1
    457    471     1
    457    472     1
    457    463     1
    457    464     1
    458    460     1
    458    462     1
    459    468     1
    459    469     1
    460    465     1
    460    463     1
    460    464     1
    462    465     1
    462    463     1
    462    464     1
    463    466     1
    463    467     1
    464    466     1
    464    467     1
    468    473     1
    468    471     1
    468    472     1
    469    473     1
    469    471     1
    469    472     1
    471    474     1
    471    475     1
    472    474     1
    472    475     1
    476    482     1
    476    483     1
    477    480     1
    477    479     1
    477    481     1
    479    484     1
    479    482     1
    479    483     1
    480    495     1
    480    496     1
    480    487     1
    480    489     1
    481    484     1
    481    482     1
    481    483     1
    482    485     1
    482    486     1
    483    485     1
    483    486     1
    484    498     1
    484    499     1
    484    490     1
    484    491     1
    485    487     1
    485    489     1
    486    495     1
    486    496     1
    487    492     1
    487    490     1
    487    491     1
    489    492     1
    489    490     1
    489    491     1
    490    493     1
    490    494     1
    491    493     1
    491    494     1
    495    500     1
    495    498     1
    495    499     1
    496    500     1
    496    498     1
    496    499     1
    498    501     1
    498    502     1
    499    501     1
    499    502     1
    503    509     1
    503    510     1
    504    507     1
    504    506     1
    504    508     1
    506    511     1
    506    509     1
    506    510     1
    507    522     1
    507    523     1
    507    514     1
    507    516     1
    508    511     1
    508    509     1
    508    510     1
    509    512     1
    509    513     1
    510    512     1
    510    513     1
    511    525     1
    511    526     1
    511    517     1
    511    518     1
    512    514     1
    512    516     1
    513    522     1
    513    523     1
    514    519     1
    514    517     1
    514    518     1
    516    519     1
    516    517     1
    516    518     1
    517    520     1
    517    521     1
    518    520     1
    518    521     1
    522    527     1
    522    525     1
    522    526     1
    523    527     1
    523    525     1
    523    526     1
    525    528     1
    525    529     1
    526    528     1
    526    529     1
    530    536     1
    530    537     1
    531    534     1
    531    533     1
    531    535     1
    533    538     1
    533    536     1
    533    537     1
    534    549     1
    534    550     1
    534    541     1
    534    543     1
    535    538     1
    535    536     1
    535    537     1
    536    539     1
    536    540     1
    537    539     1
    537    540     1
    538    552     1
    538    553     1
    538    544     1
    538    545     1
    539    541     1
    539    543     1
    540    549     1
    540    550     1
    541    546     1
    541    544     1
    541    545     1
    543    546     1
    543    544     1
    543    545     1
    544    547     1
    544    548     1
    545    547     1
    545    548     1
    549    554     1
    549    552     1
    549    553     1
    550    554     1
    550    552     1
    550    553     1
    552    555     1
    552    556     1
    553    555     1
    553    556     1
    557    563     1
    557    564     1
    558    561     1
    558    560     1
    558    562     1
    560    565     1
    560    563     1
    560    564     1
    561    576     1
    561    577     1
    561    568     1
    561    570     1
    562    565     1
    562    563     1
    562    564     1
    563    566     1
    563    567     1
    564    566     1
    564    567     1
    565    579     1
    565    580     1
    565    571     1
    565    572     1
    566    568     1
    566    570     1
    567    576     1
    567    577     1
    568    573     1
    568    571     1
    568    572     1
    570    573     1
    570    571     1
    570    572     1
    571    574     1
    571    575     1
    572    574     1
    572    575     1
    576    581     1
    576    579     1
    576    580     1
    577    581     1
    577    579     1
    577    580     1
    579    582     1
    579    583     1
    580    582     1
    580    583     1
    584    590     1
    584    591     1
    585    588     1
    585    587     1
    585    589     1
    587    592     1
    587    590     1
    587    591     1
    588    603     1
    588    604     1
    588    595     1
    588    597     1
    589    592     1
    589    590     1
    589    591     1
    590    593     1
    590    594     1
    591    593     1
    591    594     1
    592    606     1
    592    607     1
    592    598     1
    592    599     1
    593    595     1
    593    597     1
    594    603     1
    594    604     1
    595    600     1
    595    598     1
    595    599     1
    597    600     1
    597    598     1
    597    599     1
    598    601     1
    598    602     1
    599    601     1
    599    602     1
    603    608     1
    603    606     1
    603    607     1
    604    608     1
    604    606     1
    604    607     1
    606    609     1
    606    610     1
    607    609     1
    607    610     1
    611    617     1
    611    618     1
    612    615     1
    612    614     1
    612    616     1
    614    619     1
    614    617     1
    614    618     1
    615    630     1
    615    631     1
    615    622     1
    615    624     1
    616    619     1
    616    617     1
    616    618     1
    617    620     1
    617    621     1
    618    620     1
    618    621     1
    619    633     1
    619    634     1
    619    625     1
    619    626     1
    620    622     1
    620    624     1
    621    630     1
    621    631     1
    622    627     1
    622    625     1
    622    626     1
    624    627     1
    624    625     1
    624    626     1
    625    628     1
    625    629     1
    626    628     1
    626    629     1
    630    635     1
    630    633     1
    630    634     1
    631    635     1
    631    633     1
    631    634     1
    633    636     1
    633    637     1
    634    636     1
    634    637     1
    638    644     1
    638    645     1
    639    642     1
    639    641     1
    639    643     1
    641    646     1
    641    644     1
    641    645     1
    642    657     1
    642    658     1
    642    649     1
    642    651     1
    643    646     1
    643    644     1
    643    645     1
    644    647     1
    644    648     1
    645    647     1
    645    648     1
    646    660     1
    646    661     1
    646    652     1
    646    653     1
    647    649     1
    647    651     1
    648    657     1
    648    658     1
    649    654     1
    649    652     1
    649    653     1
    651    654     1
    651    652     1
    651    653     1
    652    655     1
    652    656     1
    653    655     1
    653    656     1
    657    662     1
    657    660     1
    657    661     1
    658    662     1
    658    660     1
    658    661     1
    660    663     1
    660    664     1
    661    663     1
    661    664     1
    665    671     1
    665    672     1
    666    669     1
    666    668     1
    666    670     1
    668    673     1
    668    671     1
    668    672     1
    669    684     1
    669    685     1
    669    676     1
    669    678     1
    670    673     1
    670    671     1
    670    672     1
    671    674     1
    671    675     1
    672    674     1
    672    675     1
    673    687     1
    673    688     1
    673    679     1
    673    680     1
    674    676     1
    674    678     1
    675    684     1
    675    685     1
    676    681     1
    676    679     1
    676    680     1
    678    681     1
    678    679     1
    678    680     1
    679    682     1
    679    683     1
    680    682     1
    680    683     1
    684    689     1
    684    687     1
    684    688     1
    685    689     1
    685    687     1
    685    688     1
    687    690     1
    687    691     1
    688    690     1
    688    691     1
    692    698     1
    692    699     1
    693    696     1
    693    695     1
    693    697     1
    695    700     1
    695    698     1
    695    699     1
    696    711     1
    696    712     1
    696    703     1
    696    705     1
    697    700     1
    697    698     1
    697    699     1
    698    701     1
    698    702     1
    699    701     1
    699    702     1
    700    714     1
    700    715     1
    700    706     1
    700    707     1
    701    703     1
    701    705     1
    702    711     1
    702    712     1
    703    708     1
    703    706     1
    703    707     1
    705    708     1
    705    706     1
    705    707     1
    706    709     1
    706    710     1
    707    709     1
    707    710     1
    711    716     1
    711    714     1
    711    715     1
    712    716     1
    712    714     1
    712    715     1
    714    717     1
    714    718     1
    715    717     1
    715    718     1
    719    725     1
    719    726     1
    720    723     1
    720    722     1
    720    724     1
    722    727     1
    722    725     1
    722    726     1
    723    738     1
    723    739     1
    723    730     1
    723    732     1
    724    727     1
    724    725     1
    724    726     1
    725    728     1
    725    729     1
    726    728     1
    726    729     1
    727    741     1
    727    742     1
    727    733     1
    727    734     1
    728    730     1
    728    732     1
    729    738     1
    729    739     1
    730    735     1
    730    733     1
    730    734     1
    732    735     1
    732    733     1
    732    734     1
    733    736     1
    733    737     1
    734    736     1
    734    737     1
    738    743     1
    738    741     1
    738    742     1
    739    743     1
    739    741     1
    739    742     1
    741    744     1
    741    745     1
    742    744     1
    742    745     1
    746    752     1
    746    753     1
    747    750     1
    747    749     1
    747    751     1
    749    754     1
    749    752     1
    749    753     1
    750    765     1
    750    766     1
    750    757     1
    750    759     1
    751    754     1
    751    752     1
    751    753     1
    752    755     1
    752    756     1
    753    755     1
    753    756     1
    754    768     1
    754    769     1
    754    760     1
    754    761     1
    755    757     1
    755    759     1
    756    765     1
    756    766     1
    757    762     1
    757    760     1
    757    761     1
    759    762     1
    759    760     1
    759    761     1
    760    763     1
    760    764     1
    761    763     1
    761    764     1
    765    770     1
    765    768     1
    765    769     1
    766    770     1
    766    768     1
    766    769     1
    768    771     1
    768    772     1
    769    771     1
    769    772     1

[ angles ]
;    ai     aj     ak funct         c0         c1         c2         c3
      1      4      7     1   111.0400475 552.288000
      1      8      9     1   112.3500484 533.878400
      1      8     12     1   112.3500484 533.878400
      4      1      8     1   111.0400475 552.288000
      4      7     15     1   112.3500484 533.878400
      4      7     18     1   112.3500484 533.878400
      7     15     21     1   111.0400475 552.288000
      7     18     24     1   111.0400475 552.288000
      8      9     30     1   111.0400475 552.288000
      8     12     27     1   111.0400475 552.288000
      9      8     12     1   112.3500484 533.878400
      9     30     34     1   111.0400475 529.694400
     12     27     33     1   111.0400475 529.694400
     15      7     18     1   112.3500484 533.878400
     15     21     35     1   111.0400475 529.694400
     18     24     36     1   111.0400475 529.694400
     21     35     38     1   123.2000528 564.003200
     21     35    114     1   115.1800491 558.982400
     24     36     39     1   123.2000528 564.003200
     24     36    139     1   115.1800491 558.982400
     27     33     37     1   123.2000528 564.003200
     27     33     64     1   115.1800491 558.982400
     30     34     40     1   123.2000528 564.003200
     30     34     89     1   115.1800491 558.982400
     33     64     44     1   120.6900519 530.531200
     34     89     69     1   120.6900519 530.531200
     35    114     94     1   120.6900519 530.531200
     36    139    119     1   120.6900519 530.531200
     37     33     64     1   123.0500530 620.905600
     38     35    114     1   123.0500530 620.905600
     39     36    139     1   123.0500530 620.905600
     40     34     89     1   123.0500530 620.905600
     41     44     64     1   111.6100477 551.451200
     41     47     48     1   112.3500484 533.878400
     41     47     51     1   112.3500484 533.878400
     44     41     47     1   111.0400475 552.288000
     47     48     57     1   111.0400475 552.288000
     47     51     54     1   111.0400475 552.288000
     48     47     51     1   112.3500484 533.878400
     48     57     61     1   111.0400475 529.694400
     51     54     60     1   111.0400475 529.694400
     54     60     62     1   123.2000528 564.003200
     54     60    164     1   115.1800491 558.982400
     57     61     63     1   123.2000528 564.003200
     57     61    189     1   115.1800491 558.982400
     60    164    144     1   120.6900519 530.531200
     61    189    169     1   120.6900519 530.531200
     62     60    164     1   123.0500530 620.905600
     63     61    189     1   123.0500530 620.905600
     66     69     89     1   111.6100477 551.451200
     66     72     73     1   112.3500484 533.878400
     66     72     76     1   112.3500484 533.878400
     69     66     72     1   111.0400475 552.288000
     72     73     82     1   111.0400475 552.288000
     72     76     79     1   111.0400475 552.288000
     73     72     76     1   112.3500484 533.878400
     73     82     86     1   111.0400475 529.694400
     76     79     85     1   111.0400475 529.694400
     79     85     87     1   123.2000528 564.003200
     79     85    214     1   115.1800491 558.982400
     82     86     88     1   123.2000528 564.003200
     82     86    239     1   115.1800491 558.982400
     85    214    194     1   120.6900519 530.531200
     86    239    219     1   120.6900519 530.531200
     87     85    214     1   123.0500530 620.905600
     88     86    239     1   123.0500530 620.905600
     91     94    114     1   111.6100477 551.451200
     91     97     98     1   112.3500484 533.878400
     91     97    101     1   112.3500484 533.878400
     94     91     97     1   111.0400475 552.288000
     97     98    107     1   111.0400475 552.288000
     97    101    104     1   111.0400475 552.288000
     98     97    101     1   112.3500484 533.878400
     98    107    111     1   111.0400475 529.694400
    101    104    110     1   111.0400475 529.694400
    104    110    112     1   123.2000528 564.003200
    104    110    264     1   115.1800491 558.982400
    107    111    113     1   123.2000528 564.003200
    107    111    289     1   115.1800491 558.982400
    110    264    244     1   120.6900519 530.531200
    111    289    269     1   120.6900519 530.531200
    112    110    264     1   123.0500530 620.905600
    113    111    289     1   123.0500530 620.905600
    116    119    139     1   111.6100477 551.451200
    116    122    123     1   112.3500484 533.878400
    116    122    126     1   112.3500484 533.878400
    119    116    122     1   111.0400475 552.288000
    122    123    132     1   111.0400475 552.288000
    122    126    129     1   111.0400475 552.288000
    123    122    126     1   112.3500484 533.878400
    123    132    136     1   111.0400475 529.694400
    126    129    135     1   111.0400475 529.694400
    129    135    137     1   123.2000528 564.003200
    129    135    314     1   115.1800491 558.982400
    132    136    138     1   123.2000528 564.003200
    132    136    339     1   115.1800491 558.982400
    135    314    294     1   120.6900519 530.531200
    136    339    319     1   120.6900519 530.531200
    137    135    314     1   123.0500530 620.905600
    138    136    339     1   123.0500530 620.905600
    141    144    164     1   111.6100477 551.451200
    141    147    148     1   112.3500484 533.878400
    141    147    151     1   112.3500484 533.878400
    144    141    147     1   111.0400475 552.288000
    147    148    157     1   111.0400475 552.288000
    147    151    154     1   111.0400475 552.288000
    148    147    151     1   112.3500484 533.878400
    148    157    161     1   111.0400475 529.694400
    151    154    160     1   111.0400475 529.694400
    154    160    341     1   115.1800491 558.982400
    154    160    162     1   123.2000528 564.003200
    157    161    163     1   123.2000528 564.003200
    157    161    368     1   115.1800491 558.982400
    160    341    343     1   120.6900519 530.531200
    161    368    370     1   120.6900519 530.531200
    162    160    341     1   123.0500530 620.905600
    163    161    368     1   123.0500530 620.905600
    166    169    189     1   111.6100477 551.451200
    166    172    173     1   112.3500484 533.878400
    166    172    176     1   112.3500484 533.878400
    169    166    172     1   111.0400475 552.288000
    172    173    182     1   111.0400475 552.288000
    172    176    179     1   111.0400475 552.288000
    173    172    176     1   112.3500484 533.878400
    173    182    186     1   111.0400475 529.694400
    176    179    185     1   111.0400475 529.694400
    179    185    395     1   115.1800491 558.982400
    179    185    187     1   123.2000528 564.003200
    182    186    188     1   123.2000528 564.003200
    182    186    422     1   115.1800491 558.982400
    185    395    397     1   120.6900519 530.531200
    186    422    424     1   120.6900519 530.531200
    187    185    395     1   123.0500530 620.905600
    188    186    422     1   123.0500530 620.905600
    191    194    214     1   111.6100477 551.451200
    191    197    198     1   112.3500484 533.878400
    191    197    201     1   112.3500484 533.878400
    194    191    197     1   111.0400475 552.288000
    197    198    207     1   111.0400475 552.288000
    197    201    204     1   111.0400475 552.288000
    198    197    201     1   112.3500484 533.878400
    198    207    211     1   111.0400475 529.694400
    201    204    210     1   111.0400475 529.694400
    204    210    449     1   115.1800491 558.982400
    204    210    212     1   123.2000528 564.003200
    207    211    213     1   123.2000528 564.003200
    207    211    476     1   115.1800491 558.982400
    210    449    451     1   120.6900519 530.531200
    211    476    478     1   120.6900519 530.531200
    212    210    449     1   123.0500530 620.905600
    213    211    476     1   123.0500530 620.905600
    216    219    239     1   111.6100477 551.451200
    216    222    223     1   112.3500484 533.878400
    216    222    226     1   112.3500484 533.878400
    219    216    222     1   111.0400475 552.288000
    222    223    232     1   111.0400475 552.288000
    222    226    229     1   111.0400475 552.288000
    223    222    226     1   112.3500484 533.878400
    223    232    236     1   111.0400475 529.694400
    226    229    235     1   111.0400475 529.694400
    229    235    503     1   115.1800491 558.982400
    229    235    237     1   123.2000528 564.003200
    232    236    238     1   123.2000528 564.003200
    232    236    530     1   115.1800491 558.982400
    235    503    505     1   120.6900519 530.531200
    236    530    532     1   120.6900519 530.531200
    237    235    503     1   123.0500530 620.905600
    238    236    530     1   123.0500530 620.905600
    241    244    264     1   111.6100477 551.451200
    241    247    248     1   112.3500484 533.878400
    241    247    251     1   112.3500484 533.878400
    244    241    247     1   111.0400475 552.288000
    247    248    257     1   111.0400475 552.288000
    247    251    254     1   111.0400475 552.288000
    248    247    251     1   112.3500484 533.878400
    248    257    261     1   111.0400475 529.694400
    251    254    260     1   111.0400475 529.694400
    254    260    557     1   115.1800491 558.982400
    254    260    262     1   123.2000528 564.003200
    257    261    263     1   123.2000528 564.003200
    257    261    584     1   115.1800491 558.982400
    260    557    559     1   120.6900519 530.531200
    261    584    586     1   120.6900519 530.531200
    262    260    557     1   123.0500530 620.905600
    263    261    584     1   123.0500530 620.905600
    266    269    289     1   111.6100477 551.451200
    266    272    273     1   112.3500484 533.878400
    266    272    276     1   112.3500484 533.878400
    269    266    272     1   111.0400475 552.288000
    272    273    282     1   111.0400475 552.288000
    272    276    279     1   111.0400475 552.288000
    273    272    276     1   112.3500484 533.878400
    273    282    286     1   111.0400475 529.694400
    276    279    285     1   111.0400475 529.694400
    279    285    611     1   115.1800491 558.982400
    279    285    287     1   123.2000528 564.003200
    282    286    288     1   123.2000528 564.003200
    282    286    638     1   115.1800491 558.982400
    285    611    613     1   120.6900519 530.531200
    286    638    640     1   120.6900519 530.531200
    287    285    611     1   123.0500530 620.905600
    288    286    638     1   123.0500530 620.905600
    291    294    314     1   111.6100477 551.451200
    291    297    298     1   112.3500484 533.878400
    291    297    301     1   112.3500484 533.878400
    294    291    297     1   111.0400475 552.288000
    297    298    307     1   111.0400475 552.288000
    297    301    304     1   111.0400475 552.288000
    298    297    301     1   112.3500484 533.878400
    298    307    311     1   111.0400475 529.694400
    301    304    310     1   111.0400475 529.694400
    304    310    665     1   115.1800491 558.982400
    304    310    312     1   123.2000528 564.003200
    307    311    313     1   123.2000528 564.003200
    307    311    692     1   115.1800491 558.982400
    310    665    667     1   120.6900519 530.531200
    311    692    694     1   120.6900519 530.531200
    312    310    665     1   123.0500530 620.905600
    313    311    692     1   123.0500530 620.905600
    316    319    339     1   111.6100477 551.451200
    316    322    323     1   112.3500484 533.878400
    316    322    326     1   112.3500484 533.878400
    319    316    322     1   111.0400475 552.288000
    322    323    332     1   111.0400475 552.288000
    322    326    329     1   111.0400475 552.288000
    323    322    326     1   112.3500484 533.878400
    323    332    336     1   111.0400475 529.694400
    326    329    335     1   111.0400475 529.694400
    329    335    719     1   115.1800491 558.982400
    329    335    337     1   123.2000528 564.003200
    332    336    746     1   115.1800491 558.982400
    332    336    338     1   123.2000528 564.003200
    335    719    721     1   120.6900519 530.531200
    336    746    748     1   120.6900519 530.531200
    337    335    719     1   123.0500530 620.905600
    338    336    746     1   123.0500530 620.905600
    341    343    345     1   111.6100477 551.451200
    343    345    349     1   111.0400475 552.288000
    345    349    350     1   112.3500484 533.878400
    345    349    351     1   112.3500484 533.878400
    349    350    362     1   111.0400475 552.288000
    349    351    353     1   111.0400475 552.288000
    350    349    351     1   112.3500484 533.878400
    350    362    365     1   111.0400475 529.694400
    351    353    357     1   111.0400475 529.694400
    353    357    358     1   123.2000528 564.003200
    353    357    359     1   123.2000528 564.003200
    358    357    359     1   130.2500561 651.867200
    362    365    366     1   123.2000528 564.003200
    362    365    367     1   123.2000528 564.003200
    366    365    367     1   130.2500561 651.867200
    368    370    372     1   111.6100477 551.451200
    370    372    376     1   111.0400475 552.288000
    372    376    377     1   112.3500484 533.878400
    372    376    378     1   112.3500484 533.878400
    376    377    389     1   111.0400475 552.288000
    376    378    380     1   111.0400475 552.288000
    377    389    392     1   111.0400475 529.694400
    377    376    378     1   112.3500484 533.878400
    378    380    384     1   111.0400475 529.694400
    380    384    385     1   123.2000528 564.003200
    380    384    386     1   123.2000528 564.003200
    385    384    386     1   130.2500561 651.867200
    389    392    393     1   123.2000528 564.003200
    389    392    394     1   123.2000528 564.003200
    393    392    394     1   130.2500561 651.867200
    395    397    399     1   111.6100477 551.451200
    397    399    403     1   111.0400475 552.288000
    399    403    404     1   112.3500484 533.878400
    399    403    405     1   112.3500484 533.878400
    403    404    416     1   111.0400475 552.288000
    403    405    407     1   111.0400475 552.288000
    404    403    405     1   112.3500484 533.878400
    404    416    419     1   111.0400475 529.694400
    405    407    411     1   111.0400475 529.694400
    407    411    412     1   123.2000528 564.003200
    407    411    413     1   123.2000528 564.003200
    412    411    413     1   130.2500561 651.867200
    416    419    420     1   123.2000528 564.003200
    416    419    421     1   123.2000528 564.003200
    420    419    421     1   130.2500561 651.867200
    422    424    426     1   111.6100477 551.451200
    424    426    430     1   111.0400475 552.288000
    426    430    431     1   112.3500484 533.878400
    426    430    432     1   112.3500484 533.878400
    430    431    443     1   111.0400475 552.288000
    430    432    434     1   111.0400475 552.288000
    431    443    446     1   111.0400475 529.694400
    431    430    432     1   112.3500484 533.878400
    432    434    438     1   111.0400475 529.694400
    434    438    439     1   123.2000528 564.003200
    434    438    440     1   123.2000528 564.003200
    439    438    440     1   130.2500561 651.867200
    443    446    447     1   123.2000528 564.003200
    443    446    448     1   123.2000528 564.003200
    447    446    448     1   130.2500561 651.867200
    449    451    453     1   111.6100477 551.451200
    451    453    457     1   111.0400475 552.288000
    453    457    458     1   112.3500484 533.878400
    453    457    459     1   112.3500484 533.878400
    457    458    470     1   111.0400475 552.288000
    457    459    461     1   111.0400475 552.288000
    458    457    459     1   112.3500484 533.878400
    458    470    473     1   111.0400475 529.694400
    459    461    465     1   111.0400475 529.694400
    461    465    466     1   123.2000528 564.003200
    461    465    467     1   123.2000528 564.003200
    466    465    467     1   130.2500561 651.867200
    470    473    474     1   123.2000528 564.003200
    470    473    475     1   123.2000528 564.003200
    474    473    475     1   130.2500561 651.867200
    476    478    480     1   111.6100477 551.451200
    478    480    484     1   111.0400475 552.288000
    480    484    485     1   112.3500484 533.878400
    480    484    486     1   112.3500484 533.878400
    484    485    497     1   111.0400475 552.288000
    484    486    488     1   111.0400475 552.288000
    485    497    500     1   111.0400475 529.694400
    485    484    486     1   112.3500484 533.878400
    486    488    492     1   111.0400475 529.694400
    488    492    493     1   123.2000528 564.003200
    488    492    494     1   123.2000528 564.003200
    493    492    494     1   130.2500561 651.867200
    497    500    501     1   123.2000528 564.003200
    497    500    502     1   123.2000528 564.003200
    501    500    502     1   130.2500561 651.867200
    503    505    507     1   111.6100477 551.451200
    505    507    511     1   111.0400475 552.288000
    507    511    512     1   112.3500484 533.878400
    507    511    513     1   112.3500484 533.878400
    511    512    524     1   111.0400475 552.288000
    511    513    515     1   111.0400475 552.288000
    512    511    513     1   112.3500484 533.878400
    512    524    527     1   111.0400475 529.694400
    513    515    519     1   111.0400475 529.694400
    515    519    520     1   123.2000528 564.003200
    515    519    521     1   123.2000528 564.003200
    520    519    521     1   130.2500561 651.867200
    524    527    528     1   123.2000528 564.003200
    524    527    529     1   123.2000528 564.003200
    528    527    529     1   130.2500561 651.867200
    530    532    534     1   111.6100477 551.451200
    532    534    538     1   111.0400475 552.288000
    534    538    539     1   112.3500484 533.878400
    534    538    540     1   112.3500484 533.878400
    538    539    551     1   111.0400475 552.288000
    538    540    542     1   111.0400475 552.288000
    539    551    554     1   111.0400475 529.694400
    539    538    540     1   112.3500484 533.878400
    540    542    546     1   111.0400475 529.694400
    542    546    547     1   123.2000528 564.003200
    542    546    548     1   123.2000528 564.003200
    547    546    548     1   130.2500561 651.867200
    551    554    555     1   123.2000528 564.003200
    551    554    556     1   123.2000528 564.003200
    555    554    556     1   130.2500561 651.867200
    557    559    561     1   111.6100477 551.451200
    559    561    565     1   111.0400475 552.288000
    561    565    566     1   112.3500484 533.878400
    561    565    567     1   112.3500484 533.878400
    565    566    578     1   111.0400475 552.288000
    565    567    569     1   111.0400475 552.288000
    566    565    567     1   112.3500484 533.878400
    566    578    581     1   111.0400475 529.694400
    567    569    573     1   111.0400475 529.694400
    569    573    574     1   123.2000528 564.003200
    569    573    575     1   123.2000528 564.003200
    574    573    575     1   130.2500561 651.867200
    578    581    582     1   123.2000528 564.003200
    578    581    583     1   123.2000528 564.003200
    582    581    583     1   130.2500561 651.867200
    584    586    588     1   111.6100477 551.451200
    586    588    592     1   111.0400475 552.288000
    588    592    593     1   112.3500484 533.878400
    588    592    594     1   112.3500484 533.878400
    592    593    605     1   111.0400475 552.288000
    592    594    596     1   111.0400475 552.288000
    593    605    608     1   111.0400475 529.694400
    593    592    594     1   112.3500484 533.878400
    594    596    600     1   111.0400475 529.694400
    596    600    601     1   123.2000528 564.003200
    596    600    602     1   123.2000528 564.003200
    601    600    602     1   130.2500561 651.867200
    605    608    609     1   123.2000528 564.003200
    605    608    610     1   123.2000528 564.003200
    609    608    610     1   130.2500561 651.867200
    611    613    615     1   111.6100477 551.451200
    613    615    619     1   111.0400475 552.288000
    615    619    620     1   112.3500484 533.878400
    615    619    621     1   112.3500484 533.878400
    619    620    632     1   111.0400475 552.288000
    619    621    623     1   111.0400475 552.288000
    620    619    621     1   112.3500484 533.878400
    620    632    635     1   111.0400475 529.694400
    621    623    627     1   111.0400475 529.694400
    623    627    628     1   123.2000528 564.003200
    623    627    629     1   123.2000528 564.003200
    628    627    629     1   130.2500561 651.867200
    632    635    636     1   123.2000528 564.003200
    632    635    637     1   123.2000528 564.003200
    636    635    637     1   130.2500561 651.867200
    638    640    642     1   111.6100477 551.451200
    640    642    646     1   111.0400475 552.288000
    642    646    647     1   112.3500484 533.878400
    642    646    648     1   112.3500484 533.878400
    646    647    659     1   111.0400475 552.288000
    646    648    650     1   111.0400475 552.288000
    647    659    662     1   111.0400475 529.694400
    647    646    648     1   112.3500484 533.878400
    648    650    654     1   111.0400475 529.694400
    650    654    655     1   123.2000528 564.003200
    650    654    656     1   123.2000528 564.003200
    655    654    656     1   130.2500561 651.867200
    659    662    663     1   123.2000528 564.003200
    659    662    664     1   123.2000528 564.003200
    663    662    664     1   130.2500561 651.867200
    665    667    669     1   111.6100477 551.451200
    667    669    673     1   111.0400475 552.288000
    669    673    674     1   112.3500484 533.878400
    669    673    675     1   112.3500484 533.878400
    673    674    686     1   111.0400475 552.288000
    673    675    677     1   111.0400475 552.288000
    674    673    675     1   112.3500484 533.878400
    674    686    689     1   111.0400475 529.694400
    675    677    681     1   111.0400475 529.694400
    677    681    682     1   123.2000528 564.003200
    677    681    683     1   123.2000528 564.003200
    682    681    683     1   130.2500561 651.867200
    686    689    690     1   123.2000528 564.003200
    686    689    691     1   123.2000528 564.003200
    690    689    691     1   130.2500561 651.867200
    692    694    696     1   111.6100477 551.451200
    694    696    700     1   111.0400475 552.288000
    696    700    701     1   112.3500484 533.878400
    696    700    702     1   112.3500484 533.878400
    700    701    713     1   111.0400475 552.288000
    700    702    704     1   111.0400475 552.288000
    701    713    716     1   111.0400475 529.694400
    701    700    702     1   112.3500484 533.878400
    702    704    708     1   111.0400475 529.694400
    704    708    709     1   123.2000528 564.003200
    704    708    710     1   123.2000528 564.003200
    709    708    710     1   130.2500561 651.867200
    713    716    717     1   123.2000528 564.003200
    713    716    718     1   123.2000528 564.003200
    717    716    718     1   130.2500561 651.867200
    719    721    723     1   111.6100477 551.451200
    721    723    727     1   111.0400475 552.288000
    723    727    728     1   112.3500484 533.878400
    723    727    729     1   112.3500484 533.878400
    727    728    740     1   111.0400475 552.288000
    727    729    731     1   111.0400475 552.288000
    728    727    729     1   112.3500484 533.878400
    728    740    743     1   111.0400475 529.694400
    729    731    735     1   111.0400475 529.694400
    731    735    736     1   123.2000528 564.003200
    731    735    737     1   123.2000528 564.003200
    736    735    737     1   130.2500561 651.867200
    740    743    744     1   123.2000528 564.003200
    740    743    745     1   123.2000528 564.003200
    744    743    745     1   130.2500561 651.867200
    746    748    750     1   111.6100477 551.451200
    748    750    754     1   111.0400475 552.288000
    750    754    755     1   112.3500484 533.878400
    750    754    756     1   112.3500484 533.878400
    754    755    767     1   111.0400475 552.288000
    754    756    758     1   111.0400475 552.288000
    755    767    770     1   111.0400475 529.694400
    755    754    756     1   112.3500484 533.878400
    756    758    762     1   111.0400475 529.694400
    758    762    763     1   123.2000528 564.003200
    758    762    764     1   123.2000528 564.003200
    763    762    764     1   130.2500561 651.867200
    767    770    771     1   123.2000528 564.003200
    767    770    772     1   123.2000528 564.003200
    771    770    772     1   130.2500561 651.867200
      1      4      5     1   109.5600471 388.275200
      1      4      6     1   109.5600471 388.275200
      2      1      4     1   109.5600471 388.275200
      2      1      8     1   109.8800469 414.216000
      2      1      3     1   108.4600466 328.025600
      3      1      4     1   109.5600471 388.275200
      3      1      8     1   109.8800469 414.216000
      5      4      7     1   109.8800469 414.216000
      5      4      6     1   108.4600466 328.025600
      6      4      7     1   109.8800469 414.216000
      7     15     16     1   109.8800469 414.216000
      7     15     17     1   109.8800469 414.216000
      7     18     19     1   109.8800469 414.216000
      7     18     20     1   109.8800469 414.216000
      8      9     10     1   109.8800469 414.216000
      8      9     11     1   109.8800469 414.216000
      8     12     13     1   109.8800469 414.216000
      8     12     14     1   109.8800469 414.216000
      9     30     31     1   109.8000471 387.438400
      9     30     32     1   109.8000471 387.438400
     10      9     30     1   109.5600471 388.275200
     10      9     11     1   108.4600466 328.025600
     11      9     30     1   109.5600471 388.275200
     12     27     28     1   109.8000471 387.438400
     12     27     29     1   109.8000471 387.438400
     13     12     27     1   109.5600471 388.275200
     13     12     14     1   108.4600466 328.025600
     14     12     27     1   109.5600471 388.275200
     15     21     22     1   109.8000471 387.438400
     15     21     23     1   109.8000471 387.438400
     16     15     21     1   109.5600471 388.275200
     16     15     17     1   108.4600466 328.025600
     17     15     21     1   109.5600471 388.275200
     18     24     25     1   109.8000471 387.438400
     18     24     26     1   109.8000471 387.438400
     19     18     24     1   109.5600471 388.275200
     19     18     20     1   108.4600466 328.025600
     20     18     24     1   109.5600471 388.275200
     22     21     35     1   108.7700466 392.459200
     22     21     23     1   107.5800459 329.699200
     23     21     35     1   108.7700466 392.459200
     25     24     36     1   108.7700466 392.459200
     25     24     26     1   107.5800459 329.699200
     26     24     36     1   108.7700466 392.459200
     28     27     33     1   108.7700466 392.459200
     28     27     29     1   107.5800459 329.699200
     29     27     33     1   108.7700466 392.459200
     31     30     34     1   108.7700466 392.459200
     31     30     32     1   107.5800459 329.699200
     32     30     34     1   108.7700466 392.459200
     33     64     65     1   117.5500507 404.174400
     34     89     90     1   117.5500507 404.174400
     35    114    115     1   117.5500507 404.174400
     36    139    140     1   117.5500507 404.174400
     41     44     45     1   109.5600471 388.275200
     41     44     46     1   109.5600471 388.275200
     42     41     44     1   109.5600471 388.275200
     42     41     47     1   109.8800469 414.216000
     42     41     43     1   108.4600466 328.025600
     43     41     44     1   109.5600471 388.275200
     43     41     47     1   109.8800469 414.216000
     44     64     65     1   117.6800502 383.254400
     45     44     64     1   108.8800464 416.726400
     45     44     46     1   108.4600466 328.025600
     46     44     64     1   108.8800464 416.726400
     47     48     49     1   109.8800469 414.216000
     47     48     50     1   109.8800469 414.216000
     47     51     52     1   109.8800469 414.216000
     47     51     53     1   109.8800469 414.216000
     48     57     58     1   109.8000471 387.438400
     48     57     59     1   109.8000471 387.438400
     49     48     57     1   109.5600471 388.275200
     49     48     50     1   108.4600466 328.025600
     50     48     57     1   109.5600471 388.275200
     51     54     55     1   109.8000471 387.438400
     51     54     56     1   109.8000471 387.438400
     52     51     54     1   109.5600471 388.275200
     52     51     53     1   108.4600466 328.025600
     53     51     54     1   109.5600471 388.275200
     55     54     60     1   108.7700466 392.459200
     55     54     56     1   107.5800459 329.699200
     56     54     60     1   108.7700466 392.459200
     58     57     61     1   108.7700466 392.459200
     58     57     59     1   107.5800459 329.699200
     59     57     61     1   108.7700466 392.459200
     60    164    165     1   117.5500507 404.174400
     61    189    190     1   117.5500507 404.174400
     66     69     70     1   109.5600471 388.275200
     66     69     71     1   109.5600471 388.275200
     67     66     69     1   109.5600471 388.275200
     67     66     72     1   109.8800469 414.216000
     67     66     68     1   108.4600466 328.025600
     68     66     69     1   109.5600471 388.275200
     68     66     72     1   109.8800469 414.216000
     69     89     90     1   117.6800502 383.254400
     70     69     89     1   108.8800464 416.726400
     70     69     71     1   108.4600466 328.025600
     71     69     89     1   108.8800464 416.726400
     72     73     74     1   109.8800469 414.216000
     72     73     75     1   109.8800469 414.216000
     72     76     77     1   109.8800469 414.216000
     72     76     78     1   109.8800469 414.216000
     73     82     83     1   109.8000471 387.438400
     73     82     84     1   109.8000471 387.438400
     74     73     82     1   109.5600471 388.275200
     74     73     75     1   108.4600466 328.025600
     75     73     82     1   109.5600471 388.275200
     76     79     80     1   109.8000471 387.438400
     76     79     81     1   109.8000471 387.438400
     77     76     79     1   109.5600471 388.275200
     77     76     78     1   108.4600466 328.025600
     78     76     79     1   109.5600471 388.275200
     80     79     85     1   108.7700466 392.459200
     80     79     81     1   107.5800459 329.699200
     81     79     85     1   108.7700466 392.459200
     83     82     86     1   108.7700466 392.459200
     83     82     84     1   107.5800459 329.699200
     84     82     86     1   108.7700466 392.459200
     85    214    215     1   117.5500507 404.174400
     86    239    240     1   117.5500507 404.174400
     91     94     95     1   109.5600471 388.275200
     91     94     96     1   109.5600471 388.275200
     92     91     94     1   109.5600471 388.275200
     92     91     97     1   109.8800469 414.216000
     92     91     93     1   108.4600466 328.025600
     93     91     94     1   109.5600471 388.275200
     93     91     97     1   109.8800469 414.216000
     94    114    115     1   117.6800502 383.254400
     95     94    114     1   108.8800464 416.726400
     95     94     96     1   108.4600466 328.025600
     96     94    114     1   108.8800464 416.726400
     97     98     99     1   109.8800469 414.216000
     97     98    100     1   109.8800469 414.216000
     97    101    102     1   109.8800469 414.216000
     97    101    103     1   109.8800469 414.216000
     98    107    108     1   109.8000471 387.438400
     98    107    109     1   109.8000471 387.438400
     99     98    107     1   109.5600471 388.275200
     99     98    100     1   108.4600466 328.025600
    100     98    107     1   109.5600471 388.275200
    101    104    105     1   109.8000471 387.438400
    101    104    106     1   109.8000471 387.438400
    102    101    104     1   109.5600471 388.275200
    102    101    103     1   108.4600466 328.025600
    103    101    104     1   109.5600471 388.275200
    105    104    110     1   108.7700466 392.459200
    105    104    106     1   107.5800459 329.699200
    106    104    110     1   108.7700466 392.459200
    108    107    111     1   108.7700466 392.459200
    108    107    109     1   107.5800459 329.699200
    109    107    111     1   108.7700466 392.459200
    110    264    265     1   117.5500507 404.174400
    111    289    290     1   117.5500507 404.174400
    116    119    120     1   109.5600471 388.275200
    116    119    121     1   109.5600471 388.275200
    117    116    119     1   109.5600471 388.275200
    117    116    122     1   109.8800469 414.216000
    117    116    118     1   108.4600466 328.025600
    118    116    119     1   109.5600471 388.275200
    118    116    122     1   109.8800469 414.216000
    119    139    140     1   117.6800502 383.254400
    120    119    139     1   108.8800464 416.726400
    120    119    121     1   108.4600466 328.025600
    121    119    139     1   108.8800464 416.726400
    122    123    124     1   109.8800469 414.216000
    122    123    125     1   109.8800469 414.216000
    122    126    127     1   109.8800469 414.216000
    122    126    128     1   109.8800469 414.216000
    123    132    133     1   109.8000471 387.438400
    123    132    134     1   109.8000471 387.438400
    124    123    132     1   109.5600471 388.275200
    124    123    125     1   108.4600466 328.025600
    125    123    132     1   109.5600471 388.275200
    126    129    130     1   109.8000471 387.438400
    126    129    131     1   109.8000471 387.438400
    127    126    129     1   109.5600471 388.275200
    127    126    128     1   108.4600466 328.025600
    128    126    129     1   109.5600471 388.275200
    130    129    135     1   108.7700466 392.459200
    130    129    131     1   107.5800459 329.699200
    131    129    135     1   108.7700466 392.459200
    133    132    136     1   108.7700466 392.459200
    133    132    134     1   107.5800459 329.699200
    134    132    136     1   108.7700466 392.459200
    135    314    315     1   117.5500507 404.174400
    136    339    340     1   117.5500507 404.174400
    141    144    145     1   109.5600471 388.275200
    141    144    146     1   109.5600471 388.275200
    142    141    144     1   109.5600471 388.275200
    142    141    147     1   109.8800469 414.216000
    142    141    143     1   108.4600466 328.025600
    143    141    144     1   109.5600471 388.275200
    143    141    147     1   109.8800469 414.216000
    144    164    165     1   117.6800502 383.254400
    145    144    164     1   108.8800464 416.726400
    145    144    146     1   108.4600466 328.025600
    146    144    164     1   108.8800464 416.726400
    147    148    149     1   109.8800469 414.216000
    147    148    150     1   109.8800469 414.216000
    147    151    152     1   109.8800469 414.216000
    147    151    153     1   109.8800469 414.216000
    148    157    158     1   109.8000471 387.438400
    148    157    159     1   109.8000471 387.438400
    149    148    157     1   109.5600471 388.275200
    149    148    150     1   108.4600466 328.025600
    150    148    157     1   109.5600471 388.275200
    151    154    155     1   109.8000471 387.438400
    151    154    156     1   109.8000471 387.438400
    152    151    154     1   109.5600471 388.275200
    152    151    153     1   108.4600466 328.025600
    153    151    154     1   109.5600471 388.275200
    155    154    160     1   108.7700466 392.459200
    155    154    156     1   107.5800459 329.699200
    156    154    160     1   108.7700466 392.459200
    158    157    161     1   108.7700466 392.459200
    158    157    159     1   107.5800459 329.699200
    159    157    161     1   108.7700466 392.459200
    160    341    342     1   117.5500507 404.174400
    161    368    369     1   117.5500507 404.174400
    166    169    170     1   109.5600471 388.275200
    166    169    171     1   109.5600471 388.275200
    167    166    169     1   109.5600471 388.275200
    167    166    172     1   109.8800469 414.216000
    167    166    168     1   108.4600466 328.025600
    168    166    169     1   109.5600471 388.275200
    168    166    172     1   109.8800469 414.216000
    169    189    190     1   117.6800502 383.254400
    170    169    189     1   108.8800464 416.726400
    170    169    171     1   108.4600466 328.025600
    171    169    189     1   108.8800464 416.726400
    172    173    174     1   109.8800469 414.216000
    172    173    175     1   109.8800469 414.216000
    172    176    177     1   109.8800469 414.216000
    172    176    178     1   109.8800469 414.216000
    173    182    183     1   109.8000471 387.438400
    173    182    184     1   109.8000471 387.438400
    174    173    182     1   109.5600471 388.275200
    174    173    175     1   108.4600466 328.025600
    175    173    182     1   109.5600471 388.275200
    176    179    180     1   109.8000471 387.438400
    176    179    181     1   109.8000471 387.438400
    177    176    179     1   109.5600471 388.275200
    177    176    178     1   108.4600466 328.025600
    178    176    179     1   109.5600471 388.275200
    180    179    185     1   108.7700466 392.459200
    180    179    181     1   107.5800459 329.699200
    181    179    185     1   108.7700466 392.459200
    183    182    186     1   108.7700466 392.459200
    183    182    184     1   107.5800459 329.699200
    184    182    186     1   108.7700466 392.459200
    185    395    396     1   117.5500507 404.174400
    186    422    423     1   117.5500507 404.174400
    191    194    195     1   109.5600471 388.275200
    191    194    196     1   109.5600471 388.275200
    192    191    194     1   109.5600471 388.275200
    192    191    197     1   109.8800469 414.216000
    192    191    193     1   108.4600466 328.025600
    193    191    194     1   109.5600471 388.275200
    193    191    197     1   109.8800469 414.216000
    194    214    215     1   117.6800502 383.254400
    195    194    214     1   108.8800464 416.726400
    195    194    196     1   108.4600466 328.025600
    196    194    214     1   108.8800464 416.726400
    197    198    199     1   109.8800469 414.216000
    197    198    200     1   109.8800469 414.216000
    197    201    202     1   109.8800469 414.216000
    197    201    203     1   109.8800469 414.216000
    198    207    208     1   109.8000471 387.438400
    198    207    209     1   109.8000471 387.438400
    199    198    207     1   109.5600471 388.275200
    199    198    200     1   108.4600466 328.025600
    200    198    207     1   109.5600471 388.275200
    201    204    205     1   109.8000471 387.438400
    201    204    206     1   109.8000471 387.438400
    202    201    204     1   109.5600471 388.275200
    202    201    203     1   108.4600466 328.025600
    203    201    204     1   109.5600471 388.275200
    205    204    210     1   108.7700466 392.459200
    205    204    206     1   107.5800459 329.699200
    206    204    210     1   108.7700466 392.459200
    208    207    211     1   108.7700466 392.459200
    208    207    209     1   107.5800459 329.699200
    209    207    211     1   108.7700466 392.459200
    210    449    450     1   117.5500507 404.174400
    211    476    477     1   117.5500507 404.174400
    216    219    220     1   109.5600471 388.275200
    216    219    221     1   109.5600471 388.275200
    217    216    219     1   109.5600471 388.275200
    217    216    222     1   109.8800469 414.216000
    217    216    218     1   108.4600466 328.025600
    218    216    219     1   109.5600471 388.275200
    218    216    222     1   109.8800469 414.216000
    219    239    240     1   117.6800502 383.254400
    220    219    239     1   108.8800464 416.726400
    220    219    221     1   108.4600466 328.025600
    221    219    239     1   108.8800464 416.726400
    222    223    224     1   109.8800469 414.216000
    222    223    225     1   109.8800469 414.216000
    222    226    227     1   109.8800469 414.216000
    222    226    228     1   109.8800469 414.216000
    223    232    233     1   109.8000471 387.438400
    223    232    234     1   109.8000471 387.438400
    224    223    232     1   109.5600471 388.275200
    224    223    225     1   108.4600466 328.025600
    225    223    232     1   109.5600471 388.275200
    226    229    230     1   109.8000471 387.438400
    226    229    231     1   109.8000471 387.438400
    227    226    229     1   109.5600471 388.275200
    227    226    228     1   108.4600466 328.025600
    228    226    229     1   109.5600471 388.275200
    230    229    235     1   108.7700466 392.459200
    230    229    231     1   107.5800459 329.699200
    231    229    235     1   108.7700466 392.459200
    233    232    236     1   108.7700466 392.459200
    233    232    234     1   107.5800459 329.699200
    234    232    236     1   108.7700466 392.459200
    235    503    504     1   117.5500507 404.174400
    236    530    531     1   117.5500507 404.174400
    241    244    245     1   109.5600471 388.275200
    241    244    246     1   109.5600471 388.275200
    242    241    244     1   109.5600471 388.275200
    242    241    247     1   109.8800469 414.216000
    242    241    243     1   108.4600466 328.025600
    243    241    244     1   109.5600471 388.275200
    243    241    247     1   109.8800469 414.216000
    244    264    265     1   117.6800502 383.254400
    245    244    264     1   108.8800464 416.726400
    245    244    246     1   108.4600466 328.025600
    246    244    264     1   108.8800464 416.726400
    247    248    249     1   109.8800469 414.216000
    247    248    250     1   109.8800469 414.216000
    247    251    252     1   109.8800469 414.216000
    247    251    253     1   109.8800469 414.216000
    248    257    258     1   109.8000471 387.438400
    248    257    259     1   109.8000471 387.438400
    249    248    257     1   109.5600471 388.275200
    249    248    250     1   108.4600466 328.025600
    250    248    257     1   109.5600471 388.275200
    251    254    255     1   109.8000471 387.438400
    251    254    256     1   109.8000471 387.438400
    252    251    254     1   109.5600471 388.275200
    252    251    253     1   108.4600466 328.025600
    253    251    254     1   109.5600471 388.275200
    255    254    260     1   108.7700466 392.459200
    255    254    256     1   107.5800459 329.699200
    256    254    260     1   108.7700466 392.459200
    258    257    261     1   108.7700466 392.459200
    258    257    259     1   107.5800459 329.699200
    259    257    261     1   108.7700466 392.459200
    260    557    558     1   117.5500507 404.174400
    261    584    585     1   117.5500507 404.174400
    266    269    270     1   109.5600471 388.275200
    266    269    271     1   109.5600471 388.275200
    267    266    269     1   109.5600471 388.275200
    267    266    272     1   109.8800469 414.216000
    267    266    268     1   108.4600466 328.025600
    268    266    269     1   109.5600471 388.275200
    268    266    272     1   109.8800469 414.216000
    269    289    290     1   117.6800502 383.254400
    270    269    289     1   108.8800464 416.726400
    270    269    271     1   108.4600466 328.025600
    271    269    289     1   108.8800464 416.726400
    272    273    274     1   109.8800469 414.216000
    272    273    275     1   109.8800469 414.216000
    272    276    277     1   109.8800469 414.216000
    272    276    278     1   109.8800469 414.216000
    273    282    283     1   109.8000471 387.438400
    273    282    284     1   109.8000471 387.438400
    274    273    282     1   109.5600471 388.275200
    274    273    275     1   108.4600466 328.025600
    275    273    282     1   109.5600471 388.275200
    276    279    280     1   109.8000471 387.438400
    276    279    281     1   109.8000471 387.438400
    277    276    279     1   109.5600471 388.275200
    277    276    278     1   108.4600466 328.025600
    278    276    279     1   109.5600471 388.275200
    280    279    285     1   108.7700466 392.459200
    280    279    281     1   107.5800459 329.699200
    281    279    285     1   108.7700466 392.459200
    283    282    286     1   108.7700466 392.459200
    283    282    284     1   107.5800459 329.699200
    284    282    286     1   108.7700466 392.459200
    285    611    612     1   117.5500507 404.174400
    286    638    639     1   117.5500507 404.174400
    291    294    295     1   109.5600471 388.275200
    291    294    296     1   109.5600471 388.275200
    292    291    294     1   109.5600471 388.275200
    292    291    297     1   109.8800469 414.216000
    292    291    293     1   108.4600466 328.025600
    293    291    294     1   109.5600471 388.275200
    293    291    297     1   109.8800469 414.216000
    294    314    315     1   117.6800502 383.254400
    295    294    314     1   108.8800464 416.726400
    295    294    296     1   108.4600466 328.025600
    296    294    314     1   108.8800464 416.726400
    297    298    299     1   109.8800469 414.216000
    297    298    300     1   109.8800469 414.216000
    297    301    302     1   109.8800469 414.216000
    297    301    303     1   109.8800469 414.216000
    298    307    308     1   109.8000471 387.438400
    298    307    309     1   109.8000471 387.438400
    299    298    307     1   109.5600471 388.275200
    299    298    300     1   108.4600466 328.025600
    300    298    307     1   109.5600471 388.275200
    301    304    305     1   109.8000471 387.438400
    301    304    306     1   109.8000471 387.438400
    302    301    304     1   109.5600471 388.275200
    302    301    303     1   108.4600466 328.025600
    303    301    304     1   109.5600471 388.275200
    305    304    310     1   108.7700466 392.459200
    305    304    306     1   107.5800459 329.699200
    306    304    310     1   108.7700466 392.459200
    308    307    311     1   108.7700466 392.459200
    308    307    309     1   107.5800459 329.699200
    309    307    311     1   108.7700466 392.459200
    310    665    666     1   117.5500507 404.174400
    311    692    693     1   117.5500507 404.174400
    316    319    320     1   109.5600471 388.275200
    316    319    321     1   109.5600471 388.275200
    317    316    319     1   109.5600471 388.275200
    317    316    322     1   109.8800469 414.216000
    317    316    318     1   108.4600466 328.025600
    318    316    319     1   109.5600471 388.275200
    318    316    322     1   109.8800469 414.216000
    319    339    340     1   117.6800502 383.254400
    320    319    339     1   108.8800464 416.726400
    320    319    321     1   108.4600466 328.025600
    321    319    339     1   108.8800464 416.726400
    322    323    324     1   109.8800469 414.216000
    322    323    325     1   109.8800469 414.216000
    322    326    327     1   109.8800469 414.216000
    322    326    328     1   109.8800469 414.216000
    323    332    333     1   109.8000471 387.438400
    323    332    334     1   109.8000471 387.438400
    324    323    332     1   109.5600471 388.275200
    324    323    325     1   108.4600466 328.025600
    325    323    332     1   109.5600471 388.275200
    326    329    330     1   109.8000471 387.438400
    326    329    331     1   109.8000471 387.438400
    327    326    329     1   109.5600471 388.275200
    327    326    328     1   108.4600466 328.025600
    328    326    329     1   109.5600471 388.275200
    330    329    335     1   108.7700466 392.459200
    330    329    331     1   107.5800459 329.699200
    331    329    335     1   108.7700466 392.459200
    333    332    336     1   108.7700466 392.459200
    333    332    334     1   107.5800459 329.699200
    334    332    336     1   108.7700466 392.459200
    335    719    720     1   117.5500507 404.174400
    336    746    747     1   117.5500507 404.174400
    341    343    344     1   108.8800464 416.726400
    341    343    346     1   108.8800464 416.726400
    342    341    343     1   117.6800502 383.254400
    343    345    347     1   109.5600471 388.275200
    343    345    348     1   109.5600471 388.275200
    344    343    345     1   109.5600471 388.275200
    344    343    346     1   108.4600466 328.025600
    345    343    346     1   109.5600471 388.275200
    347    345    349     1   109.8800469 414.216000
    347    345    348     1   108.4600466 328.025600
    348    345    349     1   109.8800469 414.216000
    349    350    360     1   109.8800469 414.216000
    349    350    361     1   109.8800469 414.216000
    349    351    352     1   109.8800469 414.216000
    349    351    354     1   109.8800469 414.216000
    350    362    363     1   109.8000471 387.438400
    350    362    364     1   109.8000471 387.438400
    351    353    355     1   109.8000471 387.438400
    351    353    356     1   109.8000471 387.438400
    352    351    353     1   109.5600471 388.275200
    352    351    354     1   108.4600466 328.025600
    353    351    354     1   109.5600471 388.275200
    355    353    357     1   108.7700466 392.459200
    355    353    356     1   107.5800459 329.699200
    356    353    357     1   108.7700466 392.459200
    360    350    362     1   109.5600471 388.275200
    360    350    361     1   108.4600466 328.025600
    361    350    362     1   109.5600471 388.275200
    363    362    365     1   108.7700466 392.459200
    363    362    364     1   107.5800459 329.699200
    364    362    365     1   108.7700466 392.459200
    368    370    371     1   108.8800464 416.726400
    368    370    373     1   108.8800464 416.726400
    369    368    370     1   117.6800502 383.254400
    370    372    374     1   109.5600471 388.275200
    370    372    375     1   109.5600471 388.275200
    371    370    372     1   109.5600471 388.275200
    371    370    373     1   108.4600466 328.025600
    372    370    373     1   109.5600471 388.275200
    374    372    376     1   109.8800469 414.216000
    374    372    375     1   108.4600466 328.025600
    375    372    376     1   109.8800469 414.216000
    376    377    387     1   109.8800469 414.216000
    376    377    388     1   109.8800469 414.216000
    376    378    379     1   109.8800469 414.216000
    376    378    381     1   109.8800469 414.216000
    377    389    390     1   109.8000471 387.438400
    377    389    391     1   109.8000471 387.438400
    378    380    382     1   109.8000471 387.438400
    378    380    383     1   109.8000471 387.438400
    379    378    380     1   109.5600471 388.275200
    379    378    381     1   108.4600466 328.025600
    380    378    381     1   109.5600471 388.275200
    382    380    384     1   108.7700466 392.459200
    382    380    383     1   107.5800459 329.699200
    383    380    384     1   108.7700466 392.459200
    387    377    389     1   109.5600471 388.275200
    387    377    388     1   108.4600466 328.025600
    388    377    389     1   109.5600471 388.275200
    390    389    392     1   108.7700466 392.459200
    390    389    391     1   107.5800459 329.699200
    391    389    392     1   108.7700466 392.459200
    395    397    398     1   108.8800464 416.726400
    395    397    400     1   108.8800464 416.726400
    396    395    397     1   117.6800502 383.254400
    397    399    401     1   109.5600471 388.275200
    397    399    402     1   109.5600471 388.275200
    398    397    399     1   109.5600471 388.275200
    398    397    400     1   108.4600466 328.025600
    399    397    400     1   109.5600471 388.275200
    401    399    403     1   109.8800469 414.216000
    401    399    402     1   108.4600466 328.025600
    402    399    403     1   109.8800469 414.216000
    403    404    414     1   109.8800469 414.216000
    403    404    415     1   109.8800469 414.216000
    403    405    406     1   109.8800469 414.216000
    403    405    408     1   109.8800469 414.216000
    404    416    417     1   109.8000471 387.438400
    404    416    418     1   109.8000471 387.438400
    405    407    409     1   109.8000471 387.438400
    405    407    410     1   109.8000471 387.438400
    406    405    407     1   109.5600471 388.275200
    406    405    408     1   108.4600466 328.025600
    407    405    408     1   109.5600471 388.275200
    409    407    411     1   108.7700466 392.459200
    409    407    410     1   107.5800459 329.699200
    410    407    411     1   108.7700466 392.459200
    414    404    416     1   109.5600471 388.275200
    414    404    415     1   108.4600466 328.025600
    415    404    416     1   109.5600471 388.275200
    417    416    419     1   108.7700466 392.459200
    417    416    418     1   107.5800459 329.699200
    418    416    419     1   108.7700466 392.459200
    422    424    425     1   108.8800464 416.726400
    422    424    427     1   108.8800464 416.726400
    423    422    424     1   117.6800502 383.254400
    424    426    428     1   109.5600471 388.275200
    424    426    429     1   109.5600471 388.275200
    425    424    426     1   109.5600471 388.275200
    425    424    427     1   108.4600466 328.025600
    426    424    427     1   109.5600471 388.275200
    428    426    430     1   109.8800469 414.216000
    428    426    429     1   108.4600466 328.025600
    429    426    430     1   109.8800469 414.216000
    430    431    441     1   109.8800469 414.216000
    430    431    442     1   109.8800469 414.216000
    430    432    433     1   109.8800469 414.216000
    430    432    435     1   109.8800469 414.216000
    431    443    444     1   109.8000471 387.438400
    431    443    445     1   109.8000471 387.438400
    432    434    436     1   109.8000471 387.438400
    432    434    437     1   109.8000471 387.438400
    433    432    434     1   109.5600471 388.275200
    433    432    435     1   108.4600466 328.025600
    434    432    435     1   109.5600471 388.275200
    436    434    438     1   108.7700466 392.459200
    436    434    437     1   107.5800459 329.699200
    437    434    438     1   108.7700466 392.459200
    441    431    443     1   109.5600471 388.275200
    441    431    442     1   108.4600466 328.025600
    442    431    443     1   109.5600471 388.275200
    444    443    446     1   108.7700466 392.459200
    444    443    445     1   107.5800459 329.699200
    445    443    446     1   108.7700466 392.459200
    449    451    452     1   108.8800464 416.726400
    449    451    454     1   108.8800464 416.726400
    450    449    451     1   117.6800502 383.254400
    451    453    455     1   109.5600471 388.275200
    451    453    456     1   109.5600471 388.275200
    452    451    453     1   109.5600471 388.275200
    452    451    454     1   108.4600466 328.025600
    453    451    454     1   109.5600471 388.275200
    455    453    457     1   109.8800469 414.216000
    455    453    456     1   108.4600466 328.025600
    456    453    457     1   109.8800469 414.216000
    457    458    468     1   109.8800469 414.216000
    457    458    469     1   109.8800469 414.216000
    457    459    460     1   109.8800469 414.216000
    457    459    462     1   109.8800469 414.216000
    458    470    471     1   109.8000471 387.438400
    458    470    472     1   109.8000471 387.438400
    459    461    463     1   109.8000471 387.438400
    459    461    464     1   109.8000471 387.438400
    460    459    461     1   109.5600471 388.275200
    460    459    462     1   108.4600466 328.025600
    461    459    462     1   109.5600471 388.275200
    463    461    465     1   108.7700466 392.459200
    463    461    464     1   107.5800459 329.699200
    464    461    465     1   108.7700466 392.459200
    468    458    470     1   109.5600471 388.275200
    468    458    469     1   108.4600466 328.025600
    469    458    470     1   109.5600471 388.275200
    471    470    473     1   108.7700466 392.459200
    471    470    472     1   107.5800459 329.699200
    472    470    473     1   108.7700466 392.459200
    476    478    479     1   108.8800464 416.726400
    476    478    481     1   108.8800464 416.726400
    477    476    478     1   117.6800502 383.254400
    478    480    482     1   109.5600471 388.275200
    478    480    483     1   109.5600471 388.275200
    479    478    480     1   109.5600471 388.275200
    479    478    481     1   108.4600466 328.025600
    480    478    481     1   109.5600471 388.275200
    482    480    484     1   109.8800469 414.216000
    482    480    483     1   108.4600466 328.025600
    483    480    484     1   109.8800469 414.216000
    484    485    495     1   109.8800469 414.216000
    484    485    496     1   109.8800469 414.216000
    484    486    487     1   109.8800469 414.216000
    484    486    489     1   109.8800469 414.216000
    485    497    498     1   109.8000471 387.438400
    485    497    499     1   109.8000471 387.438400
    486    488    490     1   109.8000471 387.438400
    486    488    491     1   109.8000471 387.438400
    487    486    488     1   109.5600471 388.275200
    487    486    489     1   108.4600466 328.025600
    488    486    489     1   109.5600471 388.275200
    490    488    492     1   108.7700466 392.459200
    490    488    491     1   107.5800459 329.699200
    491    488    492     1   108.7700466 392.459200
    495    485    497     1   109.5600471 388.275200
    495    485    496     1   108.4600466 328.025600
    496    485    497     1   109.5600471 388.275200
    498    497    500     1   108.7700466 392.459200
    498    497    499     1   107.5800459 329.699200
    499    497    500     1   108.7700466 392.459200
    503    505    506     1   108.8800464 416.726400
    503    505    508     1   108.8800464 416.726400
    504    503    505     1   117.6800502 383.254400
    505    507    509     1   109.5600471 388.275200
    505    507    510     1   109.5600471 388.275200
    506    505    507     1   109.5600471 388.275200
    506    505    508     1   108.4600466 328.025600
    507    505    508     1   109.5600471 388.275200
    509    507    511     1   109.8800469 414.216000
    509    507    510     1   108.4600466 328.025600
    510    507    511     1   109.8800469 414.216000
    511    512    522     1   109.8800469 414.216000
    511    512    523     1   109.8800469 414.216000
    511    513    514     1   109.8800469 414.216000
    511    513    516     1   109.8800469 414.216000
    512    524    525     1   109.8000471 387.438400
    512    524    526     1   109.8000471 387.438400
    513    515    517     1   109.8000471 387.438400
    513    515    518     1   109.8000471 387.438400
    514    513    515     1   109.5600471 388.275200
    514    513    516     1   108.4600466 328.025600
    515    513    516     1   109.5600471 388.275200
    517    515    519     1   108.7700466 392.459200
    517    515    518     1   107.5800459 329.699200
    518    515    519     1   108.7700466 392.459200
    522    512    524     1   109.5600471 388.275200
    522    512    523     1   108.4600466 328.025600
    523    512    524     1   109.5600471 388.275200
    525    524    527     1   108.7700466 392.459200
    525    524    526     1   107.5800459 329.699200
    526    524    527     1   108.7700466 392.459200
    530    532    533     1   108.8800464 416.726400
    530    532    535     1   108.8800464 416.726400
    531    530    532     1   117.6800502 383.254400
    532    534    536     1   109.5600471 388.275200
    532    534    537     1   109.5600471 388.275200
    533    532    534     1   109.5600471 388.275200
    533    532    535     1   108.4600466 328.025600
    534    532    535     1   109.5600471 388.275200
    536    534    538     1   109.8800469 414.216000
    536    534    537     1   108.4600466 328.025600
    537    534    538     1   109.8800469 414.216000
    538    539    549     1   109.8800469 414.216000
    538    539    550     1   109.8800469 414.216000
    538    540    541     1   109.8800469 414.216000
    538    540    543     1   109.8800469 414.216000
    539    551    552     1   109.8000471 387.438400
    539    551    553     1   109.8000471 387.438400
    540    542    544     1   109.8000471 387.438400
    540    542    545     1   109.8000471 387.438400
    541    540    542     1   109.5600471 388.275200
    541    540    543     1   108.4600466 328.025600
    542    540    543     1   109.5600471 388.275200
    544    542    546     1   108.7700466 392.459200
    544    542    545     1   107.5800459 329.699200
    545    542    546     1   108.7700466 392.459200
    549    539    551     1   109.5600471 388.275200
    549    539    550     1   108.4600466 328.025600
    550    539    551     1   109.5600471 388.275200
    552    551    554     1   108.7700466 392.459200
    552    551    553     1   107.5800459 329.699200
    553    551    554     1   108.7700466 392.459200
    557    559    560     1   108.8800464 416.726400
    557    559    562     1   108.8800464 416.726400
    558    557    559     1   117.6800502 383.254400
    559    561    563     1   109.5600471 388.275200
    559    561    564     1   109.5600471 388.275200
    560    559    561     1   109.5600471 388.275200
    560    559    562     1   108.4600466 328.025600
    561    559    562     1   109.5600471 388.275200
    563    561    565     1   109.8800469 414.216000
    563    561    564     1   108.4600466 328.025600
    564    561    565     1   109.8800469 414.216000
    565    566    576     1   109.8800469 414.216000
    565    566    577     1   109.8800469 414.216000
    565    567    568     1   109.8800469 414.216000
    565    567    570     1   109.8800469 414.216000
    566    578    579     1   109.8000471 387.438400
    566    578    580     1   109.8000471 387.438400
    567    569    571     1   109.8000471 387.438400
    567    569    572     1   109.8000471 387.438400
    568    567    569     1   109.5600471 388.275200
    568    567    570     1   108.4600466 328.025600
    569    567    570     1   109.5600471 388.275200
    571    569    573     1   108.7700466 392.459200
    571    569    572     1   107.5800459 329.699200
    572    569    573     1   108.7700466 392.459200
    576    566    578     1   109.5600471 388.275200
    576    566    577     1   108.4600466 328.025600
    577    566    578     1   109.5600471 388.275200
    579    578    581     1   108.7700466 392.459200
    579    578    580     1   107.5800459 329.699200
    580    578    581     1   108.7700466 392.459200
    584    586    587     1   108.8800464 416.726400
    584    586    589     1   108.8800464 416.726400
    585    584    586     1   117.6800502 383.254400
    586    588    590     1   109.5600471 388.275200
    586    588    591     1   109.5600471 388.275200
    587    586    588     1   109.5600471 388.275200
    587    586    589     1   108.4600466 328.025600
    588    586    589     1   109.5600471 388.275200
    590    588    592     1   109.8800469 414.216000
    590    588    591     1   108.4600466 328.025600
    591    588    592     1   109.8800469 414.216000
    592    593    603     1   109.8800469 414.216000
    592    593    604     1   109.8800469 414.216000
    592    594    595     1   109.8800469 414.216000
    592    594    597     1   109.8800469 414.216000
    593    605    606     1   109.8000471 387.438400
    593    605    607     1   109.8000471 387.438400
    594    596    598     1   109.8000471 387.438400
    594    596    599     1   109.8000471 387.438400
    595    594    596     1   109.5600471 388.275200
    595    594    597     1   108.4600466 328.025600
    596    594    597     1   109.5600471 388.275200
    598    596    600     1   108.7700466 392.459200
    598    596    599     1   107.5800459 329.699200
    599    596    600     1   108.7700466 392.459200
    603    593    605     1   109.5600471 388.275200
    603    593    604     1   108.4600466 328.025600
    604    593    605     1   109.5600471 388.275200
    606    605    608     1   108.7700466 392.459200
    606    605    607     1   107.5800459 329.699200
    607    605    608     1   108.7700466 392.459200
    611    613    614     1   108.8800464 416.726400
    611    613    616     1   108.8800464 416.726400
    612    611    613     1   117.6800502 383.254400
    613    615    617     1   109.5600471 388.275200
    613    615    618     1   109.5600471 388.275200
    614    613    615     1   109.5600471 388.275200
    614    613    616     1   108.4600466 328.025600
    615    613    616     1   109.5600471 388.275200
    617    615    619     1   109.8800469 414.216000
    617    615    618     1   108.4600466 328.025600
    618    615    619     1   109.8800469 414.216000
    619    620    630     1   109.8800469 414.216000
    619    620    631     1   109.8800469 414.216000
    619    621    622     1   109.8800469 414.216000
    619    621    624     1   109.8800469 414.216000
    620    632    633     1   109.8000471 387.438400
    620    632    634     1   109.8000471 387.438400
    621    623    625     1   109.8000471 387.438400
    621    623    626     1   109.8000471 387.438400
    622    621    623     1   109.5600471 388.275200
    622    621    624     1   108.4600466 328.025600
    623    621    624     1   109.5600471 388.275200
    625    623    627     1   108.7700466 392.459200
    625    623    626     1   107.5800459 329.699200
    626    623    627     1   108.7700466 392.459200
    630    620    632     1   109.5600471 388.275200
    630    620    631     1   108.4600466 328.025600
    631    620    632     1   109.5600471 388.275200
    633    632    635     1   108.7700466 392.459200
    633    632    634     1   107.5800459 329.699200
    634    632    635     1   108.7700466 392.459200
    638    640    641     1   108.8800464 416.726400
    638    640    643     1   108.8800464 416.726400
    639    638    640     1   117.6800502 383.254400
    640    642    644     1   109.5600471 388.275200
    640    642    645     1   109.5600471 388.275200
    641    640    642     1   109.5600471 388.275200
    641    640    643     1   108.4600466 328.025600
    642    640    643     1   109.5600471 388.275200
    644    642    646     1   109.8800469 414.216000
    644    642    645     1   108.4600466 328.025600
    645    642    646     1   109.8800469 414.216000
    646    647    657     1   109.8800469 414.216000
    646    647    658     1   109.8800469 414.216000
    646    648    649     1   109.8800469 414.216000
    646    648    651     1   109.8800469 414.216000
    647    659    660     1   109.8000471 387.438400
    647    659    661     1   109.8000471 387.438400
    648    650    652     1   109.8000471 387.438400
    648    650    653     1   109.8000471 387.438400
    649    648    650     1   109.5600471 388.275200
    649    648    651     1   108.4600466 328.025600
    650    648    651     1   109.5600471 388.275200
    652    650    654     1   108.7700466 392.459200
    652    650    653     1   107.5800459 329.699200
    653    650    654     1   108.7700466 392.459200
    657    647    659     1   109.5600471 388.275200
    657    647    658     1   108.4600466 328.025600
    658    647    659     1   109.5600471 388.275200
    660    659    662     1   108.7700466 392.459200
    660    659    661     1   107.5800459 329.699200
    661    659    662     1   108.7700466 392.459200
    665    667    668     1   108.8800464 416.726400
    665    667    670     1   108.8800464 416.726400
    666    665    667     1   117.6800502 383.254400
    667    669    671     1   109.5600471 388.275200
    667    669    672     1   109.5600471 388.275200
    668    667    669     1   109.5600471 388.275200
    668    667    670     1   108.4600466 328.025600
    669    667    670     1   109.5600471 388.275200
    671    669    673     1   109.8800469 414.216000
    671    669    672     1   108.4600466 328.025600
    672    669    673     1   109.8800469 414.216000
    673    674    684     1   109.8800469 414.216000
    673    674    685     1   109.8800469 414.216000
    673    675    676     1   109.8800469 414.216000
    673    675    678     1   109.8800469 414.216000
    674    686    687     1   109.8000471 387.438400
    674    686    688     1   109.8000471 387.438400
    675    677    679     1   109.8000471 387.438400
    675    677    680     1   109.8000471 387.438400
    676    675    677     1   109.5600471 388.275200
    676    675    678     1   108.4600466 328.025600
    677    675    678     1   109.5600471 388.275200
    679    677    681     1   108.7700466 392.459200
    679    677    680     1   107.5800459 329.699200
    680    677    681     1   108.7700466 392.459200
    684    674    686     1   109.5600471 388.275200
    684    674    685     1   108.4600466 328.025600
    685    674    686     1   109.5600471 388.275200
    687    686    689     1   108.7700466 392.459200
    687    686    688     1   107.5800459 329.699200
    688    686    689     1   108.7700466 392.459200
    692    694    695     1   108.8800464 416.726400
    692    694    697     1   108.8800464 416.726400
    693    692    694     1   117.6800502 383.254400
    694    696    698     1   109.5600471 388.275200
    694    696    699     1   109.5600471 388.275200
    695    694    696     1   109.5600471 388.275200
    695    694    697     1   108.4600466 328.025600
    696    694    697     1   109.5600471 388.275200
    698    696    700     1   109.8800469 414.216000
    698    696    699     1   108.4600466 328.025600
    699    696    700     1   109.8800469 414.216000
    700    701    711     1   109.8800469 414.216000
    700    701    712     1   109.8800469 414.216000
    700    702    703     1   109.8800469 414.216000
    700    702    705     1   109.8800469 414.216000
    701    713    714     1   109.8000471 387.438400
    701    713    715     1   109.8000471 387.438400
    702    704    706     1   109.8000471 387.438400
    702    704    707     1   109.8000471 387.438400
    703    702    704     1   109.5600471 388.275200
    703    702    705     1   108.4600466 328.025600
    704    702    705     1   109.5600471 388.275200
    706    704    708     1   108.7700466 392.459200
    706    704    707     1   107.5800459 329.699200
    707    704    708     1   108.7700466 392.459200
    711    701    713     1   109.5600471 388.275200
    711    701    712     1   108.4600466 328.025600
    712    701    713     1   109.5600471 388.275200
    714    713    716     1   108.7700466 392.459200
    714    713    715     1   107.5800459 329.699200
    715    713    716     1   108.7700466 392.459200
    719    721    722     1   108.8800464 416.726400
    719    721    724     1   108.8800464 416.726400
    720    719    721     1   117.6800502 383.254400
    721    723    725     1   109.5600471 388.275200
    721    723    726     1   109.5600471 388.275200
    722    721    723     1   109.5600471 388.275200
    722    721    724     1   108.4600466 328.025600
    723    721    724     1   109.5600471 388.275200
    725    723    727     1   109.8800469 414.216000
    725    723    726     1   108.4600466 328.025600
    726    723    727     1   109.8800469 414.216000
    727    728    738     1   109.8800469 414.216000
    727    728    739     1   109.8800469 414.216000
    727    729    730     1   109.8800469 414.216000
    727    729    732     1   109.8800469 414.216000
    728    740    741     1   109.8000471 387.438400
    728    740    742     1   109.8000471 387.438400
    729    731    733     1   109.8000471 387.438400
    729    731    734     1   109.8000471 387.438400
    730    729    731     1   109.5600471 388.275200
    730    729    732     1   108.4600466 328.025600
    731    729    732     1   109.5600471 388.275200
    733    731    735     1   108.7700466 392.459200
    733    731    734     1   107.5800459 329.699200
    734    731    735     1   108.7700466 392.459200
    738    728    740     1   109.5600471 388.275200
    738    728    739     1   108.4600466 328.025600
    739    728    740     1   109.5600471 388.275200
    741    740    743     1   108.7700466 392.459200
    741    740    742     1   107.5800459 329.699200
    742    740    743     1   108.7700466 392.459200
    746    748    749     1   108.8800464 416.726400
    746    748    751     1   108.8800464 416.726400
    747    746    748     1   117.6800502 383.254400
    748    750    752     1   109.5600471 388.275200
    748    750    753     1   109.5600471 388.275200
    749    748    750     1   109.5600471 388.275200
    749    748    751     1   108.4600466 328.025600
    750    748    751     1   109.5600471 388.275200
    752    750    754     1   109.8800469 414.216000
    752    750    753     1   108.4600466 328.025600
    753    750    754     1   109.8800469 414.216000
    754    755    765     1   109.8800469 414.216000
    754    755    766     1   109.8800469 414.216000
    754    756    757     1   109.8800469 414.216000
    754    756    759     1   109.8800469 414.216000
    755    767    768     1   109.8000471 387.438400
    755    767    769     1   109.8000471 387.438400
    756    758    760     1   109.8000471 387.438400
    756    758    761     1   109.8000471 387.438400
    757    756    758     1   109.5600471 388.275200
    757    756    759     1   108.4600466 328.025600
    758    756    759     1   109.5600471 388.275200
    760    758    762     1   108.7700466 392.459200
    760    758    761     1   107.5800459 329.699200
    761    758    762     1   108.7700466 392.459200
    765    755    767     1   109.5600471 388.275200
    765    755    766     1   108.4600466 328.025600
    766    755    767     1   109.5600471 388.275200
    768    767    770     1   108.7700466 392.459200
    768    767    769     1   107.5800459 329.699200
    769    767    770     1   108.7700466 392.459200

[ dihedrals ]
;    ai     aj     ak     al funct         c0         c1         c2         c3         c4         c5
      1      4      7     15     1  180.0000771  2.0083200  2
      1      4      7     15     1  0.0000000  1.2552000  3
      1      4      7     18     1  180.0000771  2.0083200  2
      1      4      7     18     1  0.0000000  1.2552000  3
      1      8      9     30     1  180.0000771  2.0083200  2
      1      8      9     30     1  0.0000000  1.2552000  3
      1      8     12     27     1  180.0000771  2.0083200  2
      1      8     12     27     1  0.0000000  1.2552000  3
      4      1      8      9     1  180.0000771  2.0083200  2
      4      1      8      9     1  0.0000000  1.2552000  3
      4      1      8     12     1  180.0000771  2.0083200  2
      4      1      8     12     1  0.0000000  1.2552000  3
      4      7     15     21     1  180.0000771  2.0083200  2
      4      7     15     21     1  0.0000000  1.2552000  3
      4      7     18     24     1  180.0000771  2.0083200  2
      4      7     18     24     1  0.0000000  1.2552000  3
      8      1      4      7     1  0.0000000  0.6508444  3
      7     15     21     35     1  0.0000000  0.6508444  3
      7     18     24     36     1  0.0000000  0.6508444  3
      8      9     30     34     1  0.0000000  0.6508444  3
      8     12     27     33     1  0.0000000  0.6508444  3
      9      8     12     27     1  180.0000771  2.0083200  2
      9      8     12     27     1  0.0000000  1.2552000  3
      9     30     34     40     1  180.0000771  0.0000000  2
      9     30     34     89     1  0.0000000  0.2928800  2
      9     30     34     89     1  0.0000000  0.4184000  4
     12      8      9     30     1  180.0000771  2.0083200  2
     12      8      9     30     1  0.0000000  1.2552000  3
     12     27     33     37     1  180.0000771  0.0000000  2
     12     27     33     64     1  0.0000000  0.2928800  2
     12     27     33     64     1  0.0000000  0.4184000  4
     15      7     18     24     1  180.0000771  2.0083200  2
     15      7     18     24     1  0.0000000  1.2552000  3
     15     21     35     38     1  180.0000771  0.0000000  2
     15     21     35    114     1  0.0000000  0.2928800  2
     15     21     35    114     1  0.0000000  0.4184000  4
     18      7     15     21     1  180.0000771  2.0083200  2
     18      7     15     21     1  0.0000000  1.2552000  3
     18     24     36     39     1  180.0000771  0.0000000  2
     18     24     36    139     1  0.0000000  0.2928800  2
     18     24     36    139     1  0.0000000  0.4184000  4
     21     35    114     94     1  180.0000771  6.2760000  1
     21     35    114     94     1  0.0000000  0.0000000  2
     24     36    139    119     1  180.0000771  6.2760000  1
     24     36    139    119     1  0.0000000  0.0000000  2
     27     33     64     44     1  180.0000771  6.2760000  1
     27     33     64     44     1  0.0000000  0.0000000  2
     30     34     89     69     1  180.0000771  6.2760000  1
     30     34     89     69     1  0.0000000  0.0000000  2
     33     64     44     41     1  0.0000000  2.2175200  1
     33     64     44     41     1  0.0000000  0.0000000  2
     33     64     44     41     1  180.0000771  0.6276000  3
     33     64     44     41     1  180.0000771  2.0920000  4
     34     89     69     66     1  0.0000000  2.2175200  1
     34     89     69     66     1  0.0000000  0.0000000  2
     34     89     69     66     1  180.0000771  0.6276000  3
     34     89     69     66     1  180.0000771  2.0920000  4
     35    114     94     91     1  0.0000000  2.2175200  1
     35    114     94     91     1  0.0000000  0.0000000  2
     35    114     94     91     1  180.0000771  0.6276000  3
     35    114     94     91     1  180.0000771  2.0920000  4
     36    139    119    116     1  0.0000000  2.2175200  1
     36    139    119    116     1  0.0000000  0.0000000  2
     36    139    119    116     1  180.0000771  0.6276000  3
     36    139    119    116     1  180.0000771  2.0920000  4
     37     33     64     44     1  180.0000771  10.4600000  2
     38     35    114     94     1  180.0000771  10.4600000  2
     39     36    139    119     1  180.0000771  10.4600000  2
     40     34     89     69     1  180.0000771  10.4600000  2
     41     47     48     57     1  180.0000771  2.0083200  2
     41     47     48     57     1  0.0000000  1.2552000  3
     41     47     51     54     1  180.0000771  2.0083200  2
     41     47     51     54     1  0.0000000  1.2552000  3
     44     41     47     48     1  180.0000771  2.0083200  2
     44     41     47     48     1  0.0000000  1.2552000  3
     44     41     47     51     1  180.0000771  2.0083200  2
     44     41     47     51     1  0.0000000  1.2552000  3
     47     41     44     64     1  0.0000000  0.6508444  3
     47     48     57     61     1  0.0000000  0.6508444  3
     47     51     54     60     1  0.0000000  0.6508444  3
     48     47     51     54     1  180.0000771  2.0083200  2
     48     47     51     54     1  0.0000000  1.2552000  3
     48     57     61     63     1  180.0000771  0.0000000  2
     48     57     61    189     1  0.0000000  0.2928800  2
     48     57     61    189     1  0.0000000  0.4184000  4
     51     47     48     57     1  180.0000771  2.0083200  2
     51     47     48     57     1  0.0000000  1.2552000  3
     51     54     60     62     1  180.0000771  0.0000000  2
     51     54     60    164     1  0.0000000  0.2928800  2
     51     54     60    164     1  0.0000000  0.4184000  4
     54     60    164    144     1  180.0000771  6.2760000  1
     54     60    164    144     1  0.0000000  0.0000000  2
     57     61    189    169     1  180.0000771  6.2760000  1
     57     61    189    169     1  0.0000000  0.0000000  2
     60    164    144    141     1  0.0000000  2.2175200  1
     60    164    144    141     1  0.0000000  0.0000000  2
     60    164    144    141     1  180.0000771  0.6276000  3
     60    164    144    141     1  180.0000771  2.0920000  4
     61    189    169    166     1  0.0000000  2.2175200  1
     61    189    169    166     1  0.0000000  0.0000000  2
     61    189    169    166     1  180.0000771  0.6276000  3
     61    189    169    166     1  180.0000771  2.0920000  4
     62     60    164    144     1  180.0000771  10.4600000  2
     63     61    189    169     1  180.0000771  10.4600000  2
     66     72     73     82     1  180.0000771  2.0083200  2
     66     72     73     82     1  0.0000000  1.2552000  3
     66     72     76     79     1  180.0000771  2.0083200  2
     66     72     76     79     1  0.0000000  1.2552000  3
     69     66     72     73     1  180.0000771  2.0083200  2
     69     66     72     73     1  0.0000000  1.2552000  3
     69     66     72     76     1  180.0000771  2.0083200  2
     69     66     72     76     1  0.0000000  1.2552000  3
     72     66     69     89     1  0.0000000  0.6508444  3
     72     73     82     86     1  0.0000000  0.6508444  3
     72     76     79     85     1  0.0000000  0.6508444  3
     73     72     76     79     1  180.0000771  2.0083200  2
     73     72     76     79     1  0.0000000  1.2552000  3
     73     82     86     88     1  180.0000771  0.0000000  2
     73     82     86    239     1  0.0000000  0.2928800  2
     73     82     86    239     1  0.0000000  0.4184000  4
     76     72     73     82     1  180.0000771  2.0083200  2
     76     72     73     82     1  0.0000000  1.2552000  3
     76     79     85     87     1  180.0000771  0.0000000  2
     76     79     85    214     1  0.0000000  0.2928800  2
     76     79     85    214     1  0.0000000  0.4184000  4
     79     85    214    194     1  180.0000771  6.2760000  1
     79     85    214    194     1  0.0000000  0.0000000  2
     82     86    239    219     1  180.0000771  6.2760000  1
     82     86    239    219     1  0.0000000  0.0000000  2
     85    214    194    191     1  0.0000000  2.2175200  1
     85    214    194    191     1  0.0000000  0.0000000  2
     85    214    194    191     1  180.0000771  0.6276000  3
     85    214    194    191     1  180.0000771  2.0920000  4
     86    239    219    216     1  0.0000000  2.2175200  1
     86    239    219    216     1  0.0000000  0.0000000  2
     86    239    219    216     1  180.0000771  0.6276000  3
     86    239    219    216     1  180.0000771  2.0920000  4
     87     85    214    194     1  180.0000771  10.4600000  2
     88     86    239    219     1  180.0000771  10.4600000  2
     91     97     98    107     1  180.0000771  2.0083200  2
     91     97     98    107     1  0.0000000  1.2552000  3
     91     97    101    104     1  180.0000771  2.0083200  2
     91     97    101    104     1  0.0000000  1.2552000  3
     94     91     97     98     1  180.0000771  2.0083200  2
     94     91     97     98     1  0.0000000  1.2552000  3
     94     91     97    101     1  180.0000771  2.0083200  2
     94     91     97    101     1  0.0000000  1.2552000  3
     97     91     94    114     1  0.0000000  0.6508444  3
     97     98    107    111     1  0.0000000  0.6508444  3
     97    101    104    110     1  0.0000000  0.6508444  3
     98     97    101    104     1  180.0000771  2.0083200  2
     98     97    101    104     1  0.0000000  1.2552000  3
     98    107    111    113     1  180.0000771  0.0000000  2
     98    107    111    289     1  0.0000000  0.2928800  2
     98    107    111    289     1  0.0000000  0.4184000  4
    101     97     98    107     1  180.0000771  2.0083200  2
    101     97     98    107     1  0.0000000  1.2552000  3
    101    104    110    112     1  180.0000771  0.0000000  2
    101    104    110    264     1  0.0000000  0.2928800  2
    101    104    110    264     1  0.0000000  0.4184000  4
    104    110    264    244     1  180.0000771  6.2760000  1
    104    110    264    244     1  0.0000000  0.0000000  2
    107    111    289    269     1  180.0000771  6.2760000  1
    107    111    289    269     1  0.0000000  0.0000000  2
    110    264    244    241     1  0.0000000  2.2175200  1
    110    264    244    241     1  0.0000000  0.0000000  2
    110    264    244    241     1  180.0000771  0.6276000  3
    110    264    244    241     1  180.0000771  2.0920000  4
    111    289    269    266     1  0.0000000  2.2175200  1
    111    289    269    266     1  0.0000000  0.0000000  2
    111    289    269    266     1  180.0000771  0.6276000  3
    111    289    269    266     1  180.0000771  2.0920000  4
    112    110    264    244     1  180.0000771  10.4600000  2
    113    111    289    269     1  180.0000771  10.4600000  2
    116    122    123    132     1  180.0000771  2.0083200  2
    116    122    123    132     1  0.0000000  1.2552000  3
    116    122    126    129     1  180.0000771  2.0083200  2
    116    122    126    129     1  0.0000000  1.2552000  3
    119    116    122    123     1  180.0000771  2.0083200  2
    119    116    122    123     1  0.0000000  1.2552000  3
    119    116    122    126     1  180.0000771  2.0083200  2
    119    116    122    126     1  0.0000000  1.2552000  3
    122    116    119    139     1  0.0000000  0.6508444  3
    122    123    132    136     1  0.0000000  0.6508444  3
    122    126    129    135     1  0.0000000  0.6508444  3
    123    122    126    129     1  180.0000771  2.0083200  2
    123    122    126    129     1  0.0000000  1.2552000  3
    123    132    136    138     1  180.0000771  0.0000000  2
    123    132    136    339     1  0.0000000  0.2928800  2
    123    132    136    339     1  0.0000000  0.4184000  4
    126    122    123    132     1  180.0000771  2.0083200  2
    126    122    123    132     1  0.0000000  1.2552000  3
    126    129    135    137     1  180.0000771  0.0000000  2
    126    129    135    314     1  0.0000000  0.2928800  2
    126    129    135    314     1  0.0000000  0.4184000  4
    129    135    314    294     1  180.0000771  6.2760000  1
    129    135    314    294     1  0.0000000  0.0000000  2
    132    136    339    319     1  180.0000771  6.2760000  1
    132    136    339    319     1  0.0000000  0.0000000  2
    135    314    294    291     1  0.0000000  2.2175200  1
    135    314    294    291     1  0.0000000  0.0000000  2
    135    314    294    291     1  180.0000771  0.6276000  3
    135    314    294    291     1  180.0000771  2.0920000  4
    136    339    319    316     1  0.0000000  2.2175200  1
    136    339    319    316     1  0.0000000  0.0000000  2
    136    339    319    316     1  180.0000771  0.6276000  3
    136    339    319    316     1  180.0000771  2.0920000  4
    137    135    314    294     1  180.0000771  10.4600000  2
    138    136    339    319     1  180.0000771  10.4600000  2
    141    147    148    157     1  180.0000771  2.0083200  2
    141    147    148    157     1  0.0000000  1.2552000  3
    141    147    151    154     1  180.0000771  2.0083200  2
    141    147    151    154     1  0.0000000  1.2552000  3
    144    141    147    148     1  180.0000771  2.0083200  2
    144    141    147    148     1  0.0000000  1.2552000  3
    144    141    147    151     1  180.0000771  2.0083200  2
    144    141    147    151     1  0.0000000  1.2552000  3
    147    141    144    164     1  0.0000000  0.6508444  3
    147    148    157    161     1  0.0000000  0.6508444  3
    147    151    154    160     1  0.0000000  0.6508444  3
    148    147    151    154     1  180.0000771  2.0083200  2
    148    147    151    154     1  0.0000000  1.2552000  3
    148    157    161    163     1  180.0000771  0.0000000  2
    148    157    161    368     1  0.0000000  0.2928800  2
    148    157    161    368     1  0.0000000  0.4184000  4
    151    147    148    157     1  180.0000771  2.0083200  2
    151    147    148    157     1  0.0000000  1.2552000  3
    151    154    160    341     1  0.0000000  0.2928800  2
    151    154    160    341     1  0.0000000  0.4184000  4
    151    154    160    162     1  180.0000771  0.0000000  2
    154    160    341    343     1  180.0000771  6.2760000  1
    154    160    341    343     1  0.0000000  0.0000000  2
    157    161    368    370     1  180.0000771  6.2760000  1
    157    161    368    370     1  0.0000000  0.0000000  2
    160    341    343    345     1  0.0000000  2.2175200  1
    160    341    343    345     1  0.0000000  0.0000000  2
    160    341    343    345     1  180.0000771  0.6276000  3
    160    341    343    345     1  180.0000771  2.0920000  4
    161    368    370    372     1  0.0000000  2.2175200  1
    161    368    370    372     1  0.0000000  0.0000000  2
    161    368    370    372     1  180.0000771  0.6276000  3
    161    368    370    372     1  180.0000771  2.0920000  4
    162    160    341    343     1  180.0000771  10.4600000  2
    163    161    368    370     1  180.0000771  10.4600000  2
    166    172    173    182     1  180.0000771  2.0083200  2
    166    172    173    182     1  0.0000000  1.2552000  3
    166    172    176    179     1  180.0000771  2.0083200  2
    166    172    176    179     1  0.0000000  1.2552000  3
    169    166    172    173     1  180.0000771  2.0083200  2
    169    166    172    173     1  0.0000000  1.2552000  3
    169    166    172    176     1  180.0000771  2.0083200  2
    169    166    172    176     1  0.0000000  1.2552000  3
    172    166    169    189     1  0.0000000  0.6508444  3
    172    173    182    186     1  0.0000000  0.6508444  3
    172    176    179    185     1  0.0000000  0.6508444  3
    173    172    176    179     1  180.0000771  2.0083200  2
    173    172    176    179     1  0.0000000  1.2552000  3
    173    182    186    188     1  180.0000771  0.0000000  2
    173    182    186    422     1  0.0000000  0.2928800  2
    173    182    186    422     1  0.0000000  0.4184000  4
    176    172    173    182     1  180.0000771  2.0083200  2
    176    172    173    182     1  0.0000000  1.2552000  3
    176    179    185    395     1  0.0000000  0.2928800  2
    176    179    185    395     1  0.0000000  0.4184000  4
    176    179    185    187     1  180.0000771  0.0000000  2
    179    185    395    397     1  180.0000771  6.2760000  1
    179    185    395    397     1  0.0000000  0.0000000  2
    182    186    422    424     1  180.0000771  6.2760000  1
    182    186    422    424     1  0.0000000  0.0000000  2
    185    395    397    399     1  0.0000000  2.2175200  1
    185    395    397    399     1  0.0000000  0.0000000  2
    185    395    397    399     1  180.0000771  0.6276000  3
    185    395    397    399     1  180.0000771  2.0920000  4
    186    422    424    426     1  0.0000000  2.2175200  1
    186    422    424    426     1  0.0000000  0.0000000  2
    186    422    424    426     1  180.0000771  0.6276000  3
    186    422    424    426     1  180.0000771  2.0920000  4
    187    185    395    397     1  180.0000771  10.4600000  2
    188    186    422    424     1  180.0000771  10.4600000  2
    191    197    198    207     1  180.0000771  2.0083200  2
    191    197    198    207     1  0.0000000  1.2552000  3
    191    197    201    204     1  180.0000771  2.0083200  2
    191    197    201    204     1  0.0000000  1.2552000  3
    194    191    197    198     1  180.0000771  2.0083200  2
    194    191    197    198     1  0.0000000  1.2552000  3
    194    191    197    201     1  180.0000771  2.0083200  2
    194    191    197    201     1  0.0000000  1.2552000  3
    197    191    194    214     1  0.0000000  0.6508444  3
    197    198    207    211     1  0.0000000  0.6508444  3
    197    201    204    210     1  0.0000000  0.6508444  3
    198    197    201    204     1  180.0000771  2.0083200  2
    198    197    201    204     1  0.0000000  1.2552000  3
    198    207    211    213     1  180.0000771  0.0000000  2
    198    207    211    476     1  0.0000000  0.2928800  2
    198    207    211    476     1  0.0000000  0.4184000  4
    201    197    198    207     1  180.0000771  2.0083200  2
    201    197    198    207     1  0.0000000  1.2552000  3
    201    204    210    449     1  0.0000000  0.2928800  2
    201    204    210    449     1  0.0000000  0.4184000  4
    201    204    210    212     1  180.0000771  0.0000000  2
    204    210    449    451     1  180.0000771  6.2760000  1
    204    210    449    451     1  0.0000000  0.0000000  2
    207    211    476    478     1  180.0000771  6.2760000  1
    207    211    476    478     1  0.0000000  0.0000000  2
    210    449    451    453     1  0.0000000  2.2175200  1
    210    449    451    453     1  0.0000000  0.0000000  2
    210    449    451    453     1  180.0000771  0.6276000  3
    210    449    451    453     1  180.0000771  2.0920000  4
    211    476    478    480     1  0.0000000  2.2175200  1
    211    476    478    480     1  0.0000000  0.0000000  2
    211    476    478    480     1  180.0000771  0.6276000  3
    211    476    478    480     1  180.0000771  2.0920000  4
    212    210    449    451     1  180.0000771  10.4600000  2
    213    211    476    478     1  180.0000771  10.4600000  2
    216    222    223    232     1  180.0000771  2.0083200  2
    216    222    223    232     1  0.0000000  1.2552000  3
    216    222    226    229     1  180.0000771  2.0083200  2
    216    222    226    229     1  0.0000000  1.2552000  3
    219    216    222    223     1  180.0000771  2.0083200  2
    219    216    222    223     1  0.0000000  1.2552000  3
    219    216    222    226     1  180.0000771  2.0083200  2
    219    216    222    226     1  0.0000000  1.2552000  3
    222    216    219    239     1  0.0000000  0.6508444  3
    222    223    232    236     1  0.0000000  0.6508444  3
    222    226    229    235     1  0.0000000  0.6508444  3
    223    222    226    229     1  180.0000771  2.0083200  2
    223    222    226    229     1  0.0000000  1.2552000  3
    223    232    236    238     1  180.0000771  0.0000000  2
    223    232    236    530     1  0.0000000  0.2928800  2
    223    232    236    530     1  0.0000000  0.4184000  4
    226    222    223    232     1  180.0000771  2.0083200  2
    226    222    223    232     1  0.0000000  1.2552000  3
    226    229    235    503     1  0.0000000  0.2928800  2
    226    229    235    503     1  0.0000000  0.4184000  4
    226    229    235    237     1  180.0000771  0.0000000  2
    229    235    503    505     1  180.0000771  6.2760000  1
    229    235    503    505     1  0.0000000  0.0000000  2
    232    236    530    532     1  180.0000771  6.2760000  1
    232    236    530    532     1  0.0000000  0.0000000  2
    235    503    505    507     1  0.0000000  2.2175200  1
    235    503    505    507     1  0.0000000  0.0000000  2
    235    503    505    507     1  180.0000771  0.6276000  3
    235    503    505    507     1  180.0000771  2.0920000  4
    236    530    532    534     1  0.0000000  2.2175200  1
    236    530    532    534     1  0.0000000  0.0000000  2
    236    530    532    534     1  180.0000771  0.6276000  3
    236    530    532    534     1  180.0000771  2.0920000  4
    237    235    503    505     1  180.0000771  10.4600000  2
    238    236    530    532     1  180.0000771  10.4600000  2
    241    247    248    257     1  180.0000771  2.0083200  2
    241    247    248    257     1  0.0000000  1.2552000  3
    241    247    251    254     1  180.0000771  2.0083200  2
    241    247    251    254     1  0.0000000  1.2552000  3
    244    241    247    248     1  180.0000771  2.0083200  2
    244    241    247    248     1  0.0000000  1.2552000  3
    244    241    247    251     1  180.0000771  2.0083200  2
    244    241    247    251     1  0.0000000  1.2552000  3
    247    241    244    264     1  0.0000000  0.6508444  3
    247    248    257    261     1  0.0000000  0.6508444  3
    247    251    254    260     1  0.0000000  0.6508444  3
    248    247    251    254     1  180.0000771  2.0083200  2
    248    247    251    254     1  0.0000000  1.2552000  3
    248    257    261    263     1  180.0000771  0.0000000  2
    248    257    261    584     1  0.0000000  0.2928800  2
    248    257    261    584     1  0.0000000  0.4184000  4
    251    247    248    257     1  180.0000771  2.0083200  2
    251    247    248    257     1  0.0000000  1.2552000  3
    251    254    260    557     1  0.0000000  0.2928800  2
    251    254    260    557     1  0.0000000  0.4184000  4
    251    254    260    262     1  180.0000771  0.0000000  2
    254    260    557    559     1  180.0000771  6.2760000  1
    254    260    557    559     1  0.0000000  0.0000000  2
    257    261    584    586     1  180.0000771  6.2760000  1
    257    261    584    586     1  0.0000000  0.0000000  2
    260    557    559    561     1  0.0000000  2.2175200  1
    260    557    559    561     1  0.0000000  0.0000000  2
    260    557    559    561     1  180.0000771  0.6276000  3
    260    557    559    561     1  180.0000771  2.0920000  4
    261    584    586    588     1  0.0000000  2.2175200  1
    261    584    586    588     1  0.0000000  0.0000000  2
    261    584    586    588     1  180.0000771  0.6276000  3
    261    584    586    588     1  180.0000771  2.0920000  4
    262    260    557    559     1  180.0000771  10.4600000  2
    263    261    584    586     1  180.0000771  10.4600000  2
    266    272    273    282     1  180.0000771  2.0083200  2
    266    272    273    282     1  0.0000000  1.2552000  3
    266    272    276    279     1  180.0000771  2.0083200  2
    266    272    276    279     1  0.0000000  1.2552000  3
    269    266    272    273     1  180.0000771  2.0083200  2
    269    266    272    273     1  0.0000000  1.2552000  3
    269    266    272    276     1  180.0000771  2.0083200  2
    269    266    272    276     1  0.0000000  1.2552000  3
    272    266    269    289     1  0.0000000  0.6508444  3
    272    273    282    286     1  0.0000000  0.6508444  3
    272    276    279    285     1  0.0000000  0.6508444  3
    273    272    276    279     1  180.0000771  2.0083200  2
    273    272    276    279     1  0.0000000  1.2552000  3
    273    282    286    288     1  180.0000771  0.0000000  2
    273    282    286    638     1  0.0000000  0.2928800  2
    273    282    286    638     1  0.0000000  0.4184000  4
    276    272    273    282     1  180.0000771  2.0083200  2
    276    272    273    282     1  0.0000000  1.2552000  3
    276    279    285    611     1  0.0000000  0.2928800  2
    276    279    285    611     1  0.0000000  0.4184000  4
    276    279    285    287     1  180.0000771  0.0000000  2
    279    285    611    613     1  180.0000771  6.2760000  1
    279    285    611    613     1  0.0000000  0.0000000  2
    282    286    638    640     1  180.0000771  6.2760000  1
    282    286    638    640     1  0.0000000  0.0000000  2
    285    611    613    615     1  0.0000000  2.2175200  1
    285    611    613    615     1  0.0000000  0.0000000  2
    285    611    613    615     1  180.0000771  0.6276000  3
    285    611    613    615     1  180.0000771  2.0920000  4
    286    638    640    642     1  0.0000000  2.2175200  1
    286    638    640    642     1  0.0000000  0.0000000  2
    286    638    640    642     1  180.0000771  0.6276000  3
    286    638    640    642     1  180.0000771  2.0920000  4
    287    285    611    613     1  180.0000771  10.4600000  2
    288    286    638    640     1  180.0000771  10.4600000  2
    291    297    298    307     1  180.0000771  2.0083200  2
    291    297    298    307     1  0.0000000  1.2552000  3
    291    297    301    304     1  180.0000771  2.0083200  2
    291    297    301    304     1  0.0000000  1.2552000  3
    294    291    297    298     1  180.0000771  2.0083200  2
    294    291    297    298     1  0.0000000  1.2552000  3
    294    291    297    301     1  180.0000771  2.0083200  2
    294    291    297    301     1  0.0000000  1.2552000  3
    297    291    294    314     1  0.0000000  0.6508444  3
    297    298    307    311     1  0.0000000  0.6508444  3
    297    301    304    310     1  0.0000000  0.6508444  3
    298    297    301    304     1  180.0000771  2.0083200  2
    298    297    301    304     1  0.0000000  1.2552000  3
    298    307    311    313     1  180.0000771  0.0000000  2
    298    307    311    692     1  0.0000000  0.2928800  2
    298    307    311    692     1  0.0000000  0.4184000  4
    301    297    298    307     1  180.0000771  2.0083200  2
    301    297    298    307     1  0.0000000  1.2552000  3
    301    304    310    665     1  0.0000000  0.2928800  2
    301    304    310    665     1  0.0000000  0.4184000  4
    301    304    310    312     1  180.0000771  0.0000000  2
    304    310    665    667     1  180.0000771  6.2760000  1
    304    310    665    667     1  0.0000000  0.0000000  2
    307    311    692    694     1  180.0000771  6.2760000  1
    307    311    692    694     1  0.0000000  0.0000000  2
    310    665    667    669     1  0.0000000  2.2175200  1
    310    665    667    669     1  0.0000000  0.0000000  2
    310    665    667    669     1  180.0000771  0.6276000  3
    310    665    667    669     1  180.0000771  2.0920000  4
    311    692    694    696     1  0.0000000  2.2175200  1
    311    692    694    696     1  0.0000000  0.0000000  2
    311    692    694    696     1  180.0000771  0.6276000  3
    311    692    694    696     1  180.0000771  2.0920000  4
    312    310    665    667     1  180.0000771  10.4600000  2
    313    311    692    694     1  180.0000771  10.4600000  2
    316    322    323    332     1  180.0000771  2.0083200  2
    316    322    323    332     1  0.0000000  1.2552000  3
    316    322    326    329     1  180.0000771  2.0083200  2
    316    322    326    329     1  0.0000000  1.2552000  3
    319    316    322    323     1  180.0000771  2.0083200  2
    319    316    322    323     1  0.0000000  1.2552000  3
    319    316    322    326     1  180.0000771  2.0083200  2
    319    316    322    326     1  0.0000000  1.2552000  3
    322    316    319    339     1  0.0000000  0.6508444  3
    322    323    332    336     1  0.0000000  0.6508444  3
    322    326    329    335     1  0.0000000  0.6508444  3
    323    322    326    329     1  180.0000771  2.0083200  2
    323    322    326    329     1  0.0000000  1.2552000  3
    323    332    336    746     1  0.0000000  0.2928800  2
    323    332    336    746     1  0.0000000  0.4184000  4
    323    332    336    338     1  180.0000771  0.0000000  2
    326    322    323    332     1  180.0000771  2.0083200  2
    326    322    323    332     1  0.0000000  1.2552000  3
    326    329    335    719     1  0.0000000  0.2928800  2
    326    329    335    719     1  0.0000000  0.4184000  4
    326    329    335    337     1  180.0000771  0.0000000  2
    329    335    719    721     1  180.0000771  6.2760000  1
    329    335    719    721     1  0.0000000  0.0000000  2
    332    336    746    748     1  180.0000771  6.2760000  1
    332    336    746    748     1  0.0000000  0.0000000  2
    335    719    721    723     1  0.0000000  2.2175200  1
    335    719    721    723     1  0.0000000  0.0000000  2
    335    719    721    723     1  180.0000771  0.6276000  3
    335    719    721    723     1  180.0000771  2.0920000  4
    336    746    748    750     1  0.0000000  2.2175200  1
    336    746    748    750     1  0.0000000  0.0000000  2
    336    746    748    750     1  180.0000771  0.6276000  3
    336    746    748    750     1  180.0000771  2.0920000  4
    337    335    719    721     1  180.0000771  10.4600000  2
    338    336    746    748     1  180.0000771  10.4600000  2
    341    343    345    349     1  0.0000000  0.6508444  3
    343    345    349    350     1  180.0000771  2.0083200  2
    343    345    349    350     1  0.0000000  1.2552000  3
    343    345    349    351     1  180.0000771  2.0083200  2
    343    345    349    351     1  0.0000000  1.2552000  3
    345    349    350    362     1  180.0000771  2.0083200  2
    345    349    350    362     1  0.0000000  1.2552000  3
    345    349    351    353     1  180.0000771  2.0083200  2
    345    349    351    353     1  0.0000000  1.2552000  3
    349    350    362    365     1  0.0000000  0.6508444  3
    349    351    353    357     1  0.0000000  0.6508444  3
    350    349    351    353     1  180.0000771  2.0083200  2
    350    349    351    353     1  0.0000000  1.2552000  3
    350    362    365    366     1  180.0000771  0.0000000  2
    350    362    365    367     1  180.0000771  0.0000000  2
    351    349    350    362     1  180.0000771  2.0083200  2
    351    349    350    362     1  0.0000000  1.2552000  3
    351    353    357    358     1  180.0000771  0.0000000  2
    351    353    357    359     1  180.0000771  0.0000000  2
    368    370    372    376     1  0.0000000  0.6508444  3
    370    372    376    377     1  180.0000771  2.0083200  2
    370    372    376    377     1  0.0000000  1.2552000  3
    370    372    376    378     1  180.0000771  2.0083200  2
    370    372    376    378     1  0.0000000  1.2552000  3
    372    376    377    389     1  180.0000771  2.0083200  2
    372    376    377    389     1  0.0000000  1.2552000  3
    372    376    378    380     1  180.0000771  2.0083200  2
    372    376    378    380     1  0.0000000  1.2552000  3
    376    377    389    392     1  0.0000000  0.6508444  3
    376    378    380    384     1  0.0000000  0.6508444  3
    377    389    392    393     1  180.0000771  0.0000000  2
    377    389    392    394     1  180.0000771  0.0000000  2
    377    376    378    380     1  180.0000771  2.0083200  2
    377    376    378    380     1  0.0000000  1.2552000  3
    378    380    384    385     1  180.0000771  0.0000000  2
    378    380    384    386     1  180.0000771  0.0000000  2
    378    376    377    389     1  180.0000771  2.0083200  2
    378    376    377    389     1  0.0000000  1.2552000  3
    395    397    399    403     1  0.0000000  0.6508444  3
    397    399    403    404     1  180.0000771  2.0083200  2
    397    399    403    404     1  0.0000000  1.2552000  3
    397    399    403    405     1  180.0000771  2.0083200  2
    397    399    403    405     1  0.0000000  1.2552000  3
    399    403    404    416     1  180.0000771  2.0083200  2
    399    403    404    416     1  0.0000000  1.2552000  3
    399    403    405    407     1  180.0000771  2.0083200  2
    399    403    405    407     1  0.0000000  1.2552000  3
    403    404    416    419     1  0.0000000  0.6508444  3
    403    405    407    411     1  0.0000000  0.6508444  3
    404    403    405    407     1  180.0000771  2.0083200  2
    404    403    405    407     1  0.0000000  1.2552000  3
    404    416    419    420     1  180.0000771  0.0000000  2
    404    416    419    421     1  180.0000771  0.0000000  2
    405    403    404    416     1  180.0000771  2.0083200  2
    405    403    404    416     1  0.0000000  1.2552000  3
    405    407    411    412     1  180.0000771  0.0000000  2
    405    407    411    413     1  180.0000771  0.0000000  2
    422    424    426    430     1  0.0000000  0.6508444  3
    424    426    430    431     1  180.0000771  2.0083200  2
    424    426    430    431     1  0.0000000  1.2552000  3
    424    426    430    432     1  180.0000771  2.0083200  2
    424    426    430    432     1  0.0000000  1.2552000  3
    426    430    431    443     1  180.0000771  2.0083200  2
    426    430    431    443     1  0.0000000  1.2552000  3
    426    430    432    434     1  180.0000771  2.0083200  2
    426    430    432    434     1  0.0000000  1.2552000  3
    430    431    443    446     1  0.0000000  0.6508444  3
    430    432    434    438     1  0.0000000  0.6508444  3
    431    443    446    447     1  180.0000771  0.0000000  2
    431    443    446    448     1  180.0000771  0.0000000  2
    431    430    432    434     1  180.0000771  2.0083200  2
    431    430    432    434     1  0.0000000  1.2552000  3
    432    434    438    439     1  180.0000771  0.0000000  2
    432    434    438    440     1  180.0000771  0.0000000  2
    432    430    431    443     1  180.0000771  2.0083200  2
    432    430    431    443     1  0.0000000  1.2552000  3
    449    451    453    457     1  0.0000000  0.6508444  3
    451    453    457    458     1  180.0000771  2.0083200  2
    451    453    457    458     1  0.0000000  1.2552000  3
    451    453    457    459     1  180.0000771  2.0083200  2
    451    453    457    459     1  0.0000000  1.2552000  3
    453    457    458    470     1  180.0000771  2.0083200  2
    453    457    458    470     1  0.0000000  1.2552000  3
    453    457    459    461     1  180.0000771  2.0083200  2
    453    457    459    461     1  0.0000000  1.2552000  3
    457    458    470    473     1  0.0000000  0.6508444  3
    457    459    461    465     1  0.0000000  0.6508444  3
    458    457    459    461     1  180.0000771  2.0083200  2
    458    457    459    461     1  0.0000000  1.2552000  3
    458    470    473    474     1  180.0000771  0.0000000  2
    458    470    473    475     1  180.0000771  0.0000000  2
    459    457    458    470     1  180.0000771  2.0083200  2
    459    457    458    470     1  0.0000000  1.2552000  3
    459    461    465    466     1  180.0000771  0.0000000  2
    459    461    465    467     1  180.0000771  0.0000000  2
    476    478    480    484     1  0.0000000  0.6508444  3
    478    480    484    485     1  180.0000771  2.0083200  2
    478    480    484    485     1  0.0000000  1.2552000  3
    478    480    484    486     1  180.0000771  2.0083200  2
    478    480    484    486     1  0.0000000  1.2552000  3
    480    484    485    497     1  180.0000771  2.0083200  2
    480    484    485    497     1  0.0000000  1.2552000  3
    480    484    486    488     1  180.0000771  2.0083200  2
    480    484    486    488     1  0.0000000  1.2552000  3
    484    485    497    500     1  0.0000000  0.6508444  3
    484    486    488    492     1  0.0000000  0.6508444  3
    485    497    500    501     1  180.0000771  0.0000000  2
    485    497    500    502     1  180.0000771  0.0000000  2
    485    484    486    488     1  180.0000771  2.0083200  2
    485    484    486    488     1  0.0000000  1.2552000  3
    486    488    492    493     1  180.0000771  0.0000000  2
    486    488    492    494     1  180.0000771  0.0000000  2
    486    484    485    497     1  180.0000771  2.0083200  2
    486    484    485    497     1  0.0000000  1.2552000  3
    503    505    507    511     1  0.0000000  0.6508444  3
    505    507    511    512     1  180.0000771  2.0083200  2
    505    507    511    512     1  0.0000000  1.2552000  3
    505    507    511    513     1  180.0000771  2.0083200  2
    505    507    511    513     1  0.0000000  1.2552000  3
    507    511    512    524     1  180.0000771  2.0083200  2
    507    511    512    524     1  0.0000000  1.2552000  3
    507    511    513    515     1  180.0000771  2.0083200  2
    507    511    513    515     1  0.0000000  1.2552000  3
    511    512    524    527     1  0.0000000  0.6508444  3
    511    513    515    519     1  0.0000000  0.6508444  3
    512    511    513    515     1  180.0000771  2.0083200  2
    512    511    513    515     1  0.0000000  1.2552000  3
    512    524    527    528     1  180.0000771  0.0000000  2
    512    524    527    529     1  180.0000771  0.0000000  2
    513    511    512    524     1  180.0000771  2.0083200  2
    513    511    512    524     1  0.0000000  1.2552000  3
    513    515    519    520     1  180.0000771  0.0000000  2
    513    515    519    521     1  180.0000771  0.0000000  2
    530    532    534    538     1  0.0000000  0.6508444  3
    532    534    538    539     1  180.0000771  2.0083200  2
    532    534    538    539     1  0.0000000  1.2552000  3
    532    534    538    540     1  180.0000771  2.0083200  2
    532    534    538    540     1  0.0000000  1.2552000  3
    534    538    539    551     1  180.0000771  2.0083200  2
    534    538    539    551     1  0.0000000  1.2552000  3
    534    538    540    542     1  180.0000771  2.0083200  2
    534    538    540    542     1  0.0000000  1.2552000  3
    538    539    551    554     1  0.0000000  0.6508444  3
    538    540    542    546     1  0.0000000  0.6508444  3
    539    551    554    555     1  180.0000771  0.0000000  2
    539    551    554    556     1  180.0000771  0.0000000  2
    539    538    540    542     1  180.0000771  2.0083200  2
    539    538    540    542     1  0.0000000  1.2552000  3
    540    542    546    547     1  180.0000771  0.0000000  2
    540    542    546    548     1  180.0000771  0.0000000  2
    540    538    539    551     1  180.0000771  2.0083200  2
    540    538    539    551     1  0.0000000  1.2552000  3
    557    559    561    565     1  0.0000000  0.6508444  3
    559    561    565    566     1  180.0000771  2.0083200  2
    559    561    565    566     1  0.0000000  1.2552000  3
    559    561    565    567     1  180.0000771  2.0083200  2
    559    561    565    567     1  0.0000000  1.2552000  3
    561    565    566    578     1  180.0000771  2.0083200  2
    561    565    566    578     1  0.0000000  1.2552000  3
    561    565    567    569     1  180.0000771  2.0083200  2
    561    565    567    569     1  0.0000000  1.2552000  3
    565    566    578    581     1  0.0000000  0.6508444  3
    565    567    569    573     1  0.0000000  0.6508444  3
    566    565    567    569     1  180.0000771  2.0083200  2
    566    565    567    569     1  0.0000000  1.2552000  3
    566    578    581    582     1  180.0000771  0.0000000  2
    566    578    581    583     1  180.0000771  0.0000000  2
    567    565    566    578     1  180.0000771  2.0083200  2
    567    565    566    578     1  0.0000000  1.2552000  3
    567    569    573    574     1  180.0000771  0.0000000  2
    567    569    573    575     1  180.0000771  0.0000000  2
    584    586    588    592     1  0.0000000  0.6508444  3
    586    588    592    593     1  180.0000771  2.0083200  2
    586    588    592    593     1  0.0000000  1.2552000  3
    586    588    592    594     1  180.0000771  2.0083200  2
    586    588    592    594     1  0.0000000  1.2552000  3
    588    592    593    605     1  180.0000771  2.0083200  2
    588    592    593    605     1  0.0000000  1.2552000  3
    588    592    594    596     1  180.0000771  2.0083200  2
    588    592    594    596     1  0.0000000  1.2552000  3
    592    593    605    608     1  0.0000000  0.6508444  3
    592    594    596    600     1  0.0000000  0.6508444  3
    593    605    608    609     1  180.0000771  0.0000000  2
    593    605    608    610     1  180.0000771  0.0000000  2
    593    592    594    596     1  180.0000771  2.0083200  2
    593    592    594    596     1  0.0000000  1.2552000  3
    594    596    600    601     1  180.0000771  0.0000000  2
    594    596    600    602     1  180.0000771  0.0000000  2
    594    592    593    605     1  180.0000771  2.0083200  2
    594    592    593    605     1  0.0000000  1.2552000  3
    611    613    615    619     1  0.0000000  0.6508444  3
    613    615    619    620     1  180.0000771  2.0083200  2
    613    615    619    620     1  0.0000000  1.2552000  3
    613    615    619    621     1  180.0000771  2.0083200  2
    613    615    619    621     1  0.0000000  1.2552000  3
    615    619    620    632     1  180.0000771  2.0083200  2
    615    619    620    632     1  0.0000000  1.2552000  3
    615    619    621    623     1  180.0000771  2.0083200  2
    615    619    621    623     1  0.0000000  1.2552000  3
    619    620    632    635     1  0.0000000  0.6508444  3
    619    621    623    627     1  0.0000000  0.6508444  3
    620    619    621    623     1  180.0000771  2.0083200  2
    620    619    621    623     1  0.0000000  1.2552000  3
    620    632    635    636     1  180.0000771  0.0000000  2
    620    632    635    637     1  180.0000771  0.0000000  2
    621    619    620    632     1  180.0000771  2.0083200  2
    621    619    620    632     1  0.0000000  1.2552000  3
    621    623    627    628     1  180.0000771  0.0000000  2
    621    623    627    629     1  180.0000771  0.0000000  2
    638    640    642    646     1  0.0000000  0.6508444  3
    640    642    646    647     1  180.0000771  2.0083200  2
    640    642    646    647     1  0.0000000  1.2552000  3
    640    642    646    648     1  180.0000771  2.0083200  2
    640    642    646    648     1  0.0000000  1.2552000  3
    642    646    647    659     1  180.0000771  2.0083200  2
    642    646    647    659     1  0.0000000  1.2552000  3
    642    646    648    650     1  180.0000771  2.0083200  2
    642    646    648    650     1  0.0000000  1.2552000  3
    646    647    659    662     1  0.0000000  0.6508444  3
    646    648    650    654     1  0.0000000  0.6508444  3
    647    659    662    663     1  180.0000771  0.0000000  2
    647    659    662    664     1  180.0000771  0.0000000  2
    647    646    648    650     1  180.0000771  2.0083200  2
    647    646    648    650     1  0.0000000  1.2552000  3
    648    650    654    655     1  180.0000771  0.0000000  2
    648    650    654    656     1  180.0000771  0.0000000  2
    648    646    647    659     1  180.0000771  2.0083200  2
    648    646    647    659     1  0.0000000  1.2552000  3
    665    667    669    673     1  0.0000000  0.6508444  3
    667    669    673    674     1  180.0000771  2.0083200  2
    667    669    673    674     1  0.0000000  1.2552000  3
    667    669    673    675     1  180.0000771  2.0083200  2
    667    669    673    675     1  0.0000000  1.2552000  3
    669    673    674    686     1  180.0000771  2.0083200  2
    669    673    674    686     1  0.0000000  1.2552000  3
    669    673    675    677     1  180.0000771  2.0083200  2
    669    673    675    677     1  0.0000000  1.2552000  3
    673    674    686    689     1  0.0000000  0.6508444  3
    673    675    677    681     1  0.0000000  0.6508444  3
    674    673    675    677     1  180.0000771  2.0083200  2
    674    673    675    677     1  0.0000000  1.2552000  3
    674    686    689    690     1  180.0000771  0.0000000  2
    674    686    689    691     1  180.0000771  0.0000000  2
    675    673    674    686     1  180.0000771  2.0083200  2
    675    673    674    686     1  0.0000000  1.2552000  3
    675    677    681    682     1  180.0000771  0.0000000  2
    675    677    681    683     1  180.0000771  0.0000000  2
    692    694    696    700     1  0.0000000  0.6508444  3
    694    696    700    701     1  180.0000771  2.0083200  2
    694    696    700    701     1  0.0000000  1.2552000  3
    694    696    700    702     1  180.0000771  2.0083200  2
    694    696    700    702     1  0.0000000  1.2552000  3
    696    700    701    713     1  180.0000771  2.0083200  2
    696    700    701    713     1  0.0000000  1.2552000  3
    696    700    702    704     1  180.0000771  2.0083200  2
    696    700    702    704     1  0.0000000  1.2552000  3
    700    701    713    716     1  0.0000000  0.6508444  3
    700    702    704    708     1  0.0000000  0.6508444  3
    701    713    716    717     1  180.0000771  0.0000000  2
    701    713    716    718     1  180.0000771  0.0000000  2
    701    700    702    704     1  180.0000771  2.0083200  2
    701    700    702    704     1  0.0000000  1.2552000  3
    702    704    708    709     1  180.0000771  0.0000000  2
    702    704    708    710     1  180.0000771  0.0000000  2
    702    700    701    713     1  180.0000771  2.0083200  2
    702    700    701    713     1  0.0000000  1.2552000  3
    719    721    723    727     1  0.0000000  0.6508444  3
    721    723    727    728     1  180.0000771  2.0083200  2
    721    723    727    728     1  0.0000000  1.2552000  3
    721    723    727    729     1  180.0000771  2.0083200  2
    721    723    727    729     1  0.0000000  1.2552000  3
    723    727    728    740     1  180.0000771  2.0083200  2
    723    727    728    740     1  0.0000000  1.2552000  3
    723    727    729    731     1  180.0000771  2.0083200  2
    723    727    729    731     1  0.0000000  1.2552000  3
    727    728    740    743     1  0.0000000  0.6508444  3
    727    729    731    735     1  0.0000000  0.6508444  3
    728    727    729    731     1  180.0000771  2.0083200  2
    728    727    729    731     1  0.0000000  1.2552000  3
    728    740    743    744     1  180.0000771  0.0000000  2
    728    740    743    745     1  180.0000771  0.0000000  2
    729    727    728    740     1  180.0000771  2.0083200  2
    729    727    728    740     1  0.0000000  1.2552000  3
    729    731    735    736     1  180.0000771  0.0000000  2
    729    731    735    737     1  180.0000771  0.0000000  2
    746    748    750    754     1  0.0000000  0.6508444  3
    748    750    754    755     1  180.0000771  2.0083200  2
    748    750    754    755     1  0.0000000  1.2552000  3
    748    750    754    756     1  180.0000771  2.0083200  2
    748    750    754    756     1  0.0000000  1.2552000  3
    750    754    755    767     1  180.0000771  2.0083200  2
    750    754    755    767     1  0.0000000  1.2552000  3
    750    754    756    758     1  180.0000771  2.0083200  2
    750    754    756    758     1  0.0000000  1.2552000  3
    754    755    767    770     1  0.0000000  0.6508444  3
    754    756    758    762     1  0.0000000  0.6508444  3
    755    767    770    771     1  180.0000771  0.0000000  2
    755    767    770    772     1  180.0000771  0.0000000  2
    755    754    756    758     1  180.0000771  2.0083200  2
    755    754    756    758     1  0.0000000  1.2552000  3
    756    758    762    763     1  180.0000771  0.0000000  2
    756    758    762    764     1  180.0000771  0.0000000  2
    756    754    755    767     1  180.0000771  2.0083200  2
    756    754    755    767     1  0.0000000  1.2552000  3
     27     64     33     37     4  180.0000771  43.9320000  2
     30     89     34     40     4  180.0000771  43.9320000  2
     21    114     35     38     4  180.0000771  43.9320000  2
     24    139     36     39     4  180.0000771  43.9320000  2
     54    164     60     62     4  180.0000771  43.9320000  2
     57    189     61     63     4  180.0000771  43.9320000  2
     79    214     85     87     4  180.0000771  43.9320000  2
     82    239     86     88     4  180.0000771  43.9320000  2
    104    264    110    112     4  180.0000771  43.9320000  2
    107    289    111    113     4  180.0000771  43.9320000  2
    129    314    135    137     4  180.0000771  43.9320000  2
    132    339    136    138     4  180.0000771  43.9320000  2
    154    341    160    162     4  180.0000771  43.9320000  2
    157    368    161    163     4  180.0000771  43.9320000  2
    179    395    185    187     4  180.0000771  43.9320000  2
    182    422    186    188     4  180.0000771  43.9320000  2
    204    449    210    212     4  180.0000771  43.9320000  2
    207    476    211    213     4  180.0000771  43.9320000  2
    229    503    235    237     4  180.0000771  43.9320000  2
    232    530    236    238     4  180.0000771  43.9320000  2
    254    557    260    262     4  180.0000771  43.9320000  2
    257    584    261    263     4  180.0000771  43.9320000  2
    279    611    285    287     4  180.0000771  43.9320000  2
    282    638    286    288     4  180.0000771  43.9320000  2
    304    665    310    312     4  180.0000771  43.9320000  2
    307    692    311    313     4  180.0000771  43.9320000  2
    329    719    335    337     4  180.0000771  43.9320000  2
    332    746    336    338     4  180.0000771  43.9320000  2
    353    358    357    359     4  180.0000771  4.6024000  2
    362    366    365    367     4  180.0000771  4.6024000  2
    380    385    384    386     4  180.0000771  4.6024000  2
    389    393    392    394     4  180.0000771  4.6024000  2
    407    412    411    413     4  180.0000771  4.6024000  2
    416    420    419    421     4  180.0000771  4.6024000  2
    434    439    438    440     4  180.0000771  4.6024000  2
    443    447    446    448     4  180.0000771  4.6024000  2
    461    466    465    467     4  180.0000771  4.6024000  2
    470    474    473    475     4  180.0000771  4.6024000  2
    488    493    492    494     4  180.0000771  4.6024000  2
    497    501    500    502     4  180.0000771  4.6024000  2
    515    520    519    521     4  180.0000771  4.6024000  2
    524    528    527    529     4  180.0000771  4.6024000  2
    542    547    546    548     4  180.0000771  4.6024000  2
    551    555    554    556     4  180.0000771  4.6024000  2
    569    574    573    575     4  180.0000771  4.6024000  2
    578    582    581    583     4  180.0000771  4.6024000  2
    596    601    600    602     4  180.0000771  4.6024000  2
    605    609    608    610     4  180.0000771  4.6024000  2
    623    628    627    629     4  180.0000771  4.6024000  2
    632    636    635    637     4  180.0000771  4.6024000  2
    650    655    654    656     4  180.0000771  4.6024000  2
    659    663    662    664     4  180.0000771  4.6024000  2
    677    682    681    683     4  180.0000771  4.6024000  2
    686    690    689    691     4  180.0000771  4.6024000  2
    704    709    708    710     4  180.0000771  4.6024000  2
    713    717    716    718     4  180.0000771  4.6024000  2
    731    736    735    737     4  180.0000771  4.6024000  2
    740    744    743    745     4  180.0000771  4.6024000  2
    758    763    762    764     4  180.0000771  4.6024000  2
    767    771    770    772     4  180.0000771  4.6024000  2
      1      8      9     10     1  0.0000000  1.2552000  3
      1      8      9     11     1  0.0000000  1.2552000  3
      1      8     12     13     1  0.0000000  1.2552000  3
      1      8     12     14     1  0.0000000  1.2552000  3
      2      1      4      7     1  0.0000000  0.6508444  3
      2      1      4      5     1  0.0000000  0.6508444  3
      2      1      4      6     1  0.0000000  0.6508444  3
      2      1      8      9     1  0.0000000  1.2552000  3
      2      1      8     12     1  0.0000000  1.2552000  3
      3      1      4      7     1  0.0000000  0.6508444  3
      3      1      4      5     1  0.0000000  0.6508444  3
      3      1      4      6     1  0.0000000  0.6508444  3
      3      1      8      9     1  0.0000000  1.2552000  3
      3      1      8     12     1  0.0000000  1.2552000  3
      4      7     15     16     1  0.0000000  1.2552000  3
      4      7     15     17     1  0.0000000  1.2552000  3
      4      7     18     19     1  0.0000000  1.2552000  3
      4      7     18     20     1  0.0000000  1.2552000  3
      8      1      4      5     1  0.0000000  0.6508444  3
      5      4      7     15     1  0.0000000  1.2552000  3
      5      4      7     18     1  0.0000000  1.2552000  3
      8      1      4      6     1  0.0000000  0.6508444  3
      6      4      7     15     1  0.0000000  1.2552000  3
      6      4      7     18     1  0.0000000  1.2552000  3
      7     15     21     22     1  0.0000000  0.6508444  3
      7     15     21     23     1  0.0000000  0.6508444  3
      7     18     24     25     1  0.0000000  0.6508444  3
      7     18     24     26     1  0.0000000  0.6508444  3
      8      9     30     31     1  0.0000000  0.6508444  3
      8      9     30     32     1  0.0000000  0.6508444  3
      8     12     27     28     1  0.0000000  0.6508444  3
      8     12     27     29     1  0.0000000  0.6508444  3
      9      8     12     13     1  0.0000000  1.2552000  3
      9      8     12     14     1  0.0000000  1.2552000  3
     10      9      8     12     1  0.0000000  1.2552000  3
     10      9     30     34     1  0.0000000  0.6508444  3
     10      9     30     31     1  0.0000000  0.6508444  3
     10      9     30     32     1  0.0000000  0.6508444  3
     11      9      8     12     1  0.0000000  1.2552000  3
     11      9     30     34     1  0.0000000  0.6508444  3
     11      9     30     31     1  0.0000000  0.6508444  3
     11      9     30     32     1  0.0000000  0.6508444  3
     13     12     27     33     1  0.0000000  0.6508444  3
     13     12     27     28     1  0.0000000  0.6508444  3
     13     12     27     29     1  0.0000000  0.6508444  3
     14     12     27     33     1  0.0000000  0.6508444  3
     14     12     27     28     1  0.0000000  0.6508444  3
     14     12     27     29     1  0.0000000  0.6508444  3
     15      7     18     19     1  0.0000000  1.2552000  3
     15      7     18     20     1  0.0000000  1.2552000  3
     16     15      7     18     1  0.0000000  1.2552000  3
     16     15     21     35     1  0.0000000  0.6508444  3
     16     15     21     22     1  0.0000000  0.6508444  3
     16     15     21     23     1  0.0000000  0.6508444  3
     17     15      7     18     1  0.0000000  1.2552000  3
     17     15     21     35     1  0.0000000  0.6508444  3
     17     15     21     22     1  0.0000000  0.6508444  3
     17     15     21     23     1  0.0000000  0.6508444  3
     19     18     24     36     1  0.0000000  0.6508444  3
     19     18     24     25     1  0.0000000  0.6508444  3
     19     18     24     26     1  0.0000000  0.6508444  3
     20     18     24     36     1  0.0000000  0.6508444  3
     20     18     24     25     1  0.0000000  0.6508444  3
     20     18     24     26     1  0.0000000  0.6508444  3
     21     35    114    115     1  180.0000771  10.4600000  2
     22     21     35     38     1  0.0000000  3.3472000  1
     22     21     35     38     1  0.0000000  0.0000000  2
     22     21     35     38     1  180.0000771  0.3347200  3
     22     21     35    114     1  180.0000771  0.0000000  2
     23     21     35     38     1  0.0000000  3.3472000  1
     23     21     35     38     1  0.0000000  0.0000000  2
     23     21     35     38     1  180.0000771  0.3347200  3
     23     21     35    114     1  180.0000771  0.0000000  2
     24     36    139    140     1  180.0000771  10.4600000  2
     25     24     36     39     1  0.0000000  3.3472000  1
     25     24     36     39     1  0.0000000  0.0000000  2
     25     24     36     39     1  180.0000771  0.3347200  3
     25     24     36    139     1  180.0000771  0.0000000  2
     26     24     36     39     1  0.0000000  3.3472000  1
     26     24     36     39     1  0.0000000  0.0000000  2
     26     24     36     39     1  180.0000771  0.3347200  3
     26     24     36    139     1  180.0000771  0.0000000  2
     27     33     64     65     1  180.0000771  10.4600000  2
     28     27     33     37     1  0.0000000  3.3472000  1
     28     27     33     37     1  0.0000000  0.0000000  2
     28     27     33     37     1  180.0000771  0.3347200  3
     28     27     33     64     1  180.0000771  0.0000000  2
     29     27     33     37     1  0.0000000  3.3472000  1
     29     27     33     37     1  0.0000000  0.0000000  2
     29     27     33     37     1  180.0000771  0.3347200  3
     29     27     33     64     1  180.0000771  0.0000000  2
     30     34     89     90     1  180.0000771  10.4600000  2
     31     30     34     40     1  0.0000000  3.3472000  1
     31     30     34     40     1  0.0000000  0.0000000  2
     31     30     34     40     1  180.0000771  0.3347200  3
     31     30     34     89     1  180.0000771  0.0000000  2
     32     30     34     40     1  0.0000000  3.3472000  1
     32     30     34     40     1  0.0000000  0.0000000  2
     32     30     34     40     1  180.0000771  0.3347200  3
     32     30     34     89     1  180.0000771  0.0000000  2
     33     64     44     45     1  0.0000000  0.0000000  2
     33     64     44     46     1  0.0000000  0.0000000  2
     34     89     69     70     1  0.0000000  0.0000000  2
     34     89     69     71     1  0.0000000  0.0000000  2
     35    114     94     95     1  0.0000000  0.0000000  2
     35    114     94     96     1  0.0000000  0.0000000  2
     36    139    119    120     1  0.0000000  0.0000000  2
     36    139    119    121     1  0.0000000  0.0000000  2
     37     33     64     65     1  0.0000000  8.3680000  1
     37     33     64     65     1  180.0000771  10.4600000  2
     38     35    114    115     1  0.0000000  8.3680000  1
     38     35    114    115     1  180.0000771  10.4600000  2
     39     36    139    140     1  0.0000000  8.3680000  1
     39     36    139    140     1  180.0000771  10.4600000  2
     40     34     89     90     1  0.0000000  8.3680000  1
     40     34     89     90     1  180.0000771  10.4600000  2
     41     44     64     65     1  0.0000000  0.0000000  2
     41     47     48     49     1  0.0000000  1.2552000  3
     41     47     48     50     1  0.0000000  1.2552000  3
     41     47     51     52     1  0.0000000  1.2552000  3
     41     47     51     53     1  0.0000000  1.2552000  3
     42     41     44     64     1  0.0000000  0.6508444  3
     42     41     44     45     1  0.0000000  0.6508444  3
     42     41     44     46     1  0.0000000  0.6508444  3
     42     41     47     48     1  0.0000000  1.2552000  3
     42     41     47     51     1  0.0000000  1.2552000  3
     43     41     44     64     1  0.0000000  0.6508444  3
     43     41     44     45     1  0.0000000  0.6508444  3
     43     41     44     46     1  0.0000000  0.6508444  3
     43     41     47     48     1  0.0000000  1.2552000  3
     43     41     47     51     1  0.0000000  1.2552000  3
     45     44     41     47     1  0.0000000  0.6508444  3
     45     44     64     65     1  0.0000000  0.0000000  2
     46     44     41     47     1  0.0000000  0.6508444  3
     46     44     64     65     1  0.0000000  0.0000000  2
     47     48     57     58     1  0.0000000  0.6508444  3
     47     48     57     59     1  0.0000000  0.6508444  3
     47     51     54     55     1  0.0000000  0.6508444  3
     47     51     54     56     1  0.0000000  0.6508444  3
     48     47     51     52     1  0.0000000  1.2552000  3
     48     47     51     53     1  0.0000000  1.2552000  3
     49     48     47     51     1  0.0000000  1.2552000  3
     49     48     57     61     1  0.0000000  0.6508444  3
     49     48     57     58     1  0.0000000  0.6508444  3
     49     48     57     59     1  0.0000000  0.6508444  3
     50     48     47     51     1  0.0000000  1.2552000  3
     50     48     57     61     1  0.0000000  0.6508444  3
     50     48     57     58     1  0.0000000  0.6508444  3
     50     48     57     59     1  0.0000000  0.6508444  3
     52     51     54     60     1  0.0000000  0.6508444  3
     52     51     54     55     1  0.0000000  0.6508444  3
     52     51     54     56     1  0.0000000  0.6508444  3
     53     51     54     60     1  0.0000000  0.6508444  3
     53     51     54     55     1  0.0000000  0.6508444  3
     53     51     54     56     1  0.0000000  0.6508444  3
     54     60    164    165     1  180.0000771  10.4600000  2
     55     54     60     62     1  0.0000000  3.3472000  1
     55     54     60     62     1  0.0000000  0.0000000  2
     55     54     60     62     1  180.0000771  0.3347200  3
     55     54     60    164     1  180.0000771  0.0000000  2
     56     54     60     62     1  0.0000000  3.3472000  1
     56     54     60     62     1  0.0000000  0.0000000  2
     56     54     60     62     1  180.0000771  0.3347200  3
     56     54     60    164     1  180.0000771  0.0000000  2
     57     61    189    190     1  180.0000771  10.4600000  2
     58     57     61     63     1  0.0000000  3.3472000  1
     58     57     61     63     1  0.0000000  0.0000000  2
     58     57     61     63     1  180.0000771  0.3347200  3
     58     57     61    189     1  180.0000771  0.0000000  2
     59     57     61     63     1  0.0000000  3.3472000  1
     59     57     61     63     1  0.0000000  0.0000000  2
     59     57     61     63     1  180.0000771  0.3347200  3
     59     57     61    189     1  180.0000771  0.0000000  2
     60    164    144    145     1  0.0000000  0.0000000  2
     60    164    144    146     1  0.0000000  0.0000000  2
     61    189    169    170     1  0.0000000  0.0000000  2
     61    189    169    171     1  0.0000000  0.0000000  2
     62     60    164    165     1  0.0000000  8.3680000  1
     62     60    164    165     1  180.0000771  10.4600000  2
     63     61    189    190     1  0.0000000  8.3680000  1
     63     61    189    190     1  180.0000771  10.4600000  2
     66     69     89     90     1  0.0000000  0.0000000  2
     66     72     73     74     1  0.0000000  1.2552000  3
     66     72     73     75     1  0.0000000  1.2552000  3
     66     72     76     77     1  0.0000000  1.2552000  3
     66     72     76     78     1  0.0000000  1.2552000  3
     67     66     69     89     1  0.0000000  0.6508444  3
     67     66     69     70     1  0.0000000  0.6508444  3
     67     66     69     71     1  0.0000000  0.6508444  3
     67     66     72     73     1  0.0000000  1.2552000  3
     67     66     72     76     1  0.0000000  1.2552000  3
     68     66     69     89     1  0.0000000  0.6508444  3
     68     66     69     70     1  0.0000000  0.6508444  3
     68     66     69     71     1  0.0000000  0.6508444  3
     68     66     72     73     1  0.0000000  1.2552000  3
     68     66     72     76     1  0.0000000  1.2552000  3
     70     69     66     72     1  0.0000000  0.6508444  3
     70     69     89     90     1  0.0000000  0.0000000  2
     71     69     66     72     1  0.0000000  0.6508444  3
     71     69     89     90     1  0.0000000  0.0000000  2
     72     73     82     83     1  0.0000000  0.6508444  3
     72     73     82     84     1  0.0000000  0.6508444  3
     72     76     79     80     1  0.0000000  0.6508444  3
     72     76     79     81     1  0.0000000  0.6508444  3
     73     72     76     77     1  0.0000000  1.2552000  3
     73     72     76     78     1  0.0000000  1.2552000  3
     74     73     72     76     1  0.0000000  1.2552000  3
     74     73     82     86     1  0.0000000  0.6508444  3
     74     73     82     83     1  0.0000000  0.6508444  3
     74     73     82     84     1  0.0000000  0.6508444  3
     75     73     72     76     1  0.0000000  1.2552000  3
     75     73     82     86     1  0.0000000  0.6508444  3
     75     73     82     83     1  0.0000000  0.6508444  3
     75     73     82     84     1  0.0000000  0.6508444  3
     77     76     79     85     1  0.0000000  0.6508444  3
     77     76     79     80     1  0.0000000  0.6508444  3
     77     76     79     81     1  0.0000000  0.6508444  3
     78     76     79     85     1  0.0000000  0.6508444  3
     78     76     79     80     1  0.0000000  0.6508444  3
     78     76     79     81     1  0.0000000  0.6508444  3
     79     85    214    215     1  180.0000771  10.4600000  2
     80     79     85     87     1  0.0000000  3.3472000  1
     80     79     85     87     1  0.0000000  0.0000000  2
     80     79     85     87     1  180.0000771  0.3347200  3
     80     79     85    214     1  180.0000771  0.0000000  2
     81     79     85     87     1  0.0000000  3.3472000  1
     81     79     85     87     1  0.0000000  0.0000000  2
     81     79     85     87     1  180.0000771  0.3347200  3
     81     79     85    214     1  180.0000771  0.0000000  2
     82     86    239    240     1  180.0000771  10.4600000  2
     83     82     86     88     1  0.0000000  3.3472000  1
     83     82     86     88     1  0.0000000  0.0000000  2
     83     82     86     88     1  180.0000771  0.3347200  3
     83     82     86    239     1  180.0000771  0.0000000  2
     84     82     86     88     1  0.0000000  3.3472000  1
     84     82     86     88     1  0.0000000  0.0000000  2
     84     82     86     88     1  180.0000771  0.3347200  3
     84     82     86    239     1  180.0000771  0.0000000  2
     85    214    194    195     1  0.0000000  0.0000000  2
     85    214    194    196     1  0.0000000  0.0000000  2
     86    239    219    220     1  0.0000000  0.0000000  2
     86    239    219    221     1  0.0000000  0.0000000  2
     87     85    214    215     1  0.0000000  8.3680000  1
     87     85    214    215     1  180.0000771  10.4600000  2
     88     86    239    240     1  0.0000000  8.3680000  1
     88     86    239    240     1  180.0000771  10.4600000  2
     91     94    114    115     1  0.0000000  0.0000000  2
     91     97     98     99     1  0.0000000  1.2552000  3
     91     97     98    100     1  0.0000000  1.2552000  3
     91     97    101    102     1  0.0000000  1.2552000  3
     91     97    101    103     1  0.0000000  1.2552000  3
     92     91     94    114     1  0.0000000  0.6508444  3
     92     91     94     95     1  0.0000000  0.6508444  3
     92     91     94     96     1  0.0000000  0.6508444  3
     92     91     97     98     1  0.0000000  1.2552000  3
     92     91     97    101     1  0.0000000  1.2552000  3
     93     91     94    114     1  0.0000000  0.6508444  3
     93     91     94     95     1  0.0000000  0.6508444  3
     93     91     94     96     1  0.0000000  0.6508444  3
     93     91     97     98     1  0.0000000  1.2552000  3
     93     91     97    101     1  0.0000000  1.2552000  3
     95     94     91     97     1  0.0000000  0.6508444  3
     95     94    114    115     1  0.0000000  0.0000000  2
     96     94     91     97     1  0.0000000  0.6508444  3
     96     94    114    115     1  0.0000000  0.0000000  2
     97     98    107    108     1  0.0000000  0.6508444  3
     97     98    107    109     1  0.0000000  0.6508444  3
     97    101    104    105     1  0.0000000  0.6508444  3
     97    101    104    106     1  0.0000000  0.6508444  3
     98     97    101    102     1  0.0000000  1.2552000  3
     98     97    101    103     1  0.0000000  1.2552000  3
     99     98     97    101     1  0.0000000  1.2552000  3
     99     98    107    111     1  0.0000000  0.6508444  3
     99     98    107    108     1  0.0000000  0.6508444  3
     99     98    107    109     1  0.0000000  0.6508444  3
    100     98     97    101     1  0.0000000  1.2552000  3
    100     98    107    111     1  0.0000000  0.6508444  3
    100     98    107    108     1  0.0000000  0.6508444  3
    100     98    107    109     1  0.0000000  0.6508444  3
    102    101    104    110     1  0.0000000  0.6508444  3
    102    101    104    105     1  0.0000000  0.6508444  3
    102    101    104    106     1  0.0000000  0.6508444  3
    103    101    104    110     1  0.0000000  0.6508444  3
    103    101    104    105     1  0.0000000  0.6508444  3
    103    101    104    106     1  0.0000000  0.6508444  3
    104    110    264    265     1  180.0000771  10.4600000  2
    105    104    110    112     1  0.0000000  3.3472000  1
    105    104    110    112     1  0.0000000  0.0000000  2
    105    104    110    112     1  180.0000771  0.3347200  3
    105    104    110    264     1  180.0000771  0.0000000  2
    106    104    110    112     1  0.0000000  3.3472000  1
    106    104    110    112     1  0.0000000  0.0000000  2
    106    104    110    112     1  180.0000771  0.3347200  3
    106    104    110    264     1  180.0000771  0.0000000  2
    107    111    289    290     1  180.0000771  10.4600000  2
    108    107    111    113     1  0.0000000  3.3472000  1
    108    107    111    113     1  0.0000000  0.0000000  2
    108    107    111    113     1  180.0000771  0.3347200  3
    108    107    111    289     1  180.0000771  0.0000000  2
    109    107    111    113     1  0.0000000  3.3472000  1
    109    107    111    113     1  0.0000000  0.0000000  2
    109    107    111    113     1  180.0000771  0.3347200  3
    109    107    111    289     1  180.0000771  0.0000000  2
    110    264    244    245     1  0.0000000  0.0000000  2
    110    264    244    246     1  0.0000000  0.0000000  2
    111    289    269    270     1  0.0000000  0.0000000  2
    111    289    269    271     1  0.0000000  0.0000000  2
    112    110    264    265     1  0.0000000  8.3680000  1
    112    110    264    265     1  180.0000771  10.4600000  2
    113    111    289    290     1  0.0000000  8.3680000  1
    113    111    289    290     1  180.0000771  10.4600000  2
    116    119    139    140     1  0.0000000  0.0000000  2
    116    122    123    124     1  0.0000000  1.2552000  3
    116    122    123    125     1  0.0000000  1.2552000  3
    116    122    126    127     1  0.0000000  1.2552000  3
    116    122    126    128     1  0.0000000  1.2552000  3
    117    116    119    139     1  0.0000000  0.6508444  3
    117    116    119    120     1  0.0000000  0.6508444  3
    117    116    119    121     1  0.0000000  0.6508444  3
    117    116    122    123     1  0.0000000  1.2552000  3
    117    116    122    126     1  0.0000000  1.2552000  3
    118    116    119    139     1  0.0000000  0.6508444  3
    118    116    119    120     1  0.0000000  0.6508444  3
    118    116    119    121     1  0.0000000  0.6508444  3
    118    116    122    123     1  0.0000000  1.2552000  3
    118    116    122    126     1  0.0000000  1.2552000  3
    120    119    116    122     1  0.0000000  0.6508444  3
    120    119    139    140     1  0.0000000  0.0000000  2
    121    119    116    122     1  0.0000000  0.6508444  3
    121    119    139    140     1  0.0000000  0.0000000  2
    122    123    132    133     1  0.0000000  0.6508444  3
    122    123    132    134     1  0.0000000  0.6508444  3
    122    126    129    130     1  0.0000000  0.6508444  3
    122    126    129    131     1  0.0000000  0.6508444  3
    123    122    126    127     1  0.0000000  1.2552000  3
    123    122    126    128     1  0.0000000  1.2552000  3
    124    123    122    126     1  0.0000000  1.2552000  3
    124    123    132    136     1  0.0000000  0.6508444  3
    124    123    132    133     1  0.0000000  0.6508444  3
    124    123    132    134     1  0.0000000  0.6508444  3
    125    123    122    126     1  0.0000000  1.2552000  3
    125    123    132    136     1  0.0000000  0.6508444  3
    125    123    132    133     1  0.0000000  0.6508444  3
    125    123    132    134     1  0.0000000  0.6508444  3
    127    126    129    135     1  0.0000000  0.6508444  3
    127    126    129    130     1  0.0000000  0.6508444  3
    127    126    129    131     1  0.0000000  0.6508444  3
    128    126    129    135     1  0.0000000  0.6508444  3
    128    126    129    130     1  0.0000000  0.6508444  3
    128    126    129    131     1  0.0000000  0.6508444  3
    129    135    314    315     1  180.0000771  10.4600000  2
    130    129    135    137     1  0.0000000  3.3472000  1
    130    129    135    137     1  0.0000000  0.0000000  2
    130    129    135    137     1  180.0000771  0.3347200  3
    130    129    135    314     1  180.0000771  0.0000000  2
    131    129    135    137     1  0.0000000  3.3472000  1
    131    129    135    137     1  0.0000000  0.0000000  2
    131    129    135    137     1  180.0000771  0.3347200  3
    131    129    135    314     1  180.0000771  0.0000000  2
    132    136    339    340     1  180.0000771  10.4600000  2
    133    132    136    138     1  0.0000000  3.3472000  1
    133    132    136    138     1  0.0000000  0.0000000  2
    133    132    136    138     1  180.0000771  0.3347200  3
    133    132    136    339     1  180.0000771  0.0000000  2
    134    132    136    138     1  0.0000000  3.3472000  1
    134    132    136    138     1  0.0000000  0.0000000  2
    134    132    136    138     1  180.0000771  0.3347200  3
    134    132    136    339     1  180.0000771  0.0000000  2
    135    314    294    295     1  0.0000000  0.0000000  2
    135    314    294    296     1  0.0000000  0.0000000  2
    136    339    319    320     1  0.0000000  0.0000000  2
    136    339    319    321     1  0.0000000  0.0000000  2
    137    135    314    315     1  0.0000000  8.3680000  1
    137    135    314    315     1  180.0000771  10.4600000  2
    138    136    339    340     1  0.0000000  8.3680000  1
    138    136    339    340     1  180.0000771  10.4600000  2
    141    144    164    165     1  0.0000000  0.0000000  2
    141    147    148    149     1  0.0000000  1.2552000  3
    141    147    148    150     1  0.0000000  1.2552000  3
    141    147    151    152     1  0.0000000  1.2552000  3
    141    147    151    153     1  0.0000000  1.2552000  3
    142    141    144    164     1  0.0000000  0.6508444  3
    142    141    144    145     1  0.0000000  0.6508444  3
    142    141    144    146     1  0.0000000  0.6508444  3
    142    141    147    148     1  0.0000000  1.2552000  3
    142    141    147    151     1  0.0000000  1.2552000  3
    143    141    144    164     1  0.0000000  0.6508444  3
    143    141    144    145     1  0.0000000  0.6508444  3
    143    141    144    146     1  0.0000000  0.6508444  3
    143    141    147    148     1  0.0000000  1.2552000  3
    143    141    147    151     1  0.0000000  1.2552000  3
    145    144    141    147     1  0.0000000  0.6508444  3
    145    144    164    165     1  0.0000000  0.0000000  2
    146    144    141    147     1  0.0000000  0.6508444  3
    146    144    164    165     1  0.0000000  0.0000000  2
    147    148    157    158     1  0.0000000  0.6508444  3
    147    148    157    159     1  0.0000000  0.6508444  3
    147    151    154    155     1  0.0000000  0.6508444  3
    147    151    154    156     1  0.0000000  0.6508444  3
    148    147    151    152     1  0.0000000  1.2552000  3
    148    147    151    153     1  0.0000000  1.2552000  3
    149    148    147    151     1  0.0000000  1.2552000  3
    149    148    157    161     1  0.0000000  0.6508444  3
    149    148    157    158     1  0.0000000  0.6508444  3
    149    148    157    159     1  0.0000000  0.6508444  3
    150    148    147    151     1  0.0000000  1.2552000  3
    150    148    157    161     1  0.0000000  0.6508444  3
    150    148    157    158     1  0.0000000  0.6508444  3
    150    148    157    159     1  0.0000000  0.6508444  3
    152    151    154    160     1  0.0000000  0.6508444  3
    152    151    154    155     1  0.0000000  0.6508444  3
    152    151    154    156     1  0.0000000  0.6508444  3
    153    151    154    160     1  0.0000000  0.6508444  3
    153    151    154    155     1  0.0000000  0.6508444  3
    153    151    154    156     1  0.0000000  0.6508444  3
    154    160    341    342     1  180.0000771  10.4600000  2
    155    154    160    341     1  180.0000771  0.0000000  2
    155    154    160    162     1  0.0000000  3.3472000  1
    155    154    160    162     1  0.0000000  0.0000000  2
    155    154    160    162     1  180.0000771  0.3347200  3
    156    154    160    341     1  180.0000771  0.0000000  2
    156    154    160    162     1  0.0000000  3.3472000  1
    156    154    160    162     1  0.0000000  0.0000000  2
    156    154    160    162     1  180.0000771  0.3347200  3
    157    161    368    369     1  180.0000771  10.4600000  2
    158    157    161    163     1  0.0000000  3.3472000  1
    158    157    161    163     1  0.0000000  0.0000000  2
    158    157    161    163     1  180.0000771  0.3347200  3
    158    157    161    368     1  180.0000771  0.0000000  2
    159    157    161    163     1  0.0000000  3.3472000  1
    159    157    161    163     1  0.0000000  0.0000000  2
    159    157    161    163     1  180.0000771  0.3347200  3
    159    157    161    368     1  180.0000771  0.0000000  2
    160    341    343    344     1  0.0000000  0.0000000  2
    160    341    343    346     1  0.0000000  0.0000000  2
    161    368    370    371     1  0.0000000  0.0000000  2
    161    368    370    373     1  0.0000000  0.0000000  2
    162    160    341    342     1  0.0000000  8.3680000  1
    162    160    341    342     1  180.0000771  10.4600000  2
    163    161    368    369     1  0.0000000  8.3680000  1
    163    161    368    369     1  180.0000771  10.4600000  2
    166    169    189    190     1  0.0000000  0.0000000  2
    166    172    173    174     1  0.0000000  1.2552000  3
    166    172    173    175     1  0.0000000  1.2552000  3
    166    172    176    177     1  0.0000000  1.2552000  3
    166    172    176    178     1  0.0000000  1.2552000  3
    167    166    169    189     1  0.0000000  0.6508444  3
    167    166    169    170     1  0.0000000  0.6508444  3
    167    166    169    171     1  0.0000000  0.6508444  3
    167    166    172    173     1  0.0000000  1.2552000  3
    167    166    172    176     1  0.0000000  1.2552000  3
    168    166    169    189     1  0.0000000  0.6508444  3
    168    166    169    170     1  0.0000000  0.6508444  3
    168    166    169    171     1  0.0000000  0.6508444  3
    168    166    172    173     1  0.0000000  1.2552000  3
    168    166    172    176     1  0.0000000  1.2552000  3
    170    169    166    172     1  0.0000000  0.6508444  3
    170    169    189    190     1  0.0000000  0.0000000  2
    171    169    166    172     1  0.0000000  0.6508444  3
    171    169    189    190     1  0.0000000  0.0000000  2
    172    173    182    183     1  0.0000000  0.6508444  3
    172    173    182    184     1  0.0000000  0.6508444  3
    172    176    179    180     1  0.0000000  0.6508444  3
    172    176    179    181     1  0.0000000  0.6508444  3
    173    172    176    177     1  0.0000000  1.2552000  3
    173    172    176    178     1  0.0000000  1.2552000  3
    174    173    172    176     1  0.0000000  1.2552000  3
    174    173    182    186     1  0.0000000  0.6508444  3
    174    173    182    183     1  0.0000000  0.6508444  3
    174    173    182    184     1  0.0000000  0.6508444  3
    175    173    172    176     1  0.0000000  1.2552000  3
    175    173    182    186     1  0.0000000  0.6508444  3
    175    173    182    183     1  0.0000000  0.6508444  3
    175    173    182    184     1  0.0000000  0.6508444  3
    177    176    179    185     1  0.0000000  0.6508444  3
    177    176    179    180     1  0.0000000  0.6508444  3
    177    176    179    181     1  0.0000000  0.6508444  3
    178    176    179    185     1  0.0000000  0.6508444  3
    178    176    179    180     1  0.0000000  0.6508444  3
    178    176    179    181     1  0.0000000  0.6508444  3
    179    185    395    396     1  180.0000771  10.4600000  2
    180    179    185    395     1  180.0000771  0.0000000  2
    180    179    185    187     1  0.0000000  3.3472000  1
    180    179    185    187     1  0.0000000  0.0000000  2
    180    179    185    187     1  180.0000771  0.3347200  3
    181    179    185    395     1  180.0000771  0.0000000  2
    181    179    185    187     1  0.0000000  3.3472000  1
    181    179    185    187     1  0.0000000  0.0000000  2
    181    179    185    187     1  180.0000771  0.3347200  3
    182    186    422    423     1  180.0000771  10.4600000  2
    183    182    186    188     1  0.0000000  3.3472000  1
    183    182    186    188     1  0.0000000  0.0000000  2
    183    182    186    188     1  180.0000771  0.3347200  3
    183    182    186    422     1  180.0000771  0.0000000  2
    184    182    186    188     1  0.0000000  3.3472000  1
    184    182    186    188     1  0.0000000  0.0000000  2
    184    182    186    188     1  180.0000771  0.3347200  3
    184    182    186    422     1  180.0000771  0.0000000  2
    185    395    397    398     1  0.0000000  0.0000000  2
    185    395    397    400     1  0.0000000  0.0000000  2
    186    422    424    425     1  0.0000000  0.0000000  2
    186    422    424    427     1  0.0000000  0.0000000  2
    187    185    395    396     1  0.0000000  8.3680000  1
    187    185    395    396     1  180.0000771  10.4600000  2
    188    186    422    423     1  0.0000000  8.3680000  1
    188    186    422    423     1  180.0000771  10.4600000  2
    191    194    214    215     1  0.0000000  0.0000000  2
    191    197    198    199     1  0.0000000  1.2552000  3
    191    197    198    200     1  0.0000000  1.2552000  3
    191    197    201    202     1  0.0000000  1.2552000  3
    191    197    201    203     1  0.0000000  1.2552000  3
    192    191    194    214     1  0.0000000  0.6508444  3
    192    191    194    195     1  0.0000000  0.6508444  3
    192    191    194    196     1  0.0000000  0.6508444  3
    192    191    197    198     1  0.0000000  1.2552000  3
    192    191    197    201     1  0.0000000  1.2552000  3
    193    191    194    214     1  0.0000000  0.6508444  3
    193    191    194    195     1  0.0000000  0.6508444  3
    193    191    194    196     1  0.0000000  0.6508444  3
    193    191    197    198     1  0.0000000  1.2552000  3
    193    191    197    201     1  0.0000000  1.2552000  3
    195    194    191    197     1  0.0000000  0.6508444  3
    195    194    214    215     1  0.0000000  0.0000000  2
    196    194    191    197     1  0.0000000  0.6508444  3
    196    194    214    215     1  0.0000000  0.0000000  2
    197    198    207    208     1  0.0000000  0.6508444  3
    197    198    207    209     1  0.0000000  0.6508444  3
    197    201    204    205     1  0.0000000  0.6508444  3
    197    201    204    206     1  0.0000000  0.6508444  3
    198    197    201    202     1  0.0000000  1.2552000  3
    198    197    201    203     1  0.0000000  1.2552000  3
    199    198    197    201     1  0.0000000  1.2552000  3
    199    198    207    211     1  0.0000000  0.6508444  3
    199    198    207    208     1  0.0000000  0.6508444  3
    199    198    207    209     1  0.0000000  0.6508444  3
    200    198    197    201     1  0.0000000  1.2552000  3
    200    198    207    211     1  0.0000000  0.6508444  3
    200    198    207    208     1  0.0000000  0.6508444  3
    200    198    207    209     1  0.0000000  0.6508444  3
    202    201    204    210     1  0.0000000  0.6508444  3
    202    201    204    205     1  0.0000000  0.6508444  3
    202    201    204    206     1  0.0000000  0.6508444  3
    203    201    204    210     1  0.0000000  0.6508444  3
    203    201    204    205     1  0.0000000  0.6508444  3
    203    201    204    206     1  0.0000000  0.6508444  3
    204    210    449    450     1  180.0000771  10.4600000  2
    205    204    210    449     1  180.0000771  0.0000000  2
    205    204    210    212     1  0.0000000  3.3472000  1
    205    204    210    212     1  0.0000000  0.0000000  2
    205    204    210    212     1  180.0000771  0.3347200  3
    206    204    210    449     1  180.0000771  0.0000000  2
    206    204    210    212     1  0.0000000  3.3472000  1
    206    204    210    212     1  0.0000000  0.0000000  2
    206    204    210    212     1  180.0000771  0.3347200  3
    207    211    476    477     1  180.0000771  10.4600000  2
    208    207    211    213     1  0.0000000  3.3472000  1
    208    207    211    213     1  0.0000000  0.0000000  2
    208    207    211    213     1  180.0000771  0.3347200  3
    208    207    211    476     1  180.0000771  0.0000000  2
    209    207    211    213     1  0.0000000  3.3472000  1
    209    207    211    213     1  0.0000000  0.0000000  2
    209    207    211    213     1  180.0000771  0.3347200  3
    209    207    211    476     1  180.0000771  0.0000000  2
    210    449    451    452     1  0.0000000  0.0000000  2
    210    449    451    454     1  0.0000000  0.0000000  2
    211    476    478    479     1  0.0000000  0.0000000  2
    211    476    478    481     1  0.0000000  0.0000000  2
    212    210    449    450     1  0.0000000  8.3680000  1
    212    210    449    450     1  180.0000771  10.4600000  2
    213    211    476    477     1  0.0000000  8.3680000  1
    213    211    476    477     1  180.0000771  10.4600000  2
    216    219    239    240     1  0.0000000  0.0000000  2
    216    222    223    224     1  0.0000000  1.2552000  3
    216    222    223    225     1  0.0000000  1.2552000  3
    216    222    226    227     1  0.0000000  1.2552000  3
    216    222    226    228     1  0.0000000  1.2552000  3
    217    216    219    239     1  0.0000000  0.6508444  3
    217    216    219    220     1  0.0000000  0.6508444  3
    217    216    219    221     1  0.0000000  0.6508444  3
    217    216    222    223     1  0.0000000  1.2552000  3
    217    216    222    226     1  0.0000000  1.2552000  3
    218    216    219    239     1  0.0000000  0.6508444  3
    218    216    219    220     1  0.0000000  0.6508444  3
    218    216    219    221     1  0.0000000  0.6508444  3
    218    216    222    223     1  0.0000000  1.2552000  3
    218    216    222    226     1  0.0000000  1.2552000  3
    220    219    216    222     1  0.0000000  0.6508444  3
    220    219    239    240     1  0.0000000  0.0000000  2
    221    219    216    222     1  0.0000000  0.6508444  3
    221    219    239    240     1  0.0000000  0.0000000  2
    222    223    232    233     1  0.0000000  0.6508444  3
    222    223    232    234     1  0.0000000  0.6508444  3
    222    226    229    230     1  0.0000000  0.6508444  3
    222    226    229    231     1  0.0000000  0.6508444  3
    223    222    226    227     1  0.0000000  1.2552000  3
    223    222    226    228     1  0.0000000  1.2552000  3
    224    223    222    226     1  0.0000000  1.2552000  3
    224    223    232    236     1  0.0000000  0.6508444  3
    224    223    232    233     1  0.0000000  0.6508444  3
    224    223    232    234     1  0.0000000  0.6508444  3
    225    223    222    226     1  0.0000000  1.2552000  3
    225    223    232    236     1  0.0000000  0.6508444  3
    225    223    232    233     1  0.0000000  0.6508444  3
    225    223    232    234     1  0.0000000  0.6508444  3
    227    226    229    235     1  0.0000000  0.6508444  3
    227    226    229    230     1  0.0000000  0.6508444  3
    227    226    229    231     1  0.0000000  0.6508444  3
    228    226    229    235     1  0.0000000  0.6508444  3
    228    226    229    230     1  0.0000000  0.6508444  3
    228    226    229    231     1  0.0000000  0.6508444  3
    229    235    503    504     1  180.0000771  10.4600000  2
    230    229    235    503     1  180.0000771  0.0000000  2
    230    229    235    237     1  0.0000000  3.3472000  1
    230    229    235    237     1  0.0000000  0.0000000  2
    230    229    235    237     1  180.0000771  0.3347200  3
    231    229    235    503     1  180.0000771  0.0000000  2
    231    229    235    237     1  0.0000000  3.3472000  1
    231    229    235    237     1  0.0000000  0.0000000  2
    231    229    235    237     1  180.0000771  0.3347200  3
    232    236    530    531     1  180.0000771  10.4600000  2
    233    232    236    238     1  0.0000000  3.3472000  1
    233    232    236    238     1  0.0000000  0.0000000  2
    233    232    236    238     1  180.0000771  0.3347200  3
    233    232    236    530     1  180.0000771  0.0000000  2
    234    232    236    238     1  0.0000000  3.3472000  1
    234    232    236    238     1  0.0000000  0.0000000  2
    234    232    236    238     1  180.0000771  0.3347200  3
    234    232    236    530     1  180.0000771  0.0000000  2
    235    503    505    506     1  0.0000000  0.0000000  2
    235    503    505    508     1  0.0000000  0.0000000  2
    236    530    532    533     1  0.0000000  0.0000000  2
    236    530    532    535     1  0.0000000  0.0000000  2
    237    235    503    504     1  0.0000000  8.3680000  1
    237    235    503    504     1  180.0000771  10.4600000  2
    238    236    530    531     1  0.0000000  8.3680000  1
    238    236    530    531     1  180.0000771  10.4600000  2
    241    244    264    265     1  0.0000000  0.0000000  2
    241    247    248    249     1  0.0000000  1.2552000  3
    241    247    248    250     1  0.0000000  1.2552000  3
    241    247    251    252     1  0.0000000  1.2552000  3
    241    247    251    253     1  0.0000000  1.2552000  3
    242    241    244    264     1  0.0000000  0.6508444  3
    242    241    244    245     1  0.0000000  0.6508444  3
    242    241    244    246     1  0.0000000  0.6508444  3
    242    241    247    248     1  0.0000000  1.2552000  3
    242    241    247    251     1  0.0000000  1.2552000  3
    243    241    244    264     1  0.0000000  0.6508444  3
    243    241    244    245     1  0.0000000  0.6508444  3
    243    241    244    246     1  0.0000000  0.6508444  3
    243    241    247    248     1  0.0000000  1.2552000  3
    243    241    247    251     1  0.0000000  1.2552000  3
    245    244    241    247     1  0.0000000  0.6508444  3
    245    244    264    265     1  0.0000000  0.0000000  2
    246    244    241    247     1  0.0000000  0.6508444  3
    246    244    264    265     1  0.0000000  0.0000000  2
    247    248    257    258     1  0.0000000  0.6508444  3
    247    248    257    259     1  0.0000000  0.6508444  3
    247    251    254    255     1  0.0000000  0.6508444  3
    247    251    254    256     1  0.0000000  0.6508444  3
    248    247    251    252     1  0.0000000  1.2552000  3
    248    247    251    253     1  0.0000000  1.2552000  3
    249    248    247    251     1  0.0000000  1.2552000  3
    249    248    257    261     1  0.0000000  0.6508444  3
    249    248    257    258     1  0.0000000  0.6508444  3
    249    248    257    259     1  0.0000000  0.6508444  3
    250    248    247    251     1  0.0000000  1.2552000  3
    250    248    257    261     1  0.0000000  0.6508444  3
    250    248    257    258     1  0.0000000  0.6508444  3
    250    248    257    259     1  0.0000000  0.6508444  3
    252    251    254    260     1  0.0000000  0.6508444  3
    252    251    254    255     1  0.0000000  0.6508444  3
    252    251    254    256     1  0.0000000  0.6508444  3
    253    251    254    260     1  0.0000000  0.6508444  3
    253    251    254    255     1  0.0000000  0.6508444  3
    253    251    254    256     1  0.0000000  0.6508444  3
    254    260    557    558     1  180.0000771  10.4600000  2
    255    254    260    557     1  180.0000771  0.0000000  2
    255    254    260    262     1  0.0000000  3.3472000  1
    255    254    260    262     1  0.0000000  0.0000000  2
    255    254    260    262     1  180.0000771  0.3347200  3
    256    254    260    557     1  180.0000771  0.0000000  2
    256    254    260    262     1  0.0000000  3.3472000  1
    256    254    260    262     1  0.0000000  0.0000000  2
    256    254    260    262     1  180.0000771  0.3347200  3
    257    261    584    585     1  180.0000771  10.4600000  2
    258    257    261    263     1  0.0000000  3.3472000  1
    258    257    261    263     1  0.0000000  0.0000000  2
    258    257    261    263     1  180.0000771  0.3347200  3
    258    257    261    584     1  180.0000771  0.0000000  2
    259    257    261    263     1  0.0000000  3.3472000  1
    259    257    261    263     1  0.0000000  0.0000000  2
    259    257    261    263     1  180.0000771  0.3347200  3
    259    257    261    584     1  180.0000771  0.0000000  2
    260    557    559    560     1  0.0000000  0.0000000  2
    260    557    559    562     1  0.0000000  0.0000000  2
    261    584    586    587     1  0.0000000  0.0000000  2
    261    584    586    589     1  0.0000000  0.0000000  2
    262    260    557    558     1  0.0000000  8.3680000  1
    262    260    557    558     1  180.0000771  10.4600000  2
    263    261    584    585     1  0.0000000  8.3680000  1
    263    261    584    585     1  180.0000771  10.4600000  2
    266    269    289    290     1  0.0000000  0.0000000  2
    266    272    273    274     1  0.0000000  1.2552000  3
    266    272    273    275     1  0.0000000  1.2552000  3
    266    272    276    277     1  0.0000000  1.2552000  3
    266    272    276    278     1  0.0000000  1.2552000  3
    267    266    269    289     1  0.0000000  0.6508444  3
    267    266    269    270     1  0.0000000  0.6508444  3
    267    266    269    271     1  0.0000000  0.6508444  3
    267    266    272    273     1  0.0000000  1.2552000  3
    267    266    272    276     1  0.0000000  1.2552000  3
    268    266    269    289     1  0.0000000  0.6508444  3
    268    266    269    270     1  0.0000000  0.6508444  3
    268    266    269    271     1  0.0000000  0.6508444  3
    268    266    272    273     1  0.0000000  1.2552000  3
    268    266    272    276     1  0.0000000  1.2552000  3
    270    269    266    272     1  0.0000000  0.6508444  3
    270    269    289    290     1  0.0000000  0.0000000  2
    271    269    266    272     1  0.0000000  0.6508444  3
    271    269    289    290     1  0.0000000  0.0000000  2
    272    273    282    283     1  0.0000000  0.6508444  3
    272    273    282    284     1  0.0000000  0.6508444  3
    272    276    279    280     1  0.0000000  0.6508444  3
    272    276    279    281     1  0.0000000  0.6508444  3
    273    272    276    277     1  0.0000000  1.2552000  3
    273    272    276    278     1  0.0000000  1.2552000  3
    274    273    272    276     1  0.0000000  1.2552000  3
    274    273    282    286     1  0.0000000  0.6508444  3
    274    273    282    283     1  0.0000000  0.6508444  3
    274    273    282    284     1  0.0000000  0.6508444  3
    275    273    272    276     1  0.0000000  1.2552000  3
    275    273    282    286     1  0.0000000  0.6508444  3
    275    273    282    283     1  0.0000000  0.6508444  3
    275    273    282    284     1  0.0000000  0.6508444  3
    277    276    279    285     1  0.0000000  0.6508444  3
    277    276    279    280     1  0.0000000  0.6508444  3
    277    276    279    281     1  0.0000000  0.6508444  3
    278    276    279    285     1  0.0000000  0.6508444  3
    278    276    279    280     1  0.0000000  0.6508444  3
    278    276    279    281     1  0.0000000  0.6508444  3
    279    285    611    612     1  180.0000771  10.4600000  2
    280    279    285    611     1  180.0000771  0.0000000  2
    280    279    285    287     1  0.0000000  3.3472000  1
    280    279    285    287     1  0.0000000  0.0000000  2
    280    279    285    287     1  180.0000771  0.3347200  3
    281    279    285    611     1  180.0000771  0.0000000  2
    281    279    285    287     1  0.0000000  3.3472000  1
    281    279    285    287     1  0.0000000  0.0000000  2
    281    279    285    287     1  180.0000771  0.3347200  3
    282    286    638    639     1  180.0000771  10.4600000  2
    283    282    286    288     1  0.0000000  3.3472000  1
    283    282    286    288     1  0.0000000  0.0000000  2
    283    282    286    288     1  180.0000771  0.3347200  3
    283    282    286    638     1  180.0000771  0.0000000  2
    284    282    286    288     1  0.0000000  3.3472000  1
    284    282    286    288     1  0.0000000  0.0000000  2
    284    282    286    288     1  180.0000771  0.3347200  3
    284    282    286    638     1  180.0000771  0.0000000  2
    285    611    613    614     1  0.0000000  0.0000000  2
    285    611    613    616     1  0.0000000  0.0000000  2
    286    638    640    641     1  0.0000000  0.0000000  2
    286    638    640    643     1  0.0000000  0.0000000  2
    287    285    611    612     1  0.0000000  8.3680000  1
    287    285    611    612     1  180.0000771  10.4600000  2
    288    286    638    639     1  0.0000000  8.3680000  1
    288    286    638    639     1  180.0000771  10.4600000  2
    291    294    314    315     1  0.0000000  0.0000000  2
    291    297    298    299     1  0.0000000  1.2552000  3
    291    297    298    300     1  0.0000000  1.2552000  3
    291    297    301    302     1  0.0000000  1.2552000  3
    291    297    301    303     1  0.0000000  1.2552000  3
    292    291    294    314     1  0.0000000  0.6508444  3
    292    291    294    295     1  0.0000000  0.6508444  3
    292    291    294    296     1  0.0000000  0.6508444  3
    292    291    297    298     1  0.0000000  1.2552000  3
    292    291    297    301     1  0.0000000  1.2552000  3
    293    291    294    314     1  0.0000000  0.6508444  3
    293    291    294    295     1  0.0000000  0.6508444  3
    293    291    294    296     1  0.0000000  0.6508444  3
    293    291    297    298     1  0.0000000  1.2552000  3
    293    291    297    301     1  0.0000000  1.2552000  3
    295    294    291    297     1  0.0000000  0.6508444  3
    295    294    314    315     1  0.0000000  0.0000000  2
    296    294    291    297     1  0.0000000  0.6508444  3
    296    294    314    315     1  0.0000000  0.0000000  2
    297    298    307    308     1  0.0000000  0.6508444  3
    297    298    307    309     1  0.0000000  0.6508444  3
    297    301    304    305     1  0.0000000  0.6508444  3
    297    301    304    306     1  0.0000000  0.6508444  3
    298    297    301    302     1  0.0000000  1.2552000  3
    298    297    301    303     1  0.0000000  1.2552000  3
    299    298    297    301     1  0.0000000  1.2552000  3
    299    298    307    311     1  0.0000000  0.6508444  3
    299    298    307    308     1  0.0000000  0.6508444  3
    299    298    307    309     1  0.0000000  0.6508444  3
    300    298    297    301     1  0.0000000  1.2552000  3
    300    298    307    311     1  0.0000000  0.6508444  3
    300    298    307    308     1  0.0000000  0.6508444  3
    300    298    307    309     1  0.0000000  0.6508444  3
    302    301    304    310     1  0.0000000  0.6508444  3
    302    301    304    305     1  0.0000000  0.6508444  3
    302    301    304    306     1  0.0000000  0.6508444  3
    303    301    304    310     1  0.0000000  0.6508444  3
    303    301    304    305     1  0.0000000  0.6508444  3
    303    301    304    306     1  0.0000000  0.6508444  3
    304    310    665    666     1  180.0000771  10.4600000  2
    305    304    310    665     1  180.0000771  0.0000000  2
    305    304    310    312     1  0.0000000  3.3472000  1
    305    304    310    312     1  0.0000000  0.0000000  2
    305    304    310    312     1  180.0000771  0.3347200  3
    306    304    310    665     1  180.0000771  0.0000000  2
    306    304    310    312     1  0.0000000  3.3472000  1
    306    304    310    312     1  0.0000000  0.0000000  2
    306    304    310    312     1  180.0000771  0.3347200  3
    307    311    692    693     1  180.0000771  10.4600000  2
    308    307    311    313     1  0.0000000  3.3472000  1
    308    307    311    313     1  0.0000000  0.0000000  2
    308    307    311    313     1  180.0000771  0.3347200  3
    308    307    311    692     1  180.0000771  0.0000000  2
    309    307    311    313     1  0.0000000  3.3472000  1
    309    307    311    313     1  0.0000000  0.0000000  2
    309    307    311    313     1  180.0000771  0.3347200  3
    309    307    311    692     1  180.0000771  0.0000000  2
    310    665    667    668     1  0.0000000  0.0000000  2
    310    665    667    670     1  0.0000000  0.0000000  2
    311    692    694    695     1  0.0000000  0.0000000  2
    311    692    694    697     1  0.0000000  0.0000000  2
    312    310    665    666     1  0.0000000  8.3680000  1
    312    310    665    666     1  180.0000771  10.4600000  2
    313    311    692    693     1  0.0000000  8.3680000  1
    313    311    692    693     1  180.0000771  10.4600000  2
    316    319    339    340     1  0.0000000  0.0000000  2
    316    322    323    324     1  0.0000000  1.2552000  3
    316    322    323    325     1  0.0000000  1.2552000  3
    316    322    326    327     1  0.0000000  1.2552000  3
    316    322    326    328     1  0.0000000  1.2552000  3
    317    316    319    339     1  0.0000000  0.6508444  3
    317    316    319    320     1  0.0000000  0.6508444  3
    317    316    319    321     1  0.0000000  0.6508444  3
    317    316    322    323     1  0.0000000  1.2552000  3
    317    316    322    326     1  0.0000000  1.2552000  3
    318    316    319    339     1  0.0000000  0.6508444  3
    318    316    319    320     1  0.0000000  0.6508444  3
    318    316    319    321     1  0.0000000  0.6508444  3
    318    316    322    323     1  0.0000000  1.2552000  3
    318    316    322    326     1  0.0000000  1.2552000  3
    320    319    316    322     1  0.0000000  0.6508444  3
    320    319    339    340     1  0.0000000  0.0000000  2
    321    319    316    322     1  0.0000000  0.6508444  3
    321    319    339    340     1  0.0000000  0.0000000  2
    322    323    332    333     1  0.0000000  0.6508444  3
    322    323    332    334     1  0.0000000  0.6508444  3
    322    326    329    330     1  0.0000000  0.6508444  3
    322    326    329    331     1  0.0000000  0.6508444  3
    323    322    326    327     1  0.0000000  1.2552000  3
    323    322    326    328     1  0.0000000  1.2552000  3
    324    323    322    326     1  0.0000000  1.2552000  3
    324    323    332    336     1  0.0000000  0.6508444  3
    324    323    332    333     1  0.0000000  0.6508444  3
    324    323    332    334     1  0.0000000  0.6508444  3
    325    323    322    326     1  0.0000000  1.2552000  3
    325    323    332    336     1  0.0000000  0.6508444  3
    325    323    332    333     1  0.0000000  0.6508444  3
    325    323    332    334     1  0.0000000  0.6508444  3
    327    326    329    335     1  0.0000000  0.6508444  3
    327    326    329    330     1  0.0000000  0.6508444  3
    327    326    329    331     1  0.0000000  0.6508444  3
    328    326    329    335     1  0.0000000  0.6508444  3
    328    326    329    330     1  0.0000000  0.6508444  3
    328    326    329    331     1  0.0000000  0.6508444  3
    329    335    719    720     1  180.0000771  10.4600000  2
    330    329    335    719     1  180.0000771  0.0000000  2
    330    329    335    337     1  0.0000000  3.3472000  1
    330    329    335    337     1  0.0000000  0.0000000  2
    330    329    335    337     1  180.0000771  0.3347200  3
    331    329    335    719     1  180.0000771  0.0000000  2
    331    329    335    337     1  0.0000000  3.3472000  1
    331    329    335    337     1  0.0000000  0.0000000  2
    331    329    335    337     1  180.0000771  0.3347200  3
    332    336    746    747     1  180.0000771  10.4600000  2
    333    332    336    746     1  180.0000771  0.0000000  2
    333    332    336    338     1  0.0000000  3.3472000  1
    333    332    336    338     1  0.0000000  0.0000000  2
    333    332    336    338     1  180.0000771  0.3347200  3
    334    332    336    746     1  180.0000771  0.0000000  2
    334    332    336    338     1  0.0000000  3.3472000  1
    334    332    336    338     1  0.0000000  0.0000000  2
    334    332    336    338     1  180.0000771  0.3347200  3
    335    719    721    722     1  0.0000000  0.0000000  2
    335    719    721    724     1  0.0000000  0.0000000  2
    336    746    748    749     1  0.0000000  0.0000000  2
    336    746    748    751     1  0.0000000  0.0000000  2
    337    335    719    720     1  0.0000000  8.3680000  1
    337    335    719    720     1  180.0000771  10.4600000  2
    338    336    746    747     1  0.0000000  8.3680000  1
    338    336    746    747     1  180.0000771  10.4600000  2
    341    343    345    347     1  0.0000000  0.6508444  3
    341    343    345    348     1  0.0000000  0.6508444  3
    342    341    343    345     1  0.0000000  0.0000000  2
    342    341    343    344     1  0.0000000  0.0000000  2
    342    341    343    346     1  0.0000000  0.0000000  2
    344    343    345    349     1  0.0000000  0.6508444  3
    344    343    345    347     1  0.0000000  0.6508444  3
    344    343    345    348     1  0.0000000  0.6508444  3
    345    349    350    360     1  0.0000000  1.2552000  3
    345    349    350    361     1  0.0000000  1.2552000  3
    345    349    351    352     1  0.0000000  1.2552000  3
    345    349    351    354     1  0.0000000  1.2552000  3
    346    343    345    349     1  0.0000000  0.6508444  3
    346    343    345    347     1  0.0000000  0.6508444  3
    346    343    345    348     1  0.0000000  0.6508444  3
    347    345    349    350     1  0.0000000  1.2552000  3
    347    345    349    351     1  0.0000000  1.2552000  3
    348    345    349    350     1  0.0000000  1.2552000  3
    348    345    349    351     1  0.0000000  1.2552000  3
    349    350    362    363     1  0.0000000  0.6508444  3
    349    350    362    364     1  0.0000000  0.6508444  3
    349    351    353    355     1  0.0000000  0.6508444  3
    349    351    353    356     1  0.0000000  0.6508444  3
    350    349    351    352     1  0.0000000  1.2552000  3
    350    349    351    354     1  0.0000000  1.2552000  3
    351    349    350    360     1  0.0000000  1.2552000  3
    351    349    350    361     1  0.0000000  1.2552000  3
    352    351    353    357     1  0.0000000  0.6508444  3
    352    351    353    355     1  0.0000000  0.6508444  3
    352    351    353    356     1  0.0000000  0.6508444  3
    354    351    353    357     1  0.0000000  0.6508444  3
    354    351    353    355     1  0.0000000  0.6508444  3
    354    351    353    356     1  0.0000000  0.6508444  3
    355    353    357    358     1  0.0000000  3.3472000  1
    355    353    357    358     1  0.0000000  0.0000000  2
    355    353    357    358     1  180.0000771  0.3347200  3
    355    353    357    359     1  0.0000000  3.3472000  1
    355    353    357    359     1  0.0000000  0.0000000  2
    355    353    357    359     1  180.0000771  0.3347200  3
    356    353    357    358     1  0.0000000  3.3472000  1
    356    353    357    358     1  0.0000000  0.0000000  2
    356    353    357    358     1  180.0000771  0.3347200  3
    356    353    357    359     1  0.0000000  3.3472000  1
    356    353    357    359     1  0.0000000  0.0000000  2
    356    353    357    359     1  180.0000771  0.3347200  3
    360    350    362    365     1  0.0000000  0.6508444  3
    360    350    362    363     1  0.0000000  0.6508444  3
    360    350    362    364     1  0.0000000  0.6508444  3
    361    350    362    365     1  0.0000000  0.6508444  3
    361    350    362    363     1  0.0000000  0.6508444  3
    361    350    362    364     1  0.0000000  0.6508444  3
    363    362    365    366     1  0.0000000  3.3472000  1
    363    362    365    366     1  0.0000000  0.0000000  2
    363    362    365    366     1  180.0000771  0.3347200  3
    363    362    365    367     1  0.0000000  3.3472000  1
    363    362    365    367     1  0.0000000  0.0000000  2
    363    362    365    367     1  180.0000771  0.3347200  3
    364    362    365    366     1  0.0000000  3.3472000  1
    364    362    365    366     1  0.0000000  0.0000000  2
    364    362    365    366     1  180.0000771  0.3347200  3
    364    362    365    367     1  0.0000000  3.3472000  1
    364    362    365    367     1  0.0000000  0.0000000  2
    364    362    365    367     1  180.0000771  0.3347200  3
    368    370    372    374     1  0.0000000  0.6508444  3
    368    370    372    375     1  0.0000000  0.6508444  3
    369    368    370    372     1  0.0000000  0.0000000  2
    369    368    370    371     1  0.0000000  0.0000000  2
    369    368    370    373     1  0.0000000  0.0000000  2
    371    370    372    376     1  0.0000000  0.6508444  3
    371    370    372    374     1  0.0000000  0.6508444  3
    371    370    372    375     1  0.0000000  0.6508444  3
    372    376    377    387     1  0.0000000  1.2552000  3
    372    376    377    388     1  0.0000000  1.2552000  3
    372    376    378    379     1  0.0000000  1.2552000  3
    372    376    378    381     1  0.0000000  1.2552000  3
    373    370    372    376     1  0.0000000  0.6508444  3
    373    370    372    374     1  0.0000000  0.6508444  3
    373    370    372    375     1  0.0000000  0.6508444  3
    374    372    376    377     1  0.0000000  1.2552000  3
    374    372    376    378     1  0.0000000  1.2552000  3
    375    372    376    377     1  0.0000000  1.2552000  3
    375    372    376    378     1  0.0000000  1.2552000  3
    376    377    389    390     1  0.0000000  0.6508444  3
    376    377    389    391     1  0.0000000  0.6508444  3
    376    378    380    382     1  0.0000000  0.6508444  3
    376    378    380    383     1  0.0000000  0.6508444  3
    377    376    378    379     1  0.0000000  1.2552000  3
    377    376    378    381     1  0.0000000  1.2552000  3
    378    376    377    387     1  0.0000000  1.2552000  3
    378    376    377    388     1  0.0000000  1.2552000  3
    379    378    380    384     1  0.0000000  0.6508444  3
    379    378    380    382     1  0.0000000  0.6508444  3
    379    378    380    383     1  0.0000000  0.6508444  3
    381    378    380    384     1  0.0000000  0.6508444  3
    381    378    380    382     1  0.0000000  0.6508444  3
    381    378    380    383     1  0.0000000  0.6508444  3
    382    380    384    385     1  0.0000000  3.3472000  1
    382    380    384    385     1  0.0000000  0.0000000  2
    382    380    384    385     1  180.0000771  0.3347200  3
    382    380    384    386     1  0.0000000  3.3472000  1
    382    380    384    386     1  0.0000000  0.0000000  2
    382    380    384    386     1  180.0000771  0.3347200  3
    383    380    384    385     1  0.0000000  3.3472000  1
    383    380    384    385     1  0.0000000  0.0000000  2
    383    380    384    385     1  180.0000771  0.3347200  3
    383    380    384    386     1  0.0000000  3.3472000  1
    383    380    384    386     1  0.0000000  0.0000000  2
    383    380    384    386     1  180.0000771  0.3347200  3
    387    377    389    392     1  0.0000000  0.6508444  3
    387    377    389    390     1  0.0000000  0.6508444  3
    387    377    389    391     1  0.0000000  0.6508444  3
    388    377    389    392     1  0.0000000  0.6508444  3
    388    377    389    390     1  0.0000000  0.6508444  3
    388    377    389    391     1  0.0000000  0.6508444  3
    390    389    392    393     1  0.0000000  3.3472000  1
    390    389    392    393     1  0.0000000  0.0000000  2
    390    389    392    393     1  180.0000771  0.3347200  3
    390    389    392    394     1  0.0000000  3.3472000  1
    390    389    392    394     1  0.0000000  0.0000000  2
    390    389    392    394     1  180.0000771  0.3347200  3
    391    389    392    393     1  0.0000000  3.3472000  1
    391    389    392    393     1  0.0000000  0.0000000  2
    391    389    392    393     1  180.0000771  0.3347200  3
    391    389    392    394     1  0.0000000  3.3472000  1
    391    389    392    394     1  0.0000000  0.0000000  2
    391    389    392    394     1  180.0000771  0.3347200  3
    395    397    399    401     1  0.0000000  0.6508444  3
    395    397    399    402     1  0.0000000  0.6508444  3
    396    395    397    399     1  0.0000000  0.0000000  2
    396    395    397    398     1  0.0000000  0.0000000  2
    396    395    397    400     1  0.0000000  0.0000000  2
    398    397    399    403     1  0.0000000  0.6508444  3
    398    397    399    401     1  0.0000000  0.6508444  3
    398    397    399    402     1  0.0000000  0.6508444  3
    399    403    404    414     1  0.0000000  1.2552000  3
    399    403    404    415     1  0.0000000  1.2552000  3
    399    403    405    406     1  0.0000000  1.2552000  3
    399    403    405    408     1  0.0000000  1.2552000  3
    400    397    399    403     1  0.0000000  0.6508444  3
    400    397    399    401     1  0.0000000  0.6508444  3
    400    397    399    402     1  0.0000000  0.6508444  3
    401    399    403    404     1  0.0000000  1.2552000  3
    401    399    403    405     1  0.0000000  1.2552000  3
    402    399    403    404     1  0.0000000  1.2552000  3
    402    399    403    405     1  0.0000000  1.2552000  3
    403    404    416    417     1  0.0000000  0.6508444  3
    403    404    416    418     1  0.0000000  0.6508444  3
    403    405    407    409     1  0.0000000  0.6508444  3
    403    405    407    410     1  0.0000000  0.6508444  3
    404    403    405    406     1  0.0000000  1.2552000  3
    404    403    405    408     1  0.0000000  1.2552000  3
    405    403    404    414     1  0.0000000  1.2552000  3
    405    403    404    415     1  0.0000000  1.2552000  3
    406    405    407    411     1  0.0000000  0.6508444  3
    406    405    407    409     1  0.0000000  0.6508444  3
    406    405    407    410     1  0.0000000  0.6508444  3
    408    405    407    411     1  0.0000000  0.6508444  3
    408    405    407    409     1  0.0000000  0.6508444  3
    408    405    407    410     1  0.0000000  0.6508444  3
    409    407    411    412     1  0.0000000  3.3472000  1
    409    407    411    412     1  0.0000000  0.0000000  2
    409    407    411    412     1  180.0000771  0.3347200  3
    409    407    411    413     1  0.0000000  3.3472000  1
    409    407    411    413     1  0.0000000  0.0000000  2
    409    407    411    413     1  180.0000771  0.3347200  3
    410    407    411    412     1  0.0000000  3.3472000  1
    410    407    411    412     1  0.0000000  0.0000000  2
    410    407    411    412     1  180.0000771  0.3347200  3
    410    407    411    413     1  0.0000000  3.3472000  1
    410    407    411    413     1  0.0000000  0.0000000  2
    410    407    411    413     1  180.0000771  0.3347200  3
    414    404    416    419     1  0.0000000  0.6508444  3
    414    404    416    417     1  0.0000000  0.6508444  3
    414    404    416    418     1  0.0000000  0.6508444  3
    415    404    416    419     1  0.0000000  0.6508444  3
    415    404    416    417     1  0.0000000  0.6508444  3
    415    404    416    418     1  0.0000000  0.6508444  3
    417    416    419    420     1  0.0000000  3.3472000  1
    417    416    419    420     1  0.0000000  0.0000000  2
    417    416    419    420     1  180.0000771  0.3347200  3
    417    416    419    421     1  0.0000000  3.3472000  1
    417    416    419    421     1  0.0000000  0.0000000  2
    417    416    419    421     1  180.0000771  0.3347200  3
    418    416    419    420     1  0.0000000  3.3472000  1
    418    416    419    420     1  0.0000000  0.0000000  2
    418    416    419    420     1  180.0000771  0.3347200  3
    418    416    419    421     1  0.0000000  3.3472000  1
    418    416    419    421     1  0.0000000  0.0000000  2
    418    416    419    421     1  180.0000771  0.3347200  3
    422    424    426    428     1  0.0000000  0.6508444  3
    422    424    426    429     1  0.0000000  0.6508444  3
    423    422    424    426     1  0.0000000  0.0000000  2
    423    422    424    425     1  0.0000000  0.0000000  2
    423    422    424    427     1  0.0000000  0.0000000  2
    425    424    426    430     1  0.0000000  0.6508444  3
    425    424    426    428     1  0.0000000  0.6508444  3
    425    424    426    429     1  0.0000000  0.6508444  3
    426    430    431    441     1  0.0000000  1.2552000  3
    426    430    431    442     1  0.0000000  1.2552000  3
    426    430    432    433     1  0.0000000  1.2552000  3
    426    430    432    435     1  0.0000000  1.2552000  3
    427    424    426    430     1  0.0000000  0.6508444  3
    427    424    426    428     1  0.0000000  0.6508444  3
    427    424    426    429     1  0.0000000  0.6508444  3
    428    426    430    431     1  0.0000000  1.2552000  3
    428    426    430    432     1  0.0000000  1.2552000  3
    429    426    430    431     1  0.0000000  1.2552000  3
    429    426    430    432     1  0.0000000  1.2552000  3
    430    431    443    444     1  0.0000000  0.6508444  3
    430    431    443    445     1  0.0000000  0.6508444  3
    430    432    434    436     1  0.0000000  0.6508444  3
    430    432    434    437     1  0.0000000  0.6508444  3
    431    430    432    433     1  0.0000000  1.2552000  3
    431    430    432    435     1  0.0000000  1.2552000  3
    432    430    431    441     1  0.0000000  1.2552000  3
    432    430    431    442     1  0.0000000  1.2552000  3
    433    432    434    438     1  0.0000000  0.6508444  3
    433    432    434    436     1  0.0000000  0.6508444  3
    433    432    434    437     1  0.0000000  0.6508444  3
    435    432    434    438     1  0.0000000  0.6508444  3
    435    432    434    436     1  0.0000000  0.6508444  3
    435    432    434    437     1  0.0000000  0.6508444  3
    436    434    438    439     1  0.0000000  3.3472000  1
    436    434    438    439     1  0.0000000  0.0000000  2
    436    434    438    439     1  180.0000771  0.3347200  3
    436    434    438    440     1  0.0000000  3.3472000  1
    436    434    438    440     1  0.0000000  0.0000000  2
    436    434    438    440     1  180.0000771  0.3347200  3
    437    434    438    439     1  0.0000000  3.3472000  1
    437    434    438    439     1  0.0000000  0.0000000  2
    437    434    438    439     1  180.0000771  0.3347200  3
    437    434    438    440     1  0.0000000  3.3472000  1
    437    434    438    440     1  0.0000000  0.0000000  2
    437    434    438    440     1  180.0000771  0.3347200  3
    441    431    443    446     1  0.0000000  0.6508444  3
    441    431    443    444     1  0.0000000  0.6508444  3
    441    431    443    445     1  0.0000000  0.6508444  3
    442    431    443    446     1  0.0000000  0.6508444  3
    442    431    443    444     1  0.0000000  0.6508444  3
    442    431    443    445     1  0.0000000  0.6508444  3
    444    443    446    447     1  0.0000000  3.3472000  1
    444    443    446    447     1  0.0000000  0.0000000  2
    444    443    446    447     1  180.0000771  0.3347200  3
    444    443    446    448     1  0.0000000  3.3472000  1
    444    443    446    448     1  0.0000000  0.0000000  2
    444    443    446    448     1  180.0000771  0.3347200  3
    445    443    446    447     1  0.0000000  3.3472000  1
    445    443    446    447     1  0.0000000  0.0000000  2
    445    443    446    447     1  180.0000771  0.3347200  3
    445    443    446    448     1  0.0000000  3.3472000  1
    445    443    446    448     1  0.0000000  0.0000000  2
    445    443    446    448     1  180.0000771  0.3347200  3
    449    451    453    455     1  0.0000000  0.6508444  3
    449    451    453    456     1  0.0000000  0.6508444  3
    450    449    451    453     1  0.0000000  0.0000000  2
    450    449    451    452     1  0.0000000  0.0000000  2
    450    449    451    454     1  0.0000000  0.0000000  2
    452    451    453    457     1  0.0000000  0.6508444  3
    452    451    453    455     1  0.0000000  0.6508444  3
    452    451    453    456     1  0.0000000  0.6508444  3
    453    457    458    468     1  0.0000000  1.2552000  3
    453    457    458    469     1  0.0000000  1.2552000  3
    453    457    459    460     1  0.0000000  1.2552000  3
    453    457    459    462     1  0.0000000  1.2552000  3
    454    451    453    457     1  0.0000000  0.6508444  3
    454    451    453    455     1  0.0000000  0.6508444  3
    454    451    453    456     1  0.0000000  0.6508444  3
    455    453    457    458     1  0.0000000  1.2552000  3
    455    453    457    459     1  0.0000000  1.2552000  3
    456    453    457    458     1  0.0000000  1.2552000  3
    456    453    457    459     1  0.0000000  1.2552000  3
    457    458    470    471     1  0.0000000  0.6508444  3
    457    458    470    472     1  0.0000000  0.6508444  3
    457    459    461    463     1  0.0000000  0.6508444  3
    457    459    461    464     1  0.0000000  0.6508444  3
    458    457    459    460     1  0.0000000  1.2552000  3
    458    457    459    462     1  0.0000000  1.2552000  3
    459    457    458    468     1  0.0000000  1.2552000  3
    459    457    458    469     1  0.0000000  1.2552000  3
    460    459    461    465     1  0.0000000  0.6508444  3
    460    459    461    463     1  0.0000000  0.6508444  3
    460    459    461    464     1  0.0000000  0.6508444  3
    462    459    461    465     1  0.0000000  0.6508444  3
    462    459    461    463     1  0.0000000  0.6508444  3
    462    459    461    464     1  0.0000000  0.6508444  3
    463    461    465    466     1  0.0000000  3.3472000  1
    463    461    465    466     1  0.0000000  0.0000000  2
    463    461    465    466     1  180.0000771  0.3347200  3
    463    461    465    467     1  0.0000000  3.3472000  1
    463    461    465    467     1  0.0000000  0.0000000  2
    463    461    465    467     1  180.0000771  0.3347200  3
    464    461    465    466     1  0.0000000  3.3472000  1
    464    461    465    466     1  0.0000000  0.0000000  2
    464    461    465    466     1  180.0000771  0.3347200  3
    464    461    465    467     1  0.0000000  3.3472000  1
    464    461    465    467     1  0.0000000  0.0000000  2
    464    461    465    467     1  180.0000771  0.3347200  3
    468    458    470    473     1  0.0000000  0.6508444  3
    468    458    470    471     1  0.0000000  0.6508444  3
    468    458    470    472     1  0.0000000  0.6508444  3
    469    458    470    473     1  0.0000000  0.6508444  3
    469    458    470    471     1  0.0000000  0.6508444  3
    469    458    470    472     1  0.0000000  0.6508444  3
    471    470    473    474     1  0.0000000  3.3472000  1
    471    470    473    474     1  0.0000000  0.0000000  2
    471    470    473    474     1  180.0000771  0.3347200  3
    471    470    473    475     1  0.0000000  3.3472000  1
    471    470    473    475     1  0.0000000  0.0000000  2
    471    470    473    475     1  180.0000771  0.3347200  3
    472    470    473    474     1  0.0000000  3.3472000  1
    472    470    473    474     1  0.0000000  0.0000000  2
    472    470    473    474     1  180.0000771  0.3347200  3
    472    470    473    475     1  0.0000000  3.3472000  1
    472    470    473    475     1  0.0000000  0.0000000  2
    472    470    473    475     1  180.0000771  0.3347200  3
    476    478    480    482     1  0.0000000  0.6508444  3
    476    478    480    483     1  0.0000000  0.6508444  3
    477    476    478    480     1  0.0000000  0.0000000  2
    477    476    478    479     1  0.0000000  0.0000000  2
    477    476    478    481     1  0.0000000  0.0000000  2
    479    478    480    484     1  0.0000000  0.6508444  3
    479    478    480    482     1  0.0000000  0.6508444  3
    479    478    480    483     1  0.0000000  0.6508444  3
    480    484    485    495     1  0.0000000  1.2552000  3
    480    484    485    496     1  0.0000000  1.2552000  3
    480    484    486    487     1  0.0000000  1.2552000  3
    480    484    486    489     1  0.0000000  1.2552000  3
    481    478    480    484     1  0.0000000  0.6508444  3
    481    478    480    482     1  0.0000000  0.6508444  3
    481    478    480    483     1  0.0000000  0.6508444  3
    482    480    484    485     1  0.0000000  1.2552000  3
    482    480    484    486     1  0.0000000  1.2552000  3
    483    480    484    485     1  0.0000000  1.2552000  3
    483    480    484    486     1  0.0000000  1.2552000  3
    484    485    497    498     1  0.0000000  0.6508444  3
    484    485    497    499     1  0.0000000  0.6508444  3
    484    486    488    490     1  0.0000000  0.6508444  3
    484    486    488    491     1  0.0000000  0.6508444  3
    485    484    486    487     1  0.0000000  1.2552000  3
    485    484    486    489     1  0.0000000  1.2552000  3
    486    484    485    495     1  0.0000000  1.2552000  3
    486    484    485    496     1  0.0000000  1.2552000  3
    487    486    488    492     1  0.0000000  0.6508444  3
    487    486    488    490     1  0.0000000  0.6508444  3
    487    486    488    491     1  0.0000000  0.6508444  3
    489    486    488    492     1  0.0000000  0.6508444  3
    489    486    488    490     1  0.0000000  0.6508444  3
    489    486    488    491     1  0.0000000  0.6508444  3
    490    488    492    493     1  0.0000000  3.3472000  1
    490    488    492    493     1  0.0000000  0.0000000  2
    490    488    492    493     1  180.0000771  0.3347200  3
    490    488    492    494     1  0.0000000  3.3472000  1
    490    488    492    494     1  0.0000000  0.0000000  2
    490    488    492    494     1  180.0000771  0.3347200  3
    491    488    492    493     1  0.0000000  3.3472000  1
    491    488    492    493     1  0.0000000  0.0000000  2
    491    488    492    493     1  180.0000771  0.3347200  3
    491    488    492    494     1  0.0000000  3.3472000  1
    491    488    492    494     1  0.0000000  0.0000000  2
    491    488    492    494     1  180.0000771  0.3347200  3
    495    485    497    500     1  0.0000000  0.6508444  3
    495    485    497    498     1  0.0000000  0.6508444  3
    495    485    497    499     1  0.0000000  0.6508444  3
    496    485    497    500     1  0.0000000  0.6508444  3
    496    485    497    498     1  0.0000000  0.6508444  3
    496    485    497    499     1  0.0000000  0.6508444  3
    498    497    500    501     1  0.0000000  3.3472000  1
    498    497    500    501     1  0.0000000  0.0000000  2
    498    497    500    501     1  180.0000771  0.3347200  3
    498    497    500    502     1  0.0000000  3.3472000  1
    498    497    500    502     1  0.0000000  0.0000000  2
    498    497    500    502     1  180.0000771  0.3347200  3
    499    497    500    501     1  0.0000000  3.3472000  1
    499    497    500    501     1  0.0000000  0.0000000  2
    499    497    500    501     1  180.0000771  0.3347200  3
    499    497    500    502     1  0.0000000  3.3472000  1
    499    497    500    502     1  0.0000000  0.0000000  2
    499    497    500    502     1  180.0000771  0.3347200  3
    503    505    507    509     1  0.0000000  0.6508444  3
    503    505    507    510     1  0.0000000  0.6508444  3
    504    503    505    507     1  0.0000000  0.0000000  2
    504    503    505    506     1  0.0000000  0.0000000  2
    504    503    505    508     1  0.0000000  0.0000000  2
    506    505    507    511     1  0.0000000  0.6508444  3
    506    505    507    509     1  0.0000000  0.6508444  3
    506    505    507    510     1  0.0000000  0.6508444  3
    507    511    512    522     1  0.0000000  1.2552000  3
    507    511    512    523     1  0.0000000  1.2552000  3
    507    511    513    514     1  0.0000000  1.2552000  3
    507    511    513    516     1  0.0000000  1.2552000  3
    508    505    507    511     1  0.0000000  0.6508444  3
    508    505    507    509     1  0.0000000  0.6508444  3
    508    505    507    510     1  0.0000000  0.6508444  3
    509    507    511    512     1  0.0000000  1.2552000  3
    509    507    511    513     1  0.0000000  1.2552000  3
    510    507    511    512     1  0.0000000  1.2552000  3
    510    507    511    513     1  0.0000000  1.2552000  3
    511    512    524    525     1  0.0000000  0.6508444  3
    511    512    524    526     1  0.0000000  0.6508444  3
    511    513    515    517     1  0.0000000  0.6508444  3
    511    513    515    518     1  0.0000000  0.6508444  3
    512    511    513    514     1  0.0000000  1.2552000  3
    512    511    513    516     1  0.0000000  1.2552000  3
    513    511    512    522     1  0.0000000  1.2552000  3
    513    511    512    523     1  0.0000000  1.2552000  3
    514    513    515    519     1  0.0000000  0.6508444  3
    514    513    515    517     1  0.0000000  0.6508444  3
    514    513    515    518     1  0.0000000  0.6508444  3
    516    513    515    519     1  0.0000000  0.6508444  3
    516    513    515    517     1  0.0000000  0.6508444  3
    516    513    515    518     1  0.0000000  0.6508444  3
    517    515    519    520     1  0.0000000  3.3472000  1
    517    515    519    520     1  0.0000000  0.0000000  2
    517    515    519    520     1  180.0000771  0.3347200  3
    517    515    519    521     1  0.0000000  3.3472000  1
    517    515    519    521     1  0.0000000  0.0000000  2
    517    515    519    521     1  180.0000771  0.3347200  3
    518    515    519    520     1  0.0000000  3.3472000  1
    518    515    519    520     1  0.0000000  0.0000000  2
    518    515    519    520     1  180.0000771  0.3347200  3
    518    515    519    521     1  0.0000000  3.3472000  1
    518    515    519    521     1  0.0000000  0.0000000  2
    518    515    519    521     1  180.0000771  0.3347200  3
    522    512    524    527     1  0.0000000  0.6508444  3
    522    512    524    525     1  0.0000000  0.6508444  3
    522    512    524    526     1  0.0000000  0.6508444  3
    523    512    524    527     1  0.0000000  0.6508444  3
    523    512    524    525     1  0.0000000  0.6508444  3
    523    512    524    526     1  0.0000000  0.6508444  3
    525    524    527    528     1  0.0000000  3.3472000  1
    525    524    527    528     1  0.0000000  0.0000000  2
    525    524    527    528     1  180.0000771  0.3347200  3
    525    524    527    529     1  0.0000000  3.3472000  1
    525    524    527    529     1  0.0000000  0.0000000  2
    525    524    527    529     1  180.0000771  0.3347200  3
    526    524    527    528     1  0.0000000  3.3472000  1
    526    524    527    528     1  0.0000000  0.0000000  2
    526    524    527    528     1  180.0000771  0.3347200  3
    526    524    527    529     1  0.0000000  3.3472000  1
    526    524    527    529     1  0.0000000  0.0000000  2
    526    524    527    529     1  180.0000771  0.3347200  3
    530    532    534    536     1  0.0000000  0.6508444  3
    530    532    534    537     1  0.0000000  0.6508444  3
    531    530    532    534     1  0.0000000  0.0000000  2
    531    530    532    533     1  0.0000000  0.0000000  2
    531    530    532    535     1  0.0000000  0.0000000  2
    533    532    534    538     1  0.0000000  0.6508444  3
    533    532    534    536     1  0.0000000  0.6508444  3
    533    532    534    537     1  0.0000000  0.6508444  3
    534    538    539    549     1  0.0000000  1.2552000  3
    534    538    539    550     1  0.0000000  1.2552000  3
    534    538    540    541     1  0.0000000  1.2552000  3
    534    538    540    543     1  0.0000000  1.2552000  3
    535    532    534    538     1  0.0000000  0.6508444  3
    535    532    534    536     1  0.0000000  0.6508444  3
    535    532    534    537     1  0.0000000  0.6508444  3
    536    534    538    539     1  0.0000000  1.2552000  3
    536    534    538    540     1  0.0000000  1.2552000  3
    537    534    538    539     1  0.0000000  1.2552000  3
    537    534    538    540     1  0.0000000  1.2552000  3
    538    539    551    552     1  0.0000000  0.6508444  3
    538    539    551    553     1  0.0000000  0.6508444  3
    538    540    542    544     1  0.0000000  0.6508444  3
    538    540    542    545     1  0.0000000  0.6508444  3
    539    538    540    541     1  0.0000000  1.2552000  3
    539    538    540    543     1  0.0000000  1.2552000  3
    540    538    539    549     1  0.0000000  1.2552000  3
    540    538    539    550     1  0.0000000  1.2552000  3
    541    540    542    546     1  0.0000000  0.6508444  3
    541    540    542    544     1  0.0000000  0.6508444  3
    541    540    542    545     1  0.0000000  0.6508444  3
    543    540    542    546     1  0.0000000  0.6508444  3
    543    540    542    544     1  0.0000000  0.6508444  3
    543    540    542    545     1  0.0000000  0.6508444  3
    544    542    546    547     1  0.0000000  3.3472000  1
    544    542    546    547     1  0.0000000  0.0000000  2
    544    542    546    547     1  180.0000771  0.3347200  3
    544    542    546    548     1  0.0000000  3.3472000  1
    544    542    546    548     1  0.0000000  0.0000000  2
    544    542    546    548     1  180.0000771  0.3347200  3
    545    542    546    547     1  0.0000000  3.3472000  1
    545    542    546    547     1  0.0000000  0.0000000  2
    545    542    546    547     1  180.0000771  0.3347200  3
    545    542    546    548     1  0.0000000  3.3472000  1
    545    542    546    548     1  0.0000000  0.0000000  2
    545    542    546    548     1  180.0000771  0.3347200  3
    549    539    551    554     1  0.0000000  0.6508444  3
    549    539    551    552     1  0.0000000  0.6508444  3
    549    539    551    553     1  0.0000000  0.6508444  3
    550    539    551    554     1  0.0000000  0.6508444  3
    550    539    551    552     1  0.0000000  0.6508444  3
    550    539    551    553     1  0.0000000  0.6508444  3
    552    551    554    555     1  0.0000000  3.3472000  1
    552    551    554    555     1  0.0000000  0.0000000  2
    552    551    554    555     1  180.0000771  0.3347200  3
    552    551    554    556     1  0.0000000  3.3472000  1
    552    551    554    556     1  0.0000000  0.0000000  2
    552    551    554    556     1  180.0000771  0.3347200  3
    553    551    554    555     1  0.0000000  3.3472000  1
    553    551    554    555     1  0.0000000  0.0000000  2
    553    551    554    555     1  180.0000771  0.3347200  3
    553    551    554    556     1  0.0000000  3.3472000  1
    553    551    554    556     1  0.0000000  0.0000000  2
    553    551    554    556     1  180.0000771  0.3347200  3
    557    559    561    563     1  0.0000000  0.6508444  3
    557    559    561    564     1  0.0000000  0.6508444  3
    558    557    559    561     1  0.0000000  0.0000000  2
    558    557    559    560     1  0.0000000  0.0000000  2
    558    557    559    562     1  0.0000000  0.0000000  2
    560    559    561    565     1  0.0000000  0.6508444  3
    560    559    561    563     1  0.0000000  0.6508444  3
    560    559    561    564     1  0.0000000  0.6508444  3
    561    565    566    576     1  0.0000000  1.2552000  3
    561    565    566    577     1  0.0000000  1.2552000  3
    561    565    567    568     1  0.0000000  1.2552000  3
    561    565    567    570     1  0.0000000  1.2552000  3
    562    559    561    565     1  0.0000000  0.6508444  3
    562    559    561    563     1  0.0000000  0.6508444  3
    562    559    561    564     1  0.0000000  0.6508444  3
    563    561    565    566     1  0.0000000  1.2552000  3
    563    561    565    567     1  0.0000000  1.2552000  3
    564    561    565    566     1  0.0000000  1.2552000  3
    564    561    565    567     1  0.0000000  1.2552000  3
    565    566    578    579     1  0.0000000  0.6508444  3
    565    566    578    580     1  0.0000000  0.6508444  3
    565    567    569    571     1  0.0000000  0.6508444  3
    565    567    569    572     1  0.0000000  0.6508444  3
    566    565    567    568     1  0.0000000  1.2552000  3
    566    565    567    570     1  0.0000000  1.2552000  3
    567    565    566    576     1  0.0000000  1.2552000  3
    567    565    566    577     1  0.0000000  1.2552000  3
    568    567    569    573     1  0.0000000  0.6508444  3
    568    567    569    571     1  0.0000000  0.6508444  3
    568    567    569    572     1  0.0000000  0.6508444  3
    570    567    569    573     1  0.0000000  0.6508444  3
    570    567    569    571     1  0.0000000  0.6508444  3
    570    567    569    572     1  0.0000000  0.6508444  3
    571    569    573    574     1  0.0000000  3.3472000  1
    571    569    573    574     1  0.0000000  0.0000000  2
    571    569    573    574     1  180.0000771  0.3347200  3
    571    569    573    575     1  0.0000000  3.3472000  1
    571    569    573    575     1  0.0000000  0.0000000  2
    571    569    573    575     1  180.0000771  0.3347200  3
    572    569    573    574     1  0.0000000  3.3472000  1
    572    569    573    574     1  0.0000000  0.0000000  2
    572    569    573    574     1  180.0000771  0.3347200  3
    572    569    573    575     1  0.0000000  3.3472000  1
    572    569    573    575     1  0.0000000  0.0000000  2
    572    569    573    575     1  180.0000771  0.3347200  3
    576    566    578    581     1  0.0000000  0.6508444  3
    576    566    578    579     1  0.0000000  0.6508444  3
    576    566    578    580     1  0.0000000  0.6508444  3
    577    566    578    581     1  0.0000000  0.6508444  3
    577    566    578    579     1  0.0000000  0.6508444  3
    577    566    578    580     1  0.0000000  0.6508444  3
    579    578    581    582     1  0.0000000  3.3472000  1
    579    578    581    582     1  0.0000000  0.0000000  2
    579    578    581    582     1  180.0000771  0.3347200  3
    579    578    581    583     1  0.0000000  3.3472000  1
    579    578    581    583     1  0.0000000  0.0000000  2
    579    578    581    583     1  180.0000771  0.3347200  3
    580    578    581    582     1  0.0000000  3.3472000  1
    580    578    581    582     1  0.0000000  0.0000000  2
    580    578    581    582     1  180.0000771  0.3347200  3
    580    578    581    583     1  0.0000000  3.3472000  1
    580    578    581    583     1  0.0000000  0.0000000  2
    580    578    581    583     1  180.0000771  0.3347200  3
    584    586    588    590     1  0.0000000  0.6508444  3
    584    586    588    591     1  0.0000000  0.6508444  3
    585    584    586    588     1  0.0000000  0.0000000  2
    585    584    586    587     1  0.0000000  0.0000000  2
    585    584    586    589     1  0.0000000  0.0000000  2
    587    586    588    592     1  0.0000000  0.6508444  3
    587    586    588    590     1  0.0000000  0.6508444  3
    587    586    588    591     1  0.0000000  0.6508444  3
    588    592    593    603     1  0.0000000  1.2552000  3
    588    592    593    604     1  0.0000000  1.2552000  3
    588    592    594    595     1  0.0000000  1.2552000  3
    588    592    594    597     1  0.0000000  1.2552000  3
    589    586    588    592     1  0.0000000  0.6508444  3
    589    586    588    590     1  0.0000000  0.6508444  3
    589    586    588    591     1  0.0000000  0.6508444  3
    590    588    592    593     1  0.0000000  1.2552000  3
    590    588    592    594     1  0.0000000  1.2552000  3
    591    588    592    593     1  0.0000000  1.2552000  3
    591    588    592    594     1  0.0000000  1.2552000  3
    592    593    605    606     1  0.0000000  0.6508444  3
    592    593    605    607     1  0.0000000  0.6508444  3
    592    594    596    598     1  0.0000000  0.6508444  3
    592    594    596    599     1  0.0000000  0.6508444  3
    593    592    594    595     1  0.0000000  1.2552000  3
    593    592    594    597     1  0.0000000  1.2552000  3
    594    592    593    603     1  0.0000000  1.2552000  3
    594    592    593    604     1  0.0000000  1.2552000  3
    595    594    596    600     1  0.0000000  0.6508444  3
    595    594    596    598     1  0.0000000  0.6508444  3
    595    594    596    599     1  0.0000000  0.6508444  3
    597    594    596    600     1  0.0000000  0.6508444  3
    597    594    596    598     1  0.0000000  0.6508444  3
    597    594    596    599     1  0.0000000  0.6508444  3
    598    596    600    601     1  0.0000000  3.3472000  1
    598    596    600    601     1  0.0000000  0.0000000  2
    598    596    600    601     1  180.0000771  0.3347200  3
    598    596    600    602     1  0.0000000  3.3472000  1
    598    596    600    602     1  0.0000000  0.0000000  2
    598    596    600    602     1  180.0000771  0.3347200  3
    599    596    600    601     1  0.0000000  3.3472000  1
    599    596    600    601     1  0.0000000  0.0000000  2
    599    596    600    601     1  180.0000771  0.3347200  3
    599    596    600    602     1  0.0000000  3.3472000  1
    599    596    600    602     1  0.0000000  0.0000000  2
    599    596    600    602     1  180.0000771  0.3347200  3
    603    593    605    608     1  0.0000000  0.6508444  3
    603    593    605    606     1  0.0000000  0.6508444  3
    603    593    605    607     1  0.0000000  0.6508444  3
    604    593    605    608     1  0.0000000  0.6508444  3
    604    593    605    606     1  0.0000000  0.6508444  3
    604    593    605    607     1  0.0000000  0.6508444  3
    606    605    608    609     1  0.0000000  3.3472000  1
    606    605    608    609     1  0.0000000  0.0000000  2
    606    605    608    609     1  180.0000771  0.3347200  3
    606    605    608    610     1  0.0000000  3.3472000  1
    606    605    608    610     1  0.0000000  0.0000000  2
    606    605    608    610     1  180.0000771  0.3347200  3
    607    605    608    609     1  0.0000000  3.3472000  1
    607    605    608    609     1  0.0000000  0.0000000  2
    607    605    608    609     1  180.0000771  0.3347200  3
    607    605    608    610     1  0.0000000  3.3472000  1
    607    605    608    610     1  0.0000000  0.0000000  2
    607    605    608    610     1  180.0000771  0.3347200  3
    611    613    615    617     1  0.0000000  0.6508444  3
    611    613    615    618     1  0.0000000  0.6508444  3
    612    611    613    615     1  0.0000000  0.0000000  2
    612    611    613    614     1  0.0000000  0.0000000  2
    612    611    613    616     1  0.0000000  0.0000000  2
    614    613    615    619     1  0.0000000  0.6508444  3
    614    613    615    617     1  0.0000000  0.6508444  3
    614    613    615    618     1  0.0000000  0.6508444  3
    615    619    620    630     1  0.0000000  1.2552000  3
    615    619    620    631     1  0.0000000  1.2552000  3
    615    619    621    622     1  0.0000000  1.2552000  3
    615    619    621    624     1  0.0000000  1.2552000  3
    616    613    615    619     1  0.0000000  0.6508444  3
    616    613    615    617     1  0.0000000  0.6508444  3
    616    613    615    618     1  0.0000000  0.6508444  3
    617    615    619    620     1  0.0000000  1.2552000  3
    617    615    619    621     1  0.0000000  1.2552000  3
    618    615    619    620     1  0.0000000  1.2552000  3
    618    615    619    621     1  0.0000000  1.2552000  3
    619    620    632    633     1  0.0000000  0.6508444  3
    619    620    632    634     1  0.0000000  0.6508444  3
    619    621    623    625     1  0.0000000  0.6508444  3
    619    621    623    626     1  0.0000000  0.6508444  3
    620    619    621    622     1  0.0000000  1.2552000  3
    620    619    621    624     1  0.0000000  1.2552000  3
    621    619    620    630     1  0.0000000  1.2552000  3
    621    619    620    631     1  0.0000000  1.2552000  3
    622    621    623    627     1  0.0000000  0.6508444  3
    622    621    623    625     1  0.0000000  0.6508444  3
    622    621    623    626     1  0.0000000  0.6508444  3
    624    621    623    627     1  0.0000000  0.6508444  3
    624    621    623    625     1  0.0000000  0.6508444  3
    624    621    623    626     1  0.0000000  0.6508444  3
    625    623    627    628     1  0.0000000  3.3472000  1
    625    623    627    628     1  0.0000000  0.0000000  2
    625    623    627    628     1  180.0000771  0.3347200  3
    625    623    627    629     1  0.0000000  3.3472000  1
    625    623    627    629     1  0.0000000  0.0000000  2
    625    623    627    629     1  180.0000771  0.3347200  3
    626    623    627    628     1  0.0000000  3.3472000  1
    626    623    627    628     1  0.0000000  0.0000000  2
    626    623    627    628     1  180.0000771  0.3347200  3
    626    623    627    629     1  0.0000000  3.3472000  1
    626    623    627    629     1  0.0000000  0.0000000  2
    626    623    627    629     1  180.0000771  0.3347200  3
    630    620    632    635     1  0.0000000  0.6508444  3
    630    620    632    633     1  0.0000000  0.6508444  3
    630    620    632    634     1  0.0000000  0.6508444  3
    631    620    632    635     1  0.0000000  0.6508444  3
    631    620    632    633     1  0.0000000  0.6508444  3
    631    620    632    634     1  0.0000000  0.6508444  3
    633    632    635    636     1  0.0000000  3.3472000  1
    633    632    635    636     1  0.0000000  0.0000000  2
    633    632    635    636     1  180.0000771  0.3347200  3
    633    632    635    637     1  0.0000000  3.3472000  1
    633    632    635    637     1  0.0000000  0.0000000  2
    633    632    635    637     1  180.0000771  0.3347200  3
    634    632    635    636     1  0.0000000  3.3472000  1
    634    632    635    636     1  0.0000000  0.0000000  2
    634    632    635    636     1  180.0000771  0.3347200  3
    634    632    635    637     1  0.0000000  3.3472000  1
    634    632    635    637     1  0.0000000  0.0000000  2
    634    632    635    637     1  180.0000771  0.3347200  3
    638    640    642    644     1  0.0000000  0.6508444  3
    638    640    642    645     1  0.0000000  0.6508444  3
    639    638    640    642     1  0.0000000  0.0000000  2
    639    638    640    641     1  0.0000000  0.0000000  2
    639    638    640    643     1  0.0000000  0.0000000  2
    641    640    642    646     1  0.0000000  0.6508444  3
    641    640    642    644     1  0.0000000  0.6508444  3
    641    640    642    645     1  0.0000000  0.6508444  3
    642    646    647    657     1  0.0000000  1.2552000  3
    642    646    647    658     1  0.0000000  1.2552000  3
    642    646    648    649     1  0.0000000  1.2552000  3
    642    646    648    651     1  0.0000000  1.2552000  3
    643    640    642    646     1  0.0000000  0.6508444  3
    643    640    642    644     1  0.0000000  0.6508444  3
    643    640    642    645     1  0.0000000  0.6508444  3
    644    642    646    647     1  0.0000000  1.2552000  3
    644    642    646    648     1  0.0000000  1.2552000  3
    645    642    646    647     1  0.0000000  1.2552000  3
    645    642    646    648     1  0.0000000  1.2552000  3
    646    647    659    660     1  0.0000000  0.6508444  3
    646    647    659    661     1  0.0000000  0.6508444  3
    646    648    650    652     1  0.0000000  0.6508444  3
    646    648    650    653     1  0.0000000  0.6508444  3
    647    646    648    649     1  0.0000000  1.2552000  3
    647    646    648    651     1  0.0000000  1.2552000  3
    648    646    647    657     1  0.0000000  1.2552000  3
    648    646    647    658     1  0.0000000  1.2552000  3
    649    648    650    654     1  0.0000000  0.6508444  3
    649    648    650    652     1  0.0000000  0.6508444  3
    649    648    650    653     1  0.0000000  0.6508444  3
    651    648    650    654     1  0.0000000  0.6508444  3
    651    648    650    652     1  0.0000000  0.6508444  3
    651    648    650    653     1  0.0000000  0.6508444  3
    652    650    654    655     1  0.0000000  3.3472000  1
    652    650    654    655     1  0.0000000  0.0000000  2
    652    650    654    655     1  180.0000771  0.3347200  3
    652    650    654    656     1  0.0000000  3.3472000  1
    652    650    654    656     1  0.0000000  0.0000000  2
    652    650    654    656     1  180.0000771  0.3347200  3
    653    650    654    655     1  0.0000000  3.3472000  1
    653    650    654    655     1  0.0000000  0.0000000  2
    653    650    654    655     1  180.0000771  0.3347200  3
    653    650    654    656     1  0.0000000  3.3472000  1
    653    650    654    656     1  0.0000000  0.0000000  2
    653    650    654    656     1  180.0000771  0.3347200  3
    657    647    659    662     1  0.0000000  0.6508444  3
    657    647    659    660     1  0.0000000  0.6508444  3
    657    647    659    661     1  0.0000000  0.6508444  3
    658    647    659    662     1  0.0000000  0.6508444  3
    658    647    659    660     1  0.0000000  0.6508444  3
    658    647    659    661     1  0.0000000  0.6508444  3
    660    659    662    663     1  0.0000000  3.3472000  1
    660    659    662    663     1  0.0000000  0.0000000  2
    660    659    662    663     1  180.0000771  0.3347200  3
    660    659    662    664     1  0.0000000  3.3472000  1
    660    659    662    664     1  0.0000000  0.0000000  2
    660    659    662    664     1  180.0000771  0.3347200  3
    661    659    662    663     1  0.0000000  3.3472000  1
    661    659    662    663     1  0.0000000  0.0000000  2
    661    659    662    663     1  180.0000771  0.3347200  3
    661    659    662    664     1  0.0000000  3.3472000  1
    661    659    662    664     1  0.0000000  0.0000000  2
    661    659    662    664     1  180.0000771  0.3347200  3
    665    667    669    671     1  0.0000000  0.6508444  3
    665    667    669    672     1  0.0000000  0.6508444  3
    666    665    667    669     1  0.0000000  0.0000000  2
    666    665    667    668     1  0.0000000  0.0000000  2
    666    665    667    670     1  0.0000000  0.0000000  2
    668    667    669    673     1  0.0000000  0.6508444  3
    668    667    669    671     1  0.0000000  0.6508444  3
    668    667    669    672     1  0.0000000  0.6508444  3
    669    673    674    684     1  0.0000000  1.2552000  3
    669    673    674    685     1  0.0000000  1.2552000  3
    669    673    675    676     1  0.0000000  1.2552000  3
    669    673    675    678     1  0.0000000  1.2552000  3
    670    667    669    673     1  0.0000000  0.6508444  3
    670    667    669    671     1  0.0000000  0.6508444  3
    670    667    669    672     1  0.0000000  0.6508444  3
    671    669    673    674     1  0.0000000  1.2552000  3
    671    669    673    675     1  0.0000000  1.2552000  3
    672    669    673    674     1  0.0000000  1.2552000  3
    672    669    673    675     1  0.0000000  1.2552000  3
    673    674    686    687     1  0.0000000  0.6508444  3
    673    674    686    688     1  0.0000000  0.6508444  3
    673    675    677    679     1  0.0000000  0.6508444  3
    673    675    677    680     1  0.0000000  0.6508444  3
    674    673    675    676     1  0.0000000  1.2552000  3
    674    673    675    678     1  0.0000000  1.2552000  3
    675    673    674    684     1  0.0000000  1.2552000  3
    675    673    674    685     1  0.0000000  1.2552000  3
    676    675    677    681     1  0.0000000  0.6508444  3
    676    675    677    679     1  0.0000000  0.6508444  3
    676    675    677    680     1  0.0000000  0.6508444  3
    678    675    677    681     1  0.0000000  0.6508444  3
    678    675    677    679     1  0.0000000  0.6508444  3
    678    675    677    680     1  0.0000000  0.6508444  3
    679    677    681    682     1  0.0000000  3.3472000  1
    679    677    681    682     1  0.0000000  0.0000000  2
    679    677    681    682     1  180.0000771  0.3347200  3
    679    677    681    683     1  0.0000000  3.3472000  1
    679    677    681    683     1  0.0000000  0.0000000  2
    679    677    681    683     1  180.0000771  0.3347200  3
    680    677    681    682     1  0.0000000  3.3472000  1
    680    677    681    682     1  0.0000000  0.0000000  2
    680    677    681    682     1  180.0000771  0.3347200  3
    680    677    681    683     1  0.0000000  3.3472000  1
    680    677    681    683     1  0.0000000  0.0000000  2
    680    677    681    683     1  180.0000771  0.3347200  3
    684    674    686    689     1  0.0000000  0.6508444  3
    684    674    686    687     1  0.0000000  0.6508444  3
    684    674    686    688     1  0.0000000  0.6508444  3
    685    674    686    689     1  0.0000000  0.6508444  3
    685    674    686    687     1  0.0000000  0.6508444  3
    685    674    686    688     1  0.0000000  0.6508444  3
    687    686    689    690     1  0.0000000  3.3472000  1
    687    686    689    690     1  0.0000000  0.0000000  2
    687    686    689    690     1  180.0000771  0.3347200  3
    687    686    689    691     1  0.0000000  3.3472000  1
    687    686    689    691     1  0.0000000  0.0000000  2
    687    686    689    691     1  180.0000771  0.3347200  3
    688    686    689    690     1  0.0000000  3.3472000  1
    688    686    689    690     1  0.0000000  0.0000000  2
    688    686    689    690     1  180.0000771  0.3347200  3
    688    686    689    691     1  0.0000000  3.3472000  1
    688    686    689    691     1  0.0000000  0.0000000  2
    688    686    689    691     1  180.0000771  0.3347200  3
    692    694    696    698     1  0.0000000  0.6508444  3
    692    694    696    699     1  0.0000000  0.6508444  3
    693    692    694    696     1  0.0000000  0.0000000  2
    693    692    694    695     1  0.0000000  0.0000000  2
    693    692    694    697     1  0.0000000  0.0000000  2
    695    694    696    700     1  0.0000000  0.6508444  3
    695    694    696    698     1  0.0000000  0.6508444  3
    695    694    696    699     1  0.0000000  0.6508444  3
    696    700    701    711     1  0.0000000  1.2552000  3
    696    700    701    712     1  0.0000000  1.2552000  3
    696    700    702    703     1  0.0000000  1.2552000  3
    696    700    702    705     1  0.0000000  1.2552000  3
    697    694    696    700     1  0.0000000  0.6508444  3
    697    694    696    698     1  0.0000000  0.6508444  3
    697    694    696    699     1  0.0000000  0.6508444  3
    698    696    700    701     1  0.0000000  1.2552000  3
    698    696    700    702     1  0.0000000  1.2552000  3
    699    696    700    701     1  0.0000000  1.2552000  3
    699    696    700    702     1  0.0000000  1.2552000  3
    700    701    713    714     1  0.0000000  0.6508444  3
    700    701    713    715     1  0.0000000  0.6508444  3
    700    702    704    706     1  0.0000000  0.6508444  3
    700    702    704    707     1  0.0000000  0.6508444  3
    701    700    702    703     1  0.0000000  1.2552000  3
    701    700    702    705     1  0.0000000  1.2552000  3
    702    700    701    711     1  0.0000000  1.2552000  3
    702    700    701    712     1  0.0000000  1.2552000  3
    703    702    704    708     1  0.0000000  0.6508444  3
    703    702    704    706     1  0.0000000  0.6508444  3
    703    702    704    707     1  0.0000000  0.6508444  3
    705    702    704    708     1  0.0000000  0.6508444  3
    705    702    704    706     1  0.0000000  0.6508444  3
    705    702    704    707     1  0.0000000  0.6508444  3
    706    704    708    709     1  0.0000000  3.3472000  1
    706    704    708    709     1  0.0000000  0.0000000  2
    706    704    708    709     1  180.0000771  0.3347200  3
    706    704    708    710     1  0.0000000  3.3472000  1
    706    704    708    710     1  0.0000000  0.0000000  2
    706    704    708    710     1  180.0000771  0.3347200  3
    707    704    708    709     1  0.0000000  3.3472000  1
    707    704    708    709     1  0.0000000  0.0000000  2
    707    704    708    709     1  180.0000771  0.3347200  3
    707    704    708    710     1  0.0000000  3.3472000  1
    707    704    708    710     1  0.0000000  0.0000000  2
    707    704    708    710     1  180.0000771  0.3347200  3
    711    701    713    716     1  0.0000000  0.6508444  3
    711    701    713    714     1  0.0000000  0.6508444  3
    711    701    713    715     1  0.0000000  0.6508444  3
    712    701    713    716     1  0.0000000  0.6508444  3
    712    701    713    714     1  0.0000000  0.6508444  3
    712    701    713    715     1  0.0000000  0.6508444  3
    714    713    716    717     1  0.0000000  3.3472000  1
    714    713    716    717     1  0.0000000  0.0000000  2
    714    713    716    717     1  180.0000771  0.3347200  3
    714    713    716    718     1  0.0000000  3.3472000  1
    714    713    716    718     1  0.0000000  0.0000000  2
    714    713    716    718     1  180.0000771  0.3347200  3
    715    713    716    717     1  0.0000000  3.3472000  1
    715    713    716    717     1  0.0000000  0.0000000  2
    715    713    716    717     1  180.0000771  0.3347200  3
    715    713    716    718     1  0.0000000  3.3472000  1
    715    713    716    718     1  0.0000000  0.0000000  2
    715    713    716    718     1  180.0000771  0.3347200  3
    719    721    723    725     1  0.0000000  0.6508444  3
    719    721    723    726     1  0.0000000  0.6508444  3
    720    719    721    723     1  0.0000000  0.0000000  2
    720    719    721    722     1  0.0000000  0.0000000  2
    720    719    721    724     1  0.0000000  0.0000000  2
    722    721    723    727     1  0.0000000  0.6508444  3
    722    721    723    725     1  0.0000000  0.6508444  3
    722    721    723    726     1  0.0000000  0.6508444  3
    723    727    728    738     1  0.0000000  1.2552000  3
    723    727    728    739     1  0.0000000  1.2552000  3
    723    727    729    730     1  0.0000000  1.2552000  3
    723    727    729    732     1  0.0000000  1.2552000  3
    724    721    723    727     1  0.0000000  0.6508444  3
    724    721    723    725     1  0.0000000  0.6508444  3
    724    721    723    726     1  0.0000000  0.6508444  3
    725    723    727    728     1  0.0000000  1.2552000  3
    725    723    727    729     1  0.0000000  1.2552000  3
    726    723    727    728     1  0.0000000  1.2552000  3
    726    723    727    729     1  0.0000000  1.2552000  3
    727    728    740    741     1  0.0000000  0.6508444  3
    727    728    740    742     1  0.0000000  0.6508444  3
    727    729    731    733     1  0.0000000  0.6508444  3
    727    729    731    734     1  0.0000000  0.6508444  3
    728    727    729    730     1  0.0000000  1.2552000  3
    728    727    729    732     1  0.0000000  1.2552000  3
    729    727    728    738     1  0.0000000  1.2552000  3
    729    727    728    739     1  0.0000000  1.2552000  3
    730    729    731    735     1  0.0000000  0.6508444  3
    730    729    731    733     1  0.0000000  0.6508444  3
    730    729    731    734     1  0.0000000  0.6508444  3
    732    729    731    735     1  0.0000000  0.6508444  3
    732    729    731    733     1  0.0000000  0.6508444  3
    732    729    731    734     1  0.0000000  0.6508444  3
    733    731    735    736     1  0.0000000  3.3472000  1
    733    731    735    736     1  0.0000000  0.0000000  2
    733    731    735    736     1  180.0000771  0.3347200  3
    733    731    735    737     1  0.0000000  3.3472000  1
    733    731    735    737     1  0.0000000  0.0000000  2
    733    731    735    737     1  180.0000771  0.3347200  3
    734    731    735    736     1  0.0000000  3.3472000  1
    734    731    735    736     1  0.0000000  0.0000000  2
    734    731    735    736     1  180.0000771  0.3347200  3
    734    731    735    737     1  0.0000000  3.3472000  1
    734    731    735    737     1  0.0000000  0.0000000  2
    734    731    735    737     1  180.0000771  0.3347200  3
    738    728    740    743     1  0.0000000  0.6508444  3
    738    728    740    741     1  0.0000000  0.6508444  3
    738    728    740    742     1  0.0000000  0.6508444  3
    739    728    740    743     1  0.0000000  0.6508444  3
    739    728    740    741     1  0.0000000  0.6508444  3
    739    728    740    742     1  0.0000000  0.6508444  3
    741    740    743    744     1  0.0000000  3.3472000  1
    741    740    743    744     1  0.0000000  0.0000000  2
    741    740    743    744     1  180.0000771  0.3347200  3
    741    740    743    745     1  0.0000000  3.3472000  1
    741    740    743    745     1  0.0000000  0.0000000  2
    741    740    743    745     1  180.0000771  0.3347200  3
    742    740    743    744     1  0.0000000  3.3472000  1
    742    740    743    744     1  0.0000000  0.0000000  2
    742    740    743    744     1  180.0000771  0.3347200  3
    742    740    743    745     1  0.0000000  3.3472000  1
    742    740    743    745     1  0.0000000  0.0000000  2
    742    740    743    745     1  180.0000771  0.3347200  3
    746    748    750    752     1  0.0000000  0.6508444  3
    746    748    750    753     1  0.0000000  0.6508444  3
    747    746    748    750     1  0.0000000  0.0000000  2
    747    746    748    749     1  0.0000000  0.0000000  2
    747    746    748    751     1  0.0000000  0.0000000  2
    749    748    750    754     1  0.0000000  0.6508444  3
    749    748    750    752     1  0.0000000  0.6508444  3
    749    748    750    753     1  0.0000000  0.6508444  3
    750    754    755    765     1  0.0000000  1.2552000  3
    750    754    755    766     1  0.0000000  1.2552000  3
    750    754    756    757     1  0.0000000  1.2552000  3
    750    754    756    759     1  0.0000000  1.2552000  3
    751    748    750    754     1  0.0000000  0.6508444  3
    751    748    750    752     1  0.0000000  0.6508444  3
    751    748    750    753     1  0.0000000  0.6508444  3
    752    750    754    755     1  0.0000000  1.2552000  3
    752    750    754    756     1  0.0000000  1.2552000  3
    753    750    754    755     1  0.0000000  1.2552000  3
    753    750    754    756     1  0.0000000  1.2552000  3
    754    755    767    768     1  0.0000000  0.6508444  3
    754    755    767    769     1  0.0000000  0.6508444  3
    754    756    758    760     1  0.0000000  0.6508444  3
    754    756    758    761     1  0.0000000  0.6508444  3
    755    754    756    757     1  0.0000000  1.2552000  3
    755    754    756    759     1  0.0000000  1.2552000  3
    756    754    755    765     1  0.0000000  1.2552000  3
    756    754    755    766     1  0.0000000  1.2552000  3
    757    756    758    762     1  0.0000000  0.6508444  3
    757    756    758    760     1  0.0000000  0.6508444  3
    757    756    758    761     1  0.0000000  0.6508444  3
    759    756    758    762     1  0.0000000  0.6508444  3
    759    756    758    760     1  0.0000000  0.6508444  3
    759    756    758    761     1  0.0000000  0.6508444  3
    760    758    762    763     1  0.0000000  3.3472000  1
    760    758    762    763     1  0.0000000  0.0000000  2
    760    758    762    763     1  180.0000771  0.3347200  3
    760    758    762    764     1  0.0000000  3.3472000  1
    760    758    762    764     1  0.0000000  0.0000000  2
    760    758    762    764     1  180.0000771  0.3347200  3
    761    758    762    763     1  0.0000000  3.3472000  1
    761    758    762    763     1  0.0000000  0.0000000  2
    761    758    762    763     1  180.0000771  0.3347200  3
    761    758    762    764     1  0.0000000  3.3472000  1
    761    758    762    764     1  0.0000000  0.0000000  2
    761    758    762    764     1  180.0000771  0.3347200  3
    765    755    767    770     1  0.0000000  0.6508444  3
    765    755    767    768     1  0.0000000  0.6508444  3
    765    755    767    769     1  0.0000000  0.6508444  3
    766    755    767    770     1  0.0000000  0.6508444  3
    766    755    767    768     1  0.0000000  0.6508444  3
    766    755    767    769     1  0.0000000  0.6508444  3
    768    767    770    771     1  0.0000000  3.3472000  1
    768    767    770    771     1  0.0000000  0.0000000  2
    768    767    770    771     1  180.0000771  0.3347200  3
    768    767    770    772     1  0.0000000  3.3472000  1
    768    767    770    772     1  0.0000000  0.0000000  2
    768    767    770    772     1  180.0000771  0.3347200  3
    769    767    770    771     1  0.0000000  3.3472000  1
    769    767    770    771     1  0.0000000  0.0000000  2
    769    767    770    771     1  180.0000771  0.3347200  3
    769    767    770    772     1  0.0000000  3.3472000  1
    769    767    770    772     1  0.0000000  0.0000000  2
    769    767    770    772     1  180.0000771  0.3347200  3
     33     44     64     65     4  180.0000771  4.6024000  2
     34     69     89     90     4  180.0000771  4.6024000  2
     35     94    114    115     4  180.0000771  4.6024000  2
     36    119    139    140     4  180.0000771  4.6024000  2
     60    144    164    165     4  180.0000771  4.6024000  2
     61    169    189    190     4  180.0000771  4.6024000  2
     85    194    214    215     4  180.0000771  4.6024000  2
     86    219    239    240     4  180.0000771  4.6024000  2
    110    244    264    265     4  180.0000771  4.6024000  2
    111    269    289    290     4  180.0000771  4.6024000  2
    135    294    314    315     4  180.0000771  4.6024000  2
    136    319    339    340     4  180.0000771  4.6024000  2
    160    343    341    342     4  180.0000771  4.6024000  2
    161    370    368    369     4  180.0000771  4.6024000  2
    185    397    395    396     4  180.0000771  4.6024000  2
    186    424    422    423     4  180.0000771  4.6024000  2
    210    451    449    450     4  180.0000771  4.6024000  2
    211    478    476    477     4  180.0000771  4.6024000  2
    235    505    503    504     4  180.0000771  4.6024000  2
    236    532    530    531     4  180.0000771  4.6024000  2
    260    559    557    558     4  180.0000771  4.6024000  2
    261    586    584    585     4  180.0000771  4.6024000  2
    285    613    611    612     4  180.0000771  4.6024000  2
    286    640    638    639     4  180.0000771  4.6024000  2
    310    667    665    666     4  180.0000771  4.6024000  2
    311    694    692    693     4  180.0000771  4.6024000  2
    335    721    719    720     4  180.0000771  4.6024000  2
    336    748    746    747     4  180.0000771  4.6024000  2

;[ system ]
;; Name
;Generic title
;
;[ molecules ]
;; Compound       #mols
;system1              1
